<LesHouchesEvents version="3.0">
  <!--
  <scalesfunctionalform>
    muR  H_T/2 := sum_i mT(i)/2, i=final state
    muF1 H_T/2 := sum_i mT(i)/2, i=final state
    muF2 H_T/2 := sum_i mT(i)/2, i=final state
    QES  H_T/2 := sum_i mT(i)/2, i=final state
  </scalesfunctionalform>
HERWIG6   
  -->
  <header>
      131
  </header>
  <init>
   2212   2212 0.65000000D+04 0.65000000D+04 -1 -1   244800   244800 -4   1
 0.10966833D-03 0.77155486D-05 0.18614916D-05     66
  </init>
  <event>
  6     66 0.18614916E-05 0.79942376E+02 0.75467711E-02 0.92278979E-01
        2 -1    0    0  502    0 0.00000000E+00 0.00000000E+00 0.21245414E+04 0.21245414E+04 0.32000000E+00 0.0000E+00 0.9000E+01
       -4 -1    0    0    0  503 0.00000000E+00 0.00000000E+00 -.10319271E+04 0.10319282E+04 0.15500000E+01 0.0000E+00 0.9000E+01
       25  1    1    2    0    0 -.48132457E+03 -.39906391E+02 0.34598324E+03 0.60712047E+03 0.12500000E+03 0.0000E+00 0.9000E+01
        1  1    1    2  502    0 0.13652195E+03 -.38296517E+02 0.15195356E+04 0.15261367E+04 0.32000000E+00 0.0000E+00 0.9000E+01
       -3  1    1    2    0  501 0.44962452E+03 0.14383741E+03 -.36427984E+03 0.59628136E+03 0.50000000E+00 0.0000E+00 0.9000E+01
       21  1    1    2  501  503 -.10482190E+03 -.65634498E+02 -.40862462E+03 0.42693110E+03 0.75000000E+00 0.0000E+00 0.9000E+01
#aMCatNLO 2  0  0  2  5 0.41477641D+02 0.00000000D+00  -5  6  0 0.00000000D+00 0.00000000D+00 0.00000000D+00 0.00000000D+00 0.00000000D+00
  <mgrwgt>
 0.7765600609D-03    1    2    0
 0.113813078290803D+04 0.000000000000000D+00 0.000000000000000D+00 0.113813078290803D+04
 0.113813078290803D+04 0.000000000000000D+00 0.000000000000000D+00 -.113813078290803D+04
 0.523192675752962D+03 -.504884244541728D+03 -.546496018421726D+02 0.145222792138385D+02
 0.822625637564528D+03 0.985654618908728D+02 -.620528327453994D+02 0.814338526197156D+03
 0.930443252498561D+03 0.406318782650855D+03 0.116702434587572D+03 -.828860805410994D+03
 0.000000000000000D+00 -.000000000000000D+00 -.000000000000000D+00 -.000000000000000D+00
 0.114474118928687D+04 0.000000000000000D+00 0.000000000000000D+00 0.114474118928687D+04
 0.191516908537161D+04 0.000000000000000D+00 0.000000000000000D+00 -.191516908537161D+04
 0.499138627847736D+03 -.481362399709694D+03 -.399213396804384D+02 0.145222792138385D+02
 0.826588637705723D+03 0.136510658463699D+03 -.382933527006194D+02 0.814338526197156D+03
 0.953891613706554D+03 0.449673644404926D+03 0.143849190059324D+03 -.828860805410994D+03
 0.780291395398469D+03 -.104821903158931D+03 -.656344976782661D+02 -.770427896084735D+03
0.107865153385D-01 0.000000000000D+00 0.000000000000D+00 0.517047519556D-04 0.652122001557D-08  6 2 -4 25 1 -3 21 2 0.32685256D+00 0.15875808D+00 0.38223557D+06 0.38223557D+06 0.38223557D+06 0.10768528D+01  1  2  1  2  6  2       -4 0.776560060930D-03 0.100000000000D+01
  </mgrwgt>
  </event>
  <event>
  5     66 0.18614916E-05 0.42609118E+02 0.75467711E-02 0.91076110E-01
        2 -1    0    0  502    0 0.00000000E+00 0.00000000E+00 0.19092283E+04 0.19092283E+04 0.32000000E+00 0.0000E+00 0.9000E+01
       -4 -1    0    0    0  501 0.00000000E+00 0.00000000E+00 -.51061819E+03 0.51062054E+03 0.15500000E+01 0.0000E+00 0.9000E+01
       25  1    1    2    0    0 0.47591257E+03 -.14379262E+03 0.11533394E+04 0.12621354E+04 0.12500000E+03 0.0000E+00 0.9000E+01
        1  1    1    2  502    0 -.50292140E+03 0.11084498E+03 0.60554863E+03 0.79492502E+03 0.32000000E+00 0.0000E+00 0.9000E+01
       -3  1    1    2    0  501 0.27008831E+02 0.32947647E+02 -.36027790E+03 0.36278842E+03 0.50000000E+00 0.0000E+00 0.9000E+01
#aMCatNLO 1  0  0  1  1 0.18513240D+04 0.00000000D+00  -5  6  0 0.00000000D+00 0.00000000D+00 0.00000000D+00 0.00000000D+00 0.00000000D+00
  <mgrwgt>
 0.2207906106D-01    7    2    0
 0.987364958376884D+03 0.000000000000000D+00 0.000000000000000D+00 0.987364958376884D+03
 0.987364958376884D+03 0.000000000000000D+00 0.000000000000000D+00 -.987364958376884D+03
 0.729794536392588D+03 0.475793673864072D+03 -.143772024072107D+03 0.519543116934111D+03
 0.545099864450945D+03 -.502806130558075D+03 0.110819571475785D+03 0.178994077766777D+03
 0.699835515910235D+03 0.270124566940029D+02 0.329524525963223D+02 -.698537194700888D+03
 0.000000000000000D+00 -.000000000000000D+00 -.000000000000000D+00 0.000000000000000D+00
 0.111617776789680D+04 0.000000000000000D+00 0.000000000000000D+00 0.111617776789680D+04
 0.109559012989187D+04 0.000000000000000D+00 0.000000000000000D+00 -.109559012989187D+04
 0.753768487957009D+03 0.526033399659731D+03 -.768488485652888D+02 0.519543116934111D+03
 0.524446615801562D+03 -.466586757999126D+03 0.159066559056255D+03 0.178994077766777D+03
 0.709120826869943D+03 0.747256843476537D+02 0.965101384254507D+02 -.698537194700888D+03
 0.224431967160158D+03 -.134172326008259D+03 -.178727848916416D+03 0.205876380049361D+02
0.150726513517D-01 0.000000000000D+00 0.000000000000D+00 0.114265263918D-04 0.000000000000D+00  6 2 -4 25 1 -3 21 0 0.29372761D+00 0.78556828D-01 0.28622563D+06 0.28622563D+06 0.28622563D+06 0.10860653D+01  1  2  2  1  6  1        2 0.973855837348D-02 0.100000000000D+01
0.742173416734D-02 0.000000000000D+00 -.578829499110D-04 0.114265263918D-04 0.000000000000D+00  6 2 -4 25 1 -3 21 2 0.29372761D+00 0.78556828D-01 0.28622563D+06 0.28622563D+06 0.28622563D+06 0.10860653D+01  1  2  3  1  6  1        2 0.565616813700D-02 0.100000000000D+01
-.988290867734D-02 0.000000000000D+00 0.000000000000D+00 0.114265263918D-04 0.000000000000D+00  6 2 -4 25 1 -3 21 2 0.29372761D+00 0.78556828D-01 0.28622563D+06 0.28622563D+06 0.28622563D+06 0.10860653D+01  1  2 15  1  6  1        2 -.753185062969D-02 0.100000000000D+01
-.308277775547D-02 0.000000000000D+00 0.000000000000D+00 0.114265263918D-04 0.000000000000D+00  6 2 -4 25 1 -3 21 2 0.29372761D+00 0.78556828D-01 0.28622563D+06 0.28622563D+06 0.28622563D+06 0.10860653D+01  1  2  4  1  6  1        2 -.234941173058D-02 0.100000000000D+01
-.516736077638D-01 0.000000000000D+00 -.194115643575D-01 0.114265263918D-04 0.000000000000D+00  6 2 -4 25 1 -3 21 2 0.34922874D+00 0.78556828D-01 0.28622563D+06 0.28622563D+06 0.28622563D+06 0.10860653D+01  1  2  5  1  6  1        2 -.248883811774D-01 0.100000000000D+01
0.545020627978D-01 0.000000000000D+00 0.191244155137D-01 0.114265263918D-04 0.000000000000D+00  6 2 -4 25 1 -3 21 2 0.29372761D+00 0.78556828D-01 0.28622563D+06 0.28622563D+06 0.28622563D+06 0.10860653D+01  1  2  6  1  6  1        2 0.415364959250D-01 0.100000000000D+01
-.114768595781D-02 0.000000000000D+00 -.496422710883D-03 0.114265263918D-04 0.000000000000D+00  6 21 -4 25 1 -3 -2 2 0.34922874D+00 0.78556828D-01 0.28622563D+06 0.28622563D+06 0.28622563D+06 0.10860653D+01  1  2  5  5  6  1        2 -.825178414007D-04 0.100000000000D+01
  </mgrwgt>
  </event>
  <event>
  5     66 -.18614916E-05 0.15686477E+03 0.75467711E-02 0.91695936E-01
        2 -1    0    0  502    0 0.00000000E+00 0.00000000E+00 0.17044331E+04 0.17044331E+04 0.32000000E+00 0.0000E+00 0.9000E+01
       -4 -1    0    0    0  501 0.00000000E+00 0.00000000E+00 -.10098838E+04 0.10098850E+04 0.15500000E+01 0.0000E+00 0.9000E+01
       25  1    1    2    0    0 0.16310819E+02 -.49695805E+03 0.36729726E+03 0.63068663E+03 0.12500000E+03 0.0000E+00 0.9000E+01
        1  1    1    2  502    0 0.87665724E+02 -.13010366E+03 0.10840364E+04 0.10953298E+04 0.32000000E+00 0.0000E+00 0.9000E+01
       -3  1    1    2    0  501 -.10397654E+03 0.62706171E+03 -.75678442E+03 0.98830178E+03 0.50000000E+00 0.0000E+00 0.9000E+01
#aMCatNLO 1  0  0  4  1 0.96591744D+01 0.00000000D+00  -5  6  0 0.00000000D+00 0.00000000D+00 0.00000000D+00 0.00000000D+00 0.00000000D+00
  <mgrwgt>
 -.1063746610D-01    8    2    0
 0.131197603880624D+04 0.000000000000000D+00 0.000000000000000D+00 0.131197603880624D+04
 0.131197603880624D+04 -.000000000000000D+00 -.000000000000000D+00 -.131197603880624D+04
 0.555278039800927D+03 0.163283547356206D+02 -.497034352192397D+03 0.213070267887081D+03
 0.846014031242893D+03 0.876556000239229D+02 -.130088635774636D+03 0.831344202894680D+03
 0.122266000656866D+04 -.103983954759543D+03 0.627122987967033D+03 -.104441447078176D+04
 0.000000000000000D+00 0.000000000000000D+00 0.000000000000000D+00 0.000000000000000D+00
 0.131197603880624D+04 0.000000000000000D+00 0.000000000000000D+00 0.131197603880624D+04
 0.131197603880624D+04 -.000000000000000D+00 -.000000000000000D+00 -.131197603880624D+04
 0.555302949050659D+03 0.163333391811587D+02 -.497041749548869D+03 0.213117541420108D+03
 0.495887493757348D+03 0.603284207458858D+02 -.795374934393468D+02 0.485735190461466D+03
 0.122256180937392D+04 -.103972980256025D+03 0.627106700836597D+03 -.104431038627515D+04
 0.350199825430554D+03 0.273112203289801D+02 -.505274578483813D+02 0.345457654393578D+03
0.237444416586D-03 0.000000000000D+00 0.000000000000D+00 0.723653611395D-05 0.000000000000D+00  6 2 -4 25 1 -3 21 0 0.26222057D+00 0.15536684D+00 0.42596625D+06 0.42596625D+06 0.42596625D+06 0.10734640D+01  1  2  2  3  6  4        1 0.268128319773D-04 0.100000000000D+01
0.373663979138D-04 0.000000000000D+00 -.911849080240D-06 0.723653611395D-05 0.000000000000D+00  6 2 -4 25 1 -3 21 2 0.26222057D+00 0.15536684D+00 0.42596625D+06 0.42596625D+06 0.42596625D+06 0.10734640D+01  1  2  3  3  6  4        1 0.486224615324D-05 0.100000000000D+01
-.161453843130D-03 0.000000000000D+00 0.000000000000D+00 0.723653611395D-05 0.000000000000D+00  6 2 -4 25 1 -3 21 2 0.26222057D+00 0.15536684D+00 0.42596625D+06 0.42596625D+06 0.42596625D+06 0.10734640D+01  1  2 15  3  6  4        1 -.210089377492D-04 0.100000000000D+01
0.104921856810D+00 0.000000000000D+00 0.000000000000D+00 0.723653611395D-05 0.000000000000D+00  6 2 -4 25 1 -3 21 2 0.26222057D+00 0.15536684D+00 0.42622049D+06 0.42622049D+06 0.42622049D+06 0.10734454D+01  1  2 12  3  6  4        1 0.136518920504D-01 0.100000000000D+01
-.238660537773D+00 0.000000000000D+00 0.000000000000D+00 0.723653611395D-05 0.000000000000D+00  6 2 -4 25 1 -3 21 2 0.26222057D+00 0.15536684D+00 0.42596625D+06 0.42596625D+06 0.42596625D+06 0.10734640D+01  1  2  4  3  6  4        1 -.310553424067D-01 0.100000000000D+01
-.106232311988D+00 0.000000000000D+00 0.000000000000D+00 0.723653611395D-05 0.000000000000D+00  6 2 -4 25 1 -3 21 2 0.26222057D+00 0.15536684D+00 0.42596625D+06 0.42596625D+06 0.42596625D+06 0.10734640D+01  1  2  5  3  6  4        1 -.138233193231D-01 0.100000000000D+01
0.158146721331D+00 0.000000000000D+00 -.000000000000D+00 0.723653611395D-05 0.000000000000D+00  6 2 -4 25 1 -3 21 2 0.26222057D+00 0.15536684D+00 0.42596625D+06 0.42596625D+06 0.42596625D+06 0.10734640D+01  1  2  6  3  6  4        1 0.205786035147D-01 0.100000000000D+01
0.260742190753D-06 0.000000000000D+00 0.000000000000D+00 0.723653611395D-05 0.241475621306D-06  6 2 -4 25 1 -3 21 2 0.26222057D+00 0.15536684D+00 0.42622049D+06 0.42622049D+06 0.42622049D+06 0.10734454D+01  1  2 11  3  6  4        1 0.339264320071D-07 0.100000000000D+01
  </mgrwgt>
  </event>
  <event>
  5     66 -.18614916E-05 0.14212782E+03 0.75467711E-02 0.95363932E-01
        2 -1    0    0  502    0 0.00000000E+00 0.00000000E+00 0.37526964E+04 0.37526964E+04 0.32000000E+00 0.0000E+00 0.9000E+01
       -4 -1    0    0    0  501 0.00000000E+00 0.00000000E+00 -.16213644E+03 0.16214385E+03 0.15500000E+01 0.0000E+00 0.9000E+01
       25  1    1    2    0    0 0.67792726E+02 -.45216660E+03 0.16558585E+04 0.17223655E+04 0.12500000E+03 0.0000E+00 0.9000E+01
        1  1    1    2  502    0 -.55404639E+02 0.13093600E+03 0.18560972E+04 0.18615345E+04 0.32000000E+00 0.0000E+00 0.9000E+01
       -3  1    1    2    0  501 -.12388087E+02 0.32123059E+03 0.78604257E+02 0.33094023E+03 0.50000000E+00 0.0000E+00 0.9000E+01
#aMCatNLO 1  0  0  4  1 0.17083914D+02 0.00000000D+00  -5  6  0 0.00000000D+00 0.00000000D+00 0.00000000D+00 0.00000000D+00 0.00000000D+00
  <mgrwgt>
 -.1961444585D-01    7    2    0
 0.780040606142251D+03 0.000000000000000D+00 0.000000000000000D+00 0.780040606142251D+03
 0.780040606142251D+03 -.000000000000000D+00 -.000000000000000D+00 -.780040606142251D+03
 0.511155782477941D+03 0.677794268274343D+02 -.452188162109669D+03 0.191277414525238D+03
 0.399320416230935D+03 -.553860066865796D+02 0.130891970469106D+03 0.373170841772071D+03
 0.649605013575627D+03 -.123934201408547D+02 0.321296191640563D+03 -.564448256297309D+03
 0.000000000000000D+00 0.000000000000000D+00 0.000000000000000D+00 0.000000000000000D+00
 0.780040606142251D+03 0.000000000000000D+00 0.000000000000000D+00 0.780040606142251D+03
 0.780040606142251D+03 -.000000000000000D+00 -.000000000000000D+00 -.780040606142251D+03
 0.511179305379953D+03 0.677015307064144D+02 -.452004072709075D+03 0.191802250359969D+03
 0.275875440020182D+03 -.469171428583633D+02 0.103661385551323D+03 0.251317244251000D+03
 0.649143462939528D+03 -.124923773904910D+02 0.321530054129881D+03 -.563781518210284D+03
 0.123883003944840D+03 -.829201045756011D+01 0.268126330278720D+02 0.120662023599315D+03
0.304130806495D-03 0.000000000000D+00 0.000000000000D+00 0.661348500588D-05 0.000000000000D+00  6 2 -4 25 1 -3 21 0 0.57733848D+00 0.24944638D-01 0.21981145D+06 0.21981145D+06 0.21981145D+06 0.10946887D+01  1  2  2  3  6  4        1 0.177040857081D-03 0.100000000000D+01
0.308875317051D-04 0.000000000000D+00 -.116794237642D-05 0.661348500588D-05 0.000000000000D+00  6 2 -4 25 1 -3 21 2 0.57733848D+00 0.24944638D-01 0.21981145D+06 0.21981145D+06 0.21981145D+06 0.10946887D+01  1  2  3  3  6  4        1 0.215465429796D-04 0.100000000000D+01
-.161445914304D-03 0.000000000000D+00 0.000000000000D+00 0.661348500588D-05 0.000000000000D+00  6 2 -4 25 1 -3 21 2 0.57733848D+00 0.24944638D-01 0.21981145D+06 0.21981145D+06 0.21981145D+06 0.10946887D+01  1  2 15  3  6  4        1 -.112621538187D-03 0.100000000000D+01
0.104854951568D-01 0.000000000000D+00 0.000000000000D+00 0.661348500588D-05 0.000000000000D+00  6 2 -4 25 1 -3 21 2 0.57733848D+00 0.24944638D-01 0.21970501D+06 0.21970501D+06 0.21970501D+06 0.10947048D+01  1  2 12  3  6  4        1 0.731490582435D-02 0.100000000000D+01
-.426505279862D-01 0.000000000000D+00 0.000000000000D+00 0.661348500588D-05 0.000000000000D+00  6 2 -4 25 1 -3 21 2 0.57733848D+00 0.24944638D-01 0.21981145D+06 0.21981145D+06 0.21981145D+06 0.10946887D+01  1  2  4  3  6  4        1 -.297521810138D-01 0.100000000000D+01
-.110449218727D-01 0.000000000000D+00 0.000000000000D+00 0.661348500588D-05 0.000000000000D+00  6 2 -4 25 1 -3 21 2 0.57733848D+00 0.24944638D-01 0.21981145D+06 0.21981145D+06 0.21981145D+06 0.10946887D+01  1  2  5  3  6  4        1 -.770472325560D-02 0.100000000000D+01
0.149682870958D-01 0.000000000000D+00 -.000000000000D+00 0.661348500588D-05 0.000000000000D+00  6 2 -4 25 1 -3 21 2 0.57733848D+00 0.24944638D-01 0.21981145D+06 0.21981145D+06 0.21981145D+06 0.10946887D+01  1  2  6  3  6  4        1 0.104415867321D-01 0.100000000000D+01
  </mgrwgt>
  </event>
  <event>
  5     66 0.18614916E-05 0.60610768E+02 0.75467711E-02 0.90874825E-01
        2 -1    0    0  502    0 0.00000000E+00 0.00000000E+00 0.29413240E+04 0.29413240E+04 0.32000000E+00 0.0000E+00 0.9000E+01
       -4 -1    0    0    0  501 0.00000000E+00 0.00000000E+00 -.39208004E+03 0.39208311E+03 0.15500000E+01 0.0000E+00 0.9000E+01
       25  1    1    2    0    0 -.19958084E+02 -.59145968E+03 0.11749039E+04 0.13214564E+04 0.12500000E+03 0.0000E+00 0.9000E+01
        1  1    1    2  502    0 -.38130180E+02 0.47135563E+02 0.14570602E+04 0.14583211E+04 0.32000000E+00 0.0000E+00 0.9000E+01
       -3  1    1    2    0  501 0.58088265E+02 0.54432411E+03 -.82720119E+02 0.55362971E+03 0.50000000E+00 0.0000E+00 0.9000E+01
#aMCatNLO 1  0  0  1  4 0.13576920D+02 0.00000000D+00  -5  6  0 0.00000000D+00 0.00000000D+00 0.00000000D+00 0.00000000D+00 0.00000000D+00
  <mgrwgt>
 0.3620496121D-02    7    2    0
 0.107388993155829D+04 0.000000000000000D+00 0.000000000000000D+00 0.107388993155829D+04
 0.107388993155829D+04 0.000000000000000D+00 0.000000000000000D+00 -.107388993155829D+04
 0.656526029854348D+03 -.199739784421015D+02 -.591524430561169D+03 0.255149595552865D+03
 0.533789580425613D+03 -.381197702554613D+02 0.471226947218904D+02 0.530337299205675D+03
 0.957464252836612D+03 0.580937486975628D+02 0.544401735839279D+03 -.785486894758541D+03
 0.000000000000000D+00 0.000000000000000D+00 -.000000000000000D+00 0.000000000000000D+00
 0.170496755021259D+04 0.000000000000000D+00 0.000000000000000D+00 0.170496755021259D+04
 0.108707375866932D+04 0.000000000000000D+00 0.000000000000000D+00 -.108707375866932D+04
 0.652346083776282D+03 -.679894720475369D+02 -.583272259410781D+03 0.255149595552865D+03
 0.538666499530822D+03 -.774624283448141D+02 0.538843111020619D+02 0.530337299205675D+03
 0.962727090068375D+03 -.123477667005457D+02 0.556508149780050D+03 -.785486894758541D+03
 0.638301635506430D+03 0.157799667092897D+03 -.271202014713309D+02 0.617893791543262D+03
0.118292287321D-02 0.000000000000D+00 0.000000000000D+00 0.394787153742D-04 0.000000000000D+00  6 2 -4 25 1 -3 21 0 0.45251163D+00 0.60320244D-01 0.36785486D+06 0.36785486D+06 0.36785486D+06 0.10780603D+01  1  2  2  1  6  1        2 0.366821918449D-03 0.100000000000D+01
0.398824818385D-03 0.000000000000D+00 -.454273530387D-05 0.394787153742D-04 0.000000000000D+00  6 2 -4 25 1 -3 21 2 0.45251163D+00 0.60320244D-01 0.36785486D+06 0.36785486D+06 0.36785486D+06 0.10780603D+01  1  2  3  1  6  1        2 0.143736531226D-03 0.100000000000D+01
-.684126521511D-03 0.000000000000D+00 0.000000000000D+00 0.394787153742D-04 0.000000000000D+00  6 2 -4 25 1 -3 21 2 0.45251163D+00 0.60320244D-01 0.36785486D+06 0.36785486D+06 0.36785486D+06 0.10780603D+01  1  2 15  1  6  1        2 -.246559312733D-03 0.100000000000D+01
-.346482744279D-03 0.000000000000D+00 0.000000000000D+00 0.394787153742D-04 0.000000000000D+00  6 2 -4 25 1 -3 21 2 0.45251163D+00 0.60320244D-01 0.36785486D+06 0.36785486D+06 0.36785486D+06 0.10780603D+01  1  2  4  1  6  1        2 -.124872438967D-03 0.100000000000D+01
-.108975683298D-01 0.000000000000D+00 -.552937992208D-03 0.394787153742D-04 0.000000000000D+00  6 2 -4 25 1 -3 21 2 0.71940412D+00 0.60320244D-01 0.36785486D+06 0.36785486D+06 0.36785486D+06 0.10780603D+01  1  2  5  1  6  1        2 -.159715539566D-03 0.100000000000D+01
0.101031068682D-01 0.000000000000D+00 0.498409174187D-03 0.394787153742D-04 0.000000000000D+00  6 2 -4 25 1 -3 21 2 0.45251163D+00 0.60320244D-01 0.36785486D+06 0.36785486D+06 0.36785486D+06 0.10780603D+01  1  2  6  1  6  1        2 0.364116140444D-02 0.100000000000D+01
-.556480026804D-03 0.000000000000D+00 -.293937231337D-04 0.394787153742D-04 0.000000000000D+00  6 21 -4 25 1 -3 -2 2 0.71940412D+00 0.60320244D-01 0.36785486D+06 0.36785486D+06 0.36785486D+06 0.10780603D+01  1  2  5  5  6  1        2 -.764414723361D-07 0.100000000000D+01
  </mgrwgt>
  </event>
  <event>
  5     66 -.18614916E-05 0.45050089E+02 0.75467711E-02 0.94146928E-01
        2 -1    0    0  502    0 0.00000000E+00 0.00000000E+00 0.29910279E+04 0.29910279E+04 0.32000000E+00 0.0000E+00 0.9000E+01
       -4 -1    0    0    0  501 0.00000000E+00 0.00000000E+00 -.28873807E+03 0.28874223E+03 0.15500000E+01 0.0000E+00 0.9000E+01
       25  1    1    2    0    0 -.18260478E+03 0.45838977E+03 0.12687232E+04 0.13670221E+04 0.12500000E+03 0.0000E+00 0.9000E+01
        1  1    1    2  502    0 0.14947610E+03 -.42787071E+03 0.16399908E+04 0.17014659E+04 0.32000000E+00 0.0000E+00 0.9000E+01
       -3  1    1    2    0  501 0.33128685E+02 -.30519065E+02 -.20642422E+03 0.21128211E+03 0.50000000E+00 0.0000E+00 0.9000E+01
#aMCatNLO 1  0  0  2  5 0.39476992D+02 0.00000000D+00  -5  6  0 0.00000000D+00 0.00000000D+00 0.00000000D+00 0.00000000D+00 0.00000000D+00
  <mgrwgt>
 -.2004190314D-02    7    4    0
 0.929317204399372D+03 0.000000000000000D+00 0.000000000000000D+00 0.929317204399372D+03
 0.929317204399372D+03 0.000000000000000D+00 0.000000000000000D+00 -.929317204399372D+03
 0.567663258433486D+03 -.182589236280521D+03 0.458336369212705D+03 0.251407077121416D+03
 0.617943509138590D+03 0.149455858994544D+03 -.427812774059161D+03 0.420111124645043D+03
 0.673027641226667D+03 0.331333772859767D+02 -.305235951535439D+02 -.671518201766459D+03
 0.000000000000000D+00 -.000000000000000D+00 -.000000000000000D+00 -.000000000000000D+00
 0.947552683249289D+03 0.000000000000000D+00 0.000000000000000D+00 0.947552683249289D+03
 0.951140624815928D+03 0.000000000000000D+00 0.000000000000000D+00 -.951140624815928D+03
 0.575013846410666D+03 -.177517227353034D+03 0.469359179232863D+03 0.251407077121416D+03
 0.611155106376329D+03 0.154911467691197D+03 -.415956300802258D+03 0.420111124645043D+03
 0.672884650117240D+03 0.391074876697159D+02 -.175402812948988D+02 -.671518201766459D+03
 0.396397051609820D+02 -.165017280078782D+02 -.358625971357064D+02 -.358794156663863D+01
 0.929317204399372D+03 0.000000000000000D+00 0.000000000000000D+00 0.929317204399372D+03
 0.929317204399372D+03 0.000000000000000D+00 0.000000000000000D+00 -.929317204399372D+03
 0.567663258433486D+03 -.182589236280521D+03 0.458336369212705D+03 0.251407077121416D+03
 0.617943509138590D+03 0.149455858994544D+03 -.427812774059161D+03 0.420111124645043D+03
 0.000000000000000D+00 -.000000000000000D+00 -.000000000000000D+00 -.000000000000000D+00
 0.673027641226667D+03 0.331333772859767D+02 -.305235951535439D+02 -.671518201766459D+03
 0.947552683249289D+03 0.000000000000000D+00 0.000000000000000D+00 0.947552683249289D+03
 0.951140624815928D+03 0.000000000000000D+00 0.000000000000000D+00 -.951140624815928D+03
 0.575013846410666D+03 -.177517227353034D+03 0.469359179232863D+03 0.251407077121416D+03
 0.611155106376329D+03 0.154911467691197D+03 -.415956300802258D+03 0.420111124645043D+03
 0.396397051609820D+02 -.165017280078782D+02 -.358625971357064D+02 -.358794156663863D+01
 0.672884650117240D+03 0.391074876697159D+02 -.175402812948988D+02 -.671518201766459D+03
0.713944718374D-02 0.000000000000D+00 0.000000000000D+00 0.503004644789D-04 0.000000000000D+00  6 2 -4 25 1 -3 21 0 0.46015846D+00 0.44421563D-01 0.25359961D+06 0.25359961D+06 0.25359961D+06 0.10899923D+01  1  2  2  2  6  2       -4 0.422457072333D-02 0.100000000000D+01
0.335043688607D-02 0.000000000000D+00 -.274173570452D-04 0.503004644789D-04 0.000000000000D+00  6 2 -4 25 1 -3 21 2 0.46015846D+00 0.44421563D-01 0.25359961D+06 0.25359961D+06 0.25359961D+06 0.10899923D+01  1  2  3  2  6  2       -4 0.235540904460D-02 0.100000000000D+01
-.512389369583D-02 0.000000000000D+00 0.000000000000D+00 0.503004644789D-04 0.000000000000D+00  6 2 -4 25 1 -3 21 2 0.46015846D+00 0.44421563D-01 0.25359961D+06 0.25359961D+06 0.25359961D+06 0.10899923D+01  1  2 15  2  6  2       -4 -.360217666087D-02 0.100000000000D+01
-.725187891560D-03 0.000000000000D+00 0.000000000000D+00 0.503004644789D-04 0.000000000000D+00  6 2 -4 25 1 -3 21 2 0.46015846D+00 0.44421563D-01 0.25359961D+06 0.25359961D+06 0.25359961D+06 0.10899923D+01  1  2  4  2  6  2       -4 -.509818324266D-03 0.100000000000D+01
-.150619705243D+00 0.000000000000D+00 -.292190232181D-01 0.503004644789D-04 0.000000000000D+00  6 2 -4 25 1 -3 21 2 0.46015846D+00 0.46715347D-01 0.25359961D+06 0.25359961D+06 0.25359961D+06 0.10899923D+01  1  2  5  2  6  2       -4 -.947884951916D-01 0.100000000000D+01
0.151935200878D+00 0.000000000000D+00 0.291820287215D-01 0.503004644789D-04 0.000000000000D+00  6 2 -4 25 1 -3 21 2 0.46015846D+00 0.44421563D-01 0.25359961D+06 0.25359961D+06 0.25359961D+06 0.10899923D+01  1  2  6  2  6  2       -4 0.106812800393D+00 0.100000000000D+01
-.129437418767D-02 0.000000000000D+00 -.256153559868D-03 0.503004644789D-04 0.000000000000D+00  6 2 21 25 1 4 -3 2 0.46015846D+00 0.46715347D-01 0.25359961D+06 0.25359961D+06 0.25359961D+06 0.10899923D+01  3  4  5  6  5  2       -4 -.164964802977D-01 0.100000000000D+01
  </mgrwgt>
  </event>
  <event>
  5     66 0.18614916E-05 0.72970499E+02 0.75467711E-02 0.94175389E-01
        2 -1    0    0  502    0 0.00000000E+00 0.00000000E+00 0.19417577E+04 0.19417577E+04 0.32000000E+00 0.0000E+00 0.9000E+01
       -4 -1    0    0    0  501 0.00000000E+00 0.00000000E+00 -.88144257E+03 0.88144393E+03 0.15500000E+01 0.0000E+00 0.9000E+01
       25  1    1    2    0    0 0.38419809E+03 0.32599914E+03 -.44929333E+03 0.68656617E+03 0.12500000E+03 0.0000E+00 0.9000E+01
        1  1    1    2  502    0 -.31131002E+03 -.32222436E+03 0.17908661E+04 0.18460618E+04 0.32000000E+00 0.0000E+00 0.9000E+01
       -3  1    1    2    0  501 -.72888069E+02 -.37747874E+01 -.28125770E+03 0.29057368E+03 0.50000000E+00 0.0000E+00 0.9000E+01
#aMCatNLO 1  0  0  5  2 0.61779573D+01 0.00000000D+00  -5  6  0 0.00000000D+00 0.00000000D+00 0.00000000D+00 0.00000000D+00 0.00000000D+00
  <mgrwgt>
 0.2208143142D-01    8    2    0
 0.130826213821416D+04 0.000000000000000D+00 0.000000000000000D+00 0.130826213821416D+04
 0.130826213821416D+04 -.000000000000000D+00 -.000000000000000D+00 -.130826213821416D+04
 0.922961602592945D+03 0.384186298774412D+03 0.326000210599191D+03 -.763123758236002D+03
 0.126616742188214D+04 -.311313376104340D+03 -.322227830201575D+03 0.118424370276467D+04
 0.427395251953234D+03 -.728729226700723D+02 -.377238039761597D+01 -.421119944528665D+03
 0.000000000000000D+00 -.000000000000000D+00 0.000000000000000D+00 0.000000000000000D+00
 0.130826213821416D+04 0.000000000000000D+00 0.000000000000000D+00 0.130826213821416D+04
 0.130826213821416D+04 -.000000000000000D+00 -.000000000000000D+00 -.130826213821416D+04
 0.923011983167490D+03 0.384174700000930D+03 0.325999610170608D+03 -.763190785530454D+03
 0.126608554730945D+04 -.311329286965045D+03 -.322228653852073D+03 0.118415175666820D+04
 0.271692491801477D+03 -.419534595958300D+02 -.671606472862372D+01 -.268349793746516D+03
 0.155734254149904D+03 -.308919534400546D+02 0.294510841008887D+01 -.152611177391230D+03
0.809716843007D-03 0.000000000000D+00 0.000000000000D+00 0.700063357280D-04 0.000000000000D+00  6 2 -4 25 1 -3 21 0 0.29873206D+00 0.13560666D+00 0.27047925D+06 0.27047925D+06 0.27047925D+06 0.10878960D+01  1  2  2  4  6  5       -3 0.107777266479D-03 0.100000000000D+01
0.123260078138D-03 0.000000000000D+00 -.310952588049D-05 0.700063357280D-04 0.000000000000D+00  6 2 -4 25 1 -3 21 2 0.29873206D+00 0.13560666D+00 0.27047925D+06 0.27047925D+06 0.27047925D+06 0.10878960D+01  1  2  3  4  6  5       -3 0.194174049469D-04 0.100000000000D+01
-.571244894214D-03 0.000000000000D+00 0.000000000000D+00 0.700063357280D-04 0.000000000000D+00  6 2 -4 25 1 -3 21 2 0.29873206D+00 0.13560666D+00 0.27047925D+06 0.27047925D+06 0.27047925D+06 0.10878960D+01  1  2 15  4  6  5       -3 -.899893428785D-04 0.100000000000D+01
0.200637193239D+00 0.000000000000D+00 0.000000000000D+00 0.700063357280D-04 0.000000000000D+00  6 2 -4 25 1 -3 21 2 0.29873206D+00 0.13560666D+00 0.27076632D+06 0.27076632D+06 0.27076632D+06 0.10878616D+01  1  2 12  4  6  5       -3 0.316029406591D-01 0.100000000000D+01
-.247651329774D+00 0.000000000000D+00 0.000000000000D+00 0.700063357280D-04 0.000000000000D+00  6 2 -4 25 1 -3 21 2 0.29873206D+00 0.13560666D+00 0.27047925D+06 0.27047925D+06 0.27047925D+06 0.10878960D+01  1  2  4  4  6  5       -3 -.390130059017D-01 0.100000000000D+01
-.245317000485D+00 0.000000000000D+00 0.000000000000D+00 0.700063357280D-04 0.000000000000D+00  6 2 -4 25 1 -3 21 2 0.29873206D+00 0.13560666D+00 0.27047925D+06 0.27047925D+06 0.27047925D+06 0.10878960D+01  1  2  5  4  6  5       -3 -.386452743721D-01 0.100000000000D+01
0.403643953621D+00 0.000000000000D+00 -.000000000000D+00 0.700063357280D-04 0.000000000000D+00  6 2 -4 25 1 -3 21 2 0.29873206D+00 0.13560666D+00 0.27047925D+06 0.27047925D+06 0.27047925D+06 0.10878960D+01  1  2  6  4  6  5       -3 0.635868337926D-01 0.100000000000D+01
0.286499245616D-01 0.000000000000D+00 0.000000000000D+00 0.700063357280D-04 0.355110483871D-05  6 2 -4 25 1 -3 21 2 0.29873206D+00 0.13560666D+00 0.27076632D+06 0.27076632D+06 0.27076632D+06 0.10878616D+01  1  2 11  4  6  5       -3 0.451273191770D-02 0.100000000000D+01
  </mgrwgt>
  </event>
  <event>
  5     66 0.18614916E-05 0.28676022E+02 0.75467711E-02 0.94905038E-01
        2 -1    0    0  502    0 0.00000000E+00 0.00000000E+00 0.14487560E+04 0.14487560E+04 0.32000000E+00 0.0000E+00 0.9000E+01
       -4 -1    0    0    0  501 0.00000000E+00 0.00000000E+00 -.31539772E+03 0.31540153E+03 0.15500000E+01 0.0000E+00 0.9000E+01
       25  1    1    2    0    0 -.43585324E+03 -.19114696E+03 0.33670012E+03 0.59623584E+03 0.12500000E+03 0.0000E+00 0.9000E+01
        1  1    1    2  502    0 0.28654333E+02 -.13904642E+01 0.70833984E+03 0.70892061E+03 0.32000000E+00 0.0000E+00 0.9000E+01
       -3  1    1    2    0  501 0.40719891E+03 0.19253742E+03 0.88318275E+02 0.45900107E+03 0.50000000E+00 0.0000E+00 0.9000E+01
#aMCatNLO 1  0  0  1  2 0.39869157D+01 0.00000000D+00  -5  6  0 0.00000000D+00 0.00000000D+00 0.00000000D+00 0.00000000D+00 0.00000000D+00
  <mgrwgt>
 0.3907980924D-02    9    2    0
 0.675971682798539D+03 0.000000000000000D+00 0.000000000000000D+00 0.675971682798539D+03
 0.675971682798539D+03 0.000000000000000D+00 0.000000000000000D+00 -.675971682798539D+03
 0.495842747187215D+03 -.435932814449546D+03 -.191187410636320D+03 -.603737131410786D+02
 0.331121027918122D+03 0.286423197147783D+02 -.138988123402389D+01 0.329876978404170D+03
 0.524979590491741D+03 0.407290494734768D+03 0.192577291870344D+03 -.269503265263092D+03
 0.000000000000000D+00 -.000000000000000D+00 0.000000000000000D+00 0.000000000000000D+00
 0.700524319561652D+03 0.000000000000000D+00 0.000000000000000D+00 0.700524319561652D+03
 0.676136492771635D+03 0.000000000000000D+00 0.000000000000000D+00 -.676136492771635D+03
 0.495861666712657D+03 -.435361536133168D+03 -.192533477952227D+03 -.603737131410786D+02
 0.331159240101046D+03 0.290238309303997D+02 -.228881221613437D+01 0.329876978404170D+03
 0.524928337529059D+03 0.407895301595627D+03 0.191152223345074D+03 -.269503265263092D+03
 0.247115679905249D+02 -.155759639285839D+01 0.367006682328656D+01 0.243878267900176D+02
0.362940223404D-04 0.000000000000D+00 0.000000000000D+00 0.146601696568D-04 0.000000000000D+00  6 2 -4 25 1 -3 21 0 0.22288583D+00 0.48523022D-01 0.23588174D+06 0.23588174D+06 0.23588174D+06 0.10923634D+01  1  2  2  1  6  1        2 0.133087958235D-03 0.100000000000D+01
0.182696307774D-04 0.000000000000D+00 -.139378602223D-06 0.146601696568D-04 0.000000000000D+00  6 2 -4 25 1 -3 21 2 0.22288583D+00 0.48523022D-01 0.23588174D+06 0.23588174D+06 0.23588174D+06 0.10923634D+01  1  2  3  1  6  1        2 0.799406609824D-04 0.100000000000D+01
-.283076283029D-04 0.000000000000D+00 0.000000000000D+00 0.146601696568D-04 0.000000000000D+00  6 2 -4 25 1 -3 21 2 0.22288583D+00 0.48523022D-01 0.23588174D+06 0.23588174D+06 0.23588174D+06 0.10923634D+01  1  2 15  1  6  1        2 -.123862958422D-03 0.100000000000D+01
-.110600275897D-02 0.000000000000D+00 0.000000000000D+00 0.146601696568D-04 0.000000000000D+00  6 2 -4 25 1 -3 21 2 0.22288583D+00 0.48523022D-01 0.23588174D+06 0.23588174D+06 0.23588174D+06 0.10923634D+01  1  2  4  1  6  1        2 -.483942958003D-02 0.100000000000D+01
-.168238207750D-01 0.000000000000D+00 -.229315439046D-03 0.146601696568D-04 0.000000000000D+00  6 2 -4 25 1 -3 21 2 0.23100291D+00 0.48523022D-01 0.23588174D+06 0.23588174D+06 0.23588174D+06 0.10923634D+01  1  2  5  1  6  1        2 -.688595335053D-01 0.100000000000D+01
0.168214071918D-01 0.000000000000D+00 0.229168808103D-03 0.146601696568D-04 0.000000000000D+00  6 2 -4 25 1 -3 21 2 0.22288583D+00 0.48523022D-01 0.23588174D+06 0.23588174D+06 0.23588174D+06 0.10923634D+01  1  2  6  1  6  1        2 0.736038087440D-01 0.100000000000D+01
0.970728014641D-03 0.000000000000D+00 0.000000000000D+00 0.146601696568D-04 0.851691536467D-06  6 2 -4 25 1 -3 21 2 0.23098148D+00 0.48534852D-01 0.23801583D+06 0.23801583D+06 0.23801583D+06 0.10920677D+01  1  2 11  1  6  1        2 0.396867449331D-02 0.100000000000D+01
-.115132071565D-03 0.000000000000D+00 -.145874692462D-05 0.146601696568D-04 0.000000000000D+00  6 21 -4 25 1 -3 -2 2 0.23100291D+00 0.48523022D-01 0.23588174D+06 0.23588174D+06 0.23588174D+06 0.10923634D+01  1  2  5  5  6  1        2 -.166505073749D-03 0.100000000000D+01
0.774135795663D-04 0.000000000000D+00 0.000000000000D+00 0.146601696568D-04 0.335004730135D-07  6 21 -4 25 1 -3 -2 2 0.23098148D+00 0.48534852D-01 0.23801583D+06 0.23801583D+06 0.23801583D+06 0.10920677D+01  1  2 11  5  6  1        2 0.111800185081D-03 0.100000000000D+01
  </mgrwgt>
  </event>
  <event>
  5     66 0.18614916E-05 0.17751875E+02 0.75467711E-02 0.92438254E-01
        2 -1    0    0  502    0 0.00000000E+00 0.00000000E+00 0.31007386E+04 0.31007386E+04 0.32000000E+00 0.0000E+00 0.9000E+01
       -4 -1    0    0    0  501 0.00000000E+00 0.00000000E+00 -.20018262E+03 0.20018862E+03 0.15500000E+01 0.0000E+00 0.9000E+01
       25  1    1    2    0    0 -.14298530E+03 0.56990091E+03 0.11777914E+04 0.13221382E+04 0.12500000E+03 0.0000E+00 0.9000E+01
        1  1    1    2  502    0 0.56456024E+01 -.16840988E+02 0.12161976E+04 0.12163273E+04 0.32000000E+00 0.0000E+00 0.9000E+01
       -3  1    1    2    0  501 0.13733970E+03 -.55305992E+03 0.50656696E+03 0.76246167E+03 0.50000000E+00 0.0000E+00 0.9000E+01
#aMCatNLO 1  0  0  4  1 0.19237430D+03 0.00000000D+00  -5  6  0 0.00000000D+00 0.00000000D+00 0.00000000D+00 0.00000000D+00 0.00000000D+00
  <mgrwgt>
 0.2603480800D-02    4    2    0
 0.787860327898080D+03 0.000000000000000D+00 0.000000000000000D+00 0.787860327898080D+03
 0.787860327898080D+03 -.000000000000000D+00 -.000000000000000D+00 -.787860327898080D+03
 0.601757171948377D+03 -.143009587996273D+03 0.570000601801427D+03 0.336788610029513D+02
 0.309114672995138D+03 0.564235681212707D+01 -.168313061124605D+02 0.308604523630235D+03
 0.664848810852644D+03 0.137367231184146D+03 -.553169295688966D+03 -.342283384633186D+03
 0.000000000000000D+00 0.000000000000000D+00 0.000000000000000D+00 -.000000000000000D+00
 0.787860327898080D+03 0.000000000000000D+00 0.000000000000000D+00 0.787860327898080D+03
 0.787860327898080D+03 -.000000000000000D+00 -.000000000000000D+00 -.787860327898080D+03
 0.604913438370466D+03 -.141882679388820D+03 0.566639002320152D+03 0.953142920041464D+02
 0.774742188309151D+02 0.132384769613008D+02 0.152906676579793D+02 -.747876513455186D+02
 0.636627404190104D+03 0.138582678661350D+03 -.556795009062580D+03 -.275805385777502D+03
 0.256705594404675D+03 -.993847623383066D+01 -.251346609155510D+02 0.255278745118874D+03
0.272599821768D-02 0.000000000000D+00 0.000000000000D+00 0.138454277241D-04 0.000000000000D+00  6 2 -4 25 1 -3 21 0 0.47703717D+00 0.30797789D-01 0.35315448D+06 0.35315448D+06 0.35315448D+06 0.10793491D+01  1  2  2  3  6  4        1 0.290940328655D-02 0.100000000000D+01
0.193821523488D-02 0.000000000000D+00 -.104685509277D-04 0.138454277241D-04 0.000000000000D+00  6 2 -4 25 1 -3 21 2 0.47703717D+00 0.30797789D-01 0.35315448D+06 0.35315448D+06 0.35315448D+06 0.10793491D+01  1  2  3  3  6  4        1 0.240992910119D-02 0.100000000000D+01
-.198830997446D-02 0.000000000000D+00 0.000000000000D+00 0.138454277241D-04 0.000000000000D+00  6 2 -4 25 1 -3 21 2 0.47703717D+00 0.30797789D-01 0.35315448D+06 0.35315448D+06 0.35315448D+06 0.10793491D+01  1  2 15  3  6  4        1 -.247221566698D-02 0.100000000000D+01
-.195947197576D-03 0.000000000000D+00 0.000000000000D+00 0.138454277241D-04 0.000000000000D+00  6 2 -4 25 1 -3 21 2 0.47703717D+00 0.30797789D-01 0.35315448D+06 0.35315448D+06 0.35315448D+06 0.10793491D+01  1  2  4  3  6  4        1 -.243635920942D-03 0.100000000000D+01
  </mgrwgt>
  </event>
  <event>
  6     66 -.18614916E-05 0.25919597E+02 0.75467711E-02 0.92143271E-01
        2 -1    0    0  502    0 0.00000000E+00 0.00000000E+00 0.33557168E+04 0.33557169E+04 0.32000000E+00 0.0000E+00 0.9000E+01
       -4 -1    0    0    0  501 0.00000000E+00 0.00000000E+00 -.94736360E+03 0.94736487E+03 0.15500000E+01 0.0000E+00 0.9000E+01
       25  1    1    2    0    0 -.27992017E+03 0.50653651E+03 0.33902616E+03 0.68227434E+03 0.12500000E+03 0.0000E+00 0.9000E+01
        1  1    1    2  502    0 -.39090561E+02 0.17580933E+02 0.27167453E+04 0.27170834E+04 0.32000000E+00 0.0000E+00 0.9000E+01
       -3  1    1    2    0  503 0.27226426E+03 -.48526727E+03 -.62988838E+03 0.84045926E+03 0.50000000E+00 0.0000E+00 0.9000E+01
       21  1    1    2  503  501 0.46746479E+02 -.38850171E+02 -.17529813E+02 0.63264729E+02 0.75000000E+00 0.0000E+00 0.9000E+01
#aMCatNLO 2  0  0  5  2 0.33322641D+02 0.00000000D+00  -5  6  0 0.00000000D+00 0.00000000D+00 0.00000000D+00 0.00000000D+00 0.00000000D+00
  <mgrwgt>
 -.7196404705D-01    5    2    0
 0.178299937111420D+04 0.000000000000000D+00 0.000000000000000D+00 0.178299937111420D+04
 0.178299937111420D+04 -.000000000000000D+00 -.000000000000000D+00 -.178299937111420D+04
 0.594715441458631D+03 -.280174577511816D+03 0.506954202145861D+03 -.506073053230733D+02
 0.144647263061031D+04 -.396787834683679D+02 0.185481335580018D+02 0.144580933459038D+04
 0.152481067015946D+04 0.319853360980184D+03 -.525502335703863D+03 -.139520202926731D+04
 0.000000000000000D+00 0.000000000000000D+00 0.000000000000000D+00 0.000000000000000D+00
 0.178299937111420D+04 0.000000000000000D+00 0.000000000000000D+00 0.178299937111420D+04
 0.178299937111420D+04 -.000000000000000D+00 -.000000000000000D+00 -.178299937111420D+04
 0.594352788651177D+03 -.279932202671121D+03 0.506555992964908D+03 -.516645456426518D+02
 0.144387572585161D+04 -.390896265935049D+02 0.175801796403449D+02 0.144323942922860D+04
 0.143958156293043D+04 0.272259749639452D+03 -.485278085808141D+03 -.132769532818711D+04
 0.881886647951840D+02 0.467620796251741D+02 -.388580867971115D+02 -.638795553988469D+02
-.696867174256D+01 0.000000000000D+00 0.000000000000D+00 0.787104656646D-03 0.000000000000D+00  6 2 -4 25 1 -3 21 2 0.51626423D+00 0.14574835D+00 0.39200076D+06 0.39200076D+06 0.39200076D+06 0.10760606D+01  1  2 13  4  6  5       -3 -.117549223402D+00 0.100000000000D+01
-.277881666157D+01 0.000000000000D+00 0.000000000000D+00 0.787104656646D-03 0.000000000000D+00  6 2 -4 25 1 -3 21 2 0.51626423D+00 0.14574835D+00 0.39159336D+06 0.39159336D+06 0.39159336D+06 0.10760933D+01  1  2  8  4  6  5       -3 -.468807716109D-01 0.100000000000D+01
-.404854968166D+00 0.000000000000D+00 0.000000000000D+00 0.787104656646D-03 0.000000000000D+00  6 2 -4 25 1 -3 21 2 0.51626423D+00 0.14574835D+00 0.39159336D+06 0.39159336D+06 0.39159336D+06 0.10760933D+01  1  2  9  4  6  5       -3 -.683021429971D-02 0.100000000000D+01
0.428946000684D+00 0.000000000000D+00 0.000000000000D+00 0.787104656646D-03 0.000000000000D+00  6 2 -4 25 1 -3 21 2 0.51626423D+00 0.14574835D+00 0.39159336D+06 0.39159336D+06 0.39159336D+06 0.10760933D+01  1  2 10  4  6  5       -3 0.723664852367D-02 0.100000000000D+01
0.545756503914D+01 0.000000000000D+00 0.000000000000D+00 0.787104656646D-03 0.116251533736D-05  6 2 -4 25 1 -3 21 2 0.51626423D+00 0.14574835D+00 0.39200076D+06 0.39200076D+06 0.39200076D+06 0.10760606D+01  1  2  1  4  6  5       -3 0.920595137373D-01 0.100000000000D+01
  </mgrwgt>
  </event>
  <event>
  6     66 0.18614916E-05 0.10353208E+03 0.75467711E-02 0.93748287E-01
        2 -1    0    0  502    0 0.00000000E+00 0.00000000E+00 0.14005867E+04 0.14005868E+04 0.32000000E+00 0.0000E+00 0.9000E+01
       -4 -1    0    0    0  503 0.00000000E+00 0.00000000E+00 -.48187603E+03 0.48187853E+03 0.15500000E+01 0.0000E+00 0.9000E+01
       25  1    1    2    0    0 0.33440399E+03 0.30185223E+03 0.74480085E+03 0.87937142E+03 0.12500000E+03 0.0000E+00 0.9000E+01
        1  1    1    2  502    0 -.40123841E+02 0.10105314E+03 0.42023143E+03 0.43406937E+03 0.32000000E+00 0.0000E+00 0.9000E+01
       -3  1    1    2    0  501 -.29917853E+03 -.39393967E+03 -.22115775E+03 0.54185538E+03 0.50000000E+00 0.0000E+00 0.9000E+01
       21  1    1    2  501  503 0.48983814E+01 -.89657035E+01 -.25163852E+02 0.27169099E+02 0.75000000E+00 0.0000E+00 0.9000E+01
#aMCatNLO 2  0  0  2  5 0.34908614D+03 0.00000000D+00  -5  6  0 0.00000000D+00 0.00000000D+00 0.00000000D+00 0.00000000D+00 0.00000000D+00
  <mgrwgt>
 0.1141379909D-01    1    2    0
 0.798611356912569D+03 0.000000000000000D+00 0.000000000000000D+00 0.798611356912569D+03
 0.798611356912569D+03 0.000000000000000D+00 0.000000000000000D+00 -.798611356912569D+03
 0.580828001795957D+03 0.336217601803787D+03 0.298730853860059D+03 0.345620845522422D+03
 0.254975165165710D+03 -.393086954972883D+02 0.995390286095343D+02 0.231428483754815D+03
 0.761419546863472D+03 -.296908906306498D+03 -.398269882469593D+03 -.577049329277237D+03
 0.000000000000000D+00 0.000000000000000D+00 -.000000000000000D+00 -.000000000000000D+00
 0.799196781523862D+03 0.000000000000000D+00 0.000000000000000D+00 0.799196781523862D+03
 0.844480926315503D+03 0.000000000000000D+00 0.000000000000000D+00 -.844480926315503D+03
 0.581485636113375D+03 0.334435321461614D+03 0.301993032875608D+03 0.345620845522422D+03
 0.255659676834556D+03 -.400916979599992D+02 0.100972189343308D+03 0.231428483754815D+03
 0.760110075378675D+03 -.299242004918877D+03 -.393999518737010D+03 -.577049329277237D+03
 0.464223195127593D+02 0.489838141726246D+01 -.896570348190572D+01 -.452841447916407D+02
0.682349694332D-02 0.000000000000D+00 0.000000000000D+00 0.118576800282D-05 0.804872163108D-07  6 2 -4 25 1 -3 21 2 0.21547426D+00 0.74134688D-01 0.29226692D+06 0.29226692D+06 0.29226692D+06 0.10853920D+01  1  2  1  2  6  2       -4 0.114137990862D-01 0.100000000000D+01
  </mgrwgt>
  </event>
  <event>
  5     66 0.18614916E-05 0.77472609E+02 0.75467711E-02 0.94430376E-01
        2 -1    0    0  502    0 0.00000000E+00 0.00000000E+00 0.18241388E+04 0.18241388E+04 0.32000000E+00 0.0000E+00 0.9000E+01
       -4 -1    0    0    0  501 0.00000000E+00 0.00000000E+00 -.90916937E+03 0.90917069E+03 0.15500000E+01 0.0000E+00 0.9000E+01
       25  1    1    2    0    0 0.95954670E+02 -.48513524E+03 -.37761866E+03 0.63465294E+03 0.12500000E+03 0.0000E+00 0.9000E+01
        1  1    1    2  502    0 0.25704399E+02 0.73085631E+02 0.15799050E+04 0.15818035E+04 0.32000000E+00 0.0000E+00 0.9000E+01
       -3  1    1    2    0  501 -.12165907E+03 0.41204961E+03 -.28731696E+03 0.51685307E+03 0.50000000E+00 0.0000E+00 0.9000E+01
#aMCatNLO 1  0  0  1  2 0.13918334D+00 0.00000000D+00  -5  6  0 0.00000000D+00 0.00000000D+00 0.00000000D+00 0.00000000D+00 0.00000000D+00
  <mgrwgt>
 0.4650827964D-02    9    2    0
 0.128780935062522D+04 0.000000000000000D+00 0.000000000000000D+00 0.128780935062522D+04
 0.128780935062522D+04 0.000000000000000D+00 0.000000000000000D+00 -.128780935062522D+04
 0.807658312381518D+03 0.959618171000869D+02 -.485162497059665D+03 -.626175399280938D+03
 0.111737839187219D+04 0.257039273971827D+02 0.730842890876897D+02 0.111468940311990D+04
 0.650581996996721D+03 -.121665744497270D+03 0.412078207971976D+03 -.488514003838960D+03
 0.000000000000000D+00 -.000000000000000D+00 0.000000000000000D+00 0.000000000000000D+00
 0.128793701558008D+04 0.000000000000000D+00 0.000000000000000D+00 0.128793701558008D+04
 0.128784728830154D+04 0.000000000000000D+00 0.000000000000000D+00 -.128784728830154D+04
 0.807664669181908D+03 0.960054182885414D+02 -.485164453396289D+03 -.626175399280938D+03
 0.111737960409044D+04 0.257642485253064D+02 0.730815825460487D+02 0.111468940311990D+04
 0.650574431738737D+03 -.121630623368365D+03 0.412076632126151D+03 -.488514003838960D+03
 0.165598870535566D+00 -.139043445482721D+00 0.623872408921979D-02 0.897272785316006D-01
0.319664159631D-02 0.000000000000D+00 0.000000000000D+00 0.657297405597D-04 0.000000000000D+00  6 2 -4 25 1 -3 21 0 0.28063684D+00 0.13987231D+00 0.25869962D+06 0.25869962D+06 0.25869962D+06 0.10893433D+01  1  2  2  1  6  1        2 0.448394524886D-03 0.100000000000D+01
0.105068021881D-02 0.000000000000D+00 -.122759454249D-04 0.657297405597D-04 0.000000000000D+00  6 2 -4 25 1 -3 21 2 0.28063684D+00 0.13987231D+00 0.25869962D+06 0.25869962D+06 0.25869962D+06 0.10893433D+01  1  2  3  1  6  1        2 0.174890580467D-03 0.100000000000D+01
-.191671080568D-02 0.000000000000D+00 0.000000000000D+00 0.657297405597D-04 0.000000000000D+00  6 2 -4 25 1 -3 21 2 0.28063684D+00 0.13987231D+00 0.25869962D+06 0.25869962D+06 0.25869962D+06 0.10893433D+01  1  2 15  1  6  1        2 -.319045375929D-03 0.100000000000D+01
-.281893181699D+00 0.000000000000D+00 0.000000000000D+00 0.657297405597D-04 0.000000000000D+00  6 2 -4 25 1 -3 21 2 0.28063684D+00 0.13987231D+00 0.25869962D+06 0.25869962D+06 0.25869962D+06 0.10893433D+01  1  2  4  1  6  1        2 -.469224234875D-01 0.100000000000D+01
-.104321714783D+03 0.000000000000D+00 -.585341156885D+01 0.657297405597D-04 0.000000000000D+00  6 2 -4 25 1 -3 21 2 0.28066832D+00 0.13987231D+00 0.25869962D+06 0.25869962D+06 0.25869962D+06 0.10893433D+01  1  2  5  1  6  1        2 -.173603872200D+02 0.100000000000D+01
0.104322370739D+03 0.000000000000D+00 0.585341153203D+01 0.657297405597D-04 0.000000000000D+00  6 2 -4 25 1 -3 21 2 0.28063684D+00 0.13987231D+00 0.25869962D+06 0.25869962D+06 0.25869962D+06 0.10893433D+01  1  2  6  1  6  1        2 0.173649409663D+02 0.100000000000D+01
0.281205345476D+00 0.000000000000D+00 0.000000000000D+00 0.657297405597D-04 0.108063239411D-02  6 2 -4 25 1 -3 21 2 0.28066466D+00 0.13987643D+00 0.25877861D+06 0.25877861D+06 0.25877861D+06 0.10893333D+01  1  2 11  1  6  1        2 0.467913600067D-01 0.100000000000D+01
-.219367874475D-02 0.000000000000D+00 -.123087184736D-03 0.657297405597D-04 0.000000000000D+00  6 21 -4 25 1 -3 -2 2 0.28066832D+00 0.13987231D+00 0.25869962D+06 0.25869962D+06 0.25869962D+06 0.10893433D+01  1  2  5  5  6  1        2 -.883839790325D-04 0.100000000000D+01
0.305046638584D-03 0.000000000000D+00 0.000000000000D+00 0.657297405597D-04 0.397158086835D-06  6 21 -4 25 1 -3 -2 2 0.28066466D+00 0.13987643D+00 0.25877861D+06 0.25877861D+06 0.25877861D+06 0.10893333D+01  1  2 11  5  6  1        2 0.122893461887D-04 0.100000000000D+01
  </mgrwgt>
  </event>
  <event>
  5     66 0.18614916E-05 0.76635566E+02 0.75467711E-02 0.86580677E-01
        2 -1    0    0  502    0 0.00000000E+00 0.00000000E+00 0.35418745E+04 0.35418746E+04 0.32000000E+00 0.0000E+00 0.9000E+01
       -4 -1    0    0    0  501 0.00000000E+00 0.00000000E+00 -.52674330E+03 0.52674558E+03 0.15500000E+01 0.0000E+00 0.9000E+01
       25  1    1    2    0    0 0.47575983E+02 0.95784698E+03 0.43620885E+03 0.10609606E+04 0.12500000E+03 0.0000E+00 0.9000E+01
        1  1    1    2  502    0 -.22854254E+02 -.88531063E+03 0.27126369E+04 0.28535410E+04 0.32000000E+00 0.0000E+00 0.9000E+01
       -3  1    1    2    0  501 -.24721729E+02 -.72536352E+02 -.13371452E+03 0.15411849E+03 0.50000000E+00 0.0000E+00 0.9000E+01
#aMCatNLO 1  0  0  1  4 0.27427044D+01 0.00000000D+00  -5  6  0 0.00000000D+00 0.00000000D+00 0.00000000D+00 0.00000000D+00 0.00000000D+00
  <mgrwgt>
 0.6027181574D-03    7    2    0
 0.136589288107160D+04 0.000000000000000D+00 0.000000000000000D+00 0.136589288107160D+04
 0.136589288107160D+04 0.000000000000000D+00 0.000000000000000D+00 -.136589288107160D+04
 0.109869460521256D+04 0.475764134322794D+02 0.957846227451248D+03 -.521317489602560D+03
 0.125595761986844D+04 -.228541817445744D+02 -.885307814848250D+03 0.890582563410604D+03
 0.377133537062197D+03 -.247222316877050D+02 -.725384126029974D+02 -.369265073808045D+03
 0.000000000000000D+00 -.000000000000000D+00 0.000000000000000D+00 0.000000000000000D+00
 0.149573533835447D+04 0.000000000000000D+00 0.000000000000000D+00 0.149573533835447D+04
 0.146794157580205D+04 0.000000000000000D+00 0.000000000000000D+00 -.146794157580205D+04
 0.107701087461902D+04 0.129210000407554D+03 0.925127166867775D+03 -.521317489602560D+03
 0.128502160007366D+04 0.724846635524299D+02 -.923519996510387D+03 0.890582563410604D+03
 0.378695053823920D+03 0.363684521147028D+01 -.839048414166242D+02 -.369265073808045D+03
 0.222949385639927D+03 -.205331509171454D+03 0.822976710592356D+02 0.277937625524161D+02
0.293335691343D-02 0.000000000000D+00 0.000000000000D+00 0.190340510808D-05 0.000000000000D+00  6 2 -4 25 1 -3 21 0 0.54490395D+00 0.81037608D-01 0.93062425D+06 0.93062425D+06 0.93062425D+06 0.10499489D+01  1  2  2  1  6  1        2 0.161098159674D-03 0.100000000000D+01
0.826500595841D-03 0.000000000000D+00 -.112648629182D-04 0.190340510808D-05 0.000000000000D+00  6 2 -4 25 1 -3 21 2 0.54490395D+00 0.81037608D-01 0.93062425D+06 0.93062425D+06 0.93062425D+06 0.10499489D+01  1  2  3  1  6  1        2 0.500386008788D-04 0.100000000000D+01
-.182139656800D-02 0.000000000000D+00 0.000000000000D+00 0.190340510808D-05 0.000000000000D+00  6 2 -4 25 1 -3 21 2 0.54490395D+00 0.81037608D-01 0.93062425D+06 0.93062425D+06 0.93062425D+06 0.10499489D+01  1  2 15  1  6  1        2 -.110272317246D-03 0.100000000000D+01
-.153072165915D-03 0.000000000000D+00 0.000000000000D+00 0.190340510808D-05 0.000000000000D+00  6 2 -4 25 1 -3 21 2 0.54490395D+00 0.81037608D-01 0.93062425D+06 0.93062425D+06 0.93062425D+06 0.10499489D+01  1  2  4  1  6  1        2 -.926740652630D-05 0.100000000000D+01
-.156272516679D-01 0.000000000000D+00 -.373698534514D-02 0.190340510808D-05 0.000000000000D+00  6 2 -4 25 1 -3 21 2 0.60719604D+00 0.81037608D-01 0.93062425D+06 0.93062425D+06 0.93062425D+06 0.10499489D+01  1  2  5  1  6  1        2 -.460821418534D-03 0.100000000000D+01
0.160562691422D-01 0.000000000000D+00 0.379400787211D-02 0.190340510808D-05 0.000000000000D+00  6 2 -4 25 1 -3 21 2 0.54490395D+00 0.81037608D-01 0.93062425D+06 0.93062425D+06 0.93062425D+06 0.10499489D+01  1  2  6  1  6  1        2 0.972090337568D-03 0.100000000000D+01
-.257408801133D-03 0.000000000000D+00 -.649706512438D-04 0.190340510808D-05 0.000000000000D+00  6 21 -4 25 1 -3 -2 2 0.60719604D+00 0.81037608D-01 0.93062425D+06 0.93062425D+06 0.93062425D+06 0.10499489D+01  1  2  5  5  6  1        2 -.147798437739D-06 0.100000000000D+01
  </mgrwgt>
  </event>
  <event>
  5     66 -.18614916E-05 0.43505077E+02 0.75467711E-02 0.95290222E-01
        2 -1    0    0  502    0 0.00000000E+00 0.00000000E+00 0.15816957E+04 0.15816957E+04 0.32000000E+00 0.0000E+00 0.9000E+01
       -4 -1    0    0    0  501 0.00000000E+00 0.00000000E+00 -.46172015E+03 0.46172275E+03 0.15500000E+01 0.0000E+00 0.9000E+01
       25  1    1    2    0    0 -.22735365E+03 0.39243980E+03 0.90963843E+03 0.10240926E+04 0.12500000E+03 0.0000E+00 0.9000E+01
        1  1    1    2  502    0 0.42221423E+02 -.10624652E+02 0.50234496E+03 0.50422822E+03 0.32000000E+00 0.0000E+00 0.9000E+01
       -3  1    1    2    0  501 0.18513222E+03 -.38181515E+03 -.29200783E+03 0.51509763E+03 0.50000000E+00 0.0000E+00 0.9000E+01
#aMCatNLO 1  0  0  2  5 0.56219591D+01 0.00000000D+00  -5  6  0 0.00000000D+00 0.00000000D+00 0.00000000D+00 0.00000000D+00 0.00000000D+00
  <mgrwgt>
 -.5180153184D-02   11    4    0
 0.854577951426226D+03 0.000000000000000D+00 0.000000000000000D+00 0.854577951426226D+03
 0.854577951426226D+03 0.000000000000000D+00 0.000000000000000D+00 -.854577951426226D+03
 0.628478446993864D+03 -.227359299267241D+03 0.392501423441337D+03 0.416665981295633D+03
 0.273459162953959D+03 0.421897815944686D+02 -.106166893616581D+02 0.269976336073162D+03
 0.807218292904629D+03 0.185169517672773D+03 -.381884734079679D+03 -.686642317368795D+03
 0.000000000000000D+00 -.000000000000000D+00 -.000000000000000D+00 -.000000000000000D+00
 0.854708014142612D+03 0.000000000000000D+00 0.000000000000000D+00 0.854708014142612D+03
 0.917573882633770D+03 0.000000000000000D+00 0.000000000000000D+00 -.917573882633770D+03
 0.629532660668720D+03 -.226818710599002D+03 0.394498546767655D+03 0.416665981295633D+03
 0.273463193138846D+03 0.424248033890376D+02 -.974843677757111D+01 0.269976336073162D+03
 0.806169295228519D+03 0.185862817630389D+03 -.379323441920152D+03 -.686642317368795D+03
 0.631167477402952D+02 -.146891042042454D+01 -.542666806993263D+01 -.628658684911582D+02
 0.854577951426226D+03 0.000000000000000D+00 0.000000000000000D+00 0.854577951426226D+03
 0.854577951426226D+03 0.000000000000000D+00 0.000000000000000D+00 -.854577951426226D+03
 0.628478446993864D+03 -.227359299267241D+03 0.392501423441337D+03 0.416665981295633D+03
 0.273459162953959D+03 0.421897815944686D+02 -.106166893616581D+02 0.269976336073162D+03
 0.000000000000000D+00 -.000000000000000D+00 -.000000000000000D+00 -.000000000000000D+00
 0.807218292904629D+03 0.185169517672773D+03 -.381884734079679D+03 -.686642317368795D+03
 0.854708014142612D+03 0.000000000000000D+00 0.000000000000000D+00 0.854708014142612D+03
 0.917573882633770D+03 0.000000000000000D+00 0.000000000000000D+00 -.917573882633770D+03
 0.629532660668720D+03 -.226818710599002D+03 0.394498546767655D+03 0.416665981295633D+03
 0.273463193138846D+03 0.424248033890376D+02 -.974843677757111D+01 0.269976336073162D+03
 0.631167477402952D+02 -.146891042042454D+01 -.542666806993263D+01 -.628658684911582D+02
 0.806169295228519D+03 0.185862817630389D+03 -.379323441920152D+03 -.686642317368795D+03
0.292440280316D-04 0.000000000000D+00 0.000000000000D+00 0.427415294783D-04 0.000000000000D+00  6 2 -4 25 1 -3 21 0 0.24333800D+00 0.71034072D-01 0.22015781D+06 0.22015781D+06 0.22015781D+06 0.10946367D+01  1  2  2  2  6  2       -4 0.370732944669D-04 0.100000000000D+01
0.757877072285D-05 0.000000000000D+00 -.112304767771D-06 0.427415294783D-04 0.000000000000D+00  6 2 -4 25 1 -3 21 2 0.24333800D+00 0.71034072D-01 0.22015781D+06 0.22015781D+06 0.22015781D+06 0.10946367D+01  1  2  3  2  6  2       -4 0.115123175727D-04 0.100000000000D+01
-.210680849009D-04 0.000000000000D+00 0.000000000000D+00 0.427415294783D-04 0.000000000000D+00  6 2 -4 25 1 -3 21 2 0.24333800D+00 0.71034072D-01 0.22015781D+06 0.22015781D+06 0.22015781D+06 0.10946367D+01  1  2 15  2  6  2       -4 -.320028792132D-04 0.100000000000D+01
0.104046911031D-01 0.000000000000D+00 0.000000000000D+00 0.427415294783D-04 0.000000000000D+00  6 2 -4 25 1 -3 21 2 0.24333800D+00 0.76349260D-01 0.22253650D+06 0.22253650D+06 0.22253650D+06 0.10942816D+01  1  2 12  2  6  2       -4 0.131715304414D-01 0.100000000000D+01
-.220142057382D-01 0.000000000000D+00 0.000000000000D+00 0.427415294783D-04 0.000000000000D+00  6 2 -4 25 1 -3 21 2 0.24333800D+00 0.71034072D-01 0.22015781D+06 0.22015781D+06 0.22015781D+06 0.10946367D+01  1  2  4  2  6  2       -4 -.334400573440D-01 0.100000000000D+01
-.176220004351D-01 0.000000000000D+00 -.832415815087D-04 0.427415294783D-04 0.000000000000D+00  6 2 -4 25 1 -3 21 2 0.24333800D+00 0.76275620D-01 0.22015781D+06 0.22015781D+06 0.22015781D+06 0.10946367D+01  1  2  5  2  6  2       -4 -.223856547918D-01 0.100000000000D+01
0.175835568755D-01 0.000000000000D+00 0.830310692618D-04 0.427415294783D-04 0.000000000000D+00  6 2 -4 25 1 -3 21 2 0.24333800D+00 0.71034072D-01 0.22015781D+06 0.22015781D+06 0.22015781D+06 0.10946367D+01  1  2  6  2  6  2       -4 0.267098053511D-01 0.100000000000D+01
0.856279059361D-02 0.000000000000D+00 0.000000000000D+00 0.427415294783D-04 0.109860029491D-04  6 2 -4 25 1 -3 21 2 0.24337504D+00 0.76270408D-01 0.22253650D+06 0.22253650D+06 0.22253650D+06 0.10942816D+01  1  2 11  2  6  2       -4 0.108650397646D-01 0.100000000000D+01
0.152808152022D-03 0.000000000000D+00 0.000000000000D+00 0.427415294783D-04 0.000000000000D+00  6 2 21 25 1 4 -3 2 0.24333800D+00 0.76349260D-01 0.22253650D+06 0.22253650D+06 0.22253650D+06 0.10942816D+01  3  4 12  6  5  2       -4 0.416456642747D-02 0.100000000000D+01
-.238038426050D-03 0.000000000000D+00 -.100173988484D-05 0.427415294783D-04 0.000000000000D+00  6 2 21 25 1 4 -3 2 0.24333800D+00 0.76275620D-01 0.22015781D+06 0.22015781D+06 0.22015781D+06 0.10946367D+01  3  4  5  6  5  2       -4 -.651242384609D-02 0.100000000000D+01
0.816637861639D-04 0.000000000000D+00 0.000000000000D+00 0.427415294783D-04 0.103922987767D-06  6 2 21 25 1 4 -3 2 0.24337504D+00 0.76270408D-01 0.22253650D+06 0.22253650D+06 0.22253650D+06 0.10942816D+01  3  4 11  6  5  2       -4 0.223045808048D-02 0.100000000000D+01
  </mgrwgt>
  </event>
  <event>
  6     66 0.18614916E-05 0.38058937E+02 0.75467711E-02 0.94310436E-01
        2 -1    0    0  502    0 0.00000000E+00 0.00000000E+00 0.18736720E+04 0.18736720E+04 0.32000000E+00 0.0000E+00 0.9000E+01
       21 -1    0    0  503  501 0.00000000E+00 0.00000000E+00 -.42229036E+03 0.42229102E+03 0.75000000E+00 0.0000E+00 0.9000E+01
       25  1    1    2    0    0 -.32680885E+03 -.34689064E+03 0.57741649E+03 0.75905991E+03 0.12500000E+03 0.0000E+00 0.9000E+01
        1  1    1    2  502    0 0.10210064E+01 -.45058544E+01 0.94145040E+03 0.94146179E+03 0.32000000E+00 0.0000E+00 0.9000E+01
        4  1    1    2  503    0 -.35310490E+02 0.19564206E+02 -.96047288E+02 0.10419728E+03 0.15500000E+01 0.0000E+00 0.9000E+01
       -3  1    1    2    0  501 0.36109833E+03 0.33183229E+03 0.28562007E+02 0.49124404E+03 0.50000000E+00 0.0000E+00 0.9000E+01
#aMCatNLO 2  0  0  2  1 0.50828569D+02 0.00000000D+00  -5  6  0 0.00000000D+00 0.00000000D+00 0.00000000D+00 0.00000000D+00 0.00000000D+00
  <mgrwgt>
 0.3228532726D-01    1    2    0
 0.775833628144910D+03 0.000000000000000D+00 0.000000000000000D+00 0.775833628144910D+03
 0.775833628144910D+03 0.000000000000000D+00 0.000000000000000D+00 -.775833628144910D+03
 0.499511780837748D+03 -.338200090797797D+03 -.340677471221779D+03 0.587075666502582D+02
 0.390740235588796D+03 -.786913110593843D+01 0.421217387553170D+00 0.390660762119179D+03
 0.000000000000000D+00 -.000000000000000D+00 0.000000000000000D+00 -.000000000000000D+00
 0.661415239863276D+03 0.346069221903735D+03 0.340256253834226D+03 -.449368328769437D+03
 0.777785258528625D+03 0.000000000000000D+00 0.000000000000000D+00 0.777785258528625D+03
 0.101728513358834D+04 0.000000000000000D+00 0.000000000000000D+00 -.101728513358834D+04
 0.496279984234893D+03 -.326871647860420D+03 -.346954132696535D+03 0.587075666502582D+02
 0.390688061289392D+03 0.102064503133476D+01 -.450427111148225D+01 0.390660762119179D+03
 0.242878115642656D+03 -.353104904417298D+02 0.195642063287533D+02 -.239499875059712D+03
 0.665224230950021D+03 0.361161493270815D+03 0.331894197479264D+03 -.449368328769437D+03
0.119861745624D-02 0.000000000000D+00 0.000000000000D+00 0.536643827218D-04 0.784168672717D-08  6 2 21 25 1 4 -3 2 0.28825636D+00 0.64967595D-01 0.26434154D+06 0.26434154D+06 0.26434154D+06 0.10886413D+01  1  2  1  6  5  2       -4 0.322853272581D-01 0.100000000000D+01
  </mgrwgt>
  </event>
  <event>
  5     66 0.18614916E-05 0.19621102E+03 0.75467711E-02 0.83040761E-01
        2 -1    0    0  502    0 0.00000000E+00 0.00000000E+00 0.19861060E+04 0.19861060E+04 0.32000000E+00 0.0000E+00 0.9000E+01
       -4 -1    0    0    0  501 0.00000000E+00 0.00000000E+00 -.69971527E+03 0.69971699E+03 0.15500000E+01 0.0000E+00 0.9000E+01
       25  1    1    2    0    0 0.48045448E+03 0.10973535E+03 0.10447912E+03 0.51905610E+03 0.12500000E+03 0.0000E+00 0.9000E+01
        1  1    1    2  502    0 -.19420947E+03 0.28001258E+02 0.16165522E+04 0.16284172E+04 0.32000000E+00 0.0000E+00 0.9000E+01
       -3  1    1    2    0  501 -.28624501E+03 -.13773661E+03 -.43464067E+03 0.53834965E+03 0.50000000E+00 0.0000E+00 0.9000E+01
#aMCatNLO 1  0  0  1  4 0.18637484D+03 0.00000000D+00  -5  6  0 0.00000000D+00 0.00000000D+00 0.00000000D+00 0.00000000D+00 0.00000000D+00
  <mgrwgt>
 0.9715883205D-02    3    2    0
 0.117886004645075D+04 0.000000000000000D+00 0.000000000000000D+00 0.117886004645075D+04
 0.117886004645075D+04 0.000000000000000D+00 0.000000000000000D+00 -.117886004645075D+04
 0.534289114469747D+03 0.480474970936153D+03 0.109747331567352D+03 -.164131603777627D+03
 0.972992689532369D+03 -.194202855154912D+03 0.280003054132840D+02 0.953003676713724D+03
 0.850438288899384D+03 -.286272115781241D+03 -.137747636980636D+03 -.788872072936097D+03
 0.000000000000000D+00 -.000000000000000D+00 0.000000000000000D+00 -.000000000000000D+00
 0.208688114189903D+04 0.000000000000000D+00 0.000000000000000D+00 0.208688114189903D+04
 0.233296284489383D+04 0.000000000000000D+00 0.000000000000000D+00 -.233296284489383D+04
 0.952123466332125D+03 0.927360322894985D+03 0.630693531106417D+02 -.164131603777627D+03
 0.103823663720796D+04 0.410467030688901D+03 -.351585512847954D+02 0.953003676713724D+03
 0.841562106193431D+03 0.222422577631289D+03 -.190881712277738D+03 -.788872072936097D+03
 0.158792177705934D+04 -.156024993121518D+04 0.162970910451891D+03 -.246081702994800D+03
0.102883232783D+00 0.000000000000D+00 0.000000000000D+00 0.333865350480D-04 0.000000000000D+00  6 2 -4 25 1 -3 21 0 0.30555490D+00 0.10764864D+00 0.26130191D+06 0.26130191D+06 0.26130191D+06 0.10890174D+01  1  2  2  1  6  1        2 0.258144559920D-01 0.100000000000D+01
0.130390807604D-01 0.000000000000D+00 -.395098703664D-03 0.333865350480D-04 0.000000000000D+00  6 2 -4 25 1 -3 21 2 0.30555490D+00 0.10764864D+00 0.26130191D+06 0.26130191D+06 0.26130191D+06 0.10890174D+01  1  2  3  1  6  1        2 0.388002942919D-02 0.100000000000D+01
-.671393381227D-01 0.000000000000D+00 0.000000000000D+00 0.333865350480D-04 0.000000000000D+00  6 2 -4 25 1 -3 21 2 0.30555490D+00 0.10764864D+00 0.26130191D+06 0.26130191D+06 0.26130191D+06 0.10890174D+01  1  2 15  1  6  1        2 -.199786022159D-01 0.100000000000D+01
  </mgrwgt>
  </event>
  <event>
  5     66 -.18614916E-05 0.25381241E+02 0.75467711E-02 0.92545653E-01
        2 -1    0    0  502    0 0.00000000E+00 0.00000000E+00 0.28862634E+04 0.28862634E+04 0.32000000E+00 0.0000E+00 0.9000E+01
       -4 -1    0    0    0  501 0.00000000E+00 0.00000000E+00 -.17573105E+03 0.17573788E+03 0.15500000E+01 0.0000E+00 0.9000E+01
       25  1    1    2    0    0 0.55066457E+03 -.10632172E+02 0.19318967E+04 0.20127579E+04 0.12500000E+03 0.0000E+00 0.9000E+01
        1  1    1    2  502    0 -.15138815E+02 -.20461709E+02 0.38015333E+03 0.38100462E+03 0.32000000E+00 0.0000E+00 0.9000E+01
       -3  1    1    2    0  501 -.53552576E+03 0.31093881E+02 0.39848235E+03 0.66823881E+03 0.50000000E+00 0.0000E+00 0.9000E+01
#aMCatNLO 1  0  0  2  5 0.27798605D+02 0.00000000D+00  -5  6  0 0.00000000D+00 0.00000000D+00 0.00000000D+00 0.00000000D+00 0.00000000D+00
  <mgrwgt>
 -.6119029124D-03    7    4    0
 0.712191394939446D+03 0.000000000000000D+00 0.000000000000000D+00 0.712191394939446D+03
 0.712191394939446D+03 0.000000000000000D+00 0.000000000000000D+00 -.712191394939446D+03
 0.650714691177621D+03 0.550751399916882D+03 -.106837012973397D+02 0.323053189630703D+03
 0.953626342648249D+02 -.150960176763678D+02 -.204038634639958D+02 0.919229276077746D+02
 0.678305464436447D+03 -.535655382240514D+03 0.310875647613355D+02 -.414976117238477D+03
 0.000000000000000D+00 -.000000000000000D+00 0.000000000000000D+00 -.000000000000000D+00
 0.726426580988834D+03 0.000000000000000D+00 0.000000000000000D+00 0.726426580988834D+03
 0.834652793268659D+03 0.000000000000000D+00 0.000000000000000D+00 -.834652793268659D+03
 0.676750201386363D+03 0.580441295727106D+03 -.330208110220058D+02 0.323053189630703D+03
 0.955235663260968D+02 -.108266833693734D+02 -.236158851388504D+02 0.919229276077746D+02
 0.654342426588822D+03 -.505849564205030D+03 0.866324127607882D+01 -.414976117238477D+03
 0.134463179956210D+03 -.637650481527029D+02 0.479734548847773D+02 -.108226212279825D+03
 0.712191394939446D+03 0.000000000000000D+00 0.000000000000000D+00 0.712191394939446D+03
 0.712191394939446D+03 0.000000000000000D+00 0.000000000000000D+00 -.712191394939446D+03
 0.650714691177621D+03 0.550751399916882D+03 -.106837012973397D+02 0.323053189630703D+03
 0.953626342648249D+02 -.150960176763678D+02 -.204038634639958D+02 0.919229276077746D+02
 0.000000000000000D+00 -.000000000000000D+00 0.000000000000000D+00 -.000000000000000D+00
 0.678305464436447D+03 -.535655382240514D+03 0.310875647613355D+02 -.414976117238477D+03
 0.726426580988834D+03 0.000000000000000D+00 0.000000000000000D+00 0.726426580988834D+03
 0.834652793268659D+03 0.000000000000000D+00 0.000000000000000D+00 -.834652793268659D+03
 0.676750201386363D+03 0.580441295727106D+03 -.330208110220058D+02 0.323053189630703D+03
 0.955235663260968D+02 -.108266833693734D+02 -.236158851388504D+02 0.919229276077746D+02
 0.134463179956210D+03 -.637650481527029D+02 0.479734548847773D+02 -.108226212279825D+03
 0.654342426588822D+03 -.505849564205030D+03 0.866324127607882D+01 -.414976117238477D+03
0.773891111671D-04 0.000000000000D+00 0.000000000000D+00 0.277393838257D-05 0.000000000000D+00  6 2 -4 25 1 -3 21 0 0.44404105D+00 0.27036073D-01 0.31741813D+06 0.31741813D+06 0.31741813D+06 0.10827431D+01  1  2  2  2  6  2       -4 0.147108765660D-03 0.100000000000D+01
0.258604993595D-04 0.000000000000D+00 -.297194563903D-06 0.277393838257D-05 0.000000000000D+00  6 2 -4 25 1 -3 21 2 0.44404105D+00 0.27036073D-01 0.31741813D+06 0.31741813D+06 0.31741813D+06 0.10827431D+01  1  2  3  2  6  2       -4 0.576297139862D-04 0.100000000000D+01
-.410745985592D-04 0.000000000000D+00 0.000000000000D+00 0.277393838257D-05 0.000000000000D+00  6 2 -4 25 1 -3 21 2 0.44404105D+00 0.27036073D-01 0.31741813D+06 0.31741813D+06 0.31741813D+06 0.10827431D+01  1  2 15  2  6  2       -4 -.915340935285D-04 0.100000000000D+01
-.306812685637D-03 0.000000000000D+00 0.000000000000D+00 0.277393838257D-05 0.000000000000D+00  6 2 -4 25 1 -3 21 2 0.44404105D+00 0.27036073D-01 0.31741813D+06 0.31741813D+06 0.31741813D+06 0.10827431D+01  1  2  4  2  6  2       -4 -.683727219448D-03 0.100000000000D+01
-.664703759277D-03 0.000000000000D+00 -.979787914597D-04 0.277393838257D-05 0.000000000000D+00  6 2 -4 25 1 -3 21 2 0.44404105D+00 0.32339932D-01 0.31741813D+06 0.31741813D+06 0.31741813D+06 0.10827431D+01  1  2  5  2  6  2       -4 -.103500785035D-02 0.100000000000D+01
0.672979857965D-03 0.000000000000D+00 0.964275748499D-04 0.277393838257D-05 0.000000000000D+00  6 2 -4 25 1 -3 21 2 0.44404105D+00 0.27036073D-01 0.31741813D+06 0.31741813D+06 0.31741813D+06 0.10827431D+01  1  2  6  2  6  2       -4 0.149972497413D-02 0.100000000000D+01
-.165326561190D-04 0.000000000000D+00 -.257430678744D-05 0.277393838257D-05 0.000000000000D+00  6 2 21 25 1 4 -3 2 0.44404105D+00 0.32339932D-01 0.31741813D+06 0.31741813D+06 0.31741813D+06 0.10827431D+01  3  4  5  6  5  2       -4 -.506097202844D-03 0.100000000000D+01
  </mgrwgt>
  </event>
  <event>
  5     66 0.18614916E-05 0.36520851E+02 0.75467711E-02 0.92053286E-01
        4 -1    0    0  502    0 0.00000000E+00 0.00000000E+00 0.15884277E+04 0.15884285E+04 0.15500000E+01 0.0000E+00 0.9000E+01
       -2 -1    0    0    0  501 0.00000000E+00 0.00000000E+00 -.53438002E+03 0.53438012E+03 0.32000000E+00 0.0000E+00 0.9000E+01
       25  1    1    2    0    0 0.43857423E+02 0.62079898E+03 -.16851751E+03 0.65676328E+03 0.12500000E+03 0.0000E+00 0.9000E+01
        3  1    1    2  502    0 -.23127942E+02 -.59072564E+03 0.12731155E+04 0.14036791E+04 0.50000000E+00 0.0000E+00 0.9000E+01
       -1  1    1    2    0  501 -.20729480E+02 -.30073349E+02 -.50550261E+02 0.62366249E+02 0.32000000E+00 0.0000E+00 0.9000E+01
#aMCatNLO 1  0  0  5  2 0.22322951D+01 0.00000000D+00  -5  6  0 0.00000000D+00 0.00000000D+00 0.00000000D+00 0.00000000D+00 0.00000000D+00
  <mgrwgt>
 0.4922237902D-05    8    2    0
 0.921316964819885D+03 0.000000000000000D+00 0.000000000000000D+00 0.921316964819885D+03
 0.921316964819885D+03 -.000000000000000D+00 -.000000000000000D+00 -.921316964819885D+03
 0.853040090054223D+03 0.438552124297282D+02 0.620798696337475D+03 -.569857959677806D+03
 0.888851487880446D+03 -.231280919616533D+02 -.590729458720463D+03 0.663747516356426D+03
 0.100742351705101D+03 -.207271204680749D+02 -.300692376170117D+02 -.938895566786202D+02
 0.000000000000000D+00 0.000000000000000D+00 0.000000000000000D+00 -.000000000000000D+00
 0.921316964819885D+03 0.000000000000000D+00 0.000000000000000D+00 0.921316964819885D+03
 0.921316964819885D+03 -.000000000000000D+00 -.000000000000000D+00 -.921316964819885D+03
 0.853060141226895D+03 0.438447636598155D+02 0.620783538103325D+03 -.569905290438316D+03
 0.888825442217846D+03 -.231389790929491D+02 -.590745252894015D+03 0.663698199909772D+03
 0.661039975352707D+02 -.118124696578782D+02 -.210654782278645D+02 -.615341342488553D+02
 0.346443486597590D+02 -.889331490898816D+01 -.897280698144541D+01 -.322587752226001D+02
0.257585302916D-04 0.000000000000D+00 0.000000000000D+00 0.199200166903D-05 0.000000000000D+00  6 4 -2 25 3 -1 21 0 0.24437356D+00 0.82212377D-01 0.39846261D+06 0.39846261D+06 0.39846261D+06 0.10755482D+01  1  2  2  4  6  5       -1 0.523517109282D-06 0.100000000000D+01
0.656766629395D-05 0.000000000000D+00 -.989195386966D-07 0.199200166903D-05 0.000000000000D+00  6 4 -2 25 3 -1 21 2 0.24437356D+00 0.82212377D-01 0.39846261D+06 0.39846261D+06 0.39846261D+06 0.10755482D+01  1  2  3  4  6  5       -1 0.154411854354D-06 0.100000000000D+01
-.166978156452D-04 0.000000000000D+00 0.000000000000D+00 0.199200166903D-05 0.000000000000D+00  6 4 -2 25 3 -1 21 2 0.24437356D+00 0.82212377D-01 0.39846261D+06 0.39846261D+06 0.39846261D+06 0.10755482D+01  1  2 15  4  6  5       -1 -.392580950682D-06 0.100000000000D+01
0.223418256839D-05 0.000000000000D+00 0.000000000000D+00 0.199200166903D-05 0.000000000000D+00  6 4 -2 25 3 -1 21 2 0.24437356D+00 0.82212377D-01 0.39862963D+06 0.39862963D+06 0.39862963D+06 0.10755351D+01  1  2 12  4  6  5       -1 0.525253706096D-07 0.100000000000D+01
-.694457571950D-02 0.000000000000D+00 0.000000000000D+00 0.199200166903D-05 0.000000000000D+00  6 4 -2 25 3 -1 21 2 0.24437356D+00 0.82212377D-01 0.39846261D+06 0.39846261D+06 0.39846261D+06 0.10755482D+01  1  2  4  4  6  5       -1 -.163273340416D-03 0.100000000000D+01
-.339572921402D-02 0.000000000000D+00 0.000000000000D+00 0.199200166903D-05 0.000000000000D+00  6 4 -2 25 3 -1 21 2 0.24437356D+00 0.82212377D-01 0.39846261D+06 0.39846261D+06 0.39846261D+06 0.10755482D+01  1  2  5  4  6  5       -1 -.798367062749D-04 0.100000000000D+01
0.723400522102D-02 0.000000000000D+00 -.000000000000D+00 0.199200166903D-05 0.000000000000D+00  6 4 -2 25 3 -1 21 2 0.24437356D+00 0.82212377D-01 0.39846261D+06 0.39846261D+06 0.39846261D+06 0.10755482D+01  1  2  6  4  6  5       -1 0.170078093282D-03 0.100000000000D+01
0.330143362198D-02 0.000000000000D+00 0.000000000000D+00 0.199200166903D-05 0.112595540486D-05  6 4 -2 25 3 -1 21 2 0.24437356D+00 0.82212377D-01 0.39862963D+06 0.39862963D+06 0.39862963D+06 0.10755351D+01  1  2 11  4  6  5       -1 0.776163179280D-04 0.100000000000D+01
  </mgrwgt>
  </event>
  <event>
  6     66 0.18614916E-05 0.15797883E+02 0.75467711E-02 0.94558608E-01
        2 -1    0    0  502    0 0.00000000E+00 0.00000000E+00 0.21462937E+04 0.21462937E+04 0.32000000E+00 0.0000E+00 0.9000E+01
       -4 -1    0    0    0  503 0.00000000E+00 0.00000000E+00 -.47530365E+03 0.47530618E+03 0.15500000E+01 0.0000E+00 0.9000E+01
       25  1    1    2    0    0 0.46257451E+03 -.52694656E+02 0.91510630E+02 0.49066394E+03 0.12500000E+03 0.0000E+00 0.9000E+01
        1  1    1    2  502    0 -.30534480E+02 -.73385163E+01 0.16324534E+04 0.16327555E+04 0.32000000E+00 0.0000E+00 0.9000E+01
       -3  1    1    2    0  501 -.45882377E+03 0.43455881E+02 -.35724345E+02 0.46225982E+03 0.50000000E+00 0.0000E+00 0.9000E+01
       21  1    1    2  501  503 0.26783736E+02 0.16577291E+02 -.17249706E+02 0.35920606E+02 0.75000000E+00 0.0000E+00 0.9000E+01
#aMCatNLO 2  0  0  2  5 0.15619542D+03 0.00000000D+00  -5  6  0 0.00000000D+00 0.00000000D+00 0.00000000D+00 0.00000000D+00 0.00000000D+00
  <mgrwgt>
 0.1823245447D-02    2    2    0
 0.979105673329793D+03 0.000000000000000D+00 0.000000000000000D+00 0.979105673329793D+03
 0.979105673329793D+03 0.000000000000000D+00 0.000000000000000D+00 -.979105673329793D+03
 0.574897113823309D+03 0.470446839304212D+03 -.478590460479643D+02 -.302110864720928D+03
 0.748015211821176D+03 -.202993905455901D+02 -.100447149554203D+01 0.747739047326252D+03
 0.635299021015100D+03 -.450147448758622D+03 0.488635175435063D+02 -.445628182605324D+03
 0.000000000000000D+00 0.000000000000000D+00 0.000000000000000D+00 -.000000000000000D+00
 0.983507926486146D+03 0.000000000000000D+00 0.000000000000000D+00 0.983507926486146D+03
 0.103724622498572D+04 0.000000000000000D+00 0.000000000000000D+00 -.103724622498572D+04
 0.568942027673548D+03 0.462624827599510D+03 -.527003335794400D+02 -.302110864720928D+03
 0.748398128952242D+03 -.305324401431794D+02 -.733802573913952D+01 0.747739047326252D+03
 0.641124510732757D+03 -.458876123485055D+03 0.434610679289159D+02 -.445628182605324D+03
 0.622894841133206D+02 0.267837360287239D+02 0.165772913896637D+02 -.537382984995751D+02
-.186302907019D-02 0.000000000000D+00 0.000000000000D+00 0.110993828357D-03 0.000000000000D+00  6 2 -4 25 1 -3 21 2 0.32872047D+00 0.69024881D-01 0.23147321D+06 0.23147321D+06 0.23147321D+06 0.10929837D+01  1  2  8  2  6  2       -4 -.150780888202D-02 0.100000000000D+01
0.485407385278D-02 0.000000000000D+00 0.000000000000D+00 0.110993828357D-03 0.224369765142D-06  6 2 -4 25 1 -3 21 2 0.33019846D+00 0.73123667D-01 0.25297586D+06 0.25297586D+06 0.25297586D+06 0.10900727D+01  1  2  1  2  6  2       -4 0.333105432931D-02 0.100000000000D+01
  </mgrwgt>
  </event>
  <event>
  5     66 0.18614916E-05 0.98835998E+02 0.75467711E-02 0.92070059E-01
        2 -1    0    0  502    0 0.00000000E+00 0.00000000E+00 0.91730717E+03 0.91730723E+03 0.32000000E+00 0.0000E+00 0.9000E+01
       -4 -1    0    0    0  501 0.00000000E+00 0.00000000E+00 -.84379647E+03 0.84379789E+03 0.15500000E+01 0.0000E+00 0.9000E+01
       25  1    1    2    0    0 -.38171413E+03 -.30257207E+03 -.23758204E+03 0.55617062E+03 0.12500000E+03 0.0000E+00 0.9000E+01
        1  1    1    2  502    0 0.39886307E+03 0.39992705E+03 0.64461762E+03 0.85706790E+03 0.32000000E+00 0.0000E+00 0.9000E+01
       -3  1    1    2    0  501 -.17148944E+02 -.97354976E+02 -.33352488E+03 0.34786660E+03 0.50000000E+00 0.0000E+00 0.9000E+01
#aMCatNLO 1  0  0  1  2 0.97195962D+02 0.00000000D+00  -5  6  0 0.00000000D+00 0.00000000D+00 0.00000000D+00 0.00000000D+00 0.00000000D+00
  <mgrwgt>
 0.9971397256D-03    7    2    0
 0.879785117881195D+03 0.000000000000000D+00 0.000000000000000D+00 0.879785117881195D+03
 0.879785117881195D+03 0.000000000000000D+00 0.000000000000000D+00 -.879785117881195D+03
 0.566643156147969D+03 -.381723409766576D+03 -.302598477126649D+03 -.261114661568713D+03
 0.830902422481366D+03 0.398871504627407D+03 0.399935506282919D+03 0.609386535210531D+03
 0.362024657133056D+03 -.171480948608313D+02 -.973370291562702D+02 -.348271873641817D+03
 0.000000000000000D+00 -.000000000000000D+00 -.000000000000000D+00 0.000000000000000D+00
 0.935180956645586D+03 0.000000000000000D+00 0.000000000000000D+00 0.935180956645586D+03
 0.924818505192560D+03 0.000000000000000D+00 0.000000000000000D+00 -.924818505192560D+03
 0.547942778810078D+03 -.377315334490582D+03 -.272155398113333D+03 -.261114661568713D+03
 0.857190328648719D+03 0.405547741682310D+03 0.446042979374614D+03 0.609386535210531D+03
 0.357119561620052D+03 -.143039518018409D+02 -.776947893012568D+02 -.348271873641817D+03
 0.977467927592964D+02 -.139284553898872D+02 -.961927919600238D+02 0.103624514530264D+02
0.866964240784D-03 0.000000000000D+00 0.000000000000D+00 0.269475383487D-05 0.000000000000D+00  6 2 -4 25 1 -3 21 0 0.14112429D+00 0.12981496D+00 0.34022347D+06 0.34022347D+06 0.34022347D+06 0.10805321D+01  1  2  2  1  6  1        2 0.499741142114D-03 0.100000000000D+01
0.137320756830D-03 0.000000000000D+00 -.332937096154D-05 0.269475383487D-05 0.000000000000D+00  6 2 -4 25 1 -3 21 2 0.14112429D+00 0.12981496D+00 0.34022347D+06 0.34022347D+06 0.34022347D+06 0.10805321D+01  1  2  3  1  6  1        2 0.924177703903D-04 0.100000000000D+01
-.666195997523D-03 0.000000000000D+00 0.000000000000D+00 0.269475383487D-05 0.000000000000D+00  6 2 -4 25 1 -3 21 2 0.14112429D+00 0.12981496D+00 0.34022347D+06 0.34022347D+06 0.34022347D+06 0.10805321D+01  1  2 15  1  6  1        2 -.448354277643D-03 0.100000000000D+01
-.852369018229D-04 0.000000000000D+00 0.000000000000D+00 0.269475383487D-05 0.000000000000D+00  6 2 -4 25 1 -3 21 2 0.14112429D+00 0.12981496D+00 0.34022347D+06 0.34022347D+06 0.34022347D+06 0.10805321D+01  1  2  4  1  6  1        2 -.573649942170D-04 0.100000000000D+01
-.983509338211D-02 0.000000000000D+00 -.231032450301D-02 0.269475383487D-05 0.000000000000D+00  6 2 -4 25 1 -3 21 2 0.15550066D+00 0.12981496D+00 0.34022347D+06 0.34022347D+06 0.34022347D+06 0.10805321D+01  1  2  5  1  6  1        2 -.577539327188D-02 0.100000000000D+01
0.100228458649D-01 0.000000000000D+00 0.229949603352D-02 0.269475383487D-05 0.000000000000D+00  6 2 -4 25 1 -3 21 2 0.14112429D+00 0.12981496D+00 0.34022347D+06 0.34022347D+06 0.34022347D+06 0.10805321D+01  1  2  6  1  6  1        2 0.674544103295D-02 0.100000000000D+01
-.148400816513D-03 0.000000000000D+00 -.365514099298D-04 0.269475383487D-05 0.000000000000D+00  6 21 -4 25 1 -3 -2 2 0.15550066D+00 0.12981496D+00 0.34022347D+06 0.34022347D+06 0.34022347D+06 0.10805321D+01  1  2  5  5  6  1        2 -.593476761263D-04 0.100000000000D+01
  </mgrwgt>
  </event>
  <event>
  5     66 0.18614916E-05 0.27593898E+02 0.75467711E-02 0.93210946E-01
        2 -1    0    0  502    0 0.00000000E+00 0.00000000E+00 0.53396014E+03 0.53396023E+03 0.32000000E+00 0.0000E+00 0.9000E+01
       -4 -1    0    0    0  501 -.00000000E+00 -.00000000E+00 -.12338002E+04 0.12338012E+04 0.15500000E+01 0.0000E+00 0.9000E+01
       25  1    1    2    0    0 0.32712054E+03 -.36622809E+03 -.29116378E+03 0.58440757E+03 0.12500000E+03 0.0000E+00 0.9000E+01
        1  1    1    2  502    0 -.27507738E+02 -.22545594E+01 0.31584684E+03 0.31705061E+03 0.32000000E+00 0.0000E+00 0.9000E+01
       -3  1    1    2    0  501 -.29961280E+03 0.36848265E+03 -.72452315E+03 0.86630326E+03 0.50000000E+00 0.0000E+00 0.9000E+01
#aMCatNLO 1  0  0  4  1 0.30042946D+02 0.00000000D+00  -5  6  0 0.00000000D+00 0.00000000D+00 0.00000000D+00 0.00000000D+00 0.00000000D+00
  <mgrwgt>
 0.3634697910D-02    6    2    0
 0.811665623124475D+03 0.000000000000000D+00 0.000000000000000D+00 0.811665623124475D+03
 0.811665623124475D+03 -.000000000000000D+00 -.000000000000000D+00 -.811665623124475D+03
 0.510942580785446D+03 0.327167514172628D+03 -.366289323271147D+03 -.650451396136581D+02
 0.481318807462162D+03 -.275016805105532D+02 -.225406294782518D+01 0.480527180486307D+03
 0.631069858001342D+03 -.299665833662075D+03 0.368543386218972D+03 -.415482040872649D+03
 0.000000000000000D+00 0.000000000000000D+00 -.000000000000000D+00 0.000000000000000D+00
 0.811665623124475D+03 0.000000000000000D+00 0.000000000000000D+00 0.811665623124475D+03
 0.811665623124475D+03 -.000000000000000D+00 -.000000000000000D+00 -.811665623124475D+03
 0.509768784543865D+03 0.326729134955300D+03 -.366325253233700D+03 -.573854938983423D+02
 0.181973552331448D+03 0.496363857086025D+02 0.421316651520585D+02 0.169928001675497D+03
 0.625136549948681D+03 -.300205354236280D+03 0.368499166618085D+03 -.406055187839517D+03
 0.306452359424957D+03 -.761601664276222D+02 -.443055785364439D+02 0.293512680062363D+03
0.542286627211D-02 0.000000000000D+00 0.000000000000D+00 0.436237869475D-04 0.000000000000D+00  6 2 -4 25 1 -3 21 0 0.82147796D-01 0.18981550D+00 0.25471103D+06 0.25471103D+06 0.25471103D+06 0.10898497D+01  1  2  2  3  6  4        1 0.172081109123D-02 0.100000000000D+01
0.325002678522D-02 0.000000000000D+00 -.208252343584D-04 0.436237869475D-04 0.000000000000D+00  6 2 -4 25 1 -3 21 2 0.82147796D-01 0.18981550D+00 0.25471103D+06 0.25471103D+06 0.25471103D+06 0.10898497D+01  1  2  3  3  6  4        1 0.122496717465D-02 0.100000000000D+01
-.332315642589D-02 0.000000000000D+00 0.000000000000D+00 0.436237869475D-04 0.000000000000D+00  6 2 -4 25 1 -3 21 2 0.82147796D-01 0.18981550D+00 0.25471103D+06 0.25471103D+06 0.25471103D+06 0.10898497D+01  1  2 15  3  6  4        1 -.125253045804D-02 0.100000000000D+01
-.303972471110D-03 0.000000000000D+00 0.000000000000D+00 0.436237869475D-04 0.000000000000D+00  6 2 -4 25 1 -3 21 2 0.82147796D-01 0.18981550D+00 0.25471103D+06 0.25471103D+06 0.25471103D+06 0.10898497D+01  1  2  4  3  6  4        1 -.114570224713D-03 0.100000000000D+01
-.711392763861D-02 0.000000000000D+00 0.000000000000D+00 0.436237869475D-04 0.000000000000D+00  6 2 -4 25 1 -3 21 2 0.82147796D-01 0.18981550D+00 0.25471103D+06 0.25471103D+06 0.25471103D+06 0.10898497D+01  1  2  5  3  6  4        1 -.268130954482D-02 0.100000000000D+01
0.125688665729D-01 0.000000000000D+00 -.000000000000D+00 0.436237869475D-04 0.000000000000D+00  6 2 -4 25 1 -3 21 2 0.82147796D-01 0.18981550D+00 0.25471103D+06 0.25471103D+06 0.25471103D+06 0.10898497D+01  1  2  6  3  6  4        1 0.473732987198D-02 0.100000000000D+01
  </mgrwgt>
  </event>
  <event>
  6     66 0.18614916E-05 0.20378199E+02 0.75467711E-02 0.95175343E-01
       21 -1    0    0  502  503 0.00000000E+00 0.00000000E+00 0.38521275E+03 0.38521348E+03 0.75000000E+00 0.0000E+00 0.9000E+01
       -2 -1    0    0    0  501 0.00000000E+00 0.00000000E+00 -.11231001E+04 0.11231002E+04 0.32000000E+00 0.0000E+00 0.9000E+01
       25  1    1    2    0    0 -.43591888E+03 -.14497395E+03 -.41954607E+03 0.63457594E+03 0.12500000E+03 0.0000E+00 0.9000E+01
        3  1    1    2  502    0 0.41972588E+03 0.14475420E+03 0.92673845E+02 0.45355516E+03 0.50000000E+00 0.0000E+00 0.9000E+01
       -1  1    1    2    0  501 0.24545200E+02 0.56170590E+00 -.41094773E+03 0.41168061E+03 0.32000000E+00 0.0000E+00 0.9000E+01
       -4  1    1    2    0  503 -.83522003E+01 -.34195763E+00 -.67427152E-01 0.85019545E+01 0.15500000E+01 0.0000E+00 0.9000E+01
#aMCatNLO 2  0  0  1  4 0.83591976D+01 0.00000000D+00  -5  6  0 0.00000000D+00 0.00000000D+00 0.00000000D+00 0.00000000D+00 0.00000000D+00
  <mgrwgt>
 0.2341275700D-02    1    2    0
 0.652875752470149D+03 0.000000000000000D+00 0.000000000000000D+00 0.652875752470149D+03
 0.652875752470149D+03 0.000000000000000D+00 0.000000000000000D+00 -.652875752470149D+03
 0.494605446036882D+03 -.439056276270192D+03 -.145095355341162D+03 -.123233402028502D+03
 0.570573349325067D+03 0.416044197740937D+03 0.144596358577746D+03 0.362702447706355D+03
 0.240572709578348D+03 0.230120785292548D+02 0.498996763416073D+00 -.239469045677853D+03
 0.000000000000000D+00 -.000000000000000D+00 -.000000000000000D+00 0.000000000000000D+00
 0.660053517863638D+03 0.000000000000000D+00 0.000000000000000D+00 0.660053517863638D+03
 0.655327447798061D+03 0.000000000000000D+00 0.000000000000000D+00 -.655327447798061D+03
 0.491769172567013D+03 -.435901650787138D+03 -.144966197966195D+03 -.123233402028502D+03
 0.573284123153039D+03 0.419702485234960D+03 0.144746136994277D+03 0.362702447706355D+03
 0.240724966022022D+03 0.245513658180258D+02 0.562018604393698D+00 -.239469045677853D+03
 0.960270391962478D+01 -.835220026584758D+01 -.341957632475345D+00 0.472607006557715D+01
0.376363727581D-03 0.000000000000D+00 0.000000000000D+00 0.198589798081D-04 0.343907449312D-08  6 21 -2 25 3 -1 -4 2 0.59257951D-01 0.17276834D+00 0.22703151D+06 0.22703151D+06 0.22703151D+06 0.10936218D+01  1  2  1  5  6  1        4 0.234127569990D-02 0.100000000000D+01
  </mgrwgt>
  </event>
  <event>
  5     66 -.18614916E-05 0.66520087E+02 0.75467711E-02 0.94680288E-01
        2 -1    0    0  502    0 0.00000000E+00 0.00000000E+00 0.12954174E+04 0.12954174E+04 0.32000000E+00 0.0000E+00 0.9000E+01
       -4 -1    0    0    0  501 0.00000000E+00 0.00000000E+00 -.52046817E+03 0.52047048E+03 0.15500000E+01 0.0000E+00 0.9000E+01
       25  1    1    2    0    0 0.47229381E+03 -.37539585E+02 0.21663313E+03 0.53574768E+03 0.12500000E+03 0.0000E+00 0.9000E+01
        1  1    1    2  502    0 -.42060505E+03 0.79399248E+02 0.86564892E+03 0.96569199E+03 0.32000000E+00 0.0000E+00 0.9000E+01
       -3  1    1    2    0  501 -.51688752E+02 -.41859663E+02 -.30733285E+03 0.31444823E+03 0.50000000E+00 0.0000E+00 0.9000E+01
#aMCatNLO 1  0  0  1  4 0.14865022D+02 0.00000000D+00  -5  6  0 0.00000000D+00 0.00000000D+00 0.00000000D+00 0.00000000D+00 0.00000000D+00
  <mgrwgt>
 -.4351884554D-01    9    2    0
 0.821112440152501D+03 0.000000000000000D+00 0.000000000000000D+00 0.821112440152501D+03
 0.821112440152501D+03 0.000000000000000D+00 0.000000000000000D+00 -.821112440152501D+03
 0.490159711656699D+03 0.472280210787400D+03 -.375317876636018D+02 -.132026643054334D+02
 0.659290867769486D+03 -.420585458197546D+03 0.793955491288773D+02 0.501466516784049D+03
 0.492774300878817D+03 -.516947525898541D+02 -.418637614652755D+02 -.488263852478615D+03
 0.000000000000000D+00 -.000000000000000D+00 0.000000000000000D+00 0.000000000000000D+00
 0.898929950562332D+03 0.000000000000000D+00 0.000000000000000D+00 0.898929950562332D+03
 0.821856279559365D+03 0.000000000000000D+00 0.000000000000000D+00 -.821856279559365D+03
 0.494390149213007D+03 0.476574134314867D+03 -.387221357382677D+02 -.132026643054334D+02
 0.655457210542723D+03 -.414851439098534D+03 0.778059822558423D+02 0.501466516784049D+03
 0.492444796460450D+03 -.473979103171452D+02 -.430549186653852D+02 -.488263852478615D+03
 0.784940739055172D+02 -.143247848991876D+02 0.397107214781053D+01 0.770736710029676D+02
0.271243910715D-03 0.000000000000D+00 0.000000000000D+00 0.283954587568D-04 0.000000000000D+00  6 2 -4 25 1 -3 21 0 0.19929516D+00 0.80072206D-01 0.24231780D+06 0.24231780D+06 0.24231780D+06 0.10914803D+01  1  2  2  1  6  1        2 0.364417635452D-03 0.100000000000D+01
0.789316174137D-04 0.000000000000D+00 -.104164803731D-05 0.283954587568D-04 0.000000000000D+00  6 2 -4 25 1 -3 21 2 0.19929516D+00 0.80072206D-01 0.24231780D+06 0.24231780D+06 0.24231780D+06 0.10914803D+01  1  2  3  1  6  1        2 0.126334563801D-03 0.100000000000D+01
-.159346484885D-03 0.000000000000D+00 0.000000000000D+00 0.283954587568D-04 0.000000000000D+00  6 2 -4 25 1 -3 21 2 0.19929516D+00 0.80072206D-01 0.24231780D+06 0.24231780D+06 0.24231780D+06 0.10914803D+01  1  2 15  1  6  1        2 -.255043154071D-03 0.100000000000D+01
0.339522609036D-01 0.000000000000D+00 0.000000000000D+00 0.283954587568D-04 0.000000000000D+00  6 2 -4 25 1 -3 21 2 0.21915102D+00 0.80072206D-01 0.24760428D+06 0.24760428D+06 0.24760428D+06 0.10907738D+01  1  2 12  1  6  1        2 0.459389695458D-01 0.100000000000D+01
-.614730700359D-01 0.000000000000D+00 0.000000000000D+00 0.283954587568D-04 0.000000000000D+00  6 2 -4 25 1 -3 21 2 0.19929516D+00 0.80072206D-01 0.24231780D+06 0.24231780D+06 0.24231780D+06 0.10914803D+01  1  2  4  1  6  1        2 -.983911611465D-01 0.100000000000D+01
-.377473923957D-01 0.000000000000D+00 -.716678580777D-03 0.283954587568D-04 0.000000000000D+00  6 2 -4 25 1 -3 21 2 0.21825725D+00 0.80072206D-01 0.24231780D+06 0.24231780D+06 0.24231780D+06 0.10914803D+01  1  2  5  1  6  1        2 -.515556859345D-01 0.100000000000D+01
0.376598272496D-01 0.000000000000D+00 0.713728662708D-03 0.283954587568D-04 0.000000000000D+00  6 2 -4 25 1 -3 21 2 0.19929516D+00 0.80072206D-01 0.24231780D+06 0.24231780D+06 0.24231780D+06 0.10914803D+01  1  2  6  1  6  1        2 0.602767053849D-01 0.100000000000D+01
0.538327249354D-03 0.000000000000D+00 0.000000000000D+00 0.283954587568D-04 0.000000000000D+00  6 21 -4 25 1 -3 -2 2 0.21915102D+00 0.80072206D-01 0.24760428D+06 0.24760428D+06 0.24760428D+06 0.10907738D+01  1  2 12  5  6  1        2 0.282397833126D-03 0.100000000000D+01
-.572663347172D-03 0.000000000000D+00 -.107125729067D-04 0.283954587568D-04 0.000000000000D+00  6 21 -4 25 1 -3 -2 2 0.21825725D+00 0.80072206D-01 0.24231780D+06 0.24231780D+06 0.24231780D+06 0.10914803D+01  1  2  5  5  6  1        2 -.305780272540D-03 0.100000000000D+01
  </mgrwgt>
  </event>
  <event>
  5     66 0.18614916E-05 0.70521442E+02 0.75467711E-02 0.92206391E-01
        2 -1    0    0  502    0 0.00000000E+00 0.00000000E+00 0.24011134E+04 0.24011134E+04 0.32000000E+00 0.0000E+00 0.9000E+01
       -4 -1    0    0    0  501 0.00000000E+00 0.00000000E+00 -.49252982E+03 0.49253226E+03 0.15500000E+01 0.0000E+00 0.9000E+01
       25  1    1    2    0    0 0.22751873E+03 0.48632979E+03 0.18937780E+03 0.58289826E+03 0.12500000E+03 0.0000E+00 0.9000E+01
        1  1    1    2  502    0 0.29836941E+02 0.63905786E+02 0.17015842E+04 0.17030453E+04 0.32000000E+00 0.0000E+00 0.9000E+01
       -3  1    1    2    0  501 -.25735567E+03 -.55023557E+03 0.17621553E+02 0.60770214E+03 0.50000000E+00 0.0000E+00 0.9000E+01
#aMCatNLO 1  0  0  5  1 0.43136229D+02 0.00000000D+00  -5  6  0 0.00000000D+00 0.00000000D+00 0.00000000D+00 0.00000000D+00 0.00000000D+00
  <mgrwgt>
 0.3851954828D-02    3    2    0
 0.108748494695201D+04 0.000000000000000D+00 0.000000000000000D+00 0.108748494695201D+04
 0.108748494695201D+04 -.000000000000000D+00 -.000000000000000D+00 -.108748494695201D+04
 0.609372735435028D+03 0.227548631984498D+03 0.486393712058213D+03 -.259524387377729D+03
 0.772534159265474D+03 0.298341856320187D+02 0.638998838020111D+02 0.769308620418215D+03
 0.793062999203511D+03 -.257382817616517D+03 -.550293595860224D+03 -.509784233040486D+03
 0.000000000000000D+00 0.000000000000000D+00 0.000000000000000D+00 0.000000000000000D+00
 0.108748494695201D+04 0.000000000000000D+00 0.000000000000000D+00 0.108748494695201D+04
 0.108748494695201D+04 -.000000000000000D+00 -.000000000000000D+00 -.108748494695201D+04
 0.603722887851209D+03 0.222861959950929D+03 0.476373440969981D+03 -.268807025318639D+03
 0.759691591468740D+03 0.239145866843053D+02 0.512435712277931D+02 0.757583990789039D+03
 0.436023205727668D+02 0.206868053840624D+02 0.258074494761523D+02 -.284111596713010D+02
 0.767953094011299D+03 -.267463352019296D+03 -.553424461673926D+03 -.460365805799099D+03
0.203191753329D-01 0.000000000000D+00 0.000000000000D+00 0.169389015210D-04 0.000000000000D+00  6 2 -4 25 1 -3 21 0 0.36940225D+00 0.75774007D-01 0.37784240D+06 0.37784240D+06 0.37784240D+06 0.10772163D+01  1  2  2  4  6  5       -3 0.755762443858D-02 0.100000000000D+01
0.756912528264D-02 0.000000000000D+00 -.780309834400D-04 0.169389015210D-04 0.000000000000D+00  6 2 -4 25 1 -3 21 2 0.36940225D+00 0.75774007D-01 0.37784240D+06 0.37784240D+06 0.37784240D+06 0.10772163D+01  1  2  3  4  6  5       -3 0.326686194273D-02 0.100000000000D+01
-.161549418951D-01 0.000000000000D+00 0.000000000000D+00 0.169389015210D-04 0.000000000000D+00  6 2 -4 25 1 -3 21 2 0.36940225D+00 0.75774007D-01 0.37784240D+06 0.37784240D+06 0.37784240D+06 0.10772163D+01  1  2 15  4  6  5       -3 -.697253155332D-02 0.100000000000D+01
  </mgrwgt>
  </event>
  <event>
  6     66 0.18614916E-05 0.16187995E+03 0.75467711E-02 0.92918885E-01
        2 -1    0    0  502    0 0.00000000E+00 0.00000000E+00 0.17475641E+04 0.17475641E+04 0.32000000E+00 0.0000E+00 0.9000E+01
       -4 -1    0    0    0  501 0.00000000E+00 0.00000000E+00 -.35781598E+03 0.35781934E+03 0.15500000E+01 0.0000E+00 0.9000E+01
       25  1    1    2    0    0 0.28957596E+03 0.42443141E+03 0.22642079E+03 0.57522833E+03 0.12500000E+03 0.0000E+00 0.9000E+01
        1  1    1    2  502    0 0.10842047E+02 0.36965750E+01 0.78840290E+03 0.78848617E+03 0.32000000E+00 0.0000E+00 0.9000E+01
       -3  1    1    2    0  503 -.36664612E+03 -.27442769E+03 0.34079719E+03 0.57086155E+03 0.50000000E+00 0.0000E+00 0.9000E+01
       21  1    1    2  503  501 0.66228119E+02 -.15370030E+03 0.34127249E+02 0.17080742E+03 0.75000000E+00 0.0000E+00 0.9000E+01
#aMCatNLO 2  0  0  5  4 0.16160239D+03 0.00000000D+00  -5  6  0 0.00000000D+00 0.00000000D+00 0.00000000D+00 0.00000000D+00 0.00000000D+00
  <mgrwgt>
 0.1811090252D-02    1    2    0
 0.790765409586202D+03 0.000000000000000D+00 0.000000000000000D+00 0.790765409586202D+03
 0.790765409586202D+03 -.000000000000000D+00 -.000000000000000D+00 -.790765409586202D+03
 0.600793372600114D+03 0.313489950045735D+03 0.458510412370386D+03 -.191885198825968D+03
 0.365792340219281D+03 0.256045687290625D+02 0.247387624339491D+02 0.364055539521834D+03
 0.614945106353008D+03 -.339094518774797D+03 -.483249174804335D+03 -.172170340695866D+03
 0.000000000000000D+00 0.000000000000000D+00 0.000000000000000D+00 -.000000000000000D+00
 0.790765409586202D+03 0.000000000000000D+00 0.000000000000000D+00 0.790765409586202D+03
 0.790765409586202D+03 -.000000000000000D+00 -.000000000000000D+00 -.790765409586202D+03
 0.566826630748454D+03 0.289604480951564D+03 0.424470837589650D+03 -.204012700522199D+03
 0.356734199453738D+03 0.108241733233784D+02 0.367497789126161D+01 0.356551007387812D+03
 0.460312651248873D+03 -.366646017492229D+03 -.274186411975478D+03 -.477519239912705D+02
 0.197657337721339D+03 0.662173632172870D+02 -.153959403505433D+03 -.104786382874343D+03
0.829477710855D-03 0.000000000000D+00 0.000000000000D+00 0.425548334213D-05 0.114078338257D-08  6 2 -4 25 1 -3 21 2 0.26885628D+00 0.55048873D-01 0.33971127D+06 0.33971127D+06 0.33971127D+06 0.10805800D+01  1  2  1  4  6  5       -3 0.181109025226D-02 0.100000000000D+01
  </mgrwgt>
  </event>
  <event>
  5     66 0.18614916E-05 0.13923678E+02 0.75467711E-02 0.94194690E-01
        2 -1    0    0  502    0 0.00000000E+00 0.00000000E+00 0.10548666E+04 0.10548667E+04 0.32000000E+00 0.0000E+00 0.9000E+01
       -4 -1    0    0    0  501 0.00000000E+00 0.00000000E+00 -.45212411E+03 0.45212677E+03 0.15500000E+01 0.0000E+00 0.9000E+01
       25  1    1    2    0    0 0.44917825E+03 -.15157990E+03 0.63029197E+03 0.79851771E+03 0.12500000E+03 0.0000E+00 0.9000E+01
        1  1    1    2  502    0 0.48990730E+01 0.13064132E+02 0.18699336E+03 0.18751345E+03 0.32000000E+00 0.0000E+00 0.9000E+01
       -3  1    1    2    0  501 -.45407732E+03 0.13851577E+03 -.21454282E+03 0.52096229E+03 0.50000000E+00 0.0000E+00 0.9000E+01
#aMCatNLO 1  0  0  1  4 0.57677115D+02 0.00000000D+00  -5  6  0 0.00000000D+00 0.00000000D+00 0.00000000D+00 0.00000000D+00 0.00000000D+00
  <mgrwgt>
 0.1587897265D-02    7    2    0
 0.690603124883151D+03 0.000000000000000D+00 0.000000000000000D+00 0.690603124883151D+03
 0.690603124883151D+03 0.000000000000000D+00 0.000000000000000D+00 -.690603124883151D+03
 0.596393546532140D+03 0.449290302061404D+03 -.151589887489019D+03 0.339439232897175D+03
 0.122734103329459D+03 0.488895025388468D+01 0.130371381401628D+02 0.121941753778662D+03
 0.662078599904702D+03 -.454179252315289D+03 0.138552749348856D+03 -.461380986675837D+03
 0.000000000000000D+00 0.000000000000000D+00 0.000000000000000D+00 0.000000000000000D+00
 0.742320744401018D+03 0.000000000000000D+00 0.000000000000000D+00 0.742320744401018D+03
 0.707475167873907D+03 0.000000000000000D+00 0.000000000000000D+00 -.707475167873907D+03
 0.580655303219699D+03 0.425696059824450D+03 -.158428068779733D+03 0.339439232897175D+03
 0.122493433952044D+03 -.266978256417767D-01 0.116124645951694D+02 0.121941753778662D+03
 0.679261243261057D+03 -.481066749115785D+03 0.130760103341037D+03 -.461380986675837D+03
 0.673859318421248D+02 0.553973871169770D+02 0.160555008435268D+02 0.348455765271116D+02
0.189333219533D-03 0.000000000000D+00 0.000000000000D+00 0.143107825536D-04 0.000000000000D+00  6 2 -4 25 1 -3 21 0 0.16228738D+00 0.69557764D-01 0.23967881D+06 0.23967881D+06 0.23967881D+06 0.10918393D+01  1  2  2  1  6  1        2 0.501286293182D-03 0.100000000000D+01
0.957116623584D-04 0.000000000000D+00 -.727089415587D-06 0.143107825536D-04 0.000000000000D+00  6 2 -4 25 1 -3 21 2 0.16228738D+00 0.69557764D-01 0.23967881D+06 0.23967881D+06 0.23967881D+06 0.10918393D+01  1  2  3  1  6  1        2 0.302093436113D-03 0.100000000000D+01
-.134838333222D-03 0.000000000000D+00 0.000000000000D+00 0.143107825536D-04 0.000000000000D+00  6 2 -4 25 1 -3 21 2 0.16228738D+00 0.69557764D-01 0.23967881D+06 0.23967881D+06 0.23967881D+06 0.10918393D+01  1  2 15  1  6  1        2 -.425588422552D-03 0.100000000000D+01
-.432845894229D-05 0.000000000000D+00 0.000000000000D+00 0.143107825536D-04 0.000000000000D+00  6 2 -4 25 1 -3 21 2 0.16228738D+00 0.69557764D-01 0.23967881D+06 0.23967881D+06 0.23967881D+06 0.10918393D+01  1  2  4  1  6  1        2 -.136618569016D-04 0.100000000000D+01
-.303955323261D-02 0.000000000000D+00 -.551011006386D-03 0.143107825536D-04 0.000000000000D+00  6 2 -4 25 1 -3 21 2 0.17687753D+00 0.69557764D-01 0.23967881D+06 0.23967881D+06 0.23967881D+06 0.10918393D+01  1  2  5  1  6  1        2 -.842481498504D-02 0.100000000000D+01
0.307761311710D-02 0.000000000000D+00 0.548975441143D-03 0.143107825536D-04 0.000000000000D+00  6 2 -4 25 1 -3 21 2 0.16228738D+00 0.69557764D-01 0.23967881D+06 0.23967881D+06 0.23967881D+06 0.10918393D+01  1  2  6  1  6  1        2 0.971382900121D-02 0.100000000000D+01
-.419493173255D-04 0.000000000000D+00 -.785325098160D-05 0.143107825536D-04 0.000000000000D+00  6 21 -4 25 1 -3 -2 2 0.17687753D+00 0.69557764D-01 0.23967881D+06 0.23967881D+06 0.23967881D+06 0.10918393D+01  1  2  5  5  6  1        2 -.652462012872D-04 0.100000000000D+01
  </mgrwgt>
  </event>
  <event>
  5     66 0.18614916E-05 0.10014570E+03 0.75467711E-02 0.93924756E-01
        2 -1    0    0  502    0 0.00000000E+00 0.00000000E+00 0.24058894E+04 0.24058894E+04 0.32000000E+00 0.0000E+00 0.9000E+01
       -4 -1    0    0    0  501 0.00000000E+00 0.00000000E+00 -.19169762E+04 0.19169769E+04 0.15500000E+01 0.0000E+00 0.9000E+01
       25  1    1    2    0    0 -.28679740E+03 0.40151993E+03 -.48784857E+03 0.70504768E+03 0.12500000E+03 0.0000E+00 0.9000E+01
        1  1    1    2  502    0 0.99198827E+02 -.13740579E+02 0.22610212E+04 0.22632380E+04 0.32000000E+00 0.0000E+00 0.9000E+01
       -3  1    1    2    0  501 0.18759857E+03 -.38777935E+03 -.12842594E+04 0.13545806E+04 0.50000000E+00 0.0000E+00 0.9000E+01
#aMCatNLO 1  0  0  1  4 0.16876033D+02 0.00000000D+00  -5  6  0 0.00000000D+00 0.00000000D+00 0.00000000D+00 0.00000000D+00 0.00000000D+00
  <mgrwgt>
 0.6507403094D-02    7    2    0
 0.214756472011286D+04 0.000000000000000D+00 0.000000000000000D+00 0.214756472011286D+04
 0.214756472011286D+04 0.000000000000000D+00 0.000000000000000D+00 -.214756472011286D+04
 0.765132766837087D+03 -.286801519739198D+03 0.401527839963170D+03 -.571247260735292D+03
 0.202047714267607D+04 0.991985848674877D+02 -.137405450827214D+02 0.201799373692229D+04
 0.150951953071256D+04 0.187602934871710D+03 -.387787294880448D+03 -.144674647618699D+04
 0.000000000000000D+00 -.000000000000000D+00 -.000000000000000D+00 0.000000000000000D+00
 0.230934649869991D+04 0.000000000000000D+00 0.000000000000000D+00 0.230934649869991D+04
 0.214802144186881D+04 0.000000000000000D+00 0.000000000000000D+00 -.214802144186881D+04
 0.764479877616516D+03 -.283908245276178D+03 0.402339606113032D+03 -.571247260735292D+03
 0.202085342556472D+04 0.106842793727889D+03 -.115958090493217D+02 0.201799373692229D+04
 0.150982929080651D+04 0.193314057143043D+03 -.386184925040721D+03 -.144674647618699D+04
 0.162205346580974D+03 -.162486055947543D+02 -.455887202298932D+01 0.161325056831101D+03
0.305308882407D-01 0.000000000000D+00 0.000000000000D+00 0.123636112874D-02 0.000000000000D+00  6 2 -4 25 1 -3 21 0 0.37013688D+00 0.29491947D+00 0.27037495D+06 0.27037495D+06 0.27037495D+06 0.10879085D+01  1  2  2  1  6  1        2 0.104784515403D-03 0.100000000000D+01
0.893384796144D-02 0.000000000000D+00 -.117246649812D-03 0.123636112874D-02 0.000000000000D+00  6 2 -4 25 1 -3 21 2 0.37013688D+00 0.29491947D+00 0.27037495D+06 0.27037495D+06 0.27037495D+06 0.10879085D+01  1  2  3  1  6  1        2 0.362894990289D-04 0.100000000000D+01
-.189681379359D-01 0.000000000000D+00 0.000000000000D+00 0.123636112874D-02 0.000000000000D+00  6 2 -4 25 1 -3 21 2 0.37013688D+00 0.29491947D+00 0.27037495D+06 0.27037495D+06 0.27037495D+06 0.10879085D+01  1  2 15  1  6  1        2 -.770490192105D-04 0.100000000000D+01
-.852290674380D+00 0.000000000000D+00 0.000000000000D+00 0.123636112874D-02 0.000000000000D+00  6 2 -4 25 1 -3 21 2 0.37013688D+00 0.29491947D+00 0.27037495D+06 0.27037495D+06 0.27037495D+06 0.10879085D+01  1  2  4  1  6  1        2 -.346202462072D-02 0.100000000000D+01
-.115475476973D+02 0.000000000000D+00 -.785151701822D-01 0.123636112874D-02 0.000000000000D+00  6 2 -4 25 1 -3 21 2 0.39804488D+00 0.29491947D+00 0.27037495D+06 0.27037495D+06 0.27037495D+06 0.10879085D+01  1  2  5  1  6  1        2 -.368444569179D-01 0.100000000000D+01
0.115230042927D+02 0.000000000000D+00 0.783081846333D-01 0.123636112874D-02 0.000000000000D+00  6 2 -4 25 1 -3 21 2 0.37013688D+00 0.29491947D+00 0.27037495D+06 0.27037495D+06 0.27037495D+06 0.10879085D+01  1  2  6  1  6  1        2 0.468067125046D-01 0.100000000000D+01
-.166539174707D+00 0.000000000000D+00 -.962714095465D-03 0.123636112874D-02 0.000000000000D+00  6 21 -4 25 1 -3 -2 2 0.39804488D+00 0.29491947D+00 0.27037495D+06 0.27037495D+06 0.27037495D+06 0.10879085D+01  1  2  5  5  6  1        2 -.568528675990D-04 0.100000000000D+01
  </mgrwgt>
  </event>
  <event>
  5     66 0.18614916E-05 0.17886739E+02 0.75467711E-02 0.93629659E-01
        2 -1    0    0  502    0 0.00000000E+00 0.00000000E+00 0.37161936E+04 0.37161936E+04 0.32000000E+00 0.0000E+00 0.9000E+01
       -4 -1    0    0    0  501 0.00000000E+00 0.00000000E+00 -.15474161E+03 0.15474937E+03 0.15500000E+01 0.0000E+00 0.9000E+01
       25  1    1    2    0    0 -.43137696E+03 -.25496684E+03 0.90108626E+03 0.10385931E+04 0.12500000E+03 0.0000E+00 0.9000E+01
        1  1    1    2  502    0 0.42170316E+03 0.27001219E+03 0.27222550E+04 0.27679257E+04 0.32000000E+00 0.0000E+00 0.9000E+01
       -3  1    1    2    0  501 0.96737939E+01 -.15045344E+02 -.61889287E+02 0.64424207E+02 0.50000000E+00 0.0000E+00 0.9000E+01
#aMCatNLO 1  0  0  5  2 0.32443441D+00 0.00000000D+00  -5  6  0 0.00000000D+00 0.00000000D+00 0.00000000D+00 0.00000000D+00 0.00000000D+00
  <mgrwgt>
 0.1503144734D-01    6    2    0
 0.758330295334721D+03 0.000000000000000D+00 0.000000000000000D+00 0.758330295334721D+03
 0.758330295334721D+03 -.000000000000000D+00 -.000000000000000D+00 -.758330295334721D+03
 0.534836549409395D+03 -.431378760473397D+03 -.254968304577147D+03 -.139027562942167D+03
 0.672072293395456D+03 0.421704687560646D+03 0.270013162532485D+03 0.448262441097190D+03
 0.309751747864591D+03 0.967407291275141D+01 -.150448579553380D+02 -.309234878155022D+03
 0.000000000000000D+00 0.000000000000000D+00 0.000000000000000D+00 -.000000000000000D+00
 0.758330295334721D+03 0.000000000000000D+00 0.000000000000000D+00 0.758330295334721D+03
 0.758330295334721D+03 -.000000000000000D+00 -.000000000000000D+00 -.758330295334721D+03
 0.535650397066391D+03 -.431281074960851D+03 -.255120222458458D+03 -.142150112032112D+03
 0.669468960673964D+03 0.421827107684905D+03 0.269822778048414D+03 0.444349242121893D+03
 0.158233284701380D+03 -.201975872749103D+02 -.345149176716484D+02 -.153096539195959D+03
 0.153307948227706D+03 0.296515545508559D+02 0.198123620816925D+02 -.149102590893823D+03
0.572188269076D-02 0.000000000000D+00 0.000000000000D+00 0.318352166235D-04 0.000000000000D+00  6 2 -4 25 1 -3 21 0 0.57172269D+00 0.23807000D-01 0.26784712D+06 0.26784712D+06 0.26784712D+06 0.10882133D+01  1  2  2  4  6  5       -3 0.383674788906D-02 0.100000000000D+01
0.380253101480D-02 0.000000000000D+00 -.219735361388D-04 0.318352166235D-04 0.000000000000D+00  6 2 -4 25 1 -3 21 2 0.57172269D+00 0.23807000D-01 0.26784712D+06 0.26784712D+06 0.26784712D+06 0.10882133D+01  1  2  3  4  6  5       -3 0.301943138438D-02 0.100000000000D+01
-.381812083885D-02 0.000000000000D+00 0.000000000000D+00 0.318352166235D-04 0.000000000000D+00  6 2 -4 25 1 -3 21 2 0.57172269D+00 0.23807000D-01 0.26784712D+06 0.26784712D+06 0.26784712D+06 0.10882133D+01  1  2 15  4  6  5       -3 -.303181061385D-02 0.100000000000D+01
-.840587473768D-03 0.000000000000D+00 0.000000000000D+00 0.318352166235D-04 0.000000000000D+00  6 2 -4 25 1 -3 21 2 0.57172269D+00 0.23807000D-01 0.26784712D+06 0.26784712D+06 0.26784712D+06 0.10882133D+01  1  2  4  4  6  5       -3 -.667475476131D-03 0.100000000000D+01
-.198598838582D-01 0.000000000000D+00 0.000000000000D+00 0.318352166235D-04 0.000000000000D+00  6 2 -4 25 1 -3 21 2 0.57172269D+00 0.23807000D-01 0.26784712D+06 0.26784712D+06 0.26784712D+06 0.10882133D+01  1  2  5  4  6  5       -3 -.157699059858D-01 0.100000000000D+01
0.348141433645D-01 0.000000000000D+00 -.000000000000D+00 0.318352166235D-04 0.000000000000D+00  6 2 -4 25 1 -3 21 2 0.57172269D+00 0.23807000D-01 0.26784712D+06 0.26784712D+06 0.26784712D+06 0.10882133D+01  1  2  6  4  6  5       -3 0.276444601466D-01 0.100000000000D+01
  </mgrwgt>
  </event>
  <event>
  5     66 -.18614916E-05 0.39254198E+02 0.75467711E-02 0.90115071E-01
        2 -1    0    0  502    0 0.00000000E+00 0.00000000E+00 0.10900576E+04 0.10900577E+04 0.32000000E+00 0.0000E+00 0.9000E+01
       -4 -1    0    0    0  501 0.00000000E+00 0.00000000E+00 -.85022365E+03 0.85022506E+03 0.15500000E+01 0.0000E+00 0.9000E+01
       25  1    1    2    0    0 0.55394183E+03 0.50916744E+03 0.10155639E+03 0.76944248E+03 0.12500000E+03 0.0000E+00 0.9000E+01
        1  1    1    2  502    0 -.53900059E+03 -.47287204E+03 0.45662624E+03 0.85008071E+03 0.32000000E+00 0.0000E+00 0.9000E+01
       -3  1    1    2    0  501 -.14941236E+02 -.36295408E+02 -.31834863E+03 0.32075956E+03 0.50000000E+00 0.0000E+00 0.9000E+01
#aMCatNLO 1  0  0  1  1 0.16496423D+03 0.00000000D+00  -5  6  0 0.00000000D+00 0.00000000D+00 0.00000000D+00 0.00000000D+00 0.00000000D+00
  <mgrwgt>
 -.7134970904D-03    1    2    0
 0.962701515926225D+03 0.000000000000000D+00 0.000000000000000D+00 0.962701515926225D+03
 0.962701515926225D+03 0.000000000000000D+00 0.000000000000000D+00 -.962701515926225D+03
 0.762719716821144D+03 0.553926035731900D+03 0.509155538786377D+03 0.655367753414788D+01
 0.799745564057600D+03 -.538983158310119D+03 -.472856744019506D+03 0.354255023850232D+03
 0.362937750973707D+03 -.149428774217810D+02 -.362987947668711D+02 -.360808701384380D+03
 0.000000000000000D+00 -.000000000000000D+00 -.000000000000000D+00 -.000000000000000D+00
 0.278750047804417D+04 0.000000000000000D+00 0.000000000000000D+00 0.278750047804417D+04
 0.428647121635250D+04 0.000000000000000D+00 0.000000000000000D+00 -.428647121635250D+04
 0.258216595370039D+04 0.143207044196077D+04 0.214501452466469D+04 0.655367753414788D+01
 0.434512715793021D+03 -.214949062363427D+03 0.130773005057549D+03 0.354255023850232D+03
 0.623521017387001D+03 0.244035555546994D+03 0.446141443667261D+03 -.360808701384380D+03
 0.343377200751626D+04 -.146115693514434D+04 -.272192897338950D+04 -.149897073830834D+04
-.146000098424D-02 0.000000000000D+00 0.000000000000D+00 0.466325945544D-05 0.000000000000D+00  6 2 -4 25 1 -3 21 2 0.16770129D+00 0.13080375D+00 0.57680294D+06 0.57680294D+06 0.57680294D+06 0.10641520D+01  1  2 14  1  6  1        2 -.713497090433D-03 0.100000000000D+01
  </mgrwgt>
  </event>
  <event>
  5     66 0.18614916E-05 0.10156697E+03 0.75467711E-02 0.91442539E-01
        2 -1    0    0  502    0 0.00000000E+00 0.00000000E+00 0.96944643E+03 0.96944648E+03 0.32000000E+00 0.0000E+00 0.9000E+01
       -4 -1    0    0    0  501 0.00000000E+00 0.00000000E+00 -.76711702E+03 0.76711859E+03 0.15500000E+01 0.0000E+00 0.9000E+01
       25  1    1    2    0    0 -.37545510E+00 -.57894271E+03 0.47185953E+03 0.75726562E+03 0.12500000E+03 0.0000E+00 0.9000E+01
        1  1    1    2  502    0 0.81643369E+02 0.63984475E+03 0.47130468E+02 0.64675214E+03 0.32000000E+00 0.0000E+00 0.9000E+01
       -3  1    1    2    0  501 -.81267914E+02 -.60902044E+02 -.31666059E+03 0.33254731E+03 0.50000000E+00 0.0000E+00 0.9000E+01
#aMCatNLO 1  0  0  5  5 0.38424157D+02 0.00000000D+00  -5  6  0 0.00000000D+00 0.00000000D+00 0.00000000D+00 0.00000000D+00 0.00000000D+00
  <mgrwgt>
 0.3801445915D-03    6    2    0
 0.862368981039283D+03 0.000000000000000D+00 0.000000000000000D+00 0.862368981039283D+03
 0.862368981039283D+03 -.000000000000000D+00 -.000000000000000D+00 -.862368981039283D+03
 0.707091662168546D+03 -.358980262711590D+00 -.578885624690657D+03 0.386322305035518D+03
 0.645606385276063D+03 0.816368203615887D+02 0.639793434443997D+03 -.284147059254207D+02
 0.372039914633957D+03 -.812778400988771D+02 -.609078097533405D+02 -.357907599110098D+03
 0.000000000000000D+00 0.000000000000000D+00 -.000000000000000D+00 0.000000000000000D+00
 0.862368981039283D+03 0.000000000000000D+00 0.000000000000000D+00 0.862368981039283D+03
 0.862368981039283D+03 -.000000000000000D+00 -.000000000000000D+00 -.862368981039283D+03
 0.705722968460367D+03 -.112695668684303D+01 -.579461129180923D+03 0.382940514896907D+03
 0.645140419442819D+03 0.809351974493842D+02 0.639267653803135D+03 -.315043078597522D+02
 0.234157246862326D+03 -.233576722242037D+02 -.126581346615367D+02 -.232645238578617D+03
 0.139717327313053D+03 -.564505685383374D+02 -.471483899606747D+02 -.118790968458538D+03
0.248154414420D-03 0.000000000000D+00 0.000000000000D+00 0.129515338322D-06 0.000000000000D+00  6 2 -4 25 1 -3 21 0 0.14914573D+00 0.11801813D+00 0.44807995D+06 0.44807995D+06 0.44807995D+06 0.10718919D+01  1  2  2  4  6  5       -3 0.175200762917D-03 0.100000000000D+01
0.398156598526D-04 0.000000000000D+00 -.952978291931D-06 0.129515338322D-06 0.000000000000D+00  6 2 -4 25 1 -3 21 2 0.14914573D+00 0.11801813D+00 0.44807995D+06 0.44807995D+06 0.44807995D+06 0.10718919D+01  1  2  3  4  6  5       -3 0.322975719380D-04 0.100000000000D+01
-.146749390509D-03 0.000000000000D+00 0.000000000000D+00 0.129515338322D-06 0.000000000000D+00  6 2 -4 25 1 -3 21 2 0.14914573D+00 0.11801813D+00 0.44807995D+06 0.44807995D+06 0.44807995D+06 0.10718919D+01  1  2 15  4  6  5       -3 -.119039820371D-03 0.100000000000D+01
-.394577157632D-03 0.000000000000D+00 0.000000000000D+00 0.129515338322D-06 0.000000000000D+00  6 2 -4 25 1 -3 21 2 0.14914573D+00 0.11801813D+00 0.44807995D+06 0.44807995D+06 0.44807995D+06 0.10718919D+01  1  2  4  4  6  5       -3 -.320072157058D-03 0.100000000000D+01
-.145414227024D-02 0.000000000000D+00 0.000000000000D+00 0.129515338322D-06 0.000000000000D+00  6 2 -4 25 1 -3 21 2 0.14914573D+00 0.11801813D+00 0.44807995D+06 0.44807995D+06 0.44807995D+06 0.10718919D+01  1  2  5  4  6  5       -3 -.117956765642D-02 0.100000000000D+01
0.220830291755D-02 0.000000000000D+00 -.000000000000D+00 0.129515338322D-06 0.000000000000D+00  6 2 -4 25 1 -3 21 2 0.14914573D+00 0.11801813D+00 0.44807995D+06 0.44807995D+06 0.44807995D+06 0.10718919D+01  1  2  6  4  6  5       -3 0.179132589048D-02 0.100000000000D+01
  </mgrwgt>
  </event>
  <event>
  5     66 0.18614916E-05 0.16806581E+03 0.75467711E-02 0.91695843E-01
        2 -1    0    0  502    0 0.00000000E+00 0.00000000E+00 0.16161281E+04 0.16161282E+04 0.32000000E+00 0.0000E+00 0.9000E+01
       -4 -1    0    0    0  501 0.00000000E+00 0.00000000E+00 -.89016115E+03 0.89016250E+03 0.15500000E+01 0.0000E+00 0.9000E+01
       25  1    1    2    0    0 -.11381818E+03 0.56179790E+03 0.39049014E+03 0.70475458E+03 0.12500000E+03 0.0000E+00 0.9000E+01
        1  1    1    2  502    0 -.28947986E+02 -.47315484E+03 0.10050306E+04 0.11112156E+04 0.32000000E+00 0.0000E+00 0.9000E+01
       -3  1    1    2    0  501 0.14276617E+03 -.88643059E+02 -.66955381E+03 0.69032045E+03 0.50000000E+00 0.0000E+00 0.9000E+01
#aMCatNLO 1  0  0  1  5 0.84043657D+02 0.00000000D+00  -5  6  0 0.00000000D+00 0.00000000D+00 0.00000000D+00 0.00000000D+00 0.00000000D+00
  <mgrwgt>
 0.7129931411D-03    7    2    0
 0.119942328100119D+04 0.000000000000000D+00 0.000000000000000D+00 0.119942328100119D+04
 0.119942328100119D+04 0.000000000000000D+00 0.000000000000000D+00 -.119942328100119D+04
 0.618159620714577D+03 -.113835844270462D+03 0.561769371291687D+03 0.194815016669053D+03
 0.856760642288014D+03 -.289455511367174D+02 -.473115054068388D+03 0.713696783555193D+03
 0.923926298999791D+03 0.142781395407179D+03 -.886543172232989D+02 -.908511800224247D+03
 0.000000000000000D+00 0.000000000000000D+00 0.000000000000000D+00 0.000000000000000D+00
 0.126171819931283D+04 0.000000000000000D+00 0.000000000000000D+00 0.126171819931283D+04
 0.122884439127956D+04 0.000000000000000D+00 0.000000000000000D+00 -.122884439127956D+04
 0.615153865030182D+03 -.133977656219964D+03 0.553973261607104D+03 0.194815016669053D+03
 0.864215246732745D+03 -.570516029450705D+02 -.483993810321691D+03 0.713696783555193D+03
 0.920949234701610D+03 0.112651881297787D+03 -.100316276799176D+03 -.908511800224247D+03
 0.902442441278448D+02 0.783773778672470D+02 0.303368255137636D+02 0.328738080332699D+02
0.134358175157D-02 0.000000000000D+00 0.000000000000D+00 0.901519175172D-05 0.000000000000D+00  6 2 -4 25 1 -3 21 0 0.24863520D+00 0.13694798D+00 0.37744078D+06 0.37744078D+06 0.37744078D+06 0.10772498D+01  1  2  2  1  6  1        2 0.256681059892D-03 0.100000000000D+01
0.219788849009D-03 0.000000000000D+00 -.515970769924D-05 0.901519175172D-05 0.000000000000D+00  6 2 -4 25 1 -3 21 2 0.24863520D+00 0.13694798D+00 0.37744078D+06 0.37744078D+06 0.37744078D+06 0.10772498D+01  1  2  3  1  6  1        2 0.487268376295D-04 0.100000000000D+01
-.905575870369D-03 0.000000000000D+00 0.000000000000D+00 0.901519175172D-05 0.000000000000D+00  6 2 -4 25 1 -3 21 2 0.24863520D+00 0.13694798D+00 0.37744078D+06 0.37744078D+06 0.37744078D+06 0.10772498D+01  1  2 15  1  6  1        2 -.200764727581D-03 0.100000000000D+01
-.416951115988D-03 0.000000000000D+00 0.000000000000D+00 0.901519175172D-05 0.000000000000D+00  6 2 -4 25 1 -3 21 2 0.24863520D+00 0.13694798D+00 0.37744078D+06 0.37744078D+06 0.37744078D+06 0.10772498D+01  1  2  4  1  6  1        2 -.924373980744D-04 0.100000000000D+01
-.239115892440D-01 0.000000000000D+00 -.473963113572D-02 0.901519175172D-05 0.000000000000D+00  6 2 -4 25 1 -3 21 2 0.26476808D+00 0.13694798D+00 0.37744078D+06 0.37744078D+06 0.37744078D+06 0.10772498D+01  1  2  5  1  6  1        2 -.464492344995D-02 0.100000000000D+01
0.241711270995D-01 0.000000000000D+00 0.473028025993D-02 0.901519175172D-05 0.000000000000D+00  6 2 -4 25 1 -3 21 2 0.24863520D+00 0.13694798D+00 0.37744078D+06 0.37744078D+06 0.37744078D+06 0.10772498D+01  1  2  6  1  6  1        2 0.535870036541D-02 0.100000000000D+01
-.250625235018D-03 0.000000000000D+00 -.509631129910D-04 0.901519175172D-05 0.000000000000D+00  6 21 -4 25 1 -3 -2 2 0.26476808D+00 0.13694798D+00 0.37744078D+06 0.37744078D+06 0.37744078D+06 0.10772498D+01  1  2  5  5  6  1        2 -.129895462105D-04 0.100000000000D+01
  </mgrwgt>
  </event>
  <event>
  6     66 0.18614916E-05 0.18896156E+02 0.75467711E-02 0.93995662E-01
        2 -1    0    0  502    0 0.00000000E+00 0.00000000E+00 0.13154746E+04 0.13154747E+04 0.32000000E+00 0.0000E+00 0.9000E+01
       21 -1    0    0  503  501 0.00000000E+00 0.00000000E+00 -.34739764E+03 0.34739845E+03 0.75000000E+00 0.0000E+00 0.9000E+01
       25  1    1    2    0    0 0.27682313E+03 0.41465337E+03 -.26642648E+02 0.51468757E+03 0.12500000E+03 0.0000E+00 0.9000E+01
        1  1    1    2  502    0 -.29191650E+02 0.23683870E+02 0.21817940E+03 0.22139429E+03 0.32000000E+00 0.0000E+00 0.9000E+01
        4  1    1    2  503    0 -.17906137E+03 -.26935233E+03 0.48857865E+03 0.58593955E+03 0.15500000E+01 0.0000E+00 0.9000E+01
       -3  1    1    2    0  501 -.68570110E+02 -.16898491E+03 0.28796159E+03 0.34085170E+03 0.50000000E+00 0.0000E+00 0.9000E+01
#aMCatNLO 2  0  0  2  5 0.13286546D+02 0.00000000D+00  -5  6  0 0.00000000D+00 0.00000000D+00 0.00000000D+00 0.00000000D+00 0.00000000D+00
  <mgrwgt>
 0.4218756093D-02    1    2    0
 0.454217346786018D+03 0.000000000000000D+00 0.000000000000000D+00 0.454217346786018D+03
 0.454217346786018D+03 0.000000000000000D+00 0.000000000000000D+00 -.454217346786018D+03
 0.446724065096492D+03 0.177918637714044D+03 0.265905537564811D+03 -.285616165128451D+03
 0.145836557972898D+03 -.563479266436052D+02 -.172548994375140D+02 0.133399704833821D+03
 0.000000000000000D+00 -.000000000000000D+00 -.000000000000000D+00 0.000000000000000D+00
 0.315874070502646D+03 -.121570711070439D+03 -.248650638127297D+03 0.152216460294630D+03
 0.815008101849070D+03 0.000000000000000D+00 0.000000000000000D+00 0.815008101849070D+03
 0.560719939073333D+03 0.000000000000000D+00 0.000000000000000D+00 -.560719939073333D+03
 0.588104983123746D+03 0.276863929116033D+03 0.414743586022414D+03 -.285616165128451D+03
 0.138581520018659D+03 -.291532613457298D+02 0.236525642127685D+02 0.133399704833821D+03
 0.411431796891965D+03 -.179061371206466D+03 -.269352332656600D+03 0.254288162775738D+03
 0.237609740888032D+03 -.686492965638379D+02 -.169043817578583D+03 0.152216460294630D+03
0.502844510983D-04 0.000000000000D+00 0.000000000000D+00 0.805418622103D-07 0.153129876954D-11  6 2 21 25 1 4 -3 2 0.20238029D+00 0.53445728D-01 0.27959004D+06 0.27959004D+06 0.27959004D+06 0.10868230D+01  1  2  1  6  5  2       -4 0.421875609267D-02 0.100000000000D+01
  </mgrwgt>
  </event>
  <event>
  5     66 0.18614916E-05 0.14062655E+03 0.75467711E-02 0.92505740E-01
        2 -1    0    0  502    0 0.00000000E+00 0.00000000E+00 0.24097461E+04 0.24097462E+04 0.32000000E+00 0.0000E+00 0.9000E+01
       -4 -1    0    0    0  501 0.00000000E+00 0.00000000E+00 -.46055351E+03 0.46055612E+03 0.15500000E+01 0.0000E+00 0.9000E+01
       25  1    1    2    0    0 0.50377261E+03 -.31781361E+03 0.24499790E+03 0.65608025E+03 0.12500000E+03 0.0000E+00 0.9000E+01
        1  1    1    2  502    0 -.12899519E+03 0.56029226E+02 0.17492126E+04 0.17548572E+04 0.32000000E+00 0.0000E+00 0.9000E+01
       -3  1    1    2    0  501 -.37477741E+03 0.26178438E+03 -.45017878E+02 0.45936481E+03 0.50000000E+00 0.0000E+00 0.9000E+01
#aMCatNLO 1  0  0  4  1 0.23024031D+02 0.00000000D+00  -5  6  0 0.00000000D+00 0.00000000D+00 0.00000000D+00 0.00000000D+00 0.00000000D+00
  <mgrwgt>
 0.1647385203D-02    7    2    0
 0.105348034048727D+04 0.000000000000000D+00 0.000000000000000D+00 0.105348034048727D+04
 0.105348034048727D+04 -.000000000000000D+00 -.000000000000000D+00 -.105348034048727D+04
 0.667138568644092D+03 0.503812991921967D+03 -.317842506170916D+03 -.273125392840203D+03
 0.772338206995202D+03 -.128984730750903D+03 0.560246814573322D+02 0.759427732101801D+03
 0.667483905335236D+03 -.374828261171064D+03 0.261817824713584D+03 -.486302339261598D+03
 0.000000000000000D+00 0.000000000000000D+00 0.000000000000000D+00 0.000000000000000D+00
 0.105348034048727D+04 0.000000000000000D+00 0.000000000000000D+00 0.105348034048727D+04
 0.105348034048727D+04 -.000000000000000D+00 -.000000000000000D+00 -.105348034048727D+04
 0.666696167925795D+03 0.503681721176985D+03 -.317785488556277D+03 -.272352505665320D+03
 0.644180182502195D+03 -.125479524009479D+03 0.605091658931223D+02 0.628936910529057D+03
 0.667016957599364D+03 -.374959597473571D+03 0.261874870803217D+03 -.485529066101472D+03
 0.129067372947177D+03 -.324259969393503D+01 -.459854814006265D+01 0.128944661237734D+03
0.105794543384D-03 0.000000000000D+00 0.000000000000D+00 0.576887095546D-05 0.000000000000D+00  6 2 -4 25 1 -3 21 0 0.37073038D+00 0.70854589D-01 0.36391565D+06 0.36391565D+06 0.36391565D+06 0.10784001D+01  1  2  2  3  6  4        1 0.461559500278D-04 0.100000000000D+01
0.195207723706D-04 0.000000000000D+00 -.406278902937D-06 0.576887095546D-05 0.000000000000D+00  6 2 -4 25 1 -3 21 2 0.37073038D+00 0.70854589D-01 0.36391565D+06 0.36391565D+06 0.36391565D+06 0.10784001D+01  1  2  3  3  6  4        1 0.990424265928D-05 0.100000000000D+01
-.691978735826D-04 0.000000000000D+00 0.000000000000D+00 0.576887095546D-05 0.000000000000D+00  6 2 -4 25 1 -3 21 2 0.37073038D+00 0.70854589D-01 0.36391565D+06 0.36391565D+06 0.36391565D+06 0.10784001D+01  1  2 15  3  6  4        1 -.351088839343D-04 0.100000000000D+01
0.443522253738D-02 0.000000000000D+00 0.000000000000D+00 0.576887095546D-05 0.000000000000D+00  6 2 -4 25 1 -3 21 2 0.37073038D+00 0.70854589D-01 0.36651989D+06 0.36651989D+06 0.36651989D+06 0.10781750D+01  1  2 12  3  6  4        1 0.224853320580D-02 0.100000000000D+01
-.251062103020D-02 0.000000000000D+00 0.000000000000D+00 0.576887095546D-05 0.000000000000D+00  6 2 -4 25 1 -3 21 2 0.37073038D+00 0.70854589D-01 0.36391565D+06 0.36391565D+06 0.36391565D+06 0.10784001D+01  1  2  4  3  6  4        1 -.127381229781D-02 0.100000000000D+01
-.710271246055D-02 0.000000000000D+00 0.000000000000D+00 0.576887095546D-05 0.000000000000D+00  6 2 -4 25 1 -3 21 2 0.37073038D+00 0.70854589D-01 0.36391565D+06 0.36391565D+06 0.36391565D+06 0.10784001D+01  1  2  5  3  6  4        1 -.360369899370D-02 0.100000000000D+01
0.838720652030D-02 0.000000000000D+00 -.000000000000D+00 0.576887095546D-05 0.000000000000D+00  6 2 -4 25 1 -3 21 2 0.37073038D+00 0.70854589D-01 0.36391565D+06 0.36391565D+06 0.36391565D+06 0.10784001D+01  1  2  6  3  6  4        1 0.425541198029D-02 0.100000000000D+01
  </mgrwgt>
  </event>
  <event>
  6     66 0.18614916E-05 0.40550908E+02 0.75467711E-02 0.93189959E-01
        2 -1    0    0  502    0 0.00000000E+00 0.00000000E+00 0.11120896E+04 0.11120897E+04 0.32000000E+00 0.0000E+00 0.9000E+01
       -4 -1    0    0    0  501 0.00000000E+00 0.00000000E+00 -.47836840E+03 0.47837091E+03 0.15500000E+01 0.0000E+00 0.9000E+01
       25  1    1    2    0    0 0.50235372E+03 -.44280830E+02 0.45609040E+03 0.69134905E+03 0.12500000E+03 0.0000E+00 0.9000E+01
        1  1    1    2  503    0 0.35577230E+02 -.31853044E+02 0.21214778E+03 0.21745606E+03 0.32000000E+00 0.0000E+00 0.9000E+01
       -3  1    1    2    0  501 -.55076774E+03 0.70608599E+02 -.14209706E+03 0.57316882E+03 0.50000000E+00 0.0000E+00 0.9000E+01
       21  1    1    2  502  503 0.12836784E+02 0.55252751E+01 0.10758008E+03 0.10848663E+03 0.75000000E+00 0.0000E+00 0.9000E+01
#aMCatNLO 2  0  0  4  1 0.14641018D+02 0.00000000D+00  -5  6  0 0.00000000D+00 0.00000000D+00 0.00000000D+00 0.00000000D+00 0.00000000D+00
  <mgrwgt>
 0.1360582244D-02    5    2    0
 0.729376830860133D+03 0.000000000000000D+00 0.000000000000000D+00 0.729376830860133D+03
 0.729376830860133D+03 -.000000000000000D+00 -.000000000000000D+00 -.729376830860133D+03
 0.555777629326468D+03 0.502674994895872D+03 -.442873761926926D+02 0.196520357917827D+03
 0.215399885979599D+03 0.486835043384221D+02 -.264743191981311D+02 0.208149315896907D+03
 0.687576146414199D+03 -.551358499234294D+03 0.707616953908237D+02 -.404669673814734D+03
 0.000000000000000D+00 0.000000000000000D+00 0.000000000000000D+00 0.000000000000000D+00
 0.729376830860133D+03 0.000000000000000D+00 0.000000000000000D+00 0.729376830860133D+03
 0.729376830860133D+03 -.000000000000000D+00 -.000000000000000D+00 -.729376830860133D+03
 0.556257027970995D+03 0.502869716242461D+03 -.443932665790635D+02 0.197352901006780D+03
 0.144139382679724D+03 0.353951748451745D+02 -.317389121579750D+02 0.136073453296372D+03
 0.686764480123350D+03 -.551117847150553D+03 0.706308276530296D+02 -.403640751035229D+03
 0.715927709461948D+02 0.128529560629175D+02 0.550135108400891D+01 0.702143967320770D+02
-.171324192741D-02 0.000000000000D+00 0.000000000000D+00 0.242278046487D-05 0.000000000000D+00  6 2 -4 25 1 -3 21 2 0.17109091D+00 0.73595336D-01 0.32331643D+06 0.32331643D+06 0.32331643D+06 0.10821551D+01  1  2 13  3  6  4        1 -.423602057250D-02 0.100000000000D+01
-.874738961399D-06 0.000000000000D+00 0.000000000000D+00 0.242278046487D-05 0.000000000000D+00  6 2 -4 25 1 -3 21 2 0.17109091D+00 0.73595336D-01 0.31988678D+06 0.31988678D+06 0.31988678D+06 0.10824956D+01  1  2  8  3  6  4        1 -.216471268616D-05 0.100000000000D+01
-.391423792880D-06 0.000000000000D+00 0.000000000000D+00 0.242278046487D-05 0.000000000000D+00  6 2 -4 25 1 -3 21 2 0.17109091D+00 0.73595336D-01 0.31988678D+06 0.31988678D+06 0.31988678D+06 0.10824956D+01  1  2  9  3  6  4        1 -.968654750166D-06 0.100000000000D+01
0.541490270182D-06 0.000000000000D+00 0.000000000000D+00 0.242278046487D-05 0.000000000000D+00  6 2 -4 25 1 -3 21 2 0.17109091D+00 0.73595336D-01 0.31988678D+06 0.31988678D+06 0.31988678D+06 0.10824956D+01  1  2 10  3  6  4        1 0.134002360592D-05 0.100000000000D+01
0.226424939737D-02 0.000000000000D+00 0.000000000000D+00 0.242278046487D-05 0.517283519443D-07  6 2 -4 25 1 -3 21 2 0.17109091D+00 0.73595336D-01 0.32331643D+06 0.32331643D+06 0.32331643D+06 0.10821551D+01  1  2  1  3  6  4        1 0.559839616056D-02 0.100000000000D+01
  </mgrwgt>
  </event>
  <event>
  5     66 -.18614916E-05 0.16625989E+02 0.75467711E-02 0.88927373E-01
        4 -1    0    0  502    0 0.00000000E+00 0.00000000E+00 0.11179861E+04 0.11179872E+04 0.15500000E+01 0.0000E+00 0.9000E+01
       -2 -1    0    0    0  501 0.00000000E+00 0.00000000E+00 -.90256372E+03 0.90256378E+03 0.32000000E+00 0.0000E+00 0.9000E+01
       25  1    1    2    0    0 -.24836491E+03 0.81349668E+03 0.27162409E+03 0.90159116E+03 0.12500000E+03 0.0000E+00 0.9000E+01
        3  1    1    2  502    0 0.11189258E+02 -.12338968E+02 0.23390713E+03 0.23449999E+03 0.50000000E+00 0.0000E+00 0.9000E+01
       -1  1    1    2    0  501 0.23717565E+03 -.80115771E+03 -.29010882E+03 0.88445983E+03 0.32000000E+00 0.0000E+00 0.9000E+01
#aMCatNLO 1  0  0  5  2 0.15747688D+02 0.00000000D+00  -5  6  0 0.00000000D+00 0.00000000D+00 0.00000000D+00 0.00000000D+00 0.00000000D+00
  <mgrwgt>
 -.7241526453D-04    6    2    0
 0.100451723014550D+04 0.000000000000000D+00 0.000000000000000D+00 0.100451723014550D+04
 0.100451723014550D+04 -.000000000000000D+00 -.000000000000000D+00 -.100451723014550D+04
 0.877874067889701D+03 -.248411023176248D+03 0.813681624056762D+03 0.176782514152533D+03
 0.210372409884117D+03 0.111685475623854D+02 -.123161294380437D+02 0.209714394693027D+03
 0.920787982517187D+03 0.237242475613863D+03 -.801365494618718D+03 -.386496908845561D+03
 0.000000000000000D+00 0.000000000000000D+00 0.000000000000000D+00 -.000000000000000D+00
 0.100451723014550D+04 0.000000000000000D+00 0.000000000000000D+00 0.100451723014550D+04
 0.100451723014550D+04 -.000000000000000D+00 -.000000000000000D+00 -.100451723014550D+04
 0.873671913015479D+03 -.247287809380303D+03 0.809887595281680D+03 0.174952661977106D+03
 0.210004513931605D+03 0.114381226494653D+02 -.132267090989402D+02 0.209275224019274D+03
 0.870633792624653D+03 0.241581464552452D+03 -.763874741019944D+03 -.340788756968879D+03
 0.547242407192670D+02 -.573177782161437D+01 -.327861451627964D+02 -.434391290275020D+02
0.161261842404D-03 0.000000000000D+00 0.000000000000D+00 0.393389685074D-05 0.000000000000D+00  6 4 -2 25 3 -1 21 0 0.17199795D+00 0.13885604D+00 0.73295991D+06 0.73295991D+06 0.73295991D+06 0.10569650D+01  1  2  2  4  6  5       -1 0.344678400762D-05 0.100000000000D+01
0.112338555449D-03 0.000000000000D+00 -.619287936048D-06 0.393389685074D-05 0.000000000000D+00  6 4 -2 25 3 -1 21 2 0.17199795D+00 0.13885604D+00 0.73295991D+06 0.73295991D+06 0.73295991D+06 0.10569650D+01  1  2  3  4  6  5       -1 0.268245512444D-05 0.100000000000D+01
-.109642981646D-03 0.000000000000D+00 0.000000000000D+00 0.393389685074D-05 0.000000000000D+00  6 4 -2 25 3 -1 21 2 0.17199795D+00 0.13885604D+00 0.73295991D+06 0.73295991D+06 0.73295991D+06 0.10569650D+01  1  2 15  4  6  5       -1 -.261808937102D-05 0.100000000000D+01
-.342839998813D-02 0.000000000000D+00 0.000000000000D+00 0.393389685074D-05 0.000000000000D+00  6 4 -2 25 3 -1 21 2 0.17199795D+00 0.13885604D+00 0.73295991D+06 0.73295991D+06 0.73295991D+06 0.10569650D+01  1  2  4  4  6  5       -1 -.818644060362D-04 0.100000000000D+01
-.406370237523D-02 0.000000000000D+00 0.000000000000D+00 0.393389685074D-05 0.000000000000D+00  6 4 -2 25 3 -1 21 2 0.17199795D+00 0.13885604D+00 0.73295991D+06 0.73295991D+06 0.73295991D+06 0.10569650D+01  1  2  5  4  6  5       -1 -.970343549200D-04 0.100000000000D+01
0.431237956981D-02 0.000000000000D+00 -.000000000000D+00 0.393389685074D-05 0.000000000000D+00  6 4 -2 25 3 -1 21 2 0.17199795D+00 0.13885604D+00 0.73295991D+06 0.73295991D+06 0.73295991D+06 0.10569650D+01  1  2  6  4  6  5       -1 0.102972346665D-03 0.100000000000D+01
  </mgrwgt>
  </event>
  <event>
  5     66 -.18614916E-05 0.11614291E+03 0.75467711E-02 0.92062304E-01
        2 -1    0    0  502    0 0.00000000E+00 0.00000000E+00 0.74018483E+03 0.74018490E+03 0.32000000E+00 0.0000E+00 0.9000E+01
       -4 -1    0    0    0  501 -.00000000E+00 -.00000000E+00 -.18359708E+04 0.18359715E+04 0.15500000E+01 0.0000E+00 0.9000E+01
       25  1    1    2    0    0 0.19962785E+02 -.61957865E+03 -.32825746E+03 0.71249855E+03 0.12500000E+03 0.0000E+00 0.9000E+01
        1  1    1    2  502    0 -.44262288E+02 0.10739146E+03 0.49106720E+03 0.50461785E+03 0.32000000E+00 0.0000E+00 0.9000E+01
       -3  1    1    2    0  501 0.24299502E+02 0.51218719E+03 -.12585958E+04 0.13590400E+04 0.50000000E+00 0.0000E+00 0.9000E+01
#aMCatNLO 1  0  0  4  1 0.86969107D+01 0.00000000D+00  -5  6  0 0.00000000D+00 0.00000000D+00 0.00000000D+00 0.00000000D+00 0.00000000D+00
  <mgrwgt>
 -.4375444503D-02    8    2    0
 0.116574383827175D+04 0.000000000000000D+00 0.000000000000000D+00 0.116574383827175D+04
 0.116574383827175D+04 -.000000000000000D+00 -.000000000000000D+00 -.116574383827175D+04
 0.633036650047343D+03 0.199572696215634D+02 -.619630645393553D+03 -.277483509705141D+02
 0.788286985319273D+03 -.442575309678853D+02 0.107379919949536D+03 0.779684035342526D+03
 0.910164041176879D+03 0.243002613463218D+02 0.512250725444017D+03 -.751935684372012D+03
 0.000000000000000D+00 0.000000000000000D+00 0.000000000000000D+00 0.000000000000000D+00
 0.116574383827175D+04 0.000000000000000D+00 0.000000000000000D+00 0.116574383827175D+04
 0.116574383827175D+04 -.000000000000000D+00 -.000000000000000D+00 -.116574383827175D+04
 0.633025453685477D+03 0.199537462708873D+02 -.619622096857173D+03 -.276862801723263D+02
 0.556497359393233D+03 -.374843547622318D+02 0.817354181403507D+02 0.549184445865979D+03
 0.910097098107857D+03 0.242951957035728D+02 0.512263015969516D+03 -.751846443045309D+03
 0.231867765356927D+03 -.676458721222845D+01 0.256236627473071D+02 0.230348277351656D+03
0.135639213323D-03 0.000000000000D+00 0.000000000000D+00 0.179503643558D-04 0.000000000000D+00  6 2 -4 25 1 -3 21 0 0.11387465D+00 0.28245711D+00 0.39778116D+06 0.39778116D+06 0.39778116D+06 0.10756018D+01  1  2  2  3  6  4        1 0.521328426094D-05 0.100000000000D+01
0.321011473317D-04 0.000000000000D+00 -.520890293786D-06 0.179503643558D-04 0.000000000000D+00  6 2 -4 25 1 -3 21 2 0.11387465D+00 0.28245711D+00 0.39778116D+06 0.39778116D+06 0.39778116D+06 0.10756018D+01  1  2  3  3  6  4        1 0.142741334538D-05 0.100000000000D+01
-.701756077764D-04 0.000000000000D+00 0.000000000000D+00 0.179503643558D-04 0.000000000000D+00  6 2 -4 25 1 -3 21 2 0.11387465D+00 0.28245711D+00 0.39778116D+06 0.39778116D+06 0.39778116D+06 0.10756018D+01  1  2 15  3  6  4        1 -.312043672536D-05 0.100000000000D+01
0.721475264983D-01 0.000000000000D+00 0.000000000000D+00 0.179503643558D-04 0.000000000000D+00  6 2 -4 25 1 -3 21 2 0.11387465D+00 0.28245711D+00 0.39795968D+06 0.39795968D+06 0.39795968D+06 0.10755878D+01  1  2 12  3  6  4        1 0.320796287111D-02 0.100000000000D+01
-.195716538048D+00 0.000000000000D+00 0.000000000000D+00 0.179503643558D-04 0.000000000000D+00  6 2 -4 25 1 -3 21 2 0.11387465D+00 0.28245711D+00 0.39778116D+06 0.39778116D+06 0.39778116D+06 0.10756018D+01  1  2  4  3  6  4        1 -.870275431074D-02 0.100000000000D+01
-.746974345642D-01 0.000000000000D+00 0.000000000000D+00 0.179503643558D-04 0.000000000000D+00  6 2 -4 25 1 -3 21 2 0.11387465D+00 0.28245711D+00 0.39778116D+06 0.39778116D+06 0.39778116D+06 0.10756018D+01  1  2  5  3  6  4        1 -.332150480046D-02 0.100000000000D+01
0.997138101318D-01 0.000000000000D+00 -.000000000000D+00 0.179503643558D-04 0.000000000000D+00  6 2 -4 25 1 -3 21 2 0.11387465D+00 0.28245711D+00 0.39778116D+06 0.39778116D+06 0.39778116D+06 0.10756018D+01  1  2  6  3  6  4        1 0.443388586177D-02 0.100000000000D+01
0.774923435457D-04 0.000000000000D+00 0.000000000000D+00 0.179503643558D-04 0.129956807105D-05  6 2 -4 25 1 -3 21 2 0.11387465D+00 0.28245711D+00 0.39795968D+06 0.39795968D+06 0.39795968D+06 0.10755878D+01  1  2 11  3  6  4        1 0.344561446463D-05 0.100000000000D+01
  </mgrwgt>
  </event>
  <event>
  5     66 0.18614916E-05 0.62082228E+02 0.75467711E-02 0.95192523E-01
        4 -1    0    0  502    0 0.00000000E+00 0.00000000E+00 0.56141637E+03 0.56141851E+03 0.15500000E+01 0.0000E+00 0.9000E+01
       -2 -1    0    0    0  501 0.00000000E+00 0.00000000E+00 -.99825904E+03 0.99825909E+03 0.32000000E+00 0.0000E+00 0.9000E+01
       25  1    1    2    0    0 0.17653741E+03 -.41406120E+03 -.23392454E+03 0.52245366E+03 0.12500000E+03 0.0000E+00 0.9000E+01
        3  1    1    2  502    0 -.21365712E+03 0.36431811E+03 0.30788919E+03 0.52265960E+03 0.50000000E+00 0.0000E+00 0.9000E+01
       -1  1    1    2    0  501 0.37119708E+02 0.49743088E+02 -.51080732E+03 0.51456435E+03 0.32000000E+00 0.0000E+00 0.9000E+01
#aMCatNLO 1  0  0  2  4 0.46172104D+03 0.00000000D+00  -5  6  0 0.00000000D+00 0.00000000D+00 0.00000000D+00 0.00000000D+00 0.00000000D+00
  <mgrwgt>
 0.1617909292D-02    7    4    0
 0.748625857261093D+03 0.000000000000000D+00 0.000000000000000D+00 0.748625857261093D+03
 0.748625857261093D+03 0.000000000000000D+00 0.000000000000000D+00 -.748625857261093D+03
 0.475937361726025D+03 0.176512288929198D+03 -.414045795967700D+03 -.911090719148087D+02
 0.634231179117987D+03 -.213640113762262D+03 0.364289111255120D+03 0.473181290604346D+03
 0.387083173678174D+03 0.371278248330636D+02 0.497566847125797D+02 -.382072218689537D+03
 0.000000000000000D+00 -.000000000000000D+00 -.000000000000000D+00 -.000000000000000D+00
 0.900292146511096D+03 0.000000000000000D+00 0.000000000000000D+00 0.900292146511096D+03
 0.934515040437146D+03 0.000000000000000D+00 0.000000000000000D+00 -.934515040437146D+03
 0.443140566812774D+03 0.235110071246162D+03 -.342302429685495D+03 -.911090719148087D+02
 0.677183769005628D+03 -.130028044240002D+03 0.466658366407154D+03 0.473181290604346D+03
 0.407658806861004D+03 0.877983024146845D+02 0.111794367524000D+03 -.382072218689537D+03
 0.306824044268836D+03 -.192880329420845D+03 -.236150304245659D+03 -.342228939260499D+02
 0.748625857261093D+03 0.000000000000000D+00 0.000000000000000D+00 0.748625857261093D+03
 0.748625857261093D+03 0.000000000000000D+00 0.000000000000000D+00 -.748625857261093D+03
 0.475937361726025D+03 0.176512288929198D+03 -.414045795967700D+03 -.911090719148087D+02
 0.634231179117987D+03 -.213640113762262D+03 0.364289111255120D+03 0.473181290604346D+03
 0.000000000000000D+00 -.000000000000000D+00 -.000000000000000D+00 -.000000000000000D+00
 0.387083173678174D+03 0.371278248330636D+02 0.497566847125797D+02 -.382072218689537D+03
 0.900292146511096D+03 0.000000000000000D+00 0.000000000000000D+00 0.900292146511096D+03
 0.934515040437146D+03 0.000000000000000D+00 0.000000000000000D+00 -.934515040437146D+03
 0.443140566812774D+03 0.235110071246162D+03 -.342302429685495D+03 -.911090719148087D+02
 0.677183769005628D+03 -.130028044240002D+03 0.466658366407154D+03 0.473181290604346D+03
 0.306824044268836D+03 -.192880329420845D+03 -.236150304245659D+03 -.342228939260499D+02
 0.407658806861004D+03 0.877983024146845D+02 0.111794367524000D+03 -.382072218689537D+03
0.784570065251D-02 0.000000000000D+00 0.000000000000D+00 0.200462865426D-04 0.000000000000D+00  6 4 -2 25 3 -1 21 0 0.86371918D-01 0.15357848D+00 0.22635286D+06 0.22635286D+06 0.22635286D+06 0.10937205D+01  1  2  2  2  6  2       -2 0.107126638472D-02 0.100000000000D+01
0.209852616518D-02 0.000000000000D+00 -.301295563261D-04 0.200462865426D-04 0.000000000000D+00  6 4 -2 25 3 -1 21 2 0.86371918D-01 0.15357848D+00 0.22635286D+06 0.22635286D+06 0.22635286D+06 0.10937205D+01  1  2  3  2  6  2       -2 0.342762129794D-03 0.100000000000D+01
-.460530728428D-02 0.000000000000D+00 0.000000000000D+00 0.200462865426D-04 0.000000000000D+00  6 4 -2 25 3 -1 21 2 0.86371918D-01 0.15357848D+00 0.22635286D+06 0.22635286D+06 0.22635286D+06 0.10937205D+01  1  2 15  2  6  2       -2 -.752206457706D-03 0.100000000000D+01
-.199878473773D-03 0.000000000000D+00 0.000000000000D+00 0.200462865426D-04 0.000000000000D+00  6 4 -2 25 3 -1 21 2 0.86371918D-01 0.15357848D+00 0.22635286D+06 0.22635286D+06 0.22635286D+06 0.10937205D+01  1  2  4  2  6  2       -2 -.326470894226D-04 0.100000000000D+01
-.799707662196D-02 0.000000000000D+00 -.508257222813D-02 0.200462865426D-04 0.000000000000D+00  6 4 -2 25 3 -1 21 2 0.86371918D-01 0.21654416D+00 0.22635286D+06 0.22635286D+06 0.22635286D+06 0.10937205D+01  1  2  5  2  6  2       -2 -.465792194380D-03 0.100000000000D+01
0.946508731063D-02 0.000000000000D+00 0.479665559059D-02 0.200462865426D-04 0.000000000000D+00  6 4 -2 25 3 -1 21 2 0.86371918D-01 0.15357848D+00 0.22635286D+06 0.22635286D+06 0.22635286D+06 0.10937205D+01  1  2  6  2  6  2       -2 0.154597714296D-02 0.100000000000D+01
-.200986501381D-03 0.000000000000D+00 -.216649726147D-03 0.200462865426D-04 0.000000000000D+00  6 4 21 25 3 2 -1 2 0.86371918D-01 0.21654416D+00 0.22635286D+06 0.22635286D+06 0.22635286D+06 0.10937205D+01  3  4  5  6  5  2       -2 -.914506236300D-04 0.100000000000D+01
  </mgrwgt>
  </event>
  <event>
  5     66 0.18614916E-05 0.59855672E+02 0.75467711E-02 0.94140986E-01
        2 -1    0    0  502    0 0.00000000E+00 0.00000000E+00 0.17322516E+04 0.17322517E+04 0.32000000E+00 0.0000E+00 0.9000E+01
       -4 -1    0    0    0  501 0.00000000E+00 0.00000000E+00 -.38482600E+03 0.38482912E+03 0.15500000E+01 0.0000E+00 0.9000E+01
       25  1    1    2    0    0 -.51211670E+03 0.48849281E+02 0.14104885E+03 0.54787731E+03 0.12500000E+03 0.0000E+00 0.9000E+01
        1  1    1    2  502    0 0.45277847E+03 -.40991067E+02 0.13441691E+04 0.14189712E+04 0.32000000E+00 0.0000E+00 0.9000E+01
       -3  1    1    2    0  501 0.59338238E+02 -.78582136E+01 -.13779228E+03 0.15023229E+03 0.50000000E+00 0.0000E+00 0.9000E+01
#aMCatNLO 1  0  0  4  1 0.37135699D+01 0.00000000D+00  -5  6  0 0.00000000D+00 0.00000000D+00 0.00000000D+00 0.00000000D+00 0.00000000D+00
  <mgrwgt>
 0.2433285087D-02    4    2    0
 0.816467268164554D+03 0.000000000000000D+00 0.000000000000000D+00 0.816467268164554D+03
 0.816467268164554D+03 -.000000000000000D+00 -.000000000000000D+00 -.816467268164554D+03
 0.593934244375970D+03 -.512117663047133D+03 0.488493295475067D+02 -.269225052401066D+03
 0.730533158375874D+03 0.452780057437902D+03 -.409912114081720D+02 0.571829201475800D+03
 0.308467133577262D+03 0.593376056092317D+02 -.785811813933475D+01 -.302604149074735D+03
 0.000000000000000D+00 0.000000000000000D+00 0.000000000000000D+00 -.000000000000000D+00
 0.816467268164554D+03 0.000000000000000D+00 0.000000000000000D+00 0.816467268164554D+03
 0.816467268164554D+03 -.000000000000000D+00 -.000000000000000D+00 -.816467268164554D+03
 0.484139211004513D+03 -.433671410406290D+03 0.417474113570822D+02 -.170152981382269D+03
 0.521678378626271D+03 0.145319635940819D+02 0.106424462908185D+03 0.510500721306973D+03
 0.269556131647029D+03 0.101397595927857D+03 -.116659050032977D+02 -.249485354898871D+03
 0.357560815051293D+03 0.317741850884350D+03 -.136505969261969D+03 -.908623850258329D+02
0.462021795846D-02 0.000000000000D+00 0.000000000000D+00 0.146821880724D-04 0.000000000000D+00  6 2 -4 25 1 -3 21 0 0.26650049D+00 0.59204242D-01 0.27243087D+06 0.27243087D+06 0.27243087D+06 0.10876629D+01  1  2  2  3  6  4        1 0.748436357444D-02 0.100000000000D+01
0.111939512477D-02 0.000000000000D+00 -.177428534918D-04 0.146821880724D-04 0.000000000000D+00  6 2 -4 25 1 -3 21 2 0.26650049D+00 0.59204242D-01 0.27243087D+06 0.27243087D+06 0.27243087D+06 0.10876629D+01  1  2  3  3  6  4        1 0.214518341871D-02 0.100000000000D+01
-.373816207416D-02 0.000000000000D+00 0.000000000000D+00 0.146821880724D-04 0.000000000000D+00  6 2 -4 25 1 -3 21 2 0.26650049D+00 0.59204242D-01 0.27243087D+06 0.27243087D+06 0.27243087D+06 0.10876629D+01  1  2 15  3  6  4        1 -.716372898227D-02 0.100000000000D+01
-.169762621985D-04 0.000000000000D+00 0.000000000000D+00 0.146821880724D-04 0.000000000000D+00  6 2 -4 25 1 -3 21 2 0.26650049D+00 0.59204242D-01 0.27243087D+06 0.27243087D+06 0.27243087D+06 0.10876629D+01  1  2  4  3  6  4        1 -.325329236959D-04 0.100000000000D+01
  </mgrwgt>
  </event>
  <event>
  5     66 -.18614916E-05 0.41823466E+02 0.75467711E-02 0.90363711E-01
        2 -1    0    0  502    0 0.00000000E+00 0.00000000E+00 0.17883297E+04 0.17883298E+04 0.32000000E+00 0.0000E+00 0.9000E+01
       -4 -1    0    0    0  501 0.00000000E+00 0.00000000E+00 -.88342925E+03 0.88343061E+03 0.15500000E+01 0.0000E+00 0.9000E+01
       25  1    1    2    0    0 -.62013876E+03 0.27560265E+03 0.16641604E+03 0.70982266E+03 0.12500000E+03 0.0000E+00 0.9000E+01
        1  1    1    2  502    0 -.17573505E+02 0.37957919E+02 0.11433175E+04 0.11440824E+04 0.32000000E+00 0.0000E+00 0.9000E+01
       -3  1    1    2    0  501 0.63771227E+03 -.31356057E+03 -.40483306E+03 0.81785526E+03 0.50000000E+00 0.0000E+00 0.9000E+01
#aMCatNLO 1  0  0  2  5 0.50700263D+02 0.00000000D+00  -5  6  0 0.00000000D+00 0.00000000D+00 0.00000000D+00 0.00000000D+00 0.00000000D+00
  <mgrwgt>
 -.9337969246D-02    7    4    0
 0.125692666399860D+04 0.000000000000000D+00 0.000000000000000D+00 0.125692666399860D+04
 0.125692666399860D+04 0.000000000000000D+00 0.000000000000000D+00 -.125692666399860D+04
 0.694577176204366D+03 -.620210213796415D+03 0.275639199519624D+03 -.785797435400343D+02
 0.804294063985672D+03 -.175713484800935D+02 0.379532615170975D+02 0.803205913209928D+03
 0.101498208780717D+04 0.637781562276508D+03 -.313592461036722D+03 -.724626169669893D+03
 0.000000000000000D+00 -.000000000000000D+00 0.000000000000000D+00 -.000000000000000D+00
 0.125944258667760D+04 0.000000000000000D+00 0.000000000000000D+00 0.125944258667760D+04
 0.154149201862098D+04 0.000000000000000D+00 0.000000000000000D+00 -.154149201862098D+04
 0.686153137409893D+03 -.616659842013781D+03 0.262177403927496D+03 -.785797435400343D+02
 0.803627105421780D+03 -.134367844075334D+02 0.222764085521185D+02 0.803205913209928D+03
 0.102458430340533D+04 0.643026046947244D+03 -.333477753323242D+03 -.724626169669893D+03
 0.286570059061586D+03 -.129294205259295D+02 0.490239408436284D+02 -.282049431943383D+03
 0.125692666399860D+04 0.000000000000000D+00 0.000000000000000D+00 0.125692666399860D+04
 0.125692666399860D+04 0.000000000000000D+00 0.000000000000000D+00 -.125692666399860D+04
 0.694577176204366D+03 -.620210213796415D+03 0.275639199519624D+03 -.785797435400343D+02
 0.804294063985672D+03 -.175713484800935D+02 0.379532615170975D+02 0.803205913209928D+03
 0.000000000000000D+00 -.000000000000000D+00 0.000000000000000D+00 -.000000000000000D+00
 0.101498208780717D+04 0.637781562276508D+03 -.313592461036722D+03 -.724626169669893D+03
 0.125944258667760D+04 0.000000000000000D+00 0.000000000000000D+00 0.125944258667760D+04
 0.154149201862098D+04 0.000000000000000D+00 0.000000000000000D+00 -.154149201862098D+04
 0.686153137409893D+03 -.616659842013781D+03 0.262177403927496D+03 -.785797435400343D+02
 0.803627105421780D+03 -.134367844075334D+02 0.222764085521185D+02 0.803205913209928D+03
 0.286570059061586D+03 -.129294205259295D+02 0.490239408436284D+02 -.282049431943383D+03
 0.102458430340533D+04 0.643026046947244D+03 -.333477753323242D+03 -.724626169669893D+03
0.177167185054D-02 0.000000000000D+00 0.000000000000D+00 0.483257193927D-04 0.000000000000D+00  6 2 -4 25 1 -3 21 0 0.27512776D+00 0.13591230D+00 0.52030912D+06 0.52030912D+06 0.52030912D+06 0.10672905D+01  1  2  2  2  6  2       -4 0.274441581492D-03 0.100000000000D+01
0.106733003901D-02 0.000000000000D+00 -.680368639797D-05 0.483257193927D-04 0.000000000000D+00  6 2 -4 25 1 -3 21 2 0.27512776D+00 0.13591230D+00 0.52030912D+06 0.52030912D+06 0.52030912D+06 0.10672905D+01  1  2  3  2  6  2       -4 0.188334822104D-03 0.100000000000D+01
-.127791309178D-02 0.000000000000D+00 0.000000000000D+00 0.483257193927D-04 0.000000000000D+00  6 2 -4 25 1 -3 21 2 0.27512776D+00 0.13591230D+00 0.52030912D+06 0.52030912D+06 0.52030912D+06 0.10672905D+01  1  2 15  2  6  2       -4 -.225493077126D-03 0.100000000000D+01
-.649755977379D-01 0.000000000000D+00 0.000000000000D+00 0.483257193927D-04 0.000000000000D+00  6 2 -4 25 1 -3 21 2 0.27512776D+00 0.13591230D+00 0.52030912D+06 0.52030912D+06 0.52030912D+06 0.10672905D+01  1  2  4  2  6  2       -4 -.114652143141D-01 0.100000000000D+01
-.943404122180D-01 0.000000000000D+00 -.177240558883D-02 0.483257193927D-04 0.000000000000D+00  6 2 -4 25 1 -3 21 2 0.27512776D+00 0.16681002D+00 0.52030912D+06 0.52030912D+06 0.52030912D+06 0.10672905D+01  1  2  5  2  6  2       -4 -.847960464374D-02 0.100000000000D+01
0.927864693255D-01 0.000000000000D+00 0.173585819903D-02 0.483257193927D-04 0.000000000000D+00  6 2 -4 25 1 -3 21 2 0.27512776D+00 0.13591230D+00 0.52030912D+06 0.52030912D+06 0.52030912D+06 0.10672905D+01  1  2  6  2  6  2       -4 0.163725582111D-01 0.100000000000D+01
-.272836911240D-02 0.000000000000D+00 -.516583758524D-04 0.483257193927D-04 0.000000000000D+00  6 2 21 25 1 4 -3 2 0.27512776D+00 0.16681002D+00 0.52030912D+06 0.52030912D+06 0.52030912D+06 0.10672905D+01  3  4  5  6  5  2       -4 -.600299182533D-02 0.100000000000D+01
  </mgrwgt>
  </event>
  <event>
  5     66 0.18614916E-05 0.21206859E+02 0.75467711E-02 0.93908048E-01
        2 -1    0    0  502    0 0.00000000E+00 0.00000000E+00 0.87935632E+03 0.87935638E+03 0.32000000E+00 0.0000E+00 0.9000E+01
       -4 -1    0    0    0  501 0.00000000E+00 0.00000000E+00 -.84125258E+03 0.84125401E+03 0.15500000E+01 0.0000E+00 0.9000E+01
       25  1    1    2    0    0 0.13239132E+03 0.48113909E+03 -.37002878E+03 0.63369440E+03 0.12500000E+03 0.0000E+00 0.9000E+01
        1  1    1    2  502    0 -.11665757E+03 -.49536874E+03 0.66040815E+03 0.83374948E+03 0.32000000E+00 0.0000E+00 0.9000E+01
       -3  1    1    2    0  501 -.15733758E+02 0.14229641E+02 -.25227563E+03 0.25316651E+03 0.50000000E+00 0.0000E+00 0.9000E+01
#aMCatNLO 1  0  0  5  5 0.12846265D+02 0.00000000D+00  -5  6  0 0.00000000D+00 0.00000000D+00 0.00000000D+00 0.00000000D+00 0.00000000D+00
  <mgrwgt>
 0.2704566513D-02    6    2    0
 0.860094210495873D+03 0.000000000000000D+00 0.000000000000000D+00 0.860094210495873D+03
 0.860094210495873D+03 -.000000000000000D+00 -.000000000000000D+00 -.860094210495873D+03
 0.642134609833932D+03 0.132389378103218D+03 0.481157140718845D+03 -.384282078228070D+03
 0.819346656432112D+03 -.116660606512098D+03 -.495381647825748D+03 0.642118578840510D+03
 0.258707154725703D+03 -.157287715911195D+02 0.142245071069032D+02 -.257836500612440D+03
 0.000000000000000D+00 0.000000000000000D+00 0.000000000000000D+00 -.000000000000000D+00
 0.860094210495873D+03 0.000000000000000D+00 0.000000000000000D+00 0.860094210495873D+03
 0.860094210495873D+03 -.000000000000000D+00 -.000000000000000D+00 -.860094210495873D+03
 0.643418768791117D+03 0.132264672858232D+03 0.481269919433526D+03 -.386326329668104D+03
 0.817244380276569D+03 -.116819364203197D+03 -.495238073364626D+03 0.639516117021993D+03
 0.240896205266040D+03 -.274475251177277D+02 0.132174326543965D+02 -.238962161336301D+03
 0.186290666580205D+02 0.120022164626919D+02 0.750721276703403D+00 -.142276260175886D+02
0.175463529785D-02 0.000000000000D+00 0.000000000000D+00 0.456159156394D-04 0.000000000000D+00  6 2 -4 25 1 -3 21 0 0.13528570D+00 0.12942359D+00 0.27279464D+06 0.27279464D+06 0.27279464D+06 0.10876196D+01  1  2  2  4  6  5       -3 0.108790397963D-02 0.100000000000D+01
0.881381473393D-03 0.000000000000D+00 -.673826154984D-05 0.456159156394D-04 0.000000000000D+00  6 2 -4 25 1 -3 21 2 0.13528570D+00 0.12942359D+00 0.27279464D+06 0.27279464D+06 0.27279464D+06 0.10876196D+01  1  2  3  4  6  5       -3 0.646430275900D-03 0.100000000000D+01
-.112590104691D-02 0.000000000000D+00 0.000000000000D+00 0.456159156394D-04 0.000000000000D+00  6 2 -4 25 1 -3 21 2 0.13528570D+00 0.12942359D+00 0.27279464D+06 0.27279464D+06 0.27279464D+06 0.10876196D+01  1  2 15  4  6  5       -3 -.825767895472D-03 0.100000000000D+01
-.740101500135D-04 0.000000000000D+00 0.000000000000D+00 0.456159156394D-04 0.000000000000D+00  6 2 -4 25 1 -3 21 2 0.13528570D+00 0.12942359D+00 0.27279464D+06 0.27279464D+06 0.27279464D+06 0.10876196D+01  1  2  4  4  6  5       -3 -.542811519608D-04 0.100000000000D+01
-.221456303925D-01 0.000000000000D+00 0.000000000000D+00 0.456159156394D-04 0.000000000000D+00  6 2 -4 25 1 -3 21 2 0.13528570D+00 0.12942359D+00 0.27279464D+06 0.27279464D+06 0.27279464D+06 0.10876196D+01  1  2  5  4  6  5       -3 -.162422360769D-01 0.100000000000D+01
0.246684139367D-01 0.000000000000D+00 -.000000000000D+00 0.456159156394D-04 0.000000000000D+00  6 2 -4 25 1 -3 21 2 0.13528570D+00 0.12942359D+00 0.27279464D+06 0.27279464D+06 0.27279464D+06 0.10876196D+01  1  2  6  4  6  5       -3 0.180925173815D-01 0.100000000000D+01
  </mgrwgt>
  </event>
  <event>
  6     66 -.18614916E-05 0.11153541E+03 0.75467711E-02 0.93086498E-01
        2 -1    0    0  502    0 0.00000000E+00 0.00000000E+00 0.26472307E+04 0.26472307E+04 0.32000000E+00 0.0000E+00 0.9000E+01
       -4 -1    0    0    0  501 0.00000000E+00 0.00000000E+00 -.42854198E+03 0.42854478E+03 0.15500000E+01 0.0000E+00 0.9000E+01
       25  1    1    2    0    0 -.14076177E+03 0.46739940E+03 0.56042233E+03 0.75364067E+03 0.12500000E+03 0.0000E+00 0.9000E+01
        1  1    1    2  502    0 0.12829060E+03 0.20470719E+02 0.17869180E+04 0.17916343E+04 0.32000000E+00 0.0000E+00 0.9000E+01
       -3  1    1    2    0  503 -.22548981E+02 -.47685920E+03 -.12570180E+03 0.49366420E+03 0.50000000E+00 0.0000E+00 0.9000E+01
       21  1    1    2  503  501 0.35020156E+02 -.11010926E+02 -.29497658E+01 0.36836333E+02 0.75000000E+00 0.0000E+00 0.9000E+01
#aMCatNLO 2  0  0  5  2 0.37316727D+02 0.00000000D+00  -5  6  0 0.00000000D+00 0.00000000D+00 0.00000000D+00 0.00000000D+00 0.00000000D+00
  <mgrwgt>
 -.8651183204D-03    3    2    0
 0.106510742144592D+04 0.000000000000000D+00 0.000000000000000D+00 0.106510742144592D+04
 0.106510742144592D+04 -.000000000000000D+00 -.000000000000000D+00 -.106510742144592D+04
 0.506490493265218D+03 -.140808360345464D+03 0.469401625748469D+03 0.272532414505155D+02
 0.730005856642169D+03 0.128209666007611D+03 0.232972892396931D+02 0.718281329694824D+03
 0.893718492984451D+03 0.125986943378527D+02 -.492698914988163D+03 -.745534571145340D+03
 0.000000000000000D+00 0.000000000000000D+00 0.000000000000000D+00 -.000000000000000D+00
 0.106510742144592D+04 0.000000000000000D+00 0.000000000000000D+00 0.106510742144592D+04
 0.106510742144592D+04 -.000000000000000D+00 -.000000000000000D+00 -.106510742144592D+04
 0.504503429227328D+03 -.140758097456231D+03 0.467435987855780D+03 0.242789077169248D+02
 0.725719766391735D+03 0.128282039316802D+03 0.204669760376722D+02 0.713998599867164D+03
 0.843701378380970D+03 -.225722051628142D+02 -.476888776413075D+03 -.695628928644632D+03
 0.562902688918029D+02 0.350482633022434D+02 -.110141874803781D+02 -.426485789394579D+02
-.431341468655D-02 0.000000000000D+00 0.000000000000D+00 0.131913557044D-04 0.000000000000D+00  6 2 -4 25 1 -3 21 2 0.40726648D+00 0.65929752D-01 0.32946695D+06 0.32946695D+06 0.32946695D+06 0.10815542D+01  1  2 13  4  6  5       -3 -.192108940753D-02 0.100000000000D+01
-.193724377470D-02 0.000000000000D+00 0.000000000000D+00 0.131913557044D-04 0.000000000000D+00  6 2 -4 25 1 -3 21 2 0.40726648D+00 0.65929752D-01 0.31861841D+06 0.31861841D+06 0.31861841D+06 0.10826225D+01  1  2  8  4  6  5       -3 -.866085051279D-03 0.100000000000D+01
0.431558528362D-02 0.000000000000D+00 0.000000000000D+00 0.131913557044D-04 0.306317754967D-07  6 2 -4 25 1 -3 21 2 0.40726648D+00 0.65929752D-01 0.32946695D+06 0.32946695D+06 0.32946695D+06 0.10815542D+01  1  2  1  4  6  5       -3 0.192205613837D-02 0.100000000000D+01
  </mgrwgt>
  </event>
  <event>
  5     66 0.18614916E-05 0.39584035E+02 0.75467711E-02 0.90929682E-01
        2 -1    0    0  502    0 0.00000000E+00 0.00000000E+00 0.15747863E+04 0.15747863E+04 0.32000000E+00 0.0000E+00 0.9000E+01
       -4 -1    0    0    0  501 0.00000000E+00 0.00000000E+00 -.81860417E+03 0.81860564E+03 0.15500000E+01 0.0000E+00 0.9000E+01
       25  1    1    2    0    0 0.48850596E+03 -.57668665E+02 0.40503139E+03 0.64933749E+03 0.12500000E+03 0.0000E+00 0.9000E+01
        1  1    1    2  502    0 -.50276927E+03 0.94589196E+02 0.98448995E+03 0.11094794E+04 0.32000000E+00 0.0000E+00 0.9000E+01
       -3  1    1    2    0  501 0.14263305E+02 -.36920531E+02 -.63333925E+03 0.63457500E+03 0.50000000E+00 0.0000E+00 0.9000E+01
#aMCatNLO 1  0  0  1  4 0.25822484D+02 0.00000000D+00  -5  6  0 0.00000000D+00 0.00000000D+00 0.00000000D+00 0.00000000D+00 0.00000000D+00
  <mgrwgt>
 0.1134851060D+00    7    2    0
 0.113539789881293D+04 0.000000000000000D+00 0.000000000000000D+00 0.113539789881293D+04
 0.113539789881293D+04 0.000000000000000D+00 0.000000000000000D+00 -.113539789881293D+04
 0.549522641564351D+03 0.488467843618355D+03 -.576578133552948D+02 0.210772094694206D+03
 0.841478351625847D+03 -.502732481807929D+03 0.945822757509077D+02 0.668131769267090D+03
 0.879794804435660D+03 0.142646381895746D+02 -.369244623956130D+02 -.878903863961296D+03
 0.000000000000000D+00 0.000000000000000D+00 0.000000000000000D+00 0.000000000000000D+00
 0.146609249505525D+04 0.000000000000000D+00 0.000000000000000D+00 0.146609249505525D+04
 0.118773046507252D+04 0.000000000000000D+00 0.000000000000000D+00 -.118773046507252D+04
 0.529793805075301D+03 0.457502098102127D+03 -.106411607574245D+03 0.210772094694206D+03
 0.866671898544820D+03 -.551739560422313D+03 0.174234350317190D+02 0.668131769267090D+03
 0.887372483893498D+03 -.364356478158634D+02 -.116749161253765D+03 -.878903863961296D+03
 0.369984772614148D+03 0.130673110136049D+03 0.205737333796291D+03 0.278362029982733D+03
0.195255723781D+00 0.000000000000D+00 0.000000000000D+00 0.148977729967D-03 0.000000000000D+00  6 2 -4 25 1 -3 21 0 0.24227492D+00 0.12593922D+00 0.28017460D+06 0.28017460D+06 0.28017460D+06 0.10867555D+01  1  2  2  1  6  1        2 0.515742105990D-01 0.100000000000D+01
0.110512748766D+00 0.000000000000D+00 -.749833391331D-03 0.148977729967D-03 0.000000000000D+00  6 2 -4 25 1 -3 21 2 0.24227492D+00 0.12593922D+00 0.28017460D+06 0.28017460D+06 0.28017460D+06 0.10867555D+01  1  2  3  1  6  1        2 0.344750492253D-01 0.100000000000D+01
-.136030810093D+00 0.000000000000D+00 0.000000000000D+00 0.148977729967D-03 0.000000000000D+00  6 2 -4 25 1 -3 21 2 0.24227492D+00 0.12593922D+00 0.28017460D+06 0.28017460D+06 0.28017460D+06 0.10867555D+01  1  2 15  1  6  1        2 -.424355463644D-01 0.100000000000D+01
-.118728930743D+00 0.000000000000D+00 0.000000000000D+00 0.148977729967D-03 0.000000000000D+00  6 2 -4 25 1 -3 21 2 0.24227492D+00 0.12593922D+00 0.28017460D+06 0.28017460D+06 0.28017460D+06 0.10867555D+01  1  2  4  1  6  1        2 -.370381315959D-01 0.100000000000D+01
-.682370598330D+00 0.000000000000D+00 -.183983591281D+00 0.148977729967D-03 0.000000000000D+00  6 2 -4 25 1 -3 21 2 0.31800262D+00 0.12593922D+00 0.28017460D+06 0.28017460D+06 0.28017460D+06 0.10867555D+01  1  2  5  1  6  1        2 -.114702479799D+00 0.100000000000D+01
0.712496346368D+00 0.000000000000D+00 0.177381981079D+00 0.148977729967D-03 0.000000000000D+00  6 2 -4 25 1 -3 21 2 0.24227492D+00 0.12593922D+00 0.28017460D+06 0.28017460D+06 0.28017460D+06 0.10867555D+01  1  2  6  1  6  1        2 0.222267085817D+00 0.100000000000D+01
-.210316780145D-01 0.000000000000D+00 -.662363041044D-02 0.148977729967D-03 0.000000000000D+00  6 21 -4 25 1 -3 -2 2 0.31800262D+00 0.12593922D+00 0.28017460D+06 0.28017460D+06 0.28017460D+06 0.10867555D+01  1  2  5  5  6  1        2 -.655081864148D-03 0.100000000000D+01
  </mgrwgt>
  </event>
  <event>
  6     66 0.18614916E-05 0.38015472E+02 0.75467711E-02 0.95104143E-01
        2 -1    0    0  503    0 0.00000000E+00 0.00000000E+00 0.66136042E+03 0.66136050E+03 0.32000000E+00 0.0000E+00 0.9000E+01
       -4 -1    0    0    0  501 0.00000000E+00 0.00000000E+00 -.90187760E+03 0.90187893E+03 0.15500000E+01 0.0000E+00 0.9000E+01
       25  1    1    2    0    0 0.46781262E+03 -.44290975E+02 -.37449679E+03 0.61374521E+03 0.12500000E+03 0.0000E+00 0.9000E+01
        1  1    1    2  502    0 -.25230102E+02 0.13099268E+02 0.28741512E+03 0.28881777E+03 0.32000000E+00 0.0000E+00 0.9000E+01
       -3  1    1    2    0  501 -.42560697E+03 0.33494975E+02 -.29445356E+03 0.51861966E+03 0.50000000E+00 0.0000E+00 0.9000E+01
       21  1    1    2  503  502 -.16975548E+02 -.23032682E+01 0.14101806E+03 0.14205679E+03 0.75000000E+00 0.0000E+00 0.9000E+01
#aMCatNLO 2  0  0  1  4 0.17131091D+02 0.00000000D+00  -5  6  0 0.00000000D+00 0.00000000D+00 0.00000000D+00 0.00000000D+00 0.00000000D+00
  <mgrwgt>
 0.5685611416D-03    1    2    0
 0.684451877742904D+03 0.000000000000000D+00 0.000000000000000D+00 0.684451877742904D+03
 0.684451877742904D+03 0.000000000000000D+00 0.000000000000000D+00 -.684451877742904D+03
 0.527123522309872D+03 0.461324482648141D+03 -.451882600504875D+02 -.217650983538784D+03
 0.380130626711546D+03 -.299342352465856D+02 0.124560049980635D+02 0.378745406393006D+03
 0.461649606464391D+03 -.431390247401556D+03 0.327322550524240D+02 -.161094422854222D+03
 0.000000000000000D+00 -.000000000000000D+00 -.000000000000000D+00 0.000000000000000D+00
 0.870881435288378D+03 0.000000000000000D+00 0.000000000000000D+00 0.870881435288378D+03
 0.684899131181570D+03 0.000000000000000D+00 0.000000000000000D+00 -.684899131181570D+03
 0.532809573566904D+03 0.467896252345667D+03 -.442965923071490D+02 -.217650983538784D+03
 0.379810140552204D+03 -.252224702062771D+02 0.130953044705047D+02 0.378745406393006D+03
 0.456391230339849D+03 -.425698234409537D+03 0.335045560631484D+02 -.161094422854222D+03
 0.186769622010992D+03 -.169755477298524D+02 -.230326822650412D+01 0.185982304106808D+03
0.661694920038D-03 0.000000000000D+00 0.000000000000D+00 0.910356523426D-05 0.675803890509D-06  6 2 -4 25 1 -3 21 2 0.10174775D+00 0.13875036D+00 0.22986860D+06 0.22986860D+06 0.22986860D+06 0.10932127D+01  1  2  1  1  6  1        2 0.568561141566D-03 0.100000000000D+01
  </mgrwgt>
  </event>
  <event>
  6     66 0.18614916E-05 0.88680781E+02 0.75467711E-02 0.93465721E-01
        2 -1    0    0  503    0 0.00000000E+00 0.00000000E+00 0.13348879E+04 0.13348880E+04 0.32000000E+00 0.0000E+00 0.9000E+01
       -4 -1    0    0    0  501 0.00000000E+00 0.00000000E+00 -.29585231E+03 0.29585637E+03 0.15500000E+01 0.0000E+00 0.9000E+01
       25  1    1    2    0    0 -.43950545E+03 -.24951129E+03 0.46380858E+03 0.69725485E+03 0.12500000E+03 0.0000E+00 0.9000E+01
        1  1    1    2  502    0 0.36255673E+03 0.31846967E+03 0.53801149E+03 0.72272179E+03 0.32000000E+00 0.0000E+00 0.9000E+01
       -3  1    1    2    0  501 0.65467168E+02 -.68058101E+02 -.60643305E+02 0.11223064E+03 0.50000000E+00 0.0000E+00 0.9000E+01
       21  1    1    2  503  502 0.11481553E+02 -.90027749E+00 0.97858847E+02 0.98537064E+02 0.75000000E+00 0.0000E+00 0.9000E+01
#aMCatNLO 2  0  0  1  4 0.11516795D+02 0.00000000D+00  -5  6  0 0.00000000D+00 0.00000000D+00 0.00000000D+00 0.00000000D+00 0.00000000D+00
  <mgrwgt>
 0.1153354319D-02    5    2    0
 0.604506569264425D+03 0.000000000000000D+00 0.000000000000000D+00 0.604506569264425D+03
 0.604506569264425D+03 0.000000000000000D+00 0.000000000000000D+00 -.604506569264425D+03
 0.518593758593277D+03 -.434559995761584D+03 -.249891042637846D+03 0.450173671483034D+02
 0.500292964583234D+03 0.367285938097421D+03 0.318092669241113D+03 0.119210502316040D+03
 0.190126415352338D+03 0.672740576641625D+02 -.682016266032672D+02 -.164227869464343D+03
 0.000000000000000D+00 0.000000000000000D+00 -.000000000000000D+00 0.000000000000000D+00
 0.652533137537915D+03 0.000000000000000D+00 0.000000000000000D+00 0.652533137537915D+03
 0.605224823059855D+03 0.000000000000000D+00 0.000000000000000D+00 -.605224823059855D+03
 0.522558064895551D+03 -.439503601698904D+03 -.249503410670294D+03 0.450173671483034D+02
 0.497064546924845D+03 0.362550276684468D+03 0.318463996117575D+03 0.119210502316040D+03
 0.189445378700688D+03 0.654717716455567D+02 -.680603079617046D+02 -.164227869464343D+03
 0.486899700766852D+02 0.114815533688793D+02 -.900277485575947D+00 0.473083144780603D+02
-.713412306687D-03 0.000000000000D+00 0.000000000000D+00 0.129388299167D-06 0.000000000000D+00  6 2 -4 25 1 -3 21 2 0.20572901D+00 0.45461822D-01 0.30754186D+06 0.30754186D+06 0.30754186D+06 0.10837550D+01  1  2 13  1  6  1        2 -.407246531604D-02 0.100000000000D+01
-.101437497452D-03 0.000000000000D+00 0.000000000000D+00 0.129388299167D-06 0.000000000000D+00  6 2 -4 25 1 -3 21 2 0.19025168D+00 0.45461822D-01 0.30157494D+06 0.30157494D+06 0.30157494D+06 0.10843837D+01  1  2  8  1  6  1        2 -.661565118864D-03 0.100000000000D+01
-.692902765436D-04 0.000000000000D+00 0.000000000000D+00 0.129388299167D-06 0.000000000000D+00  6 2 -4 25 1 -3 21 2 0.20546190D+00 0.45461822D-01 0.30157494D+06 0.30157494D+06 0.30157494D+06 0.10843837D+01  1  2  9  1  6  1        2 -.397045663665D-03 0.100000000000D+01
0.690858345491D-04 0.000000000000D+00 0.000000000000D+00 0.129388299167D-06 0.000000000000D+00  6 2 -4 25 1 -3 21 2 0.19025168D+00 0.45461822D-01 0.30157494D+06 0.30157494D+06 0.30157494D+06 0.10843837D+01  1  2 10  1  6  1        2 0.450570839122D-03 0.100000000000D+01
0.102152404690D-02 0.000000000000D+00 0.000000000000D+00 0.129388299167D-06 0.790291564322D-08  6 2 -4 25 1 -3 21 2 0.20536671D+00 0.45515838D-01 0.30754186D+06 0.30754186D+06 0.30754186D+06 0.10837550D+01  1  2  1  1  6  1        2 0.583385957884D-02 0.100000000000D+01
  </mgrwgt>
  </event>
  <event>
  5     66 -.18614916E-05 0.40027751E+02 0.75467711E-02 0.92915402E-01
        4 -1    0    0  502    0 0.00000000E+00 0.00000000E+00 0.13281326E+04 0.13281335E+04 0.15500000E+01 0.0000E+00 0.9000E+01
       -2 -1    0    0    0  501 0.00000000E+00 0.00000000E+00 -.63284210E+03 0.63284218E+03 0.32000000E+00 0.0000E+00 0.9000E+01
       25  1    1    2    0    0 0.57521966E+03 0.23290756E+02 0.32050261E+02 0.58997655E+03 0.12500000E+03 0.0000E+00 0.9000E+01
        3  1    1    2  502    0 -.39954208E+02 -.26262255E+01 0.81363726E+03 0.81462204E+03 0.50000000E+00 0.0000E+00 0.9000E+01
       -1  1    1    2    0  501 -.53526545E+03 -.20664530E+02 -.15039700E+03 0.55637711E+03 0.32000000E+00 0.0000E+00 0.9000E+01
#aMCatNLO 1  0  0  5  2 0.75859433D+02 0.00000000D+00  -5  6  0 0.00000000D+00 0.00000000D+00 0.00000000D+00 0.00000000D+00 0.00000000D+00
  <mgrwgt>
 -.2261530295D-03    6    2    0
 0.916787434018296D+03 0.000000000000000D+00 0.000000000000000D+00 0.916787434018296D+03
 0.916787434018296D+03 -.000000000000000D+00 -.000000000000000D+00 -.916787434018296D+03
 0.618902020519887D+03 0.575354044066770D+03 0.232958439383274D+02 -.189313862764493D+03
 0.562514650738098D+03 -.399415597493715D+02 -.262539410170959D+01 0.561088684082652D+03
 0.652158196778608D+03 -.535412484317399D+03 -.206704498366177D+02 -.371774821318159D+03
 0.000000000000000D+00 0.000000000000000D+00 -.000000000000000D+00 0.000000000000000D+00
 0.916787434018296D+03 0.000000000000000D+00 0.000000000000000D+00 0.916787434018296D+03
 0.916787434018296D+03 -.000000000000000D+00 -.000000000000000D+00 -.916787434018296D+03
 0.618480849157207D+03 0.574767644429870D+03 0.232732050484363D+02 -.189721041578240D+03
 0.562183709649937D+03 -.404745578426184D+02 -.264597134014197D+01 0.560718585744111D+03
 0.280923943879266D+03 -.224450376421874D+03 0.150390182663648D+02 -.168267996655170D+03
 0.371986365350183D+03 -.309842710165377D+03 -.356662519746591D+02 -.202729547510702D+03
0.369507958968D-03 0.000000000000D+00 0.000000000000D+00 0.217319014057D-04 0.000000000000D+00  6 4 -2 25 3 -1 21 0 0.20432817D+00 0.97360399D-01 0.33935044D+06 0.33935044D+06 0.33935044D+06 0.10806138D+01  1  2  2  4  6  5       -1 0.106914473487D-04 0.100000000000D+01
0.190296215715D-03 0.000000000000D+00 -.141900785612D-05 0.217319014057D-04 0.000000000000D+00  6 4 -2 25 3 -1 21 2 0.20432817D+00 0.97360399D-01 0.33935044D+06 0.33935044D+06 0.33935044D+06 0.10806138D+01  1  2  3  4  6  5       -1 0.642959843199D-05 0.100000000000D+01
-.255620866175D-03 0.000000000000D+00 0.000000000000D+00 0.217319014057D-04 0.000000000000D+00  6 4 -2 25 3 -1 21 2 0.20432817D+00 0.97360399D-01 0.33935044D+06 0.33935044D+06 0.33935044D+06 0.10806138D+01  1  2 15  4  6  5       -1 -.863674305956D-05 0.100000000000D+01
-.130742991050D-01 0.000000000000D+00 0.000000000000D+00 0.217319014057D-04 0.000000000000D+00  6 4 -2 25 3 -1 21 2 0.20432817D+00 0.97360399D-01 0.33935044D+06 0.33935044D+06 0.33935044D+06 0.10806138D+01  1  2  4  4  6  5       -1 -.441745479324D-03 0.100000000000D+01
-.890452212959D-02 0.000000000000D+00 0.000000000000D+00 0.217319014057D-04 0.000000000000D+00  6 4 -2 25 3 -1 21 2 0.20432817D+00 0.97360399D-01 0.33935044D+06 0.33935044D+06 0.33935044D+06 0.10806138D+01  1  2  5  4  6  5       -1 -.300859905736D-03 0.100000000000D+01
0.150342823398D-01 0.000000000000D+00 -.000000000000D+00 0.217319014057D-04 0.000000000000D+00  6 4 -2 25 3 -1 21 2 0.20432817D+00 0.97360399D-01 0.33935044D+06 0.33935044D+06 0.33935044D+06 0.10806138D+01  1  2  6  4  6  5       -1 0.507968052831D-03 0.100000000000D+01
  </mgrwgt>
  </event>
  <event>
  5     66 0.18614916E-05 0.11563668E+02 0.75467711E-02 0.94477860E-01
        2 -1    0    0  502    0 0.00000000E+00 0.00000000E+00 0.30800915E+04 0.30800916E+04 0.32000000E+00 0.0000E+00 0.9000E+01
       -4 -1    0    0    0  501 0.00000000E+00 0.00000000E+00 -.12568747E+03 0.12569703E+03 0.15500000E+01 0.0000E+00 0.9000E+01
       25  1    1    2    0    0 0.39919918E+03 -.27953386E+03 0.67775981E+03 0.84408680E+03 0.12500000E+03 0.0000E+00 0.9000E+01
        1  1    1    2  502    0 -.41027577E+03 0.28293021E+03 0.22902369E+04 0.23438346E+04 0.32000000E+00 0.0000E+00 0.9000E+01
       -3  1    1    2    0  501 0.11076590E+02 -.33963525E+01 -.13592614E+02 0.17867154E+02 0.50000000E+00 0.0000E+00 0.9000E+01
#aMCatNLO 1  0  0  4  2 0.26941198D+03 0.00000000D+00  -5  6  0 0.00000000D+00 0.00000000D+00 0.00000000D+00 0.00000000D+00 0.00000000D+00
  <mgrwgt>
 0.5945795096D-02    4    2    0
 0.622209172685797D+03 0.000000000000000D+00 0.000000000000000D+00 0.622209172685797D+03
 0.622209172685797D+03 -.000000000000000D+00 -.000000000000000D+00 -.622209172685797D+03
 0.565533736896167D+03 0.399248157144437D+03 -.279560254588215D+03 -.258167350064035D+03
 0.600766110253745D+03 -.410303945438396D+03 0.282949643669725D+03 0.335425238666198D+03
 0.781184982216826D+02 0.110557882939592D+02 -.338938908150913D+01 -.772578886021638D+02
 0.000000000000000D+00 0.000000000000000D+00 0.000000000000000D+00 0.000000000000000D+00
 0.622209172685797D+03 0.000000000000000D+00 0.000000000000000D+00 0.622209172685797D+03
 0.622209172685797D+03 -.000000000000000D+00 -.000000000000000D+00 -.622209172685797D+03
 0.445283916489462D+03 0.313833047794668D+03 -.220657153550021D+03 -.188340131101435D+03
 0.441500589742126D+03 -.433582879063127D+03 0.174149776448942D+02 0.813964144149049D+02
 0.674088469353640D+02 -.124141888117954D+01 0.509088615596282D+01 -.672048688895667D+02
 0.290224992204642D+03 0.120991250149638D+03 0.198151289749164D+03 0.174148585576097D+03
0.334231132880D-02 0.000000000000D+00 0.000000000000D+00 0.439156908254D-05 0.000000000000D+00  6 2 -4 25 1 -3 21 0 0.47386097D+00 0.19337270D-01 0.25661263D+06 0.25661263D+06 0.25661263D+06 0.10896072D+01  1  2  2  3  6  4        1 0.917006079478D-02 0.100000000000D+01
0.173922756090D-02 0.000000000000D+00 -.128353555534D-04 0.439156908254D-05 0.000000000000D+00  6 2 -4 25 1 -3 21 2 0.47386097D+00 0.19337270D-01 0.25661263D+06 0.25661263D+06 0.25661263D+06 0.10896072D+01  1  2  3  3  6  4        1 0.566528330478D-02 0.100000000000D+01
-.269462739734D-02 0.000000000000D+00 0.000000000000D+00 0.439156908254D-05 0.000000000000D+00  6 2 -4 25 1 -3 21 2 0.47386097D+00 0.19337270D-01 0.25661263D+06 0.25661263D+06 0.25661263D+06 0.10896072D+01  1  2 15  3  6  4        1 -.877736068007D-02 0.100000000000D+01
-.344415299540D-04 0.000000000000D+00 0.000000000000D+00 0.439156908254D-05 0.000000000000D+00  6 2 -4 25 1 -3 21 2 0.47386097D+00 0.19337270D-01 0.25661263D+06 0.25661263D+06 0.25661263D+06 0.10896072D+01  1  2  4  3  6  4        1 -.112188323728D-03 0.100000000000D+01
  </mgrwgt>
  </event>
  <event>
  5     66 0.18614916E-05 0.12933402E+03 0.75467711E-02 0.90881908E-01
        2 -1    0    0  502    0 0.00000000E+00 0.00000000E+00 0.23873663E+04 0.23873663E+04 0.32000000E+00 0.0000E+00 0.9000E+01
       -4 -1    0    0    0  501 0.00000000E+00 0.00000000E+00 -.70895965E+03 0.70896135E+03 0.15500000E+01 0.0000E+00 0.9000E+01
       25  1    1    2    0    0 -.62597389E+03 0.16521548E+03 0.61444246E+03 0.90127909E+03 0.12500000E+03 0.0000E+00 0.9000E+01
        1  1    1    2  502    0 0.52806474E+03 -.80731093E+02 0.15774916E+04 0.16654879E+04 0.32000000E+00 0.0000E+00 0.9000E+01
       -3  1    1    2    0  501 0.97909150E+02 -.84484385E+02 -.51352747E+03 0.52956069E+03 0.50000000E+00 0.0000E+00 0.9000E+01
#aMCatNLO 1  0  0  2  2 0.13380658D+03 0.00000000D+00  -5  6  0 0.00000000D+00 0.00000000D+00 0.00000000D+00 0.00000000D+00 0.00000000D+00
  <mgrwgt>
 0.2508506038D-02    7    4    0
 0.130098002106539D+04 0.000000000000000D+00 0.000000000000000D+00 0.130098002106539D+04
 0.130098002106539D+04 0.000000000000000D+00 0.000000000000000D+00 -.130098002106539D+04
 0.676174505875678D+03 -.625949169871254D+03 0.165218476220205D+03 0.149924828661498D+03
 0.964294645177429D+03 0.528029501097824D+03 -.807257063406405D+02 0.802827733093502D+03
 0.961490891077672D+03 0.979196687734302D+02 -.844927698795643D+02 -.952752561755000D+03
 0.000000000000000D+00 0.000000000000000D+00 -.000000000000000D+00 -.000000000000000D+00
 0.130710098352778D+04 0.000000000000000D+00 0.000000000000000D+00 0.130710098352778D+04
 0.231955873258064D+04 0.000000000000000D+00 0.000000000000000D+00 -.231955873258064D+04
 0.698728319476334D+03 -.641326615137437D+03 0.197025335694170D+03 0.149924828661498D+03
 0.950012227313011D+03 0.506619152226903D+03 -.364403295411858D+02 0.802827733093502D+03
 0.956657745712970D+03 0.764663521238694D+02 -.401185181029290D+02 -.952752561755000D+03
 0.102126142360610D+04 0.582411107866646D+02 -.120466488050055D+03 -.101245774905286D+04
 0.130098002106539D+04 0.000000000000000D+00 0.000000000000000D+00 0.130098002106539D+04
 0.130098002106539D+04 0.000000000000000D+00 0.000000000000000D+00 -.130098002106539D+04
 0.676174505875678D+03 -.625949169871254D+03 0.165218476220205D+03 0.149924828661498D+03
 0.964294645177429D+03 0.528029501097824D+03 -.807257063406405D+02 0.802827733093502D+03
 0.000000000000000D+00 0.000000000000000D+00 -.000000000000000D+00 -.000000000000000D+00
 0.961490891077672D+03 0.979196687734302D+02 -.844927698795643D+02 -.952752561755000D+03
 0.130710098352778D+04 0.000000000000000D+00 0.000000000000000D+00 0.130710098352778D+04
 0.231955873258064D+04 0.000000000000000D+00 0.000000000000000D+00 -.231955873258064D+04
 0.698728319476334D+03 -.641326615137437D+03 0.197025335694170D+03 0.149924828661498D+03
 0.950012227313011D+03 0.506619152226903D+03 -.364403295411858D+02 0.802827733093502D+03
 0.102126142360610D+04 0.582411107866646D+02 -.120466488050055D+03 -.101245774905286D+04
 0.956657745712970D+03 0.764663521238694D+02 -.401185181029290D+02 -.952752561755000D+03
0.141019907235D-02 0.000000000000D+00 0.000000000000D+00 0.185351171747D-04 0.000000000000D+00  6 2 -4 25 1 -3 21 0 0.36728725D+00 0.10907085D+00 0.43747813D+06 0.43747813D+06 0.43747813D+06 0.10726348D+01  1  2  2  2  6  2       -4 0.197650570304D-03 0.100000000000D+01
0.335662451407D-03 0.000000000000D+00 -.541553575178D-05 0.185351171747D-04 0.000000000000D+00  6 2 -4 25 1 -3 21 2 0.36728725D+00 0.10907085D+00 0.43747813D+06 0.43747813D+06 0.43747813D+06 0.10726348D+01  1  2  3  2  6  2       -4 0.541282735018D-04 0.100000000000D+01
-.105038247887D-02 0.000000000000D+00 0.000000000000D+00 0.185351171747D-04 0.000000000000D+00  6 2 -4 25 1 -3 21 2 0.36728725D+00 0.10907085D+00 0.43747813D+06 0.43747813D+06 0.43747813D+06 0.10726348D+01  1  2 15  2  6  2       -4 -.169382633832D-03 0.100000000000D+01
-.600899501874D-02 0.000000000000D+00 0.000000000000D+00 0.185351171747D-04 0.000000000000D+00  6 2 -4 25 1 -3 21 2 0.36728725D+00 0.10907085D+00 0.43747813D+06 0.43747813D+06 0.43747813D+06 0.10726348D+01  1  2  4  2  6  2       -4 -.968998839404D-03 0.100000000000D+01
-.453437117739D-01 0.000000000000D+00 -.703469424267D-03 0.185351171747D-04 0.000000000000D+00  6 2 -4 25 1 -3 21 2 0.36728725D+00 0.19473848D+00 0.43747813D+06 0.43747813D+06 0.43747813D+06 0.10726348D+01  1  2  5  2  6  2       -4 -.110324452707D-02 0.100000000000D+01
0.391001694654D-01 0.000000000000D+00 0.599840927875D-03 0.185351171747D-04 0.000000000000D+00  6 2 -4 25 1 -3 21 2 0.36728725D+00 0.10907085D+00 0.43747813D+06 0.43747813D+06 0.43747813D+06 0.10726348D+01  1  2  6  2  6  2       -4 0.630521721424D-02 0.100000000000D+01
-.285118685548D-02 0.000000000000D+00 -.448067015757D-04 0.185351171747D-04 0.000000000000D+00  6 2 21 25 1 4 -3 2 0.36728725D+00 0.19473848D+00 0.43747813D+06 0.43747813D+06 0.43747813D+06 0.10726348D+01  3  4  5  6  5  2       -4 -.180686401940D-02 0.100000000000D+01
  </mgrwgt>
  </event>
  <event>
  6     66 0.18614916E-05 0.54331384E+02 0.75467711E-02 0.92140584E-01
        2 -1    0    0  502    0 0.00000000E+00 0.00000000E+00 0.12878061E+04 0.12878061E+04 0.32000000E+00 0.0000E+00 0.9000E+01
       -4 -1    0    0    0  501 0.00000000E+00 0.00000000E+00 -.80354601E+03 0.80354751E+03 0.15500000E+01 0.0000E+00 0.9000E+01
       25  1    1    2    0    0 -.41983815E+03 0.44166272E+03 -.23329216E+03 0.66436455E+03 0.12500000E+03 0.0000E+00 0.9000E+01
        1  1    1    2  503    0 0.30350208E+03 -.39266394E+03 0.82368186E+03 0.96163943E+03 0.32000000E+00 0.0000E+00 0.9000E+01
       -3  1    1    2    0  501 0.67377674E+01 0.81690500E+01 -.26435180E+03 0.26456428E+03 0.50000000E+00 0.0000E+00 0.9000E+01
       21  1    1    2  502  503 0.10959830E+03 -.57167826E+02 0.15822219E+03 0.20078539E+03 0.75000000E+00 0.0000E+00 0.9000E+01
#aMCatNLO 2  0  0  4  5 0.44926933D+02 0.00000000D+00  -5  6  0 0.00000000D+00 0.00000000D+00 0.00000000D+00 0.00000000D+00 0.00000000D+00
  <mgrwgt>
 0.8428124971D-02    1    2    0
 0.101725762040097D+04 0.000000000000000D+00 0.000000000000000D+00 0.101725762040097D+04
 0.101725762040097D+04 -.000000000000000D+00 -.000000000000000D+00 -.101725762040097D+04
 0.740884614784926D+03 -.420988736944066D+03 0.442911191364960D+03 -.399853938776299D+03
 0.957690678668010D+03 0.414775031816053D+03 -.451655326181561D+03 0.735622576680061D+03
 0.335939947349012D+03 0.621370512801224D+01 0.874413481660127D+01 -.335768637903763D+03
 0.000000000000000D+00 0.000000000000000D+00 0.000000000000000D+00 0.000000000000000D+00
 0.101725762040097D+04 0.000000000000000D+00 0.000000000000000D+00 0.101725762040097D+04
 0.101725762040097D+04 -.000000000000000D+00 -.000000000000000D+00 -.101725762040097D+04
 0.738357561626995D+03 -.419827356894910D+03 0.441646545605968D+03 -.397794177896952D+03
 0.792346690681757D+03 0.303438600818960D+03 -.392623593596424D+03 0.617725673352496D+03
 0.335001880388270D+03 0.674047381085769D+01 0.817052776935185D+01 -.334834389441187D+03
 0.168809108104925D+03 0.109648282265093D+03 -.571934797788957D+02 0.114902893985642D+03
0.182853255170D-01 0.000000000000D+00 0.000000000000D+00 0.605879224022D-04 0.918182527410D-07  6 2 -4 25 1 -3 21 2 0.19812413D+00 0.12362258D+00 0.39219694D+06 0.39219694D+06 0.39219694D+06 0.10760449D+01  1  2  1  3  6  4        1 0.842812497067D-02 0.100000000000D+01
  </mgrwgt>
  </event>
  <event>
  5     66 0.18614916E-05 0.26683064E+02 0.75467711E-02 0.90156416E-01
        2 -1    0    0  502    0 0.00000000E+00 0.00000000E+00 0.70635370E+03 0.70635377E+03 0.32000000E+00 0.0000E+00 0.9000E+01
       -4 -1    0    0    0  501 -.00000000E+00 -.00000000E+00 -.10363467E+04 0.10363478E+04 0.15500000E+01 0.0000E+00 0.9000E+01
       25  1    1    2    0    0 0.41315714E+03 0.60607503E+03 -.11734526E+03 0.75327331E+03 0.12500000E+03 0.0000E+00 0.9000E+01
        1  1    1    2  502    0 0.25373032E+02 -.83636002E+01 0.15825268E+03 0.16049222E+03 0.32000000E+00 0.0000E+00 0.9000E+01
       -3  1    1    2    0  501 -.43853017E+03 -.59771143E+03 -.37090040E+03 0.82893608E+03 0.50000000E+00 0.0000E+00 0.9000E+01
#aMCatNLO 1  0  0  4  1 0.20028935D+01 0.00000000D+00  -5  6  0 0.00000000D+00 0.00000000D+00 0.00000000D+00 0.00000000D+00 0.00000000D+00
  <mgrwgt>
 0.7926224372D-03    8    2    0
 0.855586572736682D+03 0.000000000000000D+00 0.000000000000000D+00 0.855586572736682D+03
 0.855586572736682D+03 -.000000000000000D+00 -.000000000000000D+00 -.855586572736682D+03
 0.744665697767412D+03 0.413253640443331D+03 0.606179110567214D+03 0.258904616355475D+02
 0.193728873632847D+03 0.253418245430429D+02 -.835331361205659D+01 0.191882491539952D+03
 0.772778574073105D+03 -.438595464986374D+03 -.597825796955157D+03 -.217772953175500D+03
 0.000000000000000D+00 0.000000000000000D+00 0.000000000000000D+00 0.000000000000000D+00
 0.855586572736682D+03 0.000000000000000D+00 0.000000000000000D+00 0.855586572736682D+03
 0.855586572736682D+03 -.000000000000000D+00 -.000000000000000D+00 -.855586572736682D+03
 0.744670396765263D+03 0.413262180733876D+03 0.606176295468990D+03 0.259551267596170D+02
 0.145176863708999D+02 -.104023871121002D+00 -.576411415185741D+00 0.145058659334246D+02
 0.772756896094818D+03 -.438586602432105D+03 -.597828718279748D+03 -.217705847944317D+03
 0.179228166242382D+03 0.254284455693500D+02 -.777116577405624D+01 0.177244855251276D+03
0.458064011501D-04 0.000000000000D+00 0.000000000000D+00 0.165775996099D-05 0.000000000000D+00  6 2 -4 25 1 -3 21 0 0.10866989D+00 0.15943805D+00 0.57180645D+06 0.57180645D+06 0.57180645D+06 0.10644158D+01  1  2  2  3  6  4        1 0.188469971363D-04 0.100000000000D+01
0.222427174251D-04 0.000000000000D+00 -.175908641519D-06 0.165775996099D-05 0.000000000000D+00  6 2 -4 25 1 -3 21 2 0.10866989D+00 0.15943805D+00 0.57180645D+06 0.57180645D+06 0.57180645D+06 0.10644158D+01  1  2  3  3  6  4        1 0.103687506744D-04 0.100000000000D+01
-.327132613131D-04 0.000000000000D+00 0.000000000000D+00 0.165775996099D-05 0.000000000000D+00  6 2 -4 25 1 -3 21 2 0.10866989D+00 0.15943805D+00 0.57180645D+06 0.57180645D+06 0.57180645D+06 0.10644158D+01  1  2 15  3  6  4        1 -.152497396708D-04 0.100000000000D+01
0.841721110240D-06 0.000000000000D+00 0.000000000000D+00 0.165775996099D-05 0.000000000000D+00  6 2 -4 25 1 -3 21 2 0.10866989D+00 0.15943805D+00 0.57217827D+06 0.57217827D+06 0.57217827D+06 0.10643960D+01  1  2 12  3  6  4        1 0.392357791498D-06 0.100000000000D+01
-.553766278629D-03 0.000000000000D+00 0.000000000000D+00 0.165775996099D-05 0.000000000000D+00  6 2 -4 25 1 -3 21 2 0.10866989D+00 0.15943805D+00 0.57180645D+06 0.57180645D+06 0.57180645D+06 0.10644158D+01  1  2  4  3  6  4        1 -.258145817585D-03 0.100000000000D+01
-.680667032721D-03 0.000000000000D+00 0.000000000000D+00 0.165775996099D-05 0.000000000000D+00  6 2 -4 25 1 -3 21 2 0.10866989D+00 0.15943805D+00 0.57180645D+06 0.57180645D+06 0.57180645D+06 0.10644158D+01  1  2  5  3  6  4        1 -.317302361025D-03 0.100000000000D+01
0.234589276808D-02 0.000000000000D+00 -.000000000000D+00 0.165775996099D-05 0.000000000000D+00  6 2 -4 25 1 -3 21 2 0.10866989D+00 0.15943805D+00 0.57180645D+06 0.57180645D+06 0.57180645D+06 0.10644158D+01  1  2  6  3  6  4        1 0.109357039234D-02 0.100000000000D+01
0.558079635122D-03 0.000000000000D+00 0.000000000000D+00 0.165775996099D-05 0.769916422320D-07  6 2 -4 25 1 -3 21 2 0.10866989D+00 0.15943805D+00 0.57217827D+06 0.57217827D+06 0.57217827D+06 0.10643960D+01  1  2 11  3  6  4        1 0.260141857502D-03 0.100000000000D+01
  </mgrwgt>
  </event>
  <event>
  5     66 0.18614916E-05 0.25102994E+02 0.75467711E-02 0.94973052E-01
        2 -1    0    0  502    0 0.00000000E+00 0.00000000E+00 0.44332284E+03 0.44332296E+03 0.32000000E+00 0.0000E+00 0.9000E+01
       -4 -1    0    0    0  501 -.00000000E+00 -.00000000E+00 -.62250376E+03 0.62250569E+03 0.15500000E+01 0.0000E+00 0.9000E+01
       25  1    1    2    0    0 0.22144975E+03 0.39618635E+03 -.19088841E+02 0.47116133E+03 0.12500000E+03 0.0000E+00 0.9000E+01
        1  1    1    2  502    0 -.41797152E+01 0.24833205E+02 0.65315800E+02 0.70002959E+02 0.32000000E+00 0.0000E+00 0.9000E+01
       -3  1    1    2    0  501 -.21727003E+03 -.42101955E+03 -.22540787E+03 0.52466436E+03 0.50000000E+00 0.0000E+00 0.9000E+01
#aMCatNLO 1  0  0  5  1 0.91343405D+02 0.00000000D+00  -5  6  0 0.00000000D+00 0.00000000D+00 0.00000000D+00 0.00000000D+00 0.00000000D+00
  <mgrwgt>
 0.3173492130D-02    6    2    0
 0.525329635244683D+03 0.000000000000000D+00 0.000000000000000D+00 0.525329635244683D+03
 0.525329635244683D+03 -.000000000000000D+00 -.000000000000000D+00 -.525329635244683D+03
 0.474894263324883D+03 0.221508240453099D+03 0.396358395160031D+03 0.611038733340198D+02
 0.818927255687974D+02 -.416651964773967D+01 0.247548055914937D+02 0.779503573772354D+02
 0.493872281595685D+03 -.217341720805359D+03 -.421113200751525D+03 -.139054230711255D+03
 0.000000000000000D+00 -.000000000000000D+00 0.000000000000000D+00 0.000000000000000D+00
 0.525329635244683D+03 0.000000000000000D+00 0.000000000000000D+00 0.525329635244683D+03
 0.525329635244683D+03 -.000000000000000D+00 -.000000000000000D+00 -.525329635244683D+03
 0.460318291537856D+03 0.214767710331211D+03 0.383298195747456D+03 0.567913132456391D+02
 0.805860610604602D+02 -.533758300627536D+01 0.224857969659595D+02 0.772011164407419D+02
 0.254988277048181D+03 -.866787878048715D+02 -.183475107945274D+03 -.154410796064096D+03
 0.254766640842869D+03 -.122751339520064D+03 -.222308884768141D+03 0.204183663777154D+02
0.729269859033D-03 0.000000000000D+00 0.000000000000D+00 0.866331582995D-06 0.000000000000D+00  6 2 -4 25 1 -3 21 0 0.68203672D-01 0.95769966D-01 0.23519683D+06 0.23519683D+06 0.23519683D+06 0.10924590D+01  1  2  2  4  6  5       -3 0.246063223555D-02 0.100000000000D+01
0.229774257852D-03 0.000000000000D+00 -.280058827985D-05 0.866331582995D-06 0.000000000000D+00  6 2 -4 25 1 -3 21 2 0.68203672D-01 0.95769966D-01 0.23519683D+06 0.23519683D+06 0.23519683D+06 0.10924590D+01  1  2  3  4  6  5       -3 0.925273397848D-03 0.100000000000D+01
-.476862677785D-03 0.000000000000D+00 0.000000000000D+00 0.866331582995D-06 0.000000000000D+00  6 2 -4 25 1 -3 21 2 0.68203672D-01 0.95769966D-01 0.23519683D+06 0.23519683D+06 0.23519683D+06 0.10924590D+01  1  2 15  4  6  5       -3 -.192026885129D-02 0.100000000000D+01
-.221111562163D-03 0.000000000000D+00 0.000000000000D+00 0.866331582995D-06 0.000000000000D+00  6 2 -4 25 1 -3 21 2 0.68203672D-01 0.95769966D-01 0.23519683D+06 0.23519683D+06 0.23519683D+06 0.10924590D+01  1  2  4  4  6  5       -3 -.890389760533D-03 0.100000000000D+01
-.104030766191D-02 0.000000000000D+00 0.000000000000D+00 0.866331582995D-06 0.000000000000D+00  6 2 -4 25 1 -3 21 2 0.68203672D-01 0.95769966D-01 0.23519683D+06 0.23519683D+06 0.23519683D+06 0.10924590D+01  1  2  5  4  6  5       -3 -.418919427327D-02 0.100000000000D+01
0.168553300065D-02 0.000000000000D+00 -.000000000000D+00 0.866331582995D-06 0.000000000000D+00  6 2 -4 25 1 -3 21 2 0.68203672D-01 0.95769966D-01 0.23519683D+06 0.23519683D+06 0.23519683D+06 0.10924590D+01  1  2  6  4  6  5       -3 0.678743938193D-02 0.100000000000D+01
  </mgrwgt>
  </event>
  <event>
  5     66 0.18614916E-05 0.17048057E+02 0.75467711E-02 0.94938391E-01
        2 -1    0    0  502    0 0.00000000E+00 0.00000000E+00 0.11966344E+04 0.11966345E+04 0.32000000E+00 0.0000E+00 0.9000E+01
       -4 -1    0    0    0  501 0.00000000E+00 0.00000000E+00 -.39895043E+03 0.39895344E+03 0.15500000E+01 0.0000E+00 0.9000E+01
       25  1    1    2    0    0 -.29077657E+03 -.35185236E+03 0.64925456E+03 0.80343486E+03 0.12500000E+03 0.0000E+00 0.9000E+01
        1  1    1    2  502    0 0.27844347E+03 0.34008710E+03 0.36718991E+03 0.57272903E+03 0.32000000E+00 0.0000E+00 0.9000E+01
       -3  1    1    2    0  501 0.12333098E+02 0.11765255E+02 -.21876045E+03 0.21942405E+03 0.50000000E+00 0.0000E+00 0.9000E+01
#aMCatNLO 1  0  0  5  5 0.10602374D+01 0.00000000D+00  -5  6  0 0.00000000D+00 0.00000000D+00 0.00000000D+00 0.00000000D+00 0.00000000D+00
  <mgrwgt>
 0.4242159561D-02    6    2    0
 0.690941579471195D+03 0.000000000000000D+00 0.000000000000000D+00 0.690941579471195D+03
 0.690941579471195D+03 -.000000000000000D+00 -.000000000000000D+00 -.690941579471195D+03
 0.552897816373100D+03 -.290729047940851D+03 -.351793738340906D+03 0.285987380311927D+03
 0.449261369754664D+03 0.278393641525726D+03 0.340026240762785D+03 0.933537053609077D+02
 0.379723972814625D+03 0.123354064151246D+02 0.117674975781217D+02 -.379341085672835D+03
 0.000000000000000D+00 0.000000000000000D+00 0.000000000000000D+00 0.000000000000000D+00
 0.690941579471195D+03 0.000000000000000D+00 0.000000000000000D+00 0.690941579471195D+03
 0.690941579471195D+03 -.000000000000000D+00 -.000000000000000D+00 -.690941579471195D+03
 0.551625109533204D+03 -.290654160061564D+03 -.351722298218994D+03 0.283684412053210D+03
 0.448957727493495D+03 0.278454541776640D+03 0.340084337231683D+03 0.914808876748113D+02
 0.281261476882114D+03 -.121693007143259D+02 0.282567134435097D+02 -.279573755283653D+03
 0.100038845033577D+03 0.243689189992498D+02 -.166187524561983D+02 -.955915444443683D+02
0.303111435047D-03 0.000000000000D+00 0.000000000000D+00 0.812521514622D-05 0.000000000000D+00  6 2 -4 25 1 -3 21 0 0.18409784D+00 0.61377224D-01 0.21608162D+06 0.21608162D+06 0.21608162D+06 0.10952550D+01  1  2  2  4  6  5       -3 0.898225746363D-03 0.100000000000D+01
0.220725834082D-03 0.000000000000D+00 -.116402772165D-05 0.812521514622D-05 0.000000000000D+00  6 2 -4 25 1 -3 21 2 0.18409784D+00 0.61377224D-01 0.21608162D+06 0.21608162D+06 0.21608162D+06 0.10952550D+01  1  2  3  4  6  5       -3 0.784633522582D-03 0.100000000000D+01
-.192197120145D-03 0.000000000000D+00 0.000000000000D+00 0.812521514622D-05 0.000000000000D+00  6 2 -4 25 1 -3 21 2 0.18409784D+00 0.61377224D-01 0.21608162D+06 0.21608162D+06 0.21608162D+06 0.10952550D+01  1  2 15  4  6  5       -3 -.683219995685D-03 0.100000000000D+01
-.128993638326D-03 0.000000000000D+00 0.000000000000D+00 0.812521514622D-05 0.000000000000D+00  6 2 -4 25 1 -3 21 2 0.18409784D+00 0.61377224D-01 0.21608162D+06 0.21608162D+06 0.21608162D+06 0.10952550D+01  1  2  4  4  6  5       -3 -.458545023746D-03 0.100000000000D+01
-.351036035419D-02 0.000000000000D+00 0.000000000000D+00 0.812521514622D-05 0.000000000000D+00  6 2 -4 25 1 -3 21 2 0.18409784D+00 0.61377224D-01 0.21608162D+06 0.21608162D+06 0.21608162D+06 0.10952550D+01  1  2  5  4  6  5       -3 -.124785864858D-01 0.100000000000D+01
0.455150976252D-02 0.000000000000D+00 -.000000000000D+00 0.812521514622D-05 0.000000000000D+00  6 2 -4 25 1 -3 21 2 0.18409784D+00 0.61377224D-01 0.21608162D+06 0.21608162D+06 0.21608162D+06 0.10952550D+01  1  2  6  4  6  5       -3 0.161796517969D-01 0.100000000000D+01
  </mgrwgt>
  </event>
  <event>
  6     66 0.18614916E-05 0.53887732E+02 0.75467711E-02 0.92428627E-01
        2 -1    0    0  503    0 0.00000000E+00 0.00000000E+00 0.36589846E+04 0.36589846E+04 0.32000000E+00 0.0000E+00 0.9000E+01
       -4 -1    0    0    0  501 0.00000000E+00 0.00000000E+00 -.58137118E+03 0.58137324E+03 0.15500000E+01 0.0000E+00 0.9000E+01
       25  1    1    2    0    0 -.60013898E+03 0.59260634E+02 0.68813434E+03 0.92348930E+03 0.12500000E+03 0.0000E+00 0.9000E+01
        1  1    1    2  502    0 0.52570812E+03 -.55136964E+02 0.24893149E+04 0.25448178E+04 0.32000000E+00 0.0000E+00 0.9000E+01
       -3  1    1    2    0  501 0.60564510E+02 -.67060670E+01 -.43366374E+03 0.43792410E+03 0.50000000E+00 0.0000E+00 0.9000E+01
       21  1    1    2  503  502 0.13866348E+02 0.25823969E+01 0.33382789E+03 0.33412658E+03 0.75000000E+00 0.0000E+00 0.9000E+01
#aMCatNLO 2  0  0  1  4 0.14104765D+02 0.00000000D+00  -5  6  0 0.00000000D+00 0.00000000D+00 0.00000000D+00 0.00000000D+00 0.00000000D+00
  <mgrwgt>
 0.1339308368D-01    5    2    0
 0.139015150214354D+04 0.000000000000000D+00 0.000000000000000D+00 0.139015150214354D+04
 0.139015150214354D+04 0.000000000000000D+00 0.000000000000000D+00 -.139015150214354D+04
 0.615430325990858D+03 -.597047547648332D+03 0.598320399769416D+02 0.555323238170677D+02
 0.112129077633450D+04 0.531273692659641D+03 -.540945748254014D+02 0.985958947195608D+03
 0.104358190196172D+04 0.657738549886908D+02 -.573746515154016D+01 -.104149127101268D+04
 0.000000000000000D+00 0.000000000000000D+00 0.000000000000000D+00 0.000000000000000D+00
 0.152980249983605D+04 0.000000000000000D+00 0.000000000000000D+00 0.152980249983605D+04
 0.139052558204030D+04 0.000000000000000D+00 0.000000000000000D+00 -.139052558204030D+04
 0.618360358233705D+03 -.600124201704755D+03 0.592590598526701D+02 0.555323238170677D+02
 0.111870580066746D+04 0.525687903560141D+03 -.551348432708264D+02 0.985958947195608D+03
 0.104327262262007D+04 0.605699500473476D+02 -.670661346828465D+01 -.104149127101268D+04
 0.139989300355122D+03 0.138663480972667D+02 0.258239688644095D+01 0.139276917795746D+03
-.390254874070D+00 0.000000000000D+00 0.000000000000D+00 0.193125553969D-03 0.000000000000D+00  6 2 -4 25 1 -3 21 2 0.56439093D+00 0.89417754D-01 0.37178161D+06 0.37178161D+06 0.37178161D+06 0.10777256D+01  1  2 13  1  6  1        2 -.166334162138D-01 0.100000000000D+01
-.519516097839D-02 0.000000000000D+00 0.000000000000D+00 0.193125553969D-03 0.000000000000D+00  6 2 -4 25 1 -3 21 2 0.51153317D+00 0.89417754D-01 0.36782039D+06 0.36782039D+06 0.36782039D+06 0.10780633D+01  1  2  8  1  6  1        2 -.389565463161D-03 0.100000000000D+01
-.343523141953D-02 0.000000000000D+00 0.000000000000D+00 0.193125553969D-03 0.000000000000D+00  6 2 -4 25 1 -3 21 2 0.56295201D+00 0.89417754D-01 0.36782039D+06 0.36782039D+06 0.36782039D+06 0.10780633D+01  1  2  9  1  6  1        2 -.149005807679D-03 0.100000000000D+01
0.341953370964D-02 0.000000000000D+00 0.000000000000D+00 0.193125553969D-03 0.000000000000D+00  6 2 -4 25 1 -3 21 2 0.51153317D+00 0.89417754D-01 0.36782039D+06 0.36782039D+06 0.36782039D+06 0.10780633D+01  1  2 10  1  6  1        2 0.256417893292D-03 0.100000000000D+01
0.700054369623D+00 0.000000000000D+00 0.000000000000D+00 0.193125553969D-03 0.107038520252D-04  6 2 -4 25 1 -3 21 2 0.56292046D+00 0.89441815D-01 0.37178161D+06 0.37178161D+06 0.37178161D+06 0.10777256D+01  1  2  1  1  6  1        2 0.303086532689D-01 0.100000000000D+01
  </mgrwgt>
  </event>
  <event>
  6     66 0.18614916E-05 0.25261631E+02 0.75467711E-02 0.93813933E-01
        2 -1    0    0  502    0 0.00000000E+00 0.00000000E+00 0.23452658E+04 0.23452658E+04 0.32000000E+00 0.0000E+00 0.9000E+01
       -4 -1    0    0    0  503 0.00000000E+00 0.00000000E+00 -.36208049E+03 0.36208381E+03 0.15500000E+01 0.0000E+00 0.9000E+01
       25  1    1    2    0    0 -.51241863E+03 -.49216893E+02 0.11480372E+04 0.12643613E+04 0.12500000E+03 0.0000E+00 0.9000E+01
        1  1    1    2  502    0 0.22616332E+02 0.15060916E+02 0.91529307E+03 0.91569636E+03 0.32000000E+00 0.0000E+00 0.9000E+01
       -3  1    1    2    0  501 0.47390454E+03 0.69594060E+02 -.57763632E+02 0.48245801E+03 0.50000000E+00 0.0000E+00 0.9000E+01
       21  1    1    2  501  503 0.15897757E+02 -.35438084E+02 -.22381313E+02 0.44833939E+02 0.75000000E+00 0.0000E+00 0.9000E+01
#aMCatNLO 2  0  0  2  2 0.58651051D+03 0.00000000D+00  -5  6  0 0.00000000D+00 0.00000000D+00 0.00000000D+00 0.00000000D+00 0.00000000D+00
  <mgrwgt>
 0.3440154035D-02    4    2    0
 0.875383309378405D+03 0.000000000000000D+00 0.000000000000000D+00 0.875383309378405D+03
 0.875383309378405D+03 0.000000000000000D+00 0.000000000000000D+00 -.875383309378405D+03
 0.604170471896444D+03 -.506990532899070D+03 -.614831292938412D+02 0.297619528046340D+03
 0.343784334977265D+03 0.257259366835010D+02 0.809506309062237D+01 0.342724838771682D+03
 0.802811811883101D+03 0.481264596215569D+03 0.533880662032188D+02 -.640344366818022D+03
 0.000000000000000D+00 0.000000000000000D+00 -.000000000000000D+00 -.000000000000000D+00
 0.879808679880487D+03 0.000000000000000D+00 0.000000000000000D+00 0.879808679880487D+03
 0.965183290899160D+03 0.000000000000000D+00 0.000000000000000D+00 -.965183290899160D+03
 0.607678327297943D+03 -.512491925177535D+03 -.492198397084264D+02 0.297619528046340D+03
 0.343799177758578D+03 0.226045352097531D+02 0.150530563125835D+02 0.342724838771682D+03
 0.799719899520069D+03 0.473989632879409D+03 0.696048668963513D+02 -.640344366818022D+03
 0.937945662030574D+02 0.158977570883736D+02 -.354380835005083D+02 -.853746110186734D+02
-.214630264695D-05 0.000000000000D+00 0.000000000000D+00 0.650615556118D-04 0.000000000000D+00  6 2 -4 25 1 -3 21 2 0.35899492D+00 0.50522113D-01 0.26882475D+06 0.26882475D+06 0.26882475D+06 0.10880951D+01  1  2  8  2  6  2       -4 -.277075082167D-05 0.100000000000D+01
-.122002667781D-08 0.000000000000D+00 0.000000000000D+00 0.650615556118D-04 0.000000000000D+00  6 2 -4 25 1 -3 21 2 0.35899492D+00 0.55864590D-01 0.26882475D+06 0.26882475D+06 0.26882475D+06 0.10880951D+01  1  2  9  2  6  2       -4 -.125113062142D-08 0.100000000000D+01
0.121388883000D-08 0.000000000000D+00 0.000000000000D+00 0.650615556118D-04 0.000000000000D+00  6 2 -4 25 1 -3 21 2 0.35899492D+00 0.50522113D-01 0.26882475D+06 0.26882475D+06 0.26882475D+06 0.10880951D+01  1  2 10  2  6  2       -4 0.156705927653D-08 0.100000000000D+01
0.341244284079D-02 0.000000000000D+00 0.000000000000D+00 0.650615556118D-04 0.249381373908D-06  6 2 -4 25 1 -3 21 2 0.36080977D+00 0.55704853D-01 0.28884115D+06 0.28884115D+06 0.28884115D+06 0.10857719D+01  1  2  1  2  6  2       -4 0.344292447001D-02 0.100000000000D+01
  </mgrwgt>
  </event>
  <event>
  5     66 0.18614916E-05 0.35624554E+02 0.75467711E-02 0.92970650E-01
        2 -1    0    0  502    0 0.00000000E+00 0.00000000E+00 0.36945791E+04 0.36945791E+04 0.32000000E+00 0.0000E+00 0.9000E+01
       -4 -1    0    0    0  501 0.00000000E+00 0.00000000E+00 -.52308148E+03 0.52308378E+03 0.15500000E+01 0.0000E+00 0.9000E+01
       25  1    1    2    0    0 0.50676459E+03 0.12136877E+03 0.63496680E+02 0.53962724E+03 0.12500000E+03 0.0000E+00 0.9000E+01
        1  1    1    2  502    0 -.48457839E+03 -.14924416E+03 0.33728762E+04 0.34107747E+04 0.32000000E+00 0.0000E+00 0.9000E+01
       -3  1    1    2    0  501 -.22186201E+02 0.27875386E+02 -.26487526E+03 0.26726096E+03 0.50000000E+00 0.0000E+00 0.9000E+01
#aMCatNLO 1  0  0  5  2 0.22305344D+01 0.00000000D+00  -5  6  0 0.00000000D+00 0.00000000D+00 0.00000000D+00 0.00000000D+00 0.00000000D+00
  <mgrwgt>
 0.7982753548D-02    6    2    0
 0.139016932860288D+04 0.000000000000000D+00 0.000000000000000D+00 0.139016932860288D+04
 0.139016932860288D+04 -.000000000000000D+00 -.000000000000000D+00 -.139016932860288D+04
 0.746200712124990D+03 0.506766163224342D+03 0.121371473148621D+03 -.519275961404392D+03
 0.132661891786273D+04 -.484581145031573D+03 -.149245005683537D+03 0.122589754685687D+04
 0.707519027218036D+03 -.221850181927682D+02 0.278735325349142D+02 -.706621585452473D+03
 0.000000000000000D+00 0.000000000000000D+00 0.000000000000000D+00 -.000000000000000D+00
 0.139016932860288D+04 0.000000000000000D+00 0.000000000000000D+00 0.139016932860288D+04
 0.139016932860288D+04 -.000000000000000D+00 -.000000000000000D+00 -.139016932860288D+04
 0.755555671836454D+03 0.506337925362124D+03 0.121909516520121D+03 -.532915892393956D+03
 0.130473716254504D+04 -.485331497295525D+03 -.148302253775011D+03 0.120199785465043D+04
 0.666542628357693D+03 -.636702508839993D+02 -.540232413347489D+01 -.663472674240852D+03
 0.535031944665604D+02 0.426638228174014D+02 0.317950613883635D+02 -.560928801561827D+01
0.145741951185D+00 0.000000000000D+00 0.000000000000D+00 0.531442784781D-03 0.000000000000D+00  6 2 -4 25 1 -3 21 0 0.56839696D+00 0.80474251D-01 0.29081670D+06 0.29081670D+06 0.29081670D+06 0.10855522D+01  1  2  2  4  6  5       -3 0.688607802528D-02 0.100000000000D+01
0.692697713296D-01 0.000000000000D+00 -.559687467289D-03 0.531442784781D-03 0.000000000000D+00  6 2 -4 25 1 -3 21 2 0.56839696D+00 0.80474251D-01 0.29081670D+06 0.29081670D+06 0.29081670D+06 0.10855522D+01  1  2  3  4  6  5       -3 0.385684820938D-02 0.100000000000D+01
-.888362315478D-01 0.000000000000D+00 0.000000000000D+00 0.531442784781D-03 0.000000000000D+00  6 2 -4 25 1 -3 21 2 0.56839696D+00 0.80474251D-01 0.29081670D+06 0.29081670D+06 0.29081670D+06 0.10855522D+01  1  2 15  4  6  5       -3 -.494628254139D-02 0.100000000000D+01
-.471283099644D-02 0.000000000000D+00 0.000000000000D+00 0.531442784781D-03 0.000000000000D+00  6 2 -4 25 1 -3 21 2 0.56839696D+00 0.80474251D-01 0.29081670D+06 0.29081670D+06 0.29081670D+06 0.10855522D+01  1  2  4  4  6  5       -3 -.262404125795D-03 0.100000000000D+01
-.560406249213D+00 0.000000000000D+00 0.000000000000D+00 0.531442784781D-03 0.000000000000D+00  6 2 -4 25 1 -3 21 2 0.56839696D+00 0.80474251D-01 0.29081670D+06 0.29081670D+06 0.29081670D+06 0.10855522D+01  1  2  5  4  6  5       -3 -.312026703325D-01 0.100000000000D+01
0.604382053896D+00 0.000000000000D+00 -.000000000000D+00 0.531442784781D-03 0.000000000000D+00  6 2 -4 25 1 -3 21 2 0.56839696D+00 0.80474251D-01 0.29081670D+06 0.29081670D+06 0.29081670D+06 0.10855522D+01  1  2  6  4  6  5       -3 0.336511843133D-01 0.100000000000D+01
  </mgrwgt>
  </event>
  <event>
  5     66 0.18614916E-05 0.17334239E+03 0.75467711E-02 0.91501559E-01
        2 -1    0    0  502    0 0.00000000E+00 0.00000000E+00 0.18303833E+04 0.18303833E+04 0.32000000E+00 0.0000E+00 0.9000E+01
       -4 -1    0    0    0  501 0.00000000E+00 0.00000000E+00 -.15555402E+04 0.15555410E+04 0.15500000E+01 0.0000E+00 0.9000E+01
       25  1    1    2    0    0 -.52970135E+03 0.11614472E+03 0.26677921E+03 0.61714606E+03 0.12500000E+03 0.0000E+00 0.9000E+01
        1  1    1    2  502    0 0.36272838E+03 -.16265113E+03 0.13542960E+04 0.14114337E+04 0.32000000E+00 0.0000E+00 0.9000E+01
       -3  1    1    2    0  501 0.16697297E+03 0.46506411E+02 -.13462322E+04 0.13573445E+04 0.50000000E+00 0.0000E+00 0.9000E+01
#aMCatNLO 1  0  0  2  2 0.35314904D+03 0.00000000D+00  -5  6  0 0.00000000D+00 0.00000000D+00 0.00000000D+00 0.00000000D+00 0.00000000D+00
  <mgrwgt>
 0.4871398358D-02    7    4    0
 0.168737551298710D+04 0.000000000000000D+00 0.000000000000000D+00 0.168737551298710D+04
 0.168737551298710D+04 0.000000000000000D+00 0.000000000000000D+00 -.168737551298710D+04
 0.597489030234784D+03 -.529698698398056D+03 0.116134239224143D+03 0.217486249326568D+03
 0.130575385571528D+04 0.362712374344620D+03 -.162643953044493D+03 0.124377643077470D+04
 0.147150814002413D+04 0.166986324053436D+03 0.465097138203497D+02 -.146126268010127D+04
 0.000000000000000D+00 0.000000000000000D+00 0.000000000000000D+00 -.000000000000000D+00
 0.171803196472021D+04 0.000000000000000D+00 0.000000000000000D+00 0.171803196472021D+04
 0.315062092705292D+04 0.000000000000000D+00 0.000000000000000D+00 -.315062092705292D+04
 0.644356787579477D+03 -.587217241810922D+03 0.862920157000561D+02 0.217486249326568D+03
 0.128703066806340D+04 0.242622434795074D+03 -.224949960922815D+03 0.124377643077470D+04
 0.146179080817602D+04 0.311247859504838D+02 -.239790389857174D+02 -.146126268010127D+04
 0.147547462795423D+04 0.313470021065364D+03 0.162636984208476D+03 -.143258896233272D+04
 0.168737551298710D+04 0.000000000000000D+00 0.000000000000000D+00 0.168737551298710D+04
 0.168737551298710D+04 0.000000000000000D+00 0.000000000000000D+00 -.168737551298710D+04
 0.597489030234784D+03 -.529698698398056D+03 0.116134239224143D+03 0.217486249326568D+03
 0.130575385571528D+04 0.362712374344620D+03 -.162643953044493D+03 0.124377643077470D+04
 0.000000000000000D+00 0.000000000000000D+00 0.000000000000000D+00 -.000000000000000D+00
 0.147150814002413D+04 0.166986324053436D+03 0.465097138203497D+02 -.146126268010127D+04
 0.171803196472021D+04 0.000000000000000D+00 0.000000000000000D+00 0.171803196472021D+04
 0.315062092705292D+04 0.000000000000000D+00 0.000000000000000D+00 -.315062092705292D+04
 0.644356787579477D+03 -.587217241810922D+03 0.862920157000561D+02 0.217486249326568D+03
 0.128703066806340D+04 0.242622434795074D+03 -.224949960922815D+03 0.124377643077470D+04
 0.147547462795423D+04 0.313470021065364D+03 0.162636984208476D+03 -.143258896233272D+04
 0.146179080817602D+04 0.311247859504838D+02 -.239790389857174D+02 -.146126268010127D+04
0.406071955161D-01 0.000000000000D+00 0.000000000000D+00 0.136583915188D-03 0.000000000000D+00  6 2 -4 25 1 -3 21 0 0.28159749D+00 0.23931394D+00 0.31773055D+06 0.31773055D+06 0.31773055D+06 0.10827117D+01  1  2  2  2  6  2       -4 0.780074453069D-03 0.100000000000D+01
0.719111145424D-02 0.000000000000D+00 -.155942322902D-03 0.136583915188D-03 0.000000000000D+00  6 2 -4 25 1 -3 21 2 0.28159749D+00 0.23931394D+00 0.31773055D+06 0.31773055D+06 0.31773055D+06 0.10827117D+01  1  2  3  2  6  2       -4 0.161940216855D-03 0.100000000000D+01
-.304887238151D-01 0.000000000000D+00 0.000000000000D+00 0.136583915188D-03 0.000000000000D+00  6 2 -4 25 1 -3 21 2 0.28159749D+00 0.23931394D+00 0.31773055D+06 0.31773055D+06 0.31773055D+06 0.10827117D+01  1  2 15  2  6  2       -4 -.686590741593D-03 0.100000000000D+01
-.151222065037D-01 0.000000000000D+00 0.000000000000D+00 0.136583915188D-03 0.000000000000D+00  6 2 -4 25 1 -3 21 2 0.28159749D+00 0.23931394D+00 0.31773055D+06 0.31773055D+06 0.31773055D+06 0.10827117D+01  1  2  4  2  6  2       -4 -.340544492477D-03 0.100000000000D+01
-.281836190382D+00 0.000000000000D+00 -.167456784097D-01 0.136583915188D-03 0.000000000000D+00  6 2 -4 25 1 -3 21 2 0.28159749D+00 0.44847245D+00 0.31773055D+06 0.31773055D+06 0.31773055D+06 0.10827117D+01  1  2  5  2  6  2       -4 -.108778568270D-03 0.100000000000D+01
0.245212843546D+00 0.000000000000D+00 0.139106102318D-01 0.136583915188D-03 0.000000000000D+00  6 2 -4 25 1 -3 21 2 0.28159749D+00 0.23931394D+00 0.31773055D+06 0.31773055D+06 0.31773055D+06 0.10827117D+01  1  2  6  2  6  2       -4 0.552207003217D-02 0.100000000000D+01
-.183290454490D-01 0.000000000000D+00 -.114494371854D-02 0.136583915188D-03 0.000000000000D+00  6 2 21 25 1 4 -3 2 0.28159749D+00 0.44847245D+00 0.31773055D+06 0.31773055D+06 0.31773055D+06 0.10827117D+01  3  4  5  6  5  2       -4 -.456772541814D-03 0.100000000000D+01
  </mgrwgt>
  </event>
  <event>
  5     66 -.18614916E-05 0.21150573E+02 0.75467711E-02 0.93635220E-01
        2 -1    0    0  502    0 0.00000000E+00 0.00000000E+00 0.13505059E+04 0.13505060E+04 0.32000000E+00 0.0000E+00 0.9000E+01
       -4 -1    0    0    0  501 0.00000000E+00 0.00000000E+00 -.63464884E+03 0.63465073E+03 0.15500000E+01 0.0000E+00 0.9000E+01
       25  1    1    2    0    0 0.51592606E+03 0.44219648E+02 0.58516212E+02 0.53589572E+03 0.12500000E+03 0.0000E+00 0.9000E+01
        1  1    1    2  502    0 0.19919431E+02 0.71203387E+01 0.87016110E+03 0.87041824E+03 0.32000000E+00 0.0000E+00 0.9000E+01
       -3  1    1    2    0  501 -.53584549E+03 -.51339987E+02 -.21282023E+03 0.57884271E+03 0.50000000E+00 0.0000E+00 0.9000E+01
#aMCatNLO 1  0  0  4  5 0.10416390D+03 0.00000000D+00  -5  6  0 0.00000000D+00 0.00000000D+00 0.00000000D+00 0.00000000D+00 0.00000000D+00
  <mgrwgt>
 -.1442729157D-01    1    2    0
 0.925796371711091D+03 0.000000000000000D+00 0.000000000000000D+00 0.925796371711091D+03
 0.925796371711091D+03 -.000000000000000D+00 -.000000000000000D+00 -.925796371711091D+03
 0.551987590154268D+03 0.516002940715737D+03 0.442272297547180D+02 -.144396042207711D+03
 0.596695603476216D+03 0.199163989309823D+02 0.711925480683761D+01 0.596320632271317D+03
 0.702909549791696D+03 -.535919339646720D+03 -.513464845615559D+02 -.451924590063606D+03
 0.000000000000000D+00 0.000000000000000D+00 0.000000000000000D+00 -.000000000000000D+00
 0.925796371711091D+03 0.000000000000000D+00 0.000000000000000D+00 0.925796371711091D+03
 0.925796371711091D+03 -.000000000000000D+00 -.000000000000000D+00 -.925796371711091D+03
 0.541174152206383D+03 0.518065157172496D+03 0.449643833171364D+02 -.826508328635807D+02
 0.189526649085888D+03 0.339809539880244D+02 -.183755160097499D+03 0.316178211983575D+02
 0.654100846466199D+03 -.533359380710440D+03 -.504314095007692D+02 -.375276379874540D+03
 0.466791095663711D+03 -.186867304500811D+02 0.189222186281132D+03 0.426309391539763D+03
-.167514813688D-01 0.000000000000D+00 0.000000000000D+00 0.520826833204D-04 0.000000000000D+00  6 2 -4 25 1 -3 21 2 0.20777029D+00 0.97638431D-01 0.29827463D+06 0.29827463D+06 0.29827463D+06 0.10847372D+01  1  2 14  3  6  4        1 -.144272915699D-01 0.100000000000D+01
  </mgrwgt>
  </event>
  <event>
  6     66 0.18614916E-05 0.19327780E+03 0.75467711E-02 0.94308842E-01
        2 -1    0    0  502    0 0.00000000E+00 0.00000000E+00 0.31678097E+04 0.31678097E+04 0.32000000E+00 0.0000E+00 0.9000E+01
       -4 -1    0    0    0  503 0.00000000E+00 0.00000000E+00 -.20651109E+03 0.20651691E+03 0.15500000E+01 0.0000E+00 0.9000E+01
       25  1    1    2    0    0 -.39387571E+03 -.24441836E+03 0.75192890E+03 0.89213255E+03 0.12500000E+03 0.0000E+00 0.9000E+01
        1  1    1    2  502    0 0.19362157E+01 0.44288851E+01 0.17483410E+04 0.17483477E+04 0.32000000E+00 0.0000E+00 0.9000E+01
       -3  1    1    2    0  501 0.34400994E+03 0.50255586E+02 0.18028262E+03 0.39162551E+03 0.50000000E+00 0.0000E+00 0.9000E+01
       21  1    1    2  501  503 0.47929558E+02 0.18973389E+03 0.28074606E+03 0.34222084E+03 0.75000000E+00 0.0000E+00 0.9000E+01
#aMCatNLO 2  0  0  2  5 0.61716742D+02 0.00000000D+00  -5  6  0 0.00000000D+00 0.00000000D+00 0.00000000D+00 0.00000000D+00 0.00000000D+00
  <mgrwgt>
 0.6000228723D-03    1    2    0
 0.701784747424438D+03 0.000000000000000D+00 0.000000000000000D+00 0.701784747424438D+03
 0.701784747424438D+03 0.000000000000000D+00 0.000000000000000D+00 -.701784747424438D+03
 0.444771973578340D+03 -.378115518343413D+03 -.181795097309328D+03 -.785894767952801D+02
 0.438497382284225D+03 0.167551337553391D+02 0.630917018155344D+02 0.433611181734257D+03
 0.520300138986311D+03 0.361360384588074D+03 0.118703395493794D+03 -.355021704938977D+03
 0.000000000000000D+00 0.000000000000000D+00 0.000000000000000D+00 -.000000000000000D+00
 0.785842532445041D+03 0.000000000000000D+00 0.000000000000000D+00 0.785842532445041D+03
 0.832477899342886D+03 0.000000000000000D+00 0.000000000000000D+00 -.832477899342886D+03
 0.486561257382035D+03 -.393940717902050D+03 -.244440712854976D+03 -.785894767952801D+02
 0.433638111123664D+03 0.193582121871014D+01 0.442798940037145D+01 0.433611181734257D+03
 0.496946889821951D+03 0.344075339132624D+03 0.502788357731437D+02 -.355021704938977D+03
 0.201174173460276D+03 0.479295575507161D+02 0.189733887681460D+03 -.466353668978451D+02
0.550306034378D-03 0.000000000000D+00 0.000000000000D+00 0.187096341551D-04 0.267560232524D-08  6 2 -4 25 1 -3 21 2 0.48735536D+00 0.31771358D-01 0.26441639D+06 0.26441639D+06 0.26441639D+06 0.10886321D+01  1  2  1  2  6  2       -4 0.600022872335D-03 0.100000000000D+01
  </mgrwgt>
  </event>
  <event>
  5     66 0.18614916E-05 0.69115885E+02 0.75467711E-02 0.93951960E-01
        2 -1    0    0  502    0 0.00000000E+00 0.00000000E+00 0.25800384E+04 0.25800384E+04 0.32000000E+00 0.0000E+00 0.9000E+01
       -4 -1    0    0    0  501 0.00000000E+00 0.00000000E+00 -.45515979E+03 0.45516243E+03 0.15500000E+01 0.0000E+00 0.9000E+01
       25  1    1    2    0    0 0.34966378E+03 -.33825980E+03 0.12508428E+04 0.13479307E+04 0.12500000E+03 0.0000E+00 0.9000E+01
        1  1    1    2  502    0 0.48941727E+02 0.48836760E+02 0.11300180E+04 0.11321312E+04 0.32000000E+00 0.0000E+00 0.9000E+01
       -3  1    1    2    0  501 -.39860551E+03 0.28942304E+03 -.25598222E+03 0.55513890E+03 0.50000000E+00 0.0000E+00 0.9000E+01
#aMCatNLO 1  0  0  5  2 0.30049289D+02 0.00000000D+00  -5  6  0 0.00000000D+00 0.00000000D+00 0.00000000D+00 0.00000000D+00 0.00000000D+00
  <mgrwgt>
 0.7172510721D-02    7    2    0
 0.108366680676243D+04 0.000000000000000D+00 0.000000000000000D+00 0.108366680676243D+04
 0.108366680676243D+04 -.000000000000000D+00 -.000000000000000D+00 -.108366680676243D+04
 0.661489930291917D+03 0.349733509611544D+03 -.338285376510747D+03 0.430341032404973D+03
 0.477423145474229D+03 0.489247486953503D+02 0.488198176073294D+02 0.472393749120785D+03
 0.102842053775871D+04 -.398658258306894D+03 0.289465558903418D+03 -.902734781525758D+03
 0.000000000000000D+00 0.000000000000000D+00 0.000000000000000D+00 -.000000000000000D+00
 0.108366680676243D+04 0.000000000000000D+00 0.000000000000000D+00 0.108366680676243D+04
 0.108366680676243D+04 -.000000000000000D+00 -.000000000000000D+00 -.108366680676243D+04
 0.659671199436323D+03 0.348966951870724D+03 -.337728779324423D+03 0.428605214018505D+03
 0.476168326283895D+03 0.483714604492700D+02 0.492215599218283D+02 0.471140865144250D+03
 0.953303386450963D+03 -.391619402632077D+03 0.282355697115887D+03 -.822007816512210D+03
 0.781907013536742D+02 -.571900968791662D+01 0.615152228670788D+01 -.777382626505450D+02
0.816076927641D-03 0.000000000000D+00 0.000000000000D+00 0.461372465854D-04 0.000000000000D+00  6 2 -4 25 1 -3 21 0 0.39692918D+00 0.70024787D-01 0.28310418D+06 0.28310418D+06 0.28310418D+06 0.10864193D+01  1  2  2  4  6  5       -3 0.296008173991D-03 0.100000000000D+01
0.188441939102D-03 0.000000000000D+00 -.313395028013D-05 0.461372465854D-04 0.000000000000D+00  6 2 -4 25 1 -3 21 2 0.39692918D+00 0.70024787D-01 0.28310418D+06 0.28310418D+06 0.28310418D+06 0.10864193D+01  1  2  3  4  6  5       -3 0.806761475893D-04 0.100000000000D+01
-.615911113583D-03 0.000000000000D+00 0.000000000000D+00 0.461372465854D-04 0.000000000000D+00  6 2 -4 25 1 -3 21 2 0.39692918D+00 0.70024787D-01 0.28310418D+06 0.28310418D+06 0.28310418D+06 0.10864193D+01  1  2 15  4  6  5       -3 -.263685123058D-03 0.100000000000D+01
0.223999606517D-01 0.000000000000D+00 0.000000000000D+00 0.461372465854D-04 0.000000000000D+00  6 2 -4 25 1 -3 21 2 0.39692918D+00 0.70024787D-01 0.28178399D+06 0.28178399D+06 0.28178399D+06 0.10865704D+01  1  2 12  4  6  5       -3 0.959504597619D-02 0.100000000000D+01
-.860799785133D-02 0.000000000000D+00 0.000000000000D+00 0.461372465854D-04 0.000000000000D+00  6 2 -4 25 1 -3 21 2 0.39692918D+00 0.70024787D-01 0.28310418D+06 0.28310418D+06 0.28310418D+06 0.10864193D+01  1  2  4  4  6  5       -3 -.368527360954D-02 0.100000000000D+01
-.340324614163D-01 0.000000000000D+00 0.000000000000D+00 0.461372465854D-04 0.000000000000D+00  6 2 -4 25 1 -3 21 2 0.39692918D+00 0.70024787D-01 0.28310418D+06 0.28310418D+06 0.28310418D+06 0.10864193D+01  1  2  5  4  6  5       -3 -.145700468438D-01 0.100000000000D+01
0.367180020927D-01 0.000000000000D+00 -.000000000000D+00 0.461372465854D-04 0.000000000000D+00  6 2 -4 25 1 -3 21 2 0.39692918D+00 0.70024787D-01 0.28310418D+06 0.28310418D+06 0.28310418D+06 0.10864193D+01  1  2  6  4  6  5       -3 0.157197859995D-01 0.100000000000D+01
  </mgrwgt>
  </event>
  <event>
  5     66 -.18614916E-05 0.76819157E+02 0.75467711E-02 0.94472835E-01
        2 -1    0    0  502    0 0.00000000E+00 0.00000000E+00 0.38892961E+04 0.38892961E+04 0.32000000E+00 0.0000E+00 0.9000E+01
       -4 -1    0    0    0  501 0.00000000E+00 0.00000000E+00 -.14133282E+03 0.14134132E+03 0.15500000E+01 0.0000E+00 0.9000E+01
       25  1    1    2    0    0 0.70484440E+02 0.47146553E+03 0.10242207E+04 0.11366182E+04 0.12500000E+03 0.0000E+00 0.9000E+01
        1  1    1    2  502    0 -.69063096E+02 -.33681315E+02 0.22410541E+04 0.22423710E+04 0.32000000E+00 0.0000E+00 0.9000E+01
       -3  1    1    2    0  501 -.14213446E+01 -.43778422E+03 0.48268844E+03 0.65164823E+03 0.50000000E+00 0.0000E+00 0.9000E+01
#aMCatNLO 1  0  0  1  4 0.69521948D+01 0.00000000D+00  -5  6  0 0.00000000D+00 0.00000000D+00 0.00000000D+00 0.00000000D+00 0.00000000D+00
  <mgrwgt>
 -.3102027892D-01   11    2    0
 0.741419141538915D+03 0.000000000000000D+00 0.000000000000000D+00 0.741419141538915D+03
 0.741419141538915D+03 0.000000000000000D+00 0.000000000000000D+00 -.741419141538915D+03
 0.500820461592869D+03 0.704774989519364D+02 0.471540914558106D+03 -.887593532495569D+02
 0.430684689462523D+03 -.690457851626897D+02 -.336728732729907D+02 0.423778384175312D+03
 0.551333132022437D+03 -.143171378924671D+01 -.437868041285115D+03 -.335019030925755D+03
 0.000000000000000D+00 -.000000000000000D+00 0.000000000000000D+00 0.000000000000000D+00
 0.107522330335135D+04 0.000000000000000D+00 0.000000000000000D+00 0.107522330335135D+04
 0.741463489740412D+03 0.000000000000000D+00 0.000000000000000D+00 -.741463489740412D+03
 0.500370694803227D+03 0.726794008605306D+02 0.470728492996906D+03 -.887593532495569D+02
 0.430440367311228D+03 -.671519281365513D+02 -.343716374985262D+02 0.423778384175312D+03
 0.552043518339768D+03 0.994922859319107D+00 -.438763381775442D+03 -.335019030925755D+03
 0.333832212637541D+03 -.652239558329839D+01 0.240652627706130D+01 0.333759813610939D+03
0.161483455980D-03 0.000000000000D+00 0.000000000000D+00 0.699774699829D-05 0.000000000000D+00  6 2 -4 25 1 -3 21 0 0.59835390D+00 0.21744166D-01 0.25380534D+06 0.25380534D+06 0.25380534D+06 0.10899659D+01  1  2  2  1  6  1        2 0.948938222486D-04 0.100000000000D+01
0.391350551409D-04 0.000000000000D+00 -.620138990534D-06 0.699774699829D-05 0.000000000000D+00  6 2 -4 25 1 -3 21 2 0.59835390D+00 0.21744166D-01 0.25380534D+06 0.25380534D+06 0.25380534D+06 0.10899659D+01  1  2  3  1  6  1        2 0.273213193521D-04 0.100000000000D+01
-.980460557768D-04 0.000000000000D+00 0.000000000000D+00 0.699774699829D-05 0.000000000000D+00  6 2 -4 25 1 -3 21 2 0.59835390D+00 0.21744166D-01 0.25380534D+06 0.25380534D+06 0.25380534D+06 0.10899659D+01  1  2 15  1  6  1        2 -.684488009904D-04 0.100000000000D+01
0.189509570530D+00 0.000000000000D+00 0.000000000000D+00 0.699774699829D-05 0.000000000000D+00  6 2 -4 25 1 -3 21 2 0.87226193D+00 0.21744166D-01 0.25684088D+06 0.25684088D+06 0.25684088D+06 0.10895782D+01  1  2 12  1  6  1        2 0.771608180410D-03 0.100000000000D+01
-.266156195406D+00 0.000000000000D+00 0.000000000000D+00 0.699774699829D-05 0.000000000000D+00  6 2 -4 25 1 -3 21 2 0.59835390D+00 0.21744166D-01 0.25380534D+06 0.25380534D+06 0.25380534D+06 0.10899659D+01  1  2  4  1  6  1        2 -.185811375148D+00 0.100000000000D+01
-.202954651952D+00 0.000000000000D+00 -.638162957881D-04 0.699774699829D-05 0.000000000000D+00  6 2 -4 25 1 -3 21 2 0.86774956D+00 0.21744166D-01 0.25380534D+06 0.25380534D+06 0.25380534D+06 0.10899659D+01  1  2  5  1  6  1        2 -.960545333733D-03 0.100000000000D+01
0.221836955272D+00 0.000000000000D+00 0.697463224724D-04 0.699774699829D-05 0.000000000000D+00  6 2 -4 25 1 -3 21 2 0.59835390D+00 0.21744166D-01 0.25380534D+06 0.25380534D+06 0.25380534D+06 0.10899659D+01  1  2  6  1  6  1        2 0.154870825587D+00 0.100000000000D+01
0.117444875099D-01 0.000000000000D+00 0.000000000000D+00 0.699774699829D-05 0.120661282268D-05  6 2 -4 25 1 -3 21 2 0.86774675D+00 0.21745466D-01 0.25684088D+06 0.25684088D+06 0.25684088D+06 0.10895782D+01  1  2 11  1  6  1        2 0.554647943597D-04 0.100000000000D+01
0.863738668369D-02 0.000000000000D+00 0.000000000000D+00 0.699774699829D-05 0.000000000000D+00  6 21 -4 25 1 -3 -2 2 0.87226193D+00 0.21744166D-01 0.25684088D+06 0.25684088D+06 0.25684088D+06 0.10895782D+01  1  2 12  5  6  1        2 0.109425199982D-06 0.100000000000D+01
-.915562524467D-02 0.000000000000D+00 -.287947902450D-05 0.699774699829D-05 0.000000000000D+00  6 21 -4 25 1 -3 -2 2 0.86774956D+00 0.21744166D-01 0.25380534D+06 0.25380534D+06 0.25380534D+06 0.10899659D+01  1  2  5  5  6  1        2 -.139661470674D-06 0.100000000000D+01
0.453283248986D-03 0.000000000000D+00 0.000000000000D+00 0.699774699829D-05 0.462385709742D-07  6 21 -4 25 1 -3 -2 2 0.86774675D+00 0.21745466D-01 0.25684088D+06 0.25684088D+06 0.25684088D+06 0.10895782D+01  1  2 11  5  6  1        2 0.689846452740D-08 0.100000000000D+01
  </mgrwgt>
  </event>
  <event>
  5     66 -.18614916E-05 0.22896497E+02 0.75467711E-02 0.93091767E-01
        2 -1    0    0  502    0 0.00000000E+00 0.00000000E+00 0.12080932E+04 0.12080933E+04 0.32000000E+00 0.0000E+00 0.9000E+01
       -4 -1    0    0    0  501 0.00000000E+00 0.00000000E+00 -.79157677E+03 0.79157829E+03 0.15500000E+01 0.0000E+00 0.9000E+01
       25  1    1    2    0    0 -.50854920E+03 -.25088501E+03 0.70385122E+03 0.91246759E+03 0.12500000E+03 0.0000E+00 0.9000E+01
        1  1    1    2  502    0 0.15695414E+02 0.16701614E+02 0.29110508E+03 0.29200609E+03 0.32000000E+00 0.0000E+00 0.9000E+01
       -3  1    1    2    0  501 0.49285378E+03 0.23418339E+03 -.57843985E+03 0.79519785E+03 0.50000000E+00 0.0000E+00 0.9000E+01
#aMCatNLO 1  0  0  5  2 0.16340821D+02 0.00000000D+00  -5  6  0 0.00000000D+00 0.00000000D+00 0.00000000D+00 0.00000000D+00 0.00000000D+00
  <mgrwgt>
 -.3686703661D-02    6    2    0
 0.977905965222298D+03 0.000000000000000D+00 0.000000000000000D+00 0.977905965222298D+03
 0.977905965222298D+03 -.000000000000000D+00 -.000000000000000D+00 -.977905965222298D+03
 0.783230789625037D+03 -.508614629259048D+03 -.250908195338836D+03 0.525529928959474D+03
 0.236325080831571D+03 0.156798637800739D+02 0.166850671982006D+02 0.235213295190723D+03
 0.936256059987989D+03 0.492934765478974D+03 0.234223128140636D+03 -.760743224150197D+03
 0.000000000000000D+00 0.000000000000000D+00 0.000000000000000D+00 -.000000000000000D+00
 0.977905965222298D+03 0.000000000000000D+00 0.000000000000000D+00 0.977905965222298D+03
 0.977905965222298D+03 -.000000000000000D+00 -.000000000000000D+00 -.977905965222298D+03
 0.781598873722783D+03 -.507726260746127D+03 -.250486077714741D+03 0.524158915239036D+03
 0.235940274123751D+03 0.159479732624746D+02 0.168124622331015D+02 0.234799523457929D+03
 0.712489882108100D+03 0.402453343230652D+03 0.191116111390124D+03 -.556010584967591D+03
 0.225782900489963D+03 0.893249442530005D+02 0.425575040915160D+02 -.202947853729374D+03
0.727995607264D-04 0.000000000000D+00 0.000000000000D+00 0.420806725243D-04 0.000000000000D+00  6 2 -4 25 1 -3 21 0 0.18586061D+00 0.12178116D+00 0.33027829D+06 0.33027829D+06 0.33027829D+06 0.10814758D+01  1  2  2  4  6  5       -3 0.339111245480D-04 0.100000000000D+01
0.328350113748D-04 0.000000000000D+00 -.279569481754D-06 0.420806725243D-04 0.000000000000D+00  6 2 -4 25 1 -3 21 2 0.18586061D+00 0.12178116D+00 0.33027829D+06 0.33027829D+06 0.33027829D+06 0.10814758D+01  1  2  3  4  6  5       -3 0.178889246639D-04 0.100000000000D+01
-.542629412732D-04 0.000000000000D+00 0.000000000000D+00 0.420806725243D-04 0.000000000000D+00  6 2 -4 25 1 -3 21 2 0.18586061D+00 0.12178116D+00 0.33027829D+06 0.33027829D+06 0.33027829D+06 0.10814758D+01  1  2 15  4  6  5       -3 -.295631287407D-04 0.100000000000D+01
-.760742721172D-02 0.000000000000D+00 0.000000000000D+00 0.420806725243D-04 0.000000000000D+00  6 2 -4 25 1 -3 21 2 0.18586061D+00 0.12178116D+00 0.33027829D+06 0.33027829D+06 0.33027829D+06 0.10814758D+01  1  2  4  4  6  5       -3 -.414462144456D-02 0.100000000000D+01
-.297105802344D-02 0.000000000000D+00 0.000000000000D+00 0.420806725243D-04 0.000000000000D+00  6 2 -4 25 1 -3 21 2 0.18586061D+00 0.12178116D+00 0.33027829D+06 0.33027829D+06 0.33027829D+06 0.10814758D+01  1  2  5  4  6  5       -3 -.161866955204D-02 0.100000000000D+01
0.377074757291D-02 0.000000000000D+00 -.000000000000D+00 0.420806725243D-04 0.000000000000D+00  6 2 -4 25 1 -3 21 2 0.18586061D+00 0.12178116D+00 0.33027829D+06 0.33027829D+06 0.33027829D+06 0.10814758D+01  1  2  6  4  6  5       -3 0.205435041542D-02 0.100000000000D+01
  </mgrwgt>
  </event>
  <event>
  6     66 0.18614916E-05 0.72012578E+02 0.75467711E-02 0.91777748E-01
        2 -1    0    0  503    0 0.00000000E+00 0.00000000E+00 0.23987628E+04 0.23987628E+04 0.32000000E+00 0.0000E+00 0.9000E+01
       -4 -1    0    0    0  501 0.00000000E+00 0.00000000E+00 -.29122194E+03 0.29122607E+03 0.15500000E+01 0.0000E+00 0.9000E+01
       25  1    1    2    0    0 -.53461107E+03 -.31639283E+02 0.29534213E+03 0.62422914E+03 0.12500000E+03 0.0000E+00 0.9000E+01
        1  1    1    2  502    0 0.60157834E+03 0.88233216E+02 0.14012251E+04 0.15274533E+04 0.32000000E+00 0.0000E+00 0.9000E+01
       -3  1    1    2    0  501 0.24710393E+02 -.36194556E+02 -.50791014E+02 0.67086709E+02 0.50000000E+00 0.0000E+00 0.9000E+01
       21  1    1    2  503  502 -.91677662E+02 -.20399377E+02 0.46176464E+03 0.47121977E+03 0.75000000E+00 0.0000E+00 0.9000E+01
#aMCatNLO 2  0  0  1  4 0.32468953D+02 0.00000000D+00  -5  6  0 0.00000000D+00 0.00000000D+00 0.00000000D+00 0.00000000D+00 0.00000000D+00
  <mgrwgt>
 0.3716027237D-03    1    2    0
 0.742552375437562D+03 0.000000000000000D+00 0.000000000000000D+00 0.742552375437562D+03
 0.742552375437562D+03 0.000000000000000D+00 0.000000000000000D+00 -.742552375437562D+03
 0.638786903913655D+03 -.572946003132110D+03 -.401775318576457D+02 -.250084689736021D+03
 0.690887781478155D+03 0.557850635199319D+03 0.785019954567623D+02 0.399957537887248D+03
 0.155430065483313D+03 0.150953679327912D+02 -.383244635991166D+02 -.149872848151227D+03
 0.000000000000000D+00 -.000000000000000D+00 -.000000000000000D+00 0.000000000000000D+00
 0.923661161230083D+03 0.000000000000000D+00 0.000000000000000D+00 0.923661161230083D+03
 0.756312634702841D+03 0.000000000000000D+00 0.000000000000000D+00 -.756312634702841D+03
 0.604142364344168D+03 -.534620375443693D+03 -.316496210948012D+02 -.250084689736021D+03
 0.727783215885928D+03 0.601595245488802D+03 0.882356946915662D+02 0.399957537887248D+03
 0.156146007215642D+03 0.247027919945136D+02 -.361866967835209D+02 -.149872848151227D+03
 0.191902208487184D+03 -.916776620396218D+02 -.203993768132441D+02 0.167348526527242D+03
0.251126893643D-03 0.000000000000D+00 0.000000000000D+00 0.221407097734D-05 0.578028590016D-09  6 2 -4 25 1 -3 21 2 0.36904040D+00 0.44803652D-01 0.41972023D+06 0.41972023D+06 0.41972023D+06 0.10739242D+01  1  2  1  1  6  1        2 0.371602723711D-03 0.100000000000D+01
  </mgrwgt>
  </event>
  <event>
  6     66 0.18614916E-05 0.81155805E+02 0.75467711E-02 0.94405425E-01
        2 -1    0    0  502    0 0.00000000E+00 0.00000000E+00 0.10360511E+04 0.10360511E+04 0.32000000E+00 0.0000E+00 0.9000E+01
       -4 -1    0    0    0  501 -.00000000E+00 -.00000000E+00 -.17916566E+04 0.17916573E+04 0.15500000E+01 0.0000E+00 0.9000E+01
       25  1    1    2    0    0 0.43489702E+03 -.22702995E+03 0.31727980E+03 0.59746923E+03 0.12500000E+03 0.0000E+00 0.9000E+01
        1  1    1    2  503    0 -.36062088E+03 0.13306297E+03 0.43688482E+03 0.58191204E+03 0.32000000E+00 0.0000E+00 0.9000E+01
       -3  1    1    2    0  501 -.31899301E+02 0.77674056E+02 -.15703641E+04 0.15726076E+04 0.50000000E+00 0.0000E+00 0.9000E+01
       21  1    1    2  502  503 -.42376837E+02 0.16292920E+02 0.60593973E+02 0.75719532E+02 0.75000000E+00 0.0000E+00 0.9000E+01
#aMCatNLO 2  0  0  4  1 0.53220090D+01 0.00000000D+00  -5  6  0 0.00000000D+00 0.00000000D+00 0.00000000D+00 0.00000000D+00 0.00000000D+00
  <mgrwgt>
 0.3304572307D-02    5    2    0
 0.136244219926049D+04 0.000000000000000D+00 0.000000000000000D+00 0.136244219926049D+04
 0.136244219926049D+04 -.000000000000000D+00 -.000000000000000D+00 -.136244219926049D+04
 0.708221234012594D+03 0.434730226348535D+03 -.226993350402459D+03 0.495414942728154D+03
 0.819935295771093D+03 -.402854468277893D+03 0.149302804909369D+03 0.698362970872569D+03
 0.119672786873729D+04 -.318757580706420D+02 0.776905454930899D+02 -.119377791360072D+04
 0.000000000000000D+00 0.000000000000000D+00 0.000000000000000D+00 0.000000000000000D+00
 0.136244219926049D+04 0.000000000000000D+00 0.000000000000000D+00 0.136244219926049D+04
 0.136244219926049D+04 -.000000000000000D+00 -.000000000000000D+00 -.136244219926049D+04
 0.708231644379956D+03 0.434708541873491D+03 -.226985313870158D+03 0.495452533559599D+03
 0.725678522207314D+03 -.360953480228348D+03 0.133185168307779D+03 0.615291486733616D+03
 0.119666636596841D+04 -.319123985394823D+02 0.777041249000515D+02 -.119371439600643D+04
 0.943078659652973D+02 -.418426631056604D+02 0.160960206623271D+02 0.829703757132184D+02
-.437481647599D+00 0.000000000000D+00 0.000000000000D+00 0.141035360550D-03 0.000000000000D+00  6 2 -4 25 1 -3 21 2 0.15939253D+00 0.27563953D+00 0.25992496D+06 0.25992496D+06 0.25992496D+06 0.10891894D+01  1  2 13  3  6  4        1 -.146794776213D-01 0.100000000000D+01
-.123411948339D+00 0.000000000000D+00 0.000000000000D+00 0.141035360550D-03 0.000000000000D+00  6 2 -4 25 1 -3 21 2 0.15939253D+00 0.27563953D+00 0.25995257D+06 0.25995257D+06 0.25995257D+06 0.10891859D+01  1  2  8  3  6  4        1 -.414097441075D-02 0.100000000000D+01
-.867586699610D-01 0.000000000000D+00 0.000000000000D+00 0.141035360550D-03 0.000000000000D+00  6 2 -4 25 1 -3 21 2 0.15939253D+00 0.27563953D+00 0.25995257D+06 0.25995257D+06 0.25995257D+06 0.10891859D+01  1  2  9  3  6  4        1 -.291110736890D-02 0.100000000000D+01
0.973071571058D-01 0.000000000000D+00 0.000000000000D+00 0.141035360550D-03 0.000000000000D+00  6 2 -4 25 1 -3 21 2 0.15939253D+00 0.27563953D+00 0.25995257D+06 0.25995257D+06 0.25995257D+06 0.10891859D+01  1  2 10  3  6  4        1 0.326505215242D-02 0.100000000000D+01
0.648827431030D+00 0.000000000000D+00 0.000000000000D+00 0.141035360550D-03 0.306968636549D-04  6 2 -4 25 1 -3 21 2 0.15939253D+00 0.27563953D+00 0.25992496D+06 0.25992496D+06 0.25992496D+06 0.10891894D+01  1  2  1  3  6  4        1 0.217710795554D-01 0.100000000000D+01
  </mgrwgt>
  </event>
  <event>
  5     66 0.18614916E-05 0.11331571E+03 0.75467711E-02 0.91434057E-01
        2 -1    0    0  502    0 0.00000000E+00 0.00000000E+00 0.17552354E+04 0.17552354E+04 0.32000000E+00 0.0000E+00 0.9000E+01
       -4 -1    0    0    0  501 0.00000000E+00 0.00000000E+00 -.10541531E+04 0.10541542E+04 0.15500000E+01 0.0000E+00 0.9000E+01
       25  1    1    2    0    0 -.54800046E+03 0.29330387E+03 -.13062971E+03 0.64731815E+03 0.12500000E+03 0.0000E+00 0.9000E+01
        1  1    1    2  502    0 0.45580667E+03 -.22743015E+03 0.14482415E+04 0.15352159E+04 0.32000000E+00 0.0000E+00 0.9000E+01
       -3  1    1    2    0  501 0.92193793E+02 -.65873729E+02 -.61652954E+03 0.62685562E+03 0.50000000E+00 0.0000E+00 0.9000E+01
#aMCatNLO 1  0  0  2  1 0.11024518D+03 0.00000000D+00  -5  6  0 0.00000000D+00 0.00000000D+00 0.00000000D+00 0.00000000D+00 0.00000000D+00
  <mgrwgt>
 0.3135676287D-02    7    4    0
 0.136025308366791D+04 0.000000000000000D+00 0.000000000000000D+00 0.136025308366791D+04
 0.136025308366791D+04 0.000000000000000D+00 0.000000000000000D+00 -.136025308366791D+04
 0.702112076848357D+03 -.548000440427724D+03 0.293304824420590D+03 -.301668967112863D+03
 0.121214423032435D+04 0.455801532774105D+03 -.227427582759520D+03 0.109991603880912D+04
 0.806249860163117D+03 0.921989076536189D+02 -.658772416610696D+02 -.798247071696260D+03
 0.000000000000000D+00 0.000000000000000D+00 0.000000000000000D+00 -.000000000000000D+00
 0.136723238212455D+04 0.000000000000000D+00 0.000000000000000D+00 0.136723238212455D+04
 0.187963107800908D+04 0.000000000000000D+00 0.000000000000000D+00 -.187963107800908D+04
 0.719800858468637D+03 -.575222634616959D+03 0.283906728975502D+03 -.301668967112863D+03
 0.119868709417588D+04 0.409646724808730D+03 -.243361907799337D+03 0.109991603880912D+04
 0.804251073620445D+03 0.613662398632890D+02 -.765218044287099D+02 -.798247071696260D+03
 0.524124433868675D+03 0.104209669944940D+03 0.359769832525453D+02 -.512398695884535D+03
 0.136025308366791D+04 0.000000000000000D+00 0.000000000000000D+00 0.136025308366791D+04
 0.136025308366791D+04 0.000000000000000D+00 0.000000000000000D+00 -.136025308366791D+04
 0.702112076848357D+03 -.548000440427724D+03 0.293304824420590D+03 -.301668967112863D+03
 0.121214423032435D+04 0.455801532774105D+03 -.227427582759520D+03 0.109991603880912D+04
 0.000000000000000D+00 0.000000000000000D+00 0.000000000000000D+00 -.000000000000000D+00
 0.806249860163117D+03 0.921989076536189D+02 -.658772416610696D+02 -.798247071696260D+03
 0.136723238212455D+04 0.000000000000000D+00 0.000000000000000D+00 0.136723238212455D+04
 0.187963107800908D+04 0.000000000000000D+00 0.000000000000000D+00 -.187963107800908D+04
 0.719800858468637D+03 -.575222634616959D+03 0.283906728975502D+03 -.301668967112863D+03
 0.119868709417588D+04 0.409646724808730D+03 -.243361907799337D+03 0.109991603880912D+04
 0.524124433868675D+03 0.104209669944940D+03 0.359769832525453D+02 -.512398695884535D+03
 0.804251073620445D+03 0.613662398632890D+02 -.765218044287099D+02 -.798247071696260D+03
0.525237040098D-02 0.000000000000D+00 0.000000000000D+00 0.444922852774D-04 0.000000000000D+00  6 2 -4 25 1 -3 21 0 0.27003630D+00 0.16217749D+00 0.39482801D+06 0.39482801D+06 0.39482801D+06 0.10758353D+01  1  2  2  2  6  2       -4 0.483360034392D-03 0.100000000000D+01
0.115969765129D-02 0.000000000000D+00 -.201704853207D-04 0.444922852774D-04 0.000000000000D+00  6 2 -4 25 1 -3 21 2 0.27003630D+00 0.16217749D+00 0.39482801D+06 0.39482801D+06 0.39482801D+06 0.10758353D+01  1  2  3  2  6  2       -4 0.123524117231D-03 0.100000000000D+01
-.372795703330D-02 0.000000000000D+00 0.000000000000D+00 0.444922852774D-04 0.000000000000D+00  6 2 -4 25 1 -3 21 2 0.27003630D+00 0.16217749D+00 0.39482801D+06 0.39482801D+06 0.39482801D+06 0.10758353D+01  1  2 15  2  6  2       -4 -.397079877762D-03 0.100000000000D+01
-.105056208839D-01 0.000000000000D+00 0.000000000000D+00 0.444922852774D-04 0.000000000000D+00  6 2 -4 25 1 -3 21 2 0.27003630D+00 0.16217749D+00 0.39482801D+06 0.39482801D+06 0.39482801D+06 0.10758353D+01  1  2  4  2  6  2       -4 -.111899644206D-02 0.100000000000D+01
-.114339606516D+00 0.000000000000D+00 -.350738322360D-02 0.444922852774D-04 0.000000000000D+00  6 2 -4 25 1 -3 21 2 0.27003630D+00 0.22448682D+00 0.39482801D+06 0.39482801D+06 0.39482801D+06 0.10758353D+01  1  2  5  2  6  2       -4 -.361285303228D-02 0.100000000000D+01
0.109802751281D+00 0.000000000000D+00 0.332983458350D-02 0.444922852774D-04 0.000000000000D+00  6 2 -4 25 1 -3 21 2 0.27003630D+00 0.16217749D+00 0.39482801D+06 0.39482801D+06 0.39482801D+06 0.10758353D+01  1  2  6  2  6  2       -4 0.116955379762D-01 0.100000000000D+01
-.459483468988D-02 0.000000000000D+00 -.143675058082D-03 0.444922852774D-04 0.000000000000D+00  6 2 21 25 1 4 -3 2 0.27003630D+00 0.22448682D+00 0.39482801D+06 0.39482801D+06 0.39482801D+06 0.10758353D+01  3  4  5  6  5  2       -4 -.403781648877D-02 0.100000000000D+01
  </mgrwgt>
  </event>
  <event>
  5     66 0.18614916E-05 0.61969028E+02 0.75467711E-02 0.93242542E-01
        2 -1    0    0  502    0 0.00000000E+00 0.00000000E+00 0.15379735E+04 0.15379735E+04 0.32000000E+00 0.0000E+00 0.9000E+01
       -4 -1    0    0    0  501 0.00000000E+00 0.00000000E+00 -.78299753E+03 0.78299907E+03 0.15500000E+01 0.0000E+00 0.9000E+01
       25  1    1    2    0    0 0.17223460E+03 -.42684970E+03 0.45572734E+03 0.65968010E+03 0.12500000E+03 0.0000E+00 0.9000E+01
        1  1    1    2  502    0 -.20361942E+02 0.58539152E+02 0.92087482E+03 0.92295827E+03 0.32000000E+00 0.0000E+00 0.9000E+01
       -3  1    1    2    0  501 -.15187265E+03 0.36831055E+03 -.62162623E+03 0.73833419E+03 0.50000000E+00 0.0000E+00 0.9000E+01
#aMCatNLO 1  0  0  2  5 0.33411198D+02 0.00000000D+00  -5  6  0 0.00000000D+00 0.00000000D+00 0.00000000D+00 0.00000000D+00 0.00000000D+00
  <mgrwgt>
 0.2875737498D-02    7    4    0
 0.109737470599922D+04 0.000000000000000D+00 0.000000000000000D+00 0.109737470599922D+04
 0.109737470599922D+04 0.000000000000000D+00 0.000000000000000D+00 -.109737470599922D+04
 0.540940808939865D+03 0.172251157266741D+03 -.426888595908693D+03 0.255122763155091D+03
 0.659155489479293D+03 -.203585480039496D+02 0.585293935589953D+02 0.656236084746544D+03
 0.994653113579282D+03 -.151892609262791D+03 0.368359202349698D+03 -.911358847901635D+03
 0.000000000000000D+00 -.000000000000000D+00 -.000000000000000D+00 -.000000000000000D+00
 0.115283945715863D+04 0.000000000000000D+00 0.000000000000000D+00 0.115283945715863D+04
 0.121751219335467D+04 0.000000000000000D+00 0.000000000000000D+00 -.121751219335467D+04
 0.536414224350765D+03 0.204819805399943D+03 -.406296004314433D+03 0.255122763155091D+03
 0.661851914958498D+03 0.195757577792419D+02 0.837791627919778D+02 0.656236084746544D+03
 0.100210555733175D+04 -.915302138125278D+02 0.406525298531360D+03 -.911358847901635D+03
 0.169979953872284D+03 -.132865349366657D+03 -.840084570089044D+02 -.646727361960443D+02
 0.109737470599922D+04 0.000000000000000D+00 0.000000000000000D+00 0.109737470599922D+04
 0.109737470599922D+04 0.000000000000000D+00 0.000000000000000D+00 -.109737470599922D+04
 0.540940808939865D+03 0.172251157266741D+03 -.426888595908693D+03 0.255122763155091D+03
 0.659155489479293D+03 -.203585480039496D+02 0.585293935589953D+02 0.656236084746544D+03
 0.000000000000000D+00 -.000000000000000D+00 -.000000000000000D+00 -.000000000000000D+00
 0.994653113579282D+03 -.151892609262791D+03 0.368359202349698D+03 -.911358847901635D+03
 0.115283945715863D+04 0.000000000000000D+00 0.000000000000000D+00 0.115283945715863D+04
 0.121751219335467D+04 0.000000000000000D+00 0.000000000000000D+00 -.121751219335467D+04
 0.536414224350765D+03 0.204819805399943D+03 -.406296004314433D+03 0.255122763155091D+03
 0.661851914958498D+03 0.195757577792419D+02 0.837791627919778D+02 0.656236084746544D+03
 0.169979953872284D+03 -.132865349366657D+03 -.840084570089044D+02 -.646727361960443D+02
 0.100210555733175D+04 -.915302138125278D+02 0.406525298531360D+03 -.911358847901635D+03
0.107324271322D-01 0.000000000000D+00 0.000000000000D+00 0.255436014762D-03 0.000000000000D+00  6 2 -4 25 1 -3 21 0 0.23661142D+00 0.12046128D+00 0.21968728D+06 0.21968728D+06 0.21968728D+06 0.10947074D+01  1  2  2  2  6  2       -4 0.343067336126D-02 0.100000000000D+01
0.327381506430D-02 0.000000000000D+00 -.412153461005D-04 0.255436014762D-03 0.000000000000D+00  6 2 -4 25 1 -3 21 2 0.23661142D+00 0.12046128D+00 0.21968728D+06 0.21968728D+06 0.21968728D+06 0.10947074D+01  1  2  3  2  6  2       -4 0.125409863275D-02 0.100000000000D+01
-.728162491342D-02 0.000000000000D+00 0.000000000000D+00 0.255436014762D-03 0.000000000000D+00  6 2 -4 25 1 -3 21 2 0.23661142D+00 0.12046128D+00 0.21968728D+06 0.21968728D+06 0.21968728D+06 0.10947074D+01  1  2 15  2  6  2       -4 -.278936826570D-02 0.100000000000D+01
-.932417996255D-03 0.000000000000D+00 0.000000000000D+00 0.255436014762D-03 0.000000000000D+00  6 2 -4 25 1 -3 21 2 0.23661142D+00 0.12046128D+00 0.21968728D+06 0.21968728D+06 0.21968728D+06 0.10947074D+01  1  2  4  2  6  2       -4 -.357180876528D-03 0.100000000000D+01
-.484281387198D-01 0.000000000000D+00 -.155521346556D-01 0.255436014762D-03 0.000000000000D+00  6 2 -4 25 1 -3 21 2 0.23661142D+00 0.13825323D+00 0.21968728D+06 0.21968728D+06 0.21968728D+06 0.10947074D+01  1  2  5  2  6  2       -4 -.121790610789D-01 0.100000000000D+01
0.502395284766D-01 0.000000000000D+00 0.154057226878D-01 0.255436014762D-03 0.000000000000D+00  6 2 -4 25 1 -3 21 2 0.23661142D+00 0.12046128D+00 0.21968728D+06 0.21968728D+06 0.21968728D+06 0.10947074D+01  1  2  6  2  6  2       -4 0.192452300252D-01 0.100000000000D+01
-.938023267798D-03 0.000000000000D+00 -.330960430652D-03 0.255436014762D-03 0.000000000000D+00  6 2 21 25 1 4 -3 2 0.23661142D+00 0.13825323D+00 0.21968728D+06 0.21968728D+06 0.21968728D+06 0.10947074D+01  3  4  5  6  5  2       -4 -.572865429989D-02 0.100000000000D+01
  </mgrwgt>
  </event>
  <event>
  6     66 0.18614916E-05 0.77563065E+02 0.75467711E-02 0.89685619E-01
        2 -1    0    0  502    0 0.00000000E+00 0.00000000E+00 0.19975346E+04 0.19975346E+04 0.32000000E+00 0.0000E+00 0.9000E+01
       -4 -1    0    0    0  501 0.00000000E+00 0.00000000E+00 -.11116082E+04 0.11116093E+04 0.15500000E+01 0.0000E+00 0.9000E+01
       25  1    1    2    0    0 0.52324616E+03 -.48212603E+03 0.66213277E+03 0.97993717E+03 0.12500000E+03 0.0000E+00 0.9000E+01
        1  1    1    2  502    0 -.10808470E+03 -.70970047E+02 0.10213529E+04 0.10295051E+04 0.32000000E+00 0.0000E+00 0.9000E+01
       -3  1    1    2    0  503 0.81669511E+01 0.14213204E+03 -.28320698E+03 0.31697738E+03 0.50000000E+00 0.0000E+00 0.9000E+01
       21  1    1    2  503  501 -.42332841E+03 0.41096404E+03 -.51435232E+03 0.78272425E+03 0.75000000E+00 0.0000E+00 0.9000E+01
#aMCatNLO 2  0  0  5  2 0.62743425D+00 0.00000000D+00  -5  6  0 0.00000000D+00 0.00000000D+00 0.00000000D+00 0.00000000D+00 0.00000000D+00
  <mgrwgt>
 0.4507538493D-03    1    2    0
 0.149012671902127D+04 0.000000000000000D+00 0.000000000000000D+00 0.149012671902127D+04
 0.149012671902127D+04 -.000000000000000D+00 -.000000000000000D+00 -.149012671902127D+04
 0.833874714261923D+03 0.526262176602733D+03 -.486171370204870D+03 0.407930826680058D+03
 0.777941921430038D+03 -.105275558628385D+03 -.746779664181794D+02 0.767159625635621D+03
 0.136843680235057D+04 -.420986617974349D+03 0.560849336623050D+03 -.117509045231568D+04
 0.000000000000000D+00 -.000000000000000D+00 0.000000000000000D+00 0.000000000000000D+00
 0.149012671902127D+04 0.000000000000000D+00 0.000000000000000D+00 0.149012671902127D+04
 0.149012671902127D+04 -.000000000000000D+00 -.000000000000000D+00 -.149012671902127D+04
 0.825596761227815D+03 0.523271707990085D+03 -.482187390035462D+03 0.399583599085079D+03
 0.770298199249207D+03 -.108065581568892D+03 -.709610251935963D+02 0.759371897524672D+03
 0.414400638184387D+03 0.821107033836006D+01 0.141966423151173D+03 -.389237719073046D+03
 0.969957839381125D+03 -.423417196759553D+03 0.411181992077886D+03 -.769717777536705D+03
0.729133940813D-02 0.000000000000D+00 0.000000000000D+00 0.866729599835D-05 0.270931279790D-09  6 2 -4 25 1 -3 21 2 0.30731310D+00 0.17101674D+00 0.62738698D+06 0.62738698D+06 0.62738698D+06 0.10616133D+01  1  2  1  4  6  5       -3 0.450753849302D-03 0.100000000000D+01
  </mgrwgt>
  </event>
  <event>
  5     66 0.18614916E-05 0.19207158E+03 0.75467711E-02 0.93325488E-01
        2 -1    0    0  502    0 0.00000000E+00 0.00000000E+00 0.31854888E+04 0.31854888E+04 0.32000000E+00 0.0000E+00 0.9000E+01
       -4 -1    0    0    0  501 0.00000000E+00 0.00000000E+00 -.95113135E+03 0.95113262E+03 0.15500000E+01 0.0000E+00 0.9000E+01
       25  1    1    2    0    0 -.17192600E+03 0.47066441E+03 -.61608956E+03 0.80391224E+03 0.12500000E+03 0.0000E+00 0.9000E+01
        1  1    1    2  502    0 0.78956819E+02 -.30257159E+03 0.30439980E+04 0.30600176E+04 0.32000000E+00 0.0000E+00 0.9000E+01
       -3  1    1    2    0  501 0.92969184E+02 -.16809282E+03 -.19355100E+03 0.27269160E+03 0.50000000E+00 0.0000E+00 0.9000E+01
#aMCatNLO 1  0  0  1  4 0.85212775D+02 0.00000000D+00  -5  6  0 0.00000000D+00 0.00000000D+00 0.00000000D+00 0.00000000D+00 0.00000000D+00
  <mgrwgt>
 0.1008405779D-02    9    2    0
 0.174063807993070D+04 0.000000000000000D+00 0.000000000000000D+00 0.174063807993070D+04
 0.174063807993070D+04 0.000000000000000D+00 0.000000000000000D+00 -.174063807993070D+04
 0.135070182914259D+04 -.171918813786236D+03 0.470649104644542D+03 -.124808003469840D+04
 0.168236565312528D+04 0.789571527118325D+02 -.302572864604589D+03 0.165304858381605D+04
 0.448208677593524D+03 0.929616610744038D+02 -.168076240039954D+03 -.404968549117650D+03
 0.000000000000000D+00 0.000000000000000D+00 0.000000000000000D+00 0.000000000000000D+00
 0.244336404939764D+04 0.000000000000000D+00 0.000000000000000D+00 0.244336404939764D+04
 0.174374459984364D+04 0.000000000000000D+00 0.000000000000000D+00 -.174374459984364D+04
 0.134297823696911D+04 -.187609579719838D+03 0.441660975814288D+03 -.124808003469840D+04
 0.168846284697063D+04 0.593219771530420D+02 -.338848149132541D+03 0.165304858381605D+04
 0.450877815626010D+03 0.877244556999979D+02 -.177751789643219D+03 -.404968549117650D+03
 0.704789749675543D+03 0.405631468667978D+02 0.749389629614709D+02 0.699619449553996D+03
0.150622882218D-02 0.000000000000D+00 0.000000000000D+00 0.149230629438D-04 0.000000000000D+00  6 2 -4 25 1 -3 21 0 0.49007530D+00 0.14632800D+00 0.26071175D+06 0.26071175D+06 0.26071175D+06 0.10890910D+01  1  2  2  1  6  1        2 0.291738597003D-04 0.100000000000D+01
0.353619766149D-04 0.000000000000D+00 -.578431527632D-05 0.149230629438D-04 0.000000000000D+00  6 2 -4 25 1 -3 21 2 0.49007530D+00 0.14632800D+00 0.26071175D+06 0.26071175D+06 0.26071175D+06 0.10890910D+01  1  2  3  1  6  1        2 0.812396089364D-06 0.100000000000D+01
-.108617666987D-02 0.000000000000D+00 0.000000000000D+00 0.149230629438D-04 0.000000000000D+00  6 2 -4 25 1 -3 21 2 0.49007530D+00 0.14632800D+00 0.26071175D+06 0.26071175D+06 0.26071175D+06 0.10890910D+01  1  2 15  1  6  1        2 -.249535168403D-04 0.100000000000D+01
0.584494532084D-01 0.000000000000D+00 0.000000000000D+00 0.149230629438D-04 0.000000000000D+00  6 2 -4 25 1 -3 21 2 0.74380789D+00 0.14632800D+00 0.31545323D+06 0.31545323D+06 0.31545323D+06 0.10829417D+01  1  2 12  1  6  1        2 0.507904470193D-04 0.100000000000D+01
-.248341874220D-01 0.000000000000D+00 0.000000000000D+00 0.149230629438D-04 0.000000000000D+00  6 2 -4 25 1 -3 21 2 0.49007530D+00 0.14632800D+00 0.26071175D+06 0.26071175D+06 0.26071175D+06 0.10890910D+01  1  2  4  1  6  1        2 -.570533626101D-03 0.100000000000D+01
-.777113459624D-01 0.000000000000D+00 -.806323260843D-03 0.149230629438D-04 0.000000000000D+00  6 2 -4 25 1 -3 21 2 0.68808697D+00 0.14632800D+00 0.26071175D+06 0.26071175D+06 0.26071175D+06 0.10890910D+01  1  2  5  1  6  1        2 -.170952470750D-03 0.100000000000D+01
0.737421984230D-01 0.000000000000D+00 0.762022302905D-03 0.149230629438D-04 0.000000000000D+00  6 2 -4 25 1 -3 21 2 0.49007530D+00 0.14632800D+00 0.26071175D+06 0.26071175D+06 0.26071175D+06 0.10890910D+01  1  2  6  1  6  1        2 0.169413249356D-02 0.100000000000D+01
0.287002858548D-02 0.000000000000D+00 0.000000000000D+00 0.149230629438D-04 0.000000000000D+00  6 21 -4 25 1 -3 -2 2 0.74380789D+00 0.14632800D+00 0.31545323D+06 0.31545323D+06 0.31545323D+06 0.10829417D+01  1  2 12  5  6  1        2 0.198941747745D-07 0.100000000000D+01
-.326131083738D-02 0.000000000000D+00 -.340650740900D-04 0.149230629438D-04 0.000000000000D+00  6 21 -4 25 1 -3 -2 2 0.68808697D+00 0.14632800D+00 0.26071175D+06 0.26071175D+06 0.26071175D+06 0.10890910D+01  1  2  5  5  6  1        2 -.836981632239D-07 0.100000000000D+01
  </mgrwgt>
  </event>
  <event>
  5     66 -.18614916E-05 0.15122201E+03 0.75467711E-02 0.93416787E-01
        2 -1    0    0  502    0 0.00000000E+00 0.00000000E+00 0.37935310E+04 0.37935310E+04 0.32000000E+00 0.0000E+00 0.9000E+01
       -4 -1    0    0    0  501 0.00000000E+00 0.00000000E+00 -.35068251E+03 0.35068593E+03 0.15500000E+01 0.0000E+00 0.9000E+01
       25  1    1    2    0    0 0.48463671E+02 0.53275749E+03 0.35614128E+03 0.65470672E+03 0.12500000E+03 0.0000E+00 0.9000E+01
        1  1    1    2  502    0 0.66632135E+02 -.13575715E+03 0.30721874E+04 0.30759073E+04 0.32000000E+00 0.0000E+00 0.9000E+01
       -3  1    1    2    0  501 -.11509581E+03 -.39700034E+03 0.14519762E+02 0.41360293E+03 0.50000000E+00 0.0000E+00 0.9000E+01
#aMCatNLO 1  0  0  4  1 0.17272495D+01 0.00000000D+00  -5  6  0 0.00000000D+00 0.00000000D+00 0.00000000D+00 0.00000000D+00 0.00000000D+00
  <mgrwgt>
 -.1399764642D-02    8    2    0
 0.115340022682159D+04 0.000000000000000D+00 0.000000000000000D+00 0.115340022682159D+04
 0.115340022682159D+04 -.000000000000000D+00 -.000000000000000D+00 -.115340022682159D+04
 0.644668594953715D+03 0.484738607894730D+02 0.532792123504943D+03 -.337276496766161D+03
 0.940726378565525D+03 0.666295862503987D+02 -.135751959887679D+03 0.928492338660778D+03
 0.721405480123936D+03 -.115103447039871D+03 -.397040163617264D+03 -.591215841894618D+03
 0.000000000000000D+00 0.000000000000000D+00 0.000000000000000D+00 0.000000000000000D+00
 0.115340022682159D+04 0.000000000000000D+00 0.000000000000000D+00 0.115340022682159D+04
 0.115340022682159D+04 -.000000000000000D+00 -.000000000000000D+00 -.115340022682159D+04
 0.644667439470814D+03 0.484739906308015D+02 0.532791858964581D+03 -.337274687409603D+03
 0.555901603877772D+03 0.410468685226273D+02 -.797967722976202D+02 0.548611176434866D+03
 0.721403960534953D+03 -.115103301743153D+03 -.397040459646632D+03 -.591213817165104D+03
 0.384827449759636D+03 0.255824425897245D+02 -.559546270203300D+02 0.379877328139841D+03
0.435097956619D-04 0.000000000000D+00 0.000000000000D+00 0.144817329409D-04 0.000000000000D+00  6 2 -4 25 1 -3 21 0 0.58362042D+00 0.53951420D-01 0.31025553D+06 0.31025553D+06 0.31025553D+06 0.10834735D+01  1  2  2  3  6  4        1 0.455873755135D-05 0.100000000000D+01
0.740486547829D-05 0.000000000000D+00 -.167089071734D-06 0.144817329409D-04 0.000000000000D+00  6 2 -4 25 1 -3 21 2 0.58362042D+00 0.53951420D-01 0.31025553D+06 0.31025553D+06 0.31025553D+06 0.10834735D+01  1  2  3  3  6  4        1 0.910775384890D-06 0.100000000000D+01
-.297914306300D-04 0.000000000000D+00 0.000000000000D+00 0.144817329409D-04 0.000000000000D+00  6 2 -4 25 1 -3 21 2 0.58362042D+00 0.53951420D-01 0.31025553D+06 0.31025553D+06 0.31025553D+06 0.10834735D+01  1  2 15  3  6  4        1 -.366425315598D-05 0.100000000000D+01
0.367619285097D-03 0.000000000000D+00 0.000000000000D+00 0.144817329409D-04 0.000000000000D+00  6 2 -4 25 1 -3 21 2 0.58362042D+00 0.53951420D-01 0.31027694D+06 0.31027694D+06 0.31027694D+06 0.10834713D+01  1  2 12  3  6  4        1 0.452156111260D-04 0.100000000000D+01
-.114572222044D+01 0.000000000000D+00 0.000000000000D+00 0.144817329409D-04 0.000000000000D+00  6 2 -4 25 1 -3 21 2 0.58362042D+00 0.53951420D-01 0.31025553D+06 0.31025553D+06 0.31025553D+06 0.10834735D+01  1  2  4  3  6  4        1 -.140920263758D+00 0.100000000000D+01
-.759403711027D+00 0.000000000000D+00 0.000000000000D+00 0.144817329409D-04 0.000000000000D+00  6 2 -4 25 1 -3 21 2 0.58362042D+00 0.53951420D-01 0.31025553D+06 0.31025553D+06 0.31025553D+06 0.10834735D+01  1  2  5  3  6  4        1 -.934042906283D-01 0.100000000000D+01
0.112571579730D+01 0.000000000000D+00 -.000000000000D+00 0.144817329409D-04 0.000000000000D+00  6 2 -4 25 1 -3 21 2 0.58362042D+00 0.53951420D-01 0.31025553D+06 0.31025553D+06 0.31025553D+06 0.10834735D+01  1  2  6  3  6  4        1 0.138459536040D+00 0.100000000000D+01
0.767654409400D+00 0.000000000000D+00 0.000000000000D+00 0.144817329409D-04 0.122528325128D-04  6 2 -4 25 1 -3 21 2 0.58362042D+00 0.53951420D-01 0.31027694D+06 0.31027694D+06 0.31027694D+06 0.10834713D+01  1  2 11  3  6  4        1 0.944182328341D-01 0.100000000000D+01
  </mgrwgt>
  </event>
  <event>
  5     66 -.18614916E-05 0.12803788E+03 0.75467711E-02 0.88151920E-01
        2 -1    0    0  502    0 0.00000000E+00 0.00000000E+00 0.10908447E+04 0.10908447E+04 0.32000000E+00 0.0000E+00 0.9000E+01
       -4 -1    0    0    0  501 -.00000000E+00 -.00000000E+00 -.13200801E+04 0.13200810E+04 0.15500000E+01 0.0000E+00 0.9000E+01
       25  1    1    2    0    0 0.86979599E+03 -.29994194E+03 -.17093984E+03 0.94411634E+03 0.12500000E+03 0.0000E+00 0.9000E+01
        1  1    1    2  502    0 -.11898417E+03 0.47391374E+02 0.48801640E+03 0.50454265E+03 0.32000000E+00 0.0000E+00 0.9000E+01
       -3  1    1    2    0  501 -.75081182E+03 0.25255056E+03 -.54631202E+03 0.96226673E+03 0.50000000E+00 0.0000E+00 0.9000E+01
#aMCatNLO 1  0  0  5  2 0.65062889D+02 0.00000000D+00  -5  6  0 0.00000000D+00 0.00000000D+00 0.00000000D+00 0.00000000D+00 0.00000000D+00
  <mgrwgt>
 -.1343831380D-03    7    2    0
 0.120000144919693D+04 0.000000000000000D+00 0.000000000000000D+00 0.120000144919693D+04
 0.120000144919693D+04 -.000000000000000D+00 -.000000000000000D+00 -.120000144919693D+04
 0.932153446924648D+03 0.869872680058169D+03 -.299966669317185D+03 -.814037247346508D+02
 0.553291630752518D+03 -.118949792129676D+03 0.473776808479717D+02 0.538273100730991D+03
 0.914557820716686D+03 -.750922887928493D+03 0.252588988469213D+03 -.456869375996340D+03
 0.000000000000000D+00 0.000000000000000D+00 0.000000000000000D+00 -.000000000000000D+00
 0.120000144919693D+04 0.000000000000000D+00 0.000000000000000D+00 0.120000144919693D+04
 0.120000144919693D+04 -.000000000000000D+00 -.000000000000000D+00 -.120000144919693D+04
 0.928851315694973D+03 0.866528366020517D+03 -.298841737698408D+03 -.834384405384703D+02
 0.552604688498590D+03 -.120937140393875D+03 0.480461679800858D+02 0.537063977163248D+03
 0.613693124794852D+03 -.538034224814803D+03 0.137609344653491D+03 -.261155303626865D+03
 0.304853769405436D+03 -.207557000811839D+03 0.113186225064831D+03 -.192470232997913D+03
0.152362206490D-03 0.000000000000D+00 0.000000000000D+00 0.490936312744D-06 0.000000000000D+00  6 2 -4 25 1 -3 21 0 0.16782233D+00 0.20308932D+00 0.85460474D+06 0.85460474D+06 0.85460474D+06 0.10524365D+01  1  2  2  4  6  5       -3 0.141845724462D-04 0.100000000000D+01
0.337711423709D-04 0.000000000000D+00 -.585110990813D-06 0.490936312744D-06 0.000000000000D+00  6 2 -4 25 1 -3 21 2 0.16782233D+00 0.20308932D+00 0.85460474D+06 0.85460474D+06 0.85460474D+06 0.10524365D+01  1  2  3  4  6  5       -3 0.348238339234D-05 0.100000000000D+01
-.929518332718D-04 0.000000000000D+00 0.000000000000D+00 0.490936312744D-06 0.000000000000D+00  6 2 -4 25 1 -3 21 2 0.16782233D+00 0.20308932D+00 0.85460474D+06 0.85460474D+06 0.85460474D+06 0.10524365D+01  1  2 15  4  6  5       -3 -.958492658965D-05 0.100000000000D+01
0.197071593933D-02 0.000000000000D+00 0.000000000000D+00 0.490936312744D-06 0.000000000000D+00  6 2 -4 25 1 -3 21 2 0.16782233D+00 0.20308932D+00 0.85284643D+06 0.85284643D+06 0.85284643D+06 0.10524969D+01  1  2 12  4  6  5       -3 0.203257667498D-03 0.100000000000D+01
-.411261413319D-02 0.000000000000D+00 0.000000000000D+00 0.490936312744D-06 0.000000000000D+00  6 2 -4 25 1 -3 21 2 0.16782233D+00 0.20308932D+00 0.85460474D+06 0.85460474D+06 0.85460474D+06 0.10524365D+01  1  2  4  4  6  5       -3 -.424080980123D-03 0.100000000000D+01
-.197571742723D-02 0.000000000000D+00 0.000000000000D+00 0.490936312744D-06 0.000000000000D+00  6 2 -4 25 1 -3 21 2 0.16782233D+00 0.20308932D+00 0.85460474D+06 0.85460474D+06 0.85460474D+06 0.10524365D+01  1  2  5  4  6  5       -3 -.203730317470D-03 0.100000000000D+01
0.273561195517D-02 0.000000000000D+00 -.000000000000D+00 0.490936312744D-06 0.000000000000D+00  6 2 -4 25 1 -3 21 2 0.16782233D+00 0.20308932D+00 0.85460474D+06 0.85460474D+06 0.85460474D+06 0.10524365D+01  1  2  6  4  6  5       -3 0.282088462864D-03 0.100000000000D+01
  </mgrwgt>
  </event>
  <event>
  6     66 -.18614916E-05 0.16423871E+03 0.75467711E-02 0.92882796E-01
        2 -1    0    0  503    0 0.00000000E+00 0.00000000E+00 0.16252708E+04 0.16252709E+04 0.32000000E+00 0.0000E+00 0.9000E+01
       -4 -1    0    0    0  501 0.00000000E+00 0.00000000E+00 -.45469468E+03 0.45469732E+03 0.15500000E+01 0.0000E+00 0.9000E+01
       25  1    1    2    0    0 -.50422666E+03 -.15613426E+03 0.66251175E+03 0.85625303E+03 0.12500000E+03 0.0000E+00 0.9000E+01
        1  1    1    2  502    0 0.13751933E+03 -.97110176E+02 0.53138484E+03 0.55741538E+03 0.32000000E+00 0.0000E+00 0.9000E+01
       -3  1    1    2    0  501 0.37439479E+03 0.25087537E+03 -.19741407E+03 0.49201878E+03 0.50000000E+00 0.0000E+00 0.9000E+01
       21  1    1    2  503  502 -.76874611E+01 0.23690615E+01 0.17409363E+03 0.17428099E+03 0.75000000E+00 0.0000E+00 0.9000E+01
#aMCatNLO 2  0  0  1  4 0.80442222D+01 0.00000000D+00  -5  6  0 0.00000000D+00 0.00000000D+00 0.00000000D+00 0.00000000D+00 0.00000000D+00
  <mgrwgt>
 -.1020983514D-02    2    2    0
 0.812188636507988D+03 0.000000000000000D+00 0.000000000000000D+00 0.812188636507988D+03
 0.812188636507988D+03 0.000000000000000D+00 0.000000000000000D+00 -.812188636507988D+03
 0.600379476411067D+03 -.507073681763359D+03 -.155347162142327D+03 0.252138962028688D+03
 0.327000680874869D+03 0.135896519875068D+03 -.965808573507017D+02 0.281307161607870D+03
 0.696997115730041D+03 0.371177161888290D+03 0.251928019493029D+03 -.533446123636558D+03
 0.000000000000000D+00 -.000000000000000D+00 0.000000000000000D+00 0.000000000000000D+00
 0.909692792883057D+03 0.000000000000000D+00 0.000000000000000D+00 0.909692792883057D+03
 0.812364527268771D+03 0.000000000000000D+00 0.000000000000000D+00 -.812364527268771D+03
 0.598213647191556D+03 -.504237492897078D+03 -.156221196609771D+03 0.252138962028688D+03
 0.327788686507227D+03 0.137445924987578D+03 -.970583408809655D+02 0.281307161607870D+03
 0.698394857446566D+03 0.374479028969361D+03 0.250910475961255D+03 -.533446123636558D+03
 0.976601290064800D+02 -.768746105986162D+01 0.236906152948202D+01 0.973282656142858D+02
-.280552971846D-02 0.000000000000D+00 0.000000000000D+00 0.514522307366D-06 0.000000000000D+00  6 2 -4 25 1 -3 21 2 0.25094309D+00 0.69937963D-01 0.34196333D+06 0.34196333D+06 0.34196333D+06 0.10803701D+01  1  2 13  1  6  1        2 -.399478805411D-02 0.100000000000D+01
0.207424767092D-02 0.000000000000D+00 0.000000000000D+00 0.514522307366D-06 0.359309394712D-07  6 2 -4 25 1 -3 21 2 0.25004143D+00 0.69953109D-01 0.34196333D+06 0.34196333D+06 0.34196333D+06 0.10803701D+01  1  2  1  1  6  1        2 0.297380454028D-02 0.100000000000D+01
  </mgrwgt>
  </event>
  <event>
  6     66 -.18614916E-05 0.32439218E+02 0.75467711E-02 0.92357915E-01
        2 -1    0    0  503    0 0.00000000E+00 0.00000000E+00 0.13994018E+04 0.13994018E+04 0.32000000E+00 0.0000E+00 0.9000E+01
       -4 -1    0    0    0  501 0.00000000E+00 0.00000000E+00 -.83972578E+03 0.83972721E+03 0.15500000E+01 0.0000E+00 0.9000E+01
       25  1    1    2    0    0 -.37984429E+03 -.41995305E+03 0.30354796E+03 0.65452930E+03 0.12500000E+03 0.0000E+00 0.9000E+01
        1  1    1    2  502    0 -.25601838E+02 -.30597392E+02 0.27987097E+03 0.28270040E+03 0.32000000E+00 0.0000E+00 0.9000E+01
       -3  1    1    2    0  501 0.40103339E+03 0.43636864E+03 -.53020886E+03 0.79521510E+03 0.50000000E+00 0.0000E+00 0.9000E+01
       21  1    1    2  503  502 0.44127358E+01 0.14181799E+02 0.50646591E+03 0.50668420E+03 0.75000000E+00 0.0000E+00 0.9000E+01
#aMCatNLO 2  0  0  1  4 0.14852464D+02 0.00000000D+00  -5  6  0 0.00000000D+00 0.00000000D+00 0.00000000D+00 0.00000000D+00 0.00000000D+00
  <mgrwgt>
 -.5792969198D-02    2    2    0
 0.865781887438514D+03 0.000000000000000D+00 0.000000000000000D+00 0.865781887438514D+03
 0.865781887438514D+03 0.000000000000000D+00 0.000000000000000D+00 -.865781887438514D+03
 0.641302263480380D+03 -.378290103243576D+03 -.414778465073337D+03 0.283723484830617D+03
 0.273721290900890D+03 -.248845952503850D+02 -.283312767934445D+02 0.271111491395934D+03
 0.816540220495757D+03 0.403174698493961D+03 0.443109741866781D+03 -.554834976226551D+03
 0.000000000000000D+00 0.000000000000000D+00 0.000000000000000D+00 0.000000000000000D+00
 0.135706123351409D+04 0.000000000000000D+00 0.000000000000000D+00 0.135706123351409D+04
 0.865925999051554D+03 0.000000000000000D+00 0.000000000000000D+00 -.865925999051554D+03
 0.645686998572305D+03 -.379929961729630D+03 -.420048697725637D+03 0.283723484830617D+03
 0.274026814106699D+03 -.255825259982951D+02 -.305743102307573D+02 0.271111491395934D+03
 0.811913659423071D+03 0.401099751955655D+03 0.436441208520182D+03 -.554834976226551D+03
 0.491359760463571D+03 0.441273577226983D+01 0.141817994362128D+02 0.491135234462539D+03
-.336917381030D-01 0.000000000000D+00 0.000000000000D+00 0.110345727797D-04 0.000000000000D+00  6 2 -4 25 1 -3 21 2 0.22417831D+00 0.12916715D+00 0.37668093D+06 0.37668093D+06 0.37668093D+06 0.10773132D+01  1  2 13  1  6  1        2 -.109558877825D-01 0.100000000000D+01
0.147503584114D-01 0.000000000000D+00 0.000000000000D+00 0.110345727797D-04 0.138939855993D-06  6 2 -4 25 1 -3 21 2 0.21529262D+00 0.12918865D+00 0.37668093D+06 0.37668093D+06 0.37668093D+06 0.10773132D+01  1  2  1  1  6  1        2 0.516291858409D-02 0.100000000000D+01
  </mgrwgt>
  </event>
  <event>
  6     66 0.18614916E-05 0.21186084E+03 0.75467711E-02 0.92586692E-01
        2 -1    0    0  502    0 0.00000000E+00 0.00000000E+00 0.10491654E+04 0.10491654E+04 0.32000000E+00 0.0000E+00 0.9000E+01
       -4 -1    0    0    0  503 0.00000000E+00 0.00000000E+00 -.81900494E+03 0.81900641E+03 0.15500000E+01 0.0000E+00 0.9000E+01
       25  1    1    2    0    0 0.57698227E+03 -.11773953E+03 0.20395485E+03 0.63560500E+03 0.12500000E+03 0.0000E+00 0.9000E+01
        1  1    1    2  502    0 -.21447434E+03 -.91014288E+01 0.53517770E+03 0.57662583E+03 0.32000000E+00 0.0000E+00 0.9000E+01
       -3  1    1    2    0  501 -.35934701E+03 0.12233095E+03 -.41738653E+03 0.56418694E+03 0.50000000E+00 0.0000E+00 0.9000E+01
       21  1    1    2  501  503 -.31609246E+01 0.45100154E+01 -.91585566E+02 0.91754074E+02 0.75000000E+00 0.0000E+00 0.9000E+01
#aMCatNLO 2  0  0  2  5 0.55074207D+01 0.00000000D+00  -5  6  0 0.00000000D+00 0.00000000D+00 0.00000000D+00 0.00000000D+00 0.00000000D+00
  <mgrwgt>
 0.3657135788D-03    2    2    0
 0.873514347300184D+03 0.000000000000000D+00 0.000000000000000D+00 0.873514347300184D+03
 0.873514347300184D+03 0.000000000000000D+00 0.000000000000000D+00 -.873514347300184D+03
 0.607430744631629D+03 0.575899737059801D+03 -.116191071836710D+03 0.904778271380541D+02
 0.488008009176766D+03 -.215304198828808D+03 -.783985651363929D+01 0.437874931501224D+03
 0.651589940791972D+03 -.360595538230994D+03 0.124030928350350D+03 -.528352758639278D+03
 0.000000000000000D+00 -.000000000000000D+00 0.000000000000000D+00 -.000000000000000D+00
 0.873587565453145D+03 0.000000000000000D+00 0.000000000000000D+00 0.873587565453145D+03
 0.983611229741377D+03 0.000000000000000D+00 0.000000000000000D+00 -.983611229741377D+03
 0.608775698039099D+03 0.576999984374421D+03 -.117760907568199D+03 0.904778271380541D+02
 0.487641119896243D+03 -.214421572905600D+03 -.909918947758155D+01 0.437874931501224D+03
 0.650620557577807D+03 -.359417486912046D+03 0.122350081663030D+03 -.528352758639278D+03
 0.110161419681373D+03 -.316092455677570D+01 0.451001538275022D+01 -.110023664288231D+03
-.375033867135D-02 0.000000000000D+00 0.000000000000D+00 0.962859242153D-06 0.000000000000D+00  6 2 -4 25 1 -3 21 2 0.16139641D+00 0.12607045D+00 0.36108570D+06 0.36108570D+06 0.36108570D+06 0.10786467D+01  1  2 13  2  6  2       -4 -.226859967057D-02 0.100000000000D+01
0.434813375916D-02 0.000000000000D+00 0.000000000000D+00 0.962859242153D-06 0.229029985981D-06  6 2 -4 25 1 -3 21 2 0.16140994D+00 0.12600069D+00 0.36108570D+06 0.36108570D+06 0.36108570D+06 0.10786467D+01  1  2  1  2  6  2       -4 0.263431324940D-02 0.100000000000D+01
  </mgrwgt>
  </event>
  <event>
  5     66 0.18614916E-05 0.17227483E+03 0.75467711E-02 0.91924287E-01
        2 -1    0    0  502    0 0.00000000E+00 0.00000000E+00 0.22236318E+04 0.22236318E+04 0.32000000E+00 0.0000E+00 0.9000E+01
       -4 -1    0    0    0  501 0.00000000E+00 0.00000000E+00 -.11129559E+04 0.11129570E+04 0.15500000E+01 0.0000E+00 0.9000E+01
       25  1    1    2    0    0 0.60377329E+03 0.83261209E+02 0.99020262E+03 0.11694447E+04 0.12500000E+03 0.0000E+00 0.9000E+01
        1  1    1    2  502    0 -.50727729E+03 0.59432213E+02 0.10787271E+04 0.11935304E+04 0.32000000E+00 0.0000E+00 0.9000E+01
       -3  1    1    2    0  501 -.96496006E+02 -.14269342E+03 -.95825389E+03 0.97361371E+03 0.50000000E+00 0.0000E+00 0.9000E+01
#aMCatNLO 1  0  0  4  2 0.29073115D+02 0.00000000D+00  -5  6  0 0.00000000D+00 0.00000000D+00 0.00000000D+00 0.00000000D+00 0.00000000D+00
  <mgrwgt>
 0.1296114588D-02    3    2    0
 0.157315158725918D+04 0.000000000000000D+00 0.000000000000000D+00 0.157315158725918D+04
 0.157315158725918D+04 -.000000000000000D+00 -.000000000000000D+00 -.157315158725918D+04
 0.890693160655359D+03 0.603709607895836D+03 0.832831609312849D+02 0.637422882298544D+03
 0.884784229294958D+03 -.507203637851553D+03 0.594235838913777D+02 0.722534732616174D+03
 0.137082578456805D+04 -.965059700442824D+02 -.142706744822663D+03 -.135995761491472D+04
 0.000000000000000D+00 0.000000000000000D+00 -.000000000000000D+00 0.000000000000000D+00
 0.157315158725918D+04 0.000000000000000D+00 0.000000000000000D+00 0.157315158725918D+04
 0.157315158725918D+04 -.000000000000000D+00 -.000000000000000D+00 -.157315158725918D+04
 0.894577034001004D+03 0.593206046036990D+03 0.845137500728006D+02 0.652385685584706D+03
 0.383808524367070D+02 -.809674580957528D+01 0.668387393297559D+01 -.369169117114560D+02
 0.134925484679231D+04 -.112509449662135D+03 -.140831789592346D+03 -.133715992774593D+04
 0.864090441288338D+03 -.472599850565280D+03 0.496341655865698D+02 0.721691153872676D+03
0.729112195582D-01 0.000000000000D+00 0.000000000000D+00 0.123530388650D-04 0.000000000000D+00  6 2 -4 25 1 -3 21 0 0.34209728D+00 0.17122407D+00 0.42579674D+06 0.42579674D+06 0.42579674D+06 0.10734764D+01  1  2  2  3  6  4        1 0.305289680059D-02 0.100000000000D+01
0.130702519517D-01 0.000000000000D+00 -.279998281069D-03 0.123530388650D-04 0.000000000000D+00  6 2 -4 25 1 -3 21 2 0.34209728D+00 0.17122407D+00 0.42579674D+06 0.42579674D+06 0.42579674D+06 0.10734764D+01  1  2  3  3  6  4        1 0.630647574168D-03 0.100000000000D+01
-.494797888888D-01 0.000000000000D+00 0.000000000000D+00 0.123530388650D-04 0.000000000000D+00  6 2 -4 25 1 -3 21 2 0.34209728D+00 0.17122407D+00 0.42579674D+06 0.42579674D+06 0.42579674D+06 0.10734764D+01  1  2 15  3  6  4        1 -.238742978699D-02 0.100000000000D+01
  </mgrwgt>
  </event>
  <event>
  5     66 -.18614916E-05 0.24301198E+02 0.75467711E-02 0.94083916E-01
        2 -1    0    0  502    0 0.00000000E+00 0.00000000E+00 0.30401716E+04 0.30401716E+04 0.32000000E+00 0.0000E+00 0.9000E+01
       -4 -1    0    0    0  501 0.00000000E+00 0.00000000E+00 -.45986279E+03 0.45986540E+03 0.15500000E+01 0.0000E+00 0.9000E+01
       25  1    1    2    0    0 0.13637516E+03 0.47182771E+03 0.18800959E+04 0.19472045E+04 0.12500000E+03 0.0000E+00 0.9000E+01
        1  1    1    2  502    0 0.23946612E+02 -.42129187E+01 0.98301823E+03 0.98331894E+03 0.32000000E+00 0.0000E+00 0.9000E+01
       -3  1    1    2    0  501 -.16032177E+03 -.46761479E+03 -.28280533E+03 0.56951363E+03 0.50000000E+00 0.0000E+00 0.9000E+01
#aMCatNLO 1  0  0  5  5 0.85471728D+02 0.00000000D+00  -5  6  0 0.00000000D+00 0.00000000D+00 0.00000000D+00 0.00000000D+00 0.00000000D+00
  <mgrwgt>
 -.2623241124D-02    6    2    0
 0.118239857835751D+04 0.000000000000000D+00 0.000000000000000D+00 0.118239857835751D+04
 0.118239857835751D+04 -.000000000000000D+00 -.000000000000000D+00 -.118239857835751D+04
 0.830732688000246D+03 0.136408007332836D+03 0.471886847914364D+03 0.658184971883319D+03
 0.382557620872288D+03 0.239336325456013D+02 -.421063527042431D+01 0.381784998489014D+03
 0.115150684784248D+04 -.160341639878437D+03 -.467676212643940D+03 -.103996997037233D+04
 0.000000000000000D+00 -.000000000000000D+00 0.000000000000000D+00 0.000000000000000D+00
 0.118239857835751D+04 0.000000000000000D+00 0.000000000000000D+00 0.118239857835751D+04
 0.118239857835751D+04 -.000000000000000D+00 -.000000000000000D+00 -.118239857835751D+04
 0.825968005991964D+03 0.135723280599221D+03 0.469889672347768D+03 0.653743859509697D+03
 0.380507812004293D+03 0.236182519199500D+02 -.513052118812931D+01 0.379739451367485D+03
 0.753959105710614D+03 -.199070398417262D+02 -.314947884659646D+03 -.684737813178959D+03
 0.404362233008140D+03 -.139434492677445D+03 -.149811266499993D+03 -.348745497698223D+03
0.527093738635D-02 0.000000000000D+00 0.000000000000D+00 0.234143279327D-03 0.000000000000D+00  6 2 -4 25 1 -3 21 0 0.46771891D+00 0.70748324D-01 0.26294464D+06 0.26294464D+06 0.26294464D+06 0.10888136D+01  1  2  2  4  6  5       -3 0.981229423618D-03 0.100000000000D+01
0.237494780069D-02 0.000000000000D+00 -.202417874333D-04 0.234143279327D-03 0.000000000000D+00  6 2 -4 25 1 -3 21 2 0.46771891D+00 0.70748324D-01 0.26294464D+06 0.26294464D+06 0.26294464D+06 0.10888136D+01  1  2  3  4  6  5       -3 0.524135802678D-03 0.100000000000D+01
-.348446242632D-02 0.000000000000D+00 0.000000000000D+00 0.234143279327D-03 0.000000000000D+00  6 2 -4 25 1 -3 21 2 0.46771891D+00 0.70748324D-01 0.26294464D+06 0.26294464D+06 0.26294464D+06 0.10888136D+01  1  2 15  4  6  5       -3 -.768998590280D-03 0.100000000000D+01
-.404012420868D-01 0.000000000000D+00 0.000000000000D+00 0.234143279327D-03 0.000000000000D+00  6 2 -4 25 1 -3 21 2 0.46771891D+00 0.70748324D-01 0.26294464D+06 0.26294464D+06 0.26294464D+06 0.10888136D+01  1  2  4  4  6  5       -3 -.891629594731D-02 0.100000000000D+01
-.617925109221D-01 0.000000000000D+00 0.000000000000D+00 0.234143279327D-03 0.000000000000D+00  6 2 -4 25 1 -3 21 2 0.46771891D+00 0.70748324D-01 0.26294464D+06 0.26294464D+06 0.26294464D+06 0.10888136D+01  1  2  5  4  6  5       -3 -.136372122799D-01 0.100000000000D+01
0.869708031162D-01 0.000000000000D+00 -.000000000000D+00 0.234143279327D-03 0.000000000000D+00  6 2 -4 25 1 -3 21 2 0.46771891D+00 0.70748324D-01 0.26294464D+06 0.26294464D+06 0.26294464D+06 0.10888136D+01  1  2  6  4  6  5       -3 0.191939004670D-01 0.100000000000D+01
  </mgrwgt>
  </event>
  <event>
  6     66 0.18614916E-05 0.23522641E+02 0.75467711E-02 0.89658202E-01
        2 -1    0    0  502    0 0.00000000E+00 0.00000000E+00 0.58772570E+04 0.58772570E+04 0.32000000E+00 0.0000E+00 0.9000E+01
       -4 -1    0    0    0  501 0.00000000E+00 0.00000000E+00 -.50340512E+03 0.50340751E+03 0.15500000E+01 0.0000E+00 0.9000E+01
       25  1    1    2    0    0 0.42546534E+03 -.65954083E+03 0.40637771E+04 0.41407638E+04 0.12500000E+03 0.0000E+00 0.9000E+01
        1  1    1    2  503    0 -.31180975E+03 0.50224909E+03 0.12351287E+04 0.13693146E+04 0.32000000E+00 0.0000E+00 0.9000E+01
       -3  1    1    2    0  501 -.31802671E+02 0.72132015E+01 -.38164804E+03 0.38303905E+03 0.50000000E+00 0.0000E+00 0.9000E+01
       21  1    1    2  502  503 -.81852919E+02 0.15007854E+03 0.45659404E+03 0.48754707E+03 0.75000000E+00 0.0000E+00 0.9000E+01
#aMCatNLO 2  0  0  4  4 0.86532520D+02 0.00000000D+00  -5  6  0 0.00000000D+00 0.00000000D+00 0.00000000D+00 0.00000000D+00 0.00000000D+00
  <mgrwgt>
 0.1525679493D-03    1    2    0
 0.172007235979319D+04 0.000000000000000D+00 0.000000000000000D+00 0.172007235979319D+04
 0.172007235979319D+04 -.000000000000000D+00 -.000000000000000D+00 -.172007235979319D+04
 0.133270499465354D+04 0.425855653112038D+03 -.660173609581391D+03 0.106924991031063D+04
 0.800039870711896D+03 -.394688874998235D+03 0.654028125117685D+03 0.237763954872013D+03
 0.130739985422095D+04 -.311667781138034D+02 0.614548446370730D+01 -.130701386518264D+04
 0.000000000000000D+00 0.000000000000000D+00 0.000000000000000D+00 0.000000000000000D+00
 0.172007235979319D+04 0.000000000000000D+00 0.000000000000000D+00 0.172007235979319D+04
 0.172007235979319D+04 -.000000000000000D+00 -.000000000000000D+00 -.172007235979319D+04
 0.133227310158725D+04 0.425197445900007D+03 -.659082912437153D+03 0.106964641996614D+04
 0.609764945439179D+03 -.311514645102402D+03 0.501759394882786D+03 0.151688576432208D+03
 0.130703200624471D+04 -.318125012093700D+02 0.721549452046528D+01 -.130662487606570D+04
 0.191074666315253D+03 -.818702995882359D+02 0.150108023033902D+03 0.852898796673522D+02
0.240364235597D+01 0.000000000000D+00 0.000000000000D+00 0.176166342966D-04 0.788683219563D-07  6 2 -4 25 1 -3 21 2 0.90419357D+00 0.77447126D-01 0.63078062D+06 0.63078062D+06 0.63078062D+06 0.10614510D+01  1  2  1  3  6  4        1 0.152567949277D-03 0.100000000000D+01
  </mgrwgt>
  </event>
  <event>
  5     66 0.18614916E-05 0.10659175E+03 0.75467711E-02 0.94783540E-01
        2 -1    0    0  502    0 0.00000000E+00 0.00000000E+00 0.21959785E+04 0.21959785E+04 0.32000000E+00 0.0000E+00 0.9000E+01
       -4 -1    0    0    0  501 0.00000000E+00 0.00000000E+00 -.42693993E+03 0.42694274E+03 0.15500000E+01 0.0000E+00 0.9000E+01
       25  1    1    2    0    0 -.45467330E+03 0.16875914E+03 0.45806674E+03 0.67871761E+03 0.12500000E+03 0.0000E+00 0.9000E+01
        1  1    1    2  502    0 0.10218736E+03 -.30365533E+02 0.15118073E+04 0.15155612E+04 0.32000000E+00 0.0000E+00 0.9000E+01
       -3  1    1    2    0  501 0.35248594E+03 -.13839361E+03 -.20083555E+03 0.42864238E+03 0.50000000E+00 0.0000E+00 0.9000E+01
#aMCatNLO 1  0  0  5  2 0.19668770D+02 0.00000000D+00  -5  6  0 0.00000000D+00 0.00000000D+00 0.00000000D+00 0.00000000D+00 0.00000000D+00
  <mgrwgt>
 0.1411336841D-02    4    2    0
 0.968274038398964D+03 0.000000000000000D+00 0.000000000000000D+00 0.968274038398964D+03
 0.968274038398964D+03 -.000000000000000D+00 -.000000000000000D+00 -.968274038398964D+03
 0.500872121322187D+03 -.454711640372485D+03 0.168774886301365D+03 0.493742354357066D+00
 0.671611429789771D+03 0.102176022691177D+03 -.303621634136715D+02 0.663098870489247D+03
 0.764064525685971D+03 0.352535617681308D+03 -.138412722887694D+03 -.663592612843604D+03
 0.000000000000000D+00 0.000000000000000D+00 0.000000000000000D+00 0.000000000000000D+00
 0.968274038398964D+03 0.000000000000000D+00 0.000000000000000D+00 0.968274038398964D+03
 0.968274038398964D+03 -.000000000000000D+00 -.000000000000000D+00 -.968274038398964D+03
 0.447892569091768D+03 -.384149949928663D+03 0.141070917635376D+03 -.132327493798316D+03
 0.534254113302974D+03 0.191858861890702D+03 -.655734877375786D+02 0.494285092230264D+03
 0.586091497760376D+03 0.215704477788323D+03 -.440720449508726D+03 -.320531289258779D+03
 0.368309896642810D+03 -.234133897503623D+02 0.365223019610928D+03 -.414263091731688D+02
0.599044867519D-02 0.000000000000D+00 0.000000000000D+00 0.421613867858D-04 0.000000000000D+00  6 2 -4 25 1 -3 21 0 0.33784306D+00 0.65683284D-01 0.24314644D+06 0.24314644D+06 0.24314644D+06 0.10913685D+01  1  2  2  4  6  5       -3 0.423880224580D-02 0.100000000000D+01
0.124007432130D-02 0.000000000000D+00 -.230049002341D-04 0.421613867858D-04 0.000000000000D+00  6 2 -4 25 1 -3 21 2 0.33784306D+00 0.65683284D-01 0.24314644D+06 0.24314644D+06 0.24314644D+06 0.10913685D+01  1  2  3  4  6  5       -3 0.104513961207D-02 0.100000000000D+01
-.456455755409D-02 0.000000000000D+00 0.000000000000D+00 0.421613867858D-04 0.000000000000D+00  6 2 -4 25 1 -3 21 2 0.33784306D+00 0.65683284D-01 0.24314644D+06 0.24314644D+06 0.24314644D+06 0.10913685D+01  1  2 15  4  6  5       -3 -.384702741556D-02 0.100000000000D+01
-.303482192625D-04 0.000000000000D+00 0.000000000000D+00 0.421613867858D-04 0.000000000000D+00  6 2 -4 25 1 -3 21 2 0.33784306D+00 0.65683284D-01 0.24314644D+06 0.24314644D+06 0.24314644D+06 0.10913685D+01  1  2  4  4  6  5       -3 -.255776009247D-04 0.100000000000D+01
  </mgrwgt>
  </event>
  <event>
  5     66 -.18614916E-05 0.56152529E+02 0.75467711E-02 0.93240127E-01
        2 -1    0    0  502    0 0.00000000E+00 0.00000000E+00 0.14023188E+04 0.14023189E+04 0.32000000E+00 0.0000E+00 0.9000E+01
       -4 -1    0    0    0  501 0.00000000E+00 0.00000000E+00 -.63017031E+03 0.63017221E+03 0.15500000E+01 0.0000E+00 0.9000E+01
       25  1    1    2    0    0 -.31605696E+03 -.45093217E+03 -.26773808E+03 0.62493240E+03 0.12500000E+03 0.0000E+00 0.9000E+01
        1  1    1    2  502    0 0.26265117E+03 0.43353511E+03 0.11649549E+04 0.12704559E+04 0.32000000E+00 0.0000E+00 0.9000E+01
       -3  1    1    2    0  501 0.53405790E+02 0.17397065E+02 -.12506828E+03 0.13710274E+03 0.50000000E+00 0.0000E+00 0.9000E+01
#aMCatNLO 1  0  0  2  5 0.50464224D+01 0.00000000D+00  -5  6  0 0.00000000D+00 0.00000000D+00 0.00000000D+00 0.00000000D+00 0.00000000D+00
  <mgrwgt>
 -.3287336203D-02   11    4    0
 0.940054071320166D+03 0.000000000000000D+00 0.000000000000000D+00 0.940054071320166D+03
 0.940054071320166D+03 0.000000000000000D+00 0.000000000000000D+00 -.940054071320166D+03
 0.785604315646201D+03 -.316048130684161D+03 -.450934348976677D+03 -.546187635127311D+03
 0.895004751506104D+03 0.262656420918708D+03 0.433543781532723D+03 0.737621108200534D+03
 0.199499075488028D+03 0.533917097654525D+02 0.173905674439537D+02 -.191433473073224D+03
 0.000000000000000D+00 0.000000000000000D+00 0.000000000000000D+00 -.000000000000000D+00
 0.940128279662615D+03 0.000000000000000D+00 0.000000000000000D+00 0.940128279662615D+03
 0.102995310580998D+04 0.000000000000000D+00 0.000000000000000D+00 -.102995310580998D+04
 0.786849400942626D+03 -.318002501264159D+03 -.451730512792244D+03 -.546187635127311D+03
 0.893916049703776D+03 0.260433007824289D+03 0.432638016233678D+03 0.737621108200534D+03
 0.199349464565243D+03 0.528959890683458D+02 0.171886226921734D+02 -.191433473073224D+03
 0.899664702609477D+02 0.467350437152421D+01 0.190387386639299D+01 -.898248261473642D+02
 0.940054071320166D+03 0.000000000000000D+00 0.000000000000000D+00 0.940054071320166D+03
 0.940054071320166D+03 0.000000000000000D+00 0.000000000000000D+00 -.940054071320166D+03
 0.785604315646201D+03 -.316048130684161D+03 -.450934348976677D+03 -.546187635127311D+03
 0.895004751506104D+03 0.262656420918708D+03 0.433543781532723D+03 0.737621108200534D+03
 0.000000000000000D+00 0.000000000000000D+00 0.000000000000000D+00 -.000000000000000D+00
 0.199499075488028D+03 0.533917097654525D+02 0.173905674439537D+02 -.191433473073224D+03
 0.940128279662615D+03 0.000000000000000D+00 0.000000000000000D+00 0.940128279662615D+03
 0.102995310580998D+04 0.000000000000000D+00 0.000000000000000D+00 -.102995310580998D+04
 0.786849400942626D+03 -.318002501264159D+03 -.451730512792244D+03 -.546187635127311D+03
 0.893916049703776D+03 0.260433007824289D+03 0.432638016233678D+03 0.737621108200534D+03
 0.899664702609477D+02 0.467350437152421D+01 0.190387386639299D+01 -.898248261473642D+02
 0.199349464565243D+03 0.528959890683458D+02 0.171886226921734D+02 -.191433473073224D+03
0.173957164245D-04 0.000000000000D+00 0.000000000000D+00 0.662460732371D-05 0.000000000000D+00  6 2 -4 25 1 -3 21 0 0.21574151D+00 0.96949428D-01 0.31794058D+06 0.31794058D+06 0.31794058D+06 0.10826906D+01  1  2  2  2  6  2       -4 0.121187197070D-04 0.100000000000D+01
0.325998234023D-05 0.000000000000D+00 -.668041314674D-07 0.662460732371D-05 0.000000000000D+00  6 2 -4 25 1 -3 21 2 0.21574151D+00 0.96949428D-01 0.31794058D+06 0.31794058D+06 0.31794058D+06 0.10826906D+01  1  2  3  2  6  2       -4 0.266218579745D-05 0.100000000000D+01
-.122096203662D-04 0.000000000000D+00 0.000000000000D+00 0.662460732371D-05 0.000000000000D+00  6 2 -4 25 1 -3 21 2 0.21574151D+00 0.96949428D-01 0.31794058D+06 0.31794058D+06 0.31794058D+06 0.10826906D+01  1  2 15  2  6  2       -4 -.997069141449D-05 0.100000000000D+01
0.807713922853D-02 0.000000000000D+00 0.000000000000D+00 0.662460732371D-05 0.000000000000D+00  6 2 -4 25 1 -3 21 2 0.21574151D+00 0.10714514D+00 0.32038043D+06 0.32038043D+06 0.32038043D+06 0.10824463D+01  1  2 12  2  6  2       -4 0.497525105016D-02 0.100000000000D+01
-.290980567844D-01 0.000000000000D+00 0.000000000000D+00 0.662460732371D-05 0.000000000000D+00  6 2 -4 25 1 -3 21 2 0.21574151D+00 0.96949428D-01 0.31794058D+06 0.31794058D+06 0.31794058D+06 0.10826906D+01  1  2  4  2  6  2       -4 -.237622248897D-01 0.100000000000D+01
-.219296191395D-01 0.000000000000D+00 -.379447081447D-04 0.662460732371D-05 0.000000000000D+00  6 2 -4 25 1 -3 21 2 0.21574151D+00 0.10622446D+00 0.31794058D+06 0.31794058D+06 0.31794058D+06 0.10826906D+01  1  2  5  2  6  2       -4 -.138552287732D-01 0.100000000000D+01
0.218420167291D-01 0.000000000000D+00 0.377868845335D-04 0.662460732371D-05 0.000000000000D+00  6 2 -4 25 1 -3 21 2 0.21574151D+00 0.96949428D-01 0.31794058D+06 0.31794058D+06 0.31794058D+06 0.10826906D+01  1  2  6  2  6  2       -4 0.178367551279D-01 0.100000000000D+01
0.183263687614D-01 0.000000000000D+00 0.000000000000D+00 0.662460732371D-05 0.273840667554D-05  6 2 -4 25 1 -3 21 2 0.21575854D+00 0.10622087D+00 0.32038043D+06 0.32038043D+06 0.32038043D+06 0.10824463D+01  1  2 11  2  6  2       -4 0.115696179778D-01 0.100000000000D+01
0.133933537253D-03 0.000000000000D+00 0.000000000000D+00 0.662460732371D-05 0.000000000000D+00  6 2 21 25 1 4 -3 2 0.21574151D+00 0.10714514D+00 0.32038043D+06 0.32038043D+06 0.32038043D+06 0.10824463D+01  3  4 12  6  5  2       -4 0.185191618636D-02 0.100000000000D+01
-.332006900382D-03 0.000000000000D+00 -.569784584751D-06 0.662460732371D-05 0.000000000000D+00  6 2 21 25 1 4 -3 2 0.21574151D+00 0.10622446D+00 0.31794058D+06 0.31794058D+06 0.31794058D+06 0.10826906D+01  3  4  5  6  5  2       -4 -.470219810925D-02 0.100000000000D+01
0.197503430156D-03 0.000000000000D+00 0.000000000000D+00 0.662460732371D-05 0.250904010422D-07  6 2 21 25 1 4 -3 2 0.21575854D+00 0.10622087D+00 0.32038043D+06 0.32038043D+06 0.32038043D+06 0.10824463D+01  3  4 11  6  5  2       -4 0.279396501267D-02 0.100000000000D+01
  </mgrwgt>
  </event>
  <event>
  5     66 0.18614916E-05 0.58829292E+02 0.75467711E-02 0.94065134E-01
        2 -1    0    0  502    0 0.00000000E+00 0.00000000E+00 0.15599609E+04 0.15599609E+04 0.32000000E+00 0.0000E+00 0.9000E+01
       -4 -1    0    0    0  501 0.00000000E+00 0.00000000E+00 -.29921363E+03 0.29921765E+03 0.15500000E+01 0.0000E+00 0.9000E+01
       25  1    1    2    0    0 0.31560823E+03 0.34202090E+03 0.65657711E+03 0.81443560E+03 0.12500000E+03 0.0000E+00 0.9000E+01
        1  1    1    2  502    0 -.43849958E+02 -.39270876E+02 0.63408816E+03 0.63681467E+03 0.32000000E+00 0.0000E+00 0.9000E+01
       -3  1    1    2    0  501 -.27175827E+03 -.30275002E+03 -.29918045E+02 0.40792827E+03 0.50000000E+00 0.0000E+00 0.9000E+01
#aMCatNLO 1  0  0  1  5 0.13500037D+03 0.00000000D+00  -5  6  0 0.00000000D+00 0.00000000D+00 0.00000000D+00 0.00000000D+00 0.00000000D+00
  <mgrwgt>
 0.4488626580D-02    7    2    0
 0.683202251442769D+03 0.000000000000000D+00 0.000000000000000D+00 0.683202251442769D+03
 0.683202251442769D+03 0.000000000000000D+00 0.000000000000000D+00 -.683202251442769D+03
 0.502445874936493D+03 0.315647845784884D+03 0.342069166791470D+03 0.142063295128085D+03
 0.281247254535775D+03 -.438237859430511D+02 -.392474371957469D+02 0.275025694514339D+03
 0.582711373413271D+03 -.271824059841833D+03 -.302821729595723D+03 -.417088989642424D+03
 0.000000000000000D+00 -.000000000000000D+00 -.000000000000000D+00 0.000000000000000D+00
 0.950263586633152D+03 0.000000000000000D+00 0.000000000000000D+00 0.950263586633152D+03
 0.703804617257507D+03 0.000000000000000D+00 0.000000000000000D+00 -.703804617257507D+03
 0.550595062862340D+03 0.346393859772377D+03 0.383873986273789D+03 0.142063295128085D+03
 0.276927529570530D+03 -.275265565537826D+02 -.170883783675858D+02 0.275025694514339D+03
 0.545534713897681D+03 -.238882254127891D+03 -.258031330363707D+03 -.417088989642424D+03
 0.281010897560108D+03 -.799850490907029D+02 -.108754277542496D+03 0.246458969375645D+03
0.328161096864D-03 0.000000000000D+00 0.000000000000D+00 0.107436692232D-04 0.000000000000D+00  6 2 -4 25 1 -3 21 0 0.23999429D+00 0.46033178D-01 0.22453374D+06 0.22453374D+06 0.22453374D+06 0.10939867D+01  1  2  2  1  6  1        2 0.117687130102D-02 0.100000000000D+01
0.780332747609D-04 0.000000000000D+00 -.126022501876D-05 0.107436692232D-04 0.000000000000D+00  6 2 -4 25 1 -3 21 2 0.23999429D+00 0.46033178D-01 0.22453374D+06 0.22453374D+06 0.22453374D+06 0.10939867D+01  1  2  3  1  6  1        2 0.334923609224D-03 0.100000000000D+01
-.242456386002D-03 0.000000000000D+00 0.000000000000D+00 0.107436692232D-04 0.000000000000D+00  6 2 -4 25 1 -3 21 2 0.23999429D+00 0.46033178D-01 0.22453374D+06 0.22453374D+06 0.22453374D+06 0.10939867D+01  1  2 15  1  6  1        2 -.104063770396D-02 0.100000000000D+01
-.352152394415D-04 0.000000000000D+00 0.000000000000D+00 0.107436692232D-04 0.000000000000D+00  6 2 -4 25 1 -3 21 2 0.23999429D+00 0.46033178D-01 0.22453374D+06 0.22453374D+06 0.22453374D+06 0.10939867D+01  1  2  4  1  6  1        2 -.151145971120D-03 0.100000000000D+01
-.178781855283D-02 0.000000000000D+00 -.261907780889D-03 0.107436692232D-04 0.000000000000D+00  6 2 -4 25 1 -3 21 2 0.33691463D+00 0.46033178D-01 0.22453374D+06 0.22453374D+06 0.22453374D+06 0.10939867D+01  1  2  5  1  6  1        2 -.348033677804D-02 0.100000000000D+01
0.178722512584D-02 0.000000000000D+00 0.247529527795D-03 0.107436692232D-04 0.000000000000D+00  6 2 -4 25 1 -3 21 2 0.23999429D+00 0.46033178D-01 0.22453374D+06 0.22453374D+06 0.22453374D+06 0.10939867D+01  1  2  6  1  6  1        2 0.767088003775D-02 0.100000000000D+01
-.684336994221D-04 0.000000000000D+00 -.110615965830D-04 0.107436692232D-04 0.000000000000D+00  6 21 -4 25 1 -3 -2 2 0.33691463D+00 0.46033178D-01 0.22453374D+06 0.22453374D+06 0.22453374D+06 0.10939867D+01  1  2  5  5  6  1        2 -.219279151837D-04 0.100000000000D+01
  </mgrwgt>
  </event>
  <event>
  5     66 0.18614916E-05 0.58295400E+02 0.75467711E-02 0.88694925E-01
        2 -1    0    0  502    0 0.00000000E+00 0.00000000E+00 0.13885076E+04 0.13885076E+04 0.32000000E+00 0.0000E+00 0.9000E+01
       -4 -1    0    0    0  501 0.00000000E+00 0.00000000E+00 -.24266169E+03 0.24266664E+03 0.15500000E+01 0.0000E+00 0.9000E+01
       25  1    1    2    0    0 -.44510096E+03 -.29986466E+03 0.42757386E+03 0.69747981E+03 0.12500000E+03 0.0000E+00 0.9000E+01
        1  1    1    2  502    0 0.56940077E+02 0.13034625E+02 0.26574528E+03 0.27208956E+03 0.32000000E+00 0.0000E+00 0.9000E+01
       -3  1    1    2    0  501 0.38816088E+03 0.28683003E+03 0.45252677E+03 0.66160491E+03 0.50000000E+00 0.0000E+00 0.9000E+01
#aMCatNLO 1  0  0  2  1 0.53747634D+03 0.00000000D+00  -5  6  0 0.00000000D+00 0.00000000D+00 0.00000000D+00 0.00000000D+00 0.00000000D+00
  <mgrwgt>
 0.1239193777D-03    3    2    0
 0.580466772975779D+03 0.000000000000000D+00 0.000000000000000D+00 0.580466772975779D+03
 0.580466772975779D+03 0.000000000000000D+00 0.000000000000000D+00 -.580466772975779D+03
 0.558032176667205D+03 -.445155902359980D+03 -.299930821988379D+03 -.874793393401333D+02
 0.119766949371510D+03 0.568254824459345D+02 0.130083917960255D+02 0.104622026597776D+03
 0.483134419912842D+03 0.388330419914045D+03 0.286922430192354D+03 -.171426872576423D+02
 0.000000000000000D+00 0.000000000000000D+00 0.000000000000000D+00 0.000000000000000D+00
 0.966075939458093D+03 0.000000000000000D+00 0.000000000000000D+00 0.966075939458093D+03
 0.860908086447730D+03 0.000000000000000D+00 0.000000000000000D+00 -.860908086447730D+03
 0.811523573089504D+03 -.539948294899139D+03 -.586300873020058D+03 -.874793393401333D+02
 0.117995025816811D+03 0.403690318874663D+02 -.367069330311437D+02 0.104622026597776D+03
 0.349796651101476D+03 0.330679952559447D+03 0.112759010152963D+03 -.171426872576423D+02
 0.547668775898033D+03 0.168899310452226D+03 0.510248795898239D+03 0.105167853010363D+03
0.930160972026D-04 0.000000000000D+00 0.000000000000D+00 0.109639816782D-06 0.000000000000D+00  6 2 -4 25 1 -3 21 0 0.21361694D+00 0.37332952D-01 0.29825706D+06 0.29825706D+06 0.29825706D+06 0.10847391D+01  1  2  2  2  6  2       -4 0.646672284935D-03 0.100000000000D+01
0.156519024382D-04 0.000000000000D+00 -.357206304959D-06 0.109639816782D-06 0.000000000000D+00  6 2 -4 25 1 -3 21 2 0.21361694D+00 0.37332952D-01 0.29825706D+06 0.29825706D+06 0.29825706D+06 0.10847391D+01  1  2  3  2  6  2       -4 0.128039475076D-03 0.100000000000D+01
-.795546753772D-04 0.000000000000D+00 0.000000000000D+00 0.109639816782D-06 0.000000000000D+00  6 2 -4 25 1 -3 21 2 0.21361694D+00 0.37332952D-01 0.29825706D+06 0.29825706D+06 0.29825706D+06 0.10847391D+01  1  2 15  2  6  2       -4 -.650792382290D-03 0.100000000000D+01
  </mgrwgt>
  </event>
  <event>
  5     66 -.18614916E-05 0.31938059E+02 0.75467711E-02 0.93299558E-01
        2 -1    0    0  502    0 0.00000000E+00 0.00000000E+00 0.28768208E+04 0.28768208E+04 0.32000000E+00 0.0000E+00 0.9000E+01
       -4 -1    0    0    0  501 0.00000000E+00 0.00000000E+00 -.39913249E+03 0.39913550E+03 0.15500000E+01 0.0000E+00 0.9000E+01
       25  1    1    2    0    0 0.22554178E+02 0.52382014E+03 0.86319608E+03 0.10176584E+04 0.12500000E+03 0.0000E+00 0.9000E+01
        1  1    1    2  502    0 0.10865069E+02 0.30039220E+02 0.16970257E+04 0.16973264E+04 0.32000000E+00 0.0000E+00 0.9000E+01
       -3  1    1    2    0  501 -.33419247E+02 -.55385936E+03 -.82533465E+02 0.56097154E+03 0.50000000E+00 0.0000E+00 0.9000E+01
#aMCatNLO 1  0  0  1  4 0.11210470D+02 0.00000000D+00  -5  6  0 0.00000000D+00 0.00000000D+00 0.00000000D+00 0.00000000D+00 0.00000000D+00
  <mgrwgt>
 -.3044073841D-01    1    2    0
 0.107155850109206D+04 0.000000000000000D+00 0.000000000000000D+00 0.107155850109206D+04
 0.107155850109206D+04 0.000000000000000D+00 0.000000000000000D+00 -.107155850109206D+04
 0.557727322149209D+03 0.225598255116444D+02 0.523896293183601D+03 0.143033192417335D+03
 0.632454348149556D+03 0.108631262659153D+02 0.300338487484149D+02 0.631647419776545D+03
 0.952935331885346D+03 -.334229517775596D+02 -.553930141932016D+03 -.774680612193881D+03
 0.000000000000000D+00 -.000000000000000D+00 0.000000000000000D+00 -.000000000000000D+00
 0.148203395975693D+04 0.000000000000000D+00 0.000000000000000D+00 0.148203395975693D+04
 0.218883901287078D+04 0.000000000000000D+00 0.000000000000000D+00 -.218883901287078D+04
 0.362582743086273D+03 0.240354148333041D+02 0.307904287538616D+03 0.143033192417335D+03
 0.691310153399090D+03 0.129855987202154D+02 -.280646823442176D+03 0.631647419776545D+03
 0.133909177148256D+04 -.297480047717165D+02 -.109185703173782D+04 -.774680612193881D+03
 0.127788830465977D+04 -.727300878180303D+01 0.106459956764138D+04 -.706805053113851D+03
-.789508198494D-01 0.000000000000D+00 0.000000000000D+00 0.124220531319D-03 0.000000000000D+00  6 2 -4 25 1 -3 21 2 0.44258805D+00 0.61405232D-01 0.31694089D+06 0.31694089D+06 0.31694089D+06 0.10827912D+01  1  2 14  1  6  1        2 -.304407384072D-01 0.100000000000D+01
  </mgrwgt>
  </event>
  <event>
  5     66 0.18614916E-05 0.11794904E+03 0.75467711E-02 0.92859205E-01
        2 -1    0    0  502    0 0.00000000E+00 0.00000000E+00 0.19791938E+04 0.19791938E+04 0.32000000E+00 0.0000E+00 0.9000E+01
       -4 -1    0    0    0  501 0.00000000E+00 0.00000000E+00 -.26701474E+03 0.26701924E+03 0.15500000E+01 0.0000E+00 0.9000E+01
       25  1    1    2    0    0 0.67211948E+02 0.54777452E+03 0.65711189E+03 0.86717669E+03 0.12500000E+03 0.0000E+00 0.9000E+01
        1  1    1    2  502    0 -.14515409E+03 -.45926808E+03 0.11374154E+04 0.12351966E+04 0.32000000E+00 0.0000E+00 0.9000E+01
       -3  1    1    2    0  501 0.77942137E+02 -.88506442E+02 -.82348267E+02 0.14383968E+03 0.50000000E+00 0.0000E+00 0.9000E+01
#aMCatNLO 1  0  0  1  4 0.65134199D+01 0.00000000D+00  -5  6  0 0.00000000D+00 0.00000000D+00 0.00000000D+00 0.00000000D+00 0.00000000D+00
  <mgrwgt>
 0.2721219824D-03   11    2    0
 0.726965600152003D+03 0.000000000000000D+00 0.000000000000000D+00 0.726965600152003D+03
 0.726965600152003D+03 0.000000000000000D+00 0.000000000000000D+00 -.726965600152003D+03
 0.565877543963062D+03 0.671953946601050D+02 0.547760675764322D+03 -.595111622749468D+01
 0.568807405139519D+03 -.145145475912491D+03 -.459240840620601D+03 0.302609493026530D+03
 0.319246251201425D+03 0.779500812523857D+02 -.885198351437218D+02 -.296658376799035D+03
 0.000000000000000D+00 -.000000000000000D+00 -.000000000000000D+00 0.000000000000000D+00
 0.743352332680969D+03 0.000000000000000D+00 0.000000000000000D+00 0.743352332680969D+03
 0.727620423853743D+03 0.000000000000000D+00 0.000000000000000D+00 -.727620423853743D+03
 0.566942997498905D+03 0.696032562696752D+02 0.548561148228116D+03 -.595111622749468D+01
 0.567547063327832D+03 -.142730102780260D+03 -.458437871017010D+03 0.302609493026530D+03
 0.319455729034834D+03 0.793076713753390D+02 -.880685162198174D+02 -.296658376799035D+03
 0.170269666731408D+02 -.618082486475401D+01 -.205476099128787D+01 0.157319088272265D+02
0.154611536020D-04 0.000000000000D+00 0.000000000000D+00 0.595693531029D-06 0.000000000000D+00  6 2 -4 25 1 -3 21 0 0.30449169D+00 0.41079539D-01 0.33955518D+06 0.33955518D+06 0.33955518D+06 0.10805946D+01  1  2  2  1  6  1        2 0.414864844595D-04 0.100000000000D+01
0.202481738423D-05 0.000000000000D+00 -.593749008467D-07 0.595693531029D-06 0.000000000000D+00  6 2 -4 25 1 -3 21 2 0.30449169D+00 0.41079539D-01 0.33955518D+06 0.33955518D+06 0.33955518D+06 0.10805946D+01  1  2  3  1  6  1        2 0.634419013590D-05 0.100000000000D+01
-.101789706207D-04 0.000000000000D+00 0.000000000000D+00 0.595693531029D-06 0.000000000000D+00  6 2 -4 25 1 -3 21 2 0.30449169D+00 0.41079539D-01 0.33955518D+06 0.33955518D+06 0.33955518D+06 0.10805946D+01  1  2 15  1  6  1        2 -.318929131626D-04 0.100000000000D+01
0.120807253977D-03 0.000000000000D+00 0.000000000000D+00 0.595693531029D-06 0.000000000000D+00  6 2 -4 25 1 -3 21 2 0.31210774D+00 0.41079539D-01 0.34344458D+06 0.34344458D+06 0.34344458D+06 0.10802329D+01  1  2 12  1  6  1        2 0.355140285909D-03 0.100000000000D+01
-.376396706532D-03 0.000000000000D+00 0.000000000000D+00 0.595693531029D-06 0.000000000000D+00  6 2 -4 25 1 -3 21 2 0.30449169D+00 0.41079539D-01 0.33955518D+06 0.33955518D+06 0.33955518D+06 0.10805946D+01  1  2  4  1  6  1        2 -.117933216662D-02 0.100000000000D+01
-.254279396356D-02 0.000000000000D+00 -.137382378590D-03 0.595693531029D-06 0.000000000000D+00  6 2 -4 25 1 -3 21 2 0.31145372D+00 0.41079539D-01 0.33955518D+06 0.33955518D+06 0.33955518D+06 0.10805946D+01  1  2  5  1  6  1        2 -.752345928459D-02 0.100000000000D+01
0.254528441710D-02 0.000000000000D+00 0.137347279754D-03 0.595693531029D-06 0.000000000000D+00  6 2 -4 25 1 -3 21 2 0.30449169D+00 0.41079539D-01 0.33955518D+06 0.33955518D+06 0.33955518D+06 0.10805946D+01  1  2  6  1  6  1        2 0.797492574775D-02 0.100000000000D+01
0.213705533266D-03 0.000000000000D+00 0.000000000000D+00 0.595693531029D-06 0.121025112659D-06  6 2 -4 25 1 -3 21 2 0.31135533D+00 0.41116542D-01 0.34344458D+06 0.34344458D+06 0.34344458D+06 0.10802329D+01  1  2 11  1  6  1        2 0.630922457687D-03 0.100000000000D+01
0.663708446564D-05 0.000000000000D+00 0.000000000000D+00 0.595693531029D-06 0.000000000000D+00  6 21 -4 25 1 -3 -2 2 0.31210774D+00 0.41079539D-01 0.34344458D+06 0.34344458D+06 0.34344458D+06 0.10802329D+01  1  2 12  5  6  1        2 0.372657025017D-05 0.100000000000D+01
-.108549566554D-04 0.000000000000D+00 -.563083144521D-06 0.595693531029D-06 0.000000000000D+00  6 21 -4 25 1 -3 -2 2 0.31145372D+00 0.41079539D-01 0.33955518D+06 0.33955518D+06 0.33955518D+06 0.10805946D+01  1  2  5  5  6  1        2 -.616586269949D-05 0.100000000000D+01
0.752361606789D-06 0.000000000000D+00 0.000000000000D+00 0.595693531029D-06 0.351974132569D-09  6 21 -4 25 1 -3 -2 2 0.31135533D+00 0.41116542D-01 0.34344458D+06 0.34344458D+06 0.34344458D+06 0.10802329D+01  1  2 11  5  6  1        2 0.426473325649D-06 0.100000000000D+01
  </mgrwgt>
  </event>
  <event>
  6     66 -.18614916E-05 0.74424869E+02 0.75467711E-02 0.93954427E-01
        2 -1    0    0  502    0 0.00000000E+00 0.00000000E+00 0.34913748E+03 0.34913763E+03 0.32000000E+00 0.0000E+00 0.9000E+01
       -4 -1    0    0    0  503 0.00000000E+00 0.00000000E+00 -.13347131E+04 0.13347140E+04 0.15500000E+01 0.0000E+00 0.9000E+01
       25  1    1    2    0    0 0.37950710E+03 0.29946696E+03 -.21051840E+03 0.54189399E+03 0.12500000E+03 0.0000E+00 0.9000E+01
        1  1    1    2  502    0 -.80017993E+02 -.49774114E+02 0.10503949E+03 0.14111604E+03 0.32000000E+00 0.0000E+00 0.9000E+01
       -3  1    1    2    0  501 -.32267501E+03 -.28164033E+03 -.73716001E+03 0.85255238E+03 0.50000000E+00 0.0000E+00 0.9000E+01
       21  1    1    2  501  503 0.23185898E+02 0.31947484E+02 -.14293668E+03 0.14828919E+03 0.75000000E+00 0.0000E+00 0.9000E+01
#aMCatNLO 2  0  0  2  5 0.39474392D+02 0.00000000D+00  -5  6  0 0.00000000D+00 0.00000000D+00 0.00000000D+00 0.00000000D+00 0.00000000D+00
  <mgrwgt>
 -.1202666326D-03    2    2    0
 0.641551509957963D+03 0.000000000000000D+00 0.000000000000000D+00 0.641551509957963D+03
 0.641551509957963D+03 0.000000000000000D+00 0.000000000000000D+00 -.641551509957963D+03
 0.524661447988167D+03 0.388884966196355D+03 0.312383003177337D+03 0.104067177329877D+03
 0.234994218436731D+03 -.756869797735869D+02 -.438536476466419D+02 0.218106903557698D+03
 0.523447353491027D+03 -.313197986422768D+03 -.268529355530695D+03 -.322174080887575D+03
 0.000000000000000D+00 0.000000000000000D+00 0.000000000000000D+00 -.000000000000000D+00
 0.646811404062599D+03 0.000000000000000D+00 0.000000000000000D+00 0.646811404062599D+03
 0.720452413310983D+03 0.000000000000000D+00 0.000000000000000D+00 -.720452413310983D+03
 0.510104554755906D+03 0.379537975047216D+03 0.299503931330412D+03 0.104067177329877D+03
 0.237564971934656D+03 -.799555840359344D+02 -.497352902098671D+02 0.218106903557698D+03
 0.536040560261181D+03 -.322768289395807D+03 -.281716125221600D+03 -.322174080887575D+03
 0.835537304218389D+02 0.231858983845256D+02 0.319474841010549D+02 -.736410092483843D+02
-.475405379021D-03 0.000000000000D+00 0.000000000000D+00 0.142843573062D-05 0.000000000000D+00  6 2 -4 25 1 -3 21 2 0.53276601D-01 0.21018063D+00 0.28165965D+06 0.28165965D+06 0.28165965D+06 0.10865846D+01  1  2 13  2  6  2       -4 -.195398302780D-03 0.100000000000D+01
0.168398640135D-03 0.000000000000D+00 0.000000000000D+00 0.142843573062D-05 0.194834990478D-08  6 2 -4 25 1 -3 21 2 0.53713400D-01 0.20534002D+00 0.28165965D+06 0.28165965D+06 0.28165965D+06 0.10865846D+01  1  2  1  2  6  2       -4 0.751316701989D-04 0.100000000000D+01
  </mgrwgt>
  </event>
  <event>
  6     66 0.18614916E-05 0.40546901E+02 0.75467711E-02 0.93423757E-01
        2 -1    0    0  502    0 0.00000000E+00 0.00000000E+00 0.78699799E+03 0.78699805E+03 0.32000000E+00 0.0000E+00 0.9000E+01
       -4 -1    0    0    0  503 0.00000000E+00 0.00000000E+00 -.82639251E+03 0.82639396E+03 0.15500000E+01 0.0000E+00 0.9000E+01
       25  1    1    2    0    0 -.15171990E+03 0.49854557E+03 -.10463276E+03 0.54602164E+03 0.12500000E+03 0.0000E+00 0.9000E+01
        1  1    1    2  502    0 0.49016551E+02 -.52090511E+01 0.36011168E+03 0.36346978E+03 0.32000000E+00 0.0000E+00 0.9000E+01
       -3  1    1    2    0  501 0.14118771E+03 -.44072856E+03 -.67892573E+02 0.46774489E+03 0.50000000E+00 0.0000E+00 0.9000E+01
       21  1    1    2  501  503 -.38484360E+02 -.52607960E+02 -.22698087E+03 0.23615571E+03 0.75000000E+00 0.0000E+00 0.9000E+01
#aMCatNLO 2  0  0  2  5 0.25432569D+03 0.00000000D+00  -5  6  0 0.00000000D+00 0.00000000D+00 0.00000000D+00 0.00000000D+00 0.00000000D+00
  <mgrwgt>
 0.9714215068D-03    1    2    0
 0.681421777557602D+03 0.000000000000000D+00 0.000000000000000D+00 0.681421777557602D+03
 0.681421777557602D+03 0.000000000000000D+00 0.000000000000000D+00 -.681421777557602D+03
 0.551288985724329D+03 -.167500116080175D+03 0.477097571431837D+03 -.180599457994564D+03
 0.316409625567469D+03 0.400522241823919D+02 -.174293745557963D+02 0.313380100504776D+03
 0.495144943823406D+03 0.127447891897783D+03 -.459668196876040D+03 -.132780642510211D+03
 0.000000000000000D+00 -.000000000000000D+00 -.000000000000000D+00 -.000000000000000D+00
 0.686200053416735D+03 0.000000000000000D+00 0.000000000000000D+00 0.686200053416735D+03
 0.947784073090736D+03 0.000000000000000D+00 0.000000000000000D+00 -.947784073090736D+03
 0.565605978698828D+03 -.151739526820009D+03 0.498642231376734D+03 -.180599457994564D+03
 0.317229513998781D+03 0.489935539725446D+02 -.520661393409112D+01 0.313380100504776D+03
 0.481565914181124D+03 0.141230332636876D+03 -.440827657729135D+03 -.132780642510211D+03
 0.269582719628738D+03 -.384843597894109D+02 -.526079597135082D+02 -.261584019674000D+03
0.109707221347D-02 0.000000000000D+00 0.000000000000D+00 0.328239088571D-05 0.505432649491D-08  6 2 -4 25 1 -3 21 2 0.12107664D+00 0.12713733D+00 0.30988575D+06 0.30988575D+06 0.30988575D+06 0.10835117D+01  1  2  1  2  6  2       -4 0.971421506767D-03 0.100000000000D+01
  </mgrwgt>
  </event>
  <event>
  6     66 0.18614916E-05 0.16968722E+02 0.75467711E-02 0.94966641E-01
        2 -1    0    0  502    0 0.00000000E+00 0.00000000E+00 0.33759864E+04 0.33759865E+04 0.32000000E+00 0.0000E+00 0.9000E+01
       -4 -1    0    0    0  501 0.00000000E+00 0.00000000E+00 -.22472268E+03 0.22472802E+03 0.15500000E+01 0.0000E+00 0.9000E+01
       25  1    1    2    0    0 -.55061588E+02 -.46841031E+03 0.12513571E+04 0.13431157E+04 0.12500000E+03 0.0000E+00 0.9000E+01
        1  1    1    2  503    0 0.41908175E+02 0.44136586E+03 0.18834668E+04 0.19349438E+04 0.32000000E+00 0.0000E+00 0.9000E+01
       -3  1    1    2    0  501 -.71580285E+01 0.13086230E+02 -.15184340E+03 0.15257508E+03 0.50000000E+00 0.0000E+00 0.9000E+01
       21  1    1    2  502  503 0.20311442E+02 0.13958215E+02 0.16828318E+03 0.17007992E+03 0.75000000E+00 0.0000E+00 0.9000E+01
#aMCatNLO 2  0  0  4  1 0.77634056D+02 0.00000000D+00  -5  6  0 0.00000000D+00 0.00000000D+00 0.00000000D+00 0.00000000D+00 0.00000000D+00
  <mgrwgt>
 0.1868055755D-01    2    2    0
 0.871016856596548D+03 0.000000000000000D+00 0.000000000000000D+00 0.871016856596548D+03
 0.871016856596548D+03 -.000000000000000D+00 -.000000000000000D+00 -.871016856596548D+03
 0.513588027838712D+03 -.552667426322349D+02 -.469949038965609D+03 0.155695697671388D+03
 0.636271858241128D+03 0.626993392093049D+02 0.458834693499676D+03 0.436327164514649D+03
 0.592173827113256D+03 -.743259657707003D+01 0.111143454659332D+02 -.592022862186037D+03
 0.000000000000000D+00 0.000000000000000D+00 0.000000000000000D+00 0.000000000000000D+00
 0.871016856596548D+03 0.000000000000000D+00 0.000000000000000D+00 0.871016856596548D+03
 0.871016856596548D+03 -.000000000000000D+00 -.000000000000000D+00 -.871016856596548D+03
 0.512489998281086D+03 -.550319012088262D+02 -.468230465948898D+03 0.157329968361935D+03
 0.592081504624227D+03 0.418719834470462D+02 0.441186837944947D+03 0.392633950575391D+03
 0.590328163141003D+03 -.716195395194239D+01 0.130949122073760D+02 -.590139449526383D+03
 0.471340471467797D+02 0.203218717137225D+02 0.139487157965751D+02 0.401755305890567D+02
-.220252510625D-01 0.000000000000D+00 0.000000000000D+00 0.848812061310D-04 0.000000000000D+00  6 2 -4 25 1 -3 21 2 0.51938294D+00 0.34573132D-01 0.23323535D+06 0.23323535D+06 0.23323535D+06 0.10927342D+01  1  2  8  3  6  4        1 -.148687263393D-01 0.100000000000D+01
0.497529131819D-01 0.000000000000D+00 0.000000000000D+00 0.848812061310D-04 0.135821491904D-05  6 2 -4 25 1 -3 21 2 0.51938294D+00 0.34573132D-01 0.23546093D+06 0.23546093D+06 0.23546093D+06 0.10924221D+01  1  2  1  3  6  4        1 0.335492838877D-01 0.100000000000D+01
  </mgrwgt>
  </event>
  <event>
  6     66 0.18614916E-05 0.89503232E+01 0.75467711E-02 0.92397978E-01
        2 -1    0    0  503    0 0.00000000E+00 0.00000000E+00 0.35290500E+04 0.35290500E+04 0.32000000E+00 0.0000E+00 0.9000E+01
       -4 -1    0    0    0  501 0.00000000E+00 0.00000000E+00 -.19137373E+03 0.19138000E+03 0.15500000E+01 0.0000E+00 0.9000E+01
       25  1    1    2    0    0 0.28555514E+03 0.52855026E+03 0.15419489E+04 0.16595598E+04 0.12500000E+03 0.0000E+00 0.9000E+01
        1  1    1    2  502    0 -.27103125E+03 -.52277015E+03 0.18067503E+04 0.19002877E+04 0.32000000E+00 0.0000E+00 0.9000E+01
       -3  1    1    2    0  501 -.18284198E+01 -.75020703E+01 -.85075254E+02 0.85426419E+02 0.50000000E+00 0.0000E+00 0.9000E+01
       21  1    1    2  503  502 -.12695476E+02 0.17219543E+01 0.74052344E+02 0.75156187E+02 0.75000000E+00 0.0000E+00 0.9000E+01
#aMCatNLO 2  0  0  1  5 0.50873700D+03 0.00000000D+00  -5  6  0 0.00000000D+00 0.00000000D+00 0.00000000D+00 0.00000000D+00 0.00000000D+00
  <mgrwgt>
 0.2552811806D-01    1    2    0
 0.811883004221434D+03 0.000000000000000D+00 0.000000000000000D+00 0.811883004221434D+03
 0.811883004221434D+03 0.000000000000000D+00 0.000000000000000D+00 -.811883004221434D+03
 0.624760008071063D+03 0.280648380123224D+03 0.529184124321569D+03 0.126098045128300D+03
 0.636172611979107D+03 -.275983023182980D+03 -.522065704380327D+03 0.236635507599715D+03
 0.362833388392699D+03 -.466535694024464D+01 -.711841994124177D+01 -.362733552728015D+03
 0.000000000000000D+00 -.000000000000000D+00 0.000000000000000D+00 0.000000000000000D+00
 0.829435522036902D+03 0.000000000000000D+00 0.000000000000000D+00 0.829435522036902D+03
 0.814249490711378D+03 0.000000000000000D+00 0.000000000000000D+00 -.814249490711378D+03
 0.626412531064844D+03 0.285539473902820D+03 0.528520719492800D+03 0.126098045128300D+03
 0.634588264907936D+03 -.271015354515485D+03 -.522739495464745D+03 0.236635507599715D+03
 0.362815754752767D+03 -.182864345813887D+01 -.750317834225913D+01 -.362733552728015D+03
 0.198684620227329D+02 -.126954759291955D+02 0.172195431420364D+01 0.151860313255240D+02
0.369458240296D-01 0.000000000000D+00 0.000000000000D+00 0.111102905433D-04 0.452722857460D-06  6 2 -4 25 1 -3 21 2 0.54292655D+00 0.29442341D-01 0.37389635D+06 0.37389635D+06 0.37389635D+06 0.10775469D+01  1  2  1  1  6  1        2 0.255281180602D-01 0.100000000000D+01
  </mgrwgt>
  </event>
  <event>
  5     66 0.18614916E-05 0.50757745E+02 0.75467711E-02 0.92531333E-01
        2 -1    0    0  502    0 0.00000000E+00 0.00000000E+00 0.11251844E+04 0.11251845E+04 0.32000000E+00 0.0000E+00 0.9000E+01
       -4 -1    0    0    0  501 0.00000000E+00 0.00000000E+00 -.43398228E+03 0.43398505E+03 0.15500000E+01 0.0000E+00 0.9000E+01
       25  1    1    2    0    0 0.58734273E+03 -.10914491E+03 0.77110630E+02 0.61518708E+03 0.12500000E+03 0.0000E+00 0.9000E+01
        1  1    1    2  502    0 -.50200173E+02 0.78570817E+01 0.31857859E+03 0.32260535E+03 0.32000000E+00 0.0000E+00 0.9000E+01
       -3  1    1    2    0  501 -.53714255E+03 0.10128783E+03 0.29551290E+03 0.62137708E+03 0.50000000E+00 0.0000E+00 0.9000E+01
#aMCatNLO 1  0  0  2  5 0.85452321D+01 0.00000000D+00  -5  6  0 0.00000000D+00 0.00000000D+00 0.00000000D+00 0.00000000D+00 0.00000000D+00
  <mgrwgt>
 0.2871784353D-03    1    2    0
 0.698793454935435D+03 0.000000000000000D+00 0.000000000000000D+00 0.698793454935435D+03
 0.698793454935435D+03 0.000000000000000D+00 0.000000000000000D+00 -.698793454935435D+03
 0.648229249092327D+03 0.587444387603486D+03 -.109164615586929D+03 -.218101667934303D+03
 0.202131006043964D+03 -.501472343944964D+02 0.784879596413307D+01 0.195654273883403D+03
 0.547226654734580D+03 -.537297153208989D+03 0.101315819622796D+03 0.224473940508994D+02
 0.000000000000000D+00 -.000000000000000D+00 0.000000000000000D+00 0.000000000000000D+00
 0.127683177021442D+04 0.000000000000000D+00 0.000000000000000D+00 0.127683177021442D+04
 0.891672985405953D+03 0.000000000000000D+00 0.000000000000000D+00 -.891672985405953D+03
 0.812280871490403D+03 0.678729124089101D+03 -.368691812692829D+03 -.218101667934303D+03
 0.207611679807855D+03 -.245375158600106D+02 -.649609499562427D+02 0.195654273883403D+03
 0.480522594070841D+03 -.473060816857510D+03 -.813113858386371D+02 0.224473940508994D+02
 0.668089610251278D+03 -.181130791371581D+03 0.514964148487709D+03 0.385158784808471D+03
0.937840955001D-04 0.000000000000D+00 0.000000000000D+00 0.330091441819D-06 0.000000000000D+00  6 2 -4 25 1 -3 21 2 0.17310551D+00 0.66766722D-01 0.36479208D+06 0.36479208D+06 0.36479208D+06 0.10783242D+01  1  2 14  2  6  2       -4 0.287178435308D-03 0.100000000000D+01
  </mgrwgt>
  </event>
  <event>
  5     66 -.18614916E-05 0.19030923E+02 0.75467711E-02 0.93214153E-01
        2 -1    0    0  502    0 0.00000000E+00 0.00000000E+00 0.25620062E+04 0.25620062E+04 0.32000000E+00 0.0000E+00 0.9000E+01
       -4 -1    0    0    0  501 0.00000000E+00 0.00000000E+00 -.37841461E+03 0.37841778E+03 0.15500000E+01 0.0000E+00 0.9000E+01
       25  1    1    2    0    0 0.22008131E+03 -.48069881E+03 0.15446717E+04 0.16374196E+04 0.12500000E+03 0.0000E+00 0.9000E+01
        1  1    1    2  502    0 -.21298361E+03 0.46304407E+03 0.90371173E+03 0.10375292E+04 0.32000000E+00 0.0000E+00 0.9000E+01
       -3  1    1    2    0  501 -.70977094E+01 0.17654738E+02 -.26479191E+03 0.26547519E+03 0.50000000E+00 0.0000E+00 0.9000E+01
#aMCatNLO 1  0  0  5  2 0.49296225D+02 0.00000000D+00  -5  6  0 0.00000000D+00 0.00000000D+00 0.00000000D+00 0.00000000D+00 0.00000000D+00
  <mgrwgt>
 -.7798998399D-02    4    2    0
 0.984634577110156D+03 0.000000000000000D+00 0.000000000000000D+00 0.984634577110156D+03
 0.984634577110156D+03 -.000000000000000D+00 -.000000000000000D+00 -.984634577110156D+03
 0.732156636641332D+03 0.220034235720017D+03 -.480596777100424D+03 0.490958260476123D+03
 0.547002235973842D+03 -.212935455105180D+03 0.462939389499536D+03 0.198889566768420D+03
 0.690110281605138D+03 -.709878061483773D+01 0.176573876008885D+02 -.689847827244543D+03
 0.000000000000000D+00 -.000000000000000D+00 0.000000000000000D+00 0.000000000000000D+00
 0.984634577110156D+03 0.000000000000000D+00 0.000000000000000D+00 0.984634577110156D+03
 0.984634577110156D+03 -.000000000000000D+00 -.000000000000000D+00 -.984634577110156D+03
 0.730656519460430D+03 0.220011853206385D+03 -.480541103212170D+03 0.488783164606098D+03
 0.546454941704124D+03 -.212952186100580D+03 0.462981005896317D+03 0.197263676147122D+03
 0.135785174003281D+03 0.243834496023924D+02 -.210583240241391D+02 -.131907573148335D+03
 0.556372519052476D+03 -.314431167081978D+02 0.386184213399931D+02 -.554139267604886D+03
0.453192829991D-02 0.000000000000D+00 0.000000000000D+00 0.214563018366D-04 0.000000000000D+00  6 2 -4 25 1 -3 21 0 0.39415504D+00 0.58217878D-01 0.28715942D+06 0.28715942D+06 0.28715942D+06 0.10859602D+01  1  2  2  4  6  5       -3 0.262664539399D-02 0.100000000000D+01
0.383564824827D-02 0.000000000000D+00 -.174037979558D-04 0.214563018366D-04 0.000000000000D+00  6 2 -4 25 1 -3 21 2 0.39415504D+00 0.58217878D-01 0.28715942D+06 0.28715942D+06 0.28715942D+06 0.10859602D+01  1  2  3  4  6  5       -3 0.262171233505D-02 0.100000000000D+01
-.235377928650D-02 0.000000000000D+00 0.000000000000D+00 0.214563018366D-04 0.000000000000D+00  6 2 -4 25 1 -3 21 2 0.39415504D+00 0.58217878D-01 0.28715942D+06 0.28715942D+06 0.28715942D+06 0.10859602D+01  1  2 15  4  6  5       -3 -.160883683538D-02 0.100000000000D+01
-.167349162995D-01 0.000000000000D+00 0.000000000000D+00 0.214563018366D-04 0.000000000000D+00  6 2 -4 25 1 -3 21 2 0.39415504D+00 0.58217878D-01 0.28715942D+06 0.28715942D+06 0.28715942D+06 0.10859602D+01  1  2  5  4  6  5       -3 -.114385192928D-01 0.100000000000D+01
  </mgrwgt>
  </event>
  <event>
  6     66 -.18614916E-05 0.14942691E+03 0.75467711E-02 0.94244380E-01
        2 -1    0    0  502    0 0.00000000E+00 0.00000000E+00 0.17119668E+04 0.17119668E+04 0.32000000E+00 0.0000E+00 0.9000E+01
       -4 -1    0    0    0  503 0.00000000E+00 0.00000000E+00 -.31204287E+03 0.31204672E+03 0.15500000E+01 0.0000E+00 0.9000E+01
       25  1    1    2    0    0 -.41914208E+03 0.16133884E+03 0.59406582E+03 0.75514866E+03 0.12500000E+03 0.0000E+00 0.9000E+01
        1  1    1    2  502    0 0.12733888E+03 0.98493143E+02 0.79400399E+03 0.81015957E+03 0.32000000E+00 0.0000E+00 0.9000E+01
       -3  1    1    2    0  501 0.29298370E+03 -.28278971E+03 0.53930153E+02 0.41075319E+03 0.50000000E+00 0.0000E+00 0.9000E+01
       21  1    1    2  501  503 -.11805122E+01 0.22957722E+02 -.42076040E+02 0.47952125E+02 0.75000000E+00 0.0000E+00 0.9000E+01
#aMCatNLO 2  0  0  2  5 0.22988054D+02 0.00000000D+00  -5  6  0 0.00000000D+00 0.00000000D+00 0.00000000D+00 0.00000000D+00 0.00000000D+00
  <mgrwgt>
 -.1366374419D-02    1    2    0
 0.675449183134934D+03 0.000000000000000D+00 0.000000000000000D+00 0.675449183134934D+03
 0.675449183134934D+03 0.000000000000000D+00 0.000000000000000D+00 -.675449183134934D+03
 0.473663968550879D+03 -.419583750593779D+03 0.169442180960411D+03 0.630188753660802D+02
 0.338959914011218D+03 0.126992919790100D+03 0.104200419702116D+03 0.296494340862656D+03
 0.538274483707771D+03 0.292590830803678D+03 -.273642600662527D+03 -.359513216228736D+03
 0.000000000000000D+00 -.000000000000000D+00 0.000000000000000D+00 -.000000000000000D+00
 0.676707103487407D+03 0.000000000000000D+00 0.000000000000000D+00 0.676707103487407D+03
 0.789424304275369D+03 0.000000000000000D+00 0.000000000000000D+00 -.789424304275369D+03
 0.470486311321326D+03 -.419171247223353D+03 0.161420122628999D+03 0.630188753660802D+02
 0.337349138166408D+03 0.127288402161307D+03 0.984540986107694D+02 0.296494340862656D+03
 0.543258494918990D+03 0.293063357273692D+03 -.282831943531825D+03 -.359513216228736D+03
 0.115037463356051D+03 -.118051221164607D+01 0.229577222920562D+02 -.112717200787962D+03
-.435174441622D-03 0.000000000000D+00 0.000000000000D+00 0.522054484736D-06 0.000000000000D+00  6 2 -4 25 1 -3 21 2 0.26288974D+00 0.48309418D-01 0.27954454D+06 0.27954454D+06 0.27954454D+06 0.10868283D+01  1  2 13  2  6  2       -4 -.136637441903D-02 0.100000000000D+01
  </mgrwgt>
  </event>
  <event>
  5     66 0.18614916E-05 0.23581809E+02 0.75467711E-02 0.87302160E-01
        2 -1    0    0  502    0 0.00000000E+00 0.00000000E+00 0.12002932E+04 0.12002933E+04 0.32000000E+00 0.0000E+00 0.9000E+01
       -4 -1    0    0    0  501 0.00000000E+00 0.00000000E+00 -.13325977E+04 0.13325986E+04 0.15500000E+01 0.0000E+00 0.9000E+01
       25  1    1    2    0    0 0.31649806E+03 -.55207182E+03 0.23593177E+03 0.69010370E+03 0.12500000E+03 0.0000E+00 0.9000E+01
        1  1    1    2  502    0 0.12435610E+02 0.20041803E+02 0.64856650E+03 0.64899532E+03 0.32000000E+00 0.0000E+00 0.9000E+01
       -3  1    1    2    0  501 -.32893367E+03 0.53203001E+03 -.10168027E+04 0.11937928E+04 0.50000000E+00 0.0000E+00 0.9000E+01
#aMCatNLO 1  0  0  1  4 0.18313835D+02 0.00000000D+00  -5  6  0 0.00000000D+00 0.00000000D+00 0.00000000D+00 0.00000000D+00 0.00000000D+00
  <mgrwgt>
 0.1255732456D-01    4    2    0
 0.126471703369232D+04 0.000000000000000D+00 0.000000000000000D+00 0.126471703369232D+04
 0.126471703369232D+04 0.000000000000000D+00 0.000000000000000D+00 -.126471703369232D+04
 0.703496275640812D+03 0.316537994512064D+03 -.552130586251256D+03 0.272465637460248D+03
 0.683673211513927D+03 0.124331892728571D+02 0.200379017126646D+02 0.683266389076197D+03
 0.114226458022990D+04 -.328971183784921D+03 0.532092684538591D+03 -.955732026536445D+03
 0.000000000000000D+00 0.000000000000000D+00 -.000000000000000D+00 -.000000000000000D+00
 0.143652310319156D+04 0.000000000000000D+00 0.000000000000000D+00 0.143652310319156D+04
 0.169736174744096D+04 0.000000000000000D+00 0.000000000000000D+00 -.169736174744096D+04
 0.600866923623531D+03 0.219462477816590D+03 -.472244382855732D+03 0.272465637460248D+03
 0.697104278488760D+03 -.903293605745236D+02 0.104604126421034D+03 0.683266389076197D+03
 0.127889982693594D+04 -.509163162493670D+03 0.680377788253523D+03 -.955732026536445D+03
 0.557013821584289D+03 0.380030045251604D+03 -.312737531818826D+03 -.260838644249404D+03
0.130617960085D+00 0.000000000000D+00 0.000000000000D+00 0.179220854082D-03 0.000000000000D+00  6 2 -4 25 1 -3 21 0 0.18466057D+00 0.20501510D+00 0.42103725D+06 0.42103725D+06 0.42103725D+06 0.10738266D+01  1  2  2  1  6  1        2 0.104381646101D-01 0.100000000000D+01
0.976902374744D-01 0.000000000000D+00 -.501607359224D-03 0.179220854082D-03 0.000000000000D+00  6 2 -4 25 1 -3 21 2 0.18466057D+00 0.20501510D+00 0.42103725D+06 0.42103725D+06 0.42103725D+06 0.10738266D+01  1  2  3  1  6  1        2 0.900203477182D-02 0.100000000000D+01
-.719528321399D-01 0.000000000000D+00 0.000000000000D+00 0.179220854082D-03 0.000000000000D+00  6 2 -4 25 1 -3 21 2 0.18466057D+00 0.20501510D+00 0.42103725D+06 0.42103725D+06 0.42103725D+06 0.10738266D+01  1  2 15  1  6  1        2 -.663036464645D-02 0.100000000000D+01
-.274024479922D-02 0.000000000000D+00 0.000000000000D+00 0.179220854082D-03 0.000000000000D+00  6 2 -4 25 1 -3 21 2 0.18466057D+00 0.20501510D+00 0.42103725D+06 0.42103725D+06 0.42103725D+06 0.10738266D+01  1  2  4  1  6  1        2 -.252510175055D-03 0.100000000000D+01
  </mgrwgt>
  </event>
  <event>
  5     66 0.18614916E-05 0.77754284E+02 0.75467711E-02 0.90989421E-01
        2 -1    0    0  502    0 0.00000000E+00 0.00000000E+00 0.16496276E+04 0.16496277E+04 0.32000000E+00 0.0000E+00 0.9000E+01
       -4 -1    0    0    0  501 0.00000000E+00 0.00000000E+00 -.71704743E+03 0.71704911E+03 0.15500000E+01 0.0000E+00 0.9000E+01
       25  1    1    2    0    0 -.37151453E+03 0.25579892E+03 0.10880262E+03 0.48054047E+03 0.12500000E+03 0.0000E+00 0.9000E+01
        1  1    1    2  502    0 -.53237151E+02 -.56677366E+02 0.12499395E+04 0.12523559E+04 0.32000000E+00 0.0000E+00 0.9000E+01
       -3  1    1    2    0  501 0.42475168E+03 -.19912155E+03 -.42616189E+03 0.63378040E+03 0.50000000E+00 0.0000E+00 0.9000E+01
#aMCatNLO 1  0  0  4  1 0.23208830D+03 0.00000000D+00  -5  6  0 0.00000000D+00 0.00000000D+00 0.00000000D+00 0.00000000D+00 0.00000000D+00
  <mgrwgt>
 0.1929919869D-01    6    2    0
 0.108759518256612D+04 0.000000000000000D+00 0.000000000000000D+00 0.108759518256612D+04
 0.108759518256612D+04 -.000000000000000D+00 -.000000000000000D+00 -.108759518256612D+04
 0.476235596919246D+03 -.371560944242997D+03 0.255818953365246D+03 -.876040614663118D+02
 0.826656519594431D+03 -.532336752292613D+02 -.566736661402803D+02 0.822991660210348D+03
 0.872298248618564D+03 0.424794619472259D+03 -.199145287224965D+03 -.735387598744036D+03
 0.000000000000000D+00 -.000000000000000D+00 0.000000000000000D+00 0.000000000000000D+00
 0.108759518256612D+04 0.000000000000000D+00 0.000000000000000D+00 0.108759518256612D+04
 0.108759518256612D+04 -.000000000000000D+00 -.000000000000000D+00 -.108759518256612D+04
 0.471734418975379D+03 -.373700470962632D+03 0.253541169190386D+03 -.545270169174616D+02
 0.517346093956343D+03 0.186732715047870D+03 0.669127272199956D+02 0.477808079670822D+03
 0.822100072401068D+03 0.420970436828564D+03 -.203216590764967D+03 -.676265803952909D+03
 0.364009779799451D+03 -.234002680913801D+03 -.117237305645414D+03 0.252984741199548D+03
0.574764142894D-01 0.000000000000D+00 0.000000000000D+00 0.816570202127D-04 0.000000000000D+00  6 2 -4 25 1 -3 21 0 0.25378900D+00 0.11031512D+00 0.25756701D+06 0.25756701D+06 0.25756701D+06 0.10894862D+01  1  2  2  3  6  4        1 0.205051521685D-01 0.100000000000D+01
0.178875146901D-01 0.000000000000D+00 -.220724564759D-03 0.816570202127D-04 0.000000000000D+00  6 2 -4 25 1 -3 21 2 0.25378900D+00 0.11031512D+00 0.25756701D+06 0.25756701D+06 0.25756701D+06 0.10894862D+01  1  2  3  3  6  4        1 0.757472381947D-02 0.100000000000D+01
-.406614832288D-01 0.000000000000D+00 0.000000000000D+00 0.816570202127D-04 0.000000000000D+00  6 2 -4 25 1 -3 21 2 0.25378900D+00 0.11031512D+00 0.25756701D+06 0.25756701D+06 0.25756701D+06 0.10894862D+01  1  2 15  3  6  4        1 -.172186863790D-01 0.100000000000D+01
-.173245871787D-02 0.000000000000D+00 0.000000000000D+00 0.816570202127D-04 0.000000000000D+00  6 2 -4 25 1 -3 21 2 0.25378900D+00 0.11031512D+00 0.25756701D+06 0.25756701D+06 0.25756701D+06 0.10894862D+01  1  2  4  3  6  4        1 -.733634411705D-03 0.100000000000D+01
-.414142455126D-01 0.000000000000D+00 0.000000000000D+00 0.816570202127D-04 0.000000000000D+00  6 2 -4 25 1 -3 21 2 0.25378900D+00 0.11031512D+00 0.25756701D+06 0.25756701D+06 0.25756701D+06 0.10894862D+01  1  2  5  3  6  4        1 -.175374543297D-01 0.100000000000D+01
0.630728447692D-01 0.000000000000D+00 -.000000000000D+00 0.816570202127D-04 0.000000000000D+00  6 2 -4 25 1 -3 21 2 0.25378900D+00 0.11031512D+00 0.25756701D+06 0.25756701D+06 0.25756701D+06 0.10894862D+01  1  2  6  3  6  4        1 0.267090978212D-01 0.100000000000D+01
  </mgrwgt>
  </event>
  <event>
  5     66 0.18614916E-05 0.24559276E+02 0.75467711E-02 0.93606812E-01
        2 -1    0    0  502    0 0.00000000E+00 0.00000000E+00 0.20477974E+04 0.20477975E+04 0.32000000E+00 0.0000E+00 0.9000E+01
       -4 -1    0    0    0  501 0.00000000E+00 0.00000000E+00 -.17199664E+03 0.17200362E+03 0.15500000E+01 0.0000E+00 0.9000E+01
       25  1    1    2    0    0 0.23550530E+03 0.45720670E+03 0.64952269E+03 0.83785764E+03 0.12500000E+03 0.0000E+00 0.9000E+01
        1  1    1    2  502    0 -.25074389E+03 -.47650972E+03 0.12413454E+04 0.13530974E+04 0.32000000E+00 0.0000E+00 0.9000E+01
       -3  1    1    2    0  501 0.15238592E+02 0.19303019E+02 -.15067296E+02 0.28846051E+02 0.50000000E+00 0.0000E+00 0.9000E+01
#aMCatNLO 1  0  0  4  4 0.18920478D+03 0.00000000D+00  -5  6  0 0.00000000D+00 0.00000000D+00 0.00000000D+00 0.00000000D+00 0.00000000D+00
  <mgrwgt>
 0.6282552005D-02    6    2    0
 0.593482982841195D+03 0.000000000000000D+00 0.000000000000000D+00 0.593482982841195D+03
 0.593482982841195D+03 -.000000000000000D+00 -.000000000000000D+00 -.593482982841195D+03
 0.540554080446838D+03 0.235544675825302D+03 0.457267712096977D+03 -.109538390766322D+03
 0.568794115800023D+03 -.250762106379630D+03 -.476544325950314D+03 0.183168276667499D+03
 0.776177694355287D+02 0.152174305543277D+02 0.192766138533369D+02 -.736298859011777D+02
 0.000000000000000D+00 0.000000000000000D+00 -.000000000000000D+00 0.000000000000000D+00
 0.593482982841195D+03 0.000000000000000D+00 0.000000000000000D+00 0.593482982841195D+03
 0.593482982841195D+03 -.000000000000000D+00 -.000000000000000D+00 -.593482982841195D+03
 0.483055848647087D+03 0.209193363573677D+03 0.407190096638420D+03 -.902901697223088D+02
 0.361542032251057D+03 -.294542714093393D+03 -.161201923618877D+03 0.134056594318579D+03
 0.726915530952645D+02 0.113479410351656D+02 0.119230974018149D+02 -.708034312304912D+02
 0.269676531688980D+03 0.740014094845503D+02 -.257911270421357D+03 0.270370066342212D+02
0.105835548854D-02 0.000000000000D+00 0.000000000000D+00 0.744470992435D-06 0.000000000000D+00  6 2 -4 25 1 -3 21 0 0.31504630D+00 0.26461560D-01 0.29833054D+06 0.29833054D+06 0.29833054D+06 0.10847312D+01  1  2  2  3  6  4        1 0.643551908505D-02 0.100000000000D+01
0.354554557646D-03 0.000000000000D+00 -.406436374739D-05 0.744470992435D-06 0.000000000000D+00  6 2 -4 25 1 -3 21 2 0.31504630D+00 0.26461560D-01 0.29833054D+06 0.29833054D+06 0.29833054D+06 0.10847312D+01  1  2  3  3  6  4        1 0.253675990744D-02 0.100000000000D+01
-.664837926690D-03 0.000000000000D+00 0.000000000000D+00 0.744470992435D-06 0.000000000000D+00  6 2 -4 25 1 -3 21 2 0.31504630D+00 0.26461560D-01 0.29833054D+06 0.29833054D+06 0.29833054D+06 0.10847312D+01  1  2 15  3  6  4        1 -.475676919391D-02 0.100000000000D+01
-.354784804209D-04 0.000000000000D+00 0.000000000000D+00 0.744470992435D-06 0.000000000000D+00  6 2 -4 25 1 -3 21 2 0.31504630D+00 0.26461560D-01 0.29833054D+06 0.29833054D+06 0.29833054D+06 0.10847312D+01  1  2  4  3  6  4        1 -.253840727097D-03 0.100000000000D+01
-.572382402117D-03 0.000000000000D+00 0.000000000000D+00 0.744470992435D-06 0.000000000000D+00  6 2 -4 25 1 -3 21 2 0.31504630D+00 0.26461560D-01 0.29833054D+06 0.29833054D+06 0.29833054D+06 0.10847312D+01  1  2  5  3  6  4        1 -.409527024290D-02 0.100000000000D+01
0.896764547823D-03 0.000000000000D+00 -.000000000000D+00 0.744470992435D-06 0.000000000000D+00  6 2 -4 25 1 -3 21 2 0.31504630D+00 0.26461560D-01 0.29833054D+06 0.29833054D+06 0.29833054D+06 0.10847312D+01  1  2  6  3  6  4        1 0.641615317663D-02 0.100000000000D+01
  </mgrwgt>
  </event>
  <event>
  5     66 0.18614916E-05 0.72893101E+02 0.75467711E-02 0.94120340E-01
        2 -1    0    0  502    0 0.00000000E+00 0.00000000E+00 0.96459104E+03 0.96459109E+03 0.32000000E+00 0.0000E+00 0.9000E+01
       -4 -1    0    0    0  501 0.00000000E+00 0.00000000E+00 -.30533040E+03 0.30533433E+03 0.15500000E+01 0.0000E+00 0.9000E+01
       25  1    1    2    0    0 0.32923178E+03 0.33587745E+03 0.21987746E+03 0.53402090E+03 0.12500000E+03 0.0000E+00 0.9000E+01
        1  1    1    2  502    0 0.58848753E+02 -.43292993E+02 0.15857970E+03 0.17459978E+03 0.32000000E+00 0.0000E+00 0.9000E+01
       -3  1    1    2    0  501 -.38808053E+03 -.29258446E+03 0.28080348E+03 0.56130474E+03 0.50000000E+00 0.0000E+00 0.9000E+01
#aMCatNLO 1  0  0  2  2 0.18894992D+03 0.00000000D+00  -5  6  0 0.00000000D+00 0.00000000D+00 0.00000000D+00 0.00000000D+00 0.00000000D+00
  <mgrwgt>
 0.3576895586D-03    1    2    0
 0.542698347212759D+03 0.000000000000000D+00 0.000000000000000D+00 0.542698347212759D+03
 0.542698347212759D+03 0.000000000000000D+00 0.000000000000000D+00 -.542698347212759D+03
 0.491392560083050D+03 0.329398421496579D+03 0.335922676225922D+03 -.670394183876251D+02
 0.107719575866540D+03 0.587159937600274D+02 -.431953266842573D+02 0.793101686688407D+02
 0.486284558475929D+03 -.388114415256606D+03 -.292727349541664D+03 -.122707502812156D+02
 0.000000000000000D+00 0.000000000000000D+00 0.000000000000000D+00 -.000000000000000D+00
 0.172277145863520D+04 0.000000000000000D+00 0.000000000000000D+00 0.172277145863520D+04
 0.331906900933507D+04 0.000000000000000D+00 0.000000000000000D+00 -.331906900933507D+04
 0.402348396817340D+03 0.312020576865186D+03 -.210732314599468D+03 -.670394183876251D+02
 0.317528838176563D+03 0.504474895453202D+02 -.303297726694502D+03 0.793101686688407D+02
 0.166517199168701D+04 -.429947205139694D+03 -.160866173926621D+04 -.122707502812156D+02
 0.265679124128935D+04 0.674791387291887D+02 0.212269178056018D+04 -.159629755069987D+04
0.402212041774D-04 0.000000000000D+00 0.000000000000D+00 0.365400204024D-07 0.000000000000D+00  6 2 -4 25 1 -3 21 2 0.14839893D+00 0.46974214D-01 0.27343533D+06 0.27343533D+06 0.27343533D+06 0.10875436D+01  1  2 14  2  6  2       -4 0.357689558596D-03 0.100000000000D+01
  </mgrwgt>
  </event>
  <event>
  5     66 -.18614916E-05 0.36191670E+02 0.75467711E-02 0.94178151E-01
        2 -1    0    0  502    0 0.00000000E+00 0.00000000E+00 0.13702263E+04 0.13702263E+04 0.32000000E+00 0.0000E+00 0.9000E+01
       -4 -1    0    0    0  501 0.00000000E+00 0.00000000E+00 -.51657342E+03 0.51657575E+03 0.15500000E+01 0.0000E+00 0.9000E+01
       25  1    1    2    0    0 -.47071883E+03 0.17431381E+03 0.95575589E+01 0.51737594E+03 0.12500000E+03 0.0000E+00 0.9000E+01
        1  1    1    2  502    0 0.79513643E+01 -.35313405E+02 0.88385918E+03 0.88460014E+03 0.32000000E+00 0.0000E+00 0.9000E+01
       -3  1    1    2    0  501 0.46276746E+03 -.13900040E+03 -.39763859E+02 0.48482600E+03 0.50000000E+00 0.0000E+00 0.9000E+01
#aMCatNLO 1  0  0  5  2 0.34824564D+02 0.00000000D+00  -5  6  0 0.00000000D+00 0.00000000D+00 0.00000000D+00 0.00000000D+00 0.00000000D+00
  <mgrwgt>
 -.8575013822D-03    6    2    0
 0.841323192737354D+03 0.000000000000000D+00 0.000000000000000D+00 0.841323192737354D+03
 0.841323192737354D+03 -.000000000000000D+00 -.000000000000000D+00 -.841323192737354D+03
 0.575340821808683D+03 -.470789302084046D+03 0.174334323206422D+03 -.251708239902603D+03
 0.543434667614474D+03 0.795007829452148D+01 -.353076934928220D+02 0.542228181673160D+03
 0.563870896051552D+03 0.462839223789525D+03 -.139026629713600D+03 -.290519941770557D+03
 0.000000000000000D+00 0.000000000000000D+00 0.000000000000000D+00 0.000000000000000D+00
 0.841323192737354D+03 0.000000000000000D+00 0.000000000000000D+00 0.841323192737354D+03
 0.841323192737354D+03 -.000000000000000D+00 -.000000000000000D+00 -.841323192737354D+03
 0.573891346825684D+03 -.468497738106426D+03 0.173645988250770D+03 -.253146633623625D+03
 0.542157754599220D+03 0.101147448928105D+02 -.359579112923198D+02 0.540869440274930D+03
 0.294820157920404D+03 0.223363189238575D+03 -.116929528450743D+03 -.152824397874393D+03
 0.271777126129400D+03 0.235019803975040D+03 -.207585485077066D+02 -.134898408776911D+03
0.116277794297D-03 0.000000000000D+00 0.000000000000D+00 0.209953344684D-04 0.000000000000D+00  6 2 -4 25 1 -3 21 0 0.21080423D+00 0.79473016D-01 0.26874840D+06 0.26874840D+06 0.26874840D+06 0.10881043D+01  1  2  2  4  6  5       -3 0.144144071745D-03 0.100000000000D+01
0.606711181176D-04 0.000000000000D+00 -.446537346748D-06 0.209953344684D-04 0.000000000000D+00  6 2 -4 25 1 -3 21 2 0.21080423D+00 0.79473016D-01 0.26874840D+06 0.26874840D+06 0.26874840D+06 0.10881043D+01  1  2  3  4  6  5       -3 0.890477696984D-04 0.100000000000D+01
-.812415318933D-04 0.000000000000D+00 0.000000000000D+00 0.209953344684D-04 0.000000000000D+00  6 2 -4 25 1 -3 21 2 0.21080423D+00 0.79473016D-01 0.26874840D+06 0.26874840D+06 0.26874840D+06 0.10881043D+01  1  2 15  4  6  5       -3 -.119239226941D-03 0.100000000000D+01
-.113397981773D-02 0.000000000000D+00 0.000000000000D+00 0.209953344684D-04 0.000000000000D+00  6 2 -4 25 1 -3 21 2 0.21080423D+00 0.79473016D-01 0.26874840D+06 0.26874840D+06 0.26874840D+06 0.10881043D+01  1  2  4  4  6  5       -3 -.166435656347D-02 0.100000000000D+01
-.818384492097D-03 0.000000000000D+00 0.000000000000D+00 0.209953344684D-04 0.000000000000D+00  6 2 -4 25 1 -3 21 2 0.21080423D+00 0.79473016D-01 0.26874840D+06 0.26874840D+06 0.26874840D+06 0.10881043D+01  1  2  5  4  6  5       -3 -.120115330058D-02 0.100000000000D+01
0.129048136341D-02 0.000000000000D+00 -.000000000000D+00 0.209953344684D-04 0.000000000000D+00  6 2 -4 25 1 -3 21 2 0.21080423D+00 0.79473016D-01 0.26874840D+06 0.26874840D+06 0.26874840D+06 0.10881043D+01  1  2  6  4  6  5       -3 0.189405586734D-02 0.100000000000D+01
  </mgrwgt>
  </event>
  <event>
  6     66 0.18614916E-05 0.18265023E+03 0.75467711E-02 0.92739789E-01
        2 -1    0    0  502    0 0.00000000E+00 0.00000000E+00 0.32465358E+04 0.32465358E+04 0.32000000E+00 0.0000E+00 0.9000E+01
       21 -1    0    0  503  501 0.00000000E+00 0.00000000E+00 -.16247696E+03 0.16247869E+03 0.75000000E+00 0.0000E+00 0.9000E+01
       25  1    1    2    0    0 0.18081249E+03 0.46423522E+03 0.17366112E+04 0.18109806E+04 0.12500000E+03 0.0000E+00 0.9000E+01
        1  1    1    2  502    0 -.37824186E+02 -.21110657E+02 0.62087831E+03 0.62238759E+03 0.32000000E+00 0.0000E+00 0.9000E+01
        4  1    1    2  503    0 0.59820475E+02 -.41955197E+03 0.36004895E+03 0.55609351E+03 0.15500000E+01 0.0000E+00 0.9000E+01
       -3  1    1    2    0  501 -.20280878E+03 -.23572600E+02 0.36652044E+03 0.41955280E+03 0.50000000E+00 0.0000E+00 0.9000E+01
#aMCatNLO 2  0  0  2  5 0.34785878D+02 0.00000000D+00  -5  6  0 0.00000000D+00 0.00000000D+00 0.00000000D+00 0.00000000D+00 0.00000000D+00
  <mgrwgt>
 0.1327546399D-01    1    2    0
 0.367194076733639D+03 0.000000000000000D+00 0.000000000000000D+00 0.367194076733639D+03
 0.367194076733639D+03 0.000000000000000D+00 0.000000000000000D+00 -.367194076733639D+03
 0.343292704083163D+03 0.213279358068251D+03 0.236849365859947D+03 0.252818905635194D+02
 0.123649190177377D+03 -.293394149301101D+02 -.802046057619755D+02 0.894177956429599D+02
 0.000000000000000D+00 0.000000000000000D+00 -.000000000000000D+00 -.000000000000000D+00
 0.267446259206739D+03 -.183939943138141D+03 -.156644760097971D+03 -.114699686206479D+03
 0.493590936256469D+03 0.000000000000000D+00 0.000000000000000D+00 0.493590936256469D+03
 0.106867566478639D+04 0.000000000000000D+00 0.000000000000000D+00 -.106867566478639D+04
 0.514290420112135D+03 0.180857231530486D+03 0.464242527168482D+03 0.252818905635194D+02
 0.993300345272581D+02 -.377694556278559D+02 -.210803653458752D+02 0.894177956429599D+02
 0.714370202972808D+03 0.598204751251734D+02 -.419551966582067D+03 -.575084728529917D+03
 0.234275943430655D+03 -.202908251027804D+03 -.236101952405392D+02 -.114699686206479D+03
0.452122739548D-03 0.000000000000D+00 0.000000000000D+00 0.392302261287D-06 0.705789385113D-11  6 2 21 25 1 4 -3 2 0.49946642D+00 0.24996551D-01 0.35105336D+06 0.35105336D+06 0.35105336D+06 0.10795381D+01  1  2  1  6  5  2       -4 0.132754639886D-01 0.100000000000D+01
  </mgrwgt>
  </event>
  <event>
  5     66 0.18614916E-05 0.20335758E+03 0.75467711E-02 0.93661102E-01
        2 -1    0    0  502    0 0.00000000E+00 0.00000000E+00 0.26062774E+04 0.26062775E+04 0.32000000E+00 0.0000E+00 0.9000E+01
       -4 -1    0    0    0  501 0.00000000E+00 0.00000000E+00 -.16830677E+04 0.16830684E+04 0.15500000E+01 0.0000E+00 0.9000E+01
       25  1    1    2    0    0 -.33844398E+03 0.39644971E+03 0.40153792E+03 0.66975697E+03 0.12500000E+03 0.0000E+00 0.9000E+01
        1  1    1    2  502    0 0.12590225E+03 -.28707223E+03 0.20494196E+04 0.20732542E+04 0.32000000E+00 0.0000E+00 0.9000E+01
       -3  1    1    2    0  501 0.21254174E+03 -.10937747E+03 -.15277478E+04 0.15463347E+04 0.50000000E+00 0.0000E+00 0.9000E+01
#aMCatNLO 1  0  0  5  2 0.17891754D+02 0.00000000D+00  -5  6  0 0.00000000D+00 0.00000000D+00 0.00000000D+00 0.00000000D+00 0.00000000D+00
  <mgrwgt>
 0.7942747735D-02    7    2    0
 0.209440750881995D+04 0.000000000000000D+00 0.000000000000000D+00 0.209440750881995D+04
 0.209440750881995D+04 -.000000000000000D+00 -.000000000000000D+00 -.209440750881995D+04
 0.597366853603530D+03 -.338453553843656D+03 0.396448026639592D+03 0.263629117982734D+03
 0.167126977547980D+04 0.125898293426426D+03 -.287063223396496D+03 0.164161109521038D+04
 0.192017838855657D+04 0.212555260417230D+03 -.109384803243096D+03 -.190524021319311D+04
 0.000000000000000D+00 0.000000000000000D+00 -.000000000000000D+00 0.000000000000000D+00
 0.209440750881995D+04 0.000000000000000D+00 0.000000000000000D+00 0.209440750881995D+04
 0.209440750881995D+04 -.000000000000000D+00 -.000000000000000D+00 -.209440750881995D+04
 0.597281460574177D+03 -.338435994161499D+03 0.396438990107755D+03 0.263471721677837D+03
 0.167084530992121D+04 0.125947417907610D+03 -.287088503748054D+03 0.164117076766064D+04
 0.176348961528641D+04 0.185358440105957D+03 -.856397668754967D+02 -.175162887114651D+04
 0.157198631858105D+03 0.271301361479329D+02 -.237107194842054D+02 -.153013618191964D+03
0.687583817646D-02 0.000000000000D+00 0.000000000000D+00 0.343050641009D-03 0.000000000000D+00  6 2 -4 25 1 -3 21 0 0.40096582D+00 0.25893354D+00 0.29623787D+06 0.29623787D+06 0.29623787D+06 0.10849576D+01  1  2  2  4  6  5       -3 0.341645038871D-04 0.100000000000D+01
0.951865322027D-03 0.000000000000D+00 -.264050290474D-04 0.343050641009D-03 0.000000000000D+00  6 2 -4 25 1 -3 21 2 0.40096582D+00 0.25893354D+00 0.29623787D+06 0.29623787D+06 0.29623787D+06 0.10849576D+01  1  2  3  4  6  5       -3 0.556737526880D-05 0.100000000000D+01
-.457809296739D-02 0.000000000000D+00 0.000000000000D+00 0.343050641009D-03 0.000000000000D+00  6 2 -4 25 1 -3 21 2 0.40096582D+00 0.25893354D+00 0.29623787D+06 0.29623787D+06 0.29623787D+06 0.10849576D+01  1  2 15  4  6  5       -3 -.267768569514D-04 0.100000000000D+01
0.184185914829D+01 0.000000000000D+00 0.000000000000D+00 0.343050641009D-03 0.000000000000D+00  6 2 -4 25 1 -3 21 2 0.40096582D+00 0.25893354D+00 0.29688729D+06 0.29688729D+06 0.29688729D+06 0.10848871D+01  1  2 12  4  6  5       -3 0.107693349383D-01 0.100000000000D+01
-.721561012664D+00 0.000000000000D+00 0.000000000000D+00 0.343050641009D-03 0.000000000000D+00  6 2 -4 25 1 -3 21 2 0.40096582D+00 0.25893354D+00 0.29623787D+06 0.29623787D+06 0.29623787D+06 0.10849576D+01  1  2  4  4  6  5       -3 -.422034592907D-02 0.100000000000D+01
-.277069652194D+01 0.000000000000D+00 0.000000000000D+00 0.343050641009D-03 0.000000000000D+00  6 2 -4 25 1 -3 21 2 0.40096582D+00 0.25893354D+00 0.29623787D+06 0.29623787D+06 0.29623787D+06 0.10849576D+01  1  2  5  4  6  5       -3 -.162055565390D-01 0.100000000000D+01
0.300677530206D+01 0.000000000000D+00 -.000000000000D+00 0.343050641009D-03 0.000000000000D+00  6 2 -4 25 1 -3 21 2 0.40096582D+00 0.25893354D+00 0.29623787D+06 0.29623787D+06 0.29623787D+06 0.10849576D+01  1  2  6  4  6  5       -3 0.175863602425D-01 0.100000000000D+01
  </mgrwgt>
  </event>
  <event>
  6     66 0.18614916E-05 0.14858029E+03 0.75467711E-02 0.93207286E-01
        2 -1    0    0  502    0 0.00000000E+00 0.00000000E+00 0.12853965E+04 0.12853965E+04 0.32000000E+00 0.0000E+00 0.9000E+01
       21 -1    0    0  503  501 0.00000000E+00 0.00000000E+00 -.88599697E+03 0.88599729E+03 0.75000000E+00 0.0000E+00 0.9000E+01
       25  1    1    2    0    0 0.36498553E+03 -.36986623E+03 -.82958380E+02 0.54085355E+03 0.12500000E+03 0.0000E+00 0.9000E+01
        1  1    1    2  502    0 -.50864501E+02 0.33800836E+02 0.92827133E+03 0.93027816E+03 0.32000000E+00 0.0000E+00 0.9000E+01
        4  1    1    2  503    0 -.17910679E+03 0.15826324E+01 -.14138249E+03 0.22819544E+03 0.15500000E+01 0.0000E+00 0.9000E+01
       -3  1    1    2    0  501 -.13501425E+03 0.33448276E+03 -.30453096E+03 0.47206665E+03 0.50000000E+00 0.0000E+00 0.9000E+01
#aMCatNLO 2  0  0  2  5 0.17911378D+03 0.00000000D+00  -5  6  0 0.00000000D+00 0.00000000D+00 0.00000000D+00 0.00000000D+00 0.00000000D+00
  <mgrwgt>
 0.8083781127D-02    1    2    0
 0.928909704486465D+03 0.000000000000000D+00 0.000000000000000D+00 0.928909704486465D+03
 0.928909704486465D+03 0.000000000000000D+00 0.000000000000000D+00 -.928909704486465D+03
 0.554369176725572D+03 0.310109745740236D+03 -.369419598196451D+03 -.243025287097221D+03
 0.707708525507550D+03 -.118538020871156D+03 0.343964955441186D+02 0.696862235867537D+03
 0.000000000000000D+00 -.000000000000000D+00 0.000000000000000D+00 -.000000000000000D+00
 0.595741706739809D+03 -.191571724869080D+03 0.335023102652333D+03 -.453836948770316D+03
 0.965829854235582D+03 0.000000000000000D+00 0.000000000000000D+00 0.965829854235582D+03
 0.117914433908924D+04 0.000000000000000D+00 0.000000000000000D+00 -.117914433908924D+04
 0.587151105891683D+03 0.365007740777946D+03 -.369904690634384D+03 -.243025287097221D+03
 0.699532809407592D+03 -.508609686124758D+02 0.337984841550010D+02 0.696862235867537D+03
 0.278540508048987D+03 -.179106785048511D+03 0.158263242491481D+01 -.213314484853659D+03
 0.579749769976560D+03 -.135039987116959D+03 0.334523574054468D+03 -.453836948770316D+03
0.976409042662D-03 0.000000000000D+00 0.000000000000D+00 0.123658383765D-04 0.315420444578D-09  6 2 21 25 1 4 -3 2 0.19775290D+00 0.13630696D+00 0.32229902D+06 0.32229902D+06 0.32229902D+06 0.10822557D+01  1  2  1  6  5  2       -4 0.808378112742D-02 0.100000000000D+01
  </mgrwgt>
  </event>
  <event>
  5     66 -.18614916E-05 0.35036105E+02 0.75467711E-02 0.95127588E-01
        2 -1    0    0  502    0 0.00000000E+00 0.00000000E+00 0.29527514E+03 0.29527531E+03 0.32000000E+00 0.0000E+00 0.9000E+01
       -4 -1    0    0    0  501 -.00000000E+00 -.00000000E+00 -.21905365E+04 0.21905371E+04 0.15500000E+01 0.0000E+00 0.9000E+01
       25  1    1    2    0    0 -.26136191E+03 0.36872670E+03 -.59188426E+03 0.75513006E+03 0.12500000E+03 0.0000E+00 0.9000E+01
        1  1    1    2  502    0 -.28298895E+02 -.20668835E+02 0.17811610E+03 0.18153092E+03 0.32000000E+00 0.0000E+00 0.9000E+01
       -3  1    1    2    0  501 0.28966081E+03 -.34805786E+03 -.14814932E+04 0.15491514E+04 0.50000000E+00 0.0000E+00 0.9000E+01
#aMCatNLO 1  0  0  5  2 0.37490972D+02 0.00000000D+00  -5  6  0 0.00000000D+00 0.00000000D+00 0.00000000D+00 0.00000000D+00 0.00000000D+00
  <mgrwgt>
 -.2054104769D-02    6    2    0
 0.804246154325261D+03 0.000000000000000D+00 0.000000000000000D+00 0.804246154325261D+03
 0.804246154325261D+03 -.000000000000000D+00 -.000000000000000D+00 -.804246154325261D+03
 0.469660203691065D+03 -.261412248238423D+03 0.368781879034280D+03 -.248851180027723D+02
 0.490314900575091D+03 -.282931383744170D+02 -.206646307131660D+02 0.489061522800942D+03
 0.648517204384366D+03 0.289705386612840D+03 -.348117248321114D+03 -.464176404798170D+03
 0.000000000000000D+00 0.000000000000000D+00 0.000000000000000D+00 -.000000000000000D+00
 0.804246154325261D+03 0.000000000000000D+00 0.000000000000000D+00 0.804246154325261D+03
 0.804246154325261D+03 -.000000000000000D+00 -.000000000000000D+00 -.804246154325261D+03
 0.467735135980522D+03 -.260047768568532D+03 0.367142286089094D+03 -.270713364745636D+02
 0.488034004758340D+03 -.268690463879390D+02 -.223758553109723D+02 0.486779791328449D+03
 0.571873901969336D+03 0.254318680503913D+03 -.336483471010731D+03 -.386187314961217D+03
 0.808492659423242D+02 0.325981344525580D+02 -.828295976739123D+01 -.735211398926689D+02
0.223691619302D-02 0.000000000000D+00 0.000000000000D+00 0.535941208800D-04 0.000000000000D+00  6 2 -4 25 1 -3 21 0 0.45427000D-01 0.33700568D+00 0.22893001D+06 0.22893001D+06 0.22893001D+06 0.10933474D+01  1  2  2  4  6  5       -3 0.934249979100D-04 0.100000000000D+01
0.110769748103D-02 0.000000000000D+00 -.859034717477D-05 0.535941208800D-04 0.000000000000D+00  6 2 -4 25 1 -3 21 2 0.45427000D-01 0.33700568D+00 0.22893001D+06 0.22893001D+06 0.22893001D+06 0.10933474D+01  1  2  3  4  6  5       -3 0.553032815294D-04 0.100000000000D+01
-.148518396630D-02 0.000000000000D+00 0.000000000000D+00 0.535941208800D-04 0.000000000000D+00  6 2 -4 25 1 -3 21 2 0.45427000D-01 0.33700568D+00 0.22893001D+06 0.22893001D+06 0.22893001D+06 0.10933474D+01  1  2 15  4  6  5       -3 -.741498002996D-04 0.100000000000D+01
-.470267179944D-01 0.000000000000D+00 0.000000000000D+00 0.535941208800D-04 0.000000000000D+00  6 2 -4 25 1 -3 21 2 0.45427000D-01 0.33700568D+00 0.22893001D+06 0.22893001D+06 0.22893001D+06 0.10933474D+01  1  2  4  4  6  5       -3 -.234787193180D-02 0.100000000000D+01
-.331663024449D-01 0.000000000000D+00 0.000000000000D+00 0.535941208800D-04 0.000000000000D+00  6 2 -4 25 1 -3 21 2 0.45427000D-01 0.33700568D+00 0.22893001D+06 0.22893001D+06 0.22893001D+06 0.10933474D+01  1  2  5  4  6  5       -3 -.165587210660D-02 0.100000000000D+01
0.375565437749D-01 0.000000000000D+00 -.000000000000D+00 0.535941208800D-04 0.000000000000D+00  6 2 -4 25 1 -3 21 2 0.45427000D-01 0.33700568D+00 0.22893001D+06 0.22893001D+06 0.22893001D+06 0.10933474D+01  1  2  6  4  6  5       -3 0.187506078981D-02 0.100000000000D+01
  </mgrwgt>
  </event>
  <event>
  6     66 0.18614916E-05 0.13559056E+02 0.75467711E-02 0.94536086E-01
       21 -1    0    0  502  503 0.00000000E+00 0.00000000E+00 0.14661417E+04 0.14661419E+04 0.75000000E+00 0.0000E+00 0.9000E+01
       -4 -1    0    0    0  501 0.00000000E+00 0.00000000E+00 -.81889132E+03 0.81889278E+03 0.15500000E+01 0.0000E+00 0.9000E+01
       25  1    1    2    0    0 -.48520071E+03 0.71006950E+02 0.51732716E+03 0.72368094E+03 0.12500000E+03 0.0000E+00 0.9000E+01
        1  1    1    2  502    0 0.20104938E+01 -.33017909E+01 0.60410540E+02 0.60534946E+02 0.32000000E+00 0.0000E+00 0.9000E+01
       -3  1    1    2    0  501 0.47948634E+03 -.52671731E+02 -.63427519E+03 0.79686055E+03 0.50000000E+00 0.0000E+00 0.9000E+01
       -2  1    1    2    0  503 0.37038814E+01 -.15033428E+02 0.70378790E+03 0.70395826E+03 0.32000000E+00 0.0000E+00 0.9000E+01
#aMCatNLO 2  0  0  1  4 0.72139713D+02 0.00000000D+00  -5  6  0 0.00000000D+00 0.00000000D+00 0.00000000D+00 0.00000000D+00 0.00000000D+00
  <mgrwgt>
 0.1092423421D-02    1    2    0
 0.789994695222686D+03 0.000000000000000D+00 0.000000000000000D+00 0.789994695222686D+03
 0.789994695222686D+03 0.000000000000000D+00 0.000000000000000D+00 -.789994695222686D+03
 0.741127918091302D+03 -.483550880496337D+03 0.639456488931432D+02 0.543815309579640D+03
 0.624830433582301D+02 0.214761599450686D+01 -.388083521181569D+01 0.623254167327049D+02
 0.776378428995840D+03 0.481403264501830D+03 -.600648136813275D+02 -.606140726312345D+03
 0.000000000000000D+00 0.000000000000000D+00 -.000000000000000D+00 0.000000000000000D+00
 0.151954190264671D+04 0.000000000000000D+00 0.000000000000000D+00 0.151954190264671D+04
 0.790114777410189D+03 0.000000000000000D+00 0.000000000000000D+00 -.790114777410189D+03
 0.742905499410638D+03 -.485290307329463D+03 0.710056880358564D+02 0.543815309579640D+03
 0.624440831034807D+02 0.200118964494489D+01 -.328651543949479D+01 0.623254167327049D+02
 0.774715668231453D+03 0.479585236240741D+03 -.526857446446684D+02 -.606140726312345D+03
 0.729591429311330D+03 0.370388144377744D+01 -.150334279516933D+02 0.729427125236525D+03
0.822799855556D-02 0.000000000000D+00 0.000000000000D+00 0.158021255493D-04 0.120520971533D-05  6 21 -4 25 1 -3 -2 2 0.22556038D+00 0.12598340D+00 0.25398434D+06 0.25398434D+06 0.25398434D+06 0.10899429D+01  1  2  1  5  6  1        2 0.109242342115D-02 0.100000000000D+01
  </mgrwgt>
  </event>
  <event>
  5     66 -.18614916E-05 0.83445875E+02 0.75467711E-02 0.93266472E-01
        2 -1    0    0  502    0 0.00000000E+00 0.00000000E+00 0.12126579E+04 0.12126580E+04 0.32000000E+00 0.0000E+00 0.9000E+01
       -4 -1    0    0    0  501 0.00000000E+00 0.00000000E+00 -.12072137E+04 0.12072147E+04 0.15500000E+01 0.0000E+00 0.9000E+01
       25  1    1    2    0    0 0.45277643E+03 0.32486187E+03 0.28094341E+03 0.63647146E+03 0.12500000E+03 0.0000E+00 0.9000E+01
        1  1    1    2  502    0 -.39221197E+03 -.26747243E+03 0.67721622E+03 0.82703908E+03 0.32000000E+00 0.0000E+00 0.9000E+01
       -3  1    1    2    0  501 -.60564458E+02 -.57389434E+02 -.95271543E+03 0.95636214E+03 0.50000000E+00 0.0000E+00 0.9000E+01
#aMCatNLO 1  0  0  5  2 0.11463873D+02 0.00000000D+00  -5  6  0 0.00000000D+00 0.00000000D+00 0.00000000D+00 0.00000000D+00 0.00000000D+00
  <mgrwgt>
 -.1941410672D-01    7    2    0
 0.120993327881018D+04 0.000000000000000D+00 0.000000000000000D+00 0.120993327881018D+04
 0.120993327881018D+04 -.000000000000000D+00 -.000000000000000D+00 -.120993327881018D+04
 0.635863830629839D+03 0.452743890229922D+03 0.324841454402201D+03 0.279640502189136D+03
 0.825434157117439D+03 -.392172365326198D+03 -.267445423610974D+03 0.675289070695046D+03
 0.958568569873076D+03 -.605715249037246D+02 -.573960307912272D+02 -.954929572884181D+03
 0.000000000000000D+00 0.000000000000000D+00 0.000000000000000D+00 -.000000000000000D+00
 0.120993327881018D+04 0.000000000000000D+00 0.000000000000000D+00 0.120993327881018D+04
 0.120993327881018D+04 -.000000000000000D+00 -.000000000000000D+00 -.120993327881018D+04
 0.635826662018430D+03 0.452739317722689D+03 0.324837121611069D+03 0.279568415141857D+03
 0.825362246222938D+03 -.392178300951681D+03 -.267451048058163D+03 0.675195493650110D+03
 0.510512643786871D+03 -.419683902289499D+02 -.365632055228362D+02 -.507469157377811D+03
 0.448165005592116D+03 -.185926265420577D+02 -.208228680300692D+02 -.447294751414155D+03
0.218858703234D-03 0.000000000000D+00 0.000000000000D+00 0.662128604943D-04 0.000000000000D+00  6 2 -4 25 1 -3 21 0 0.18656284D+00 0.18572527D+00 0.31877538D+06 0.31877538D+06 0.31877538D+06 0.10826067D+01  1  2  2  4  6  5       -3 0.253079934063D-04 0.100000000000D+01
0.721230827313D-04 0.000000000000D+00 -.840475047238D-06 0.662128604943D-04 0.000000000000D+00  6 2 -4 25 1 -3 21 2 0.18656284D+00 0.18572527D+00 0.31877538D+06 0.31877538D+06 0.31877538D+06 0.10826067D+01  1  2  3  4  6  5       -3 0.977483946236D-05 0.100000000000D+01
-.170696907829D-03 0.000000000000D+00 0.000000000000D+00 0.662128604943D-04 0.000000000000D+00  6 2 -4 25 1 -3 21 2 0.18656284D+00 0.18572527D+00 0.31877538D+06 0.31877538D+06 0.31877538D+06 0.10826067D+01  1  2 15  4  6  5       -3 -.231345473261D-04 0.100000000000D+01
0.744139707005D-01 0.000000000000D+00 0.000000000000D+00 0.662128604943D-04 0.000000000000D+00  6 2 -4 25 1 -3 21 2 0.18656284D+00 0.18572527D+00 0.31885062D+06 0.31885062D+06 0.31885062D+06 0.10825992D+01  1  2 12  4  6  5       -3 0.100850715440D-01 0.100000000000D+01
-.262263821734D+00 0.000000000000D+00 0.000000000000D+00 0.662128604943D-04 0.000000000000D+00  6 2 -4 25 1 -3 21 2 0.18656284D+00 0.18572527D+00 0.31877538D+06 0.31877538D+06 0.31877538D+06 0.10826067D+01  1  2  4  4  6  5       -3 -.355446087044D-01 0.100000000000D+01
-.797497995740D-01 0.000000000000D+00 0.000000000000D+00 0.662128604943D-04 0.000000000000D+00  6 2 -4 25 1 -3 21 2 0.18656284D+00 0.18572527D+00 0.31877538D+06 0.31877538D+06 0.31877538D+06 0.10826067D+01  1  2  5  4  6  5       -3 -.108084881909D-01 0.100000000000D+01
0.124267495642D+00 0.000000000000D+00 -.000000000000D+00 0.662128604943D-04 0.000000000000D+00  6 2 -4 25 1 -3 21 2 0.18656284D+00 0.18572527D+00 0.31877538D+06 0.31877538D+06 0.31877538D+06 0.10826067D+01  1  2  6  4  6  5       -3 0.168419703414D-01 0.100000000000D+01
  </mgrwgt>
  </event>
  <event>
  6     66 0.18614916E-05 0.27017109E+02 0.75467711E-02 0.94421137E-01
        2 -1    0    0  502    0 0.00000000E+00 0.00000000E+00 0.11248557E+04 0.11248558E+04 0.32000000E+00 0.0000E+00 0.9000E+01
       -4 -1    0    0    0  503 0.00000000E+00 0.00000000E+00 -.61453451E+03 0.61453647E+03 0.15500000E+01 0.0000E+00 0.9000E+01
       25  1    1    2    0    0 0.47663857E+03 0.17988650E+02 -.14943187E+02 0.49331148E+03 0.12500000E+03 0.0000E+00 0.9000E+01
        1  1    1    2  502    0 -.43661769E+02 -.48941353E+01 0.69016986E+03 0.69156695E+03 0.32000000E+00 0.0000E+00 0.9000E+01
       -3  1    1    2    0  501 -.43060761E+03 0.35828402E+02 -.56781463E+02 0.43581070E+03 0.50000000E+00 0.0000E+00 0.9000E+01
       21  1    1    2  501  503 -.23691958E+01 -.48922916E+02 -.10812400E+03 0.11870310E+03 0.75000000E+00 0.0000E+00 0.9000E+01
#aMCatNLO 2  0  0  2  1 0.48980249D+02 0.00000000D+00  -5  6  0 0.00000000D+00 0.00000000D+00 0.00000000D+00 0.00000000D+00 0.00000000D+00
  <mgrwgt>
 0.4630558307D-02    1    2    0
 0.748625362060152D+03 0.000000000000000D+00 0.000000000000000D+00 0.748625362060152D+03
 0.748625362060152D+03 0.000000000000000D+00 0.000000000000000D+00 -.748625362060152D+03
 0.538848931513216D+03 0.475857816472942D+03 0.366202684050776D+00 -.219755262485641D+03
 0.463639374561445D+03 -.443859685580265D+02 -.200308004296907D+02 0.461074964049274D+03
 0.494762418045642D+03 -.431471847914915D+03 0.196645977456400D+02 -.241319701563633D+03
 0.000000000000000D+00 -.000000000000000D+00 -.000000000000000D+00 -.000000000000000D+00
 0.752563901543595D+03 0.000000000000000D+00 0.000000000000000D+00 0.752563901543595D+03
 0.918543819274820D+03 0.000000000000000D+00 0.000000000000000D+00 -.918543819274820D+03
 0.539902130556911D+03 0.476711076733885D+03 0.179856751048908D+02 -.219755262485641D+03
 0.463162650285076D+03 -.436528955021860D+02 -.489314421730645D+01 0.461074964049274D+03
 0.494986885724299D+03 -.430688985418741D+03 0.358303853629007D+02 -.241319701563633D+03
 0.173056054252130D+03 -.236919581295733D+01 -.489229162504851D+02 -.165979917731225D+03
0.360509597798D-02 0.000000000000D+00 0.000000000000D+00 0.121116815023D-04 0.338836621752D-07  6 2 -4 25 1 -3 21 2 0.17305469D+00 0.94543824D-01 0.25920239D+06 0.25920239D+06 0.25920239D+06 0.10892800D+01  1  2  1  2  6  2       -4 0.463055830740D-02 0.100000000000D+01
  </mgrwgt>
  </event>
  <event>
  6     66 0.18614916E-05 0.10646771E+03 0.75467711E-02 0.93253435E-01
        2 -1    0    0  502    0 0.00000000E+00 0.00000000E+00 0.11092775E+04 0.11092776E+04 0.32000000E+00 0.0000E+00 0.9000E+01
       -4 -1    0    0    0  501 0.00000000E+00 0.00000000E+00 -.94554227E+03 0.94554355E+03 0.15500000E+01 0.0000E+00 0.9000E+01
       25  1    1    2    0    0 0.28717383E+03 0.40537029E+03 0.71275570E+03 0.87774687E+03 0.12500000E+03 0.0000E+00 0.9000E+01
        1  1    1    2  503    0 -.49634745E+02 -.13069183E+03 0.22568618E+03 0.26547753E+03 0.32000000E+00 0.0000E+00 0.9000E+01
       -3  1    1    2    0  501 -.30228824E+03 -.28266379E+03 -.69116404E+03 0.80559604E+03 0.50000000E+00 0.0000E+00 0.9000E+01
       21  1    1    2  502  503 0.64749162E+02 0.79853361E+01 -.83542586E+02 0.10600069E+03 0.75000000E+00 0.0000E+00 0.9000E+01
#aMCatNLO 2  0  0  4  4 0.94510252D+02 0.00000000D+00  -5  6  0 0.00000000D+00 0.00000000D+00 0.00000000D+00 0.00000000D+00 0.00000000D+00
  <mgrwgt>
 0.1140165314D-03    1    2    0
 0.102414361864896D+04 0.000000000000000D+00 0.000000000000000D+00 0.102414361864896D+04
 0.102414361864896D+04 -.000000000000000D+00 -.000000000000000D+00 -.102414361864896D+04
 0.811735676010107D+03 0.280062785191718D+03 0.464525068674691D+03 0.590822396859679D+03
 0.335570375006176D+03 0.302933007343334D+02 -.245936377618505D+03 0.226285418611746D+03
 0.900981186281645D+03 -.310356085926052D+03 -.218588691056186D+03 -.817107815471425D+03
 0.000000000000000D+00 0.000000000000000D+00 0.000000000000000D+00 -.000000000000000D+00
 0.102414361864896D+04 0.000000000000000D+00 0.000000000000000D+00 0.102414361864896D+04
 0.102414361864896D+04 -.000000000000000D+00 -.000000000000000D+00 -.102414361864896D+04
 0.824044366946008D+03 0.287398997605946D+03 0.404965975975688D+03 0.645622562471761D+03
 0.247454324869055D+03 -.498535422152582D+02 -.129911334677492D+03 0.204624808728815D+03
 0.863722873528487D+03 -.302441669873133D+03 -.282841934111163D+03 -.757988574378871D+03
 0.113065671954378D+03 0.648962144824455D+02 0.778729281296665D+01 -.922587968217046D+02
0.316939188051D-03 0.000000000000D+00 0.000000000000D+00 0.301820590903D-06 0.349487423339D-09  6 2 -4 25 1 -3 21 2 0.17065818D+00 0.14546814D+00 0.31960659D+06 0.31960659D+06 0.31960659D+06 0.10825235D+01  1  2  1  3  6  4        1 0.114016531413D-03 0.100000000000D+01
  </mgrwgt>
  </event>
  <event>
  5     66 0.18614916E-05 0.84456581E+02 0.75467711E-02 0.91631152E-01
        2 -1    0    0  502    0 0.00000000E+00 0.00000000E+00 0.28295424E+04 0.28295424E+04 0.32000000E+00 0.0000E+00 0.9000E+01
       -4 -1    0    0    0  501 0.00000000E+00 0.00000000E+00 -.32365046E+03 0.32365417E+03 0.15500000E+01 0.0000E+00 0.9000E+01
       25  1    1    2    0    0 0.57469522E+03 -.26557036E+03 0.97726248E+03 0.11710974E+04 0.12500000E+03 0.0000E+00 0.9000E+01
        1  1    1    2  502    0 -.49383472E+03 0.24122625E+03 0.17023879E+04 0.17889068E+04 0.32000000E+00 0.0000E+00 0.9000E+01
       -3  1    1    2    0  501 -.80860500E+02 0.24344106E+02 -.17375843E+03 0.19319238E+03 0.50000000E+00 0.0000E+00 0.9000E+01
#aMCatNLO 1  0  0  1  4 0.26029953D+02 0.00000000D+00  -5  6  0 0.00000000D+00 0.00000000D+00 0.00000000D+00 0.00000000D+00 0.00000000D+00
  <mgrwgt>
 0.7268852077D-02    9    2    0
 0.956968422100096D+03 0.000000000000000D+00 0.000000000000000D+00 0.956968422100096D+03
 0.956968422100096D+03 0.000000000000000D+00 0.000000000000000D+00 -.956968422100096D+03
 0.649840295125350D+03 0.574668516418068D+03 -.265555534940411D+03 0.768359503681099D+02
 0.718242606039218D+03 -.493797532936696D+03 0.241208090321696D+03 0.462444693729964D+03
 0.545853943035625D+03 -.808709834813718D+02 0.243474446187151D+02 -.539280644098074D+03
 0.000000000000000D+00 0.000000000000000D+00 -.000000000000000D+00 0.000000000000000D+00
 0.100945449762886D+04 0.000000000000000D+00 0.000000000000000D+00 0.100945449762886D+04
 0.960289697016954D+03 0.000000000000000D+00 0.000000000000000D+00 -.960289697016954D+03
 0.641391490713780D+03 0.567353631165807D+03 -.260699325457600D+03 0.768359503681099D+02
 0.725718465464061D+03 -.501977636356249D+03 0.246638701250846D+03 0.462444693729964D+03
 0.547003886321534D+03 -.870620714846670D+02 0.284575870520814D+02 -.539280644098074D+03
 0.556303521464367D+02 0.216860766751084D+02 -.143969628453280D+02 0.491648006119025D+02
0.913908536945D-03 0.000000000000D+00 0.000000000000D+00 0.660322396329D-05 0.000000000000D+00  6 2 -4 25 1 -3 21 0 0.43531450D+00 0.49792665D-01 0.40915178D+06 0.40915178D+06 0.40915178D+06 0.10747201D+01  1  2  2  1  6  1        2 0.515314128301D-03 0.100000000000D+01
0.256890076290D-03 0.000000000000D+00 -.350964941951D-05 0.660322396329D-05 0.000000000000D+00  6 2 -4 25 1 -3 21 2 0.43531450D+00 0.49792665D-01 0.40915178D+06 0.40915178D+06 0.40915178D+06 0.10747201D+01  1  2  3  1  6  1        2 0.167304409868D-03 0.100000000000D+01
-.538564641712D-03 0.000000000000D+00 0.000000000000D+00 0.660322396329D-05 0.000000000000D+00  6 2 -4 25 1 -3 21 2 0.43531450D+00 0.49792665D-01 0.40915178D+06 0.40915178D+06 0.40915178D+06 0.10747201D+01  1  2 15  1  6  1        2 -.350750176335D-03 0.100000000000D+01
0.117453535753D-01 0.000000000000D+00 0.000000000000D+00 0.660322396329D-05 0.000000000000D+00  6 2 -4 25 1 -3 21 2 0.46487907D+00 0.49792665D-01 0.43144774D+06 0.43144774D+06 0.43144774D+06 0.10730662D+01  1  2 12  1  6  1        2 0.576250624368D-02 0.100000000000D+01
-.539676167095D-02 0.000000000000D+00 0.000000000000D+00 0.660322396329D-05 0.000000000000D+00  6 2 -4 25 1 -3 21 2 0.43531450D+00 0.49792665D-01 0.40915178D+06 0.40915178D+06 0.40915178D+06 0.10747201D+01  1  2  4  1  6  1        2 -.351474077783D-02 0.100000000000D+01
-.349717144831D-01 0.000000000000D+00 -.279015082790D-02 0.660322396329D-05 0.000000000000D+00  6 2 -4 25 1 -3 21 2 0.45962207D+00 0.49792665D-01 0.40915178D+06 0.40915178D+06 0.40915178D+06 0.10747201D+01  1  2  5  1  6  1        2 -.181499659138D-01 0.100000000000D+01
0.350756422519D-01 0.000000000000D+00 0.278603709722D-02 0.660322396329D-05 0.000000000000D+00  6 2 -4 25 1 -3 21 2 0.43531450D+00 0.49792665D-01 0.40915178D+06 0.40915178D+06 0.40915178D+06 0.10747201D+01  1  2  6  1  6  1        2 0.228436602630D-01 0.100000000000D+01
0.217554131443D-03 0.000000000000D+00 0.000000000000D+00 0.660322396329D-05 0.000000000000D+00  6 21 -4 25 1 -3 -2 2 0.46487907D+00 0.49792665D-01 0.43144774D+06 0.43144774D+06 0.43144774D+06 0.10730662D+01  1  2 12  5  6  1        2 0.681777201832D-05 0.100000000000D+01
-.326098699027D-03 0.000000000000D+00 -.262472050715D-04 0.660322396329D-05 0.000000000000D+00  6 21 -4 25 1 -3 -2 2 0.45962207D+00 0.49792665D-01 0.40915178D+06 0.40915178D+06 0.40915178D+06 0.10747201D+01  1  2  5  5  6  1        2 -.112938721884D-04 0.100000000000D+01
  </mgrwgt>
  </event>
  <event>
  5     66 -.18614916E-05 0.32515661E+02 0.75467711E-02 0.94834381E-01
        2 -1    0    0  502    0 0.00000000E+00 0.00000000E+00 0.18130698E+04 0.18130698E+04 0.32000000E+00 0.0000E+00 0.9000E+01
       -4 -1    0    0    0  501 0.00000000E+00 0.00000000E+00 -.84829506E+03 0.84829648E+03 0.15500000E+01 0.0000E+00 0.9000E+01
       25  1    1    2    0    0 -.16704624E+03 0.42159154E+03 0.94955994E+02 0.47988072E+03 0.12500000E+03 0.0000E+00 0.9000E+01
        1  1    1    2  502    0 -.28635005E+02 0.15407859E+02 0.14380513E+04 0.14384189E+04 0.32000000E+00 0.0000E+00 0.9000E+01
       -3  1    1    2    0  501 0.19568124E+03 -.43699939E+03 -.56823254E+03 0.74306667E+03 0.50000000E+00 0.0000E+00 0.9000E+01
#aMCatNLO 1  0  0  4  1 0.48710960D+02 0.00000000D+00  -5  6  0 0.00000000D+00 0.00000000D+00 0.00000000D+00 0.00000000D+00 0.00000000D+00
  <mgrwgt>
 -.1975050685D-01    1    2    0
 0.124016937637186D+04 0.000000000000000D+00 0.000000000000000D+00 0.124016937637186D+04
 0.124016937637186D+04 -.000000000000000D+00 -.000000000000000D+00 -.124016937637186D+04
 0.478005539825990D+03 -.167064449898077D+03 0.421631509771325D+03 -.847386314058886D+02
 0.983999261754543D+03 -.286336860043861D+02 0.154071492186143D+02 0.983461884829424D+03
 0.101833395116318D+04 0.195698135902462D+03 -.437038658989938D+03 -.898723253423536D+03
 0.000000000000000D+00 0.000000000000000D+00 0.000000000000000D+00 -.000000000000000D+00
 0.124016937637186D+04 0.000000000000000D+00 0.000000000000000D+00 0.124016937637186D+04
 0.124016937637186D+04 -.000000000000000D+00 -.000000000000000D+00 -.124016937637186D+04
 0.475492224550276D+03 -.167610572114961D+03 0.421925365982706D+03 -.659813402669645D+02
 0.939349339256788D+03 -.165911274805063D+02 -.662713638965518D+02 0.936861794491792D+03
 0.983256316329788D+03 0.194551711699891D+03 -.436421793639311D+03 -.859347795199193D+03
 0.822408726068584D+02 -.103500121044238D+02 0.807677915531571D+02 -.115326590256351D+02
-.935799257988D-01 0.000000000000D+00 0.000000000000D+00 0.521126159129D-03 0.000000000000D+00  6 2 -4 25 1 -3 21 2 0.27893393D+00 0.13050704D+00 0.24098457D+06 0.24098457D+06 0.24098457D+06 0.10916611D+01  1  2 14  3  6  4        1 -.197505068536D-01 0.100000000000D+01
  </mgrwgt>
  </event>
  <event>
  6     66 0.18614916E-05 0.15385043E+03 0.75467711E-02 0.93557110E-01
        2 -1    0    0  502    0 0.00000000E+00 0.00000000E+00 0.36110487E+04 0.36110487E+04 0.32000000E+00 0.0000E+00 0.9000E+01
       -4 -1    0    0    0  501 0.00000000E+00 0.00000000E+00 -.20429993E+03 0.20430581E+03 0.15500000E+01 0.0000E+00 0.9000E+01
       25  1    1    2    0    0 0.48374560E+03 0.19603155E+03 0.17388156E+04 0.18197645E+04 0.12500000E+03 0.0000E+00 0.9000E+01
        1  1    1    2  502    0 -.16038423E+03 -.59079801E+02 0.15816564E+04 0.15908648E+04 0.32000000E+00 0.0000E+00 0.9000E+01
       -3  1    1    2    0  503 -.31543578E+03 -.17001743E+03 0.92652711E+02 0.37012219E+03 0.50000000E+00 0.0000E+00 0.9000E+01
       21  1    1    2  503  501 -.79255870E+01 0.33065675E+02 -.63760111E+01 0.34603031E+02 0.75000000E+00 0.0000E+00 0.9000E+01
#aMCatNLO 2  0  0  5  5 0.57069023D+02 0.00000000D+00  -5  6  0 0.00000000D+00 0.00000000D+00 0.00000000D+00 0.00000000D+00 0.00000000D+00
  <mgrwgt>
 0.1253420198D-02    1    2    0
 0.858922722906186D+03 0.000000000000000D+00 0.000000000000000D+00 0.858922722906186D+03
 0.858922722906186D+03 -.000000000000000D+00 -.000000000000000D+00 -.858922722906186D+03
 0.599986904786396D+03 0.487450006696528D+03 0.197602872425084D+03 0.260201617397107D+03
 0.399617409445040D+03 -.157864259849665D+03 -.580153501072816D+02 0.362501266957250D+03
 0.718241131580936D+03 -.329585746846863D+03 -.139587522317803D+03 -.622702884354357D+03
 0.000000000000000D+00 0.000000000000000D+00 0.000000000000000D+00 -.000000000000000D+00
 0.858922722906186D+03 0.000000000000000D+00 0.000000000000000D+00 0.858922722906186D+03
 0.858922722906186D+03 -.000000000000000D+00 -.000000000000000D+00 -.858922722906186D+03
 0.593443514720707D+03 0.483745350404497D+03 0.196033861028836D+03 0.253202224429847D+03
 0.396534382936121D+03 -.160335680637040D+03 -.590620564882913D+02 0.357831887691080D+03
 0.638279529852418D+03 -.315470371447493D+03 -.170067909899502D+03 -.528162956851216D+03
 0.895880183031250D+02 -.793929831996483D+01 0.330961053589567D+02 -.828711552697107D+02
0.231353063434D-02 0.000000000000D+00 0.000000000000D+00 0.263975346978D-05 0.546187862605D-08  6 2 -4 25 1 -3 21 2 0.55554641D+00 0.31431212D-01 0.30250580D+06 0.30250580D+06 0.30250580D+06 0.10842847D+01  1  2  1  4  6  5       -3 0.125342019752D-02 0.100000000000D+01
  </mgrwgt>
  </event>
  <event>
  6     66 0.18614916E-05 0.13400066E+02 0.75467711E-02 0.93391347E-01
        2 -1    0    0  502    0 0.00000000E+00 0.00000000E+00 0.19530387E+04 0.19530387E+04 0.32000000E+00 0.0000E+00 0.9000E+01
       -4 -1    0    0    0  501 0.00000000E+00 0.00000000E+00 -.20133927E+03 0.20134523E+03 0.15500000E+01 0.0000E+00 0.9000E+01
       25  1    1    2    0    0 -.20632545E+03 -.49971416E+03 0.10887253E+04 0.12219788E+04 0.12500000E+03 0.0000E+00 0.9000E+01
        1  1    1    2  503    0 0.19379421E+03 0.44806060E+03 0.63852088E+03 0.80375588E+03 0.32000000E+00 0.0000E+00 0.9000E+01
       -3  1    1    2    0  501 -.24122390E+00 -.10365231E+02 -.38189749E+02 0.39575284E+02 0.50000000E+00 0.0000E+00 0.9000E+01
       21  1    1    2  502  503 0.12772463E+02 0.62018791E+02 0.62642989E+02 0.89073974E+02 0.75000000E+00 0.0000E+00 0.9000E+01
#aMCatNLO 2  0  0  4  5 0.16559355D+02 0.00000000D+00  -5  6  0 0.00000000D+00 0.00000000D+00 0.00000000D+00 0.00000000D+00 0.00000000D+00
  <mgrwgt>
 0.1436458881D-01    1    2    0
 0.627080406259070D+03 0.000000000000000D+00 0.000000000000000D+00 0.627080406259070D+03
 0.627080406259070D+03 -.000000000000000D+00 -.000000000000000D+00 -.627080406259070D+03
 0.579488316097695D+03 -.206715107260909D+03 -.500670693261439D+03 0.163644217230441D+03
 0.553236777352670D+03 0.207043343320261D+03 0.511256445885466D+03 -.426712121095479D+02
 0.121435719067774D+03 -.328236059351557D+00 -.105857526240278D+02 -.120973005120893D+03
 0.000000000000000D+00 0.000000000000000D+00 0.000000000000000D+00 -.000000000000000D+00
 0.627080406259070D+03 0.000000000000000D+00 0.000000000000000D+00 0.627080406259070D+03
 0.627080406259070D+03 -.000000000000000D+00 -.000000000000000D+00 -.627080406259070D+03
 0.578427087167653D+03 -.206298637066637D+03 -.499642294724561D+03 0.163558383570145D+03
 0.488799124439742D+03 0.193783946689339D+03 0.448005688197234D+03 -.257540171911978D+02
 0.121434838797481D+03 -.240882226651973D+00 -.103700479830369D+02 -.120991008568209D+03
 0.654997621132635D+02 0.127555726039504D+02 0.620066545103634D+02 -.168133578107377D+02
0.244512042695D-02 0.000000000000D+00 0.000000000000D+00 0.865988041847D-06 0.133369066493D-07  6 2 -4 25 1 -3 21 2 0.30046795D+00 0.30975733D-01 0.31170965D+06 0.31170965D+06 0.31170965D+06 0.10833237D+01  1  2  1  3  6  4        1 0.143645888075D-01 0.100000000000D+01
  </mgrwgt>
  </event>
  <event>
  5     66 0.18614916E-05 0.10863437E+03 0.75467711E-02 0.94477520E-01
        4 -1    0    0  502    0 0.00000000E+00 0.00000000E+00 0.10495990E+04 0.10496001E+04 0.15500000E+01 0.0000E+00 0.9000E+01
       -2 -1    0    0    0  501 0.00000000E+00 0.00000000E+00 -.88155826E+03 0.88155831E+03 0.32000000E+00 0.0000E+00 0.9000E+01
       25  1    1    2    0    0 0.17689648E+02 -.47129960E+03 0.29976857E+03 0.57264512E+03 0.12500000E+03 0.0000E+00 0.9000E+01
        3  1    1    2  502    0 -.89837245E+02 0.61162188E+02 0.54946692E+03 0.56011221E+03 0.50000000E+00 0.0000E+00 0.9000E+01
       -1  1    1    2    0  501 0.72147597E+02 0.41013742E+03 -.68119474E+03 0.79840113E+03 0.32000000E+00 0.0000E+00 0.9000E+01
#aMCatNLO 1  0  0  1  4 0.14610629D+02 0.00000000D+00  -5  6  0 0.00000000D+00 0.00000000D+00 0.00000000D+00 0.00000000D+00 0.00000000D+00
  <mgrwgt>
 0.2302126015D-03    1    2    0
 0.961916744333701D+03 0.000000000000000D+00 0.000000000000000D+00 0.961916744333701D+03
 0.961916744333701D+03 0.000000000000000D+00 0.000000000000000D+00 -.961916744333701D+03
 0.548809057277089D+03 0.176402529414374D+02 -.471381150712757D+03 0.251107573717413D+03
 0.514030099336025D+03 -.897987606373508D+02 0.611359866334671D+02 0.502419661985627D+03
 0.860994332054289D+03 0.721585076959134D+02 0.410245164079290D+03 -.753527235703041D+03
 0.000000000000000D+00 0.000000000000000D+00 0.000000000000000D+00 -.000000000000000D+00
 0.132595801474900D+04 0.000000000000000D+00 0.000000000000000D+00 0.132595801474900D+04
 0.228953957906368D+04 0.000000000000000D+00 0.000000000000000D+00 -.228953957906368D+04
 0.844386308008322D+03 -.156392182073698D+03 -.780928747684387D+03 0.251107573717413D+03
 0.580403387539769D+03 -.226511047678358D+03 -.182031098435239D+03 0.502419661985627D+03
 0.766398142470597D+03 -.131128900605830D+03 0.486624009068804D+02 -.753527235703041D+03
 0.142430975579399D+04 0.514032130357886D+03 0.914297445212746D+03 -.963581564314680D+03
0.653507317918D-02 0.000000000000D+00 0.000000000000D+00 0.202291639074D-04 0.000000000000D+00  6 4 -2 25 3 -1 21 2 0.16147686D+00 0.13562444D+00 0.25662806D+06 0.25662806D+06 0.25662806D+06 0.10896052D+01  1  2 14  1  6  1        4 0.230212601479D-03 0.100000000000D+01
  </mgrwgt>
  </event>
  <event>
  6     66 0.18614916E-05 0.27086926E+03 0.75467711E-02 0.92086017E-01
        2 -1    0    0  502    0 0.00000000E+00 0.00000000E+00 0.27395677E+04 0.27395677E+04 0.32000000E+00 0.0000E+00 0.9000E+01
       21 -1    0    0  503  501 0.00000000E+00 0.00000000E+00 -.18938178E+03 0.18938326E+03 0.75000000E+00 0.0000E+00 0.9000E+01
       25  1    1    2    0    0 0.45397330E+03 -.37291996E+02 0.62930010E+03 0.78684564E+03 0.12500000E+03 0.0000E+00 0.9000E+01
        1  1    1    2  502    0 -.38195248E+03 0.31561438E+03 0.16997234E+04 0.17704689E+04 0.32000000E+00 0.0000E+00 0.9000E+01
        4  1    1    2  503    0 0.54522065E+01 -.42465973E+02 0.66626578E+02 0.79212302E+02 0.15500000E+01 0.0000E+00 0.9000E+01
       -3  1    1    2    0  501 -.77473025E+02 -.23585641E+03 0.15453577E+03 0.29242412E+03 0.50000000E+00 0.0000E+00 0.9000E+01
#aMCatNLO 2  0  0  2  5 0.42814547D+02 0.00000000D+00  -5  6  0 0.00000000D+00 0.00000000D+00 0.00000000D+00 0.00000000D+00 0.00000000D+00
  <mgrwgt>
 0.5919736255D-01    1    2    0
 0.698410764688146D+03 0.000000000000000D+00 0.000000000000000D+00 0.698410764688146D+03
 0.698410764688146D+03 0.000000000000000D+00 0.000000000000000D+00 -.698410764688146D+03
 0.489293258177801D+03 0.455880833835843D+03 -.520981236053111D+02 -.115071036130689D+03
 0.578816208607133D+03 -.379662641225180D+03 0.297848895404699D+03 0.319641232807122D+03
 0.000000000000000D+00 0.000000000000000D+00 -.000000000000000D+00 -.000000000000000D+00
 0.328712062591359D+03 -.762181926106624D+02 -.245750771799388D+03 -.204570196676433D+03
 0.717831870334815D+03 0.000000000000000D+00 0.000000000000000D+00 0.717831870334815D+03
 0.722740703469712D+03 0.000000000000000D+00 0.000000000000000D+00 -.722740703469712D+03
 0.486159734629292D+03 0.453977540382328D+03 -.372738118126416D+02 -.115071036130689D+03
 0.589625142072549D+03 -.381942491499835D+03 0.315606121044120D+03 0.319641232807122D+03
 0.430950353939850D+02 0.545220647442488D+01 -.424659731717383D+02 -.490883313489750D+01
 0.321692661708701D+03 -.774872553569181D+02 -.235866336059740D+03 -.204570196676433D+03
0.131909361530D-02 0.000000000000D+00 0.000000000000D+00 0.267319531038D-07 0.744264400929D-09  6 2 21 25 1 4 -3 2 0.42146391D+00 0.29135210D-01 0.39620406D+06 0.39620406D+06 0.39620406D+06 0.10757263D+01  1  2  1  6  5  2       -4 0.591973625451D-01 0.100000000000D+01
  </mgrwgt>
  </event>
  <event>
  6     66 -.18614916E-05 0.15211921E+03 0.75467711E-02 0.90689629E-01
        2 -1    0    0  502    0 0.00000000E+00 0.00000000E+00 0.21347546E+04 0.21347547E+04 0.32000000E+00 0.0000E+00 0.9000E+01
       -4 -1    0    0    0  501 0.00000000E+00 0.00000000E+00 -.33416823E+03 0.33417183E+03 0.15500000E+01 0.0000E+00 0.9000E+01
       25  1    1    2    0    0 0.21211018E+03 0.54882346E+03 0.49987937E+03 0.78211400E+03 0.12500000E+03 0.0000E+00 0.9000E+01
        1  1    1    2  503    0 -.49158277E+02 0.41686422E+02 0.41175081E+03 0.41676507E+03 0.32000000E+00 0.0000E+00 0.9000E+01
       -3  1    1    2    0  501 -.97191478E+02 -.66437221E+03 0.42269982E+03 0.79341793E+03 0.50000000E+00 0.0000E+00 0.9000E+01
       21  1    1    2  502  503 -.65760422E+02 0.73862324E+02 0.46625641E+03 0.47662950E+03 0.75000000E+00 0.0000E+00 0.9000E+01
#aMCatNLO 2  0  0  4  1 0.13132297D+02 0.00000000D+00  -5  6  0 0.00000000D+00 0.00000000D+00 0.00000000D+00 0.00000000D+00 0.00000000D+00
  <mgrwgt>
 -.8756476179D-04    2    2    0
 0.844613316500662D+03 0.000000000000000D+00 0.000000000000000D+00 0.844613316500662D+03
 0.844613316500662D+03 -.000000000000000D+00 -.000000000000000D+00 -.844613316500662D+03
 0.610676080656280D+03 0.212218738032127D+03 0.549191523337924D+03 -.103209269969017D+03
 0.369081634111125D+03 -.114967366909531D+03 0.115597681031945D+03 0.331120723187276D+03
 0.709468918233919D+03 -.972513711225962D+02 -.664789204369869D+03 -.227911453218259D+03
 0.000000000000000D+00 0.000000000000000D+00 0.000000000000000D+00 0.000000000000000D+00
 0.844613316500662D+03 0.000000000000000D+00 0.000000000000000D+00 0.844613316500662D+03
 0.844613316500662D+03 -.000000000000000D+00 -.000000000000000D+00 -.844613316500662D+03
 0.610683595041035D+03 0.212112696251400D+03 0.549298146497818D+03 -.102903856075784D+03
 0.169678038910233D+03 -.489947863527249D+02 0.415434641534013D+02 0.157048681576155D+03
 0.709255861859603D+03 -.973745486803923D+02 -.664665351485184D+03 -.227556686095081D+03
 0.199609137190453D+03 -.657433612182828D+02 0.738237408339646D+02 0.173411860594710D+03
-.234398821214D-03 0.000000000000D+00 0.000000000000D+00 0.702295538992D-07 0.000000000000D+00  6 2 -4 25 1 -3 21 2 0.32842407D+00 0.51410776D-01 0.51610015D+06 0.51610015D+06 0.51610015D+06 0.10675390D+01  1  2 13  3  6  4        1 -.352271784580D-03 0.100000000000D+01
0.176133930747D-03 0.000000000000D+00 0.000000000000D+00 0.702295538992D-07 0.514382675458D-09  6 2 -4 25 1 -3 21 2 0.32842407D+00 0.51410776D-01 0.51610015D+06 0.51610015D+06 0.51610015D+06 0.10675390D+01  1  2  1  3  6  4        1 0.264707022790D-03 0.100000000000D+01
  </mgrwgt>
  </event>
  <event>
  5     66 0.18614916E-05 0.55356126E+02 0.75467711E-02 0.78612854E-01
        2 -1    0    0  502    0 0.00000000E+00 0.00000000E+00 0.18933306E+04 0.18933307E+04 0.32000000E+00 0.0000E+00 0.9000E+01
       -4 -1    0    0    0  501 0.00000000E+00 0.00000000E+00 -.95494099E+03 0.95494225E+03 0.15500000E+01 0.0000E+00 0.9000E+01
       25  1    1    2    0    0 0.52927736E+03 -.87941169E+02 -.45208095E+03 0.71265024E+03 0.12500000E+03 0.0000E+00 0.9000E+01
        1  1    1    2  502    0 -.58426069E+03 0.81336058E+02 0.17112645E+04 0.18100835E+04 0.32000000E+00 0.0000E+00 0.9000E+01
       -3  1    1    2    0  501 0.54983332E+02 0.66051111E+01 -.32079387E+03 0.32553917E+03 0.50000000E+00 0.0000E+00 0.9000E+01
#aMCatNLO 1  0  0  2  2 0.67495837D+02 0.00000000D+00  -5  6  0 0.00000000D+00 0.00000000D+00 0.00000000D+00 0.00000000D+00 0.00000000D+00
  <mgrwgt>
 0.1379661592D-01    5    4    0
 0.134462666364212D+04 0.000000000000000D+00 0.000000000000000D+00 0.134462666364212D+04
 0.134462666364212D+04 0.000000000000000D+00 0.000000000000000D+00 -.134462666364212D+04
 0.912751730205034D+03 0.529307495445601D+03 -.879388995445245D+02 -.727730064106387D+03
 0.132000453563230D+04 -.584268550490804D+03 0.813371521196173D+02 0.118085837537034D+04
 0.456497061446914D+03 0.549610550452024D+02 0.660174742490716D+01 -.453128311263955D+03
 0.000000000000000D+00 0.000000000000000D+00 0.000000000000000D+00 -.000000000000000D+00
 0.303804616086005D+04 0.000000000000000D+00 0.000000000000000D+00 0.303804616086005D+04
 0.333043432941531D+04 0.000000000000000D+00 0.000000000000000D+00 -.333043432941531D+04
 0.117078153044717D+04 0.232817210902146D+03 -.878242274170216D+03 -.727730064106387D+03
 0.196348980178276D+04 -.105151531289299D+04 -.116412252180523D+04 0.118085837537034D+04
 0.611059790716919D+03 -.969540791366682D+02 -.398332408800542D+03 -.453128311263955D+03
 0.262314936732852D+04 0.915652181127512D+03 0.244069720477599D+04 -.292388168555260D+03
 0.134462666364212D+04 0.000000000000000D+00 0.000000000000000D+00 0.134462666364212D+04
 0.134462666364212D+04 0.000000000000000D+00 0.000000000000000D+00 -.134462666364212D+04
 0.912751730205034D+03 0.529307495445601D+03 -.879388995445245D+02 -.727730064106387D+03
 0.132000453563230D+04 -.584268550490804D+03 0.813371521196173D+02 0.118085837537034D+04
 0.000000000000000D+00 0.000000000000000D+00 0.000000000000000D+00 -.000000000000000D+00
 0.456497061446914D+03 0.549610550452024D+02 0.660174742490716D+01 -.453128311263955D+03
 0.303804616086005D+04 0.000000000000000D+00 0.000000000000000D+00 0.303804616086005D+04
 0.333043432941531D+04 0.000000000000000D+00 0.000000000000000D+00 -.333043432941531D+04
 0.117078153044717D+04 0.232817210902146D+03 -.878242274170216D+03 -.727730064106387D+03
 0.196348980178276D+04 -.105151531289299D+04 -.116412252180523D+04 0.118085837537034D+04
 0.262314936732852D+04 0.915652181127512D+03 0.244069720477599D+04 -.292388168555260D+03
 0.611059790716919D+03 -.969540791366682D+02 -.398332408800542D+03 -.453128311263955D+03
0.321436908503D+00 0.000000000000D+00 0.000000000000D+00 0.591546055317D-04 0.000000000000D+00  6 2 -4 25 1 -3 21 0 0.29128173D+00 0.14691410D+00 0.35771751D+06 0.35771751D+06 0.35771751D+06 0.10789429D+01  1  2  2  2  6  2       -4 0.346973058949D-01 0.100000000000D+01
0.818070427435D-01 0.000000000000D+00 -.123440236493D-02 0.591546055317D-04 0.000000000000D+00  6 2 -4 25 1 -3 21 2 0.29128173D+00 0.14691410D+00 0.35771751D+06 0.35771751D+06 0.35771751D+06 0.10789429D+01  1  2  3  2  6  2       -4 0.102798707886D-01 0.100000000000D+01
-.248866381689D+00 0.000000000000D+00 0.000000000000D+00 0.591546055317D-04 0.000000000000D+00  6 2 -4 25 1 -3 21 2 0.29128173D+00 0.14691410D+00 0.35771751D+06 0.35771751D+06 0.35771751D+06 0.10789429D+01  1  2 15  2  6  2       -4 -.312725428227D-01 0.100000000000D+01
0.440592686853D+00 0.000000000000D+00 -.166204223702D+00 0.591546055317D-04 0.000000000000D+00  6 2 -4 25 1 -3 21 2 0.29128173D+00 0.60726326D+00 0.35771751D+06 0.35771751D+06 0.35771751D+06 0.10789429D+01  1  2  5  2  6  2       -4 0.447278025938D-05 0.100000000000D+01
0.759516958861D-01 0.000000000000D+00 -.282633198218D-01 0.591546055317D-04 0.000000000000D+00  6 2 21 25 1 4 -3 2 0.29128173D+00 0.60726326D+00 0.35771751D+06 0.35771751D+06 0.35771751D+06 0.10789429D+01  3  4  5  6  5  2       -4 0.875092805273D-04 0.100000000000D+01
  </mgrwgt>
  </event>
  <event>
  5     66 0.18614916E-05 0.19272131E+02 0.75467711E-02 0.91798457E-01
        2 -1    0    0  502    0 0.00000000E+00 0.00000000E+00 0.11252289E+04 0.11252290E+04 0.32000000E+00 0.0000E+00 0.9000E+01
       -4 -1    0    0    0  501 0.00000000E+00 0.00000000E+00 -.77599925E+03 0.77600079E+03 0.15500000E+01 0.0000E+00 0.9000E+01
       25  1    1    2    0    0 0.13930869E+03 -.59645975E+03 0.12054933E+03 0.63665397E+03 0.12500000E+03 0.0000E+00 0.9000E+01
        1  1    1    2  502    0 0.87676138E+00 0.19257741E+02 0.57611940E+03 0.57644193E+03 0.32000000E+00 0.0000E+00 0.9000E+01
       -3  1    1    2    0  501 -.14018545E+03 0.57720201E+03 -.34743903E+03 0.68813389E+03 0.50000000E+00 0.0000E+00 0.9000E+01
#aMCatNLO 1  0  0  4  1 0.30496233D+02 0.00000000D+00  -5  6  0 0.00000000D+00 0.00000000D+00 0.00000000D+00 0.00000000D+00 0.00000000D+00
  <mgrwgt>
 0.2251401462D-02    6    2    0
 0.934440113987060D+03 0.000000000000000D+00 0.000000000000000D+00 0.934440113987060D+03
 0.934440113987060D+03 -.000000000000000D+00 -.000000000000000D+00 -.934440113987060D+03
 0.625235403742647D+03 0.139330475215015D+03 -.596545993758073D+03 0.376909813895938D+01
 0.478624788119382D+03 0.876508617221180D+00 0.192521890847550D+02 0.478236628407331D+03
 0.765020036112091D+03 -.140206983832236D+03 0.577293804673318D+03 -.482005726546290D+03
 0.000000000000000D+00 0.000000000000000D+00 0.000000000000000D+00 0.000000000000000D+00
 0.934440113987060D+03 0.000000000000000D+00 0.000000000000000D+00 0.934440113987060D+03
 0.934440113987060D+03 -.000000000000000D+00 -.000000000000000D+00 -.934440113987060D+03
 0.625175200278298D+03 0.139334106362885D+03 -.596466236931927D+03 0.575030845539971D+01
 0.160047317249915D+03 0.354617168562173D+02 0.257190472907039D+01 0.156048055747482D+03
 0.763569284505195D+03 -.140202544863277D+03 0.577391304992255D+03 -.479583756577491D+03
 0.320088425940711D+03 -.345932783558252D+02 0.165030272106014D+02 0.317785392374609D+03
0.779306777738D-03 0.000000000000D+00 0.000000000000D+00 0.352868755312D-04 0.000000000000D+00  6 2 -4 25 1 -3 21 0 0.17311227D+00 0.11938462D+00 0.38351518D+06 0.38351518D+06 0.38351518D+06 0.10767477D+01  1  2  2  3  6  4        1 0.428746269936D-03 0.100000000000D+01
0.618660224882D-03 0.000000000000D+00 -.299274322270D-05 0.352868755312D-04 0.000000000000D+00  6 2 -4 25 1 -3 21 2 0.17311227D+00 0.11938462D+00 0.38351518D+06 0.38351518D+06 0.38351518D+06 0.10767477D+01  1  2  3  3  6  4        1 0.394613563823D-03 0.100000000000D+01
-.532444569737D-03 0.000000000000D+00 0.000000000000D+00 0.352868755312D-04 0.000000000000D+00  6 2 -4 25 1 -3 21 2 0.17311227D+00 0.11938462D+00 0.38351518D+06 0.38351518D+06 0.38351518D+06 0.10767477D+01  1  2 15  3  6  4        1 -.339620749406D-03 0.100000000000D+01
-.101780234311D-03 0.000000000000D+00 0.000000000000D+00 0.352868755312D-04 0.000000000000D+00  6 2 -4 25 1 -3 21 2 0.17311227D+00 0.11938462D+00 0.38351518D+06 0.38351518D+06 0.38351518D+06 0.10767477D+01  1  2  4  3  6  4        1 -.649207099034D-04 0.100000000000D+01
-.358118346559D-02 0.000000000000D+00 0.000000000000D+00 0.352868755312D-04 0.000000000000D+00  6 2 -4 25 1 -3 21 2 0.17311227D+00 0.11938462D+00 0.38351518D+06 0.38351518D+06 0.38351518D+06 0.10767477D+01  1  2  5  3  6  4        1 -.228426446896D-02 0.100000000000D+01
0.645423794032D-02 0.000000000000D+00 -.000000000000D+00 0.352868755312D-04 0.000000000000D+00  6 2 -4 25 1 -3 21 2 0.17311227D+00 0.11938462D+00 0.38351518D+06 0.38351518D+06 0.38351518D+06 0.10767477D+01  1  2  6  3  6  4        1 0.411684755695D-02 0.100000000000D+01
  </mgrwgt>
  </event>
  <event>
  5     66 0.18614916E-05 0.51836690E+02 0.75467711E-02 0.95430179E-01
        2 -1    0    0  502    0 0.00000000E+00 0.00000000E+00 0.66614387E+03 0.66614395E+03 0.32000000E+00 0.0000E+00 0.9000E+01
       -4 -1    0    0    0  501 0.00000000E+00 0.00000000E+00 -.61708497E+03 0.61708691E+03 0.15500000E+01 0.0000E+00 0.9000E+01
       25  1    1    2    0    0 0.32084304E+03 -.32348390E+03 -.12046511E+02 0.47260153E+03 0.12500000E+03 0.0000E+00 0.9000E+01
        1  1    1    2  502    0 -.20891752E+02 0.47465001E+02 0.32233634E+03 0.32648156E+03 0.32000000E+00 0.0000E+00 0.9000E+01
       -3  1    1    2    0  501 -.29995129E+03 0.27601890E+03 -.26123093E+03 0.48414776E+03 0.50000000E+00 0.0000E+00 0.9000E+01
#aMCatNLO 1  0  0  5  5 0.10221272D+03 0.00000000D+00  -5  6  0 0.00000000D+00 0.00000000D+00 0.00000000D+00 0.00000000D+00 0.00000000D+00
  <mgrwgt>
 0.2739872485D-02    4    2    0
 0.641146367630093D+03 0.000000000000000D+00 0.000000000000000D+00 0.641146367630093D+03
 0.641146367630093D+03 -.000000000000000D+00 -.000000000000000D+00 -.641146367630093D+03
 0.473476074191734D+03 0.320903907855305D+03 -.323533542951450D+03 -.300220142644094D+02
 0.314250732005502D+03 -.208826251699927D+02 0.474442658330219D+02 0.309945931045350D+03
 0.494565929062950D+03 -.300021282685313D+03 0.276089277118428D+03 -.279923916780941D+03
 0.000000000000000D+00 0.000000000000000D+00 0.000000000000000D+00 0.000000000000000D+00
 0.641146367630093D+03 0.000000000000000D+00 0.000000000000000D+00 0.641146367630093D+03
 0.641146367630093D+03 -.000000000000000D+00 -.000000000000000D+00 -.641146367630093D+03
 0.415410013588517D+03 0.271621914092557D+03 -.278182660136969D+03 -.760027813532288D+02
 0.294425519955826D+03 -.546291081727805D+02 0.784988697402437D+02 0.278460005729745D+03
 0.418185135973593D+03 -.116927780187062D+03 0.288660879999563D+03 -.279072747733735D+03
 0.154272065742250D+03 -.100065025732715D+03 -.889770896028376D+02 0.766155233572195D+02
0.273226215856D-02 0.000000000000D+00 0.000000000000D+00 0.875548837362D-05 0.000000000000D+00  6 2 -4 25 1 -3 21 0 0.10248383D+00 0.94936304D-01 0.21719468D+06 0.21719468D+06 0.21719468D+06 0.10950849D+01  1  2  2  4  6  5       -3 0.591745936111D-02 0.100000000000D+01
0.806647952251D-03 0.000000000000D+00 -.104926061100D-04 0.875548837362D-05 0.000000000000D+00  6 2 -4 25 1 -3 21 2 0.10248383D+00 0.94936304D-01 0.21719468D+06 0.21719468D+06 0.21719468D+06 0.10950849D+01  1  2  3  4  6  5       -3 0.209504113732D-02 0.100000000000D+01
-.199573048561D-02 0.000000000000D+00 0.000000000000D+00 0.875548837362D-05 0.000000000000D+00  6 2 -4 25 1 -3 21 2 0.10248383D+00 0.94936304D-01 0.21719468D+06 0.21719468D+06 0.21719468D+06 0.10950849D+01  1  2 15  4  6  5       -3 -.518334851615D-02 0.100000000000D+01
-.343750402163D-04 0.000000000000D+00 0.000000000000D+00 0.875548837362D-05 0.000000000000D+00  6 2 -4 25 1 -3 21 2 0.10248383D+00 0.94936304D-01 0.21719468D+06 0.21719468D+06 0.21719468D+06 0.10950849D+01  1  2  4  4  6  5       -3 -.892794968973D-04 0.100000000000D+01
  </mgrwgt>
  </event>
  <event>
  5     66 0.18614916E-05 0.35864549E+02 0.75467711E-02 0.94810755E-01
        2 -1    0    0  502    0 0.00000000E+00 0.00000000E+00 0.11943032E+04 0.11943033E+04 0.32000000E+00 0.0000E+00 0.9000E+01
       -4 -1    0    0    0  501 0.00000000E+00 0.00000000E+00 -.36514676E+03 0.36515005E+03 0.15500000E+01 0.0000E+00 0.9000E+01
       25  1    1    2    0    0 0.37955129E+03 0.26512654E+03 0.19379721E+03 0.51723652E+03 0.12500000E+03 0.0000E+00 0.9000E+01
        1  1    1    2  502    0 -.40329459E+03 -.23824455E+03 0.77087817E+03 0.90203118E+03 0.32000000E+00 0.0000E+00 0.9000E+01
       -3  1    1    2    0  501 0.23743304E+02 -.26881988E+02 -.13551890E+03 0.14018562E+03 0.50000000E+00 0.0000E+00 0.9000E+01
#aMCatNLO 1  0  0  1  4 0.28292636D+02 0.00000000D+00  -5  6  0 0.00000000D+00 0.00000000D+00 0.00000000D+00 0.00000000D+00 0.00000000D+00
  <mgrwgt>
 0.7199671758D-01    6    2    0
 0.660377582910656D+03 0.000000000000000D+00 0.000000000000000D+00 0.660377582910656D+03
 0.660377582910656D+03 0.000000000000000D+00 0.000000000000000D+00 -.660377582910656D+03
 0.489061011206729D+03 0.379557094159405D+03 0.265128158207768D+03 -.959121717050220D+02
 0.581110797240459D+03 -.403298959764632D+03 -.238247129605704D+03 0.343915706179364D+03
 0.250583357374124D+03 0.237418656052272D+02 -.268810286020646D+02 -.248003534474342D+03
 0.000000000000000D+00 -.000000000000000D+00 0.000000000000000D+00 0.000000000000000D+00
 0.988672569352542D+03 0.000000000000000D+00 0.000000000000000D+00 0.988672569352542D+03
 0.983149185291358D+03 0.000000000000000D+00 0.000000000000000D+00 -.983149185291358D+03
 0.426401111313506D+03 0.387158715123353D+03 0.842727260283763D+02 -.959121717050220D+02
 0.719394130148602D+03 -.392500101705335D+03 -.495170245164948D+03 0.343915706179364D+03
 0.282438502052992D+03 0.281678599103870D+02 -.132182926273558D+03 -.248003534474342D+03
 0.543588011128800D+03 -.228264733284056D+02 0.543080445410130D+03 0.552338406118415D+01
0.173958848673D-01 0.000000000000D+00 0.000000000000D+00 0.101355488396D-04 0.000000000000D+00  6 2 -4 25 1 -3 21 0 0.18373922D+00 0.56176681D-01 0.24198652D+06 0.24198652D+06 0.24198652D+06 0.10915251D+01  1  2  2  1  6  1        2 0.635171288031D-01 0.100000000000D+01
0.637447118822D-02 0.000000000000D+00 -.668047783320D-04 0.101355488396D-04 0.000000000000D+00  6 2 -4 25 1 -3 21 2 0.18373922D+00 0.56176681D-01 0.24198652D+06 0.24198652D+06 0.24198652D+06 0.10915251D+01  1  2  3  1  6  1        2 0.277303891079D-01 0.100000000000D+01
-.140588716538D-01 0.000000000000D+00 0.000000000000D+00 0.101355488396D-04 0.000000000000D+00  6 2 -4 25 1 -3 21 2 0.18373922D+00 0.56176681D-01 0.24198652D+06 0.24198652D+06 0.24198652D+06 0.10915251D+01  1  2 15  1  6  1        2 -.611592663713D-01 0.100000000000D+01
-.477537861021D-02 0.000000000000D+00 -.104687952472D-01 0.101355488396D-04 0.000000000000D+00  6 2 -4 25 1 -3 21 2 0.34407497D+00 0.56176681D-01 0.24198652D+06 0.24198652D+06 0.24198652D+06 0.10915251D+01  1  2  5  1  6  1        2 -.554037537949D-02 0.100000000000D+01
0.108963294559D-01 0.000000000000D+00 0.869994074086D-02 0.101355488396D-04 0.000000000000D+00  6 2 -4 25 1 -3 21 2 0.18373922D+00 0.56176681D-01 0.24198652D+06 0.24198652D+06 0.24198652D+06 0.10915251D+01  1  2  6  1  6  1        2 0.474014936670D-01 0.100000000000D+01
0.261463966596D-03 0.000000000000D+00 -.715024173584D-03 0.101355488396D-04 0.000000000000D+00  6 21 -4 25 1 -3 -2 2 0.34407497D+00 0.56176681D-01 0.24198652D+06 0.24198652D+06 0.24198652D+06 0.10915251D+01  1  2  5  5  6  1        2 0.473477497085D-04 0.100000000000D+01
  </mgrwgt>
  </event>
  <event>
  5     66 0.18614916E-05 0.51607116E+02 0.75467711E-02 0.92559082E-01
        2 -1    0    0  502    0 0.00000000E+00 0.00000000E+00 0.23135676E+04 0.23135676E+04 0.32000000E+00 0.0000E+00 0.9000E+01
       -4 -1    0    0    0  501 0.00000000E+00 0.00000000E+00 -.19904612E+03 0.19905215E+03 0.15500000E+01 0.0000E+00 0.9000E+01
       25  1    1    2    0    0 -.26943580E+03 0.46964453E+03 0.82623796E+03 0.99571874E+03 0.12500000E+03 0.0000E+00 0.9000E+01
        1  1    1    2  502    0 -.51589775E+02 0.26951863E+01 0.68213110E+03 0.68408458E+03 0.32000000E+00 0.0000E+00 0.9000E+01
       -3  1    1    2    0  501 0.32102558E+03 -.47233971E+03 0.60615238E+03 0.83281642E+03 0.50000000E+00 0.0000E+00 0.9000E+01
#aMCatNLO 1  0  0  4  1 0.23564536D+02 0.00000000D+00  -5  6  0 0.00000000D+00 0.00000000D+00 0.00000000D+00 0.00000000D+00 0.00000000D+00
  <mgrwgt>
 0.8540199668D-02    6    2    0
 0.678612000876777D+03 0.000000000000000D+00 0.000000000000000D+00 0.678612000876777D+03
 0.678612000876777D+03 -.000000000000000D+00 -.000000000000000D+00 -.678612000876777D+03
 0.556243722875841D+03 -.269532869428860D+03 0.469752501076485D+03 -.216032235698153D+02
 0.203488539666047D+03 -.515368347565791D+02 0.269242058750979D+01 0.196835696229300D+03
 0.597491739211665D+03 0.321069704185440D+03 -.472444921663995D+03 -.175232472659485D+03
 0.000000000000000D+00 -.000000000000000D+00 0.000000000000000D+00 0.000000000000000D+00
 0.678612000876777D+03 0.000000000000000D+00 0.000000000000000D+00 0.678612000876777D+03
 0.678612000876777D+03 -.000000000000000D+00 -.000000000000000D+00 -.678612000876777D+03
 0.556612911457148D+03 -.270471405556747D+03 0.469801532686687D+03 -.180186531738747D+02
 0.416933001751822D+02 0.116287829965248D+02 0.111672375462853D+02 0.384499088568805D+02
 0.595792920288241D+03 0.320063338469280D+03 -.472392346456659D+03 -.171388839317678D+03
 0.163124869832982D+03 -.612207159090576D+02 -.857642377631343D+01 0.150957583634672D+03
0.163159217102D-02 0.000000000000D+00 0.000000000000D+00 0.887307756190D-06 0.000000000000D+00  6 2 -4 25 1 -3 21 0 0.35593394D+00 0.30622945D-01 0.34730344D+06 0.34730344D+06 0.34730344D+06 0.10798785D+01  1  2  2  3  6  4        1 0.525186691298D-02 0.100000000000D+01
0.425050388832D-03 0.000000000000D+00 -.626574354478D-05 0.887307756190D-06 0.000000000000D+00  6 2 -4 25 1 -3 21 2 0.35593394D+00 0.30622945D-01 0.34730344D+06 0.34730344D+06 0.34730344D+06 0.10798785D+01  1  2  3  3  6  4        1 0.159548339336D-02 0.100000000000D+01
-.114435218262D-02 0.000000000000D+00 0.000000000000D+00 0.887307756190D-06 0.000000000000D+00  6 2 -4 25 1 -3 21 2 0.35593394D+00 0.30622945D-01 0.34730344D+06 0.34730344D+06 0.34730344D+06 0.10798785D+01  1  2 15  3  6  4        1 -.429547872791D-02 0.100000000000D+01
-.489385045541D-03 0.000000000000D+00 0.000000000000D+00 0.887307756190D-06 0.000000000000D+00  6 2 -4 25 1 -3 21 2 0.35593394D+00 0.30622945D-01 0.34730344D+06 0.34730344D+06 0.34730344D+06 0.10798785D+01  1  2  4  3  6  4        1 -.183697211821D-02 0.100000000000D+01
-.121700266114D-02 0.000000000000D+00 0.000000000000D+00 0.887307756190D-06 0.000000000000D+00  6 2 -4 25 1 -3 21 2 0.35593394D+00 0.30622945D-01 0.34730344D+06 0.34730344D+06 0.34730344D+06 0.10798785D+01  1  2  5  3  6  4        1 -.456818200037D-02 0.100000000000D+01
0.330172940284D-02 0.000000000000D+00 -.000000000000D+00 0.887307756190D-06 0.000000000000D+00  6 2 -4 25 1 -3 21 2 0.35593394D+00 0.30622945D-01 0.34730344D+06 0.34730344D+06 0.34730344D+06 0.10798785D+01  1  2  6  3  6  4        1 0.123934822082D-01 0.100000000000D+01
  </mgrwgt>
  </event>
  <event>
  5     66 0.18614916E-05 0.78428354E+02 0.75467711E-02 0.89309708E-01
        2 -1    0    0  502    0 0.00000000E+00 0.00000000E+00 0.36873947E+04 0.36873947E+04 0.32000000E+00 0.0000E+00 0.9000E+01
       -4 -1    0    0    0  501 0.00000000E+00 0.00000000E+00 -.25380181E+03 0.25380654E+03 0.15500000E+01 0.0000E+00 0.9000E+01
       25  1    1    2    0    0 -.87756409E+02 0.72618907E+03 0.25724597E+04 0.26773542E+04 0.12500000E+03 0.0000E+00 0.9000E+01
        1  1    1    2  502    0 0.77156569E+02 0.15119493E+02 0.36118565E+03 0.36964431E+03 0.32000000E+00 0.0000E+00 0.9000E+01
       -3  1    1    2    0  501 0.10599841E+02 -.74130856E+03 0.49994756E+03 0.89420274E+03 0.50000000E+00 0.0000E+00 0.9000E+01
#aMCatNLO 1  0  0  1  2 0.78941387D+02 0.00000000D+00  -5  6  0 0.00000000D+00 0.00000000D+00 0.00000000D+00 0.00000000D+00 0.00000000D+00
  <mgrwgt>
 0.3693677044D-04    7    2    0
 0.967407256442704D+03 0.000000000000000D+00 0.000000000000000D+00 0.967407256442704D+03
 0.967407256442704D+03 0.000000000000000D+00 0.000000000000000D+00 -.967407256442704D+03
 0.888771260154997D+03 -.876090870062745D+02 0.726340413697347D+03 0.488920856766609D+03
 0.111709946462681D+03 0.769645627607917D+02 0.150818678917648D+02 0.795493901839008D+02
 0.934333306267731D+03 0.106445242454828D+02 -.741422281589111D+03 -.568470246950510D+03
 0.000000000000000D+00 0.000000000000000D+00 0.000000000000000D+00 0.000000000000000D+00
 0.100879122325395D+04 0.000000000000000D+00 0.000000000000000D+00 0.100879122325395D+04
 0.100660470557007D+04 0.000000000000000D+00 0.000000000000000D+00 -.100660470557007D+04
 0.860920969397855D+03 -.937003064491205D+02 0.691184898517674D+03 0.488920856766609D+03
 0.110660476737673D+03 0.761904225877751D+02 0.106139125243639D+02 0.795493901839008D+02
 0.964842820853849D+03 0.403290515298202D+01 -.779581286949133D+03 -.568470246950510D+03
 0.789716618346442D+02 0.134769787083634D+02 0.777824759070950D+02 0.218651768387578D+01
0.276277752858D-04 0.000000000000D+00 0.000000000000D+00 0.561358300812D-07 0.000000000000D+00  6 2 -4 25 1 -3 21 0 0.56729185D+00 0.39046798D-01 0.61006544D+06 0.61006544D+06 0.61006544D+06 0.10624567D+01  1  2  2  1  6  1        2 0.680155687097D-05 0.100000000000D+01
0.482966302438D-05 0.000000000000D+00 -.106097931658D-06 0.561358300812D-07 0.000000000000D+00  6 2 -4 25 1 -3 21 2 0.56729185D+00 0.39046798D-01 0.61006544D+06 0.61006544D+06 0.61006544D+06 0.10624567D+01  1  2  3  1  6  1        2 0.134215211732D-05 0.100000000000D+01
-.165001916793D-04 0.000000000000D+00 0.000000000000D+00 0.561358300812D-07 0.000000000000D+00  6 2 -4 25 1 -3 21 2 0.56729185D+00 0.39046798D-01 0.61006544D+06 0.61006544D+06 0.61006544D+06 0.10624567D+01  1  2 15  1  6  1        2 -.458536487675D-05 0.100000000000D+01
-.930313100842D-06 0.000000000000D+00 0.000000000000D+00 0.561358300812D-07 0.000000000000D+00  6 2 -4 25 1 -3 21 2 0.56729185D+00 0.39046798D-01 0.61006544D+06 0.61006544D+06 0.61006544D+06 0.10624567D+01  1  2  4  1  6  1        2 -.258531846169D-06 0.100000000000D+01
-.392595810145D-03 0.000000000000D+00 -.674743889922D-04 0.561358300812D-07 0.000000000000D+00  6 2 -4 25 1 -3 21 2 0.59756017D+00 0.39046798D-01 0.61006544D+06 0.61006544D+06 0.61006544D+06 0.10624567D+01  1  2  5  1  6  1        2 -.767568701380D-04 0.100000000000D+01
0.397298125056D-03 0.000000000000D+00 0.685234930202D-04 0.561358300812D-07 0.000000000000D+00  6 2 -4 25 1 -3 21 2 0.56729185D+00 0.39046798D-01 0.61006544D+06 0.61006544D+06 0.61006544D+06 0.10624567D+01  1  2  6  1  6  1        2 0.110408224561D-03 0.100000000000D+01
-.348107372760D-05 0.000000000000D+00 -.609284188789D-06 0.561358300812D-07 0.000000000000D+00  6 21 -4 25 1 -3 -2 2 0.59756017D+00 0.39046798D-01 0.61006544D+06 0.61006544D+06 0.61006544D+06 0.10624567D+01  1  2  5  5  6  1        2 -.143962444378D-07 0.100000000000D+01
  </mgrwgt>
  </event>
  <event>
  6     66 0.18614916E-05 0.69304568E+02 0.75467711E-02 0.91070065E-01
        2 -1    0    0  502    0 0.00000000E+00 0.00000000E+00 0.97672849E+03 0.97672854E+03 0.32000000E+00 0.0000E+00 0.9000E+01
       -4 -1    0    0    0  503 0.00000000E+00 0.00000000E+00 -.95283288E+03 0.95283414E+03 0.15500000E+01 0.0000E+00 0.9000E+01
       25  1    1    2    0    0 0.62841616E+03 -.22136629E+03 -.27675642E+03 0.73220831E+03 0.12500000E+03 0.0000E+00 0.9000E+01
        1  1    1    2  502    0 -.56545267E+03 0.26389537E+03 0.61010991E+03 0.87270367E+03 0.32000000E+00 0.0000E+00 0.9000E+01
       -3  1    1    2    0  501 -.55778044E+02 -.48699207E+02 -.17716226E+03 0.19201437E+03 0.50000000E+00 0.0000E+00 0.9000E+01
       21  1    1    2  501  503 -.71854382E+01 0.61701258E+01 -.13229562E+03 0.13263633E+03 0.75000000E+00 0.0000E+00 0.9000E+01
#aMCatNLO 2  0  0  2  5 0.94710599D+01 0.00000000D+00  -5  6  0 0.00000000D+00 0.00000000D+00 0.00000000D+00 0.00000000D+00 0.00000000D+00
  <mgrwgt>
 0.1869912924D-03    2    2    0
 0.895050128401507D+03 0.000000000000000D+00 0.000000000000000D+00 0.895050128401507D+03
 0.895050128401507D+03 0.000000000000000D+00 0.000000000000000D+00 -.895050128401507D+03
 0.755879658797573D+03 0.625376931399206D+03 -.218761529532106D+03 -.341725248488346D+03
 0.825986206744643D+03 -.568768066324776D+03 0.266739817215109D+03 0.536289073516914D+03
 0.208234391260799D+03 -.566088650744302D+02 -.479782876830035D+02 -.194563825028568D+03
 0.000000000000000D+00 -.000000000000000D+00 0.000000000000000D+00 -.000000000000000D+00
 0.895217819788307D+03 0.000000000000000D+00 0.000000000000000D+00 0.895217819788307D+03
 0.103958863044014D+04 0.000000000000000D+00 0.000000000000000D+00 -.103958863044014D+04
 0.759154521017705D+03 0.628417573473677D+03 -.221372524665223D+03 -.341725248488346D+03
 0.822795340033962D+03 -.565458996067788D+03 0.263898323173874D+03 0.536289073516914D+03
 0.208175450311043D+03 -.557731391869380D+02 -.486959243437545D+02 -.194563825028568D+03
 0.144681138865737D+03 -.718543821895115D+01 0.617012583510378D+01 -.144370810651833D+03
-.496672538881D-02 0.000000000000D+00 0.000000000000D+00 0.837033185079D-06 0.000000000000D+00  6 2 -4 25 1 -3 21 2 0.15023771D+00 0.14823292D+00 0.47984210D+06 0.47984210D+06 0.47984210D+06 0.10697758D+01  1  2 13  2  6  2       -4 -.195132667993D-02 0.100000000000D+01
0.525030267804D-02 0.000000000000D+00 0.000000000000D+00 0.837033185079D-06 0.596337696872D-07  6 2 -4 25 1 -3 21 2 0.15026586D+00 0.14658962D+00 0.47984210D+06 0.47984210D+06 0.47984210D+06 0.10697758D+01  1  2  1  2  6  2       -4 0.213831797229D-02 0.100000000000D+01
  </mgrwgt>
  </event>
  <event>
  6     66 0.18614916E-05 0.13473177E+03 0.75467711E-02 0.91487228E-01
        2 -1    0    0  502    0 0.00000000E+00 0.00000000E+00 0.25773867E+04 0.25773867E+04 0.32000000E+00 0.0000E+00 0.9000E+01
       -4 -1    0    0    0  503 0.00000000E+00 0.00000000E+00 -.72062395E+03 0.72062561E+03 0.15500000E+01 0.0000E+00 0.9000E+01
       25  1    1    2    0    0 0.40008635E+03 -.48783390E+03 0.61950858E+03 0.89301001E+03 0.12500000E+03 0.0000E+00 0.9000E+01
        1  1    1    2  502    0 -.36989303E+03 0.35342024E+03 0.17682020E+04 0.18407241E+04 0.32000000E+00 0.0000E+00 0.9000E+01
       -3  1    1    2    0  501 -.59417353E+01 0.14866232E+03 -.50330007E+03 0.52483045E+03 0.50000000E+00 0.0000E+00 0.9000E+01
       21  1    1    2  501  503 -.24251581E+02 -.14248663E+02 -.27647789E+02 0.39447767E+02 0.75000000E+00 0.0000E+00 0.9000E+01
#aMCatNLO 2  0  0  2  1 0.28127630D+02 0.00000000D+00  -5  6  0 0.00000000D+00 0.00000000D+00 0.00000000D+00 0.00000000D+00 0.00000000D+00
  <mgrwgt>
 0.3621005839D-04    4    2    0
 0.132913964262667D+04 0.000000000000000D+00 0.000000000000000D+00 0.132913964262667D+04
 0.132913964262667D+04 0.000000000000000D+00 0.000000000000000D+00 -.132913964262667D+04
 0.654475862355064D+03 0.394090855034031D+03 -.491338014099814D+03 0.126463466204280D+03
 0.100436229198789D+04 -.379026590390021D+03 0.348019983061325D+03 0.862533795705692D+03
 0.999441130910389D+03 -.150642646440101D+02 0.143318031038489D+03 -.988997261909973D+03
 0.000000000000000D+00 -.000000000000000D+00 -.000000000000000D+00 -.000000000000000D+00
 0.133226171297915D+04 0.000000000000000D+00 0.000000000000000D+00 0.133226171297915D+04
 0.139411316474149D+04 0.000000000000000D+00 0.000000000000000D+00 -.139411316474149D+04
 0.655474180051419D+03 0.400066049293346D+03 -.487827375853890D+03 0.126463466204280D+03
 0.100282606571493D+04 -.369871019594148D+03 0.353399205159276D+03 0.862533795705692D+03
 0.100012784654118D+04 -.594344882020691D+01 0.148676833359461D+03 -.988997261909973D+03
 0.679467854131155D+02 -.242515808789910D+02 -.142486626648466D+02 -.618514517623405D+02
-.835583492456D-03 0.000000000000D+00 0.000000000000D+00 0.191238684901D-04 0.000000000000D+00  6 2 -4 25 1 -3 21 2 0.39559132D+00 0.10569824D+00 0.42303049D+06 0.42303049D+06 0.42303049D+06 0.10736794D+01  1  2  8  2  6  2       -4 -.115748220718D-03 0.100000000000D+01
-.881926109751D-04 0.000000000000D+00 0.000000000000D+00 0.191238684901D-04 0.000000000000D+00  6 2 -4 25 1 -3 21 2 0.39559132D+00 0.11099156D+00 0.42303049D+06 0.42303049D+06 0.42303049D+06 0.10736794D+01  1  2  9  2  6  2       -4 -.106163079028D-04 0.100000000000D+01
0.880874189818D-04 0.000000000000D+00 0.000000000000D+00 0.191238684901D-04 0.000000000000D+00  6 2 -4 25 1 -3 21 2 0.39559132D+00 0.10569824D+00 0.42303049D+06 0.42303049D+06 0.42303049D+06 0.10736794D+01  1  2 10  2  6  2       -4 0.122022061312D-04 0.100000000000D+01
0.126248852013D-02 0.000000000000D+00 0.000000000000D+00 0.191238684901D-04 0.954037856978D-08  6 2 -4 25 1 -3 21 2 0.39652054D+00 0.11086518D+00 0.44331895D+06 0.44331895D+06 0.44331895D+06 0.10722231D+01  1  2  1  2  6  2       -4 0.150372380875D-03 0.100000000000D+01
  </mgrwgt>
  </event>
  <event>
  6     66 0.18614916E-05 0.13341782E+03 0.75467711E-02 0.94732446E-01
        2 -1    0    0  502    0 0.00000000E+00 0.00000000E+00 0.15303470E+04 0.15303471E+04 0.32000000E+00 0.0000E+00 0.9000E+01
       -4 -1    0    0    0  503 0.00000000E+00 0.00000000E+00 -.61770975E+03 0.61771170E+03 0.15500000E+01 0.0000E+00 0.9000E+01
       25  1    1    2    0    0 -.43492276E+03 -.21596741E+03 0.26913412E+02 0.50214446E+03 0.12500000E+03 0.0000E+00 0.9000E+01
        1  1    1    2  502    0 0.13552418E+03 0.37727432E+02 0.11628307E+04 0.11713093E+04 0.32000000E+00 0.0000E+00 0.9000E+01
       -3  1    1    2    0  501 0.28650496E+03 0.17160351E+03 -.18584048E+03 0.38219078E+03 0.50000000E+00 0.0000E+00 0.9000E+01
       21  1    1    2  501  503 0.12893613E+02 0.66364615E+01 -.91266322E+02 0.92414241E+02 0.75000000E+00 0.0000E+00 0.9000E+01
#aMCatNLO 2  0  0  2  5 0.14501306D+02 0.00000000D+00  -5  6  0 0.00000000D+00 0.00000000D+00 0.00000000D+00 0.00000000D+00 0.00000000D+00
  <mgrwgt>
 0.2763018666D-02    2    2    0
 0.896889303804316D+03 0.000000000000000D+00 0.000000000000000D+00 0.896889303804316D+03
 0.896889303804316D+03 0.000000000000000D+00 0.000000000000000D+00 -.896889303804316D+03
 0.556468146533628D+03 -.430939915521735D+03 -.213920664822474D+03 -.250121043654072D+03
 0.692584554536019D+03 0.140489574072459D+03 0.402852248547561D+02 0.676988290457964D+03
 0.544725906538985D+03 0.290450341449276D+03 0.173635439967718D+03 -.426867246803893D+03
 0.000000000000000D+00 0.000000000000000D+00 0.000000000000000D+00 -.000000000000000D+00
 0.897254232713820D+03 0.000000000000000D+00 0.000000000000000D+00 0.897254232713820D+03
 0.105355928755920D+04 0.000000000000000D+00 0.000000000000000D+00 -.105355928755920D+04
 0.560375354522016D+03 -.434953764434484D+03 -.215986629867094D+03 -.250121043654072D+03
 0.691448308549297D+03 0.135515467317617D+03 0.377250062448640D+02 0.676988290457964D+03
 0.542013559474861D+03 0.286544684103392D+03 0.171625162120131D+03 -.426867246803893D+03
 0.156976297726847D+03 0.128936130134743D+02 0.663646150209914D+01 -.156305054845381D+03
-.668554897347D-02 0.000000000000D+00 0.000000000000D+00 0.955028524994D-05 0.000000000000D+00  6 2 -4 25 1 -3 21 2 0.23534217D+00 0.95299075D-01 0.24534101D+06 0.24534101D+06 0.24534101D+06 0.10910743D+01  1  2 13  2  6  2       -4 -.499035876201D-02 0.100000000000D+01
0.103159483524D-01 0.000000000000D+00 0.000000000000D+00 0.955028524994D-05 0.446615466586D-06  6 2 -4 25 1 -3 21 2 0.23543792D+00 0.95032327D-01 0.24534101D+06 0.24534101D+06 0.24534101D+06 0.10910743D+01  1  2  1  2  6  2       -4 0.775337742844D-02 0.100000000000D+01
  </mgrwgt>
  </event>
  <event>
  6     66 0.18614916E-05 0.12675440E+03 0.75467711E-02 0.92419039E-01
        2 -1    0    0  502    0 0.00000000E+00 0.00000000E+00 0.46829343E+03 0.46829354E+03 0.32000000E+00 0.0000E+00 0.9000E+01
       21 -1    0    0  503  501 0.00000000E+00 0.00000000E+00 -.12289921E+04 0.12289923E+04 0.75000000E+00 0.0000E+00 0.9000E+01
       25  1    1    2    0    0 0.31404180E+02 0.48516655E+03 0.18946194E+02 0.50235124E+03 0.12500000E+03 0.0000E+00 0.9000E+01
        1  1    1    2  502    0 -.25763039E+01 -.40957296E+02 0.86042914E+02 0.95329024E+02 0.32000000E+00 0.0000E+00 0.9000E+01
        4  1    1    2  503    0 0.13436066E+03 0.60218659E+02 -.16936847E+03 0.22442628E+03 0.15500000E+01 0.0000E+00 0.9000E+01
       -3  1    1    2    0  501 -.16318854E+03 -.50442791E+03 -.69631933E+03 0.87517934E+03 0.50000000E+00 0.0000E+00 0.9000E+01
#aMCatNLO 2  0  0  2  5 0.78777826D+02 0.00000000D+00  -5  6  0 0.00000000D+00 0.00000000D+00 0.00000000D+00 0.00000000D+00 0.00000000D+00
  <mgrwgt>
 0.6824621303D-04    1    2    0
 0.670441067585707D+03 0.000000000000000D+00 0.000000000000000D+00 0.670441067585707D+03
 0.670441067585707D+03 0.000000000000000D+00 0.000000000000000D+00 -.670441067585707D+03
 0.585239383152145D+03 0.884815133931701D+02 0.510797654315106D+03 0.241115975675903D+03
 0.140316744023632D+03 0.115083194179158D+02 -.345761645318471D+02 0.135502162653720D+03
 0.000000000000000D+00 0.000000000000000D+00 0.000000000000000D+00 -.000000000000000D+00
 0.615326007995637D+03 -.999898328110859D+02 -.476221489783259D+03 -.376618138329624D+03
 0.716593013541183D+03 0.000000000000000D+00 0.000000000000000D+00 0.716593013541183D+03
 0.803138907430358D+03 0.000000000000000D+00 0.000000000000000D+00 -.803138907430358D+03
 0.556951175671698D+03 0.314274149239265D+02 0.485226767550125D+03 0.241115975675903D+03
 0.141559784295241D+03 -.257182778574693D+01 -.408866989095520D+02 0.135502162653720D+03
 0.170790122844566D+03 0.134360661948881D+03 0.602186585108315D+02 -.865458938891752D+02
 0.650430838160035D+03 -.163216249087061D+03 -.504558727151404D+03 -.376618138329624D+03
0.611402266182D-05 0.000000000000D+00 0.000000000000D+00 0.346953426482D-05 0.155933963650D-10  6 2 21 25 1 4 -3 2 0.72044825D-01 0.18907483D+00 0.37244171D+06 0.37244171D+06 0.37244171D+06 0.10776697D+01  1  2  1  6  5  2       -4 0.682462130318D-04 0.100000000000D+01
  </mgrwgt>
  </event>
  <event>
  5     66 0.18614916E-05 0.15660867E+03 0.75467711E-02 0.93591156E-01
        2 -1    0    0  502    0 0.00000000E+00 0.00000000E+00 0.14440203E+04 0.14440204E+04 0.32000000E+00 0.0000E+00 0.9000E+01
       -4 -1    0    0    0  501 0.00000000E+00 0.00000000E+00 -.68515671E+03 0.68515846E+03 0.15500000E+01 0.0000E+00 0.9000E+01
       25  1    1    2    0    0 -.54151540E+02 0.50050270E+03 0.43747622E+02 0.52055182E+03 0.12500000E+03 0.0000E+00 0.9000E+01
        1  1    1    2  502    0 0.13070348E+03 -.86294264E+02 0.10555045E+04 0.10670613E+04 0.32000000E+00 0.0000E+00 0.9000E+01
       -3  1    1    2    0  501 -.76551940E+02 -.41420843E+03 -.34038846E+03 0.54156568E+03 0.50000000E+00 0.0000E+00 0.9000E+01
#aMCatNLO 1  0  0  2  5 0.78777826D+02 0.00000000D+00  -5  6  0 0.00000000D+00 0.00000000D+00 0.00000000D+00 0.00000000D+00 0.00000000D+00
  <mgrwgt>
 0.3098852782D-02    1    2    0
 0.994676894343816D+03 0.000000000000000D+00 0.000000000000000D+00 0.994676894343816D+03
 0.994676894343816D+03 0.000000000000000D+00 0.000000000000000D+00 -.994676894343816D+03
 0.540476419686508D+03 -.541390011432046D+02 0.500548702132747D+03 -.151689569798272D+03
 0.739368552677986D+03 0.130693289512360D+03 -.862875361494426D+02 0.722592265299620D+03
 0.709508816323138D+03 -.765542883691557D+02 -.414261165983304D+03 -.570902695501349D+03
 0.000000000000000D+00 -.000000000000000D+00 0.000000000000000D+00 0.000000000000000D+00
 0.137633654847146D+04 0.000000000000000D+00 0.000000000000000D+00 0.137633654847146D+04
 0.103194730826925D+04 0.000000000000000D+00 0.000000000000000D+00 -.103194730826925D+04
 0.488754377322928D+03 -.467321953728787D+02 0.445041815655978D+03 -.151689569798272D+03
 0.754980355584208D+03 0.141447293520749D+03 -.166878454579600D+03 0.722592265299620D+03
 0.757432126111188D+03 -.659975243578956D+02 -.493373960311281D+03 -.570902695501349D+03
 0.407116997722379D+03 -.287175737899748D+02 0.215210599234904D+03 0.344389240202209D+03
0.503389417374D-02 0.000000000000D+00 0.000000000000D+00 0.736168526164D-05 0.000000000000D+00  6 2 -4 25 1 -3 21 2 0.22215711D+00 0.10540886D+00 0.30065335D+06 0.30065335D+06 0.30065335D+06 0.10844820D+01  1  2 14  2  6  2       -4 0.309885278214D-02 0.100000000000D+01
  </mgrwgt>
  </event>
  <event>
  5     66 0.18614916E-05 0.11856877E+03 0.75467711E-02 0.95060734E-01
        2 -1    0    0  502    0 0.00000000E+00 0.00000000E+00 0.98577133E+03 0.98577139E+03 0.32000000E+00 0.0000E+00 0.9000E+01
       -4 -1    0    0    0  501 0.00000000E+00 0.00000000E+00 -.35148349E+03 0.35148690E+03 0.15500000E+01 0.0000E+00 0.9000E+01
       25  1    1    2    0    0 0.15029711E+02 -.45581661E+03 0.63235196E+02 0.47709367E+03 0.12500000E+03 0.0000E+00 0.9000E+01
        1  1    1    2  502    0 0.62652021E+02 0.36624657E+03 0.62718225E+03 0.72898526E+03 0.32000000E+00 0.0000E+00 0.9000E+01
       -3  1    1    2    0  501 -.77681732E+02 0.89570044E+02 -.56129601E+02 0.13117937E+03 0.50000000E+00 0.0000E+00 0.9000E+01
#aMCatNLO 1  0  0  4  1 0.12685803D+02 0.00000000D+00  -5  6  0 0.00000000D+00 0.00000000D+00 0.00000000D+00 0.00000000D+00 0.00000000D+00
  <mgrwgt>
 0.5436895108D-02    7    2    0
 0.588629480390110D+03 0.000000000000000D+00 0.000000000000000D+00 0.588629480390110D+03
 0.588629480390110D+03 -.000000000000000D+00 -.000000000000000D+00 -.588629480390110D+03
 0.507861440316895D+03 0.150327252517763D+02 -.455817713043366D+03 -.185209265988964D+03
 0.490139176690608D+03 0.626513003753223D+02 0.366242355739815D+03 0.319652567564190D+03
 0.179258343772717D+03 -.776840256270986D+02 0.895753573035509D+02 -.134443301575226D+03
 0.000000000000000D+00 0.000000000000000D+00 0.000000000000000D+00 0.000000000000000D+00
 0.588629480390110D+03 0.000000000000000D+00 0.000000000000000D+00 0.588629480390110D+03
 0.588629480390110D+03 -.000000000000000D+00 -.000000000000000D+00 -.588629480390110D+03
 0.507509102035986D+03 0.150825103249303D+02 -.455526683130764D+03 -.184955258069500D+03
 0.373057443691535D+03 0.421116896143986D+02 0.271646250591445D+03 0.252203839049078D+03
 0.179234862137669D+03 -.776664481913380D+02 0.896781101824582D+02 -.134353619917568D+03
 0.117457552915030D+03 0.204722482520091D+02 0.942023223568616D+02 0.671050389379900D+02
0.284287424700D-04 0.000000000000D+00 0.000000000000D+00 0.293764099353D-06 0.000000000000D+00  6 2 -4 25 1 -3 21 0 0.15165740D+00 0.54074649D-01 0.23185033D+06 0.23185033D+06 0.23185033D+06 0.10929301D+01  1  2  2  3  6  4        1 0.151199152188D-03 0.100000000000D+01
0.214096661472D-05 0.000000000000D+00 -.109173856545D-06 0.293764099353D-06 0.000000000000D+00  6 2 -4 25 1 -3 21 2 0.15165740D+00 0.54074649D-01 0.23185033D+06 0.23185033D+06 0.23185033D+06 0.10929301D+01  1  2  3  3  6  4        1 0.136014870701D-04 0.100000000000D+01
-.182699714768D-04 0.000000000000D+00 0.000000000000D+00 0.293764099353D-06 0.000000000000D+00  6 2 -4 25 1 -3 21 2 0.15165740D+00 0.54074649D-01 0.23185033D+06 0.23185033D+06 0.23185033D+06 0.10929301D+01  1  2 15  3  6  4        1 -.116068498736D-03 0.100000000000D+01
0.281666426774D-02 0.000000000000D+00 0.000000000000D+00 0.293764099353D-06 0.000000000000D+00  6 2 -4 25 1 -3 21 2 0.15165740D+00 0.54074649D-01 0.23161782D+06 0.23161782D+06 0.23161782D+06 0.10929631D+01  1  2 12  3  6  4        1 0.178955036757D-01 0.100000000000D+01
-.272532889757D-02 0.000000000000D+00 0.000000000000D+00 0.293764099353D-06 0.000000000000D+00  6 2 -4 25 1 -3 21 2 0.15165740D+00 0.54074649D-01 0.23185033D+06 0.23185033D+06 0.23185033D+06 0.10929301D+01  1  2  4  3  6  4        1 -.173139205008D-01 0.100000000000D+01
-.283037493363D-02 0.000000000000D+00 0.000000000000D+00 0.293764099353D-06 0.000000000000D+00  6 2 -4 25 1 -3 21 2 0.15165740D+00 0.54074649D-01 0.23185033D+06 0.23185033D+06 0.23185033D+06 0.10929301D+01  1  2  5  3  6  4        1 -.179812743453D-01 0.100000000000D+01
0.358696329887D-02 0.000000000000D+00 -.000000000000D+00 0.293764099353D-06 0.000000000000D+00  6 2 -4 25 1 -3 21 2 0.15165740D+00 0.54074649D-01 0.23185033D+06 0.23185033D+06 0.23185033D+06 0.10929301D+01  1  2  6  3  6  4        1 0.227878541381D-01 0.100000000000D+01
  </mgrwgt>
  </event>
  <event>
  5     66 0.18614916E-05 0.32287912E+02 0.75467711E-02 0.85366711E-01
        2 -1    0    0  502    0 0.00000000E+00 0.00000000E+00 0.34428606E+04 0.34428606E+04 0.32000000E+00 0.0000E+00 0.9000E+01
       -4 -1    0    0    0  501 0.00000000E+00 0.00000000E+00 -.13900509E+04 0.13900518E+04 0.15500000E+01 0.0000E+00 0.9000E+01
       25  1    1    2    0    0 0.88149462E+03 0.45689096E+03 0.41422577E+03 0.10830467E+04 0.12500000E+03 0.0000E+00 0.9000E+01
        1  1    1    2  502    0 -.84926092E+03 -.45872837E+03 0.26074961E+04 0.27804157E+04 0.32000000E+00 0.0000E+00 0.9000E+01
       -3  1    1    2    0  501 -.32233696E+02 0.18374093E+01 -.96891211E+03 0.96945001E+03 0.50000000E+00 0.0000E+00 0.9000E+01
#aMCatNLO 1  0  0  2  5 0.88238999D+01 0.00000000D+00  -5  6  0 0.00000000D+00 0.00000000D+00 0.00000000D+00 0.00000000D+00 0.00000000D+00
  <mgrwgt>
 0.2580776493D-02    4    2    0
 0.218763654795654D+04 0.000000000000000D+00 0.000000000000000D+00 0.218763654795654D+04
 0.218763654795654D+04 0.000000000000000D+00 0.000000000000000D+00 -.218763654795654D+04
 0.100195924982779D+04 0.881479330709564D+03 0.456881631534520D+03 -.505044811244485D+02
 0.184780438754517D+04 -.849243744988911D+03 -.458719091923993D+03 0.157567220922780D+04
 0.152550945854012D+04 -.322355857206529D+02 0.183746038947379D+01 -.152516772810335D+04
 0.000000000000000D+00 0.000000000000000D+00 0.000000000000000D+00 0.000000000000000D+00
 0.249377348972954D+04 0.000000000000000D+00 0.000000000000000D+00 0.249377348972954D+04
 0.227292930227600D+04 0.000000000000000D+00 0.000000000000000D+00 -.227292930227600D+04
 0.940384871816228D+03 0.812896435427044D+03 0.453152722376441D+03 -.505044811244485D+02
 0.191424235791000D+04 -.982079144811426D+03 -.465941463287505D+03 0.157567220922780D+04
 0.153160155782617D+04 -.140180167922196D+03 -.403157648157322D+01 -.152516772810335D+04
 0.380474004453141D+03 0.309362877306577D+03 0.168203173926366D+02 0.220844187453542D+03
0.745994927155D+00 0.000000000000D+00 0.000000000000D+00 0.276307708110D-03 0.000000000000D+00  6 2 -4 25 1 -3 21 0 0.52967093D+00 0.21385405D+00 0.99818836D+06 0.99818836D+06 0.99818836D+06 0.10479164D+01  1  2  2  2  6  2       -4 0.219032157900D-02 0.100000000000D+01
0.682060020089D+00 0.000000000000D+00 -.286481694525D-02 0.276307708110D-03 0.000000000000D+00  6 2 -4 25 1 -3 21 2 0.52967093D+00 0.21385405D+00 0.99818836D+06 0.99818836D+06 0.99818836D+06 0.10479164D+01  1  2  3  2  6  2       -4 0.219911459606D-02 0.100000000000D+01
-.544034270007D+00 0.000000000000D+00 0.000000000000D+00 0.276307708110D-03 0.000000000000D+00  6 2 -4 25 1 -3 21 2 0.52967093D+00 0.21385405D+00 0.99818836D+06 0.99818836D+06 0.99818836D+06 0.10479164D+01  1  2 15  2  6  2       -4 -.175408859732D-02 0.100000000000D+01
-.169253366421D-01 0.000000000000D+00 0.000000000000D+00 0.276307708110D-03 0.000000000000D+00  6 2 -4 25 1 -3 21 2 0.52967093D+00 0.21385405D+00 0.99818836D+06 0.99818836D+06 0.99818836D+06 0.10479164D+01  1  2  4  2  6  2       -4 -.545710842986D-04 0.100000000000D+01
  </mgrwgt>
  </event>
  <event>
  6     66 0.18614916E-05 0.76474462E+02 0.75467711E-02 0.94744796E-01
        2 -1    0    0  502    0 0.00000000E+00 0.00000000E+00 0.10037238E+04 0.10037239E+04 0.32000000E+00 0.0000E+00 0.9000E+01
       -4 -1    0    0    0  503 0.00000000E+00 0.00000000E+00 -.66941785E+03 0.66941964E+03 0.15500000E+01 0.0000E+00 0.9000E+01
       25  1    1    2    0    0 -.22136727E+03 0.39268717E+03 0.22289704E+02 0.46832522E+03 0.12500000E+03 0.0000E+00 0.9000E+01
        1  1    1    2  502    0 -.52592984E+02 -.68298357E+02 0.64827659E+03 0.65398266E+03 0.32000000E+00 0.0000E+00 0.9000E+01
       -3  1    1    2    0  501 0.25501804E+03 -.32869951E+03 -.31362506E+03 0.52099760E+03 0.50000000E+00 0.0000E+00 0.9000E+01
       21  1    1    2  501  503 0.18942218E+02 0.43106999E+01 -.22635267E+02 0.29838023E+02 0.75000000E+00 0.0000E+00 0.9000E+01
#aMCatNLO 2  0  0  2  2 0.92792965D+02 0.00000000D+00  -5  6  0 0.00000000D+00 0.00000000D+00 0.00000000D+00 0.00000000D+00 0.00000000D+00
  <mgrwgt>
 0.3827995006D-02    1    2    0
 0.801977002860525D+03 0.000000000000000D+00 0.000000000000000D+00 0.801977002860525D+03
 0.801977002860525D+03 0.000000000000000D+00 0.000000000000000D+00 -.801977002860525D+03
 0.473343265519288D+03 -.215813068890415D+03 0.394007975922647D+03 -.813097854990606D+02
 0.524872852333860D+03 -.463817297453833D+02 -.668758955812879D+02 0.518524696473668D+03
 0.605737887867901D+03 0.262194798635798D+03 -.327132080341359D+03 -.437214910974607D+03
 0.000000000000000D+00 0.000000000000000D+00 0.000000000000000D+00 -.000000000000000D+00
 0.804919961907889D+03 0.000000000000000D+00 0.000000000000000D+00 0.804919961907889D+03
 0.834748333438482D+03 0.000000000000000D+00 0.000000000000000D+00 -.834748333438482D+03
 0.474867755549150D+03 -.221411908222193D+03 0.392733842366292D+03 -.813097854990606D+02
 0.525638834660611D+03 -.525846170995187D+02 -.682874929599337D+02 0.518524696473668D+03
 0.603565054772952D+03 0.255054306984833D+03 -.328757049282642D+03 -.437214910974607D+03
 0.355966503636571D+02 0.189422183368789D+02 0.431069987628382D+01 -.298283715305926D+02
0.317671135606D-02 0.000000000000D+00 0.000000000000D+00 0.165610174699D-04 0.256709120958D-06  6 2 -4 25 1 -3 21 2 0.15441843D+00 0.10298700D+00 0.24480856D+06 0.24480856D+06 0.24480856D+06 0.10911454D+01  1  2  1  2  6  2       -4 0.382799500621D-02 0.100000000000D+01
  </mgrwgt>
  </event>
  <event>
  6     66 0.18614916E-05 0.13355128E+03 0.75467711E-02 0.93779725E-01
        2 -1    0    0  502    0 0.00000000E+00 0.00000000E+00 0.34894365E+04 0.34894365E+04 0.32000000E+00 0.0000E+00 0.9000E+01
       21 -1    0    0  503  501 0.00000000E+00 0.00000000E+00 -.95302731E+02 0.95305682E+02 0.75000000E+00 0.0000E+00 0.9000E+01
       25  1    1    2    0    0 -.48468528E+03 -.19746943E+03 0.19690291E+04 0.20412287E+04 0.12500000E+03 0.0000E+00 0.9000E+01
        1  1    1    2  502    0 0.14773701E+03 0.78727859E+00 0.16397724E+03 0.22071584E+03 0.32000000E+00 0.0000E+00 0.9000E+01
        4  1    1    2  503    0 0.26627175E+02 0.29790636E+02 0.22157392E+03 0.22515305E+03 0.15500000E+01 0.0000E+00 0.9000E+01
       -3  1    1    2    0  501 0.31032109E+03 0.16689151E+03 0.10395535E+04 0.10976446E+04 0.50000000E+00 0.0000E+00 0.9000E+01
#aMCatNLO 2  0  0  2  1 0.39956081D+02 0.00000000D+00  -5  6  0 0.00000000D+00 0.00000000D+00 0.00000000D+00 0.00000000D+00 0.00000000D+00
  <mgrwgt>
 0.1769825886D-01    1    2    0
 0.552292220080360D+03 0.000000000000000D+00 0.000000000000000D+00 0.552292220080360D+03
 0.552292220080360D+03 0.000000000000000D+00 0.000000000000000D+00 -.552292220080360D+03
 0.536012095354849D+03 -.471582613029697D+03 -.182838697066098D+03 0.125951642744150D+03
 0.203738339659593D+03 0.152472347617991D+03 0.622960313947422D+01 -.134991430482941D+03
 0.000000000000000D+00 0.000000000000000D+00 0.000000000000000D+00 0.000000000000000D+00
 0.364834005146279D+03 0.319110265411707D+03 0.176609093926624D+03 0.903978773879089D+01
 0.590435951953075D+03 0.000000000000000D+00 0.000000000000000D+00 0.590435951953075D+03
 0.563217105671823D+03 0.000000000000000D+00 0.000000000000000D+00 -.563217105671823D+03
 0.552661817461776D+03 -.484700140683255D+03 -.197514662219888D+03 0.125951642744150D+03
 0.200028070772780D+03 0.147607330653709D+03 0.786594264167165D+00 -.134991430482941D+03
 0.483461889940465D+02 0.266271745957715D+02 0.297906356161123D+02 0.272188462812513D+02
 0.352616980396295D+03 0.310465635433775D+03 0.166937432339608D+03 0.903978773879089D+01
0.318583978052D-03 0.000000000000D+00 0.000000000000D+00 0.147089339308D-09 0.144342793979D-09  6 2 21 25 1 4 -3 2 0.53682489D+00 0.14661867D-01 0.29062065D+06 0.29062065D+06 0.29062065D+06 0.10855739D+01  1  2  1  6  5  2       -4 0.176982588594D-01 0.100000000000D+01
  </mgrwgt>
  </event>
  <event>
  5     66 0.18614916E-05 0.19362533E+03 0.75467711E-02 0.94516319E-01
        2 -1    0    0  502    0 0.00000000E+00 0.00000000E+00 0.12779605E+04 0.12779605E+04 0.32000000E+00 0.0000E+00 0.9000E+01
       -4 -1    0    0    0  501 0.00000000E+00 0.00000000E+00 -.41798823E+03 0.41799111E+03 0.15500000E+01 0.0000E+00 0.9000E+01
       25  1    1    2    0    0 -.31534091E+03 -.34053759E+03 0.29379079E+03 0.56333274E+03 0.12500000E+03 0.0000E+00 0.9000E+01
        1  1    1    2  502    0 0.13434982E+03 0.27183759E+03 0.78436179E+03 0.84093345E+03 0.32000000E+00 0.0000E+00 0.9000E+01
       -3  1    1    2    0  501 0.18099109E+03 0.68700000E+02 -.21818036E+03 0.29168542E+03 0.50000000E+00 0.0000E+00 0.9000E+01
#aMCatNLO 1  0  0  1  4 0.25492967D+02 0.00000000D+00  -5  6  0 0.00000000D+00 0.00000000D+00 0.00000000D+00 0.00000000D+00 0.00000000D+00
  <mgrwgt>
 0.3638518738D-02    9    2    0
 0.730872701912761D+03 0.000000000000000D+00 0.000000000000000D+00 0.730872701912761D+03
 0.730872701912761D+03 0.000000000000000D+00 0.000000000000000D+00 -.730872701912761D+03
 0.480748756658780D+03 -.315355051290136D+03 -.340520743437322D+03 0.954892369078547D+01
 0.514153252959681D+03 0.134333413444321D+03 0.271804398781073D+03 0.415247480864940D+03
 0.466843394207061D+03 0.181021637845815D+03 0.687163446562489D+02 -.424796404555725D+03
 0.000000000000000D+00 -.000000000000000D+00 -.000000000000000D+00 0.000000000000000D+00
 0.942214971004234D+03 0.000000000000000D+00 0.000000000000000D+00 0.942214971004234D+03
 0.731753014277633D+03 0.000000000000000D+00 0.000000000000000D+00 -.731753014277633D+03
 0.474796710223654D+03 -.307058947993331D+03 -.339750697648704D+03 0.954892369078547D+01
 0.517002309040523D+03 0.143285968141001D+03 0.272635376505784D+03 0.415247480864940D+03
 0.470168667441707D+03 0.189156833002099D+03 0.694714549225459D+02 -.424796404555725D+03
 0.212000298575983D+03 -.253838531497696D+02 -.235613377962562D+01 0.210461956726600D+03
0.619296960486D-04 0.000000000000D+00 0.000000000000D+00 0.211294649080D-05 0.000000000000D+00  6 2 -4 25 1 -3 21 0 0.19660953D+00 0.64306106D-01 0.23886066D+06 0.23886066D+06 0.23886066D+06 0.10919514D+01  1  2  2  1  6  1        2 0.147131543473D-03 0.100000000000D+01
0.503406199988D-05 0.000000000000D+00 -.237826339290D-06 0.211294649080D-05 0.000000000000D+00  6 2 -4 25 1 -3 21 2 0.19660953D+00 0.64306106D-01 0.23886066D+06 0.23886066D+06 0.23886066D+06 0.10919514D+01  1  2  3  1  6  1        2 0.142604113024D-04 0.100000000000D+01
-.399416624860D-04 0.000000000000D+00 0.000000000000D+00 0.211294649080D-05 0.000000000000D+00  6 2 -4 25 1 -3 21 2 0.19660953D+00 0.64306106D-01 0.23886066D+06 0.23886066D+06 0.23886066D+06 0.10919514D+01  1  2 15  1  6  1        2 -.113146110470D-03 0.100000000000D+01
0.675567186045D-02 0.000000000000D+00 0.000000000000D+00 0.211294649080D-05 0.000000000000D+00  6 2 -4 25 1 -3 21 2 0.25537946D+00 0.64306106D-01 0.25487323D+06 0.25487323D+06 0.25487323D+06 0.10898289D+01  1  2 12  1  6  1        2 0.117089277103D-01 0.100000000000D+01
-.531371011765D-02 0.000000000000D+00 0.000000000000D+00 0.211294649080D-05 0.000000000000D+00  6 2 -4 25 1 -3 21 2 0.19660953D+00 0.64306106D-01 0.23886066D+06 0.23886066D+06 0.23886066D+06 0.10919514D+01  1  2  4  1  6  1        2 -.150525940724D-01 0.100000000000D+01
-.707485146727D-02 0.000000000000D+00 -.653006430165D-04 0.211294649080D-05 0.000000000000D+00  6 2 -4 25 1 -3 21 2 0.25356223D+00 0.64306106D-01 0.23886066D+06 0.23886066D+06 0.23886066D+06 0.10919514D+01  1  2  5  1  6  1        2 -.125201113009D-01 0.100000000000D+01
0.687002562998D-02 0.000000000000D+00 0.632432201765D-04 0.211294649080D-05 0.000000000000D+00  6 2 -4 25 1 -3 21 2 0.19660953D+00 0.64306106D-01 0.23886066D+06 0.23886066D+06 0.23886066D+06 0.10919514D+01  1  2  6  1  6  1        2 0.194613000682D-01 0.100000000000D+01
0.236341197641D-03 0.000000000000D+00 0.000000000000D+00 0.211294649080D-05 0.000000000000D+00  6 21 -4 25 1 -3 -2 2 0.25537946D+00 0.64306106D-01 0.25487323D+06 0.25487323D+06 0.25487323D+06 0.10898289D+01  1  2 12  5  6  1        2 0.119506376481D-03 0.100000000000D+01
-.241400199819D-03 0.000000000000D+00 -.223850826944D-05 0.211294649080D-05 0.000000000000D+00  6 21 -4 25 1 -3 -2 2 0.25356223D+00 0.64306106D-01 0.23886066D+06 0.23886066D+06 0.23886066D+06 0.10919514D+01  1  2  5  5  6  1        2 -.126755887683D-03 0.100000000000D+01
  </mgrwgt>
  </event>
  <event>
  5     66 -.18614916E-05 0.17445103E+02 0.75467711E-02 0.94344921E-01
        4 -1    0    0  502    0 0.00000000E+00 0.00000000E+00 0.56180265E+03 0.56180479E+03 0.15500000E+01 0.0000E+00 0.9000E+01
       -2 -1    0    0    0  501 0.00000000E+00 0.00000000E+00 -.42152594E+03 0.42152606E+03 0.32000000E+00 0.0000E+00 0.9000E+01
       25  1    1    2    0    0 -.41198804E+03 0.21988683E+03 0.46821321E+02 0.48569702E+03 0.12500000E+03 0.0000E+00 0.9000E+01
        3  1    1    2  502    0 0.68312350E+01 0.16508382E+02 0.12019621E+02 0.21538657E+02 0.50000000E+00 0.0000E+00 0.9000E+01
       -1  1    1    2    0  501 0.40515680E+03 -.23639521E+03 0.81435768E+02 0.47609518E+03 0.32000000E+00 0.0000E+00 0.9000E+01
#aMCatNLO 1  0  0  1  4 0.52997725D+02 0.00000000D+00  -5  6  0 0.00000000D+00 0.00000000D+00 0.00000000D+00 0.00000000D+00 0.00000000D+00
  <mgrwgt>
 -.2374286021D-03    5    2    0
 0.486636932894483D+03 0.000000000000000D+00 0.000000000000000D+00 0.486636932894483D+03
 0.486636932894483D+03 0.000000000000000D+00 0.000000000000000D+00 -.486636932894483D+03
 0.484222721259092D+03 -.412125894235286D+03 0.220197734392167D+03 -.226240768404479D+02
 0.195509470944110D+02 0.667031672318292D+01 0.161195062338331D+02 0.882654665643914D+01
 0.469500197435463D+03 0.405455577512103D+03 -.236317240626001D+03 0.137975301840088D+02
 0.000000000000000D+00 0.000000000000000D+00 -.000000000000000D+00 0.000000000000000D+00
 0.109661123865953D+04 0.000000000000000D+00 0.000000000000000D+00 0.109661123865953D+04
 0.488525060199451D+03 0.000000000000000D+00 0.000000000000000D+00 -.488525060199451D+03
 0.510203662274125D+03 -.433906519992574D+03 0.236423476103752D+03 -.226240768404479D+02
 0.198141498518579D+02 0.580811469527644D+01 0.167618141070738D+02 0.882654665643914D+01
 0.444709189450577D+03 0.385431920809817D+03 -.221400374352588D+03 0.137975301840088D+02
 0.610409297282422D+03 0.426664844874806D+02 -.317849158582380D+02 0.608086178460080D+03
0.943538717203D-05 0.000000000000D+00 0.000000000000D+00 0.236788050337D-07 0.000000000000D+00  6 4 -2 25 3 -1 21 0 0.86431351D-01 0.64850319D-01 0.23543671D+06 0.23543671D+06 0.23543671D+06 0.10924255D+01  1  2  2  1  6  1        4 0.103407069232D-04 0.100000000000D+01
0.352772224591D-05 0.000000000000D+00 -.362343711351D-07 0.236788050337D-07 0.000000000000D+00  6 4 -2 25 3 -1 21 2 0.86431351D-01 0.64850319D-01 0.23543671D+06 0.23543671D+06 0.23543671D+06 0.10924255D+01  1  2  3  1  6  1        4 0.461390360978D-05 0.100000000000D+01
-.566914800478D-05 0.000000000000D+00 0.000000000000D+00 0.236788050337D-07 0.000000000000D+00  6 4 -2 25 3 -1 21 2 0.86431351D-01 0.64850319D-01 0.23543671D+06 0.23543671D+06 0.23543671D+06 0.10924255D+01  1  2 15  1  6  1        4 -.741467174011D-05 0.100000000000D+01
-.696428999199D-03 0.000000000000D+00 -.596611419480D-05 0.236788050337D-07 0.000000000000D+00  6 4 -2 25 3 -1 21 2 0.19496053D+00 0.64850319D-01 0.23543671D+06 0.23543671D+06 0.23543671D+06 0.10924255D+01  1  2  5  1  6  1        4 -.727352036475D-04 0.100000000000D+01
-.611538979378D-04 0.000000000000D+00 -.527120137756D-06 0.236788050337D-07 0.000000000000D+00  6 21 -2 25 3 -1 -4 2 0.19496053D+00 0.64850319D-01 0.23543671D+06 0.23543671D+06 0.23543671D+06 0.10924255D+01  1  2  5  5  6  1        4 -.172233337256D-03 0.100000000000D+01
  </mgrwgt>
  </event>
  <event>
  5     66 -.18614916E-05 0.86954011E+02 0.75467711E-02 0.91635616E-01
        2 -1    0    0  502    0 0.00000000E+00 0.00000000E+00 0.12228880E+04 0.12228880E+04 0.32000000E+00 0.0000E+00 0.9000E+01
       -4 -1    0    0    0  501 0.00000000E+00 0.00000000E+00 -.46964520E+03 0.46964776E+03 0.15500000E+01 0.0000E+00 0.9000E+01
       25  1    1    2    0    0 -.52325114E+03 -.22899654E+02 0.82586630E+02 0.54475839E+03 0.12500000E+03 0.0000E+00 0.9000E+01
        1  1    1    2  502    0 0.84300299E+02 0.21404850E+02 0.70231820E+03 0.70768331E+03 0.32000000E+00 0.0000E+00 0.9000E+01
       -3  1    1    2    0  501 0.43895085E+03 0.14948040E+01 -.31662035E+02 0.44009410E+03 0.50000000E+00 0.0000E+00 0.9000E+01
#aMCatNLO 1  0  0  2  4 0.57044923D+03 0.00000000D+00  -5  6  0 0.00000000D+00 0.00000000D+00 0.00000000D+00 0.00000000D+00 0.00000000D+00
  <mgrwgt>
 -.2599730255D-03    5    4    0
 0.757842778593544D+03 0.000000000000000D+00 0.000000000000000D+00 0.757842778593544D+03
 0.757842778593544D+03 0.000000000000000D+00 0.000000000000000D+00 -.757842778593544D+03
 0.567314397406452D+03 -.523321954635030D+03 -.228981884235839D+02 -.178410846835430D+03
 0.441119930974360D+03 0.842796355430977D+02 0.213996029844275D+02 0.432464788772052D+03
 0.507251228806276D+03 0.439042319091933D+03 0.149858543915636D+01 -.254053941936622D+03
 0.000000000000000D+00 -.000000000000000D+00 -.000000000000000D+00 -.000000000000000D+00
 0.775571284258929D+03 0.000000000000000D+00 0.000000000000000D+00 0.775571284258929D+03
 0.159820338401781D+04 0.000000000000000D+00 0.000000000000000D+00 -.159820338401781D+04
 0.528722954215015D+03 -.480624462371299D+03 0.330553810387616D+02 -.178410846835430D+03
 0.453560757863044D+03 0.119133029666602D+03 0.670737563291320D+02 0.432464788772052D+03
 0.545954289916308D+03 0.480071244266106D+03 0.552655561202087D+02 -.254053941936622D+03
 0.845536666282375D+03 -.118579811561409D+03 -.155394693488102D+03 -.822632099758885D+03
 0.757842778593544D+03 0.000000000000000D+00 0.000000000000000D+00 0.757842778593544D+03
 0.757842778593544D+03 0.000000000000000D+00 0.000000000000000D+00 -.757842778593544D+03
 0.567314397406452D+03 -.523321954635030D+03 -.228981884235839D+02 -.178410846835430D+03
 0.441119930974360D+03 0.842796355430977D+02 0.213996029844275D+02 0.432464788772052D+03
 0.000000000000000D+00 -.000000000000000D+00 -.000000000000000D+00 -.000000000000000D+00
 0.507251228806276D+03 0.439042319091933D+03 0.149858543915636D+01 -.254053941936622D+03
 0.775571284258929D+03 0.000000000000000D+00 0.000000000000000D+00 0.775571284258929D+03
 0.159820338401781D+04 0.000000000000000D+00 0.000000000000000D+00 -.159820338401781D+04
 0.528722954215015D+03 -.480624462371299D+03 0.330553810387616D+02 -.178410846835430D+03
 0.453560757863044D+03 0.119133029666602D+03 0.670737563291320D+02 0.432464788772052D+03
 0.845536666282375D+03 -.118579811561409D+03 -.155394693488102D+03 -.822632099758885D+03
 0.545954289916308D+03 0.480071244266106D+03 0.552655561202087D+02 -.254053941936622D+03
0.475370922259D-04 0.000000000000D+00 0.000000000000D+00 0.328539474870D-05 0.000000000000D+00  6 2 -4 25 1 -3 21 0 0.18813681D+00 0.72253308D-01 0.28330575D+06 0.28330575D+06 0.28330575D+06 0.10863964D+01  1  2  2  2  6  2       -4 0.908187160594D-04 0.100000000000D+01
0.104897199931D-04 0.000000000000D+00 -.182554950951D-06 0.328539474870D-05 0.000000000000D+00  6 2 -4 25 1 -3 21 2 0.18813681D+00 0.72253308D-01 0.28330575D+06 0.28330575D+06 0.28330575D+06 0.10863964D+01  1  2  3  2  6  2       -4 0.236528372167D-04 0.100000000000D+01
-.346201768732D-04 0.000000000000D+00 0.000000000000D+00 0.328539474870D-05 0.000000000000D+00  6 2 -4 25 1 -3 21 2 0.18813681D+00 0.72253308D-01 0.28330575D+06 0.28330575D+06 0.28330575D+06 0.10863964D+01  1  2 15  2  6  2       -4 -.780636097561D-04 0.100000000000D+01
-.387392365957D-03 0.000000000000D+00 -.227067321409D-04 0.328539474870D-05 0.000000000000D+00  6 2 -4 25 1 -3 21 2 0.18813681D+00 0.15353421D+00 0.28330575D+06 0.28330575D+06 0.28330575D+06 0.10863964D+01  1  2  5  2  6  2       -4 -.101489550592D-03 0.100000000000D+01
-.301762582115D-04 0.000000000000D+00 -.185164239123D-05 0.328539474870D-05 0.000000000000D+00  6 2 21 25 1 4 -3 2 0.18813681D+00 0.15353421D+00 0.28330575D+06 0.28330575D+06 0.28330575D+06 0.10863964D+01  3  4  5  6  5  2       -4 -.194891418397D-03 0.100000000000D+01
  </mgrwgt>
  </event>
  <event>
  6     66 0.18614916E-05 0.11399363E+02 0.75467711E-02 0.95475409E-01
        2 -1    0    0  502    0 0.00000000E+00 0.00000000E+00 0.14831614E+04 0.14831614E+04 0.32000000E+00 0.0000E+00 0.9000E+01
       -4 -1    0    0    0  501 0.00000000E+00 0.00000000E+00 -.78479283E+03 0.78479436E+03 0.15500000E+01 0.0000E+00 0.9000E+01
       25  1    1    2    0    0 -.31425952E+03 -.32555870E+03 0.65202863E+02 0.47394506E+03 0.12500000E+03 0.0000E+00 0.9000E+01
        1  1    1    2  502    0 0.18485942E+02 0.34611618E+00 0.11280132E+04 0.11281648E+04 0.32000000E+00 0.0000E+00 0.9000E+01
       -3  1    1    2    0  503 0.27900385E+03 0.29583027E+03 -.42483761E+03 0.58808668E+03 0.50000000E+00 0.0000E+00 0.9000E+01
       21  1    1    2  503  501 0.16769726E+02 0.29382305E+02 -.70009947E+02 0.77759235E+02 0.75000000E+00 0.0000E+00 0.9000E+01
#aMCatNLO 2  0  0  5  2 0.28346550D+01 0.00000000D+00  -5  6  0 0.00000000D+00 0.00000000D+00 0.00000000D+00 0.00000000D+00 0.00000000D+00
  <mgrwgt>
 0.1176045142D+00    4    2    0
 0.107887728187730D+04 0.000000000000000D+00 0.000000000000000D+00 0.107887728187730D+04
 0.107887728187730D+04 -.000000000000000D+00 -.000000000000000D+00 -.107887728187730D+04
 0.477286721152438D+03 -.314504221945112D+03 -.325827912622627D+03 -.842667189531330D+02
 0.821661925134645D+03 0.180851262606968D+02 -.941115651951350D-01 0.821462864995807D+03
 0.858805917467518D+03 0.296419095684415D+03 0.325922024187823D+03 -.737196146042674D+03
 0.000000000000000D+00 0.000000000000000D+00 0.000000000000000D+00 -.000000000000000D+00
 0.107887728187730D+04 0.000000000000000D+00 0.000000000000000D+00 0.107887728187730D+04
 0.107887728187730D+04 -.000000000000000D+00 -.000000000000000D+00 -.107887728187730D+04
 0.477061193256454D+03 -.314271394190123D+03 -.325571911257337D+03 -.848457630368944D+02
 0.820674685488855D+03 0.184857993697539D+02 0.346440992459748D+00 0.820466388466055D+03
 0.755592737896293D+03 0.279017646674486D+03 0.295835964078853D+03 -.636828564657227D+03
 0.104425947112999D+03 0.167679481458831D+02 0.293895061860244D+02 -.987920607719338D+02
-.378912384656D-03 0.000000000000D+00 0.000000000000D+00 0.445810090666D-03 0.000000000000D+00  6 2 -4 25 1 -3 21 2 0.22817879D+00 0.12073748D+00 0.21549568D+06 0.21549568D+06 0.21549568D+06 0.10953450D+01  1  2  8  4  6  5       -3 -.154767581648D-03 0.100000000000D+01
-.125355496008D-03 0.000000000000D+00 0.000000000000D+00 0.445810090666D-03 0.000000000000D+00  6 2 -4 25 1 -3 21 2 0.22817879D+00 0.12073748D+00 0.21549568D+06 0.21549568D+06 0.21549568D+06 0.10953450D+01  1  2  9  4  6  5       -3 -.512017230080D-04 0.100000000000D+01
0.141516984227D-03 0.000000000000D+00 0.000000000000D+00 0.445810090666D-03 0.000000000000D+00  6 2 -4 25 1 -3 21 2 0.22817879D+00 0.12073748D+00 0.21549568D+06 0.21549568D+06 0.21549568D+06 0.10953450D+01  1  2 10  4  6  5       -3 0.578029177664D-04 0.100000000000D+01
0.288290507273D+00 0.000000000000D+00 0.000000000000D+00 0.445810090666D-03 0.103255932051D-04  6 2 -4 25 1 -3 21 2 0.22817879D+00 0.12073748D+00 0.21549926D+06 0.21549926D+06 0.21549926D+06 0.10953444D+01  1  2  1  4  6  5       -3 0.117752680545D+00 0.100000000000D+01
  </mgrwgt>
  </event>
  <event>
  6     66 0.18614916E-05 0.11078628E+03 0.75467711E-02 0.94843901E-01
        2 -1    0    0  502    0 0.00000000E+00 0.00000000E+00 0.33401545E+04 0.33401545E+04 0.32000000E+00 0.0000E+00 0.9000E+01
       -4 -1    0    0    0  501 0.00000000E+00 0.00000000E+00 -.35241082E+03 0.35241423E+03 0.15500000E+01 0.0000E+00 0.9000E+01
       25  1    1    2    0    0 0.44945069E+03 0.15278544E+03 0.18638441E+04 0.19274048E+04 0.12500000E+03 0.0000E+00 0.9000E+01
        1  1    1    2  502    0 0.67387515E+01 -.78410661E+01 0.12544947E+04 0.12545374E+04 0.32000000E+00 0.0000E+00 0.9000E+01
       -3  1    1    2    0  503 -.23994055E+03 -.60230511E+02 -.68816597E+01 0.24748088E+03 0.50000000E+00 0.0000E+00 0.9000E+01
       21  1    1    2  503  501 -.21624890E+03 -.84713860E+02 -.12371356E+03 0.26314565E+03 0.75000000E+00 0.0000E+00 0.9000E+01
#aMCatNLO 2  0  0  5  1 0.59338341D+02 0.00000000D+00  -5  6  0 0.00000000D+00 0.00000000D+00 0.00000000D+00 0.00000000D+00 0.00000000D+00
  <mgrwgt>
 0.2581598354D-01    1    2    0
 0.108494833659889D+04 0.000000000000000D+00 0.000000000000000D+00 0.108494833659889D+04
 0.108494833659889D+04 -.000000000000000D+00 -.000000000000000D+00 -.108494833659889D+04
 0.715916975703511D+03 0.450518826439268D+03 0.153121099005767D+03 0.520095022244504D+03
 0.408557199412363D+03 0.731043812835058D+01 -.765523312286274D+01 0.408420053488904D+03
 0.104542249808190D+04 -.457829264567619D+03 -.145465865882905D+03 -.928515075733409D+03
 0.000000000000000D+00 0.000000000000000D+00 0.000000000000000D+00 -.000000000000000D+00
 0.108494833659889D+04 0.000000000000000D+00 0.000000000000000D+00 0.108494833659889D+04
 0.108494833659889D+04 -.000000000000000D+00 -.000000000000000D+00 -.108494833659889D+04
 0.713732985823648D+03 0.449512490601078D+03 0.152801356417426D+03 0.518054091117279D+03
 0.407386340181988D+03 0.673609248575936D+01 -.783771967993005D+01 0.407255233698864D+03
 0.430280854043410D+03 -.239794477938944D+03 -.601894768969484D+02 -.352161111676442D+03
 0.618496493148731D+03 -.216454105147893D+03 -.847741598405474D+02 -.573148213139701D+03
0.965091177853D-01 0.000000000000D+00 0.000000000000D+00 0.307815448445D-03 0.201247232700D-06  6 2 -4 25 1 -3 21 2 0.51387018D+00 0.54217313D-01 0.24058217D+06 0.24058217D+06 0.24058217D+06 0.10917159D+01  1  2  1  4  6  5       -3 0.258159835408D-01 0.100000000000D+01
  </mgrwgt>
  </event>
  <event>
  5     66 0.18614916E-05 0.76084864E+02 0.75467711E-02 0.94865185E-01
        2 -1    0    0  502    0 0.00000000E+00 0.00000000E+00 0.16808774E+04 0.16808774E+04 0.32000000E+00 0.0000E+00 0.9000E+01
       -4 -1    0    0    0  501 0.00000000E+00 0.00000000E+00 -.56183824E+03 0.56184038E+03 0.15500000E+01 0.0000E+00 0.9000E+01
       25  1    1    2    0    0 -.43853586E+03 0.18378573E+03 0.57048597E+03 0.75310699E+03 0.12500000E+03 0.0000E+00 0.9000E+01
        1  1    1    2  502    0 0.75525027E+02 -.93541632E+01 0.93106265E+03 0.93416770E+03 0.32000000E+00 0.0000E+00 0.9000E+01
       -3  1    1    2    0  501 0.36301084E+03 -.17443157E+03 -.38250950E+03 0.55544307E+03 0.50000000E+00 0.0000E+00 0.9000E+01
#aMCatNLO 1  0  0  4  1 0.18775608D+02 0.00000000D+00  -5  6  0 0.00000000D+00 0.00000000D+00 0.00000000D+00 0.00000000D+00 0.00000000D+00
  <mgrwgt>
 0.1121094050D-01    7    2    0
 0.971794013126460D+03 0.000000000000000D+00 0.000000000000000D+00 0.971794013126460D+03
 0.971794013126460D+03 -.000000000000000D+00 -.000000000000000D+00 -.971794013126460D+03
 0.540643421211256D+03 -.438574872255598D+03 0.183809422067101D+03 0.224803217691286D+03
 0.541750718544985D+03 0.755079183972512D+02 -.935204421598200D+01 0.536381333169140D+03
 0.861193886496680D+03 0.363066953858347D+03 -.174457377851119D+03 -.761184550860426D+03
 0.000000000000000D+00 0.000000000000000D+00 -.000000000000000D+00 0.000000000000000D+00
 0.971794013126460D+03 0.000000000000000D+00 0.000000000000000D+00 0.971794013126460D+03
 0.971794013126460D+03 -.000000000000000D+00 -.000000000000000D+00 -.971794013126460D+03
 0.540754654914390D+03 -.438521972538004D+03 0.183802870164883D+03 0.225178998425942D+03
 0.213569388115918D+03 0.250371055186643D+02 0.145015639009723D+02 0.211600405320691D+03
 0.860702717440405D+03 0.363151185415705D+03 -.174467810362907D+03 -.760586199906124D+03
 0.328561265782207D+03 0.503336816036348D+02 -.238366237029489D+02 0.323806796159491D+03
0.473069735444D-03 0.000000000000D+00 0.000000000000D+00 0.720122281034D-04 0.000000000000D+00  6 2 -4 25 1 -3 21 0 0.25859668D+00 0.86436819D-01 0.23550688D+06 0.23550688D+06 0.23550688D+06 0.10924157D+01  1  2  2  3  6  4        1 0.319597748174D-03 0.100000000000D+01
0.114189054634D-03 0.000000000000D+00 -.181671234623D-05 0.720122281034D-04 0.000000000000D+00  6 2 -4 25 1 -3 21 2 0.25859668D+00 0.86436819D-01 0.23550688D+06 0.23550688D+06 0.23550688D+06 0.10924157D+01  1  2  3  3  6  4        1 0.920616743700D-04 0.100000000000D+01
-.327494621747D-03 0.000000000000D+00 0.000000000000D+00 0.720122281034D-04 0.000000000000D+00  6 2 -4 25 1 -3 21 2 0.25859668D+00 0.86436819D-01 0.23550688D+06 0.23550688D+06 0.23550688D+06 0.10924157D+01  1  2 15  3  6  4        1 -.264033215109D-03 0.100000000000D+01
0.115444354525D-01 0.000000000000D+00 0.000000000000D+00 0.720122281034D-04 0.000000000000D+00  6 2 -4 25 1 -3 21 2 0.25859668D+00 0.86436819D-01 0.23968521D+06 0.23968521D+06 0.23968521D+06 0.10918384D+01  1  2 12  3  6  4        1 0.929112632473D-02 0.100000000000D+01
-.736445134386D-02 0.000000000000D+00 0.000000000000D+00 0.720122281034D-04 0.000000000000D+00  6 2 -4 25 1 -3 21 2 0.25859668D+00 0.86436819D-01 0.23550688D+06 0.23550688D+06 0.23550688D+06 0.10924157D+01  1  2  4  3  6  4        1 -.593737923226D-02 0.100000000000D+01
-.130669468621D-01 0.000000000000D+00 0.000000000000D+00 0.720122281034D-04 0.000000000000D+00  6 2 -4 25 1 -3 21 2 0.25859668D+00 0.86436819D-01 0.23550688D+06 0.23550688D+06 0.23550688D+06 0.10924157D+01  1  2  5  3  6  4        1 -.105348538955D-01 0.100000000000D+01
0.226295384154D-01 0.000000000000D+00 -.000000000000D+00 0.720122281034D-04 0.000000000000D+00  6 2 -4 25 1 -3 21 2 0.25859668D+00 0.86436819D-01 0.23550688D+06 0.23550688D+06 0.23550688D+06 0.10924157D+01  1  2  6  3  6  4        1 0.182444210912D-01 0.100000000000D+01
  </mgrwgt>
  </event>
  <event>
  5     66 0.18614916E-05 0.83816273E+02 0.75467711E-02 0.91918889E-01
        4 -1    0    0  502    0 0.00000000E+00 0.00000000E+00 0.20791179E+04 0.20791184E+04 0.15500000E+01 0.0000E+00 0.9000E+01
       -2 -1    0    0    0  501 0.00000000E+00 0.00000000E+00 -.73072317E+03 0.73072324E+03 0.32000000E+00 0.0000E+00 0.9000E+01
       25  1    1    2    0    0 0.48574410E+03 -.31010259E+03 -.20483728E+03 0.62425496E+03 0.12500000E+03 0.0000E+00 0.9000E+01
        3  1    1    2  502    0 -.41454273E+03 0.35431163E+03 0.18231478E+04 0.19029584E+04 0.50000000E+00 0.0000E+00 0.9000E+01
       -1  1    1    2    0  501 -.71201369E+02 -.44209038E+02 -.26991588E+03 0.28262830E+03 0.32000000E+00 0.0000E+00 0.9000E+01
#aMCatNLO 1  0  0  2  5 0.68312415D+02 0.00000000D+00  -5  6  0 0.00000000D+00 0.00000000D+00 0.00000000D+00 0.00000000D+00 0.00000000D+00
  <mgrwgt>
 0.1782480663D-04    7    4    0
 0.123258286132421D+04 0.000000000000000D+00 0.000000000000000D+00 0.123258286132421D+04
 0.123258286132421D+04 0.000000000000000D+00 0.000000000000000D+00 -.123258286132421D+04
 0.823546269833056D+03 0.485747535640923D+03 -.310097858230807D+03 -.574884430555723D+03
 0.117179516982782D+04 -.414539943669006D+03 0.354309241927267D+03 0.103717188364304D+04
 0.469824282987533D+03 -.712075919719172D+02 -.442113836964604D+02 -.462287453087313D+03
 0.000000000000000D+00 -.000000000000000D+00 0.000000000000000D+00 -.000000000000000D+00
 0.123417739164698D+04 0.000000000000000D+00 0.000000000000000D+00 0.123417739164698D+04
 0.227343358948734D+04 0.000000000000000D+00 0.000000000000000D+00 -.227343358948734D+04
 0.837832983042460D+03 0.496718639421874D+03 -.330329520674935D+03 -.574884430555723D+03
 0.115813807377514D+04 -.399153968808653D+03 0.325936176102387D+03 0.103717188364304D+04
 0.470140989728456D+03 -.650004261248610D+02 -.556579333472268D+02 -.462287453087313D+03
 0.104149893458827D+04 -.325642444883596D+02 0.600512779197755D+02 -.103925619784036D+04
 0.123258286132421D+04 0.000000000000000D+00 0.000000000000000D+00 0.123258286132421D+04
 0.123258286132421D+04 0.000000000000000D+00 0.000000000000000D+00 -.123258286132421D+04
 0.823546269833056D+03 0.485747535640923D+03 -.310097858230807D+03 -.574884430555723D+03
 0.117179516982782D+04 -.414539943669006D+03 0.354309241927267D+03 0.103717188364304D+04
 0.000000000000000D+00 -.000000000000000D+00 0.000000000000000D+00 -.000000000000000D+00
 0.469824282987533D+03 -.712075919719172D+02 -.442113836964604D+02 -.462287453087313D+03
 0.123417739164698D+04 0.000000000000000D+00 0.000000000000000D+00 0.123417739164698D+04
 0.227343358948734D+04 0.000000000000000D+00 0.000000000000000D+00 -.227343358948734D+04
 0.837832983042460D+03 0.496718639421874D+03 -.330329520674935D+03 -.574884430555723D+03
 0.115813807377514D+04 -.399153968808653D+03 0.325936176102387D+03 0.103717188364304D+04
 0.104149893458827D+04 -.325642444883596D+02 0.600512779197755D+02 -.103925619784036D+04
 0.470140989728456D+03 -.650004261248610D+02 -.556579333472268D+02 -.462287453087313D+03
0.549919101323D-03 0.000000000000D+00 0.000000000000D+00 0.218875603023D-04 0.000000000000D+00  6 4 -2 25 3 -1 21 0 0.31986434D+00 0.11241900D+00 0.37138795D+06 0.37138795D+06 0.37138795D+06 0.10777589D+01  1  2  2  2  6  2       -2 0.135652845830D-05 0.100000000000D+01
0.105021226688D-03 0.000000000000D+00 -.211183414610D-05 0.218875603023D-04 0.000000000000D+00  6 4 -2 25 3 -1 21 2 0.31986434D+00 0.11241900D+00 0.37138795D+06 0.37138795D+06 0.37138795D+06 0.10777589D+01  1  2  3  2  6  2       -2 0.300919591668D-06 0.100000000000D+01
-.398749849206D-03 0.000000000000D+00 0.000000000000D+00 0.218875603023D-04 0.000000000000D+00  6 4 -2 25 3 -1 21 2 0.31986434D+00 0.11241900D+00 0.37138795D+06 0.37138795D+06 0.37138795D+06 0.10777589D+01  1  2 15  2  6  2       -2 -.114254656496D-05 0.100000000000D+01
-.321148883981D-01 0.000000000000D+00 0.000000000000D+00 0.218875603023D-04 0.000000000000D+00  6 4 -2 25 3 -1 21 2 0.31986434D+00 0.11241900D+00 0.37138795D+06 0.37138795D+06 0.37138795D+06 0.10777589D+01  1  2  4  2  6  2       -2 -.920194841363D-04 0.100000000000D+01
-.670548453362D-01 0.000000000000D+00 -.267134418294D-03 0.218875603023D-04 0.000000000000D+00  6 4 -2 25 3 -1 21 2 0.31986434D+00 0.20742619D+00 0.37138795D+06 0.37138795D+06 0.37138795D+06 0.10777589D+01  1  2  5  2  6  2       -2 -.343674416734D-04 0.100000000000D+01
0.563546858305D-01 0.000000000000D+00 0.223816153886D-03 0.218875603023D-04 0.000000000000D+00  6 4 -2 25 3 -1 21 2 0.31986434D+00 0.11241900D+00 0.37138795D+06 0.37138795D+06 0.37138795D+06 0.10777589D+01  1  2  6  2  6  2       -2 0.161474299848D-03 0.100000000000D+01
-.446787974455D-02 0.000000000000D+00 -.178578380980D-04 0.218875603023D-04 0.000000000000D+00  6 4 21 25 3 2 -1 2 0.31986434D+00 0.20742619D+00 0.37138795D+06 0.37138795D+06 0.37138795D+06 0.10777589D+01  3  4  5  6  5  2       -2 -.177774688908D-04 0.100000000000D+01
  </mgrwgt>
  </event>
  <event>
  5     66 0.18614916E-05 0.15584861E+03 0.75467711E-02 0.92447896E-01
        2 -1    0    0  502    0 0.00000000E+00 0.00000000E+00 0.13066881E+04 0.13066882E+04 0.32000000E+00 0.0000E+00 0.9000E+01
       -4 -1    0    0    0  501 0.00000000E+00 0.00000000E+00 -.56450763E+03 0.56450975E+03 0.15500000E+01 0.0000E+00 0.9000E+01
       25  1    1    2    0    0 0.32932876E+03 -.47516282E+03 0.32664237E+03 0.67569030E+03 0.12500000E+03 0.0000E+00 0.9000E+01
        1  1    1    2  502    0 0.14707698E+02 0.15519951E+03 0.65140344E+03 0.66979829E+03 0.32000000E+00 0.0000E+00 0.9000E+01
       -3  1    1    2    0  501 -.34403646E+03 0.31996331E+03 -.23586531E+03 0.52570933E+03 0.50000000E+00 0.0000E+00 0.9000E+01
#aMCatNLO 1  0  0  2  5 0.68312415D+02 0.00000000D+00  -5  6  0 0.00000000D+00 0.00000000D+00 0.00000000D+00 0.00000000D+00 0.00000000D+00
  <mgrwgt>
 0.2645018626D-03    1    2    0
 0.858858217684309D+03 0.000000000000000D+00 0.000000000000000D+00 0.858858217684309D+03
 0.858858217684309D+03 0.000000000000000D+00 0.000000000000000D+00 -.858858217684309D+03
 0.594996815094530D+03 0.329388642291403D+03 -.475185816305224D+03 0.640138444744469D+02
 0.448058625147607D+03 0.147033351916859D+02 0.155153473381336D+03 0.420080638926756D+03
 0.674660995126480D+03 -.344091977483089D+03 0.320032342923887D+03 -.484094483401203D+03
 0.000000000000000D+00 0.000000000000000D+00 -.000000000000000D+00 0.000000000000000D+00
 0.138364572047915D+04 0.000000000000000D+00 0.000000000000000D+00 0.138364572047915D+04
 0.963594930727369D+03 0.000000000000000D+00 0.000000000000000D+00 -.963594930727369D+03
 0.501514839525069D+03 0.209211745529627D+03 -.433618273959832D+03 0.640138444744469D+02
 0.468931752019141D+03 -.857981573588351D+02 0.189915562933790D+03 0.420080638926756D+03
 0.794103148335008D+03 -.505067482022898D+03 0.375711564819535D+03 -.484094483401203D+03
 0.582690911327306D+03 0.381653893852107D+03 -.132008853793493D+03 0.420050789751786D+03
0.215477209918D-03 0.000000000000D+00 0.000000000000D+00 0.112553164897D-05 0.000000000000D+00  6 2 -4 25 1 -3 21 2 0.20102911D+00 0.86847494D-01 0.37045893D+06 0.37045893D+06 0.37045893D+06 0.10778379D+01  1  2 14  2  6  2       -4 0.264501862562D-03 0.100000000000D+01
  </mgrwgt>
  </event>
  <event>
  5     66 0.18614916E-05 0.20694297E+03 0.75467711E-02 0.92442054E-01
        2 -1    0    0  502    0 0.00000000E+00 0.00000000E+00 0.24909284E+04 0.24909284E+04 0.32000000E+00 0.0000E+00 0.9000E+01
       -4 -1    0    0    0  501 0.00000000E+00 0.00000000E+00 -.43940200E+03 0.43940473E+03 0.15500000E+01 0.0000E+00 0.9000E+01
       25  1    1    2    0    0 0.51914652E+03 -.27120292E+03 0.39756046E+03 0.71884870E+03 0.12500000E+03 0.0000E+00 0.9000E+01
        1  1    1    2  502    0 -.31223758E+03 0.26899296E+03 0.18685063E+04 0.19134172E+04 0.32000000E+00 0.0000E+00 0.9000E+01
       -3  1    1    2    0  501 -.20690895E+03 0.22099598E+01 -.21454042E+03 0.29806717E+03 0.50000000E+00 0.0000E+00 0.9000E+01
#aMCatNLO 1  0  0  4  1 0.18775608D+02 0.00000000D+00  -5  6  0 0.00000000D+00 0.00000000D+00 0.00000000D+00 0.00000000D+00 0.00000000D+00
  <mgrwgt>
 0.5746808653D-04    1    2    0
 0.104619449697142D+04 0.000000000000000D+00 0.000000000000000D+00 0.104619449697142D+04
 0.104619449697142D+04 -.000000000000000D+00 -.000000000000000D+00 -.104619449697142D+04
 0.616917054817446D+03 0.519155674010175D+03 -.271194421325120D+03 -.147961564298993D+03
 0.847636663447503D+03 -.312224529002912D+03 0.268981718407582D+03 0.740710869281550D+03
 0.627835275677882D+03 -.206931145007263D+03 0.221270291753808D+01 -.592749304982557D+03
 0.000000000000000D+00 0.000000000000000D+00 0.000000000000000D+00 0.000000000000000D+00
 0.104619449697142D+04 0.000000000000000D+00 0.000000000000000D+00 0.104619449697142D+04
 0.104619449697142D+04 -.000000000000000D+00 -.000000000000000D+00 -.104619449697142D+04
 0.615341412256491D+03 0.518273576721565D+03 -.270434493701078D+03 -.145868906648028D+03
 0.400778611681330D+03 -.122604475344839D+03 0.793421581523543D+02 0.373224409901547D+03
 0.626125750284045D+03 -.207828777809617D+03 0.298601440093474D+01 -.590619791406381D+03
 0.450143219720964D+03 -.187840323567109D+03 0.188106321147789D+03 0.363264288152861D+03
0.112548792873D-03 0.000000000000D+00 0.000000000000D+00 0.315338234306D-05 0.000000000000D+00  6 2 -4 25 1 -3 21 2 0.38321996D+00 0.67600519D-01 0.37085937D+06 0.37085937D+06 0.37085937D+06 0.10778038D+01  1  2 14  3  6  4        1 0.574680865270D-04 0.100000000000D+01
  </mgrwgt>
  </event>
</LesHouchesEvents>
