<event>
 5    0  0.1856407E+000  0.3638544E+03  0.7546771E-02  0.1057068E+00
         21   -1    0    0  502  501  0.00000000000E+00  0.00000000000E+00  0.26083836044E+03  0.26083836044E+03  0.00000000000E+00 0.  1.
         21   -1    0    0  503  502 -0.00000000000E+00 -0.00000000000E+00 -0.73085880316E+03  0.73085880316E+03  0.00000000000E+00 0.  1.
         25    1    1    2    0    0  0.26983121199E+03 -0.20965717096E+03  0.42432389474E+02  0.36632024238E+03  0.12500000000E+03 0.  0.
         21    1    1    2  503  504 -0.57205392626E+02  0.34711661861E+02 -0.18956375793E+03  0.20102680103E+03  0.00000000000E+00 0.  1.
         21    1    1    2  504  501 -0.21262581937E+03  0.17494550910E+03 -0.32288907427E+03  0.42435012018E+03  0.00000000000E+00 0.  1.
<mgrwt>
<rscale>  4 0.36385438E+03</rscale>
<asrwt>0</asrwt>
<pdfrwt beam="1">  1       21 0.40128980E-01 0.36385438E+03</pdfrwt>
<pdfrwt beam="2">  1       21 0.11243981E+00 0.36385438E+03</pdfrwt>
<totfact> 0.33352714E+03</totfact>
</mgrwt>
</event>
<event>
 5    0  0.1856407E+000  0.2670267E+03  0.7546771E-02  0.1102993E+00
         21   -1    0    0  502  501  0.00000000000E+00  0.00000000000E+00  0.73797897372E+03  0.73797897372E+03  0.00000000000E+00 0. -1.
         21   -1    0    0  503  502 -0.00000000000E+00 -0.00000000000E+00 -0.22189478913E+03  0.22189478913E+03  0.00000000000E+00 0.  1.
         25    1    1    2    0    0 -0.22840630389E+03  0.59235462138E+02  0.63758511325E+03  0.69124384718E+03  0.12500000000E+03 0.  0.
         21    1    1    2  503  504  0.42188721145E+02 -0.13235185790E+02 -0.57308278933E+01  0.44585880311E+02  0.00000000000E+00 0.  1.
         21    1    1    2  504  501  0.18621758274E+03 -0.46000276348E+02 -0.11577010076E+03  0.22404403535E+03  0.00000000000E+00 0.  1.
<mgrwt>
<rscale>  4 0.26702674E+03</rscale>
<asrwt>0</asrwt>
<pdfrwt beam="1">  1       21 0.11353523E+00 0.26702674E+03</pdfrwt>
<pdfrwt beam="2">  1       21 0.34137660E-01 0.26702674E+03</pdfrwt>
<totfact> 0.47467414E+03</totfact>
</mgrwt>
</event>
<event>
 5    0  0.1856407E+000  0.2378378E+03  0.7546771E-02  0.1121242E+00
         21   -1    0    0  502  501  0.00000000000E+00  0.00000000000E+00  0.24827710278E+03  0.24827710278E+03  0.00000000000E+00 0. -1.
         21   -1    0    0  503  502 -0.00000000000E+00 -0.00000000000E+00 -0.54046487891E+03  0.54046487891E+03  0.00000000000E+00 0. -1.
         25    1    1    2    0    0 -0.12957536419E+03 -0.15540921960E+03  0.16213179213E+03  0.28784287130E+03  0.12500000000E+03 0.  0.
         21    1    1    2  503  504  0.64658323849E+02  0.77327203728E+02 -0.29715022223E+03  0.31378089465E+03  0.00000000000E+00 0. -1.
         21    1    1    2  504  501  0.64917040340E+02  0.78082015869E+02 -0.15716934603E+03  0.18711821573E+03  0.00000000000E+00 0.  1.
<mgrwt>
<rscale>  4 0.23783776E+03</rscale>
<asrwt>0</asrwt>
<pdfrwt beam="1">  1       21 0.38196477E-01 0.23783776E+03</pdfrwt>
<pdfrwt beam="2">  1       21 0.83148443E-01 0.23783776E+03</pdfrwt>
<totfact> 0.80799281E+03</totfact>
</mgrwt>
</event>
<event>
 5    0  0.1856407E+000  0.3703272E+03  0.7546771E-02  0.1054568E+00
         21   -1    0    0  502  501  0.00000000000E+00  0.00000000000E+00  0.88352762243E+03  0.88352762243E+03  0.00000000000E+00 0.  1.
         21   -1    0    0  503  502 -0.00000000000E+00 -0.00000000000E+00 -0.23968902314E+03  0.23968902314E+03  0.00000000000E+00 0.  1.
         25    1    1    2    0    0  0.28399603477E+03  0.20214725245E+03  0.66949619412E+03  0.76509307497E+03  0.12500000000E+03 0.  0.
         21    1    1    2  503  504 -0.17735213438E+03 -0.13746020447E+03 -0.52711494454E+02  0.23049422776E+03  0.00000000000E+00 0.  1.
         21    1    1    2  504  501 -0.10664390039E+03 -0.64687047982E+02  0.27053899627E+02  0.12762934283E+03  0.00000000000E+00 0.  1.
<mgrwt>
<rscale>  4 0.37032723E+03</rscale>
<asrwt>0</asrwt>
<pdfrwt beam="1">  1       21 0.13592733E+00 0.37032723E+03</pdfrwt>
<pdfrwt beam="2">  1       21 0.36875235E-01 0.37032723E+03</pdfrwt>
<totfact> 0.24388701E+03</totfact>
</mgrwt>
</event>
<event>
 5    0  0.1856407E+000  0.2536865E+03  0.7546771E-02  0.1110997E+00
         21   -1    0    0  502  501  0.00000000000E+00  0.00000000000E+00  0.26987222041E+03  0.26987222041E+03  0.00000000000E+00 0.  1.
         21   -1    0    0  503  502 -0.00000000000E+00 -0.00000000000E+00 -0.67062610869E+03  0.67062610869E+03  0.00000000000E+00 0.  1.
         25    1    1    2    0    0  0.14609093857E+03 -0.16549713507E+03  0.18383067863E+03  0.31328993353E+03  0.12500000000E+03 0.  0.
         21    1    1    2  503  504 -0.30074011733E+02  0.19618420362E+02 -0.15189129887E+03  0.15607785003E+03  0.00000000000E+00 0.  1.
         21    1    1    2  504  501 -0.11601692683E+03  0.14587871471E+03 -0.43269326805E+03  0.47113054553E+03  0.00000000000E+00 0.  1.
<mgrwt>
<rscale>  4 0.25368655E+03</rscale>
<asrwt>0</asrwt>
<pdfrwt beam="1">  1       21 0.41518804E-01 0.25368655E+03</pdfrwt>
<pdfrwt beam="2">  1       21 0.10317325E+00 0.25368655E+03</pdfrwt>
<totfact> 0.40702818E+03</totfact>
</mgrwt>
</event>
<event>
 5    0  0.1856407E+000  0.3014069E+03  0.7546771E-02  0.1084539E+00
         21   -1    0    0  502  501  0.00000000000E+00  0.00000000000E+00  0.28251225218E+03  0.28251225218E+03  0.00000000000E+00 0. -1.
         21   -1    0    0  503  502 -0.00000000000E+00 -0.00000000000E+00 -0.51885221417E+03  0.51885221417E+03  0.00000000000E+00 0. -1.
         25    1    1    2    0    0 -0.18704387732E+03  0.19633035079E+03 -0.13718291627E+03  0.32859575652E+03  0.12500000000E+03 0.  0.
         21    1    1    2  503  504 -0.10106072387E+03 -0.12827792132E+03 -0.60824399939E+02  0.17426446176E+03  0.00000000000E+00 0. -1.
         21    1    1    2  504  501  0.28810460119E+03 -0.68052429470E+02 -0.38332645773E+02  0.29850424807E+03  0.00000000000E+00 0. -1.
<mgrwt>
<rscale>  4 0.30140687E+03</rscale>
<asrwt>0</asrwt>
<pdfrwt beam="1">  1       21 0.43463424E-01 0.30140687E+03</pdfrwt>
<pdfrwt beam="2">  1       21 0.79823417E-01 0.30140687E+03</pdfrwt>
<totfact> 0.65846046E+03</totfact>
</mgrwt>
</event>
<event>
 5    0  0.1856407E+000  0.2804934E+03  0.7546771E-02  0.1095420E+00
         21   -1    0    0  502  501  0.00000000000E+00  0.00000000000E+00  0.96156402956E+02  0.96156402956E+02  0.00000000000E+00 0.  1.
         21   -1    0    0  503  502 -0.00000000000E+00 -0.00000000000E+00 -0.15366306606E+04  0.15366306606E+04  0.00000000000E+00 0.  1.
         25    1    1    2    0    0  0.25047109382E+03  0.17769665414E+02 -0.15821607335E+03  0.32203859352E+03  0.12500000000E+03 0.  0.
         21    1    1    2  503  504 -0.10929922156E+03  0.30375065924E+02 -0.72737233436E+03  0.73616538716E+03  0.00000000000E+00 0.  1.
         21    1    1    2  504  501 -0.14117187226E+03 -0.48144731339E+02 -0.55488584990E+03  0.57458308285E+03  0.00000000000E+00 0.  1.
<mgrwt>
<rscale>  4 0.28049337E+03</rscale>
<asrwt>0</asrwt>
<pdfrwt beam="1">  1       21 0.14793294E-01 0.28049337E+03</pdfrwt>
<pdfrwt beam="2">  1       21 0.23640470E+00 0.28049337E+03</pdfrwt>
<totfact> 0.29778694E+03</totfact>
</mgrwt>
</event>
<event>
 5    0  0.1856407E+000  0.3814498E+03  0.7546771E-02  0.1050399E+00
         21   -1    0    0  502  501  0.00000000000E+00  0.00000000000E+00  0.41947548473E+03  0.41947548473E+03  0.00000000000E+00 0. -1.
         21   -1    0    0  503  502 -0.00000000000E+00 -0.00000000000E+00 -0.62137295554E+03  0.62137295554E+03  0.00000000000E+00 0.  1.
         25    1    1    2    0    0  0.35958466724E+03  0.24038439848E+02  0.25382753747E+03  0.45818380404E+03  0.12500000000E+03 0.  0.
         21    1    1    2  503  504 -0.33669696315E+03 -0.32579685684E+02 -0.43117023817E+03  0.54802742194E+03  0.00000000000E+00 0.  1.
         21    1    1    2  504  501 -0.22887704091E+02  0.85412458355E+01 -0.24554770108E+02  0.34637214294E+02  0.00000000000E+00 0.  1.
<mgrwt>
<rscale>  4 0.38144984E+03</rscale>
<asrwt>0</asrwt>
<pdfrwt beam="1">  1       21 0.64534690E-01 0.38144984E+03</pdfrwt>
<pdfrwt beam="2">  1       21 0.95595839E-01 0.38144984E+03</pdfrwt>
<totfact> 0.17893029E+03</totfact>
</mgrwt>
</event>
<event>
 5    0  0.2684104E+000  0.2424276E+03  0.7546771E-02  0.1118186E+00
         21   -1    0    0  502  501  0.00000000000E+00  0.00000000000E+00  0.21006960281E+03  0.21006960281E+03  0.00000000000E+00 0. -1.
         21   -1    0    0  503  502 -0.00000000000E+00 -0.00000000000E+00 -0.46164115670E+03  0.46164115670E+03  0.00000000000E+00 0. -1.
         25    1    1    2    0    0 -0.23504807661E+03 -0.27117113833E+02  0.36945720802E+02  0.27013500785E+03  0.12500000000E+03 0.  0.
         21    1    1    2  503  504  0.16943618189E+03 -0.32982447961E+02 -0.11754928820E+03  0.20884036191E+03  0.00000000000E+00 0. -1.
         21    1    1    2  504  501  0.65611894720E+02  0.60099561795E+02 -0.17096798649E+03  0.19273538975E+03  0.00000000000E+00 0. -1.
<mgrwt>
<rscale>  4 0.24242756E+03</rscale>
<asrwt>0</asrwt>
<pdfrwt beam="1">  1       21 0.32318401E-01 0.24242756E+03</pdfrwt>
<pdfrwt beam="2">  1       21 0.71021715E-01 0.24242756E+03</pdfrwt>
<totfact> 0.16057723E+04</totfact>
</mgrwt>
</event>
