<event>
 5    0  0.2604468E+000  0.2525194E+03  0.7546771E-02  0.1111723E+00
         21   -1    0    0  502  501  0.00000000000E+00  0.00000000000E+00  0.16226688644E+03  0.16226688644E+03  0.00000000000E+00 0. -1.
         21   -1    0    0  503  502 -0.00000000000E+00 -0.00000000000E+00 -0.72751924192E+03  0.72751924192E+03  0.00000000000E+00 0. -1.
         25    1    1    2    0    0 -0.21679067656E+03  0.83678326531E+02  0.38804285420E+01  0.26389451964E+03  0.12500000000E+03 0.  0.
         21    1    1    2  503  504  0.32776848221E+02 -0.52145925306E+02 -0.23710953235E+03  0.24497846770E+03  0.00000000000E+00 0. -1.
         21    1    1    2  504  501  0.18401382833E+03 -0.31532401225E+02 -0.33202325167E+03  0.38091314101E+03  0.00000000000E+00 0. -1.
<mgrwt>
<rscale>  4 0.25251943E+03</rscale>
<asrwt>0</asrwt>
<pdfrwt beam="1">  1       21 0.24964136E-01 0.25251943E+03</pdfrwt>
<pdfrwt beam="2">  1       21 0.11192604E+00 0.25251943E+03</pdfrwt>
<totfact> 0.91467659E+03</totfact>
</mgrwt>
</event>
<event>
 5    0  0.2260033E+000  0.2222470E+03  0.7546771E-02  0.1132219E+00
         21   -1    0    0  502  501  0.00000000000E+00  0.00000000000E+00  0.85499099473E+03  0.85499099473E+03  0.00000000000E+00 0.  1.
         21   -1    0    0  503  502 -0.00000000000E+00 -0.00000000000E+00 -0.71863712650E+02  0.71863712650E+02  0.00000000000E+00 0.  1.
         25    1    1    2    0    0  0.19068432801E+03  0.90672644542E+02  0.28056079000E+03  0.37272160966E+03  0.12500000000E+03 0.  0.
         21    1    1    2  503  504 -0.14601405141E+03 -0.66681229572E+02  0.25416987604E+03  0.30061406400E+03  0.00000000000E+00 0.  1.
         21    1    1    2  504  501 -0.44670276598E+02 -0.23991414970E+02  0.24839661604E+03  0.25351903373E+03  0.00000000000E+00 0.  1.
<mgrwt>
<rscale>  4 0.22224700E+03</rscale>
<asrwt>0</asrwt>
<pdfrwt beam="1">  1       21 0.13153707E+00 0.22224700E+03</pdfrwt>
<pdfrwt beam="2">  1       21 0.11055956E-01 0.22224700E+03</pdfrwt>
<totfact> 0.28005213E+04</totfact>
</mgrwt>
</event>
<event>
 5    0  0.2159162E+000  0.3386572E+03  0.7546771E-02  0.1067369E+00
         21   -1    0    0  502  501  0.00000000000E+00  0.00000000000E+00  0.25811139194E+03  0.25811139194E+03  0.00000000000E+00 0.  1.
         21   -1    0    0  503  502 -0.00000000000E+00 -0.00000000000E+00 -0.96268058210E+03  0.96268058210E+03  0.00000000000E+00 0. -1.
         25    1    1    2    0    0 -0.24324253560E+03 -0.19974176701E+03  0.99008795611E+02  0.35283345394E+03  0.12500000000E+03 0.  0.
         21    1    1    2  503  504  0.13538427266E+02  0.54680605357E+02 -0.14323305813E+03  0.15391220405E+03  0.00000000000E+00 0. -1.
         21    1    1    2  504  501  0.22970410833E+03  0.14506116165E+03 -0.66034492764E+03  0.71404631605E+03  0.00000000000E+00 0. -1.
<mgrwt>
<rscale>  4 0.33865721E+03</rscale>
<asrwt>0</asrwt>
<pdfrwt beam="1">  1       21 0.39709445E-01 0.33865721E+03</pdfrwt>
<pdfrwt beam="2">  1       21 0.14810470E+00 0.33865721E+03</pdfrwt>
<totfact> 0.16978317E+03</totfact>
</mgrwt>
</event>
<event>
 5    0  0.2159162E+000  0.3300535E+03  0.7546771E-02  0.1071113E+00
         21   -1    0    0  502  501  0.00000000000E+00  0.00000000000E+00  0.12981447686E+04  0.12981447686E+04  0.00000000000E+00 0.  1.
         21   -1    0    0  503  502 -0.00000000000E+00 -0.00000000000E+00 -0.84300358710E+02  0.84300358710E+02  0.00000000000E+00 0.  1.
         25    1    1    2    0    0 -0.18603360612E+03 -0.24228452078E+03  0.47677005469E+03  0.57986634379E+03  0.12500000000E+03 0.  0.
         21    1    1    2  503  504  0.43911601747E+02  0.99321579456E+02  0.18082441634E+03  0.21092765219E+03  0.00000000000E+00 0.  1.
         21    1    1    2  504  501  0.14212200438E+03  0.14296294132E+03  0.55624993887E+03  0.59165113133E+03  0.00000000000E+00 0.  1.
<mgrwt>
<rscale>  4 0.33005347E+03</rscale>
<asrwt>0</asrwt>
<pdfrwt beam="1">  1       21 0.19971456E+00 0.33005347E+03</pdfrwt>
<pdfrwt beam="2">  1       21 0.12969287E-01 0.33005347E+03</pdfrwt>
<totfact> 0.62634135E+03</totfact>
</mgrwt>
</event>
<event>
 5    0  0.2159162E+000  0.2536298E+03  0.7546771E-02  0.1111032E+00
         21   -1    0    0  502  501  0.00000000000E+00  0.00000000000E+00  0.33629659486E+03  0.33629659486E+03  0.00000000000E+00 0.  1.
         21   -1    0    0  503  502 -0.00000000000E+00 -0.00000000000E+00 -0.33302510940E+03  0.33302510940E+03  0.00000000000E+00 0.  1.
         25    1    1    2    0    0 -0.74615111038E+01 -0.22254996443E+03 -0.14468686898E+03  0.29350204577E+03  0.12500000000E+03 0.  0.
         21    1    1    2  503  504 -0.10890330249E+03  0.18433767211E+02  0.44035621178E+02  0.11890697624E+03  0.00000000000E+00 0.  1.
         21    1    1    2  504  501  0.11636481360E+03  0.20411619722E+03  0.10392273327E+03  0.25691268225E+03  0.00000000000E+00 0.  1.
<mgrwt>
<rscale>  4 0.25362981E+03</rscale>
<asrwt>0</asrwt>
<pdfrwt beam="1">  1       21 0.51737937E-01 0.25362981E+03</pdfrwt>
<pdfrwt beam="2">  1       21 0.51234632E-01 0.25362981E+03</pdfrwt>
<totfact> 0.12390165E+04</totfact>
</mgrwt>
</event>
<event>
 5    0  0.2159162E+000  0.3031738E+03  0.7546771E-02  0.1083665E+00
         21   -1    0    0  502  501  0.00000000000E+00  0.00000000000E+00  0.11433320483E+04  0.11433320483E+04  0.00000000000E+00 0.  1.
         21   -1    0    0  503  502 -0.00000000000E+00 -0.00000000000E+00 -0.10599124801E+03  0.10599124801E+03  0.00000000000E+00 0.  1.
         25    1    1    2    0    0 -0.28798869382E+03  0.55417884454E+02  0.47714864284E+03  0.57385055289E+03  0.12500000000E+03 0.  0.
         21    1    1    2  503  504  0.20003275920E+02 -0.73459046579E+02  0.31357046090E+02  0.82338489854E+02  0.00000000000E+00 0.  1.
         21    1    1    2  504  501  0.26798541790E+03  0.18041162125E+02  0.52883511135E+03  0.59313425355E+03  0.00000000000E+00 0.  1.
<mgrwt>
<rscale>  4 0.30317377E+03</rscale>
<asrwt>0</asrwt>
<pdfrwt beam="1">  1       21 0.17589723E+00 0.30317377E+03</pdfrwt>
<pdfrwt beam="2">  1       21 0.16306347E-01 0.30317377E+03</pdfrwt>
<totfact> 0.60571534E+03</totfact>
</mgrwt>
</event>
<event>
 5    0  0.2159162E+000  0.3040264E+03  0.7546771E-02  0.1083245E+00
         21   -1    0    0  502  501  0.00000000000E+00  0.00000000000E+00  0.12665008186E+04  0.12665008186E+04  0.00000000000E+00 0.  1.
         21   -1    0    0  503  502 -0.00000000000E+00 -0.00000000000E+00 -0.38624205175E+03  0.38624205175E+03  0.00000000000E+00 0. -1.
         25    1    1    2    0    0 -0.27674385464E+03  0.22971820309E+02  0.11647605020E+04  0.12039131583E+04  0.12500000000E+03 0.  0.
         21    1    1    2  503  504  0.26272367949E+03 -0.62645553311E+02 -0.30029282279E+03  0.40388609352E+03  0.00000000000E+00 0. -1.
         21    1    1    2  504  501  0.14020175144E+02  0.39673733002E+02  0.15791087643E+02  0.44943618572E+02  0.00000000000E+00 0. -1.
<mgrwt>
<rscale>  4 0.30402640E+03</rscale>
<asrwt>0</asrwt>
<pdfrwt beam="1">  1       21 0.19484628E+00 0.30402640E+03</pdfrwt>
<pdfrwt beam="2">  1       21 0.59421854E-01 0.30402640E+03</pdfrwt>
<totfact> 0.34344869E+02</totfact>
</mgrwt>
</event>
<event>
 5    0  0.2159162E+000  0.3027066E+03  0.7546771E-02  0.1083895E+00
         21   -1    0    0  502  501  0.00000000000E+00  0.00000000000E+00  0.59563061810E+03  0.59563061810E+03  0.00000000000E+00 0. -1.
         21   -1    0    0  503  502 -0.00000000000E+00 -0.00000000000E+00 -0.23474239513E+03  0.23474239513E+03  0.00000000000E+00 0. -1.
         25    1    1    2    0    0 -0.16573148532E+03 -0.22031644807E+03  0.43913169645E+03  0.53335533122E+03  0.12500000000E+03 0.  0.
         21    1    1    2  503  504  0.53660833030E+02  0.12136004195E+03 -0.62524964655E+02  0.14668713641E+03  0.00000000000E+00 0. -1.
         21    1    1    2  504  501  0.11207065229E+03  0.98956406123E+02 -0.15718508819E+02  0.15033054559E+03  0.00000000000E+00 0. -1.
<mgrwt>
<rscale>  4 0.30270656E+03</rscale>
<asrwt>0</asrwt>
<pdfrwt beam="1">  1       21 0.91635479E-01 0.30270656E+03</pdfrwt>
<pdfrwt beam="2">  1       21 0.36114215E-01 0.30270656E+03</pdfrwt>
<totfact> 0.69715138E+03</totfact>
</mgrwt>
</event>
<event>
 5    0  0.2159162E+000  0.2606380E+03  0.7546771E-02  0.1106761E+00
         21   -1    0    0  502  501  0.00000000000E+00  0.00000000000E+00  0.39339122677E+03  0.39339122677E+03  0.00000000000E+00 0. -1.
         21   -1    0    0  503  502 -0.00000000000E+00 -0.00000000000E+00 -0.90537603926E+03  0.90537603926E+03  0.00000000000E+00 0. -1.
         25    1    1    2    0    0  0.74309790261E+02  0.21629892998E+03  0.33012007572E+03  0.42060841222E+03  0.12500000000E+03 0.  0.
         21    1    1    2  503  504  0.57246261364E+01 -0.77229290279E+02 -0.16452247443E+03  0.18183723275E+03  0.00000000000E+00 0. -1.
         21    1    1    2  504  501 -0.80034416397E+02 -0.13906963970E+03 -0.67758241379E+03  0.69632162107E+03  0.00000000000E+00 0. -1.
<mgrwt>
<rscale>  4 0.26063801E+03</rscale>
<asrwt>0</asrwt>
<pdfrwt beam="1">  1       21 0.60521727E-01 0.26063801E+03</pdfrwt>
<pdfrwt beam="2">  1       21 0.13928862E+00 0.26063801E+03</pdfrwt>
<totfact> 0.86646873E+02</totfact>
</mgrwt>
</event>
<event>
 5    0  0.2159162E+000  0.3770545E+03  0.7546771E-02  0.1052028E+00
         21   -1    0    0  502  501  0.00000000000E+00  0.00000000000E+00  0.10757685854E+04  0.10757685854E+04  0.00000000000E+00 0.  1.
         21   -1    0    0  503  502 -0.00000000000E+00 -0.00000000000E+00 -0.22670994040E+03  0.22670994040E+03  0.00000000000E+00 0.  1.
         25    1    1    2    0    0  0.36959454066E+03  0.54865972905E+02  0.48571349600E+03  0.62542225709E+03  0.12500000000E+03 0.  0.
         21    1    1    2  503  504 -0.31698438837E+03 -0.13896521546E+03  0.43411571480E+03  0.55519986258E+03  0.00000000000E+00 0.  1.
         21    1    1    2  504  501 -0.52610152293E+02  0.84099242552E+02 -0.70770565823E+02  0.12185640611E+03  0.00000000000E+00 0.  1.
<mgrwt>
<rscale>  4 0.37705452E+03</rscale>
<asrwt>0</asrwt>
<pdfrwt beam="1">  1       21 0.16550286E+00 0.37705452E+03</pdfrwt>
<pdfrwt beam="2">  1       21 0.34878453E-01 0.37705452E+03</pdfrwt>
<totfact> 0.15974071E+03</totfact>
</mgrwt>
</event>
<event>
 5    0  0.2159162E+000  0.5531166E+03  0.7546771E-02  0.1000775E+00
         21   -1    0    0  502  501  0.00000000000E+00  0.00000000000E+00  0.19006141984E+04  0.19006141984E+04  0.00000000000E+00 0.  1.
         21   -1    0    0  503  502 -0.00000000000E+00 -0.00000000000E+00 -0.84721493561E+03  0.84721493561E+03  0.00000000000E+00 0. -1.
         25    1    1    2    0    0  0.35413538701E+03 -0.40299825898E+03  0.16842840300E+04  0.17720770759E+04  0.12500000000E+03 0.  0.
         21    1    1    2  503  504 -0.32498767996E+03  0.48562295117E+03 -0.66179217810E+03  0.88284513354E+03  0.00000000000E+00 0. -1.
         21    1    1    2  504  501 -0.29147707041E+02 -0.82624692191E+02  0.30907410837E+02  0.92906924554E+02  0.00000000000E+00 0. -1.
<mgrwt>
<rscale>  4 0.55311656E+03</rscale>
<asrwt>0</asrwt>
<pdfrwt beam="1">  1       21 0.29240218E+00 0.55311656E+03</pdfrwt>
<pdfrwt beam="2">  1       21 0.13034076E+00 0.55311656E+03</pdfrwt>
<totfact> 0.11162207E+01</totfact>
</mgrwt>
</event>
