<event>
 5    0  0.1283376E+001  0.4225191E+03  0.7546771E-02  0.1036250E+00
         21   -1    0    0  503  501  0.00000000000E+00  0.00000000000E+00  0.19731185469E+03  0.19731185469E+03  0.00000000000E+00 0.  1.
         21   -1    0    0  504  502 -0.00000000000E+00 -0.00000000000E+00 -0.15734275666E+04  0.15734275666E+04  0.00000000000E+00 0.  1.
         25    1    1    2    0    0 -0.21466527534E+03  0.14452357532E+03 -0.11831628239E+03  0.31079251429E+03  0.12500000000E+03 0.  0.
         21    1    1    2  503  502 -0.19608352622E+03  0.11465592702E+03 -0.23044628507E+03  0.32357413549E+03  0.00000000000E+00 0.  1.
         21    1    1    2  504  501  0.41074880156E+03 -0.25917950234E+03 -0.10273531445E+04  0.11363727715E+04  0.00000000000E+00 0.  1.
<mgrwt>
<rscale>  4 0.42251907E+03</rscale>
<asrwt>0</asrwt>
<pdfrwt beam="1">  1       21 0.30355670E-01 0.42251907E+03</pdfrwt>
<pdfrwt beam="2">  1       21 0.24206578E+00 0.42251907E+03</pdfrwt>
<totfact> 0.63888037E+02</totfact>
</mgrwt>
</event>
<event>
 5    0  0.1283376E+001  0.2485101E+03  0.7546771E-02  0.1114250E+00
         21   -1    0    0  503  501  0.00000000000E+00  0.00000000000E+00  0.56739215236E+03  0.56739215236E+03  0.00000000000E+00 0. -1.
         21   -1    0    0  504  502 -0.00000000000E+00 -0.00000000000E+00 -0.19203875692E+03  0.19203875692E+03  0.00000000000E+00 0. -1.
         25    1    1    2    0    0  0.56513871521E+02 -0.21349080576E+03  0.43603374994E+03  0.50450230218E+03  0.12500000000E+03 0.  0.
         21    1    1    2  503  502  0.32379470393E+02  0.37740917725E+02 -0.21204182675E+02  0.54059451871E+02  0.00000000000E+00 0.  1.
         21    1    1    2  504  501 -0.88893341914E+02  0.17574988804E+03 -0.39476171816E+02  0.20086915523E+03  0.00000000000E+00 0. -1.
<mgrwt>
<rscale>  4 0.24851009E+03</rscale>
<asrwt>0</asrwt>
<pdfrwt beam="1">  1       21 0.87291100E-01 0.24851009E+03</pdfrwt>
<pdfrwt beam="2">  1       21 0.29544424E-01 0.24851009E+03</pdfrwt>
<totfact> 0.11959576E+04</totfact>
</mgrwt>
</event>
<event>
 5    0  0.1283376E+001  0.3304278E+03  0.7546771E-02  0.1070948E+00
         21   -1    0    0  503  501  0.00000000000E+00  0.00000000000E+00  0.29056629921E+03  0.29056629921E+03  0.00000000000E+00 0.  1.
         21   -1    0    0  504  502 -0.00000000000E+00 -0.00000000000E+00 -0.13629979893E+04  0.13629979893E+04  0.00000000000E+00 0.  1.
         25    1    1    2    0    0 -0.23182406059E+03  0.20284658684E+03  0.16576347317E+03  0.37147228954E+03  0.12500000000E+03 0.  0.
         21    1    1    2  503  502  0.33035308887E+02  0.30628359893E+01 -0.28303509205E+03  0.28497293895E+03  0.00000000000E+00 0.  1.
         21    1    1    2  504  501  0.19878875170E+03 -0.20590942283E+03 -0.95516007123E+03  0.99711906004E+03  0.00000000000E+00 0.  1.
<mgrwt>
<rscale>  4 0.33042779E+03</rscale>
<asrwt>0</asrwt>
<pdfrwt beam="1">  1       21 0.44702508E-01 0.33042779E+03</pdfrwt>
<pdfrwt beam="2">  1       21 0.20969200E+00 0.33042779E+03</pdfrwt>
<totfact> 0.49261073E+02</totfact>
</mgrwt>
</event>
<event>
 5    0  0.1283376E+001  0.3012644E+03  0.7546771E-02  0.1084610E+00
         21   -1    0    0  503  501  0.00000000000E+00  0.00000000000E+00  0.35702066381E+03  0.35702066381E+03  0.00000000000E+00 0.  1.
         21   -1    0    0  504  502 -0.00000000000E+00 -0.00000000000E+00 -0.33780329627E+03  0.33780329627E+03  0.00000000000E+00 0.  1.
         25    1    1    2    0    0 -0.12618079488E+03  0.19580530872E+03  0.24996347356E+02  0.26553931781E+03  0.12500000000E+03 0.  0.
         21    1    1    2  503  502  0.18057714045E+03 -0.26594188727E+03  0.48725773595E+02  0.32512673232E+03  0.00000000000E+00 0.  1.
         21    1    1    2  504  501 -0.54396345563E+02  0.70136578545E+02 -0.54504753414E+02  0.10415790995E+03  0.00000000000E+00 0.  1.
<mgrwt>
<rscale>  4 0.30126443E+03</rscale>
<asrwt>0</asrwt>
<pdfrwt beam="1">  1       21 0.54926256E-01 0.30126443E+03</pdfrwt>
<pdfrwt beam="2">  1       21 0.51969738E-01 0.30126443E+03</pdfrwt>
<totfact> 0.10348561E+04</totfact>
</mgrwt>
</event>
<event>
 5    0  0.1283376E+001  0.2343128E+03  0.7546771E-02  0.1123640E+00
         21   -1    0    0  504  501  0.00000000000E+00  0.00000000000E+00  0.41433591498E+03  0.41433591498E+03  0.00000000000E+00 0. -1.
         21   -1    0    0  501  502 -0.00000000000E+00 -0.00000000000E+00 -0.16139834516E+03  0.16139834516E+03  0.00000000000E+00 0.  1.
         25    1    1    2    0    0 -0.18593075312E+03 -0.94505600619E+02  0.23565476494E+03  0.33861441455E+03  0.12500000000E+03 0.  0.
         21    1    1    2  503  502  0.15544415622E+02  0.23810457336E+02 -0.35274568796E+02  0.45308519500E+02  0.00000000000E+00 0. -1.
         21    1    1    2  504  503  0.17038633750E+03  0.70695143284E+02  0.52557373675E+02  0.19181132609E+03  0.00000000000E+00 0.  1.
<mgrwt>
<rscale>  4 0.23431284E+03</rscale>
<asrwt>0</asrwt>
<pdfrwt beam="1">  1       21 0.63743987E-01 0.23431284E+03</pdfrwt>
<pdfrwt beam="2">  1       21 0.24830515E-01 0.23431284E+03</pdfrwt>
<totfact> 0.34163239E+04</totfact>
</mgrwt>
</event>
<event>
 5    0  0.1283376E+001  0.2729282E+03  0.7546771E-02  0.1099615E+00
         21   -1    0    0  504  501  0.00000000000E+00  0.00000000000E+00  0.99468653656E+03  0.99468653656E+03  0.00000000000E+00 0. -1.
         21   -1    0    0  501  502 -0.00000000000E+00 -0.00000000000E+00 -0.42322108857E+03  0.42322108857E+03  0.00000000000E+00 0.  1.
         25    1    1    2    0    0  0.32364734684E+03 -0.13608106497E+03  0.70287891307E+03  0.79556861916E+03  0.12500000000E+03 0.  0.
         21    1    1    2  503  502 -0.12490652557E+03  0.65884148921E+01  0.18718822478E+03  0.22513213639E+03  0.00000000000E+00 0. -1.
         21    1    1    2  504  503 -0.19874082126E+03  0.12949265008E+03 -0.31860168986E+03  0.39720686958E+03  0.00000000000E+00 0.  1.
<mgrwt>
<rscale>  4 0.27292817E+03</rscale>
<asrwt>0</asrwt>
<pdfrwt beam="1">  1       21 0.15302870E+00 0.27292817E+03</pdfrwt>
<pdfrwt beam="2">  1       21 0.65110937E-01 0.27292817E+03</pdfrwt>
<totfact> 0.57037846E+02</totfact>
</mgrwt>
</event>
<event>
 5    0  0.1283376E+001  0.2384380E+03  0.7546771E-02  0.1120838E+00
         21   -1    0    0  504  501  0.00000000000E+00  0.00000000000E+00  0.36654284260E+03  0.36654284260E+03  0.00000000000E+00 0.  1.
         21   -1    0    0  501  502 -0.00000000000E+00 -0.00000000000E+00 -0.45418674549E+03  0.45418674549E+03  0.00000000000E+00 0.  1.
         25    1    1    2    0    0 -0.18340757081E+03 -0.14478299799E+03  0.17566287238E+03  0.31793536807E+03  0.12500000000E+03 0.  0.
         21    1    1    2  503  502  0.52690484151E+02  0.28397941368E+02 -0.31473297782E+03  0.32037412118E+03  0.00000000000E+00 0.  1.
         21    1    1    2  504  503  0.13071708666E+03  0.11638505662E+03  0.51426202551E+02  0.18242009884E+03  0.00000000000E+00 0.  1.
<mgrwt>
<rscale>  4 0.23843798E+03</rscale>
<asrwt>0</asrwt>
<pdfrwt beam="1">  1       21 0.56391207E-01 0.23843798E+03</pdfrwt>
<pdfrwt beam="2">  1       21 0.69874884E-01 0.23843798E+03</pdfrwt>
<totfact> 0.53260836E+03</totfact>
</mgrwt>
</event>
<event>
 5    0  0.1283376E+001  0.2931862E+03  0.7546771E-02  0.1088697E+00
         21   -1    0    0  504  501  0.00000000000E+00  0.00000000000E+00  0.16703885972E+03  0.16703885972E+03  0.00000000000E+00 0.  1.
         21   -1    0    0  503  502 -0.00000000000E+00 -0.00000000000E+00 -0.26978141113E+04  0.26978141113E+04  0.00000000000E+00 0.  1.
         25    1    1    2    0    0  0.22838345556E+03 -0.12773772556E+03 -0.56813363047E+00  0.29000215875E+03  0.12500000000E+03 0.  0.
         21    1    1    2  503  501 -0.28132844809E+03  0.88528814865E+02 -0.98418348943E+03  0.10274240544E+04  0.00000000000E+00 0.  1.
         21    1    1    2  504  502  0.52944992528E+02  0.39208910691E+02 -0.15460236285E+04  0.15474267578E+04  0.00000000000E+00 0.  1.
<mgrwt>
<rscale>  4 0.29318615E+03</rscale>
<asrwt>0</asrwt>
<pdfrwt beam="1">  1       21 0.25698286E-01 0.29318615E+03</pdfrwt>
<pdfrwt beam="2">  1       21 0.41504832E+00 0.29318615E+03</pdfrwt>
<totfact> 0.86854254E+01</totfact>
</mgrwt>
</event>
<event>
 5    0  0.1283376E+001  0.2987496E+03  0.7546771E-02  0.1085867E+00
         21   -1    0    0  503  501  0.00000000000E+00  0.00000000000E+00  0.38766509209E+03  0.38766509209E+03  0.00000000000E+00 0. -1.
         21   -1    0    0  504  502 -0.00000000000E+00 -0.00000000000E+00 -0.30995794993E+03  0.30995794993E+03  0.00000000000E+00 0. -1.
         25    1    1    2    0    0  0.24422307310E+03 -0.16925487239E+03  0.15843609976E+02  0.32275089658E+03  0.12500000000E+03 0.  0.
         21    1    1    2  503  502 -0.19069088658E+03  0.17492316386E+03  0.12873783844E+03  0.28902345671E+03  0.00000000000E+00 0. -1.
         21    1    1    2  504  501 -0.53532186516E+02 -0.56682914666E+01 -0.66874306257E+02  0.85848688742E+02  0.00000000000E+00 0. -1.
<mgrwt>
<rscale>  4 0.29874958E+03</rscale>
<asrwt>0</asrwt>
<pdfrwt beam="1">  1       21 0.59640783E-01 0.29874958E+03</pdfrwt>
<pdfrwt beam="2">  1       21 0.47685839E-01 0.29874958E+03</pdfrwt>
<totfact> 0.10400452E+04</totfact>
</mgrwt>
</event>
<event>
 5    0  0.1283376E+001  0.1842031E+03  0.7546771E-02  0.1163796E+00
         21   -1    0    0  504  501  0.00000000000E+00  0.00000000000E+00  0.28587153288E+03  0.28587153288E+03  0.00000000000E+00 0. -1.
         21   -1    0    0  501  502 -0.00000000000E+00 -0.00000000000E+00 -0.58140596771E+03  0.58140596771E+03  0.00000000000E+00 0.  1.
         25    1    1    2    0    0  0.71707402589E+02 -0.22784610134E+03  0.87824695751E+02  0.28353831252E+03  0.12500000000E+03 0.  0.
         21    1    1    2  503  502 -0.32970863829E+01  0.13035937301E+03 -0.43485621185E+03  0.45398718253E+03  0.00000000000E+00 0.  1.
         21    1    1    2  504  503 -0.68410316206E+02  0.97486728328E+02  0.51497081277E+02  0.12975200555E+03  0.00000000000E+00 0. -1.
<mgrwt>
<rscale>  4 0.18420311E+03</rscale>
<asrwt>0</asrwt>
<pdfrwt beam="1">  1       21 0.43980236E-01 0.18420311E+03</pdfrwt>
<pdfrwt beam="2">  1       21 0.89447071E-01 0.18420311E+03</pdfrwt>
<totfact> 0.53280266E+03</totfact>
</mgrwt>
</event>
<event>
 5    0  0.1283376E+001  0.2872623E+03  0.7546771E-02  0.1091787E+00
         21   -1    0    0  504  501  0.00000000000E+00  0.00000000000E+00  0.14111251122E+04  0.14111251122E+04  0.00000000000E+00 0.  1.
         21   -1    0    0  501  502 -0.00000000000E+00 -0.00000000000E+00 -0.15234102300E+03  0.15234102300E+03  0.00000000000E+00 0.  1.
         25    1    1    2    0    0  0.27229730849E+02  0.25436119734E+03  0.11971831168E+04  0.12305744561E+04  0.12500000000E+03 0.  0.
         21    1    1    2  503  502 -0.37835027077E+02 -0.27263542249E+03  0.96854325931E+02  0.29179157514E+03  0.00000000000E+00 0.  1.
         21    1    1    2  504  503  0.10605296228E+02  0.18274225152E+02 -0.35253353498E+02  0.41100103964E+02  0.00000000000E+00 0.  1.
<mgrwt>
<rscale>  4 0.28726231E+03</rscale>
<asrwt>0</asrwt>
<pdfrwt beam="1">  1       21 0.21709616E+00 0.28726231E+03</pdfrwt>
<pdfrwt beam="2">  1       21 0.23437081E-01 0.28726231E+03</pdfrwt>
<totfact> 0.16484359E+03</totfact>
</mgrwt>
</event>
<event>
 5    0  0.1283376E+001  0.2758870E+03  0.7546771E-02  0.1097957E+00
         21   -1    0    0  503  501  0.00000000000E+00  0.00000000000E+00  0.72219164314E+03  0.72219164314E+03  0.00000000000E+00 0. -1.
         21   -1    0    0  504  502 -0.00000000000E+00 -0.00000000000E+00 -0.12005080929E+03  0.12005080929E+03  0.00000000000E+00 0. -1.
         25    1    1    2    0    0  0.12458895919E+03  0.21205242688E+03  0.49232206356E+03  0.56435330669E+03  0.12500000000E+03 0.  0.
         21    1    1    2  503  502 -0.10441301040E+02 -0.46708942592E+02 -0.20895810923E+01  0.47907331742E+02  0.00000000000E+00 0. -1.
         21    1    1    2  504  501 -0.11414765815E+03 -0.16534348429E+03  0.11190835138E+03  0.22998181400E+03  0.00000000000E+00 0. -1.
<mgrwt>
<rscale>  4 0.27588701E+03</rscale>
<asrwt>0</asrwt>
<pdfrwt beam="1">  1       21 0.11110640E+00 0.27588701E+03</pdfrwt>
<pdfrwt beam="2">  1       21 0.18469356E-01 0.27588701E+03</pdfrwt>
<totfact> 0.16283368E+04</totfact>
</mgrwt>
</event>
<event>
 5    0  0.1283376E+001  0.2518243E+03  0.7546771E-02  0.1112157E+00
         21   -1    0    0  504  501  0.00000000000E+00  0.00000000000E+00  0.20699984524E+03  0.20699984524E+03  0.00000000000E+00 0. -1.
         21   -1    0    0  501  502 -0.00000000000E+00 -0.00000000000E+00 -0.81078402225E+03  0.81078402225E+03  0.00000000000E+00 0. -1.
         25    1    1    2    0    0  0.20810904368E+03  0.18181085310E+03 -0.43183766777E+01  0.30332854917E+03  0.12500000000E+03 0.  0.
         21    1    1    2  503  502 -0.80693102046E+02 -0.19822158635E+03 -0.52265499465E+03  0.56477554608E+03  0.00000000000E+00 0. -1.
         21    1    1    2  504  503 -0.12741594163E+03  0.16410733253E+02 -0.76810805680E+02  0.14967977224E+03  0.00000000000E+00 0. -1.
<mgrwt>
<rscale>  4 0.25182432E+03</rscale>
<asrwt>0</asrwt>
<pdfrwt beam="1">  1       21 0.31846130E-01 0.25182432E+03</pdfrwt>
<pdfrwt beam="2">  1       21 0.12473600E+00 0.25182432E+03</pdfrwt>
<totfact> 0.43513467E+03</totfact>
</mgrwt>
</event>
<event>
 5    0  0.1283376E+001  0.2656593E+03  0.7546771E-02  0.1103790E+00
         21   -1    0    0  502  501  0.00000000000E+00  0.00000000000E+00  0.14009488526E+04  0.14009488526E+04  0.00000000000E+00 0.  1.
         21   -1    0    0  503  502 -0.00000000000E+00 -0.00000000000E+00 -0.16024781253E+03  0.16024781253E+03  0.00000000000E+00 0. -1.
         25    1    1    2    0    0 -0.45487337939E+02  0.25108725902E+03  0.12425213893E+04  0.12745973138E+04  0.12500000000E+03 0.  0.
         21    1    1    2  503  504  0.43867113778E+00 -0.16186397790E+03  0.55819972213E+02  0.17121918430E+03  0.00000000000E+00 0. -1.
         21    1    1    2  504  501  0.45048666801E+02 -0.89223281118E+02 -0.57640321466E+02  0.11538016698E+03  0.00000000000E+00 0. -1.
<mgrwt>
<rscale>  4 0.26565932E+03</rscale>
<asrwt>0</asrwt>
<pdfrwt beam="1">  1       21 0.21553059E+00 0.26565932E+03</pdfrwt>
<pdfrwt beam="2">  1       21 0.24653510E-01 0.26565932E+03</pdfrwt>
<totfact> 0.15560890E+03</totfact>
</mgrwt>
</event>
<event>
 5    0  0.1283376E+001  0.2703202E+03  0.7546771E-02  0.1101096E+00
         21   -1    0    0  504  501  0.00000000000E+00  0.00000000000E+00  0.12136436850E+03  0.12136436850E+03  0.00000000000E+00 0.  1.
         21   -1    0    0  501  502 -0.00000000000E+00 -0.00000000000E+00 -0.92101623223E+03  0.92101623223E+03  0.00000000000E+00 0.  1.
         25    1    1    2    0    0 -0.21213554174E+03 -0.10117332394E+03 -0.15902888415E+03  0.31008501341E+03  0.12500000000E+03 0.  0.
         21    1    1    2  503  502 -0.32526789577E+02  0.46682281952E+02 -0.32153167984E+03  0.32652694932E+03  0.00000000000E+00 0.  1.
         21    1    1    2  504  503  0.24466233131E+03  0.54491041984E+02 -0.31909129974E+03  0.40576863801E+03  0.00000000000E+00 0.  1.
<mgrwt>
<rscale>  4 0.27032023E+03</rscale>
<asrwt>0</asrwt>
<pdfrwt beam="1">  1       21 0.18671442E-01 0.27032023E+03</pdfrwt>
<pdfrwt beam="2">  1       21 0.14169480E+00 0.27032023E+03</pdfrwt>
<totfact> 0.86447672E+03</totfact>
</mgrwt>
</event>
<event>
 5    0  0.1283376E+001  0.7588205E+03  0.7546771E-02  0.9621613E-01
         21   -1    0    0  503  501  0.00000000000E+00  0.00000000000E+00  0.50482534529E+03  0.50482534529E+03  0.00000000000E+00 0.  1.
         21   -1    0    0  504  502 -0.00000000000E+00 -0.00000000000E+00 -0.22752542745E+04  0.22752542745E+04  0.00000000000E+00 0. -1.
         25    1    1    2    0    0  0.58478488178E+03  0.46303515341E+03  0.89227444934E+02  0.76155199966E+03  0.12500000000E+03 0.  0.
         21    1    1    2  503  502  0.50681752015E+01  0.20842610344E+02 -0.39607106051E+02  0.45042465025E+02  0.00000000000E+00 0. -1.
         21    1    1    2  504  501 -0.58985305699E+03 -0.48387776376E+03 -0.18200492681E+04  0.19734851551E+04  0.00000000000E+00 0. -1.
<mgrwt>
<rscale>  4 0.75882050E+03</rscale>
<asrwt>0</asrwt>
<pdfrwt beam="1">  1       21 0.77665436E-01 0.75882050E+03</pdfrwt>
<pdfrwt beam="2">  1       21 0.35003913E+00 0.75882050E+03</pdfrwt>
<totfact> 0.15901244E+01</totfact>
</mgrwt>
</event>
<event>
 5    0  0.1283376E+001  0.5513652E+03  0.7546771E-02  0.1001178E+00
         21   -1    0    0  503  501  0.00000000000E+00  0.00000000000E+00  0.95182966149E+03  0.95182966149E+03  0.00000000000E+00 0.  1.
         21   -1    0    0  504  502 -0.00000000000E+00 -0.00000000000E+00 -0.40855489619E+03  0.40855489619E+03  0.00000000000E+00 0.  1.
         25    1    1    2    0    0  0.48448028409E+03 -0.94522435915E+02  0.33057139801E+03  0.60708984981E+03  0.12500000000E+03 0.  0.
         21    1    1    2  503  502 -0.59707281958E+03  0.94012642592E+02  0.21251651066E+03  0.64070086323E+03  0.00000000000E+00 0.  1.
         21    1    1    2  504  501  0.11259253548E+03  0.50979332347E+00  0.18685663566E+00  0.11259384464E+03  0.00000000000E+00 0.  1.
<mgrwt>
<rscale>  4 0.55136524E+03</rscale>
<asrwt>0</asrwt>
<pdfrwt beam="1">  1       21 0.14643533E+00 0.55136524E+03</pdfrwt>
<pdfrwt beam="2">  1       21 0.62854600E-01 0.55136524E+03</pdfrwt>
<totfact> 0.59980341E+02</totfact>
</mgrwt>
</event>
<event>
 5    0  0.1283376E+001  0.2486826E+03  0.7546771E-02  0.1114140E+00
         21   -1    0    0  503  501  0.00000000000E+00  0.00000000000E+00  0.17079433891E+03  0.17079433891E+03  0.00000000000E+00 0. -1.
         21   -1    0    0  504  502 -0.00000000000E+00 -0.00000000000E+00 -0.97349035664E+03  0.97349035664E+03  0.00000000000E+00 0. -1.
         25    1    1    2    0    0 -0.17869750275E+03  0.12778647878E+03  0.37355652016E+02  0.25550465042E+03  0.12500000000E+03 0.  0.
         21    1    1    2  503  502  0.73459917880E+02  0.46262112457E+02 -0.25831570499E+03  0.27251338688E+03  0.00000000000E+00 0. -1.
         21    1    1    2  504  501  0.10523758487E+03 -0.17404859123E+03 -0.58173596475E+03  0.61626665825E+03  0.00000000000E+00 0. -1.
<mgrwt>
<rscale>  4 0.24868261E+03</rscale>
<asrwt>0</asrwt>
<pdfrwt beam="1">  1       21 0.26276052E-01 0.24868261E+03</pdfrwt>
<pdfrwt beam="2">  1       21 0.14976775E+00 0.24868261E+03</pdfrwt>
<totfact> 0.39550680E+03</totfact>
</mgrwt>
</event>
