<event>
 5    0  0.2159162E+000  0.3941603E+03  0.7546771E-02  0.1045821E+00
         21   -1    0    0  502  501  0.00000000000E+00  0.00000000000E+00  0.47437979408E+03  0.47437979408E+03  0.00000000000E+00 0.  1.
         21   -1    0    0  503  502 -0.00000000000E+00 -0.00000000000E+00 -0.60619794893E+03  0.60619794893E+03  0.00000000000E+00 0.  1.
         25    1    1    2    0    0 -0.24350325611E+03  0.28534777547E+03  0.29746303298E+03  0.49479939843E+03  0.12500000000E+03 0.  0.
         21    1    1    2  503  504 -0.16884054455E+02 -0.24482757568E+02 -0.37664349982E+02  0.47990415424E+02  0.00000000000E+00 0.  1.
         21    1    1    2  504  501  0.26038731057E+03 -0.26086501790E+03 -0.39161683784E+03  0.53778792916E+03  0.00000000000E+00 0.  1.
<mgrwt>
<rscale>  4 0.39416031E+03</rscale>
<asrwt>0</asrwt>
<pdfrwt beam="1">  1       21 0.72981507E-01 0.39416031E+03</pdfrwt>
<pdfrwt beam="2">  1       21 0.93261223E-01 0.39416031E+03</pdfrwt>
<totfact> 0.14331549E+03</totfact>
</mgrwt>
</event>
<event>
 5    0  0.2159162E+000  0.2625574E+03  0.7546771E-02  0.1105616E+00
         21   -1    0    0  502  501  0.00000000000E+00  0.00000000000E+00  0.17593315684E+04  0.17593315684E+04  0.00000000000E+00 0.  1.
         21   -1    0    0  503  502 -0.00000000000E+00 -0.00000000000E+00 -0.46339285796E+02  0.46339285796E+02  0.00000000000E+00 0.  1.
         25    1    1    2    0    0 -0.16303491661E+03  0.18172883185E+03  0.10434479183E+04  0.10788949488E+04  0.12500000000E+03 0.  0.
         21    1    1    2  503  504 -0.48156790698E+01 -0.41835701935E+02  0.32186309008E+02  0.53003539588E+02  0.00000000000E+00 0.  1.
         21    1    1    2  504  501  0.16785059568E+03 -0.13989312992E+03  0.63735805534E+03  0.67377236584E+03  0.00000000000E+00 0.  1.
<mgrwt>
<rscale>  4 0.26255740E+03</rscale>
<asrwt>0</asrwt>
<pdfrwt beam="1">  1       21 0.27066634E+00 0.26255740E+03</pdfrwt>
<pdfrwt beam="2">  1       21 0.71291222E-02 0.26255740E+03</pdfrwt>
<totfact> 0.69320215E+03</totfact>
</mgrwt>
</event>
<event>
 5    0  0.2159162E+000  0.3095275E+03  0.7546771E-02  0.1080573E+00
         21   -1    0    0  502  501  0.00000000000E+00  0.00000000000E+00  0.72849800898E+03  0.72849800898E+03  0.00000000000E+00 0. -1.
         21   -1    0    0  503  502 -0.00000000000E+00 -0.00000000000E+00 -0.12814520079E+03  0.12814520079E+03  0.00000000000E+00 0. -1.
         25    1    1    2    0    0  0.21160077669E+03  0.18816856223E+03  0.24112345782E+03  0.39236184628E+03  0.12500000000E+03 0.  0.
         21    1    1    2  503  504 -0.14269449596E+03 -0.10304376280E+03  0.16475245143E+03  0.24108734202E+03  0.00000000000E+00 0. -1.
         21    1    1    2  504  501 -0.68906280726E+02 -0.85124799435E+02  0.19447689893E+03  0.22319402147E+03  0.00000000000E+00 0. -1.
<mgrwt>
<rscale>  4 0.30952754E+03</rscale>
<asrwt>0</asrwt>
<pdfrwt beam="1">  1       21 0.11207661E+00 0.30952754E+03</pdfrwt>
<pdfrwt beam="2">  1       21 0.19714647E-01 0.30952754E+03</pdfrwt>
<totfact> 0.13889876E+04</totfact>
</mgrwt>
</event>
<event>
 5    0  0.2159162E+000  0.2372437E+03  0.7546771E-02  0.1121643E+00
         21   -1    0    0  502  501  0.00000000000E+00  0.00000000000E+00  0.10136752800E+04  0.10136752800E+04  0.00000000000E+00 0.  1.
         21   -1    0    0  503  502 -0.00000000000E+00 -0.00000000000E+00 -0.13296854726E+03  0.13296854726E+03  0.00000000000E+00 0.  1.
         25    1    1    2    0    0  0.81339824394E+02  0.18450860854E+03  0.90768260916E+03  0.93817499041E+03  0.12500000000E+03 0.  0.
         21    1    1    2  503  504 -0.64890283163E+02 -0.14694927723E+03 -0.39820025665E+02  0.16550067484E+03  0.00000000000E+00 0.  1.
         21    1    1    2  504  501 -0.16449541231E+02 -0.37559331306E+02  0.12844149209E+02  0.42968161978E+02  0.00000000000E+00 0.  1.
<mgrwt>
<rscale>  4 0.23724374E+03</rscale>
<asrwt>0</asrwt>
<pdfrwt beam="1">  1       21 0.15595004E+00 0.23724374E+03</pdfrwt>
<pdfrwt beam="2">  1       21 0.20456700E-01 0.23724374E+03</pdfrwt>
<totfact> 0.57648226E+03</totfact>
</mgrwt>
</event>
<event>
 5    0  0.2165687E+000  0.2763508E+03  0.7546771E-02  0.1097699E+00
         21   -1    0    0  502  501  0.00000000000E+00  0.00000000000E+00  0.41412952903E+03  0.41412952903E+03  0.00000000000E+00 0. -1.
         21   -1    0    0  503  502 -0.00000000000E+00 -0.00000000000E+00 -0.22570164032E+03  0.22570164032E+03  0.00000000000E+00 0. -1.
         25    1    1    2    0    0  0.18058108579E+03 -0.18021386630E+03  0.14993159202E+03  0.32123363528E+03  0.12500000000E+03 0.  0.
         21    1    1    2  503  504  0.32696396023E+02  0.66960169431E+02  0.14625714342E+02  0.75938331053E+02  0.00000000000E+00 0. -1.
         21    1    1    2  504  501 -0.21327748182E+03  0.11325369687E+03  0.23870582352E+02  0.24265920301E+03  0.00000000000E+00 0. -1.
<mgrwt>
<rscale>  4 0.27635078E+03</rscale>
<asrwt>0</asrwt>
<pdfrwt beam="1">  1       21 0.63712235E-01 0.27635078E+03</pdfrwt>
<pdfrwt beam="2">  1       21 0.34723329E-01 0.27635078E+03</pdfrwt>
<totfact> 0.17404436E+04</totfact>
</mgrwt>
</event>
