<event>
 5    0  0.3691460E+001  0.2616497E+03  0.7546771E-02  0.1106156E+00
         21   -1    0    0  504  501  0.00000000000E+00  0.00000000000E+00  0.14046001432E+03  0.14046001432E+03  0.00000000000E+00 0.  1.
         21   -1    0    0  503  502 -0.00000000000E+00 -0.00000000000E+00 -0.11381186488E+04  0.11381186488E+04  0.00000000000E+00 0.  1.
         25    1    1    2    0    0 -0.21700965351E+03  0.26164887851E+02 -0.86759596961E+03  0.90339667786E+03  0.12500000000E+03 0.  0.
         21    1    1    2  503  501 -0.10052216264E+02  0.18025048235E+02 -0.14205785931E+03  0.14354924175E+03  0.00000000000E+00 0. -1.
         21    1    1    2  504  502  0.22706186978E+03 -0.44189936086E+02  0.11995194486E+02  0.23163274347E+03  0.00000000000E+00 0.  1.
<mgrwt>
<rscale>  4 0.26164973E+03</rscale>
<asrwt>0</asrwt>
<pdfrwt beam="1">  1       21 0.21609234E-01 0.26164973E+03</pdfrwt>
<pdfrwt beam="2">  1       21 0.17509517E+00 0.26164973E+03</pdfrwt>
<totfact> 0.37147671E+03</totfact>
</mgrwt>
</event>
<event>
 5    0  0.1911311E+001  0.3280321E+03  0.7546771E-02  0.1072011E+00
         21   -1    0    0  502  501  0.00000000000E+00  0.00000000000E+00  0.44328780946E+03  0.44328780946E+03  0.00000000000E+00 0. -1.
         21   -1    0    0  504  502 -0.00000000000E+00 -0.00000000000E+00 -0.47728213847E+03  0.47728213847E+03  0.00000000000E+00 0. -1.
         25    1    1    2    0    0 -0.11054810449E+03 -0.27730494657E+03 -0.25566041874E+03  0.41243928827E+03  0.12500000000E+03 0.  0.
         21    1    1    2  503  501  0.14560074417E+03  0.26747877662E+03  0.29642147572E+03  0.42498254543E+03  0.00000000000E+00 0. -1.
         21    1    1    2  504  503 -0.35052639676E+02  0.98261699450E+01 -0.74755385999E+02  0.83148114229E+02  0.00000000000E+00 0.  1.
<mgrwt>
<rscale>  4 0.32803209E+03</rscale>
<asrwt>0</asrwt>
<pdfrwt beam="1">  1       21 0.68198125E-01 0.32803209E+03</pdfrwt>
<pdfrwt beam="2">  1       21 0.73428021E-01 0.32803209E+03</pdfrwt>
<totfact> 0.29946311E+03</totfact>
</mgrwt>
</event>
<event>
 5    0  0.1911311E+001  0.3354465E+03  0.7546771E-02  0.1068752E+00
         21   -1    0    0  502  501  0.00000000000E+00  0.00000000000E+00  0.20450282285E+04  0.20450282285E+04  0.00000000000E+00 0. -1.
         21   -1    0    0  504  502 -0.00000000000E+00 -0.00000000000E+00 -0.14303586582E+03  0.14303586582E+03  0.00000000000E+00 0. -1.
         25    1    1    2    0    0  0.23929610995E+03  0.16078673831E+03  0.69356550650E+03  0.76142833888E+03  0.12500000000E+03 0.  0.
         21    1    1    2  503  501 -0.13855784408E+03  0.16439264563E+03  0.10099413191E+04  0.10325718794E+04  0.00000000000E+00 0. -1.
         21    1    1    2  504  503 -0.10073826587E+03 -0.32517938394E+03  0.19848553704E+03  0.39406387599E+03  0.00000000000E+00 0. -1.
<mgrwt>
<rscale>  4 0.33544649E+03</rscale>
<asrwt>0</asrwt>
<pdfrwt beam="1">  1       21 0.31461971E+00 0.33544649E+03</pdfrwt>
<pdfrwt beam="2">  1       21 0.22005519E-01 0.33544649E+03</pdfrwt>
<totfact> 0.46428207E+02</totfact>
</mgrwt>
</event>
<event>
 5    0  0.1911311E+001  0.3079468E+03  0.7546771E-02  0.1081334E+00
         21   -1    0    0  504  501  0.00000000000E+00  0.00000000000E+00  0.77003402897E+03  0.77003402897E+03  0.00000000000E+00 0.  1.
         21   -1    0    0  503  502 -0.00000000000E+00 -0.00000000000E+00 -0.13730825742E+03  0.13730825742E+03  0.00000000000E+00 0. -1.
         25    1    1    2    0    0  0.22686953410E+02 -0.30077204121E+03  0.29701453987E+03  0.44138549537E+03  0.12500000000E+03 0.  0.
         21    1    1    2  503  501  0.96414744985E+01  0.26584468858E+03  0.23661248411E+03  0.35602222419E+03  0.00000000000E+00 0. -1.
         21    1    1    2  504  502 -0.32328427909E+02  0.34927352631E+02  0.99098747569E+02  0.10993456682E+03  0.00000000000E+00 0. -1.
<mgrwt>
<rscale>  4 0.30794678E+03</rscale>
<asrwt>0</asrwt>
<pdfrwt beam="1">  1       21 0.11846677E+00 0.30794678E+03</pdfrwt>
<pdfrwt beam="2">  1       21 0.21124348E-01 0.30794678E+03</pdfrwt>
<totfact> 0.10632766E+04</totfact>
</mgrwt>
</event>
