<event>
 5    0  0.1856407E+000  0.2500264E+03  0.7546771E-02  0.1113288E+00
         21   -1    0    0  502  501  0.00000000000E+00  0.00000000000E+00  0.74771112690E+02  0.74771112690E+02  0.00000000000E+00 0.  1.
         21   -1    0    0  503  502 -0.00000000000E+00 -0.00000000000E+00 -0.93259532746E+03  0.93259532746E+03  0.00000000000E+00 0.  1.
         25    1    1    2    0    0  0.21164587589E+03 -0.45762623776E+02 -0.67089448295E+03  0.71596969333E+03  0.12500000000E+03 0.  0.
         21    1    1    2  503  504 -0.13515126849E+03  0.55700792251E+02 -0.12846775110E+03  0.19460834182E+03  0.00000000000E+00 0.  1.
         21    1    1    2  504  501 -0.76494607401E+02 -0.99381684743E+01 -0.58461980721E+02  0.96788405008E+02  0.00000000000E+00 0.  1.
<mgrwt>
<rscale>  4 0.25002639E+03</rscale>
<asrwt>0</asrwt>
<pdfrwt beam="1">  1       21 0.11503248E-01 0.25002639E+03</pdfrwt>
<pdfrwt beam="2">  1       21 0.14347621E+00 0.25002639E+03</pdfrwt>
<totfact> 0.20530330E+04</totfact>
</mgrwt>
</event>
<event>
 5    0  0.1856407E+000  0.4765234E+03  0.7546771E-02  0.1020095E+00
         21   -1    0    0  502  501  0.00000000000E+00  0.00000000000E+00  0.33253451283E+03  0.33253451283E+03  0.00000000000E+00 0. -1.
         21   -1    0    0  503  502 -0.00000000000E+00 -0.00000000000E+00 -0.67313940016E+03  0.67313940016E+03  0.00000000000E+00 0. -1.
         25    1    1    2    0    0  0.42603505163E+03  0.17304244993E+03 -0.12574834466E+03  0.49283587621E+03  0.12500000000E+03 0.  0.
         21    1    1    2  503  504 -0.41183475082E+03 -0.15464823631E+03 -0.19117011566E+03  0.47965607689E+03  0.00000000000E+00 0. -1.
         21    1    1    2  504  501 -0.14200300812E+02 -0.18394213613E+02 -0.23686427008E+02  0.33181959887E+02  0.00000000000E+00 0. -1.
<mgrwt>
<rscale>  4 0.47652340E+03</rscale>
<asrwt>0</asrwt>
<pdfrwt beam="1">  1       21 0.51159156E-01 0.47652340E+03</pdfrwt>
<pdfrwt beam="2">  1       21 0.10355991E+00 0.47652340E+03</pdfrwt>
<totfact> 0.23506088E+03</totfact>
</mgrwt>
</event>
<event>
 5    0  0.1856407E+000  0.3351947E+03  0.7546771E-02  0.1068861E+00
         21   -1    0    0  502  501  0.00000000000E+00  0.00000000000E+00  0.26847256141E+04  0.26847256141E+04  0.00000000000E+00 0.  1.
         21   -1    0    0  503  502 -0.00000000000E+00 -0.00000000000E+00 -0.47991415461E+02  0.47991415461E+02  0.00000000000E+00 0.  1.
         25    1    1    2    0    0 -0.23286232451E+03  0.20616886105E+03  0.18265433376E+04  0.18570449714E+04  0.12500000000E+03 0.  0.
         21    1    1    2  503  504  0.15962129005E+03 -0.20007198769E+03  0.67318604215E+03  0.72019941950E+03  0.00000000000E+00 0.  1.
         21    1    1    2  504  501  0.73241034462E+02 -0.60968733584E+01  0.13700481888E+03  0.15547263872E+03  0.00000000000E+00 0.  1.
<mgrwt>
<rscale>  4 0.33519466E+03</rscale>
<asrwt>0</asrwt>
<pdfrwt beam="1">  1       21 0.41303459E+00 0.33519466E+03</pdfrwt>
<pdfrwt beam="2">  1       21 0.73832968E-02 0.33519466E+03</pdfrwt>
<totfact> 0.84411418E+02</totfact>
</mgrwt>
</event>
<event>
 5    0  0.1856407E+000  0.2647510E+03  0.7546771E-02  0.1104322E+00
         21   -1    0    0  502  501  0.00000000000E+00  0.00000000000E+00  0.88684664150E+03  0.88684664150E+03  0.00000000000E+00 0.  1.
         21   -1    0    0  503  502 -0.00000000000E+00 -0.00000000000E+00 -0.28609847519E+03  0.28609847519E+03  0.00000000000E+00 0. -1.
         25    1    1    2    0    0 -0.19830642900E+03 -0.12305549196E+03  0.81108008602E+03  0.85319634307E+03  0.12500000000E+03 0.  0.
         21    1    1    2  503  504  0.11466068350E+03  0.10443577587E+03 -0.13842862604E+03  0.20788551688E+03  0.00000000000E+00 0. -1.
         21    1    1    2  504  501  0.83645745501E+02  0.18619716086E+02 -0.71903293676E+02  0.11186325674E+03  0.00000000000E+00 0. -1.
<mgrwt>
<rscale>  4 0.26475100E+03</rscale>
<asrwt>0</asrwt>
<pdfrwt beam="1">  1       21 0.13643794E+00 0.26475100E+03</pdfrwt>
<pdfrwt beam="2">  1       21 0.44015150E-01 0.26475100E+03</pdfrwt>
<totfact> 0.17862881E+03</totfact>
</mgrwt>
</event>
<event>
 5    0  0.1856407E+000  0.2854025E+03  0.7546771E-02  0.1092774E+00
         21   -1    0    0  502  501  0.00000000000E+00  0.00000000000E+00  0.43307151805E+03  0.43307151805E+03  0.00000000000E+00 0. -1.
         21   -1    0    0  503  502 -0.00000000000E+00 -0.00000000000E+00 -0.17442075718E+03  0.17442075718E+03  0.00000000000E+00 0. -1.
         25    1    1    2    0    0  0.22363426453E+03  0.12576692128E+03  0.17963891976E+03  0.33723099539E+03  0.12500000000E+03 0.  0.
         21    1    1    2  503  504 -0.20543052581E+03 -0.11139038912E+03  0.80116620816E+02  0.24703884847E+03  0.00000000000E+00 0. -1.
         21    1    1    2  504  501 -0.18203738728E+02 -0.14376532158E+02 -0.11047796964E+01  0.23222431370E+02  0.00000000000E+00 0.  1.
<mgrwt>
<rscale>  4 0.28540253E+03</rscale>
<asrwt>0</asrwt>
<pdfrwt beam="1">  1       21 0.66626387E-01 0.28540253E+03</pdfrwt>
<pdfrwt beam="2">  1       21 0.26833963E-01 0.28540253E+03</pdfrwt>
<totfact> 0.26115066E+04</totfact>
</mgrwt>
</event>
<event>
 5    0  0.1856407E+000  0.2550752E+03  0.7546771E-02  0.1110139E+00
         21   -1    0    0  502  501  0.00000000000E+00  0.00000000000E+00  0.36149820684E+03  0.36149820684E+03  0.00000000000E+00 0. -1.
         21   -1    0    0  503  502 -0.00000000000E+00 -0.00000000000E+00 -0.21689541904E+03  0.21689541904E+03  0.00000000000E+00 0. -1.
         25    1    1    2    0    0 -0.46439192780E+02  0.22226347435E+03 -0.43508456430E+02  0.26282244280E+03  0.12500000000E+03 0.  0.
         21    1    1    2  503  504  0.10649097594E+02 -0.21418394154E+03  0.17436556439E+03  0.27639014841E+03  0.00000000000E+00 0. -1.
         21    1    1    2  504  501  0.35790095186E+02 -0.80795328070E+01  0.13745679844E+02  0.39181034674E+02  0.00000000000E+00 0. -1.
<mgrwt>
<rscale>  4 0.25507519E+03</rscale>
<asrwt>0</asrwt>
<pdfrwt beam="1">  1       21 0.55615109E-01 0.25507519E+03</pdfrwt>
<pdfrwt beam="2">  1       21 0.33368526E-01 0.25507519E+03</pdfrwt>
<totfact> 0.25519346E+04</totfact>
</mgrwt>
</event>
<event>
 5    0  0.1856407E+000  0.4383666E+03  0.7546771E-02  0.1031249E+00
         21   -1    0    0  502  501  0.00000000000E+00  0.00000000000E+00  0.50276141317E+03  0.50276141317E+03  0.00000000000E+00 0. -1.
         21   -1    0    0  503  502 -0.00000000000E+00 -0.00000000000E+00 -0.79490976698E+03  0.79490976698E+03  0.00000000000E+00 0.  1.
         25    1    1    2    0    0  0.29534832871E+03  0.29884717593E+03  0.32490547215E+03  0.54564533872E+03  0.12500000000E+03 0.  0.
         21    1    1    2  503  504 -0.25438192713E+03 -0.29157459223E+03 -0.53810372851E+03  0.66278316991E+03  0.00000000000E+00 0.  1.
         21    1    1    2  504  501 -0.40966401578E+02 -0.72725837039E+01 -0.78950097449E+02  0.89242671515E+02  0.00000000000E+00 0.  1.
<mgrwt>
<rscale>  4 0.43836659E+03</rscale>
<asrwt>0</asrwt>
<pdfrwt beam="1">  1       21 0.77347910E-01 0.43836659E+03</pdfrwt>
<pdfrwt beam="2">  1       21 0.12229381E+00 0.43836659E+03</pdfrwt>
<totfact> 0.63145841E+02</totfact>
</mgrwt>
</event>
<event>
 5    0  0.1856407E+000  0.2389293E+03  0.7546771E-02  0.1120508E+00
         21   -1    0    0  502  501  0.00000000000E+00  0.00000000000E+00  0.48304523636E+02  0.48304523636E+02  0.00000000000E+00 0. -1.
         21   -1    0    0  503  502 -0.00000000000E+00 -0.00000000000E+00 -0.17055408264E+04  0.17055408264E+04  0.00000000000E+00 0. -1.
         25    1    1    2    0    0  0.25726938986E+00  0.20362254301E+03 -0.33382887068E+03  0.41052274128E+03  0.12500000000E+03 0.  0.
         21    1    1    2  503  504 -0.52189579145E+02 -0.10663019369E+03 -0.60475474515E+03  0.61629704864E+03  0.00000000000E+00 0. -1.
         21    1    1    2  504  501  0.51932309756E+02 -0.96992349324E+02 -0.71865268689E+03  0.72702556007E+03  0.00000000000E+00 0. -1.
<mgrwt>
<rscale>  4 0.23892929E+03</rscale>
<asrwt>0</asrwt>
<pdfrwt beam="1">  1       21 0.74314641E-02 0.23892929E+03</pdfrwt>
<pdfrwt beam="2">  1       21 0.26239093E+00 0.23892929E+03</pdfrwt>
<totfact> 0.73514878E+03</totfact>
</mgrwt>
</event>
<event>
 5    0  0.1856407E+000  0.3325459E+03  0.7546771E-02  0.1070016E+00
         21   -1    0    0  502  501  0.00000000000E+00  0.00000000000E+00  0.28713100842E+03  0.28713100842E+03  0.00000000000E+00 0. -1.
         21   -1    0    0  503  502 -0.00000000000E+00 -0.00000000000E+00 -0.22696302134E+04  0.22696302134E+04  0.00000000000E+00 0.  1.
         25    1    1    2    0    0  0.11443944729E+02  0.30794614013E+03  0.17529122320E+03  0.37591728083E+03  0.12500000000E+03 0.  0.
         21    1    1    2  503  504 -0.25064329423E+02 -0.28080768404E+03 -0.20306986061E+04  0.20501751156E+04  0.00000000000E+00 0.  1.
         21    1    1    2  504  501  0.13620384693E+02 -0.27138456094E+02 -0.12709182211E+03  0.13066882538E+03  0.00000000000E+00 0.  1.
<mgrwt>
<rscale>  4 0.33254592E+03</rscale>
<asrwt>0</asrwt>
<pdfrwt beam="1">  1       21 0.44174000E-01 0.33254592E+03</pdfrwt>
<pdfrwt beam="2">  1       21 0.34917389E+00 0.33254592E+03</pdfrwt>
<totfact> 0.72433766E+01</totfact>
</mgrwt>
</event>
<event>
 5    0  0.1856407E+000  0.2544877E+03  0.7546771E-02  0.1110501E+00
         21   -1    0    0  502  501  0.00000000000E+00  0.00000000000E+00  0.28752811303E+03  0.28752811303E+03  0.00000000000E+00 0. -1.
         21   -1    0    0  503  502 -0.00000000000E+00 -0.00000000000E+00 -0.23357829008E+03  0.23357829008E+03  0.00000000000E+00 0. -1.
         25    1    1    2    0    0 -0.19656029950E+03  0.10248434505E+03  0.12829278352E+03  0.28499654493E+03  0.12500000000E+03 0.  0.
         21    1    1    2  503  504  0.17596428081E+03 -0.79077858947E+02 -0.63393677841E+02  0.20306524638E+03  0.00000000000E+00 0. -1.
         21    1    1    2  504  501  0.20596018686E+02 -0.23406486099E+02 -0.10949282728E+02  0.33044611807E+02  0.00000000000E+00 0. -1.
<mgrwt>
<rscale>  4 0.25448771E+03</rscale>
<asrwt>0</asrwt>
<pdfrwt beam="1">  1       21 0.44235094E-01 0.25448771E+03</pdfrwt>
<pdfrwt beam="2">  1       21 0.35935121E-01 0.25448771E+03</pdfrwt>
<totfact> 0.35588103E+04</totfact>
</mgrwt>
</event>
