<event>
 5    0  0.1856407E+000  0.2864517E+03  0.7546771E-02  0.1092216E+00
         21   -1    0    0  502  501  0.00000000000E+00  0.00000000000E+00  0.22777154227E+03  0.22777154227E+03  0.00000000000E+00 0.  1.
         21   -1    0    0  503  502 -0.00000000000E+00 -0.00000000000E+00 -0.37177102158E+03  0.37177102158E+03  0.00000000000E+00 0.  1.
         25    1    1    2    0    0 -0.25628362356E+03  0.27354633377E+02  0.61722257109E+00  0.28645235666E+03  0.12500000000E+03 0.  0.
         21    1    1    2  503  504  0.12762076225E+03  0.25260306127E+02 -0.10867070038E+03  0.16951242770E+03  0.00000000000E+00 0.  1.
         21    1    1    2  504  501  0.12866286131E+03 -0.52614939504E+02 -0.35946001495E+02  0.14357777949E+03  0.00000000000E+00 0.  1.
<mgrwt>
<rscale>  4 0.28645169E+03</rscale>
<asrwt>0</asrwt>
<pdfrwt beam="1">  1       21 0.35041776E-01 0.28645169E+03</pdfrwt>
<pdfrwt beam="2">  1       21 0.57195542E-01 0.28645169E+03</pdfrwt>
<totfact> 0.21504934E+04</totfact>
</mgrwt>
</event>
<event>
 5    0  0.1856407E+000  0.3042512E+03  0.7546771E-02  0.1083135E+00
         21   -1    0    0  502  501  0.00000000000E+00  0.00000000000E+00  0.26802290366E+03  0.26802290366E+03  0.00000000000E+00 0. -1.
         21   -1    0    0  503  502 -0.00000000000E+00 -0.00000000000E+00 -0.53912719206E+03  0.53912719206E+03  0.00000000000E+00 0. -1.
         25    1    1    2    0    0  0.25235086241E+03 -0.11262229361E+03 -0.17803124854E+03  0.35168858985E+03  0.12500000000E+03 0.  0.
         21    1    1    2  503  504  0.41574774736E+02  0.12339085815E+03  0.34749848649E+02  0.13476393342E+03  0.00000000000E+00 0. -1.
         21    1    1    2  504  501 -0.29392563714E+03 -0.10768564541E+02 -0.12782288850E+03  0.32069757245E+03  0.00000000000E+00 0. -1.
<mgrwt>
<rscale>  4 0.30425119E+03</rscale>
<asrwt>0</asrwt>
<pdfrwt beam="1">  1       21 0.41234293E-01 0.30425119E+03</pdfrwt>
<pdfrwt beam="2">  1       21 0.82942644E-01 0.30425119E+03</pdfrwt>
<totfact> 0.67111387E+03</totfact>
</mgrwt>
</event>
<event>
 5    0  0.2720237E+000  0.3337794E+03  0.7546771E-02  0.1069477E+00
         21   -1    0    0  502  501  0.00000000000E+00  0.00000000000E+00  0.16144841497E+03  0.16144841497E+03  0.00000000000E+00 0.  1.
         21   -1    0    0  503  502 -0.00000000000E+00 -0.00000000000E+00 -0.77609360029E+03  0.77609360029E+03  0.00000000000E+00 0.  1.
         25    1    1    2    0    0 -0.25363357881E+03  0.17938795157E+03 -0.18657251797E+03  0.38333318919E+03  0.12500000000E+03 0.  0.
         21    1    1    2  503  504  0.27195537237E+03 -0.14698933068E+03 -0.34535989754E+03  0.46350733190E+03  0.00000000000E+00 0.  1.
         21    1    1    2  504  501 -0.18321793560E+02 -0.32398620889E+02 -0.82712769809E+02  0.90701494168E+02  0.00000000000E+00 0.  1.
<mgrwt>
<rscale>  4 0.33377944E+03</rscale>
<asrwt>0</asrwt>
<pdfrwt beam="1">  1       21 0.24838217E-01 0.33377944E+03</pdfrwt>
<pdfrwt beam="2">  1       21 0.11939902E+00 0.33377944E+03</pdfrwt>
<totfact> 0.75568677E+03</totfact>
</mgrwt>
</event>
<event>
 5    0  0.1856407E+000  0.2838726E+03  0.7546771E-02  0.1093592E+00
         21   -1    0    0  502  501  0.00000000000E+00  0.00000000000E+00  0.38561539950E+03  0.38561539950E+03  0.00000000000E+00 0. -1.
         21   -1    0    0  503  502 -0.00000000000E+00 -0.00000000000E+00 -0.47633700846E+03  0.47633700846E+03  0.00000000000E+00 0. -1.
         25    1    1    2    0    0 -0.19184813082E+03  0.16778834057E+03  0.28736870453E+03  0.40393613960E+03  0.12500000000E+03 0.  0.
         21    1    1    2  503  504  0.17207217159E+03 -0.14658058898E+03 -0.35541298333E+03  0.42120433286E+03  0.00000000000E+00 0. -1.
         21    1    1    2  504  501  0.19775959233E+02 -0.21207751592E+02 -0.22677330165E+02  0.36811935491E+02  0.00000000000E+00 0. -1.
<mgrwt>
<rscale>  4 0.28387256E+03</rscale>
<asrwt>0</asrwt>
<pdfrwt beam="1">  1       21 0.59325446E-01 0.28387256E+03</pdfrwt>
<pdfrwt beam="2">  1       21 0.73282616E-01 0.28387256E+03</pdfrwt>
<totfact> 0.41796102E+03</totfact>
</mgrwt>
</event>
<event>
 5    0  0.1856407E+000  0.5172469E+03  0.7546771E-02  0.1011473E+00
         21   -1    0    0  502  501  0.00000000000E+00  0.00000000000E+00  0.44290041382E+03  0.44290041382E+03  0.00000000000E+00 0.  1.
         21   -1    0    0  503  502 -0.00000000000E+00 -0.00000000000E+00 -0.57198860237E+03  0.57198860237E+03  0.00000000000E+00 0.  1.
         25    1    1    2    0    0  0.29562554284E+03 -0.36331479857E+03 -0.13971542608E+02  0.48498691574E+03  0.12500000000E+03 0.  0.
         21    1    1    2  503  504 -0.16192889644E+03  0.55350733249E+02 -0.89691445955E+02  0.19320772927E+03  0.00000000000E+00 0.  1.
         21    1    1    2  504  501 -0.13369664640E+03  0.30796406532E+03 -0.25425199984E+02  0.33669437117E+03  0.00000000000E+00 0.  1.
<mgrwt>
<rscale>  4 0.50893331E+03</rscale>
<asrwt>0</asrwt>
<pdfrwt beam="1">  1       21 0.68138525E-01 0.51724694E+03</pdfrwt>
<pdfrwt beam="2">  1       21 0.87998246E-01 0.51724694E+03</pdfrwt>
<totfact> 0.18316640E+03</totfact>
</mgrwt>
</event>
<event>
 5    0  0.1856407E+000  0.2751359E+03  0.7546771E-02  0.1098376E+00
         21   -1    0    0  502  501  0.00000000000E+00  0.00000000000E+00  0.24868453171E+03  0.24868453171E+03  0.00000000000E+00 0.  1.
         21   -1    0    0  503  502 -0.00000000000E+00 -0.00000000000E+00 -0.75276662412E+03  0.75276662412E+03  0.00000000000E+00 0.  1.
         25    1    1    2    0    0 -0.20813600412E+03 -0.15620752753E+03  0.11796172370E+03  0.31186752977E+03  0.12500000000E+03 0.  0.
         21    1    1    2  503  504  0.15984060022E+03  0.11392464717E+03 -0.28232375516E+03  0.34385250536E+03  0.00000000000E+00 0.  1.
         21    1    1    2  504  501  0.48295403895E+02  0.42282880357E+02 -0.33972006095E+03  0.34573112070E+03  0.00000000000E+00 0.  1.
<mgrwt>
<rscale>  4 0.27513595E+03</rscale>
<asrwt>0</asrwt>
<pdfrwt beam="1">  1       21 0.38259160E-01 0.27513595E+03</pdfrwt>
<pdfrwt beam="2">  1       21 0.11581025E+00 0.27513595E+03</pdfrwt>
<totfact> 0.35775538E+03</totfact>
</mgrwt>
</event>
<event>
 5    0  0.1856407E+000  0.3001359E+03  0.7546771E-02  0.1085173E+00
         21   -1    0    0  502  501  0.00000000000E+00  0.00000000000E+00  0.11945812672E+03  0.11945812672E+03  0.00000000000E+00 0. -1.
         21   -1    0    0  503  502 -0.00000000000E+00 -0.00000000000E+00 -0.17880636842E+04  0.17880636842E+04  0.00000000000E+00 0.  1.
         25    1    1    2    0    0 -0.58447478048E+02  0.27022633582E+03 -0.11153727595E+03  0.32327069801E+03  0.12500000000E+03 0.  0.
         21    1    1    2  503  504  0.43173834273E+02 -0.24429711934E+03 -0.14929556987E+04  0.15134271641E+04  0.00000000000E+00 0.  1.
         21    1    1    2  504  501  0.15273643775E+02 -0.25929216482E+02 -0.64112582776E+02  0.70823948858E+02  0.00000000000E+00 0.  1.
<mgrwt>
<rscale>  4 0.30013594E+03</rscale>
<asrwt>0</asrwt>
<pdfrwt beam="1">  1       21 0.18378175E-01 0.30013594E+03</pdfrwt>
<pdfrwt beam="2">  1       21 0.27508670E+00 0.30013594E+03</pdfrwt>
<totfact> 0.11512650E+03</totfact>
</mgrwt>
</event>
<event>
 5    0  0.1856407E+000  0.2564517E+03  0.7546771E-02  0.1109294E+00
         21   -1    0    0  502  501  0.00000000000E+00  0.00000000000E+00  0.52457208361E+03  0.52457208361E+03  0.00000000000E+00 0. -1.
         21   -1    0    0  503  502 -0.00000000000E+00 -0.00000000000E+00 -0.23183024823E+03  0.23183024823E+03  0.00000000000E+00 0. -1.
         25    1    1    2    0    0 -0.77386835601E+02  0.21012799953E+03  0.42206025828E+03  0.49386471845E+03  0.12500000000E+03 0.  0.
         21    1    1    2  503  504  0.12157606543E+02 -0.88272995796E+02 -0.63720167402E+02  0.10954537378E+03  0.00000000000E+00 0. -1.
         21    1    1    2  504  501  0.65229229058E+02 -0.12185500373E+03 -0.65598255497E+02  0.15299223961E+03  0.00000000000E+00 0. -1.
<mgrwt>
<rscale>  4 0.25645175E+03</rscale>
<asrwt>0</asrwt>
<pdfrwt beam="1">  1       21 0.80703397E-01 0.25645175E+03</pdfrwt>
<pdfrwt beam="2">  1       21 0.35666192E-01 0.25645175E+03</pdfrwt>
<totfact> 0.98237217E+03</totfact>
</mgrwt>
</event>
<event>
 5    0  0.1856407E+000  0.3390032E+03  0.7546771E-02  0.1067221E+00
         21   -1    0    0  502  501  0.00000000000E+00  0.00000000000E+00  0.14265260438E+04  0.14265260438E+04  0.00000000000E+00 0.  1.
         21   -1    0    0  503  502 -0.00000000000E+00 -0.00000000000E+00 -0.80770054333E+02  0.80770054333E+02  0.00000000000E+00 0. -1.
         25    1    1    2    0    0  0.76867257802E+02  0.30559714283E+03  0.78836830577E+03  0.85816535387E+03  0.12500000000E+03 0.  0.
         21    1    1    2  503  504 -0.97267718027E+02 -0.24644738057E+03  0.49087790284E+03  0.55781577232E+03  0.00000000000E+00 0. -1.
         21    1    1    2  504  501  0.20400460225E+02 -0.59149762265E+02  0.66509780905E+02  0.91314971989E+02  0.00000000000E+00 0. -1.
<mgrwt>
<rscale>  4 0.33900323E+03</rscale>
<asrwt>0</asrwt>
<pdfrwt beam="1">  1       21 0.21946553E+00 0.33900323E+03</pdfrwt>
<pdfrwt beam="2">  1       21 0.12426163E-01 0.33900323E+03</pdfrwt>
<totfact> 0.50256325E+03</totfact>
</mgrwt>
</event>
<event>
 5    0  0.1856407E+000  0.3094400E+03  0.7546771E-02  0.1080615E+00
         21   -1    0    0  502  501  0.00000000000E+00  0.00000000000E+00  0.35002057583E+03  0.35002057583E+03  0.00000000000E+00 0. -1.
         21   -1    0    0  503  502 -0.00000000000E+00 -0.00000000000E+00 -0.53444670926E+03  0.53444670926E+03  0.00000000000E+00 0. -1.
         25    1    1    2    0    0 -0.86079949659E+02  0.29426832625E+03  0.16750403261E+03  0.37106092021E+03  0.12500000000E+03 0.  0.
         21    1    1    2  503  504  0.10768950609E+03 -0.76791931020E+02 -0.51597258967E+02  0.14197291123E+03  0.00000000000E+00 0. -1.
         21    1    1    2  504  501 -0.21609556427E+02 -0.21747639523E+03 -0.30033290708E+03  0.37143345364E+03  0.00000000000E+00 0. -1.
<mgrwt>
<rscale>  4 0.30944005E+03</rscale>
<asrwt>0</asrwt>
<pdfrwt beam="1">  1       21 0.53849319E-01 0.30944005E+03</pdfrwt>
<pdfrwt beam="2">  1       21 0.82222571E-01 0.30944005E+03</pdfrwt>
<totfact> 0.39083112E+03</totfact>
</mgrwt>
</event>
<event>
 5    0  0.3429484E+000  0.2293540E+03  0.7546771E-02  0.1127095E+00
         21   -1    0    0  502  501  0.00000000000E+00  0.00000000000E+00  0.26140843581E+03  0.26140843581E+03  0.00000000000E+00 0.  1.
         21   -1    0    0  503  502 -0.00000000000E+00 -0.00000000000E+00 -0.54354171062E+03  0.54354171062E+03  0.00000000000E+00 0.  1.
         25    1    1    2    0    0  0.97305227497E+02 -0.23423693071E+03  0.11982605295E+03  0.30711322012E+03  0.12500000000E+03 0.  0.
         21    1    1    2  503  504 -0.50474937452E+02  0.53969222014E+02 -0.26112521408E+02  0.78372571796E+02  0.00000000000E+00 0.  1.
         21    1    1    2  504  501 -0.46830290044E+02  0.18026770870E+03 -0.37584680636E+03  0.41946435452E+03  0.00000000000E+00 0.  1.
<mgrwt>
<rscale>  4 0.22935401E+03</rscale>
<asrwt>0</asrwt>
<pdfrwt beam="1">  1       21 0.40216683E-01 0.22935401E+03</pdfrwt>
<pdfrwt beam="2">  1       21 0.83621801E-01 0.22935401E+03</pdfrwt>
<totfact> 0.72235805E+03</totfact>
</mgrwt>
</event>
<event>
 5    0  0.1856407E+000  0.2530432E+03  0.7546771E-02  0.1111397E+00
         21   -1    0    0  502  501  0.00000000000E+00  0.00000000000E+00  0.45880802091E+03  0.45880802091E+03  0.00000000000E+00 0.  1.
         21   -1    0    0  503  502 -0.00000000000E+00 -0.00000000000E+00 -0.17107776751E+03  0.17107776751E+03  0.00000000000E+00 0. -1.
         25    1    1    2    0    0 -0.22068632416E+03 -0.46700965692E+02  0.25490293528E+03  0.36260714318E+03  0.12500000000E+03 0.  0.
         21    1    1    2  503  504  0.20524672077E+03  0.75433339225E+02 -0.31817968097E+01  0.21869277282E+03  0.00000000000E+00 0. -1.
         21    1    1    2  504  501  0.15439603389E+02 -0.28732373533E+02  0.36009114923E+02  0.48585872424E+02  0.00000000000E+00 0. -1.
<mgrwt>
<rscale>  4 0.25304315E+03</rscale>
<asrwt>0</asrwt>
<pdfrwt beam="1">  1       21 0.70585849E-01 0.25304315E+03</pdfrwt>
<pdfrwt beam="2">  1       21 0.26319657E-01 0.25304315E+03</pdfrwt>
<totfact> 0.24190866E+04</totfact>
</mgrwt>
</event>
<event>
 5    0  0.3306391E+000  0.2668125E+03  0.7546771E-02  0.1103118E+00
         21   -1    0    0  502  501  0.00000000000E+00  0.00000000000E+00  0.10305421511E+04  0.10305421511E+04  0.00000000000E+00 0.  1.
         21   -1    0    0  503  502 -0.00000000000E+00 -0.00000000000E+00 -0.70846951582E+02  0.70846951582E+02  0.00000000000E+00 0.  1.
         25    1    1    2    0    0  0.22310624198E+03 -0.76075864783E+02  0.68128681587E+03  0.73166977380E+03  0.12500000000E+03 0.  0.
         21    1    1    2  503  504 -0.19365954150E+03  0.68975547058E+02  0.26783837456E+03  0.33763743719E+03  0.00000000000E+00 0.  1.
         21    1    1    2  504  501 -0.29446700476E+02  0.71003177246E+01  0.10570009048E+02  0.32081891652E+02  0.00000000000E+00 0.  1.
<mgrwt>
<rscale>  4 0.26681254E+03</rscale>
<asrwt>0</asrwt>
<pdfrwt beam="1">  1       21 0.15854494E+00 0.26681254E+03</pdfrwt>
<pdfrwt beam="2">  1       21 0.10899532E-01 0.26681254E+03</pdfrwt>
<totfact> 0.17167493E+04</totfact>
</mgrwt>
</event>
<event>
 5    0  0.1856407E+000  0.3033149E+03  0.7546771E-02  0.1083907E+00
         21   -1    0    0  502  501  0.00000000000E+00  0.00000000000E+00  0.78585429596E+03  0.78585429596E+03  0.00000000000E+00 0.  1.
         21   -1    0    0  503  502 -0.00000000000E+00 -0.00000000000E+00 -0.26533812834E+03  0.26533812834E+03  0.00000000000E+00 0.  1.
         25    1    1    2    0    0 -0.19187473302E+03  0.19503180632E+03  0.65395995702E+03  0.71982077216E+03  0.12500000000E+03 0.  0.
         21    1    1    2  503  504  0.12103234526E+03 -0.56037068769E+02 -0.11147285978E+03  0.17382514244E+03  0.00000000000E+00 0.  1.
         21    1    1    2  504  501  0.70842387756E+02 -0.13899473756E+03 -0.21970929616E+02  0.15754650970E+03  0.00000000000E+00 0.  1.
<mgrwt>
<rscale>  4 0.30268324E+03</rscale>
<asrwt>0</asrwt>
<pdfrwt beam="1">  1       21 0.12090066E+00 0.30331490E+03</pdfrwt>
<pdfrwt beam="2">  1       21 0.40821251E-01 0.30331490E+03</pdfrwt>
<totfact> 0.27705153E+03</totfact>
</mgrwt>
</event>
<event>
 5    0  0.2574458E+000  0.2627229E+03  0.7546771E-02  0.1105518E+00
         21   -1    0    0  502  501  0.00000000000E+00  0.00000000000E+00  0.21863325168E+03  0.21863325168E+03  0.00000000000E+00 0.  1.
         21   -1    0    0  503  502 -0.00000000000E+00 -0.00000000000E+00 -0.28189039082E+03  0.28189039082E+03  0.00000000000E+00 0.  1.
         25    1    1    2    0    0  0.12669586459E+03  0.19325241183E+03 -0.38896496169E+02  0.26558666043E+03  0.12500000000E+03 0.  0.
         21    1    1    2  503  504 -0.10183116625E+02 -0.27516145807E+02 -0.12812678778E+02  0.32015603722E+02  0.00000000000E+00 0.  1.
         21    1    1    2  504  501 -0.11651274797E+03 -0.16573626603E+03 -0.11547964193E+02  0.20292137835E+03  0.00000000000E+00 0.  1.
<mgrwt>
<rscale>  4 0.26272293E+03</rscale>
<asrwt>0</asrwt>
<pdfrwt beam="1">  1       21 0.33635885E-01 0.26272293E+03</pdfrwt>
<pdfrwt beam="2">  1       21 0.43367753E-01 0.26272293E+03</pdfrwt>
<totfact> 0.42163763E+04</totfact>
</mgrwt>
</event>
