<event>
 5    0  0.1911311E+001  0.3555074E+03  0.7546771E-02  0.1060377E+00
         21   -1    0    0  502  501  0.00000000000E+00  0.00000000000E+00  0.11855707625E+04  0.11855707625E+04  0.00000000000E+00 0. -1.
         21   -1    0    0  504  502 -0.00000000000E+00 -0.00000000000E+00 -0.20134202475E+03  0.20134202475E+03  0.00000000000E+00 0. -1.
         25    1    1    2    0    0 -0.29075112588E+03  0.20369085924E+03  0.14591396024E+03  0.40366083181E+03  0.12500000000E+03 0.  0.
         21    1    1    2  503  501  0.45878956751E+02 -0.19581988456E+02  0.58107866051E+03  0.58321586282E+03  0.00000000000E+00 0. -1.
         21    1    1    2  504  503  0.24487216913E+03 -0.18410887079E+03  0.25723611700E+03  0.40003609263E+03  0.00000000000E+00 0. -1.
<mgrwt>
<rscale>  4 0.35550737E+03</rscale>
<asrwt>0</asrwt>
<pdfrwt beam="1">  1       21 0.18239550E+00 0.35550737E+03</pdfrwt>
<pdfrwt beam="2">  1       21 0.30975697E-01 0.35550737E+03</pdfrwt>
<totfact> 0.15520559E+03</totfact>
</mgrwt>
</event>
<event>
 5    0  0.1911311E+001  0.2393961E+03  0.7546771E-02  0.1120196E+00
         21   -1    0    0  504  501  0.00000000000E+00  0.00000000000E+00  0.43997611522E+03  0.43997611522E+03  0.00000000000E+00 0.  1.
         21   -1    0    0  503  502 -0.00000000000E+00 -0.00000000000E+00 -0.29634618727E+03  0.29634618727E+03  0.00000000000E+00 0.  1.
         25    1    1    2    0    0  0.19741410596E+03  0.10692252611E+03  0.32652764894E+03  0.41551180650E+03  0.12500000000E+03 0.  0.
         21    1    1    2  503  501 -0.18615063497E+03 -0.78379185684E+02 -0.20119231501E+03  0.28508543152E+03  0.00000000000E+00 0.  1.
         21    1    1    2  504  502 -0.11263470986E+02 -0.28543340423E+02  0.18294594010E+02  0.35725064467E+02  0.00000000000E+00 0.  1.
<mgrwt>
<rscale>  4 0.23939610E+03</rscale>
<asrwt>0</asrwt>
<pdfrwt beam="1">  1       21 0.67688634E-01 0.23939610E+03</pdfrwt>
<pdfrwt beam="2">  1       21 0.45591721E-01 0.23939610E+03</pdfrwt>
<totfact> 0.89260018E+03</totfact>
</mgrwt>
</event>
<event>
 5    0  0.1911311E+001  0.2228195E+03  0.7546771E-02  0.1131798E+00
         21   -1    0    0  502  501  0.00000000000E+00  0.00000000000E+00  0.69019821214E+03  0.69019821214E+03  0.00000000000E+00 0. -1.
         21   -1    0    0  504  502 -0.00000000000E+00 -0.00000000000E+00 -0.19266365698E+03  0.19266365698E+03  0.00000000000E+00 0. -1.
         25    1    1    2    0    0 -0.16535671599E+03 -0.19533603909E+03  0.41478390306E+03  0.50315971413E+03  0.12500000000E+03 0.  0.
         21    1    1    2  503  501  0.50218101713E+02  0.13660876299E+03  0.16997343003E+03  0.22377394571E+03  0.00000000000E+00 0. -1.
         21    1    1    2  504  503  0.11513861428E+03  0.58727276101E+02 -0.87222777923E+02  0.15592820927E+03  0.00000000000E+00 0. -1.
<mgrwt>
<rscale>  4 0.22281952E+03</rscale>
<asrwt>0</asrwt>
<pdfrwt beam="1">  1       21 0.10618434E+00 0.22281952E+03</pdfrwt>
<pdfrwt beam="2">  1       21 0.29640563E-01 0.22281952E+03</pdfrwt>
<totfact> 0.75929974E+03</totfact>
</mgrwt>
</event>
<event>
 5    0  0.1911311E+001  0.3523872E+03  0.7546771E-02  0.1061639E+00
         21   -1    0    0  502  501  0.00000000000E+00  0.00000000000E+00  0.52846130596E+03  0.52846130596E+03  0.00000000000E+00 0. -1.
         21   -1    0    0  504  502 -0.00000000000E+00 -0.00000000000E+00 -0.27795088091E+03  0.27795088091E+03  0.00000000000E+00 0. -1.
         25    1    1    2    0    0  0.25395966424E+03 -0.20401480357E+03 -0.18506070149E+02  0.34940667676E+03  0.12500000000E+03 0.  0.
         21    1    1    2  503  501 -0.27680629509E+03  0.19227271021E+03  0.22245297881E+03  0.40382650715E+03  0.00000000000E+00 0. -1.
         21    1    1    2  504  503  0.22846630855E+02  0.11742093359E+02  0.46563516378E+02  0.53179002956E+02  0.00000000000E+00 0. -1.
<mgrwt>
<rscale>  4 0.35238719E+03</rscale>
<asrwt>0</asrwt>
<pdfrwt beam="1">  1       21 0.81301739E-01 0.35238719E+03</pdfrwt>
<pdfrwt beam="2">  1       21 0.42761674E-01 0.35238719E+03</pdfrwt>
<totfact> 0.63819221E+03</totfact>
</mgrwt>
</event>
<event>
 5    0  0.1911311E+001  0.2596904E+03  0.7546771E-02  0.1107329E+00
         21   -1    0    0  503  501  0.00000000000E+00  0.00000000000E+00  0.71809167044E+02  0.71809167044E+02  0.00000000000E+00 0.  1.
         21   -1    0    0  504  502 -0.00000000000E+00 -0.00000000000E+00 -0.11528423684E+04  0.11528423684E+04  0.00000000000E+00 0.  1.
         25    1    1    2    0    0 -0.20838675928E+02  0.24138413968E+03 -0.43063111870E+03  0.50967510602E+03  0.12500000000E+03 0.  0.
         21    1    1    2  503  502 -0.25283149974E+02 -0.22051886557E+03 -0.61325199132E+03  0.65218541275E+03  0.00000000000E+00 0.  1.
         21    1    1    2  504  501  0.46121825903E+02 -0.20865274116E+02 -0.37150091328E+02  0.62791016668E+02  0.00000000000E+00 0.  1.
<mgrwt>
<rscale>  4 0.25969037E+03</rscale>
<asrwt>0</asrwt>
<pdfrwt beam="1">  1       21 0.11047565E-01 0.25969037E+03</pdfrwt>
<pdfrwt beam="2">  1       21 0.17736035E+00 0.25969037E+03</pdfrwt>
<totfact> 0.12321561E+04</totfact>
</mgrwt>
</event>
