<event>
 5    0  0.1911311E+001  0.2609708E+03  0.7546771E-02  0.1106561E+00
         21   -1    0    0  503  501  0.00000000000E+00  0.00000000000E+00  0.79856078019E+03  0.79856078019E+03  0.00000000000E+00 0. -1.
         21   -1    0    0  504  502 -0.00000000000E+00 -0.00000000000E+00 -0.89472842949E+02  0.89472842949E+02  0.00000000000E+00 0. -1.
         25    1    1    2    0    0  0.14242778379E+03  0.18141281597E+03  0.36929370937E+03  0.45298910271E+03  0.12500000000E+03 0.  0.
         21    1    1    2  503  502 -0.17138668371E+03 -0.15248461074E+03  0.30269315920E+03  0.37980007964E+03  0.00000000000E+00 0. -1.
         21    1    1    2  504  501  0.28958899917E+02 -0.28928205226E+02  0.37101068672E+02  0.55244440794E+02  0.00000000000E+00 0.  1.
<mgrwt>
<rscale>  4 0.26097079E+03</rscale>
<asrwt>0</asrwt>
<pdfrwt beam="1">  1       21 0.12285550E+00 0.26097079E+03</pdfrwt>
<pdfrwt beam="2">  1       21 0.13765053E-01 0.26097079E+03</pdfrwt>
<totfact> 0.21981071E+04</totfact>
</mgrwt>
</event>
<event>
 5    0  0.1911311E+001  0.3348377E+03  0.7546771E-02  0.1069016E+00
         21   -1    0    0  504  501  0.00000000000E+00  0.00000000000E+00  0.12483247587E+04  0.12483247587E+04  0.00000000000E+00 0.  1.
         21   -1    0    0  503  502 -0.00000000000E+00 -0.00000000000E+00 -0.32914159742E+03  0.32914159742E+03  0.00000000000E+00 0.  1.
         25    1    1    2    0    0 -0.33418046718E+03 -0.27638862952E+03  0.53174267086E+03  0.69745431907E+03  0.12500000000E+03 0.  0.
         21    1    1    2  503  501  0.16991872098E+03  0.23984719362E+03 -0.14058044622E+03  0.32582496817E+03  0.00000000000E+00 0.  1.
         21    1    1    2  504  502  0.16426174620E+03  0.36541435901E+02  0.52802093668E+03  0.55418706893E+03  0.00000000000E+00 0.  1.
<mgrwt>
<rscale>  4 0.33483769E+03</rscale>
<asrwt>0</asrwt>
<pdfrwt beam="1">  1       21 0.19204996E+00 0.33483769E+03</pdfrwt>
<pdfrwt beam="2">  1       21 0.50637170E-01 0.33483769E+03</pdfrwt>
<totfact> 0.49382180E+02</totfact>
</mgrwt>
</event>
<event>
 5    0  0.1911311E+001  0.2333524E+03  0.7546771E-02  0.1124302E+00
         21   -1    0    0  502  501  0.00000000000E+00  0.00000000000E+00  0.44553674229E+03  0.44553674229E+03  0.00000000000E+00 0. -1.
         21   -1    0    0  504  502 -0.00000000000E+00 -0.00000000000E+00 -0.42499151728E+03  0.42499151728E+03  0.00000000000E+00 0. -1.
         25    1    1    2    0    0  0.12315794100E+03 -0.18001031586E+03 -0.22946645220E+03  0.34036957110E+03  0.12500000000E+03 0.  0.
         21    1    1    2  503  501 -0.11187234678E+03  0.16000882140E+03  0.36444319102E+03  0.41344538258E+03  0.00000000000E+00 0. -1.
         21    1    1    2  504  503 -0.11285594222E+02  0.20001494461E+02 -0.11443151381E+03  0.11671330588E+03  0.00000000000E+00 0. -1.
<mgrwt>
<rscale>  4 0.23335240E+03</rscale>
<asrwt>0</asrwt>
<pdfrwt beam="1">  1       21 0.68544114E-01 0.23335240E+03</pdfrwt>
<pdfrwt beam="2">  1       21 0.65383310E-01 0.23335240E+03</pdfrwt>
<totfact> 0.40491560E+03</totfact>
</mgrwt>
</event>
<event>
 5    0  0.1911311E+001  0.2593148E+03  0.7546771E-02  0.1107556E+00
         21   -1    0    0  503  501  0.00000000000E+00  0.00000000000E+00  0.32135519552E+03  0.32135519552E+03  0.00000000000E+00 0. -1.
         21   -1    0    0  504  502 -0.00000000000E+00 -0.00000000000E+00 -0.36577777336E+03  0.36577777336E+03  0.00000000000E+00 0. -1.
         25    1    1    2    0    0  0.21427672674E+03 -0.87719861271E+02 -0.20591437134E+03  0.33411826949E+03  0.12500000000E+03 0.  0.
         21    1    1    2  503  502  0.80163777047E+01  0.41751610742E+02 -0.33216503211E+02  0.53951787705E+02  0.00000000000E+00 0. -1.
         21    1    1    2  504  501 -0.22229310445E+03  0.45968250530E+02  0.19470829670E+03  0.29906291168E+03  0.00000000000E+00 0. -1.
<mgrwt>
<rscale>  4 0.25931480E+03</rscale>
<asrwt>0</asrwt>
<pdfrwt beam="1">  1       21 0.49439261E-01 0.25931480E+03</pdfrwt>
<pdfrwt beam="2">  1       21 0.56273503E-01 0.25931480E+03</pdfrwt>
<totfact> 0.11138584E+04</totfact>
</mgrwt>
</event>
