<event>
 5    0  0.1943430E+001  0.3678960E+03  0.7546771E-02  0.1055500E+00
         21   -1    0    0  503  501  0.00000000000E+00  0.00000000000E+00  0.86720944114E+03  0.86720944114E+03  0.00000000000E+00 0.  1.
         21   -1    0    0  504  502 -0.00000000000E+00 -0.00000000000E+00 -0.48683590712E+03  0.48683590712E+03  0.00000000000E+00 0. -1.
         25    1    1    2    0    0  0.25705982609E+03  0.14178025021E+03  0.36683310234E+03  0.48618198086E+03  0.12500000000E+03 0.  0.
         21    1    1    2  503  502  0.26958312758E+03 -0.29539119391E+02 -0.14368420992E+03  0.30690841375E+03  0.00000000000E+00 0. -1.
         21    1    1    2  504  501 -0.52664295367E+03 -0.11224113082E+03  0.15722464160E+03  0.56095495365E+03  0.00000000000E+00 0.  1.
<mgrwt>
<rscale>  4 0.36789599E+03</rscale>
<asrwt>0</asrwt>
<pdfrwt beam="1">  1       21 0.13341684E+00 0.36789599E+03</pdfrwt>
<pdfrwt beam="2">  1       21 0.74897832E-01 0.36789599E+03</pdfrwt>
<totfact> 0.56280507E+02</totfact>
</mgrwt>
</event>
<event>
 5    0  0.1943430E+001  0.8389132E+03  0.7546771E-02  0.9505339E-01
         21   -1    0    0  504  501  0.00000000000E+00  0.00000000000E+00  0.61556155568E+03  0.61556155568E+03  0.00000000000E+00 0. -1.
         21   -1    0    0  501  502 -0.00000000000E+00 -0.00000000000E+00 -0.13879284821E+04  0.13879284821E+04  0.00000000000E+00 0. -1.
         25    1    1    2    0    0 -0.83891014984E+03  0.42487106266E+02 -0.41557074123E+03  0.94546255064E+03  0.12500000000E+03 0.  0.
         21    1    1    2  503  502  0.80296460702E+03 -0.20289568420E+03 -0.26401929219E+03  0.86926693567E+03  0.00000000000E+00 0. -1.
         21    1    1    2  504  503  0.35945542815E+02  0.16040857794E+03 -0.92776893046E+02  0.18876055151E+03  0.00000000000E+00 0. -1.
<mgrwt>
<rscale>  4 0.83891316E+03</rscale>
<asrwt>0</asrwt>
<pdfrwt beam="1">  1       21 0.94701780E-01 0.83891316E+03</pdfrwt>
<pdfrwt beam="2">  1       21 0.21352745E+00 0.83891316E+03</pdfrwt>
<totfact> 0.69107146E+01</totfact>
</mgrwt>
</event>
<event>
 5    0  0.1943430E+001  0.2717466E+03  0.7546771E-02  0.1100284E+00
         21   -1    0    0  504  501  0.00000000000E+00  0.00000000000E+00  0.75150966902E+03  0.75150966902E+03  0.00000000000E+00 0.  1.
         21   -1    0    0  501  502 -0.00000000000E+00 -0.00000000000E+00 -0.39536556147E+03  0.39536556147E+03  0.00000000000E+00 0. -1.
         25    1    1    2    0    0  0.46994924241E+02  0.22292371297E+03  0.21488325464E+03  0.33719922573E+03  0.12500000000E+03 0.  0.
         21    1    1    2  503  502  0.16535316545E+02  0.17375764095E+02 -0.30121449591E+03  0.30216801025E+03  0.00000000000E+00 0. -1.
         21    1    1    2  504  503 -0.63530240786E+02 -0.24029947706E+03  0.44247534883E+03  0.50750799451E+03  0.00000000000E+00 0.  1.
<mgrwt>
<rscale>  4 0.27174663E+03</rscale>
<asrwt>0</asrwt>
<pdfrwt beam="1">  1       21 0.11561687E+00 0.27174663E+03</pdfrwt>
<pdfrwt beam="2">  1       21 0.60825471E-01 0.27174663E+03</pdfrwt>
<totfact> 0.13636562E+03</totfact>
</mgrwt>
</event>
<event>
 5    0  0.1943430E+001  0.3023011E+03  0.7546771E-02  0.1084096E+00
         21   -1    0    0  503  501  0.00000000000E+00  0.00000000000E+00  0.10242160070E+04  0.10242160070E+04  0.00000000000E+00 0. -1.
         21   -1    0    0  504  502 -0.00000000000E+00 -0.00000000000E+00 -0.89827424980E+02  0.89827424980E+02  0.00000000000E+00 0. -1.
         25    1    1    2    0    0  0.22252197641E+03 -0.16204008400E+03  0.40325742205E+03  0.50399857861E+03  0.12500000000E+03 0.  0.
         21    1    1    2  503  502 -0.23572355222E+03  0.14305560835E+03  0.47330022381E+03  0.54776235907E+03  0.00000000000E+00 0. -1.
         21    1    1    2  504  501  0.13201575806E+02  0.18984475644E+02  0.57830936173E+02  0.62282494313E+02  0.00000000000E+00 0.  1.
<mgrwt>
<rscale>  4 0.30230110E+03</rscale>
<asrwt>0</asrwt>
<pdfrwt beam="1">  1       21 0.15757169E+00 0.30230110E+03</pdfrwt>
<pdfrwt beam="2">  1       21 0.13819605E-01 0.30230110E+03</pdfrwt>
<totfact> 0.11162779E+04</totfact>
</mgrwt>
</event>
<event>
 5    0  0.1943430E+001  0.2545407E+03  0.7546771E-02  0.1110468E+00
         21   -1    0    0  503  501  0.00000000000E+00  0.00000000000E+00  0.28539356516E+03  0.28539356516E+03  0.00000000000E+00 0.  1.
         21   -1    0    0  504  502 -0.00000000000E+00 -0.00000000000E+00 -0.49639639706E+03  0.49639639706E+03  0.00000000000E+00 0.  1.
         25    1    1    2    0    0 -0.19419227285E+03 -0.10759289048E+03  0.16385490395E+03  0.30291962377E+03  0.12500000000E+03 0.  0.
         21    1    1    2  503  502  0.36080486481E+02 -0.58088203744E+02 -0.99281309748E+02  0.12055214384E+03  0.00000000000E+00 0.  1.
         21    1    1    2  504  501  0.15811178637E+03  0.16568109422E+03 -0.27557642610E+03  0.35831819462E+03  0.00000000000E+00 0.  1.
<mgrwt>
<rscale>  4 0.25454067E+03</rscale>
<asrwt>0</asrwt>
<pdfrwt beam="1">  1       21 0.43906702E-01 0.25454067E+03</pdfrwt>
<pdfrwt beam="2">  1       21 0.76368676E-01 0.25454067E+03</pdfrwt>
<totfact> 0.73076161E+03</totfact>
</mgrwt>
</event>
<event>
 5    0  0.1943430E+001  0.2875253E+03  0.7546771E-02  0.1091648E+00
         21   -1    0    0  504  501  0.00000000000E+00  0.00000000000E+00  0.23512209570E+03  0.23512209570E+03  0.00000000000E+00 0.  1.
         21   -1    0    0  503  502 -0.00000000000E+00 -0.00000000000E+00 -0.47557293104E+03  0.47557293104E+03  0.00000000000E+00 0. -1.
         25    1    1    2    0    0 -0.87583112739E+02 -0.23979299550E+03  0.60045206981E+02  0.29052006679E+03  0.12500000000E+03 0.  0.
         21    1    1    2  503  501  0.10880877288E+03  0.24720883484E+03 -0.28623095918E+03  0.39354760712E+03  0.00000000000E+00 0. -1.
         21    1    1    2  504  502 -0.21225660139E+02 -0.74158393410E+01 -0.14265083137E+02  0.26627352823E+02  0.00000000000E+00 0. -1.
<mgrwt>
<rscale>  4 0.28752530E+03</rscale>
<asrwt>0</asrwt>
<pdfrwt beam="1">  1       21 0.36172630E-01 0.28752530E+03</pdfrwt>
<pdfrwt beam="2">  1       21 0.73165066E-01 0.28752530E+03</pdfrwt>
<totfact> 0.11739053E+04</totfact>
</mgrwt>
</event>
<event>
 5    0  0.1943430E+001  0.2764737E+03  0.7546771E-02  0.1097631E+00
         21   -1    0    0  503  501  0.00000000000E+00  0.00000000000E+00  0.10142850990E+04  0.10142850990E+04  0.00000000000E+00 0.  1.
         21   -1    0    0  504  502 -0.00000000000E+00 -0.00000000000E+00 -0.86815273303E+02  0.86815273303E+02  0.00000000000E+00 0. -1.
         25    1    1    2    0    0  0.12049260254E+02  0.24610231069E+03  0.66994990208E+03  0.72468572726E+03  0.12500000000E+03 0.  0.
         21    1    1    2  503  502 -0.25447564070E+02  0.14298343465E+01  0.35006708482E+02  0.43302339222E+02  0.00000000000E+00 0. -1.
         21    1    1    2  504  501  0.13398303817E+02 -0.24753214504E+03  0.22251321512E+03  0.33311230580E+03  0.00000000000E+00 0. -1.
<mgrwt>
<rscale>  4 0.27647369E+03</rscale>
<asrwt>0</asrwt>
<pdfrwt beam="1">  1       21 0.15604385E+00 0.27647369E+03</pdfrwt>
<pdfrwt beam="2">  1       21 0.13356197E-01 0.27647369E+03</pdfrwt>
<totfact> 0.12359319E+04</totfact>
</mgrwt>
</event>
<event>
 5    0  0.1943430E+001  0.4403096E+03  0.7546771E-02  0.1030652E+00
         21   -1    0    0  503  501  0.00000000000E+00  0.00000000000E+00  0.92518014698E+03  0.92518014698E+03  0.00000000000E+00 0.  1.
         21   -1    0    0  504  502 -0.00000000000E+00 -0.00000000000E+00 -0.23920752036E+03  0.23920752036E+03  0.00000000000E+00 0. -1.
         25    1    1    2    0    0  0.34328116564E+03  0.24995190517E+03  0.52334079879E+03  0.68544037323E+03  0.12500000000E+03 0.  0.
         21    1    1    2  503  502 -0.18152294484E+02  0.13297572253E+02 -0.12138373921E+02  0.25566997170E+02  0.00000000000E+00 0. -1.
         21    1    1    2  504  501 -0.32512887116E+03 -0.26324947742E+03  0.17477020176E+03  0.45338029693E+03  0.00000000000E+00 0. -1.
<mgrwt>
<rscale>  4 0.44030956E+03</rscale>
<asrwt>0</asrwt>
<pdfrwt beam="1">  1       21 0.14233540E+00 0.44030956E+03</pdfrwt>
<pdfrwt beam="2">  1       21 0.36801158E-01 0.44030956E+03</pdfrwt>
<totfact> 0.21031768E+03</totfact>
</mgrwt>
</event>
<event>
 5    0  0.1943430E+001  0.3022114E+03  0.7546771E-02  0.1084140E+00
         21   -1    0    0  503  501  0.00000000000E+00  0.00000000000E+00  0.87911027967E+03  0.87911027967E+03  0.00000000000E+00 0.  1.
         21   -1    0    0  504  502 -0.00000000000E+00 -0.00000000000E+00 -0.13230981655E+04  0.13230981655E+04  0.00000000000E+00 0.  1.
         25    1    1    2    0    0 -0.26443928716E+03  0.38813916999E+02  0.40631752510E+03  0.50214896988E+03  0.12500000000E+03 0.  0.
         21    1    1    2  503  502  0.27129434360E+03 -0.86855575485E+02  0.37659750889E+03  0.47219719987E+03  0.00000000000E+00 0.  1.
         21    1    1    2  504  501 -0.68550564434E+01  0.48041658486E+02 -0.12269029198E+04  0.12278622754E+04  0.00000000000E+00 0.  1.
<mgrwt>
<rscale>  4 0.30221137E+03</rscale>
<asrwt>0</asrwt>
<pdfrwt beam="1">  1       21 0.13524774E+00 0.30221137E+03</pdfrwt>
<pdfrwt beam="2">  1       21 0.20355356E+00 0.30221137E+03</pdfrwt>
<totfact> 0.43465659E+01</totfact>
</mgrwt>
</event>
<event>
 5    0  0.1943430E+001  0.3550065E+03  0.7546771E-02  0.1060579E+00
         21   -1    0    0  504  501  0.00000000000E+00  0.00000000000E+00  0.54597412751E+03  0.54597412751E+03  0.00000000000E+00 0. -1.
         21   -1    0    0  501  502 -0.00000000000E+00 -0.00000000000E+00 -0.23498495842E+03  0.23498495842E+03  0.00000000000E+00 0. -1.
         25    1    1    2    0    0 -0.12009368551E+03  0.30980976839E+03  0.94416462613E+02  0.36734732108E+03  0.12500000000E+03 0.  0.
         21    1    1    2  503  502  0.45599261735E+02 -0.54807901797E+02  0.69775614843E+00  0.71299969382E+02  0.00000000000E+00 0. -1.
         21    1    1    2  504  503  0.74494423771E+02 -0.25500186659E+03  0.21587495033E+03  0.34231179547E+03  0.00000000000E+00 0. -1.
<mgrwt>
<rscale>  4 0.35500646E+03</rscale>
<asrwt>0</asrwt>
<pdfrwt beam="1">  1       21 0.83996019E-01 0.35500646E+03</pdfrwt>
<pdfrwt beam="2">  1       21 0.36151532E-01 0.35500646E+03</pdfrwt>
<totfact> 0.83342678E+03</totfact>
</mgrwt>
</event>
<event>
 5    0  0.1943430E+001  0.3289045E+03  0.7546771E-02  0.1071623E+00
         21   -1    0    0  503  501  0.00000000000E+00  0.00000000000E+00  0.43235836802E+03  0.43235836802E+03  0.00000000000E+00 0. -1.
         21   -1    0    0  504  502 -0.00000000000E+00 -0.00000000000E+00 -0.92141441759E+03  0.92141441759E+03  0.00000000000E+00 0.  1.
         25    1    1    2    0    0  0.12783579124E+03  0.20056557342E+03  0.68734329620E+02  0.27734084956E+03  0.12500000000E+03 0.  0.
         21    1    1    2  503  502 -0.20360436944E+03 -0.36307222899E+03  0.71265932614E+02  0.42232098678E+03  0.00000000000E+00 0. -1.
         21    1    1    2  504  501  0.75768578194E+02  0.16250665557E+03 -0.62905631180E+03  0.65411094928E+03  0.00000000000E+00 0.  1.
<mgrwt>
<rscale>  4 0.32890447E+03</rscale>
<asrwt>0</asrwt>
<pdfrwt beam="1">  1       21 0.66516672E-01 0.32890447E+03</pdfrwt>
<pdfrwt beam="2">  1       21 0.14175606E+00 0.32890447E+03</pdfrwt>
<totfact> 0.64119264E+02</totfact>
</mgrwt>
</event>
