<event>
 4    0  0.1264838E-002  0.6491606E+03  0.7546771E-02  0.9808356E-01
          2   -1    0    0  502    0  0.00000000000E+00  0.00000000000E+00  0.10260624543E+04  0.10260624543E+04  0.00000000000E+00 0. -1.
         -2   -1    0    0    0  501 -0.00000000000E+00 -0.00000000000E+00 -0.10267636960E+03  0.10267636960E+03  0.00000000000E+00 0.  1.
         25    1    1    2    0    0 -0.22075403469E+03  0.18650496076E+03  0.27184540801E+03  0.41598241558E+03  0.12500000000E+03 0.  0.
         21    1    1    2  502  501  0.22075403469E+03 -0.18650496076E+03  0.65154067674E+03  0.71275640836E+03  0.00000000000E+00 0. -1.
<mgrwt>
<rscale>  3 0.64916059E+03</rscale>
<asrwt>0</asrwt>
<pdfrwt beam="1">  1        2 0.15785576E+00 0.64916059E+03</pdfrwt>
<pdfrwt beam="2">  1       -2 0.15796365E-01 0.64916059E+03</pdfrwt>
<totfact> 0.78407144E+02</totfact>
</mgrwt>
</event>
<event>
 4    0  0.1264838E-002  0.4553508E+03  0.7546771E-02  0.1026138E+00
         -2   -1    0    0    0  501 -0.00000000000E+00  0.00000000000E+00  0.22436777900E+03  0.22436777900E+03  0.00000000000E+00 0.  1.
          2   -1    0    0  502    0  0.00000000000E+00 -0.00000000000E+00 -0.23103182363E+03  0.23103182363E+03  0.00000000000E+00 0. -1.
         25    1    1    2    0    0  0.20432339721E+03  0.99107686955E+01 -0.53304526215E+02  0.24558633206E+03  0.12500000000E+03 0.  0.
         21    1    1    2  502  501 -0.20432339721E+03 -0.99107686955E+01  0.46640481579E+02  0.20981327056E+03  0.00000000000E+00 0.  1.
<mgrwt>
<rscale>  3 0.45535084E+03</rscale>
<asrwt>0</asrwt>
<pdfrwt beam="1">  1        2 0.35543358E-01 0.45535084E+03</pdfrwt>
<pdfrwt beam="2">  1       -2 0.34518120E-01 0.45535084E+03</pdfrwt>
<totfact> 0.11548643E+03</totfact>
</mgrwt>
</event>
<event>
 4    0  0.1264838E-002  0.8703405E+03  0.7546771E-02  0.9463436E-01
         -1   -1    0    0    0  501 -0.00000000000E+00  0.00000000000E+00  0.20413753258E+03  0.20413753258E+03  0.00000000000E+00 0.  1.
          1   -1    0    0  502    0  0.00000000000E+00 -0.00000000000E+00 -0.92767436691E+03  0.92767436691E+03  0.00000000000E+00 0. -1.
         25    1    1    2    0    0 -0.90294029386E+02 -0.38164266348E+03 -0.58619937835E+03  0.71628126145E+03  0.12500000000E+03 0.  0.
         21    1    1    2  502  501  0.90294029386E+02  0.38164266348E+03 -0.13733745598E+03  0.41553063804E+03  0.00000000000E+00 0.  1.
<mgrwt>
<rscale>  3 0.87034052E+03</rscale>
<asrwt>0</asrwt>
<pdfrwt beam="1">  1        1 0.14271914E+00 0.87034052E+03</pdfrwt>
<pdfrwt beam="2">  1       -1 0.31405774E-01 0.87034052E+03</pdfrwt>
<totfact> 0.16380552E+02</totfact>
</mgrwt>
</event>
<event>
 4    0  0.1264838E-002  0.5863749E+03  0.7546771E-02  0.9934084E-01
         -2   -1    0    0    0  501 -0.00000000000E+00  0.00000000000E+00  0.30319252101E+02  0.30319252101E+02  0.00000000000E+00 0. -1.
          2   -1    0    0  502    0  0.00000000000E+00 -0.00000000000E+00 -0.28351252077E+04  0.28351252077E+04  0.00000000000E+00 0.  1.
         25    1    1    2    0    0 -0.25535229052E+03 -0.78598441374E+02 -0.10589966395E+04  0.10993095059E+04  0.12500000000E+03 0.  0.
         21    1    1    2  502  501  0.25535229052E+03  0.78598441374E+02 -0.17458093161E+04  0.17661349540E+04  0.00000000000E+00 0. -1.
<mgrwt>
<rscale>  3 0.58637488E+03</rscale>
<asrwt>0</asrwt>
<pdfrwt beam="1">  1        2 0.43617321E+00 0.58637488E+03</pdfrwt>
<pdfrwt beam="2">  1       -2 0.46644992E-02 0.58637488E+03</pdfrwt>
<totfact> 0.53995338E+02</totfact>
</mgrwt>
</event>
<event>
 4    0  0.1264838E-002  0.6833382E+03  0.7546771E-02  0.9746158E-01
          1   -1    0    0  502    0  0.00000000000E+00  0.00000000000E+00  0.96959346819E+02  0.96959346819E+02  0.00000000000E+00 0.  1.
         -1   -1    0    0    0  501 -0.00000000000E+00 -0.00000000000E+00 -0.12039868526E+04  0.12039868526E+04  0.00000000000E+00 0. -1.
         25    1    1    2    0    0 -0.12632480317E+03 -0.22906535781E+03 -0.18830020247E+03  0.34570342824E+03  0.12500000000E+03 0.  0.
         21    1    1    2  502  501  0.12632480317E+03  0.22906535781E+03 -0.91872730328E+03  0.95524277115E+03  0.00000000000E+00 0. -1.
<mgrwt>
<rscale>  3 0.68333821E+03</rscale>
<asrwt>0</asrwt>
<pdfrwt beam="1">  1        1 0.14916823E-01 0.68333821E+03</pdfrwt>
<pdfrwt beam="2">  1       -1 0.18522874E+00 0.68333821E+03</pdfrwt>
<totfact> 0.76060307E+01</totfact>
</mgrwt>
</event>
<event>
 4    0  0.1264838E-002  0.6335295E+03  0.7546771E-02  0.9838185E-01
         -2   -1    0    0    0  501 -0.00000000000E+00  0.00000000000E+00  0.61655096675E+02  0.61655096675E+02  0.00000000000E+00 0. -1.
          2   -1    0    0  502    0  0.00000000000E+00 -0.00000000000E+00 -0.16274391805E+04  0.16274391805E+04  0.00000000000E+00 0.  1.
         25    1    1    2    0    0  0.10204798341E+03 -0.20352075368E+03 -0.13522060141E+04  0.13769243235E+04  0.12500000000E+03 0.  0.
         21    1    1    2  502  501 -0.10204798341E+03  0.20352075368E+03 -0.21357806968E+03  0.31216995363E+03  0.00000000000E+00 0. -1.
<mgrwt>
<rscale>  3 0.63352954E+03</rscale>
<asrwt>0</asrwt>
<pdfrwt beam="1">  1        2 0.25037527E+00 0.63352954E+03</pdfrwt>
<pdfrwt beam="2">  1       -2 0.94853992E-02 0.63352954E+03</pdfrwt>
<totfact> 0.82190263E+02</totfact>
</mgrwt>
</event>
<event>
 4    0  0.1264838E-002  0.4783316E+03  0.7546771E-02  0.1019595E+00
          2   -1    0    0  502    0  0.00000000000E+00  0.00000000000E+00  0.18555782681E+04  0.18555782681E+04  0.00000000000E+00 0. -1.
         -2   -1    0    0    0  501 -0.00000000000E+00 -0.00000000000E+00 -0.30826114936E+02  0.30826114936E+02  0.00000000000E+00 0.  1.
         25    1    1    2    0    0 -0.14136325721E+03  0.16972986554E+03  0.10905189801E+04  0.11196644336E+04  0.12500000000E+03 0.  0.
         21    1    1    2  502  501  0.14136325721E+03 -0.16972986554E+03  0.73423317300E+03  0.76673994945E+03  0.00000000000E+00 0.  1.
<mgrwt>
<rscale>  3 0.47833155E+03</rscale>
<asrwt>0</asrwt>
<pdfrwt beam="1">  1        2 0.28547349E+00 0.47833155E+03</pdfrwt>
<pdfrwt beam="2">  1       -2 0.47424807E-02 0.47833155E+03</pdfrwt>
<totfact> 0.18580726E+03</totfact>
</mgrwt>
</event>
<event>
 4    0  0.1264838E-002  0.4383355E+03  0.7546771E-02  0.1031259E+00
         -2   -1    0    0    0  501 -0.00000000000E+00  0.00000000000E+00  0.11766815331E+03  0.11766815331E+03  0.00000000000E+00 0. -1.
          2   -1    0    0  502    0  0.00000000000E+00 -0.00000000000E+00 -0.40822013589E+03  0.40822013589E+03  0.00000000000E+00 0.  1.
         25    1    1    2    0    0  0.14572583158E+03 -0.13791013336E+03 -0.13685572321E+03  0.27314778390E+03  0.12500000000E+03 0.  0.
         21    1    1    2  502  501 -0.14572583158E+03  0.13791013336E+03 -0.15369625938E+03  0.25274050530E+03  0.00000000000E+00 0.  1.
<mgrwt>
<rscale>  3 0.43833553E+03</rscale>
<asrwt>0</asrwt>
<pdfrwt beam="1">  1        2 0.62803098E-01 0.43833553E+03</pdfrwt>
<pdfrwt beam="2">  1       -2 0.18102793E-01 0.43833553E+03</pdfrwt>
<totfact> 0.19595754E+03</totfact>
</mgrwt>
</event>
<event>
 4    0  0.1264838E-002  0.5018171E+03  0.7546771E-02  0.1013306E+00
         -2   -1    0    0    0  501 -0.00000000000E+00  0.00000000000E+00  0.18710927099E+02  0.18710927099E+02  0.00000000000E+00 0. -1.
          2   -1    0    0  502    0  0.00000000000E+00 -0.00000000000E+00 -0.33646171760E+04  0.33646171760E+04  0.00000000000E+00 0.  1.
         25    1    1    2    0    0 -0.21101929165E+03 -0.96827986840E+02 -0.15173650597E+04  0.15401060109E+04  0.12500000000E+03 0.  0.
         21    1    1    2  502  501  0.21101929165E+03  0.96827986840E+02 -0.18285411893E+04  0.18432220922E+04  0.00000000000E+00 0. -1.
<mgrwt>
<rscale>  3 0.50181712E+03</rscale>
<asrwt>0</asrwt>
<pdfrwt beam="1">  1        2 0.51763325E+00 0.50181712E+03</pdfrwt>
<pdfrwt beam="2">  1       -2 0.28786051E-02 0.50181712E+03</pdfrwt>
<totfact> 0.53616042E+02</totfact>
</mgrwt>
</event>
<event>
 4    0  0.1264838E-002  0.4893302E+03  0.7546771E-02  0.1016602E+00
          2   -1    0    0  502    0  0.00000000000E+00  0.00000000000E+00  0.37129055923E+03  0.37129055923E+03  0.00000000000E+00 0. -1.
         -2   -1    0    0    0  501 -0.00000000000E+00 -0.00000000000E+00 -0.16122419812E+03  0.16122419812E+03  0.00000000000E+00 0.  1.
         25    1    1    2    0    0 -0.22821165934E+03 -0.95851426702E+01  0.99432020228E+02  0.27871878850E+03  0.12500000000E+03 0.  0.
         21    1    1    2  502  501  0.22821165934E+03  0.95851426702E+01  0.11063434088E+03  0.25379596884E+03  0.00000000000E+00 0. -1.
<mgrwt>
<rscale>  3 0.48933025E+03</rscale>
<asrwt>0</asrwt>
<pdfrwt beam="1">  1        2 0.57121624E-01 0.48933025E+03</pdfrwt>
<pdfrwt beam="2">  1       -2 0.24803723E-01 0.48933025E+03</pdfrwt>
<totfact> 0.12564153E+03</totfact>
</mgrwt>
</event>
<event>
 4    0  0.1264838E-002  0.5481678E+03  0.7546771E-02  0.1001919E+00
          1   -1    0    0  502    0  0.00000000000E+00  0.00000000000E+00  0.38483304139E+03  0.38483304139E+03  0.00000000000E+00 0.  1.
         -1   -1    0    0    0  501 -0.00000000000E+00 -0.00000000000E+00 -0.19520670079E+03  0.19520670079E+03  0.00000000000E+00 0. -1.
         25    1    1    2    0    0  0.85255255551E+02  0.24488850408E+03  0.82235297538E+02  0.29937682307E+03  0.12500000000E+03 0.  0.
         21    1    1    2  502  501 -0.85255255551E+02 -0.24488850408E+03  0.10739104307E+03  0.28066291911E+03  0.00000000000E+00 0. -1.
<mgrwt>
<rscale>  3 0.54816782E+03</rscale>
<asrwt>0</asrwt>
<pdfrwt beam="1">  1        1 0.59205083E-01 0.54816782E+03</pdfrwt>
<pdfrwt beam="2">  1       -1 0.30031800E-01 0.54816782E+03</pdfrwt>
<totfact> 0.64869611E+02</totfact>
</mgrwt>
</event>
<event>
 4    0  0.1264838E-002  0.4528912E+03  0.7546771E-02  0.1026863E+00
         -1   -1    0    0    0  501 -0.00000000000E+00  0.00000000000E+00  0.72229402731E+03  0.72229402731E+03  0.00000000000E+00 0.  1.
          1   -1    0    0  502    0  0.00000000000E+00 -0.00000000000E+00 -0.70992717483E+02  0.70992717483E+02  0.00000000000E+00 0. -1.
         25    1    1    2    0    0 -0.85254365181E+02 -0.18429328225E+03  0.43856880381E+03  0.49919927519E+03  0.12500000000E+03 0.  0.
         21    1    1    2  502  501  0.85254365181E+02  0.18429328225E+03  0.21273250602E+03  0.29408746961E+03  0.00000000000E+00 0. -1.
<mgrwt>
<rscale>  3 0.45289123E+03</rscale>
<asrwt>0</asrwt>
<pdfrwt beam="1">  1        1 0.10921957E-01 0.45289123E+03</pdfrwt>
<pdfrwt beam="2">  1       -1 0.11112215E+00 0.45289123E+03</pdfrwt>
<totfact> 0.45046093E+02</totfact>
</mgrwt>
</event>
<event>
 4    0  0.1264838E-002  0.4938311E+03  0.7546771E-02  0.1015402E+00
         -1   -1    0    0    0  501 -0.00000000000E+00  0.00000000000E+00  0.61745442700E+02  0.61745442700E+02  0.00000000000E+00 0. -1.
          1   -1    0    0  502    0  0.00000000000E+00 -0.00000000000E+00 -0.98739729980E+03  0.98739729980E+03  0.00000000000E+00 0.  1.
         25    1    1    2    0    0  0.10706373328E+03 -0.19675548977E+03 -0.37174370811E+03  0.45165667299E+03  0.12500000000E+03 0.  0.
         21    1    1    2  502  501 -0.10706373328E+03  0.19675548977E+03 -0.55390814899E+03  0.59748606951E+03  0.00000000000E+00 0. -1.
<mgrwt>
<rscale>  3 0.49383108E+03</rscale>
<asrwt>0</asrwt>
<pdfrwt beam="1">  1        1 0.15190727E+00 0.49383108E+03</pdfrwt>
<pdfrwt beam="2">  1       -1 0.94992991E-02 0.49383108E+03</pdfrwt>
<totfact> 0.10739724E+03</totfact>
</mgrwt>
</event>
<event>
 4    0  0.1264838E-002  0.5008007E+03  0.7546771E-02  0.1013570E+00
         -2   -1    0    0    0  501 -0.00000000000E+00  0.00000000000E+00  0.13289772183E+03  0.13289772183E+03  0.00000000000E+00 0. -1.
          2   -1    0    0  502    0  0.00000000000E+00 -0.00000000000E+00 -0.47179390645E+03  0.47179390645E+03  0.00000000000E+00 0.  1.
         25    1    1    2    0    0 -0.23125805387E+03  0.16889700082E+02 -0.22462564407E+03  0.34618958595E+03  0.12500000000E+03 0.  0.
         21    1    1    2  502  501  0.23125805387E+03 -0.16889700082E+02 -0.11427054055E+03  0.25850204232E+03  0.00000000000E+00 0. -1.
<mgrwt>
<rscale>  3 0.50080070E+03</rscale>
<asrwt>0</asrwt>
<pdfrwt beam="1">  1        2 0.72583678E-01 0.50080070E+03</pdfrwt>
<pdfrwt beam="2">  1       -2 0.20445803E-01 0.50080070E+03</pdfrwt>
<totfact> 0.13515051E+03</totfact>
</mgrwt>
</event>
<event>
 4    0  0.1264838E-002  0.4876339E+03  0.7546771E-02  0.1017058E+00
         -2   -1    0    0    0  501 -0.00000000000E+00  0.00000000000E+00  0.16687837630E+03  0.16687837630E+03  0.00000000000E+00 0. -1.
          2   -1    0    0  502    0  0.00000000000E+00 -0.00000000000E+00 -0.35622767599E+03  0.35622767599E+03  0.00000000000E+00 0.  1.
         25    1    1    2    0    0  0.15478179322E+03  0.15590449965E+03 -0.36287893375E+02  0.25535353479E+03  0.12500000000E+03 0.  0.
         21    1    1    2  502  501 -0.15478179322E+03 -0.15590449965E+03 -0.15306140631E+03  0.26775251750E+03  0.00000000000E+00 0.  1.
<mgrwt>
<rscale>  3 0.48763386E+03</rscale>
<asrwt>0</asrwt>
<pdfrwt beam="1">  1        2 0.54804257E-01 0.48763386E+03</pdfrwt>
<pdfrwt beam="2">  1       -2 0.25673597E-01 0.48763386E+03</pdfrwt>
<totfact> 0.12364843E+03</totfact>
</mgrwt>
</event>
<event>
 4    0  0.1264838E-002  0.4459746E+03  0.7546771E-02  0.1028929E+00
          2   -1    0    0  502    0  0.00000000000E+00  0.00000000000E+00  0.26595954061E+04  0.26595954061E+04  0.00000000000E+00 0. -1.
         -2   -1    0    0    0  501 -0.00000000000E+00 -0.00000000000E+00 -0.18695824852E+02  0.18695824852E+02  0.00000000000E+00 0.  1.
         25    1    1    2    0    0 -0.92011697039E+01 -0.20265132925E+03  0.12281548329E+04  0.12510561604E+04  0.12500000000E+03 0.  0.
         21    1    1    2  502  501  0.92011697039E+01  0.20265132925E+03  0.14127447483E+04  0.14272350705E+04  0.00000000000E+00 0. -1.
<mgrwt>
<rscale>  3 0.44597457E+03</rscale>
<asrwt>0</asrwt>
<pdfrwt beam="1">  1        2 0.40916822E+00 0.44597457E+03</pdfrwt>
<pdfrwt beam="2">  1       -2 0.28762829E-02 0.44597457E+03</pdfrwt>
<totfact> 0.14473427E+03</totfact>
</mgrwt>
</event>
<event>
 4    0  0.1264838E-002  0.4604830E+03  0.7546771E-02  0.1024641E+00
          2   -1    0    0  502    0  0.00000000000E+00  0.00000000000E+00  0.83979576438E+03  0.83979576438E+03  0.00000000000E+00 0.  1.
         -2   -1    0    0    0  501 -0.00000000000E+00 -0.00000000000E+00 -0.63123850245E+02  0.63123850245E+02  0.00000000000E+00 0. -1.
         25    1    1    2    0    0  0.16530801403E+03  0.12382688814E+03  0.31270257157E+03  0.39505409250E+03  0.12500000000E+03 0.  0.
         21    1    1    2  502  501 -0.16530801403E+03 -0.12382688814E+03  0.46396934256E+03  0.50786552213E+03  0.00000000000E+00 0.  1.
<mgrwt>
<rscale>  3 0.46048297E+03</rscale>
<asrwt>0</asrwt>
<pdfrwt beam="1">  1        2 0.12919934E+00 0.46048297E+03</pdfrwt>
<pdfrwt beam="2">  1       -2 0.97113622E-02 0.46048297E+03</pdfrwt>
<totfact> 0.23242878E+03</totfact>
</mgrwt>
</event>
<event>
 4    0  0.1264838E-002  0.5427088E+03  0.7546771E-02  0.1003196E+00
          1   -1    0    0  502    0  0.00000000000E+00  0.00000000000E+00  0.52141802290E+03  0.52141802290E+03  0.00000000000E+00 0.  1.
         -1   -1    0    0    0  501 -0.00000000000E+00 -0.00000000000E+00 -0.14121721465E+03  0.14121721465E+03  0.00000000000E+00 0. -1.
         25    1    1    2    0    0 -0.26132313397E+02 -0.22499732302E+03  0.34832780100E+03  0.43389393879E+03  0.12500000000E+03 0.  0.
         21    1    1    2  502  501  0.26132313397E+02  0.22499732302E+03  0.31873007244E+02  0.22874129876E+03  0.00000000000E+00 0. -1.
<mgrwt>
<rscale>  3 0.54270876E+03</rscale>
<asrwt>0</asrwt>
<pdfrwt beam="1">  1        1 0.80218156E-01 0.54270876E+03</pdfrwt>
<pdfrwt beam="2">  1       -1 0.21725726E-01 0.54270876E+03</pdfrwt>
<totfact> 0.74920687E+02</totfact>
</mgrwt>
</event>
<event>
 4    0  0.1264838E-002  0.7989437E+03  0.7546771E-02  0.9561547E-01
         -4   -1    0    0    0  501 -0.00000000000E+00  0.00000000000E+00  0.17407142377E+03  0.17407142377E+03  0.00000000000E+00 0. -1.
          4   -1    0    0  502    0  0.00000000000E+00 -0.00000000000E+00 -0.91673728336E+03  0.91673728336E+03  0.00000000000E+00 0.  1.
         25    1    1    2    0    0 -0.24665812500E+03 -0.26754034724E+03 -0.57079857354E+03  0.68837059756E+03  0.12500000000E+03 0.  0.
         21    1    1    2  502  501  0.24665812500E+03  0.26754034724E+03 -0.17186728605E+03  0.40243810958E+03  0.00000000000E+00 0.  1.
<mgrwt>
<rscale>  3 0.79894371E+03</rscale>
<asrwt>0</asrwt>
<pdfrwt beam="1">  1        4 0.14103650E+00 0.79894371E+03</pdfrwt>
<pdfrwt beam="2">  1       -4 0.26780219E-01 0.79894371E+03</pdfrwt>
<totfact> 0.93485831E+00</totfact>
</mgrwt>
</event>
<event>
 4    0  0.1530119E-002  0.6117811E+03  0.7546771E-02  0.9881261E-01
         -2   -1    0    0    0  501 -0.00000000000E+00  0.00000000000E+00  0.14761857808E+03  0.14761857808E+03  0.00000000000E+00 0. -1.
          2   -1    0    0  502    0  0.00000000000E+00 -0.00000000000E+00 -0.63385673116E+03  0.63385673116E+03  0.00000000000E+00 0.  1.
         25    1    1    2    0    0 -0.11749046511E+03  0.19125186421E+03 -0.12462439625E+02  0.25721896773E+03  0.12500000000E+03 0.  0.
         21    1    1    2  502  501  0.11749046511E+03 -0.19125186421E+03 -0.47377571346E+03  0.52425634152E+03  0.00000000000E+00 0.  1.
<mgrwt>
<rscale>  3 0.61178110E+03</rscale>
<asrwt>0</asrwt>
<pdfrwt beam="1">  1        2 0.97516420E-01 0.61178110E+03</pdfrwt>
<pdfrwt beam="2">  1       -2 0.22710551E-01 0.61178110E+03</pdfrwt>
<totfact> 0.79416312E+02</totfact>
</mgrwt>
</event>
<event>
 4    0  0.1264838E-002  0.5364833E+03  0.7546771E-02  0.1004672E+00
         -2   -1    0    0    0  501 -0.00000000000E+00  0.00000000000E+00  0.23451084581E+03  0.23451084581E+03  0.00000000000E+00 0.  1.
          2   -1    0    0  502    0  0.00000000000E+00 -0.00000000000E+00 -0.30682412936E+03  0.30682412936E+03  0.00000000000E+00 0. -1.
         25    1    1    2    0    0  0.12358837382E+03  0.17953633435E+03 -0.16908454322E+03  0.30285634260E+03  0.12500000000E+03 0.  0.
         21    1    1    2  502  501 -0.12358837382E+03 -0.17953633435E+03  0.96771259670E+02  0.23847863257E+03  0.00000000000E+00 0.  1.
<mgrwt>
<rscale>  3 0.53648331E+03</rscale>
<asrwt>0</asrwt>
<pdfrwt beam="1">  1        2 0.47203712E-01 0.53648331E+03</pdfrwt>
<pdfrwt beam="2">  1       -2 0.36078592E-01 0.53648331E+03</pdfrwt>
<totfact> 0.77732276E+02</totfact>
</mgrwt>
</event>
<event>
 4    0  0.1264838E-002  0.4547995E+03  0.7546771E-02  0.1026300E+00
         -1   -1    0    0    0  501 -0.00000000000E+00  0.00000000000E+00  0.65431840830E+02  0.65431840830E+02  0.00000000000E+00 0.  1.
          1   -1    0    0  502    0  0.00000000000E+00 -0.00000000000E+00 -0.79029788335E+03  0.79029788335E+03  0.00000000000E+00 0. -1.
         25    1    1    2    0    0 -0.25473677610E+02 -0.20680412159E+03 -0.44223801236E+03  0.50459519670E+03  0.12500000000E+03 0.  0.
         21    1    1    2  502  501  0.25473677610E+02  0.20680412159E+03 -0.28262803016E+03  0.35113452748E+03  0.00000000000E+00 0.  1.
<mgrwt>
<rscale>  3 0.45479950E+03</rscale>
<asrwt>0</asrwt>
<pdfrwt beam="1">  1        1 0.12158429E+00 0.45479950E+03</pdfrwt>
<pdfrwt beam="2">  1       -1 0.10066437E-01 0.45479950E+03</pdfrwt>
<totfact> 0.14171032E+03</totfact>
</mgrwt>
</event>
<event>
 4    0  0.1264838E-002  0.6080230E+03  0.7546771E-02  0.9888899E-01
         -1   -1    0    0    0  501 -0.00000000000E+00  0.00000000000E+00  0.72567913855E+02  0.72567913855E+02  0.00000000000E+00 0. -1.
          1   -1    0    0  502    0  0.00000000000E+00 -0.00000000000E+00 -0.12736067052E+04  0.12736067052E+04  0.00000000000E+00 0.  1.
         25    1    1    2    0    0 -0.28935053203E+03 -0.12004223439E+02 -0.55919445599E+03  0.64202123904E+03  0.12500000000E+03 0.  0.
         21    1    1    2  502  501  0.28935053203E+03  0.12004223439E+02 -0.64184433537E+03  0.70415338004E+03  0.00000000000E+00 0.  1.
<mgrwt>
<rscale>  3 0.60802297E+03</rscale>
<asrwt>0</asrwt>
<pdfrwt beam="1">  1        1 0.19593951E+00 0.60802297E+03</pdfrwt>
<pdfrwt beam="2">  1       -1 0.11164294E-01 0.60802297E+03</pdfrwt>
<totfact> 0.51064362E+02</totfact>
</mgrwt>
</event>
<event>
 4    0  0.1264838E-002  0.4941473E+03  0.7546771E-02  0.1015318E+00
          1   -1    0    0  502    0  0.00000000000E+00  0.00000000000E+00  0.40673139033E+03  0.40673139033E+03  0.00000000000E+00 0.  1.
         -1   -1    0    0    0  501 -0.00000000000E+00 -0.00000000000E+00 -0.15008771868E+03  0.15008771868E+03  0.00000000000E+00 0. -1.
         25    1    1    2    0    0 -0.11575585053E+03 -0.19615397292E+03  0.91360784194E+02  0.27540441339E+03  0.12500000000E+03 0.  0.
         21    1    1    2  502  501  0.11575585053E+03  0.19615397292E+03  0.16528288746E+03  0.28141469562E+03  0.00000000000E+00 0. -1.
<mgrwt>
<rscale>  3 0.49414729E+03</rscale>
<asrwt>0</asrwt>
<pdfrwt beam="1">  1        1 0.62574060E-01 0.49414729E+03</pdfrwt>
<pdfrwt beam="2">  1       -1 0.23090418E-01 0.49414729E+03</pdfrwt>
<totfact> 0.94477795E+02</totfact>
</mgrwt>
</event>
<event>
 4    0  0.1264838E-002  0.4426220E+03  0.7546771E-02  0.1029945E+00
          2   -1    0    0  502    0  0.00000000000E+00  0.00000000000E+00  0.25729168790E+04  0.25729168790E+04  0.00000000000E+00 0.  1.
         -2   -1    0    0    0  501 -0.00000000000E+00 -0.00000000000E+00 -0.19036202045E+02  0.19036202045E+02  0.00000000000E+00 0. -1.
         25    1    1    2    0    0 -0.83105165657E+02  0.18395257818E+03  0.15372796674E+04  0.15555059612E+04  0.12500000000E+03 0.  0.
         21    1    1    2  502  501  0.83105165657E+02 -0.18395257818E+03  0.10166010096E+04  0.10364471199E+04  0.00000000000E+00 0.  1.
<mgrwt>
<rscale>  3 0.44262203E+03</rscale>
<asrwt>0</asrwt>
<pdfrwt beam="1">  1        2 0.39583309E+00 0.44262203E+03</pdfrwt>
<pdfrwt beam="2">  1       -2 0.29286485E-02 0.44262203E+03</pdfrwt>
<totfact> 0.15773830E+03</totfact>
</mgrwt>
</event>
<event>
 4    0  0.1264838E-002  0.5758027E+03  0.7546771E-02  0.9956920E-01
         -1   -1    0    0    0  501 -0.00000000000E+00  0.00000000000E+00  0.25038384987E+03  0.25038384987E+03  0.00000000000E+00 0. -1.
          1   -1    0    0  502    0  0.00000000000E+00 -0.00000000000E+00 -0.33104047353E+03  0.33104047353E+03  0.00000000000E+00 0.  1.
         25    1    1    2    0    0 -0.17568478365E+03  0.21067193931E+03 -0.38884433831E+02  0.30394869372E+03  0.12500000000E+03 0.  0.
         21    1    1    2  502  501  0.17568478365E+03 -0.21067193931E+03 -0.41772189835E+02  0.27747562968E+03  0.00000000000E+00 0.  1.
<mgrwt>
<rscale>  3 0.57580270E+03</rscale>
<asrwt>0</asrwt>
<pdfrwt beam="1">  1        1 0.50929304E-01 0.57580270E+03</pdfrwt>
<pdfrwt beam="2">  1       -1 0.38520592E-01 0.57580270E+03</pdfrwt>
<totfact> 0.50835997E+02</totfact>
</mgrwt>
</event>
<event>
 4    0  0.1264838E-002  0.5619180E+03  0.7546771E-02  0.9987724E-01
          4   -1    0    0  502    0  0.00000000000E+00  0.00000000000E+00  0.73616676877E+03  0.73616676877E+03  0.00000000000E+00 0.  1.
         -4   -1    0    0    0  501 -0.00000000000E+00 -0.00000000000E+00 -0.10722836913E+03  0.10722836913E+03  0.00000000000E+00 0. -1.
         25    1    1    2    0    0  0.22938260941E+03 -0.13578045411E+03  0.35451231879E+03  0.46082176315E+03  0.12500000000E+03 0.  0.
         21    1    1    2  502  501 -0.22938260941E+03  0.13578045411E+03  0.27442608085E+03  0.38257337475E+03  0.00000000000E+00 0. -1.
<mgrwt>
<rscale>  3 0.56191801E+03</rscale>
<asrwt>0</asrwt>
<pdfrwt beam="1">  1        4 0.11325642E+00 0.56191801E+03</pdfrwt>
<pdfrwt beam="2">  1       -4 0.16496673E-01 0.56191801E+03</pdfrwt>
<totfact> 0.39475164E+01</totfact>
</mgrwt>
</event>
<event>
 4    0  0.1264838E-002  0.5042172E+03  0.7546771E-02  0.1012684E+00
          2   -1    0    0  502    0  0.00000000000E+00  0.00000000000E+00  0.80798671639E+03  0.80798671639E+03  0.00000000000E+00 0. -1.
         -2   -1    0    0    0  501 -0.00000000000E+00 -0.00000000000E+00 -0.78663112426E+02  0.78663112426E+02  0.00000000000E+00 0.  1.
         25    1    1    2    0    0 -0.16269663881E+03 -0.15427326625E+03  0.52001981555E+03  0.57992762094E+03  0.12500000000E+03 0.  0.
         21    1    1    2  502  501  0.16269663881E+03  0.15427326625E+03  0.20930378841E+03  0.30672220788E+03  0.00000000000E+00 0.  1.
<mgrwt>
<rscale>  3 0.50421721E+03</rscale>
<asrwt>0</asrwt>
<pdfrwt beam="1">  1        2 0.12430564E+00 0.50421721E+03</pdfrwt>
<pdfrwt beam="2">  1       -2 0.12102018E-01 0.50421721E+03</pdfrwt>
<totfact> 0.17105919E+03</totfact>
</mgrwt>
</event>
<event>
 4    0  0.1264838E-002  0.4554678E+03  0.7546771E-02  0.1026104E+00
         -1   -1    0    0    0  501 -0.00000000000E+00  0.00000000000E+00  0.14382733070E+03  0.14382733070E+03  0.00000000000E+00 0. -1.
          1   -1    0    0  502    0  0.00000000000E+00 -0.00000000000E+00 -0.36059019997E+03  0.36059019997E+03  0.00000000000E+00 0.  1.
         25    1    1    2    0    0  0.17404479391E+03 -0.11602827025E+03 -0.89637597368E+02  0.25964215499E+03  0.12500000000E+03 0.  0.
         21    1    1    2  502  501 -0.17404479391E+03  0.11602827025E+03 -0.12712527190E+03  0.24477537568E+03  0.00000000000E+00 0. -1.
<mgrwt>
<rscale>  3 0.45546779E+03</rscale>
<asrwt>0</asrwt>
<pdfrwt beam="1">  1        1 0.55475415E-01 0.45546779E+03</pdfrwt>
<pdfrwt beam="2">  1       -1 0.22127282E-01 0.45546779E+03</pdfrwt>
<totfact> 0.11869572E+03</totfact>
</mgrwt>
</event>
<event>
 4    0  0.1264838E-002  0.1216121E+04  0.7546771E-02  0.9098862E-01
          2   -1    0    0  502    0  0.00000000000E+00  0.00000000000E+00  0.16363333701E+04  0.16363333701E+04  0.00000000000E+00 0. -1.
         -2   -1    0    0    0  501 -0.00000000000E+00 -0.00000000000E+00 -0.22595477373E+03  0.22595477373E+03  0.00000000000E+00 0.  1.
         25    1    1    2    0    0 -0.25470778865E+03  0.16186321362E+03 -0.84376340726E+02  0.33737238239E+03  0.12500000000E+03 0.  0.
         21    1    1    2  502  501  0.25470778865E+03 -0.16186321362E+03  0.14947549371E+04  0.15249157615E+04  0.00000000000E+00 0. -1.
<mgrwt>
<rscale>  3 0.12161206E+04</rscale>
<asrwt>0</asrwt>
<pdfrwt beam="1">  1        2 0.25174359E+00 0.12161206E+04</pdfrwt>
<pdfrwt beam="2">  1       -2 0.34762274E-01 0.12161206E+04</pdfrwt>
<totfact> 0.81391545E+01</totfact>
</mgrwt>
</event>
<event>
 4    0  0.1264838E-002  0.4695172E+03  0.7546771E-02  0.1022057E+00
          2   -1    0    0  502    0  0.00000000000E+00  0.00000000000E+00  0.23425951091E+04  0.23425951091E+04  0.00000000000E+00 0. -1.
         -2   -1    0    0    0  501 -0.00000000000E+00 -0.00000000000E+00 -0.23525877945E+02  0.23525877945E+02  0.00000000000E+00 0.  1.
         25    1    1    2    0    0 -0.91446695536E+02 -0.19794990843E+03  0.12144367092E+04  0.12401726432E+04  0.12500000000E+03 0.  0.
         21    1    1    2  502  501  0.91446695536E+02  0.19794990843E+03  0.11046325220E+04  0.11259483438E+04  0.00000000000E+00 0. -1.
<mgrwt>
<rscale>  3 0.46951723E+03</rscale>
<asrwt>0</asrwt>
<pdfrwt beam="1">  1        2 0.36039906E+00 0.46951723E+03</pdfrwt>
<pdfrwt beam="2">  1       -2 0.36193677E-02 0.46951723E+03</pdfrwt>
<totfact> 0.15333636E+03</totfact>
</mgrwt>
</event>
<event>
 4    0  0.1264838E-002  0.5432542E+03  0.7546771E-02  0.1003067E+00
         -4   -1    0    0    0  501 -0.00000000000E+00  0.00000000000E+00  0.27859067868E+03  0.27859067868E+03  0.00000000000E+00 0.  1.
          4   -1    0    0  502    0  0.00000000000E+00 -0.00000000000E+00 -0.26483755139E+03  0.26483755139E+03  0.00000000000E+00 0. -1.
         25    1    1    2    0    0 -0.15519677495E+03  0.17877169173E+03  0.10792191413E+03  0.28864770269E+03  0.12500000000E+03 0.  0.
         21    1    1    2  502  501  0.15519677495E+03 -0.17877169173E+03 -0.94168786842E+02  0.25478052738E+03  0.00000000000E+00 0. -1.
<mgrwt>
<rscale>  3 0.54325417E+03</rscale>
<asrwt>0</asrwt>
<pdfrwt beam="1">  1        4 0.40744238E-01 0.54325417E+03</pdfrwt>
<pdfrwt beam="2">  1       -4 0.42860105E-01 0.54325417E+03</pdfrwt>
<totfact> 0.60983792E+01</totfact>
</mgrwt>
</event>
<event>
 4    0  0.1264838E-002  0.6976146E+03  0.7546771E-02  0.9721320E-01
         -1   -1    0    0    0  501 -0.00000000000E+00  0.00000000000E+00  0.37000106346E+03  0.37000106346E+03  0.00000000000E+00 0. -1.
          1   -1    0    0  502    0  0.00000000000E+00 -0.00000000000E+00 -0.32882751847E+03  0.32882751847E+03  0.00000000000E+00 0.  1.
         25    1    1    2    0    0  0.97078695271E+02 -0.21458194231E+03 -0.22106111121E+03  0.34635631643E+03  0.12500000000E+03 0.  0.
         21    1    1    2  502  501 -0.97078695271E+02  0.21458194231E+03  0.26223465619E+03  0.35247226550E+03  0.00000000000E+00 0. -1.
<mgrwt>
<rscale>  3 0.69761460E+03</rscale>
<asrwt>0</asrwt>
<pdfrwt beam="1">  1        1 0.50588849E-01 0.69761460E+03</pdfrwt>
<pdfrwt beam="2">  1       -1 0.56923240E-01 0.69761460E+03</pdfrwt>
<totfact> 0.24634535E+02</totfact>
</mgrwt>
</event>
<event>
 4    0  0.1264838E-002  0.6380863E+03  0.7546771E-02  0.9829395E-01
         -2   -1    0    0    0  501 -0.00000000000E+00  0.00000000000E+00  0.67643339413E+02  0.67643339413E+02  0.00000000000E+00 0.  1.
          2   -1    0    0  502    0  0.00000000000E+00 -0.00000000000E+00 -0.15047826518E+04  0.15047826518E+04  0.00000000000E+00 0. -1.
         25    1    1    2    0    0 -0.28999722887E+03 -0.59839121748E+02 -0.94400807957E+03  0.99722383021E+03  0.12500000000E+03 0.  0.
         21    1    1    2  502  501  0.28999722887E+03  0.59839121748E+02 -0.49313123284E+03  0.57520216103E+03  0.00000000000E+00 0.  1.
<mgrwt>
<rscale>  3 0.63808628E+03</rscale>
<asrwt>0</asrwt>
<pdfrwt beam="1">  1        2 0.23150501E+00 0.63808628E+03</pdfrwt>
<pdfrwt beam="2">  1       -2 0.10406668E-01 0.63808628E+03</pdfrwt>
<totfact> 0.82571468E+02</totfact>
</mgrwt>
</event>
<event>
 4    0  0.1264838E-002  0.4952171E+03  0.7546771E-02  0.1015035E+00
         -1   -1    0    0    0  501 -0.00000000000E+00  0.00000000000E+00  0.32380013422E+03  0.32380013422E+03  0.00000000000E+00 0. -1.
          1   -1    0    0  502    0  0.00000000000E+00 -0.00000000000E+00 -0.18934516328E+03  0.18934516328E+03  0.00000000000E+00 0.  1.
         25    1    1    2    0    0  0.18967599213E+03 -0.72193185640E+02  0.18762803903E+03  0.30334488470E+03  0.12500000000E+03 0.  0.
         21    1    1    2  502  501 -0.18967599213E+03  0.72193185640E+02 -0.53173068091E+02  0.20980041281E+03  0.00000000000E+00 0.  1.
<mgrwt>
<rscale>  3 0.49521708E+03</rscale>
<asrwt>0</asrwt>
<pdfrwt beam="1">  1        1 0.29130025E-01 0.49521708E+03</pdfrwt>
<pdfrwt beam="2">  1       -1 0.49815405E-01 0.49521708E+03</pdfrwt>
<totfact> 0.65136974E+02</totfact>
</mgrwt>
</event>
<event>
 4    0  0.1264838E-002  0.5162240E+03  0.7546771E-02  0.1009629E+00
          2   -1    0    0  502    0  0.00000000000E+00  0.00000000000E+00  0.54567891148E+03  0.54567891148E+03  0.00000000000E+00 0. -1.
         -2   -1    0    0    0  501 -0.00000000000E+00 -0.00000000000E+00 -0.12208977318E+03  0.12208977318E+03  0.00000000000E+00 0.  1.
         25    1    1    2    0    0  0.20200485562E+03  0.95385530686E+02  0.34784111215E+03  0.43188285502E+03  0.12500000000E+03 0.  0.
         21    1    1    2  502  501 -0.20200485562E+03 -0.95385530686E+02  0.75748026149E+02  0.23588582964E+03  0.00000000000E+00 0.  1.
<mgrwt>
<rscale>  3 0.51622404E+03</rscale>
<asrwt>0</asrwt>
<pdfrwt beam="1">  1        2 0.83950601E-01 0.51622404E+03</pdfrwt>
<pdfrwt beam="2">  1       -2 0.18783042E-01 0.51622404E+03</pdfrwt>
<totfact> 0.13242403E+03</totfact>
</mgrwt>
</event>
<event>
 4    0  0.1264838E-002  0.9396639E+03  0.7546771E-02  0.9377314E-01
          2   -1    0    0  502    0  0.00000000000E+00  0.00000000000E+00  0.67640913729E+03  0.67640913729E+03  0.00000000000E+00 0. -1.
         -2   -1    0    0    0  501 -0.00000000000E+00 -0.00000000000E+00 -0.32634399836E+03  0.32634399836E+03  0.00000000000E+00 0.  1.
         25    1    1    2    0    0  0.28365033676E+03 -0.10676430143E+03 -0.19329396291E+03  0.38058334921E+03  0.12500000000E+03 0.  0.
         21    1    1    2  502  501 -0.28365033676E+03  0.10676430143E+03  0.54335910184E+03  0.62216978644E+03  0.00000000000E+00 0. -1.
<mgrwt>
<rscale>  3 0.93966390E+03</rscale>
<asrwt>0</asrwt>
<pdfrwt beam="1">  1        2 0.10406294E+00 0.93966390E+03</pdfrwt>
<pdfrwt beam="2">  1       -2 0.50206769E-01 0.93966390E+03</pdfrwt>
<totfact> 0.16078655E+02</totfact>
</mgrwt>
</event>
<event>
 4    0  0.1264838E-002  0.5390731E+03  0.7546771E-02  0.1004055E+00
         -2   -1    0    0    0  501 -0.00000000000E+00  0.00000000000E+00  0.25953141483E+03  0.25953141483E+03  0.00000000000E+00 0.  1.
          2   -1    0    0  502    0  0.00000000000E+00 -0.00000000000E+00 -0.27992735728E+03  0.27992735728E+03  0.00000000000E+00 0. -1.
         25    1    1    2    0    0  0.21000334929E+03 -0.92115867319E+02 -0.12245382844E+03  0.28845568087E+03  0.12500000000E+03 0.  0.
         21    1    1    2  502  501 -0.21000334929E+03  0.92115867319E+02  0.10205788598E+03  0.25100309125E+03  0.00000000000E+00 0.  1.
<mgrwt>
<rscale>  3 0.53907307E+03</rscale>
<asrwt>0</asrwt>
<pdfrwt beam="1">  1        2 0.43065747E-01 0.53907307E+03</pdfrwt>
<pdfrwt beam="2">  1       -2 0.39927910E-01 0.53907307E+03</pdfrwt>
<totfact> 0.70785298E+02</totfact>
</mgrwt>
</event>
<event>
 4    0  0.1264838E-002  0.5138423E+03  0.7546771E-02  0.1010228E+00
          2   -1    0    0  502    0  0.00000000000E+00  0.00000000000E+00  0.19764417271E+04  0.19764417271E+04  0.00000000000E+00 0.  1.
         -2   -1    0    0    0  501 -0.00000000000E+00 -0.00000000000E+00 -0.33397637518E+02  0.33397637518E+02  0.00000000000E+00 0. -1.
         25    1    1    2    0    0 -0.17970619607E+03 -0.15056930942E+03  0.12591468223E+04  0.12868726254E+04  0.12500000000E+03 0.  0.
         21    1    1    2  502  501  0.17970619607E+03  0.15056930942E+03  0.68389726722E+03  0.72296673917E+03  0.00000000000E+00 0. -1.
<mgrwt>
<rscale>  3 0.51384233E+03</rscale>
<asrwt>0</asrwt>
<pdfrwt beam="1">  1        2 0.30406787E+00 0.51384233E+03</pdfrwt>
<pdfrwt beam="2">  1       -2 0.51380996E-02 0.51384233E+03</pdfrwt>
<totfact> 0.14111681E+03</totfact>
</mgrwt>
</event>
<event>
 4    0  0.1264838E-002  0.4538355E+03  0.7546771E-02  0.1026584E+00
          2   -1    0    0  502    0  0.00000000000E+00  0.00000000000E+00  0.19856407825E+04  0.19856407825E+04  0.00000000000E+00 0. -1.
         -2   -1    0    0    0  501 -0.00000000000E+00 -0.00000000000E+00 -0.25932019972E+02  0.25932019972E+02  0.00000000000E+00 0.  1.
         25    1    1    2    0    0  0.10454896226E+03 -0.18120391797E+03  0.11184445965E+04  0.11446871454E+04  0.12500000000E+03 0.  0.
         21    1    1    2  502  501 -0.10454896226E+03  0.18120391797E+03  0.84126416604E+03  0.86688565709E+03  0.00000000000E+00 0.  1.
<mgrwt>
<rscale>  3 0.45383555E+03</rscale>
<asrwt>0</asrwt>
<pdfrwt beam="1">  1        2 0.30548308E+00 0.45383555E+03</pdfrwt>
<pdfrwt beam="2">  1       -2 0.39895431E-02 0.45383555E+03</pdfrwt>
<totfact> 0.20650999E+03</totfact>
</mgrwt>
</event>
<event>
 4    0  0.1264838E-002  0.1041547E+04  0.7546771E-02  0.9264115E-01
         -2   -1    0    0    0  501 -0.00000000000E+00  0.00000000000E+00  0.10925451940E+04  0.10925451940E+04  0.00000000000E+00 0.  1.
          2   -1    0    0  502    0  0.00000000000E+00 -0.00000000000E+00 -0.24823244640E+03  0.24823244640E+03  0.00000000000E+00 0. -1.
         25    1    1    2    0    0  0.50753549685E+03 -0.76335944838E+02  0.42124832274E+03  0.67564384586E+03  0.12500000000E+03 0.  0.
         21    1    1    2  502  501 -0.50753549685E+03  0.76335944838E+02  0.42306442482E+03  0.66513379450E+03  0.00000000000E+00 0.  1.
<mgrwt>
<rscale>  3 0.10415472E+04</rscale>
<asrwt>0</asrwt>
<pdfrwt beam="1">  1        2 0.38189608E-01 0.10415472E+04</pdfrwt>
<pdfrwt beam="2">  1       -2 0.16808387E+00 0.10415472E+04</pdfrwt>
<totfact> 0.29700414E+01</totfact>
</mgrwt>
</event>
<event>
 4    0  0.1264838E-002  0.5815247E+03  0.7546771E-02  0.9944495E-01
         -1   -1    0    0    0  501 -0.00000000000E+00  0.00000000000E+00  0.17046227575E+03  0.17046227575E+03  0.00000000000E+00 0.  1.
          1   -1    0    0  502    0  0.00000000000E+00 -0.00000000000E+00 -0.49596163220E+03  0.49596163220E+03  0.00000000000E+00 0. -1.
         25    1    1    2    0    0 -0.26168835826E+03 -0.16817971727E+02 -0.66830570944E+02  0.29808550155E+03  0.12500000000E+03 0.  0.
         21    1    1    2  502  501  0.26168835826E+03  0.16817971727E+02 -0.25866878551E+03  0.36833840639E+03  0.00000000000E+00 0. -1.
<mgrwt>
<rscale>  3 0.58152471E+03</rscale>
<asrwt>0</asrwt>
<pdfrwt beam="1">  1        1 0.76301789E-01 0.58152471E+03</pdfrwt>
<pdfrwt beam="2">  1       -1 0.26224966E-01 0.58152471E+03</pdfrwt>
<totfact> 0.58350778E+02</totfact>
</mgrwt>
</event>
<event>
 4    0  0.1264838E-002  0.7323190E+03  0.7546771E-02  0.9663505E-01
          2   -1    0    0  502    0  0.00000000000E+00  0.00000000000E+00  0.11042398319E+04  0.11042398319E+04  0.00000000000E+00 0. -1.
         -2   -1    0    0    0  501 -0.00000000000E+00 -0.00000000000E+00 -0.12141634387E+03  0.12141634387E+03  0.00000000000E+00 0.  1.
         25    1    1    2    0    0 -0.28035512034E+03  0.46563342573E+02  0.86315326450E+03  0.91729259039E+03  0.12500000000E+03 0.  0.
         21    1    1    2  502  501  0.28035512034E+03 -0.46563342573E+02  0.11967022349E+03  0.30836358534E+03  0.00000000000E+00 0.  1.
<mgrwt>
<rscale>  3 0.73231896E+03</rscale>
<asrwt>0</asrwt>
<pdfrwt beam="1">  1        2 0.16988304E+00 0.73231896E+03</pdfrwt>
<pdfrwt beam="2">  1       -2 0.18679438E-01 0.73231896E+03</pdfrwt>
<totfact> 0.52452715E+02</totfact>
</mgrwt>
</event>
<event>
 4    0  0.1264838E-002  0.5910148E+03  0.7546771E-02  0.9924225E-01
         -2   -1    0    0    0  501 -0.00000000000E+00  0.00000000000E+00  0.38970521480E+02  0.38970521480E+02  0.00000000000E+00 0.  1.
          2   -1    0    0  502    0  0.00000000000E+00 -0.00000000000E+00 -0.22407866977E+04  0.22407866977E+04  0.00000000000E+00 0. -1.
         25    1    1    2    0    0  0.28225959242E+03 -0.39902763546E+01 -0.11527783279E+04  0.11934023936E+04  0.12500000000E+03 0.  0.
         21    1    1    2  502  501 -0.28225959242E+03  0.39902763546E+01 -0.10490378484E+04  0.10863548256E+04  0.00000000000E+00 0.  1.
<mgrwt>
<rscale>  3 0.59101481E+03</rscale>
<asrwt>0</asrwt>
<pdfrwt beam="1">  1        2 0.34473644E+00 0.59101481E+03</pdfrwt>
<pdfrwt beam="2">  1       -2 0.59954645E-02 0.59101481E+03</pdfrwt>
<totfact> 0.79324429E+02</totfact>
</mgrwt>
</event>
<event>
 4    0  0.1264838E-002  0.4816680E+03  0.7546771E-02  0.1018678E+00
          2   -1    0    0  502    0  0.00000000000E+00  0.00000000000E+00  0.18979444957E+04  0.18979444957E+04  0.00000000000E+00 0. -1.
         -2   -1    0    0    0  501 -0.00000000000E+00 -0.00000000000E+00 -0.30559906313E+02  0.30559906313E+02  0.00000000000E+00 0.  1.
         25    1    1    2    0    0 -0.22446694314E+03  0.67950868622E+01  0.97866802648E+03  0.10118535901E+04  0.12500000000E+03 0.  0.
         21    1    1    2  502  501  0.22446694314E+03 -0.67950868622E+01  0.88871656287E+03  0.91665081186E+03  0.00000000000E+00 0.  1.
<mgrwt>
<rscale>  3 0.48166796E+03</rscale>
<asrwt>0</asrwt>
<pdfrwt beam="1">  1        2 0.29199137E+00 0.48166796E+03</pdfrwt>
<pdfrwt beam="2">  1       -2 0.47015255E-02 0.48166796E+03</pdfrwt>
<totfact> 0.17867476E+03</totfact>
</mgrwt>
</event>
<event>
 4    0  0.1433716E-002  0.8971107E+03  0.7546771E-02  0.9429200E-01
          2   -1    0    0  502    0  0.00000000000E+00  0.00000000000E+00  0.77335971295E+03  0.77335971295E+03  0.00000000000E+00 0. -1.
         -2   -1    0    0    0  501 -0.00000000000E+00 -0.00000000000E+00 -0.26016601169E+03  0.26016601169E+03  0.00000000000E+00 0.  1.
         25    1    1    2    0    0 -0.28787375156E+03 -0.44489423081E+02 -0.11810292969E+03  0.33826603082E+03  0.12500000000E+03 0.  0.
         21    1    1    2  502  501  0.28787375156E+03  0.44489423081E+02  0.63129663095E+03  0.69525969382E+03  0.00000000000E+00 0. -1.
<mgrwt>
<rscale>  3 0.89711072E+03</rscale>
<asrwt>0</asrwt>
<pdfrwt beam="1">  1        2 0.11897842E+00 0.89711072E+03</pdfrwt>
<pdfrwt beam="2">  1       -2 0.40025541E-01 0.89711072E+03</pdfrwt>
<totfact> 0.21331141E+02</totfact>
</mgrwt>
</event>
<event>
 4    0  0.1264838E-002  0.5980905E+03  0.7546771E-02  0.9909376E-01
         -2   -1    0    0    0  501 -0.00000000000E+00  0.00000000000E+00  0.63083496899E+02  0.63083496899E+02  0.00000000000E+00 0. -1.
          2   -1    0    0  502    0  0.00000000000E+00 -0.00000000000E+00 -0.14176142549E+04  0.14176142549E+04  0.00000000000E+00 0.  1.
         25    1    1    2    0    0 -0.11164731380E+02  0.25600401126E+03 -0.10212098018E+04  0.10602627808E+04  0.12500000000E+03 0.  0.
         21    1    1    2  502  501  0.11164731380E+02 -0.25600401126E+03 -0.33332095615E+03  0.42043497097E+03  0.00000000000E+00 0.  1.
<mgrwt>
<rscale>  3 0.59809051E+03</rscale>
<asrwt>0</asrwt>
<pdfrwt beam="1">  1        2 0.21809452E+00 0.59809051E+03</pdfrwt>
<pdfrwt beam="2">  1       -2 0.97051526E-02 0.59809051E+03</pdfrwt>
<totfact> 0.10358770E+03</totfact>
</mgrwt>
</event>
<event>
 4    0  0.1315406E-002  0.6444838E+03  0.7546771E-02  0.9817185E-01
         -1   -1    0    0    0  501 -0.00000000000E+00  0.00000000000E+00  0.39270011103E+03  0.39270011103E+03  0.00000000000E+00 0. -1.
          1   -1    0    0  502    0  0.00000000000E+00 -0.00000000000E+00 -0.26442527235E+03  0.26442527235E+03  0.00000000000E+00 0.  1.
         25    1    1    2    0    0  0.17770359980E+03  0.16037140073E+03  0.26758949875E+03  0.38016666792E+03  0.12500000000E+03 0.  0.
         21    1    1    2  502  501 -0.17770359980E+03 -0.16037140073E+03 -0.13931466008E+03  0.27695871546E+03  0.00000000000E+00 0.  1.
<mgrwt>
<rscale>  3 0.64448377E+03</rscale>
<asrwt>0</asrwt>
<pdfrwt beam="1">  1        1 0.40680811E-01 0.64448377E+03</pdfrwt>
<pdfrwt beam="2">  1       -1 0.60415401E-01 0.64448377E+03</pdfrwt>
<totfact> 0.29131922E+02</totfact>
</mgrwt>
</event>
<event>
 4    0  0.1264838E-002  0.6094563E+03  0.7546771E-02  0.9885979E-01
         -1   -1    0    0    0  501 -0.00000000000E+00  0.00000000000E+00  0.45462379230E+03  0.45462379230E+03  0.00000000000E+00 0.  1.
          1   -1    0    0  502    0  0.00000000000E+00 -0.00000000000E+00 -0.20425514107E+03  0.20425514107E+03  0.00000000000E+00 0. -1.
         25    1    1    2    0    0  0.17834989855E+03  0.19836482436E+03  0.22882774490E+01  0.29459722685E+03  0.12500000000E+03 0.  0.
         21    1    1    2  502  501 -0.17834989855E+03 -0.19836482436E+03  0.24808037377E+03  0.36428170652E+03  0.00000000000E+00 0.  1.
<mgrwt>
<rscale>  3 0.60945630E+03</rscale>
<asrwt>0</asrwt>
<pdfrwt beam="1">  1        1 0.31423868E-01 0.60945630E+03</pdfrwt>
<pdfrwt beam="2">  1       -1 0.69942122E-01 0.60945630E+03</pdfrwt>
<totfact> 0.30355242E+02</totfact>
</mgrwt>
</event>
<event>
 4    0  0.1264838E-002  0.4622964E+03  0.7546771E-02  0.1024117E+00
         -2   -1    0    0    0  501 -0.00000000000E+00  0.00000000000E+00  0.64293938024E+02  0.64293938024E+02  0.00000000000E+00 0. -1.
          2   -1    0    0  502    0  0.00000000000E+00 -0.00000000000E+00 -0.83101914829E+03  0.83101914829E+03  0.00000000000E+00 0.  1.
         25    1    1    2    0    0 -0.30502518488E+02  0.21198959475E+03 -0.42244619384E+03  0.48985281321E+03  0.12500000000E+03 0.  0.
         21    1    1    2  502  501  0.30502518488E+02 -0.21198959475E+03 -0.34427901642E+03  0.40546027310E+03  0.00000000000E+00 0.  1.
<mgrwt>
<rscale>  3 0.46229641E+03</rscale>
<asrwt>0</asrwt>
<pdfrwt beam="1">  1        2 0.12784910E+00 0.46229641E+03</pdfrwt>
<pdfrwt beam="2">  1       -2 0.98913748E-02 0.46229641E+03</pdfrwt>
<totfact> 0.22882488E+03</totfact>
</mgrwt>
</event>
<event>
 4    0  0.1264838E-002  0.7909202E+03  0.7546771E-02  0.9573254E-01
          2   -1    0    0  502    0  0.00000000000E+00  0.00000000000E+00  0.59104292629E+03  0.59104292629E+03  0.00000000000E+00 0.  1.
         -2   -1    0    0    0  501 -0.00000000000E+00 -0.00000000000E+00 -0.26459783687E+03  0.26459783687E+03  0.00000000000E+00 0. -1.
         25    1    1    2    0    0  0.35624071399E+03 -0.94254275219E+02  0.29008801688E+03  0.48535283273E+03  0.12500000000E+03 0.  0.
         21    1    1    2  502  501 -0.35624071399E+03  0.94254275219E+02  0.36357072533E+02  0.37028793043E+03  0.00000000000E+00 0. -1.
<mgrwt>
<rscale>  3 0.79092017E+03</rscale>
<asrwt>0</asrwt>
<pdfrwt beam="1">  1        2 0.90929680E-01 0.79092017E+03</pdfrwt>
<pdfrwt beam="2">  1       -2 0.40707360E-01 0.79092017E+03</pdfrwt>
<totfact> 0.29041987E+02</totfact>
</mgrwt>
</event>
<event>
 4    0  0.1264838E-002  0.8930427E+03  0.7546771E-02  0.9434320E-01
         -2   -1    0    0    0  501 -0.00000000000E+00  0.00000000000E+00  0.13133952243E+03  0.13133952243E+03  0.00000000000E+00 0. -1.
          2   -1    0    0  502    0  0.00000000000E+00 -0.00000000000E+00 -0.15180602739E+04  0.15180602739E+04  0.00000000000E+00 0.  1.
         25    1    1    2    0    0 -0.15283185544E+03 -0.19820503542E+03 -0.13703100154E+04  0.13985769019E+04  0.12500000000E+03 0.  0.
         21    1    1    2  502  501  0.15283185544E+03  0.19820503542E+03 -0.16410736014E+02  0.25082289441E+03  0.00000000000E+00 0. -1.
<mgrwt>
<rscale>  3 0.89304269E+03</rscale>
<asrwt>0</asrwt>
<pdfrwt beam="1">  1        2 0.23354772E+00 0.89304269E+03</pdfrwt>
<pdfrwt beam="2">  1       -2 0.20206081E-01 0.89304269E+03</pdfrwt>
<totfact> 0.26110657E+02</totfact>
</mgrwt>
</event>
<event>
 4    0  0.1264838E-002  0.5817768E+03  0.7546771E-02  0.9943952E-01
          2   -1    0    0  502    0  0.00000000000E+00  0.00000000000E+00  0.19462898283E+04  0.19462898283E+04  0.00000000000E+00 0. -1.
         -2   -1    0    0    0  501 -0.00000000000E+00 -0.00000000000E+00 -0.43475576197E+02  0.43475576197E+02  0.00000000000E+00 0.  1.
         25    1    1    2    0    0  0.23462293839E+03 -0.70354712737E+02  0.14410804394E+04  0.14670840268E+04  0.12500000000E+03 0.  0.
         21    1    1    2  502  501 -0.23462293839E+03  0.70354712737E+02  0.46173381275E+03  0.52268137776E+03  0.00000000000E+00 0.  1.
<mgrwt>
<rscale>  3 0.58177684E+03</rscale>
<asrwt>0</asrwt>
<pdfrwt beam="1">  1        2 0.29942914E+00 0.58177684E+03</pdfrwt>
<pdfrwt beam="2">  1       -2 0.66885517E-02 0.58177684E+03</pdfrwt>
<totfact> 0.96653758E+02</totfact>
</mgrwt>
</event>
<event>
 4    0  0.1264838E-002  0.4618968E+03  0.7546771E-02  0.1024233E+00
         -2   -1    0    0    0  501 -0.00000000000E+00  0.00000000000E+00  0.61349223190E+03  0.61349223190E+03  0.00000000000E+00 0.  1.
          2   -1    0    0  502    0  0.00000000000E+00 -0.00000000000E+00 -0.86940250339E+02  0.86940250339E+02  0.00000000000E+00 0. -1.
         25    1    1    2    0    0 -0.10344266882E+03  0.17867754298E+03  0.19698080916E+03  0.31153248510E+03  0.12500000000E+03 0.  0.
         21    1    1    2  502  501  0.10344266882E+03 -0.17867754298E+03  0.32957117240E+03  0.38889999713E+03  0.00000000000E+00 0. -1.
<mgrwt>
<rscale>  3 0.46189682E+03</rscale>
<asrwt>0</asrwt>
<pdfrwt beam="1">  1        2 0.13375424E-01 0.46189682E+03</pdfrwt>
<pdfrwt beam="2">  1       -2 0.94383418E-01 0.46189682E+03</pdfrwt>
<totfact> 0.44088173E+02</totfact>
</mgrwt>
</event>
<event>
 4    0  0.1264838E-002  0.6558990E+03  0.7546771E-02  0.9795773E-01
         -1   -1    0    0    0  501 -0.00000000000E+00  0.00000000000E+00  0.20552968931E+03  0.20552968931E+03  0.00000000000E+00 0.  1.
          1   -1    0    0  502    0  0.00000000000E+00 -0.00000000000E+00 -0.52328635917E+03  0.52328635917E+03  0.00000000000E+00 0. -1.
         25    1    1    2    0    0 -0.29858997807E+03 -0.10057267024E+03 -0.19207967072E+03  0.38960292210E+03  0.12500000000E+03 0.  0.
         21    1    1    2  502  501  0.29858997807E+03  0.10057267024E+03 -0.12567699914E+03  0.33921312639E+03  0.00000000000E+00 0.  1.
<mgrwt>
<rscale>  3 0.65589903E+03</rscale>
<asrwt>0</asrwt>
<pdfrwt beam="1">  1        1 0.80505593E-01 0.65589903E+03</pdfrwt>
<pdfrwt beam="2">  1       -1 0.31619952E-01 0.65589903E+03</pdfrwt>
<totfact> 0.39138240E+02</totfact>
</mgrwt>
</event>
<event>
 4    0  0.1264838E-002  0.1163750E+04  0.7546771E-02  0.9145192E-01
          2   -1    0    0  502    0  0.00000000000E+00  0.00000000000E+00  0.23341360731E+04  0.23341360731E+04  0.00000000000E+00 0. -1.
         -2   -1    0    0    0  501 -0.00000000000E+00 -0.00000000000E+00 -0.14505516118E+03  0.14505516118E+03  0.00000000000E+00 0.  1.
         25    1    1    2    0    0  0.47027734583E+03  0.24128636215E+03  0.62403893867E+03  0.82730253689E+03  0.12500000000E+03 0.  0.
         21    1    1    2  502  501 -0.47027734583E+03 -0.24128636215E+03  0.15650419732E+04  0.16518886974E+04  0.00000000000E+00 0. -1.
<mgrwt>
<rscale>  3 0.11637499E+04</rscale>
<asrwt>0</asrwt>
<pdfrwt beam="1">  1        2 0.35909783E+00 0.11637499E+04</pdfrwt>
<pdfrwt beam="2">  1       -2 0.22316180E-01 0.11637499E+04</pdfrwt>
<totfact> 0.75847735E+01</totfact>
</mgrwt>
</event>
<event>
 4    0  0.1264838E-002  0.8272987E+03  0.7546771E-02  0.9521323E-01
          2   -1    0    0  502    0  0.00000000000E+00  0.00000000000E+00  0.14171837687E+04  0.14171837687E+04  0.00000000000E+00 0.  1.
         -2   -1    0    0    0  501 -0.00000000000E+00 -0.00000000000E+00 -0.12073649478E+03  0.12073649478E+03  0.00000000000E+00 0. -1.
         25    1    1    2    0    0 -0.23288598478E+03 -0.96758566518E+02  0.12502447786E+04  0.12815362299E+04  0.12500000000E+03 0.  0.
         21    1    1    2  502  501  0.23288598478E+03  0.96758566518E+02  0.46202495305E+02  0.25638403358E+03  0.00000000000E+00 0. -1.
<mgrwt>
<rscale>  3 0.82729874E+03</rscale>
<asrwt>0</asrwt>
<pdfrwt beam="1">  1        2 0.21802826E+00 0.82729874E+03</pdfrwt>
<pdfrwt beam="2">  1       -2 0.18574846E-01 0.82729874E+03</pdfrwt>
<totfact> 0.34595707E+02</totfact>
</mgrwt>
</event>
<event>
 4    0  0.1264838E-002  0.4619236E+03  0.7546771E-02  0.1024225E+00
          1   -1    0    0  502    0  0.00000000000E+00  0.00000000000E+00  0.34988240117E+03  0.34988240117E+03  0.00000000000E+00 0.  1.
         -1   -1    0    0    0  501 -0.00000000000E+00 -0.00000000000E+00 -0.15246078274E+03  0.15246078274E+03  0.00000000000E+00 0. -1.
         25    1    1    2    0    0 -0.11816686378E+03 -0.17057564619E+03  0.16304541416E+03  0.29200730444E+03  0.12500000000E+03 0.  0.
         21    1    1    2  502  501  0.11816686378E+03  0.17057564619E+03  0.34376204269E+02  0.21033587946E+03  0.00000000000E+00 0.  1.
<mgrwt>
<rscale>  3 0.46192356E+03</rscale>
<asrwt>0</asrwt>
<pdfrwt beam="1">  1        1 0.53828062E-01 0.46192356E+03</pdfrwt>
<pdfrwt beam="2">  1       -1 0.23455505E-01 0.46192356E+03</pdfrwt>
<totfact> 0.11196291E+03</totfact>
</mgrwt>
</event>
<event>
 4    0  0.1264838E-002  0.7595949E+03  0.7546771E-02  0.9620417E-01
         -2   -1    0    0    0  501 -0.00000000000E+00  0.00000000000E+00  0.56461961702E+02  0.56461961702E+02  0.00000000000E+00 0.  1.
          2   -1    0    0  502    0  0.00000000000E+00 -0.00000000000E+00 -0.25547484848E+04  0.25547484848E+04  0.00000000000E+00 0. -1.
         25    1    1    2    0    0 -0.29311548394E+03 -0.66368506830E+02 -0.20220057181E+04  0.20480365206E+04  0.12500000000E+03 0.  0.
         21    1    1    2  502  501  0.29311548394E+03  0.66368506830E+02 -0.47628080500E+03  0.56317392592E+03  0.00000000000E+00 0.  1.
<mgrwt>
<rscale>  3 0.75959492E+03</rscale>
<asrwt>0</asrwt>
<pdfrwt beam="1">  1        2 0.39303820E+00 0.75959492E+03</pdfrwt>
<pdfrwt beam="2">  1       -2 0.86864563E-02 0.75959492E+03</pdfrwt>
<totfact> 0.28969879E+02</totfact>
</mgrwt>
</event>
<event>
 4    0  0.1264838E-002  0.5144496E+03  0.7546771E-02  0.1010075E+00
         -1   -1    0    0    0  501 -0.00000000000E+00  0.00000000000E+00  0.57443765130E+02  0.57443765130E+02  0.00000000000E+00 0.  1.
          1   -1    0    0  502    0  0.00000000000E+00 -0.00000000000E+00 -0.11518150241E+04  0.11518150241E+04  0.00000000000E+00 0. -1.
         25    1    1    2    0    0 -0.96265529513E+02  0.18416512215E+03 -0.28780107189E+03  0.37634864337E+03  0.12500000000E+03 0.  0.
         21    1    1    2  502  501  0.96265529513E+02 -0.18416512215E+03 -0.80657018711E+03  0.83291014588E+03  0.00000000000E+00 0. -1.
<mgrwt>
<rscale>  3 0.51444958E+03</rscale>
<asrwt>0</asrwt>
<pdfrwt beam="1">  1        1 0.17720231E+00 0.51444958E+03</pdfrwt>
<pdfrwt beam="2">  1       -1 0.88375025E-02 0.51444958E+03</pdfrwt>
<totfact> 0.90596003E+02</totfact>
</mgrwt>
</event>
<event>
 4    0  0.1264838E-002  0.6970182E+03  0.7546771E-02  0.9722345E-01
          1   -1    0    0  502    0  0.00000000000E+00  0.00000000000E+00  0.10446063506E+04  0.10446063506E+04  0.00000000000E+00 0.  1.
         -1   -1    0    0    0  501 -0.00000000000E+00 -0.00000000000E+00 -0.11627212159E+03  0.11627212159E+03  0.00000000000E+00 0. -1.
         25    1    1    2    0    0 -0.16310985899E+03 -0.28636106073E+03  0.59878198989E+03  0.69481821696E+03  0.12500000000E+03 0.  0.
         21    1    1    2  502  501  0.16310985899E+03  0.28636106073E+03  0.32955223912E+03  0.46606025523E+03  0.00000000000E+00 0. -1.
<mgrwt>
<rscale>  3 0.69701821E+03</rscale>
<asrwt>0</asrwt>
<pdfrwt beam="1">  1        1 0.16070866E+00 0.69701821E+03</pdfrwt>
<pdfrwt beam="2">  1       -1 0.17888019E-01 0.69701821E+03</pdfrwt>
<totfact> 0.34869462E+02</totfact>
</mgrwt>
</event>
<event>
 4    0  0.1264838E-002  0.5154274E+03  0.7546771E-02  0.1009829E+00
         -2   -1    0    0    0  501 -0.00000000000E+00  0.00000000000E+00  0.31764799442E+03  0.31764799442E+03  0.00000000000E+00 0.  1.
          2   -1    0    0  502    0  0.00000000000E+00 -0.00000000000E+00 -0.20908791690E+03  0.20908791690E+03  0.00000000000E+00 0. -1.
         25    1    1    2    0    0 -0.21007464287E+03 -0.10149363491E+03 -0.10325259656E+02  0.26488473813E+03  0.12500000000E+03 0.  0.
         21    1    1    2  502  501  0.21007464287E+03  0.10149363491E+03  0.11888533718E+03  0.26185117319E+03  0.00000000000E+00 0.  1.
<mgrwt>
<rscale>  3 0.51542742E+03</rscale>
<asrwt>0</asrwt>
<pdfrwt beam="1">  1        2 0.32167372E-01 0.51542742E+03</pdfrwt>
<pdfrwt beam="2">  1       -2 0.48868922E-01 0.51542742E+03</pdfrwt>
<totfact> 0.65616571E+02</totfact>
</mgrwt>
</event>
<event>
 4    0  0.1264838E-002  0.6755615E+03  0.7546771E-02  0.9759963E-01
          2   -1    0    0  502    0  0.00000000000E+00  0.00000000000E+00  0.14497829320E+04  0.14497829320E+04  0.00000000000E+00 0. -1.
         -2   -1    0    0    0  501 -0.00000000000E+00 -0.00000000000E+00 -0.78698564167E+02  0.78698564167E+02  0.00000000000E+00 0.  1.
         25    1    1    2    0    0  0.17038791111E+03 -0.14863710132E+03  0.12410311503E+04  0.12676388855E+04  0.12500000000E+03 0.  0.
         21    1    1    2  502  501 -0.17038791111E+03  0.14863710132E+03  0.13005321760E+03  0.26084261068E+03  0.00000000000E+00 0.  1.
<mgrwt>
<rscale>  3 0.67556150E+03</rscale>
<asrwt>0</asrwt>
<pdfrwt beam="1">  1        2 0.22304351E+00 0.67556150E+03</pdfrwt>
<pdfrwt beam="2">  1       -2 0.12107472E-01 0.67556150E+03</pdfrwt>
<totfact> 0.68986161E+02</totfact>
</mgrwt>
</event>
<event>
 4    0  0.1264838E-002  0.5503254E+03  0.7546771E-02  0.1001419E+00
         -2   -1    0    0    0  501 -0.00000000000E+00  0.00000000000E+00  0.27785516181E+02  0.27785516181E+02  0.00000000000E+00 0.  1.
          2   -1    0    0  502    0  0.00000000000E+00 -0.00000000000E+00 -0.27249629939E+04  0.27249629939E+04  0.00000000000E+00 0. -1.
         25    1    1    2    0    0  0.20864985364E+02 -0.23968063056E+03 -0.91245459751E+03  0.95188263184E+03  0.12500000000E+03 0.  0.
         21    1    1    2  502  501 -0.20864985364E+02  0.23968063056E+03 -0.17847228802E+04  0.18008658783E+04  0.00000000000E+00 0. -1.
<mgrwt>
<rscale>  3 0.55032537E+03</rscale>
<asrwt>0</asrwt>
<pdfrwt beam="1">  1        2 0.41922527E+00 0.55032537E+03</pdfrwt>
<pdfrwt beam="2">  1       -2 0.42746928E-02 0.55032537E+03</pdfrwt>
<totfact> 0.71911942E+02</totfact>
</mgrwt>
</event>
<event>
 4    0  0.1264838E-002  0.6588662E+03  0.7546771E-02  0.9790283E-01
         -2   -1    0    0    0  501 -0.00000000000E+00  0.00000000000E+00  0.54219293035E+02  0.54219293035E+02  0.00000000000E+00 0.  1.
          2   -1    0    0  502    0  0.00000000000E+00 -0.00000000000E+00 -0.20016155000E+04  0.20016155000E+04  0.00000000000E+00 0. -1.
         25    1    1    2    0    0  0.15779291332E+03 -0.16150735377E+03 -0.17055563684E+04  0.17249726823E+04  0.12500000000E+03 0.  0.
         21    1    1    2  502  501 -0.15779291332E+03  0.16150735377E+03 -0.24183983855E+03  0.33086211074E+03  0.00000000000E+00 0.  1.
<mgrwt>
<rscale>  3 0.65886623E+03</rscale>
<asrwt>0</asrwt>
<pdfrwt beam="1">  1        2 0.30794084E+00 0.65886623E+03</pdfrwt>
<pdfrwt beam="2">  1       -2 0.83414298E-02 0.65886623E+03</pdfrwt>
<totfact> 0.63190889E+02</totfact>
</mgrwt>
</event>
<event>
 4    0  0.1874198E-002  0.8708573E+03  0.7546771E-02  0.9462763E-01
         -1   -1    0    0    0  501 -0.00000000000E+00  0.00000000000E+00  0.21799651617E+03  0.21799651617E+03  0.00000000000E+00 0.  1.
          1   -1    0    0  502    0  0.00000000000E+00 -0.00000000000E+00 -0.86973008568E+03  0.86973008568E+03  0.00000000000E+00 0. -1.
         25    1    1    2    0    0  0.20592051969E+03 -0.60574865488E+02  0.12768903440E+03  0.27928849647E+03  0.12500000000E+03 0.  0.
         21    1    1    2  502  501 -0.20592051969E+03  0.60574865488E+02 -0.77942260390E+03  0.80843810538E+03  0.00000000000E+00 0. -1.
<mgrwt>
<rscale>  3 0.87085734E+03</rscale>
<asrwt>0</asrwt>
<pdfrwt beam="1">  1        1 0.13380463E+00 0.87085734E+03</pdfrwt>
<pdfrwt beam="2">  1       -1 0.33537925E-01 0.87085734E+03</pdfrwt>
<totfact> 0.16267601E+02</totfact>
</mgrwt>
</event>
<event>
 4    0  0.1264838E-002  0.5234710E+03  0.7546771E-02  0.1007828E+00
          1   -1    0    0  502    0  0.00000000000E+00  0.00000000000E+00  0.10924355630E+03  0.10924355630E+03  0.00000000000E+00 0.  1.
         -1   -1    0    0    0  501 -0.00000000000E+00 -0.00000000000E+00 -0.62708932552E+03  0.62708932552E+03  0.00000000000E+00 0. -1.
         25    1    1    2    0    0 -0.60828243622E+02 -0.20335021775E+03 -0.45085779265E+03  0.51375980329E+03  0.12500000000E+03 0.  0.
         21    1    1    2  502  501  0.60828243622E+02  0.20335021775E+03 -0.66987976564E+02  0.22257307853E+03  0.00000000000E+00 0.  1.
<mgrwt>
<rscale>  3 0.52347099E+03</rscale>
<asrwt>0</asrwt>
<pdfrwt beam="1">  1        1 0.16806701E-01 0.52347099E+03</pdfrwt>
<pdfrwt beam="2">  1       -1 0.96475281E-01 0.52347099E+03</pdfrwt>
<totfact> 0.34801825E+02</totfact>
</mgrwt>
</event>
<event>
 4    0  0.1264838E-002  0.1017495E+04  0.7546771E-02  0.9289562E-01
         -3   -1    0    0    0  501 -0.00000000000E+00  0.00000000000E+00  0.13424318670E+03  0.13424318670E+03  0.00000000000E+00 0.  1.
          3   -1    0    0  502    0  0.00000000000E+00 -0.00000000000E+00 -0.19280218850E+04  0.19280218850E+04  0.00000000000E+00 0. -1.
         25    1    1    2    0    0  0.17924179255E+03  0.46373433525E+03 -0.78396341228E+03  0.93669674158E+03  0.12500000000E+03 0.  0.
         21    1    1    2  502  501 -0.17924179255E+03 -0.46373433525E+03 -0.10098152860E+04  0.11255683301E+04  0.00000000000E+00 0. -1.
<mgrwt>
<rscale>  3 0.10174946E+04</rscale>
<asrwt>0</asrwt>
<pdfrwt beam="1">  1        3 0.29661874E+00 0.10174946E+04</pdfrwt>
<pdfrwt beam="2">  1       -3 0.20652799E-01 0.10174946E+04</pdfrwt>
<totfact> 0.23207497E+00</totfact>
</mgrwt>
</event>
<event>
 4    0  0.1264838E-002  0.8197239E+03  0.7546771E-02  0.9531898E-01
         -2   -1    0    0    0  501 -0.00000000000E+00  0.00000000000E+00  0.61435158028E+03  0.61435158028E+03  0.00000000000E+00 0.  1.
          2   -1    0    0  502    0  0.00000000000E+00 -0.00000000000E+00 -0.27343761844E+03  0.27343761844E+03  0.00000000000E+00 0. -1.
         25    1    1    2    0    0 -0.30198654644E+03 -0.21747430045E+03  0.14607138085E+02  0.39284769832E+03  0.12500000000E+03 0.  0.
         21    1    1    2  502  501  0.30198654644E+03  0.21747430045E+03  0.32630682376E+03  0.49494150040E+03  0.00000000000E+00 0.  1.
<mgrwt>
<rscale>  3 0.81972394E+03</rscale>
<asrwt>0</asrwt>
<pdfrwt beam="1">  1        2 0.42067326E-01 0.81972394E+03</pdfrwt>
<pdfrwt beam="2">  1       -2 0.94515627E-01 0.81972394E+03</pdfrwt>
<totfact> 0.11560397E+02</totfact>
</mgrwt>
</event>
<event>
 4    0  0.1264838E-002  0.5265310E+03  0.7546771E-02  0.1007077E+00
          3   -1    0    0  502    0  0.00000000000E+00  0.00000000000E+00  0.28302298642E+02  0.28302298642E+02  0.00000000000E+00 0. -1.
         -3   -1    0    0    0  501 -0.00000000000E+00 -0.00000000000E+00 -0.24488730147E+04  0.24488730147E+04  0.00000000000E+00 0.  1.
         25    1    1    2    0    0  0.22020548279E+03 -0.32240656927E+01 -0.18193452562E+04  0.18368840493E+04  0.12500000000E+03 0.  0.
         21    1    1    2  502  501 -0.22020548279E+03  0.32240656927E+01 -0.60122545986E+03  0.64029126406E+03  0.00000000000E+00 0. -1.
<mgrwt>
<rscale>  3 0.52653105E+03</rscale>
<asrwt>0</asrwt>
<pdfrwt beam="1">  1        3 0.43541988E-02 0.52653105E+03</pdfrwt>
<pdfrwt beam="2">  1       -3 0.37674978E+00 0.52653105E+03</pdfrwt>
<totfact> 0.12050379E+01</totfact>
</mgrwt>
</event>
<event>
 4    0  0.1264838E-002  0.6133546E+03  0.7546771E-02  0.9878081E-01
          1   -1    0    0  502    0  0.00000000000E+00  0.00000000000E+00  0.15601490597E+04  0.15601490597E+04  0.00000000000E+00 0. -1.
         -1   -1    0    0    0  501 -0.00000000000E+00 -0.00000000000E+00 -0.60283311341E+02  0.60283311341E+02  0.00000000000E+00 0.  1.
         25    1    1    2    0    0 -0.28681620227E+03 -0.31038976810E+02  0.92991504206E+03  0.98162820733E+03  0.12500000000E+03 0.  0.
         21    1    1    2  502  501  0.28681620227E+03  0.31038976810E+02  0.56995070629E+03  0.63880416371E+03  0.00000000000E+00 0. -1.
<mgrwt>
<rscale>  3 0.61335455E+03</rscale>
<asrwt>0</asrwt>
<pdfrwt beam="1">  1        1 0.24002290E+00 0.61335455E+03</pdfrwt>
<pdfrwt beam="2">  1       -1 0.92743568E-02 0.61335455E+03</pdfrwt>
<totfact> 0.43417586E+02</totfact>
</mgrwt>
</event>
<event>
 4    0  0.1264838E-002  0.5962813E+03  0.7546771E-02  0.9913151E-01
          1   -1    0    0  502    0  0.00000000000E+00  0.00000000000E+00  0.22290641658E+03  0.22290641658E+03  0.00000000000E+00 0. -1.
         -1   -1    0    0    0  501 -0.00000000000E+00 -0.00000000000E+00 -0.39876755303E+03  0.39876755303E+03  0.00000000000E+00 0.  1.
         25    1    1    2    0    0  0.22594474983E+03 -0.16920271984E+03 -0.50531302376E+02  0.31282423643E+03  0.12500000000E+03 0.  0.
         21    1    1    2  502  501 -0.22594474983E+03  0.16920271984E+03 -0.12532983407E+03  0.30884973318E+03  0.00000000000E+00 0.  1.
<mgrwt>
<rscale>  3 0.59628130E+03</rscale>
<asrwt>0</asrwt>
<pdfrwt beam="1">  1        1 0.34293295E-01 0.59628130E+03</pdfrwt>
<pdfrwt beam="2">  1       -1 0.61348854E-01 0.59628130E+03</pdfrwt>
<totfact> 0.35285276E+02</totfact>
</mgrwt>
</event>
<event>
 4    0  0.1264838E-002  0.4438556E+03  0.7546771E-02  0.1029570E+00
         -1   -1    0    0    0  501 -0.00000000000E+00  0.00000000000E+00  0.25820925726E+02  0.25820925726E+02  0.00000000000E+00 0.  1.
          1   -1    0    0  502    0  0.00000000000E+00 -0.00000000000E+00 -0.19074433707E+04  0.19074433707E+04  0.00000000000E+00 0. -1.
         25    1    1    2    0    0  0.16593174585E+02  0.20327167122E+03 -0.10695781600E+04  0.10960005229E+04  0.12500000000E+03 0.  0.
         21    1    1    2  502  501 -0.16593174585E+02 -0.20327167122E+03 -0.81204428494E+03  0.83726377353E+03  0.00000000000E+00 0.  1.
<mgrwt>
<rscale>  3 0.44385562E+03</rscale>
<asrwt>0</asrwt>
<pdfrwt beam="1">  1        1 0.29345280E+00 0.44385562E+03</pdfrwt>
<pdfrwt beam="2">  1       -1 0.39724504E-02 0.44385562E+03</pdfrwt>
<totfact> 0.94963514E+02</totfact>
</mgrwt>
</event>
<event>
 4    0  0.1264838E-002  0.5029774E+03  0.7546771E-02  0.1013005E+00
         -1   -1    0    0    0  501 -0.00000000000E+00  0.00000000000E+00  0.14028981121E+03  0.14028981121E+03  0.00000000000E+00 0.  1.
          1   -1    0    0  502    0  0.00000000000E+00 -0.00000000000E+00 -0.45082799675E+03  0.45082799675E+03  0.00000000000E+00 0. -1.
         25    1    1    2    0    0  0.16699706833E+02 -0.21471042411E+03 -0.27816956864E+03  0.37333999966E+03  0.12500000000E+03 0.  0.
         21    1    1    2  502  501 -0.16699706833E+02  0.21471042411E+03 -0.32368616901E+02  0.21777780830E+03  0.00000000000E+00 0.  1.
<mgrwt>
<rscale>  3 0.50297743E+03</rscale>
<asrwt>0</asrwt>
<pdfrwt beam="1">  1        1 0.69358153E-01 0.50297743E+03</pdfrwt>
<pdfrwt beam="2">  1       -1 0.21583048E-01 0.50297743E+03</pdfrwt>
<totfact> 0.92284703E+02</totfact>
</mgrwt>
</event>
<event>
 4    0  0.1512339E-002  0.8268026E+03  0.7546771E-02  0.9522012E-01
          1   -1    0    0  502    0  0.00000000000E+00  0.00000000000E+00  0.13376439330E+04  0.13376439330E+04  0.00000000000E+00 0. -1.
         -1   -1    0    0    0  501 -0.00000000000E+00 -0.00000000000E+00 -0.12776242358E+03  0.12776242358E+03  0.00000000000E+00 0.  1.
         25    1    1    2    0    0  0.18520830220E+03 -0.18860702751E+03  0.77386403663E+02  0.30247046385E+03  0.12500000000E+03 0.  0.
         21    1    1    2  502  501 -0.18520830220E+03  0.18860702751E+03  0.11324951058E+04  0.11629358928E+04  0.00000000000E+00 0. -1.
<mgrwt>
<rscale>  3 0.82680259E+03</rscale>
<asrwt>0</asrwt>
<pdfrwt beam="1">  1        1 0.20579136E+00 0.82680259E+03</pdfrwt>
<pdfrwt beam="2">  1       -1 0.19655758E-01 0.82680259E+03</pdfrwt>
<totfact> 0.18107384E+02</totfact>
</mgrwt>
</event>
<event>
 4    0  0.1264838E-002  0.5151430E+03  0.7546771E-02  0.1009900E+00
         -1   -1    0    0    0  501 -0.00000000000E+00  0.00000000000E+00  0.13180752496E+03  0.13180752496E+03  0.00000000000E+00 0.  1.
          1   -1    0    0  502    0  0.00000000000E+00 -0.00000000000E+00 -0.50333292300E+03  0.50333292300E+03  0.00000000000E+00 0. -1.
         25    1    1    2    0    0 -0.18829847107E+03 -0.13850844259E+03 -0.11756455819E+03  0.28997815128E+03  0.12500000000E+03 0.  0.
         21    1    1    2  502  501  0.18829847107E+03  0.13850844259E+03 -0.25396083985E+03  0.34516229669E+03  0.00000000000E+00 0. -1.
<mgrwt>
<rscale>  3 0.51514296E+03</rscale>
<asrwt>0</asrwt>
<pdfrwt beam="1">  1        1 0.77435835E-01 0.51514296E+03</pdfrwt>
<pdfrwt beam="2">  1       -1 0.20278081E-01 0.51514296E+03</pdfrwt>
<totfact> 0.88224730E+02</totfact>
</mgrwt>
</event>
<event>
 4    0  0.1264838E-002  0.4594280E+03  0.7546771E-02  0.1024947E+00
          2   -1    0    0  502    0  0.00000000000E+00  0.00000000000E+00  0.11690107149E+04  0.11690107149E+04  0.00000000000E+00 0. -1.
         -2   -1    0    0    0  501 -0.00000000000E+00 -0.00000000000E+00 -0.45139464926E+02  0.45139464926E+02  0.00000000000E+00 0.  1.
         25    1    1    2    0    0 -0.15107506139E+01 -0.21209003509E+03  0.56086184712E+03  0.61251569524E+03  0.12500000000E+03 0.  0.
         21    1    1    2  502  501  0.15107506139E+01  0.21209003509E+03  0.56300940282E+03  0.60163448456E+03  0.00000000000E+00 0. -1.
<mgrwt>
<rscale>  3 0.45942798E+03</rscale>
<asrwt>0</asrwt>
<pdfrwt beam="1">  1        2 0.17984778E+00 0.45942798E+03</pdfrwt>
<pdfrwt beam="2">  1       -2 0.69445340E-02 0.45942798E+03</pdfrwt>
<totfact> 0.24575605E+03</totfact>
</mgrwt>
</event>
<event>
 4    0  0.1264838E-002  0.4760261E+03  0.7546771E-02  0.1020233E+00
         -2   -1    0    0    0  501 -0.00000000000E+00  0.00000000000E+00  0.99586600883E+02  0.99586600883E+02  0.00000000000E+00 0.  1.
          2   -1    0    0  502    0  0.00000000000E+00 -0.00000000000E+00 -0.56885370157E+03  0.56885370157E+03  0.00000000000E+00 0. -1.
         25    1    1    2    0    0 -0.19320591570E+03 -0.51898375900E+02 -0.38465569739E+03  0.45122829346E+03  0.12500000000E+03 0.  0.
         21    1    1    2  502  501  0.19320591570E+03  0.51898375900E+02 -0.84611403291E+02  0.21721200899E+03  0.00000000000E+00 0.  1.
<mgrwt>
<rscale>  3 0.47602608E+03</rscale>
<asrwt>0</asrwt>
<pdfrwt beam="1">  1        2 0.87515956E-01 0.47602608E+03</pdfrwt>
<pdfrwt beam="2">  1       -2 0.15321015E-01 0.47602608E+03</pdfrwt>
<totfact> 0.17834368E+03</totfact>
</mgrwt>
</event>
<event>
 4    0  0.1264838E-002  0.4529524E+03  0.7546771E-02  0.1026845E+00
         -2   -1    0    0    0  501 -0.00000000000E+00  0.00000000000E+00  0.61121678547E+02  0.61121678547E+02  0.00000000000E+00 0. -1.
          2   -1    0    0  502    0  0.00000000000E+00 -0.00000000000E+00 -0.83916979094E+03  0.83916979094E+03  0.00000000000E+00 0.  1.
         25    1    1    2    0    0 -0.16432217009E+03 -0.12117806689E+03 -0.50952993314E+03  0.56296683050E+03  0.12500000000E+03 0.  0.
         21    1    1    2  502  501  0.16432217009E+03  0.12117806689E+03 -0.26851817925E+03  0.33732463899E+03  0.00000000000E+00 0. -1.
<mgrwt>
<rscale>  3 0.45295239E+03</rscale>
<asrwt>0</asrwt>
<pdfrwt beam="1">  1        2 0.12910304E+00 0.45295239E+03</pdfrwt>
<pdfrwt beam="2">  1       -2 0.94033352E-02 0.45295239E+03</pdfrwt>
<totfact> 0.24500564E+03</totfact>
</mgrwt>
</event>
<event>
 4    0  0.1264838E-002  0.9943745E+03  0.7546771E-02  0.9314736E-01
          2   -1    0    0  502    0  0.00000000000E+00  0.00000000000E+00  0.27825094308E+04  0.27825094308E+04  0.00000000000E+00 0.  1.
         -2   -1    0    0    0  501 -0.00000000000E+00 -0.00000000000E+00 -0.88838923508E+02  0.88838923508E+02  0.00000000000E+00 0. -1.
         25    1    1    2    0    0 -0.27066302097E+03 -0.67017358550E+02  0.20698085630E+03  0.36907434501E+03  0.12500000000E+03 0.  0.
         21    1    1    2  502  501  0.27066302097E+03  0.67017358550E+02  0.24866896510E+04  0.25022740093E+04  0.00000000000E+00 0.  1.
<mgrwt>
<rscale>  3 0.99437446E+03</rscale>
<asrwt>0</asrwt>
<pdfrwt beam="1">  1        2 0.42807831E+00 0.99437446E+03</pdfrwt>
<pdfrwt beam="2">  1       -2 0.13667529E-01 0.99437446E+03</pdfrwt>
<totfact> 0.99071334E+01</totfact>
</mgrwt>
</event>
<event>
 4    0  0.1264838E-002  0.5458375E+03  0.7546771E-02  0.1002462E+00
         -2   -1    0    0    0  501 -0.00000000000E+00  0.00000000000E+00  0.59200140170E+02  0.59200140170E+02  0.00000000000E+00 0. -1.
          2   -1    0    0  502    0  0.00000000000E+00 -0.00000000000E+00 -0.12581833503E+04  0.12581833503E+04  0.00000000000E+00 0.  1.
         25    1    1    2    0    0  0.59760667762E+02 -0.23152150462E+03 -0.39318591667E+03  0.47685816506E+03  0.12500000000E+03 0.  0.
         21    1    1    2  502  501 -0.59760667762E+02  0.23152150462E+03 -0.80579729349E+03  0.84052532545E+03  0.00000000000E+00 0.  1.
<mgrwt>
<rscale>  3 0.54583745E+03</rscale>
<asrwt>0</asrwt>
<pdfrwt beam="1">  1        2 0.19356666E+00 0.54583745E+03</pdfrwt>
<pdfrwt beam="2">  1       -2 0.91077144E-02 0.54583745E+03</pdfrwt>
<totfact> 0.14157141E+03</totfact>
</mgrwt>
</event>
<event>
 4    0  0.1264838E-002  0.4428264E+03  0.7546771E-02  0.1029883E+00
          2   -1    0    0  502    0  0.00000000000E+00  0.00000000000E+00  0.20059798030E+04  0.20059798030E+04  0.00000000000E+00 0.  1.
         -2   -1    0    0    0  501 -0.00000000000E+00 -0.00000000000E+00 -0.24438829237E+02  0.24438829237E+02  0.00000000000E+00 0. -1.
         25    1    1    2    0    0 -0.18462286230E+03  0.84496375815E+02  0.99065551826E+03  0.10189448438E+04  0.12500000000E+03 0.  0.
         21    1    1    2  502  501  0.18462286230E+03 -0.84496375815E+02  0.99088545553E+03  0.10114737885E+04  0.00000000000E+00 0. -1.
<mgrwt>
<rscale>  3 0.44282637E+03</rscale>
<asrwt>0</asrwt>
<pdfrwt beam="1">  1        2 0.30861215E+00 0.44282637E+03</pdfrwt>
<pdfrwt beam="2">  1       -2 0.37598215E-02 0.44282637E+03</pdfrwt>
<totfact> 0.22055557E+03</totfact>
</mgrwt>
</event>
<event>
 4    0  0.1264838E-002  0.5614120E+03  0.7546771E-02  0.9988865E-01
          2   -1    0    0  502    0  0.00000000000E+00  0.00000000000E+00  0.11901092120E+03  0.11901092120E+03  0.00000000000E+00 0. -1.
         -2   -1    0    0    0  501 -0.00000000000E+00 -0.00000000000E+00 -0.66208940147E+03  0.66208940147E+03  0.00000000000E+00 0.  1.
         25    1    1    2    0    0  0.12670151213E+02 -0.21329751735E+03 -0.62735644304E+02  0.25537643725E+03  0.12500000000E+03 0.  0.
         21    1    1    2  502  501 -0.12670151213E+02  0.21329751735E+03 -0.48034283596E+03  0.52572388542E+03  0.00000000000E+00 0.  1.
<mgrwt>
<rscale>  3 0.56141204E+03</rscale>
<asrwt>0</asrwt>
<pdfrwt beam="1">  1        2 0.18309372E-01 0.56141204E+03</pdfrwt>
<pdfrwt beam="2">  1       -2 0.10185991E+00 0.56141204E+03</pdfrwt>
<totfact> 0.25247947E+02</totfact>
</mgrwt>
</event>
<event>
 4    0  0.1264838E-002  0.7778385E+03  0.7546771E-02  0.9592661E-01
          2   -1    0    0  502    0  0.00000000000E+00  0.00000000000E+00  0.61153398612E+03  0.61153398612E+03  0.00000000000E+00 0.  1.
         -2   -1    0    0    0  501 -0.00000000000E+00 -0.00000000000E+00 -0.24734220964E+03  0.24734220964E+03  0.00000000000E+00 0. -1.
         25    1    1    2    0    0 -0.10540176595E+02  0.32975790149E+03  0.39247077946E+03  0.52774016490E+03  0.12500000000E+03 0.  0.
         21    1    1    2  502  501  0.10540176595E+02 -0.32975790149E+03 -0.28279002980E+02  0.33113603085E+03  0.00000000000E+00 0. -1.
<mgrwt>
<rscale>  3 0.77783846E+03</rscale>
<asrwt>0</asrwt>
<pdfrwt beam="1">  1        2 0.94082151E-01 0.77783846E+03</pdfrwt>
<pdfrwt beam="2">  1       -2 0.38052648E-01 0.77783846E+03</pdfrwt>
<totfact> 0.31791061E+02</totfact>
</mgrwt>
</event>
<event>
 4    0  0.1264838E-002  0.6526492E+03  0.7546771E-02  0.9801821E-01
         -3   -1    0    0    0  501 -0.00000000000E+00  0.00000000000E+00  0.46553763291E+03  0.46553763291E+03  0.00000000000E+00 0.  1.
          3   -1    0    0  502    0  0.00000000000E+00 -0.00000000000E+00 -0.22874144992E+03  0.22874144992E+03  0.00000000000E+00 0. -1.
         25    1    1    2    0    0 -0.13167946936E+03  0.22223432271E+03 -0.67824862580E+02  0.29487758278E+03  0.12500000000E+03 0.  0.
         21    1    1    2  502  501  0.13167946936E+03 -0.22223432271E+03  0.30462104557E+03  0.39940150005E+03  0.00000000000E+00 0.  1.
<mgrwt>
<rscale>  3 0.65264923E+03</rscale>
<asrwt>0</asrwt>
<pdfrwt beam="1">  1        3 0.35190992E-01 0.65264923E+03</pdfrwt>
<pdfrwt beam="2">  1       -3 0.71621174E-01 0.65264923E+03</pdfrwt>
<totfact> 0.39018851E+01</totfact>
</mgrwt>
</event>
<event>
 4    0  0.1264838E-002  0.4805581E+03  0.7546771E-02  0.1018982E+00
          2   -1    0    0  502    0  0.00000000000E+00  0.00000000000E+00  0.17162704109E+04  0.17162704109E+04  0.00000000000E+00 0.  1.
         -2   -1    0    0    0  501 -0.00000000000E+00 -0.00000000000E+00 -0.33639232387E+02  0.33639232387E+02  0.00000000000E+00 0. -1.
         25    1    1    2    0    0  0.10143185006E+03 -0.19254672421E+03  0.10917188795E+04  0.11201954173E+04  0.12500000000E+03 0.  0.
         21    1    1    2  502  501 -0.10143185006E+03  0.19254672421E+03  0.59091229901E+03  0.62971422593E+03  0.00000000000E+00 0.  1.
<mgrwt>
<rscale>  3 0.48055809E+03</rscale>
<asrwt>0</asrwt>
<pdfrwt beam="1">  1        2 0.26404153E+00 0.48055809E+03</pdfrwt>
<pdfrwt beam="2">  1       -2 0.51752678E-02 0.48055809E+03</pdfrwt>
<totfact> 0.19289444E+03</totfact>
</mgrwt>
</event>
<event>
 4    0  0.1264838E-002  0.4495851E+03  0.7546771E-02  0.1027846E+00
          4   -1    0    0  502    0  0.00000000000E+00  0.00000000000E+00  0.52306788979E+03  0.52306788979E+03  0.00000000000E+00 0.  1.
         -4   -1    0    0    0  501 -0.00000000000E+00 -0.00000000000E+00 -0.96606371789E+02  0.96606371789E+02  0.00000000000E+00 0. -1.
         25    1    1    2    0    0  0.36040750459E+02  0.19907778990E+03  0.16669810050E+03  0.29042065841E+03  0.12500000000E+03 0.  0.
         21    1    1    2  502  501 -0.36040750459E+02 -0.19907778990E+03  0.25976341750E+03  0.32925360316E+03  0.00000000000E+00 0.  1.
<mgrwt>
<rscale>  3 0.44958510E+03</rscale>
<asrwt>0</asrwt>
<pdfrwt beam="1">  1        4 0.80471982E-01 0.44958510E+03</pdfrwt>
<pdfrwt beam="2">  1       -4 0.14862519E-01 0.44958510E+03</pdfrwt>
<totfact> 0.10460503E+02</totfact>
</mgrwt>
</event>
<event>
 4    0  0.1264838E-002  0.6537578E+03  0.7546771E-02  0.9799753E-01
          1   -1    0    0  502    0  0.00000000000E+00  0.00000000000E+00  0.40377012560E+03  0.40377012560E+03  0.00000000000E+00 0. -1.
         -1   -1    0    0    0  501 -0.00000000000E+00 -0.00000000000E+00 -0.26463031884E+03  0.26463031884E+03  0.00000000000E+00 0.  1.
         25    1    1    2    0    0  0.31436343399E+03 -0.15725880443E+02  0.82760495613E+02  0.34863443832E+03  0.12500000000E+03 0.  0.
         21    1    1    2  502  501 -0.31436343399E+03  0.15725880443E+02  0.56379311146E+02  0.31976600613E+03  0.00000000000E+00 0. -1.
<mgrwt>
<rscale>  3 0.65375781E+03</rscale>
<asrwt>0</asrwt>
<pdfrwt beam="1">  1        1 0.62118481E-01 0.65375781E+03</pdfrwt>
<pdfrwt beam="2">  1       -1 0.40712357E-01 0.65375781E+03</pdfrwt>
<totfact> 0.35385093E+02</totfact>
</mgrwt>
</event>
<event>
 4    0  0.1264838E-002  0.9751509E+03  0.7546771E-02  0.9336227E-01
          2   -1    0    0  502    0  0.00000000000E+00  0.00000000000E+00  0.10399889153E+04  0.10399889153E+04  0.00000000000E+00 0.  1.
         -2   -1    0    0    0  501 -0.00000000000E+00 -0.00000000000E+00 -0.22858881537E+03  0.22858881537E+03  0.00000000000E+00 0. -1.
         25    1    1    2    0    0 -0.77055394182E+02  0.19462839410E+03  0.97366343946E+03  0.10037246828E+04  0.12500000000E+03 0.  0.
         21    1    1    2  502  501  0.77055394182E+02 -0.19462839410E+03 -0.16226333957E+03  0.26485304780E+03  0.00000000000E+00 0. -1.
<mgrwt>
<rscale>  3 0.97515093E+03</rscale>
<asrwt>0</asrwt>
<pdfrwt beam="1">  1        2 0.15999829E+00 0.97515093E+03</pdfrwt>
<pdfrwt beam="2">  1       -2 0.35167511E-01 0.97515093E+03</pdfrwt>
<totfact> 0.17999532E+02</totfact>
</mgrwt>
</event>
<event>
 4    0  0.1264838E-002  0.5095448E+03  0.7546771E-02  0.1011317E+00
          2   -1    0    0  502    0  0.00000000000E+00  0.00000000000E+00  0.15084225907E+04  0.15084225907E+04  0.00000000000E+00 0. -1.
         -2   -1    0    0    0  501 -0.00000000000E+00 -0.00000000000E+00 -0.43031020738E+02  0.43031020738E+02  0.00000000000E+00 0.  1.
         25    1    1    2    0    0 -0.17157928527E+03  0.16691934676E+03  0.79347342502E+03  0.83816859621E+03  0.12500000000E+03 0.  0.
         21    1    1    2  502  501  0.17157928527E+03 -0.16691934676E+03  0.67191814496E+03  0.71328501525E+03  0.00000000000E+00 0.  1.
<mgrwt>
<rscale>  3 0.50954475E+03</rscale>
<asrwt>0</asrwt>
<pdfrwt beam="1">  1        2 0.23206497E+00 0.50954475E+03</pdfrwt>
<pdfrwt beam="2">  1       -2 0.66201582E-02 0.50954475E+03</pdfrwt>
<totfact> 0.17025273E+03</totfact>
</mgrwt>
</event>
<event>
 4    0  0.1264838E-002  0.4491933E+03  0.7546771E-02  0.1027963E+00
          2   -1    0    0  502    0  0.00000000000E+00  0.00000000000E+00  0.22765860409E+03  0.22765860409E+03  0.00000000000E+00 0.  1.
         -2   -1    0    0    0  501 -0.00000000000E+00 -0.00000000000E+00 -0.22157588607E+03  0.22157588607E+03  0.00000000000E+00 0. -1.
         25    1    1    2    0    0  0.16637488977E+03 -0.11909333534E+03  0.35988010500E+02  0.24245404383E+03  0.12500000000E+03 0.  0.
         21    1    1    2  502  501 -0.16637488977E+03  0.11909333534E+03 -0.29905292484E+02  0.20678044633E+03  0.00000000000E+00 0. -1.
<mgrwt>
<rscale>  3 0.44919331E+03</rscale>
<asrwt>0</asrwt>
<pdfrwt beam="1">  1        2 0.35024401E-01 0.44919331E+03</pdfrwt>
<pdfrwt beam="2">  1       -2 0.34088598E-01 0.44919331E+03</pdfrwt>
<totfact> 0.12016358E+03</totfact>
</mgrwt>
</event>
<event>
 4    0  0.1264838E-002  0.4742394E+03  0.7546771E-02  0.1020730E+00
          2   -1    0    0  502    0  0.00000000000E+00  0.00000000000E+00  0.27896389302E+04  0.27896389302E+04  0.00000000000E+00 0. -1.
         -2   -1    0    0    0  501 -0.00000000000E+00 -0.00000000000E+00 -0.20155209651E+02  0.20155209651E+02  0.00000000000E+00 0.  1.
         25    1    1    2    0    0 -0.50826389306E+02 -0.20030493280E+03  0.10228037003E+04  0.10509318709E+04  0.12500000000E+03 0.  0.
         21    1    1    2  502  501  0.50826389306E+02  0.20030493280E+03  0.17466800203E+04  0.17588622690E+04  0.00000000000E+00 0. -1.
<mgrwt>
<rscale>  3 0.47423942E+03</rscale>
<asrwt>0</asrwt>
<pdfrwt beam="1">  1        2 0.42917491E+00 0.47423942E+03</pdfrwt>
<pdfrwt beam="2">  1       -2 0.31008037E-02 0.47423942E+03</pdfrwt>
<totfact> 0.10845134E+03</totfact>
</mgrwt>
</event>
<event>
 4    0  0.1264838E-002  0.4959427E+03  0.7546771E-02  0.1014843E+00
          1   -1    0    0  502    0  0.00000000000E+00  0.00000000000E+00  0.35075797984E+03  0.35075797984E+03  0.00000000000E+00 0.  1.
         -1   -1    0    0    0  501 -0.00000000000E+00 -0.00000000000E+00 -0.17530545095E+03  0.17530545095E+03  0.00000000000E+00 0. -1.
         25    1    1    2    0    0 -0.14674449824E+03 -0.17098121944E+03  0.15289808479E+03  0.29961867348E+03  0.12500000000E+03 0.  0.
         21    1    1    2  502  501  0.14674449824E+03  0.17098121944E+03  0.22554444108E+02  0.22644475731E+03  0.00000000000E+00 0. -1.
<mgrwt>
<rscale>  3 0.49594268E+03</rscale>
<asrwt>0</asrwt>
<pdfrwt beam="1">  1        1 0.53962766E-01 0.49594268E+03</pdfrwt>
<pdfrwt beam="2">  1       -1 0.26970069E-01 0.49594268E+03</pdfrwt>
<totfact> 0.88127772E+02</totfact>
</mgrwt>
</event>
<event>
 4    0  0.1264838E-002  0.4607072E+03  0.7546771E-02  0.1024576E+00
          2   -1    0    0  502    0  0.00000000000E+00  0.00000000000E+00  0.46171695506E+03  0.46171695506E+03  0.00000000000E+00 0. -1.
         -2   -1    0    0    0  501 -0.00000000000E+00 -0.00000000000E+00 -0.11492488889E+03  0.11492488889E+03  0.00000000000E+00 0.  1.
         25    1    1    2    0    0  0.18252895387E+03  0.10909736753E+03  0.20850794918E+03  0.32298547873E+03  0.12500000000E+03 0.  0.
         21    1    1    2  502  501 -0.18252895387E+03 -0.10909736753E+03  0.13828411699E+03  0.25365636521E+03  0.00000000000E+00 0. -1.
<mgrwt>
<rscale>  3 0.46070715E+03</rscale>
<asrwt>0</asrwt>
<pdfrwt beam="1">  1        2 0.71033377E-01 0.46070715E+03</pdfrwt>
<pdfrwt beam="2">  1       -2 0.17680752E-01 0.46070715E+03</pdfrwt>
<totfact> 0.17783598E+03</totfact>
</mgrwt>
</event>
<event>
 4    0  0.1264838E-002  0.4943686E+03  0.7546771E-02  0.1015259E+00
          2   -1    0    0  502    0  0.00000000000E+00  0.00000000000E+00  0.26777108438E+03  0.26777108438E+03  0.00000000000E+00 0. -1.
         -2   -1    0    0    0  501 -0.00000000000E+00 -0.00000000000E+00 -0.22818022660E+03  0.22818022660E+03  0.00000000000E+00 0.  1.
         25    1    1    2    0    0 -0.14079021648E+03 -0.18193347018E+03 -0.38303084647E+01  0.26184221182E+03  0.12500000000E+03 0.  0.
         21    1    1    2  502  501  0.14079021648E+03  0.18193347018E+03  0.43421166246E+02  0.23410909915E+03  0.00000000000E+00 0. -1.
<mgrwt>
<rscale>  3 0.49436855E+03</rscale>
<asrwt>0</asrwt>
<pdfrwt beam="1">  1        2 0.41195551E-01 0.49436855E+03</pdfrwt>
<pdfrwt beam="2">  1       -2 0.35104650E-01 0.49436855E+03</pdfrwt>
<totfact> 0.95113646E+02</totfact>
</mgrwt>
</event>
<event>
 4    0  0.1264838E-002  0.4795959E+03  0.7546771E-02  0.1019246E+00
         -1   -1    0    0    0  501 -0.00000000000E+00  0.00000000000E+00  0.15110693219E+03  0.15110693219E+03  0.00000000000E+00 0. -1.
          1   -1    0    0  502    0  0.00000000000E+00 -0.00000000000E+00 -0.38054538678E+03  0.38054538678E+03  0.00000000000E+00 0.  1.
         25    1    1    2    0    0 -0.16393594945E+03 -0.15055824314E+03 -0.99980669093E+02  0.27416038060E+03  0.12500000000E+03 0.  0.
         21    1    1    2  502  501  0.16393594945E+03  0.15055824314E+03 -0.12945778550E+03  0.25749193837E+03  0.00000000000E+00 0.  1.
<mgrwt>
<rscale>  3 0.47959585E+03</rscale>
<asrwt>0</asrwt>
<pdfrwt beam="1">  1        1 0.58545444E-01 0.47959585E+03</pdfrwt>
<pdfrwt beam="2">  1       -1 0.23247221E-01 0.47959585E+03</pdfrwt>
<totfact> 0.10191288E+03</totfact>
</mgrwt>
</event>
<event>
 4    0  0.1264838E-002  0.1105864E+04  0.7546771E-02  0.9199495E-01
         -2   -1    0    0    0  501 -0.00000000000E+00  0.00000000000E+00  0.37502830373E+03  0.37502830373E+03  0.00000000000E+00 0. -1.
          2   -1    0    0  502    0  0.00000000000E+00 -0.00000000000E+00 -0.81522856397E+03  0.81522856397E+03  0.00000000000E+00 0.  1.
         25    1    1    2    0    0  0.32376109743E+03 -0.34599346124E+03 -0.51458833742E+03  0.71060458796E+03  0.12500000000E+03 0.  0.
         21    1    1    2  502  501 -0.32376109743E+03  0.34599346124E+03  0.74388077168E+02  0.47965227974E+03  0.00000000000E+00 0. -1.
<mgrwt>
<rscale>  3 0.11058640E+04</rscale>
<asrwt>0</asrwt>
<pdfrwt beam="1">  1        2 0.12541978E+00 0.11058640E+04</pdfrwt>
<pdfrwt beam="2">  1       -2 0.57696662E-01 0.11058640E+04</pdfrwt>
<totfact> 0.93794294E+01</totfact>
</mgrwt>
</event>
<event>
 4    0  0.1264838E-002  0.4976949E+03  0.7546771E-02  0.1014382E+00
         -1   -1    0    0    0  501 -0.00000000000E+00  0.00000000000E+00  0.50877027160E+02  0.50877027160E+02  0.00000000000E+00 0. -1.
          1   -1    0    0  502    0  0.00000000000E+00 -0.00000000000E+00 -0.12171514139E+04  0.12171514139E+04  0.00000000000E+00 0.  1.
         25    1    1    2    0    0  0.22498392285E+03 -0.42485491838E+02 -0.50781339686E+03  0.57089598754E+03  0.12500000000E+03 0.  0.
         21    1    1    2  502  501 -0.22498392285E+03  0.42485491838E+02 -0.65846098989E+03  0.69713245353E+03  0.00000000000E+00 0.  1.
<mgrwt>
<rscale>  3 0.49769487E+03</rscale>
<asrwt>0</asrwt>
<pdfrwt beam="1">  1        1 0.18725406E+00 0.49769487E+03</pdfrwt>
<pdfrwt beam="2">  1       -1 0.78272351E-02 0.49769487E+03</pdfrwt>
<totfact> 0.98293025E+02</totfact>
</mgrwt>
</event>
<event>
 4    0  0.1264838E-002  0.6035139E+03  0.7546771E-02  0.9898143E-01
         -2   -1    0    0    0  501 -0.00000000000E+00  0.00000000000E+00  0.14652287720E+03  0.14652287720E+03  0.00000000000E+00 0. -1.
          2   -1    0    0  502    0  0.00000000000E+00 -0.00000000000E+00 -0.62145419931E+03  0.62145419931E+03  0.00000000000E+00 0.  1.
         25    1    1    2    0    0 -0.37409618464E+01  0.26374662024E+03 -0.39733382076E+03  0.49302681428E+03  0.12500000000E+03 0.  0.
         21    1    1    2  502  501  0.37409618464E+01 -0.26374662024E+03 -0.77597501352E+02  0.27495026223E+03  0.00000000000E+00 0. -1.
<mgrwt>
<rscale>  3 0.60351390E+03</rscale>
<asrwt>0</asrwt>
<pdfrwt beam="1">  1        2 0.95608338E-01 0.60351390E+03</pdfrwt>
<pdfrwt beam="2">  1       -2 0.22541981E-01 0.60351390E+03</pdfrwt>
<totfact> 0.82438075E+02</totfact>
</mgrwt>
</event>
<event>
 4    0  0.1465873E-002  0.7041752E+03  0.7546771E-02  0.9710119E-01
         -1   -1    0    0    0  501 -0.00000000000E+00  0.00000000000E+00  0.94825078968E+02  0.94825078968E+02  0.00000000000E+00 0.  1.
          1   -1    0    0  502    0  0.00000000000E+00 -0.00000000000E+00 -0.13073088618E+04  0.13073088618E+04  0.00000000000E+00 0. -1.
         25    1    1    2    0    0  0.22279067635E+03 -0.35892853946E+02 -0.11631998553E+03  0.28298289960E+03  0.12500000000E+03 0.  0.
         21    1    1    2  502  501 -0.22279067635E+03  0.35892853946E+02 -0.10961637973E+04  0.11191510411E+04  0.00000000000E+00 0. -1.
<mgrwt>
<rscale>  3 0.70417517E+03</rscale>
<asrwt>0</asrwt>
<pdfrwt beam="1">  1        1 0.20112442E+00 0.70417517E+03</pdfrwt>
<pdfrwt beam="2">  1       -1 0.14588475E-01 0.70417517E+03</pdfrwt>
<totfact> 0.31293454E+02</totfact>
</mgrwt>
</event>
<event>
 4    0  0.1264838E-002  0.5749401E+03  0.7546771E-02  0.9958806E-01
         -1   -1    0    0    0  501 -0.00000000000E+00  0.00000000000E+00  0.83208516897E+02  0.83208516897E+02  0.00000000000E+00 0.  1.
          1   -1    0    0  502    0  0.00000000000E+00 -0.00000000000E+00 -0.99315596626E+03  0.99315596626E+03  0.00000000000E+00 0. -1.
         25    1    1    2    0    0 -0.16922636051E+03  0.14944475121E+03 -0.76675031650E+03  0.80901319063E+03  0.12500000000E+03 0.  0.
         21    1    1    2  502  501  0.16922636051E+03 -0.14944475121E+03 -0.14319713287E+03  0.26735129253E+03  0.00000000000E+00 0.  1.
<mgrwt>
<rscale>  3 0.57494012E+03</rscale>
<asrwt>0</asrwt>
<pdfrwt beam="1">  1        1 0.15279322E+00 0.57494012E+03</pdfrwt>
<pdfrwt beam="2">  1       -1 0.12801311E-01 0.57494012E+03</pdfrwt>
<totfact> 0.66104378E+02</totfact>
</mgrwt>
</event>
<event>
 4    0  0.1264838E-002  0.5290531E+03  0.7546771E-02  0.1006462E+00
         -2   -1    0    0    0  501 -0.00000000000E+00  0.00000000000E+00  0.51562183097E+03  0.51562183097E+03  0.00000000000E+00 0.  1.
          2   -1    0    0  502    0  0.00000000000E+00 -0.00000000000E+00 -0.13570857653E+03  0.13570857653E+03  0.00000000000E+00 0. -1.
         25    1    1    2    0    0 -0.77370592024E+02  0.19845734153E+03  0.36111918808E+03  0.43749696332E+03  0.12500000000E+03 0.  0.
         21    1    1    2  502  501  0.77370592024E+02 -0.19845734153E+03  0.18794066358E+02  0.21383344417E+03  0.00000000000E+00 0. -1.
<mgrwt>
<rscale>  3 0.52905313E+03</rscale>
<asrwt>0</asrwt>
<pdfrwt beam="1">  1        2 0.20878243E-01 0.52905313E+03</pdfrwt>
<pdfrwt beam="2">  1       -2 0.79326435E-01 0.52905313E+03</pdfrwt>
<totfact> 0.38451930E+02</totfact>
</mgrwt>
</event>
<event>
 4    0  0.1264838E-002  0.5154958E+03  0.7546771E-02  0.1009812E+00
          2   -1    0    0  502    0  0.00000000000E+00  0.00000000000E+00  0.52749272961E+03  0.52749272961E+03  0.00000000000E+00 0.  1.
         -2   -1    0    0    0  501 -0.00000000000E+00 -0.00000000000E+00 -0.12594291468E+03  0.12594291468E+03  0.00000000000E+00 0. -1.
         25    1    1    2    0    0  0.22881015723E+03  0.43626032681E+02  0.29849457418E+03  0.39872462878E+03  0.12500000000E+03 0.  0.
         21    1    1    2  502  501 -0.22881015723E+03 -0.43626032681E+02  0.10305524076E+03  0.25471101552E+03  0.00000000000E+00 0. -1.
<mgrwt>
<rscale>  3 0.51549577E+03</rscale>
<asrwt>0</asrwt>
<pdfrwt beam="1">  1        2 0.81152727E-01 0.51549577E+03</pdfrwt>
<pdfrwt beam="2">  1       -2 0.19375833E-01 0.51549577E+03</pdfrwt>
<totfact> 0.13054936E+03</totfact>
</mgrwt>
</event>
<event>
 4    0  0.1264838E-002  0.5031599E+03  0.7546771E-02  0.1012957E+00
          2   -1    0    0  502    0  0.00000000000E+00  0.00000000000E+00  0.12000319498E+03  0.12000319498E+03  0.00000000000E+00 0. -1.
         -2   -1    0    0    0  501 -0.00000000000E+00 -0.00000000000E+00 -0.52742313365E+03  0.52742313365E+03  0.00000000000E+00 0.  1.
         25    1    1    2    0    0 -0.12361900774E+03  0.17477806672E+03 -0.88306966815E+02  0.26315803630E+03  0.12500000000E+03 0.  0.
         21    1    1    2  502  501  0.12361900774E+03 -0.17477806672E+03 -0.31911297186E+03  0.38426829233E+03  0.00000000000E+00 0.  1.
<mgrwt>
<rscale>  3 0.50315986E+03</rscale>
<asrwt>0</asrwt>
<pdfrwt beam="1">  1        2 0.18462030E-01 0.50315986E+03</pdfrwt>
<pdfrwt beam="2">  1       -2 0.81142021E-01 0.50315986E+03</pdfrwt>
<totfact> 0.42229445E+02</totfact>
</mgrwt>
</event>
<event>
 4    0  0.1264838E-002  0.4791266E+03  0.7546771E-02  0.1019375E+00
         -1   -1    0    0    0  501 -0.00000000000E+00  0.00000000000E+00  0.42286116364E+02  0.42286116364E+02  0.00000000000E+00 0.  1.
          1   -1    0    0  502    0  0.00000000000E+00 -0.00000000000E+00 -0.13571967722E+04  0.13571967722E+04  0.00000000000E+00 0. -1.
         25    1    1    2    0    0 -0.13501538349E+03 -0.16923215154E+03 -0.86152862286E+03  0.89706479303E+03  0.12500000000E+03 0.  0.
         21    1    1    2  502  501  0.13501538349E+03  0.16923215154E+03 -0.45338203298E+03  0.50241809554E+03  0.00000000000E+00 0.  1.
<mgrwt>
<rscale>  3 0.47912662E+03</rscale>
<asrwt>0</asrwt>
<pdfrwt beam="1">  1        1 0.20879951E+00 0.47912662E+03</pdfrwt>
<pdfrwt beam="2">  1       -1 0.65055562E-02 0.47912662E+03</pdfrwt>
<totfact> 0.10443816E+03</totfact>
</mgrwt>
</event>
<event>
 4    0  0.1264838E-002  0.6791061E+03  0.7546771E-02  0.9753646E-01
         -2   -1    0    0    0  501 -0.00000000000E+00  0.00000000000E+00  0.51791633217E+03  0.51791633217E+03  0.00000000000E+00 0. -1.
          2   -1    0    0  502    0  0.00000000000E+00 -0.00000000000E+00 -0.22261561282E+03  0.22261561282E+03  0.00000000000E+00 0.  1.
         25    1    1    2    0    0  0.31584567371E+03  0.73485460490E+02  0.98595607192E+02  0.36125433736E+03  0.12500000000E+03 0.  0.
         21    1    1    2  502  501 -0.31584567371E+03 -0.73485460490E+02  0.19670511216E+03  0.37927760763E+03  0.00000000000E+00 0. -1.
<mgrwt>
<rscale>  3 0.67910606E+03</rscale>
<asrwt>0</asrwt>
<pdfrwt beam="1">  1        2 0.34248556E-01 0.67910606E+03</pdfrwt>
<pdfrwt beam="2">  1       -2 0.79679436E-01 0.67910606E+03</pdfrwt>
<totfact> 0.21598908E+02</totfact>
</mgrwt>
</event>
<event>
 4    0  0.1264838E-002  0.5021243E+03  0.7546771E-02  0.1013226E+00
         -2   -1    0    0    0  501 -0.00000000000E+00  0.00000000000E+00  0.16693884006E+03  0.16693884006E+03  0.00000000000E+00 0.  1.
          2   -1    0    0  502    0  0.00000000000E+00 -0.00000000000E+00 -0.37757655121E+03  0.37757655121E+03  0.00000000000E+00 0. -1.
         25    1    1    2    0    0 -0.21219941988E+03  0.10109843046E+03 -0.96045675780E+02  0.28301812358E+03  0.12500000000E+03 0.  0.
         21    1    1    2  502  501  0.21219941988E+03 -0.10109843046E+03 -0.11459203537E+03  0.26149726769E+03  0.00000000000E+00 0. -1.
<mgrwt>
<rscale>  3 0.50212425E+03</rscale>
<asrwt>0</asrwt>
<pdfrwt beam="1">  1        2 0.58088699E-01 0.50212425E+03</pdfrwt>
<pdfrwt beam="2">  1       -2 0.25682899E-01 0.50212425E+03</pdfrwt>
<totfact> 0.11587152E+03</totfact>
</mgrwt>
</event>
<event>
 4    0  0.1264838E-002  0.1049223E+04  0.7546771E-02  0.9256147E-01
         -2   -1    0    0    0  501 -0.00000000000E+00  0.00000000000E+00  0.75848482721E+02  0.75848482721E+02  0.00000000000E+00 0.  1.
          2   -1    0    0  502    0  0.00000000000E+00 -0.00000000000E+00 -0.36285130017E+04  0.36285130017E+04  0.00000000000E+00 0. -1.
         25    1    1    2    0    0 -0.15812578514E+03  0.48107196316E+03 -0.21722741726E+04  0.22340174750E+04  0.12500000000E+03 0.  0.
         21    1    1    2  502  501  0.15812578514E+03 -0.48107196316E+03 -0.13803903464E+04  0.14703440095E+04  0.00000000000E+00 0.  1.
<mgrwt>
<rscale>  3 0.10492230E+04</rscale>
<asrwt>0</asrwt>
<pdfrwt beam="1">  1        2 0.55823280E+00 0.10492230E+04</pdfrwt>
<pdfrwt beam="2">  1       -2 0.11668997E-01 0.10492230E+04</pdfrwt>
<totfact> 0.36438076E+01</totfact>
</mgrwt>
</event>
<event>
 4    0  0.1264838E-002  0.6346394E+03  0.7546771E-02  0.9836037E-01
         -1   -1    0    0    0  501 -0.00000000000E+00  0.00000000000E+00  0.17876248410E+03  0.17876248410E+03  0.00000000000E+00 0. -1.
          1   -1    0    0  502    0  0.00000000000E+00 -0.00000000000E+00 -0.56327144505E+03  0.56327144505E+03  0.00000000000E+00 0.  1.
         25    1    1    2    0    0 -0.10047907882E+03 -0.26460892778E+03 -0.33259785624E+03  0.45426893348E+03  0.12500000000E+03 0.  0.
         21    1    1    2  502  501  0.10047907882E+03  0.26460892778E+03 -0.51911104700E+02  0.28776499567E+03  0.00000000000E+00 0.  1.
<mgrwt>
<rscale>  3 0.63463943E+03</rscale>
<asrwt>0</asrwt>
<pdfrwt beam="1">  1        1 0.86657145E-01 0.63463943E+03</pdfrwt>
<pdfrwt beam="2">  1       -1 0.27501921E-01 0.63463943E+03</pdfrwt>
<totfact> 0.45026071E+02</totfact>
</mgrwt>
</event>
<event>
 4    0  0.1264838E-002  0.5617414E+03  0.7546771E-02  0.9988122E-01
         -2   -1    0    0    0  501 -0.00000000000E+00  0.00000000000E+00  0.16289042087E+03  0.16289042087E+03  0.00000000000E+00 0. -1.
          2   -1    0    0  502    0  0.00000000000E+00 -0.00000000000E+00 -0.48430313791E+03  0.48430313791E+03  0.00000000000E+00 0.  1.
         25    1    1    2    0    0  0.24375791076E+03 -0.10030146634E+03 -0.11990648594E+03  0.31540587911E+03  0.12500000000E+03 0.  0.
         21    1    1    2  502  501 -0.24375791076E+03  0.10030146634E+03 -0.20150623111E+03  0.33178767967E+03  0.00000000000E+00 0.  1.
<mgrwt>
<rscale>  3 0.56174137E+03</rscale>
<asrwt>0</asrwt>
<pdfrwt beam="1">  1        2 0.74508174E-01 0.56174137E+03</pdfrwt>
<pdfrwt beam="2">  1       -2 0.25060065E-01 0.56174137E+03</pdfrwt>
<totfact> 0.91524918E+02</totfact>
</mgrwt>
</event>
<event>
 4    0  0.1264838E-002  0.4545725E+03  0.7546771E-02  0.1026367E+00
         -2   -1    0    0    0  501 -0.00000000000E+00  0.00000000000E+00  0.18661688791E+02  0.18661688791E+02  0.00000000000E+00 0. -1.
          2   -1    0    0  502    0  0.00000000000E+00 -0.00000000000E+00 -0.27681872628E+04  0.27681872628E+04  0.00000000000E+00 0.  1.
         25    1    1    2    0    0 -0.19720515812E+03 -0.67367609826E+02 -0.13149392850E+04  0.13372055162E+04  0.12500000000E+03 0.  0.
         21    1    1    2  502  501  0.19720515812E+03  0.67367609826E+02 -0.14345862890E+04  0.14496434354E+04  0.00000000000E+00 0. -1.
<mgrwt>
<rscale>  3 0.45457254E+03</rscale>
<asrwt>0</asrwt>
<pdfrwt beam="1">  1        2 0.42587499E+00 0.45457254E+03</pdfrwt>
<pdfrwt beam="2">  1       -2 0.28710289E-02 0.45457254E+03</pdfrwt>
<totfact> 0.12562182E+03</totfact>
</mgrwt>
</event>
<event>
 4    0  0.1264838E-002  0.4472447E+03  0.7546771E-02  0.1028547E+00
          2   -1    0    0  502    0  0.00000000000E+00  0.00000000000E+00  0.82084008739E+03  0.82084008739E+03  0.00000000000E+00 0.  1.
         -2   -1    0    0    0  501 -0.00000000000E+00 -0.00000000000E+00 -0.60921666089E+02  0.60921666089E+02  0.00000000000E+00 0. -1.
         25    1    1    2    0    0 -0.15848116871E+03 -0.12367381337E+03  0.31954862984E+03  0.39767803532E+03  0.12500000000E+03 0.  0.
         21    1    1    2  502  501  0.15848116871E+03  0.12367381337E+03  0.44036979146E+03  0.48408371815E+03  0.00000000000E+00 0.  1.
<mgrwt>
<rscale>  3 0.44724466E+03</rscale>
<asrwt>0</asrwt>
<pdfrwt beam="1">  1        2 0.12628308E+00 0.44724466E+03</pdfrwt>
<pdfrwt beam="2">  1       -2 0.93725646E-02 0.44724466E+03</pdfrwt>
<totfact> 0.25357061E+03</totfact>
</mgrwt>
</event>
<event>
 4    0  0.1264838E-002  0.1211054E+04  0.7546771E-02  0.9103235E-01
         -1   -1    0    0    0  501 -0.00000000000E+00  0.00000000000E+00  0.21309824738E+03  0.21309824738E+03  0.00000000000E+00 0. -1.
          1   -1    0    0  502    0  0.00000000000E+00 -0.00000000000E+00 -0.17206297099E+04  0.17206297099E+04  0.00000000000E+00 0.  1.
         25    1    1    2    0    0  0.35684646498E+02  0.38912671721E+03 -0.36733688597E+02  0.41190697969E+03  0.12500000000E+03 0.  0.
         21    1    1    2  502  501 -0.35684646498E+02 -0.38912671721E+03 -0.14707977739E+04  0.15218209776E+04  0.00000000000E+00 0.  1.
<mgrwt>
<rscale>  3 0.12110544E+04</rscale>
<asrwt>0</asrwt>
<pdfrwt beam="1">  1        1 0.26471226E+00 0.12110544E+04</pdfrwt>
<pdfrwt beam="2">  1       -1 0.32784346E-01 0.12110544E+04</pdfrwt>
<totfact> 0.39812631E+01</totfact>
</mgrwt>
</event>
<event>
 4    0  0.1264838E-002  0.5757775E+03  0.7546771E-02  0.9956975E-01
          1   -1    0    0  502    0  0.00000000000E+00  0.00000000000E+00  0.92196352690E+02  0.92196352690E+02  0.00000000000E+00 0.  1.
         -1   -1    0    0    0  501 -0.00000000000E+00 -0.00000000000E+00 -0.89895012537E+03  0.89895012537E+03  0.00000000000E+00 0. -1.
         25    1    1    2    0    0  0.21423889311E+03 -0.10082455276E+02 -0.71680215544E+03  0.75857121568E+03  0.12500000000E+03 0.  0.
         21    1    1    2  502  501 -0.21423889311E+03  0.10082455276E+02 -0.89951617239E+02  0.23257526237E+03  0.00000000000E+00 0.  1.
<mgrwt>
<rscale>  3 0.57577747E+03</rscale>
<asrwt>0</asrwt>
<pdfrwt beam="1">  1        1 0.14184054E-01 0.57577747E+03</pdfrwt>
<pdfrwt beam="2">  1       -1 0.13830002E+00 0.57577747E+03</pdfrwt>
<totfact> 0.18411500E+02</totfact>
</mgrwt>
</event>
<event>
 4    0  0.1264838E-002  0.6122797E+03  0.7546771E-02  0.9880252E-01
         -2   -1    0    0    0  501 -0.00000000000E+00  0.00000000000E+00  0.60745334065E+02  0.60745334065E+02  0.00000000000E+00 0. -1.
          2   -1    0    0  502    0  0.00000000000E+00 -0.00000000000E+00 -0.15428610338E+04  0.15428610338E+04  0.00000000000E+00 0.  1.
         25    1    1    2    0    0  0.24325906830E+03  0.11767346160E+03 -0.10711376724E+04  0.11117476922E+04  0.12500000000E+03 0.  0.
         21    1    1    2  502  501 -0.24325906830E+03 -0.11767346160E+03 -0.41097802734E+03  0.49185867567E+03  0.00000000000E+00 0. -1.
<mgrwt>
<rscale>  3 0.61227970E+03</rscale>
<asrwt>0</asrwt>
<pdfrwt beam="1">  1        2 0.23736323E+00 0.61227970E+03</pdfrwt>
<pdfrwt beam="2">  1       -2 0.93454361E-02 0.61227970E+03</pdfrwt>
<totfact> 0.93777492E+02</totfact>
</mgrwt>
</event>
<event>
 4    0  0.1264838E-002  0.4861486E+03  0.7546771E-02  0.1017459E+00
          1   -1    0    0  502    0  0.00000000000E+00  0.00000000000E+00  0.17131583797E+03  0.17131583797E+03  0.00000000000E+00 0.  1.
         -1   -1    0    0    0  501 -0.00000000000E+00 -0.00000000000E+00 -0.34489004173E+03  0.34489004173E+03  0.00000000000E+00 0. -1.
         25    1    1    2    0    0 -0.29948616782E+02 -0.22365388907E+03 -0.11881216241E+03  0.28400583036E+03  0.12500000000E+03 0.  0.
         21    1    1    2  502  501  0.29948616782E+02  0.22365388907E+03 -0.54762041341E+02  0.23220004934E+03  0.00000000000E+00 0. -1.
<mgrwt>
<rscale>  3 0.48614865E+03</rscale>
<asrwt>0</asrwt>
<pdfrwt beam="1">  1        1 0.26356283E-01 0.48614865E+03</pdfrwt>
<pdfrwt beam="2">  1       -1 0.53060006E-01 0.48614865E+03</pdfrwt>
<totfact> 0.65798177E+02</totfact>
</mgrwt>
</event>
<event>
 4    0  0.1264838E-002  0.4522908E+03  0.7546771E-02  0.1027041E+00
          1   -1    0    0  502    0  0.00000000000E+00  0.00000000000E+00  0.15669420784E+04  0.15669420784E+04  0.00000000000E+00 0. -1.
         -1   -1    0    0    0  501 -0.00000000000E+00 -0.00000000000E+00 -0.32637925577E+02  0.32637925577E+02  0.00000000000E+00 0.  1.
         25    1    1    2    0    0 -0.20710513294E+03 -0.18076311345E+02  0.75428426099E+03  0.79233139247E+03  0.12500000000E+03 0.  0.
         21    1    1    2  502  501  0.20710513294E+03  0.18076311345E+02  0.78001989184E+03  0.80724861152E+03  0.00000000000E+00 0. -1.
<mgrwt>
<rscale>  3 0.45229079E+03</rscale>
<asrwt>0</asrwt>
<pdfrwt beam="1">  1        1 0.24106795E+00 0.45229079E+03</pdfrwt>
<pdfrwt beam="2">  1       -1 0.50212205E-02 0.45229079E+03</pdfrwt>
<totfact> 0.11193404E+03</totfact>
</mgrwt>
</event>
<event>
 4    0  0.1264838E-002  0.4801177E+03  0.7546771E-02  0.1019103E+00
         -1   -1    0    0    0  501 -0.00000000000E+00  0.00000000000E+00  0.95466060596E+02  0.95466060596E+02  0.00000000000E+00 0. -1.
          1   -1    0    0  502    0  0.00000000000E+00 -0.00000000000E+00 -0.60365165687E+03  0.60365165687E+03  0.00000000000E+00 0.  1.
         25    1    1    2    0    0 -0.12200200571E+03  0.17395019166E+03 -0.16899853152E+03  0.29887900935E+03  0.12500000000E+03 0.  0.
         21    1    1    2  502  501  0.12200200571E+03 -0.17395019166E+03 -0.33918706475E+03  0.40023870811E+03  0.00000000000E+00 0.  1.
<mgrwt>
<rscale>  3 0.48011768E+03</rscale>
<asrwt>0</asrwt>
<pdfrwt beam="1">  1        1 0.92869485E-01 0.48011768E+03</pdfrwt>
<pdfrwt beam="2">  1       -1 0.14687086E-01 0.48011768E+03</pdfrwt>
<totfact> 0.11604929E+03</totfact>
</mgrwt>
</event>
<event>
 4    0  0.1264838E-002  0.1006903E+04  0.7546771E-02  0.9301006E-01
          2   -1    0    0  502    0  0.00000000000E+00  0.00000000000E+00  0.24940873335E+03  0.24940873335E+03  0.00000000000E+00 0. -1.
         -2   -1    0    0    0  501 -0.00000000000E+00 -0.00000000000E+00 -0.10162563617E+04  0.10162563617E+04  0.00000000000E+00 0.  1.
         25    1    1    2    0    0 -0.36407239794E+03 -0.33104744840E+03 -0.31423075962E+03  0.59708215040E+03  0.12500000000E+03 0.  0.
         21    1    1    2  502  501  0.36407239794E+03  0.33104744840E+03 -0.45261686874E+03  0.66858294467E+03  0.00000000000E+00 0. -1.
<mgrwt>
<rscale>  3 0.10069026E+04</rscale>
<asrwt>0</asrwt>
<pdfrwt beam="1">  1        2 0.38370573E-01 0.10069026E+04</pdfrwt>
<pdfrwt beam="2">  1       -2 0.15634714E+00 0.10069026E+04</pdfrwt>
<totfact> 0.36086885E+01</totfact>
</mgrwt>
</event>
<event>
 4    0  0.1264838E-002  0.6405002E+03  0.7546771E-02  0.9824770E-01
          2   -1    0    0  502    0  0.00000000000E+00  0.00000000000E+00  0.29603462712E+03  0.29603462712E+03  0.00000000000E+00 0.  1.
         -2   -1    0    0    0  501 -0.00000000000E+00 -0.00000000000E+00 -0.34644636772E+03  0.34644636772E+03  0.00000000000E+00 0. -1.
         25    1    1    2    0    0 -0.25356606736E+03  0.12579557465E+03  0.95767108415E+02  0.32390834533E+03  0.12500000000E+03 0.  0.
         21    1    1    2  502  501  0.25356606736E+03 -0.12579557465E+03 -0.14617884901E+03  0.31857264951E+03  0.00000000000E+00 0. -1.
<mgrwt>
<rscale>  3 0.64050018E+03</rscale>
<asrwt>0</asrwt>
<pdfrwt beam="1">  1        2 0.45543789E-01 0.64050018E+03</pdfrwt>
<pdfrwt beam="2">  1       -2 0.53299441E-01 0.64050018E+03</pdfrwt>
<totfact> 0.37331372E+02</totfact>
</mgrwt>
</event>
<event>
 4    0  0.1264838E-002  0.6103213E+03  0.7546771E-02  0.9884221E-01
          1   -1    0    0  502    0  0.00000000000E+00  0.00000000000E+00  0.23515321015E+04  0.23515321015E+04  0.00000000000E+00 0.  1.
         -1   -1    0    0    0  501 -0.00000000000E+00 -0.00000000000E+00 -0.39601003265E+02  0.39601003265E+02  0.00000000000E+00 0. -1.
         25    1    1    2    0    0 -0.13584064450E+03 -0.23844557889E+03  0.15994647039E+04  0.16276428705E+04  0.12500000000E+03 0.  0.
         21    1    1    2  502  501  0.13584064450E+03  0.23844557889E+03  0.71246639431E+03  0.76349023426E+03  0.00000000000E+00 0. -1.
<mgrwt>
<rscale>  3 0.61032133E+03</rscale>
<asrwt>0</asrwt>
<pdfrwt beam="1">  1        1 0.36177406E+00 0.61032133E+03</pdfrwt>
<pdfrwt beam="2">  1       -1 0.60924639E-02 0.61032133E+03</pdfrwt>
<totfact> 0.24721706E+02</totfact>
</mgrwt>
</event>
<event>
 4    0  0.1264838E-002  0.8898461E+03  0.7546771E-02  0.9438364E-01
         -2   -1    0    0    0  501 -0.00000000000E+00  0.00000000000E+00  0.30234384352E+03  0.30234384352E+03  0.00000000000E+00 0. -1.
          2   -1    0    0  502    0  0.00000000000E+00 -0.00000000000E+00 -0.65473972797E+03  0.65473972797E+03  0.00000000000E+00 0.  1.
         25    1    1    2    0    0  0.79072070630E+02  0.30950365727E+03  0.13970732167E+03  0.37038904135E+03  0.12500000000E+03 0.  0.
         21    1    1    2  502  501 -0.79072070630E+02 -0.30950365727E+03 -0.49210320612E+03  0.58669453014E+03  0.00000000000E+00 0.  1.
<mgrwt>
<rscale>  3 0.88984611E+03</rscale>
<asrwt>0</asrwt>
<pdfrwt beam="1">  1        2 0.10072919E+00 0.88984611E+03</pdfrwt>
<pdfrwt beam="2">  1       -2 0.46514438E-01 0.88984611E+03</pdfrwt>
<totfact> 0.19592514E+02</totfact>
</mgrwt>
</event>
<event>
 4    0  0.1264838E-002  0.4474365E+03  0.7546771E-02  0.1028489E+00
          1   -1    0    0  502    0  0.00000000000E+00  0.00000000000E+00  0.14635569814E+03  0.14635569814E+03  0.00000000000E+00 0. -1.
         -1   -1    0    0    0  501 -0.00000000000E+00 -0.00000000000E+00 -0.34197411296E+03  0.34197411296E+03  0.00000000000E+00 0.  1.
         25    1    1    2    0    0 -0.16952593170E+03  0.10787133949E+03 -0.15624808462E+03  0.28357314991E+03  0.12500000000E+03 0.  0.
         21    1    1    2  502  501  0.16952593170E+03 -0.10787133949E+03 -0.39370330189E+02  0.20475666119E+03  0.00000000000E+00 0. -1.
<mgrwt>
<rscale>  3 0.44743652E+03</rscale>
<asrwt>0</asrwt>
<pdfrwt beam="1">  1        1 0.22516261E-01 0.44743652E+03</pdfrwt>
<pdfrwt beam="2">  1       -1 0.52611403E-01 0.44743652E+03</pdfrwt>
<totfact> 0.82043154E+02</totfact>
</mgrwt>
</event>
<event>
 4    0  0.1264838E-002  0.7128223E+03  0.7546771E-02  0.9695552E-01
         -1   -1    0    0    0  501 -0.00000000000E+00  0.00000000000E+00  0.75794547343E+03  0.75794547343E+03  0.00000000000E+00 0. -1.
          1   -1    0    0  502    0  0.00000000000E+00 -0.00000000000E+00 -0.16759637306E+03  0.16759637306E+03  0.00000000000E+00 0.  1.
         25    1    1    2    0    0 -0.35346851313E+02 -0.23860376164E+03 -0.16842508636E+02  0.27219446185E+03  0.12500000000E+03 0.  0.
         21    1    1    2  502  501  0.35346851313E+02  0.23860376164E+03  0.60719160901E+03  0.65334738464E+03  0.00000000000E+00 0. -1.
<mgrwt>
<rscale>  3 0.71282231E+03</rscale>
<asrwt>0</asrwt>
<pdfrwt beam="1">  1        1 0.25784058E-01 0.71282231E+03</pdfrwt>
<pdfrwt beam="2">  1       -1 0.11660699E+00 0.71282231E+03</pdfrwt>
<totfact> 0.12651959E+02</totfact>
</mgrwt>
</event>
<event>
 4    0  0.1264838E-002  0.6344291E+03  0.7546771E-02  0.9836444E-01
          2   -1    0    0  502    0  0.00000000000E+00  0.00000000000E+00  0.13435674263E+03  0.13435674263E+03  0.00000000000E+00 0. -1.
         -2   -1    0    0    0  501 -0.00000000000E+00 -0.00000000000E+00 -0.74893952107E+03  0.74893952107E+03  0.00000000000E+00 0.  1.
         25    1    1    2    0    0 -0.21191253228E+03  0.12018787391E+03 -0.57447380472E+03  0.63639390214E+03  0.12500000000E+03 0.  0.
         21    1    1    2  502  501  0.21191253228E+03 -0.12018787391E+03 -0.40108973717E+02  0.24690236156E+03  0.00000000000E+00 0. -1.
<mgrwt>
<rscale>  3 0.63442911E+03</rscale>
<asrwt>0</asrwt>
<pdfrwt beam="1">  1        2 0.20670269E-01 0.63442911E+03</pdfrwt>
<pdfrwt beam="2">  1       -2 0.11522146E+00 0.63442911E+03</pdfrwt>
<totfact> 0.16243639E+02</totfact>
</mgrwt>
</event>
<event>
 4    0  0.1264838E-002  0.4497527E+03  0.7546771E-02  0.1027796E+00
         -1   -1    0    0    0  501 -0.00000000000E+00  0.00000000000E+00  0.35148735327E+03  0.35148735327E+03  0.00000000000E+00 0. -1.
          1   -1    0    0  502    0  0.00000000000E+00 -0.00000000000E+00 -0.14387251473E+03  0.14387251473E+03  0.00000000000E+00 0.  1.
         25    1    1    2    0    0  0.13875764823E+02  0.20590890051E+03  0.88009289608E+02  0.25682999672E+03  0.12500000000E+03 0.  0.
         21    1    1    2  502  501 -0.13875764823E+02 -0.20590890051E+03  0.11960554893E+03  0.23852987128E+03  0.00000000000E+00 0. -1.
<mgrwt>
<rscale>  3 0.44975268E+03</rscale>
<asrwt>0</asrwt>
<pdfrwt beam="1">  1        1 0.22134233E-01 0.44975268E+03</pdfrwt>
<pdfrwt beam="2">  1       -1 0.54074977E-01 0.44975268E+03</pdfrwt>
<totfact> 0.79632114E+02</totfact>
</mgrwt>
</event>
<event>
 4    0  0.1264838E-002  0.4631685E+03  0.7546771E-02  0.1023866E+00
         -1   -1    0    0    0  501 -0.00000000000E+00  0.00000000000E+00  0.58284081577E+02  0.58284081577E+02  0.00000000000E+00 0. -1.
          1   -1    0    0  502    0  0.00000000000E+00 -0.00000000000E+00 -0.92017013420E+03  0.92017013420E+03  0.00000000000E+00 0.  1.
         25    1    1    2    0    0  0.18345916261E+03  0.96417346796E+02 -0.58089059397E+03  0.62929520201E+03  0.12500000000E+03 0.  0.
         21    1    1    2  502  501 -0.18345916261E+03 -0.96417346796E+02 -0.28099545865E+03  0.34915901376E+03  0.00000000000E+00 0. -1.
<mgrwt>
<rscale>  3 0.46316853E+03</rscale>
<asrwt>0</asrwt>
<pdfrwt beam="1">  1        1 0.14156463E+00 0.46316853E+03</pdfrwt>
<pdfrwt beam="2">  1       -1 0.89667820E-02 0.46316853E+03</pdfrwt>
<totfact> 0.13272900E+03</totfact>
</mgrwt>
</event>
<event>
 4    0  0.1264838E-002  0.7230553E+03  0.7546771E-02  0.9678597E-01
         -2   -1    0    0    0  501 -0.00000000000E+00  0.00000000000E+00  0.79750285443E+02  0.79750285443E+02  0.00000000000E+00 0. -1.
          2   -1    0    0  502    0  0.00000000000E+00 -0.00000000000E+00 -0.16388937526E+04  0.16388937526E+04  0.00000000000E+00 0.  1.
         25    1    1    2    0    0  0.26347651847E+03 -0.20835693792E+03 -0.56311958839E+03  0.66750367803E+03  0.12500000000E+03 0.  0.
         21    1    1    2  502  501 -0.26347651847E+03  0.20835693792E+03 -0.99602387872E+03  0.10511403600E+04  0.00000000000E+00 0.  1.
<mgrwt>
<rscale>  3 0.72305531E+03</rscale>
<asrwt>0</asrwt>
<pdfrwt beam="1">  1        2 0.25213749E+00 0.72305531E+03</pdfrwt>
<pdfrwt beam="2">  1       -2 0.12269275E-01 0.72305531E+03</pdfrwt>
<totfact> 0.52905448E+02</totfact>
</mgrwt>
</event>
<event>
 4    0  0.1264838E-002  0.6653734E+03  0.7546771E-02  0.9778352E-01
          2   -1    0    0  502    0  0.00000000000E+00  0.00000000000E+00  0.30695238019E+03  0.30695238019E+03  0.00000000000E+00 0. -1.
         -2   -1    0    0    0  501 -0.00000000000E+00 -0.00000000000E+00 -0.36057848358E+03  0.36057848358E+03  0.00000000000E+00 0.  1.
         25    1    1    2    0    0  0.21915140142E+03  0.14727308187E+03  0.15528522868E+03  0.33084014211E+03  0.12500000000E+03 0.  0.
         21    1    1    2  502  501 -0.21915140142E+03 -0.14727308187E+03 -0.20891133207E+03  0.33669072166E+03  0.00000000000E+00 0.  1.
<mgrwt>
<rscale>  3 0.66537335E+03</rscale>
<asrwt>0</asrwt>
<pdfrwt beam="1">  1        2 0.47223443E-01 0.66537335E+03</pdfrwt>
<pdfrwt beam="2">  1       -2 0.55473613E-01 0.66537335E+03</pdfrwt>
<totfact> 0.33001223E+02</totfact>
</mgrwt>
</event>
<event>
 4    0  0.1264838E-002  0.4793979E+03  0.7546771E-02  0.1019301E+00
         -2   -1    0    0    0  501 -0.00000000000E+00  0.00000000000E+00  0.54488558745E+02  0.54488558745E+02  0.00000000000E+00 0.  1.
          2   -1    0    0  502    0  0.00000000000E+00 -0.00000000000E+00 -0.10544524819E+04  0.10544524819E+04  0.00000000000E+00 0. -1.
         25    1    1    2    0    0  0.14804867851E+03 -0.15658646992E+03 -0.39769325763E+03  0.46927887330E+03  0.12500000000E+03 0.  0.
         21    1    1    2  502  501 -0.14804867851E+03  0.15658646992E+03 -0.60227066549E+03  0.63966216730E+03  0.00000000000E+00 0. -1.
<mgrwt>
<rscale>  3 0.47939794E+03</rscale>
<asrwt>0</asrwt>
<pdfrwt beam="1">  1        2 0.16222347E+00 0.47939794E+03</pdfrwt>
<pdfrwt beam="2">  1       -2 0.83828548E-02 0.47939794E+03</pdfrwt>
<totfact> 0.21371625E+03</totfact>
</mgrwt>
</event>
<event>
 4    0  0.1264838E-002  0.4790260E+03  0.7546771E-02  0.1019403E+00
         -1   -1    0    0    0  501 -0.00000000000E+00  0.00000000000E+00  0.12190197325E+03  0.12190197325E+03  0.00000000000E+00 0.  1.
          1   -1    0    0  502    0  0.00000000000E+00 -0.00000000000E+00 -0.47059507491E+03  0.47059507491E+03  0.00000000000E+00 0. -1.
         25    1    1    2    0    0 -0.17844099022E+03 -0.11815680645E+03 -0.26461865809E+03  0.36256068749E+03  0.12500000000E+03 0.  0.
         21    1    1    2  502  501  0.17844099022E+03  0.11815680645E+03 -0.84074443573E+02  0.22993636068E+03  0.00000000000E+00 0.  1.
<mgrwt>
<rscale>  3 0.47902596E+03</rscale>
<asrwt>0</asrwt>
<pdfrwt beam="1">  1        1 0.72399243E-01 0.47902596E+03</pdfrwt>
<pdfrwt beam="2">  1       -1 0.18754150E-01 0.47902596E+03</pdfrwt>
<totfact> 0.10994403E+03</totfact>
</mgrwt>
</event>
<event>
 4    0  0.1264838E-002  0.5879094E+03  0.7546771E-02  0.9930813E-01
         -2   -1    0    0    0  501 -0.00000000000E+00  0.00000000000E+00  0.18593065693E+02  0.18593065693E+02  0.00000000000E+00 0.  1.
          2   -1    0    0  502    0  0.00000000000E+00 -0.00000000000E+00 -0.46473975430E+04  0.46473975430E+04  0.00000000000E+00 0. -1.
         25    1    1    2    0    0  0.26259634737E+03 -0.98770772575E+02 -0.23570676757E+04  0.23769950642E+04  0.12500000000E+03 0.  0.
         21    1    1    2  502  501 -0.26259634737E+03  0.98770772575E+02 -0.22717368016E+04  0.22889955446E+04  0.00000000000E+00 0. -1.
<mgrwt>
<rscale>  3 0.58790941E+03</rscale>
<asrwt>0</asrwt>
<pdfrwt beam="1">  1        2 0.71498428E+00 0.58790941E+03</pdfrwt>
<pdfrwt beam="2">  1       -2 0.28604715E-02 0.58790941E+03</pdfrwt>
<totfact> 0.50240590E+01</totfact>
</mgrwt>
</event>
<event>
 4    0  0.1267306E-002  0.5257388E+03  0.7546771E-02  0.1007271E+00
          1   -1    0    0  502    0  0.00000000000E+00  0.00000000000E+00  0.17533726281E+04  0.17533726281E+04  0.00000000000E+00 0. -1.
         -1   -1    0    0    0  501 -0.00000000000E+00 -0.00000000000E+00 -0.39409944087E+02  0.39409944087E+02  0.00000000000E+00 0.  1.
         25    1    1    2    0    0 -0.13361249770E+03  0.16339698661E+03  0.46136636922E+03  0.52252732122E+03  0.12500000000E+03 0.  0.
         21    1    1    2  502  501  0.13361249770E+03 -0.16339698661E+03  0.12525963148E+04  0.12702552509E+04  0.00000000000E+00 0. -1.
<mgrwt>
<rscale>  3 0.52573878E+03</rscale>
<asrwt>0</asrwt>
<pdfrwt beam="1">  1        1 0.26974958E+00 0.52573878E+03</pdfrwt>
<pdfrwt beam="2">  1       -1 0.60630697E-02 0.52573878E+03</pdfrwt>
<totfact> 0.62745418E+02</totfact>
</mgrwt>
</event>
<event>
 4    0  0.1264838E-002  0.5841273E+03  0.7546771E-02  0.9938895E-01
         -3   -1    0    0    0  501 -0.00000000000E+00  0.00000000000E+00  0.29470009016E+03  0.29470009016E+03  0.00000000000E+00 0.  1.
          3   -1    0    0  502    0  0.00000000000E+00 -0.00000000000E+00 -0.28945075021E+03  0.28945075021E+03  0.00000000000E+00 0. -1.
         25    1    1    2    0    0  0.11365945347E+03 -0.18835210512E+03  0.17384401782E+03  0.30698815840E+03  0.12500000000E+03 0.  0.
         21    1    1    2  502  501 -0.11365945347E+03  0.18835210512E+03 -0.16859467787E+03  0.27716268196E+03  0.00000000000E+00 0. -1.
<mgrwt>
<rscale>  3 0.58412725E+03</rscale>
<asrwt>0</asrwt>
<pdfrwt beam="1">  1        3 0.44530885E-01 0.58412725E+03</pdfrwt>
<pdfrwt beam="2">  1       -3 0.45338475E-01 0.58412725E+03</pdfrwt>
<totfact> 0.63742597E+01</totfact>
</mgrwt>
</event>
<event>
 4    0  0.1274388E-002  0.5115240E+03  0.7546771E-02  0.1010814E+00
         -2   -1    0    0    0  501 -0.00000000000E+00  0.00000000000E+00  0.46895824211E+02  0.46895824211E+02  0.00000000000E+00 0. -1.
          2   -1    0    0  502    0  0.00000000000E+00 -0.00000000000E+00 -0.13948829981E+04  0.13948829981E+04  0.00000000000E+00 0.  1.
         25    1    1    2    0    0  0.20570214036E+03 -0.19097207105E+02 -0.36723509223E+03  0.43950504757E+03  0.12500000000E+03 0.  0.
         21    1    1    2  502  501 -0.20570214036E+03  0.19097207105E+02 -0.98075208169E+03  0.10022737748E+04  0.00000000000E+00 0.  1.
<mgrwt>
<rscale>  3 0.51152395E+03</rscale>
<asrwt>0</asrwt>
<pdfrwt beam="1">  1        2 0.21459738E+00 0.51152395E+03</pdfrwt>
<pdfrwt beam="2">  1       -2 0.72147425E-02 0.51152395E+03</pdfrwt>
<totfact> 0.17181708E+03</totfact>
</mgrwt>
</event>
<event>
 4    0  0.1264838E-002  0.9176451E+03  0.7546771E-02  0.9403789E-01
          2   -1    0    0  502    0  0.00000000000E+00  0.00000000000E+00  0.32468604296E+04  0.32468604296E+04  0.00000000000E+00 0. -1.
         -2   -1    0    0    0  501 -0.00000000000E+00 -0.00000000000E+00 -0.64837441535E+02  0.64837441535E+02  0.00000000000E+00 0.  1.
         25    1    1    2    0    0  0.41042941323E+03  0.95136483932E+02  0.21942801621E+04  0.22378547057E+04  0.12500000000E+03 0.  0.
         21    1    1    2  502  501 -0.41042941323E+03 -0.95136483932E+02  0.98774282599E+03  0.10738431655E+04  0.00000000000E+00 0.  1.
<mgrwt>
<rscale>  3 0.91764508E+03</rscale>
<asrwt>0</asrwt>
<pdfrwt beam="1">  1        2 0.49951686E+00 0.91764508E+03</pdfrwt>
<pdfrwt beam="2">  1       -2 0.99749935E-02 0.91764508E+03</pdfrwt>
<totfact> 0.86858925E+01</totfact>
</mgrwt>
</event>
<event>
 4    0  0.1264838E-002  0.4825969E+03  0.7546771E-02  0.1018424E+00
         -4   -1    0    0    0  501 -0.00000000000E+00  0.00000000000E+00  0.33024055319E+02  0.33024055319E+02  0.00000000000E+00 0. -1.
          4   -1    0    0  502    0  0.00000000000E+00 -0.00000000000E+00 -0.17631068222E+04  0.17631068222E+04  0.00000000000E+00 0.  1.
         25    1    1    2    0    0 -0.16263118544E+03 -0.15538575831E+03 -0.95654484364E+03  0.99055372104E+03  0.12500000000E+03 0.  0.
         21    1    1    2  502  501  0.16263118544E+03  0.15538575831E+03 -0.77353792328E+03  0.80557715652E+03  0.00000000000E+00 0. -1.
<mgrwt>
<rscale>  3 0.48259688E+03</rscale>
<asrwt>0</asrwt>
<pdfrwt beam="1">  1        4 0.27124733E+00 0.48259688E+03</pdfrwt>
<pdfrwt beam="2">  1       -4 0.50806215E-02 0.48259688E+03</pdfrwt>
<totfact> 0.23575481E+01</totfact>
</mgrwt>
</event>
<event>
 4    0  0.1486078E-002  0.6222465E+03  0.7546771E-02  0.9860297E-01
         -1   -1    0    0    0  501 -0.00000000000E+00  0.00000000000E+00  0.33366214252E+03  0.33366214252E+03  0.00000000000E+00 0. -1.
          1   -1    0    0  502    0  0.00000000000E+00 -0.00000000000E+00 -0.29010687995E+03  0.29010687995E+03  0.00000000000E+00 0.  1.
         25    1    1    2    0    0  0.12634598343E+03  0.16686940526E+03  0.23609551727E+03  0.33937412868E+03  0.12500000000E+03 0.  0.
         21    1    1    2  502  501 -0.12634598343E+03 -0.16686940526E+03 -0.19254025469E+03  0.28439489380E+03  0.00000000000E+00 0.  1.
<mgrwt>
<rscale>  3 0.62224652E+03</rscale>
<asrwt>0</asrwt>
<pdfrwt beam="1">  1        1 0.44631828E-01 0.62224652E+03</pdfrwt>
<pdfrwt beam="2">  1       -1 0.51332637E-01 0.62224652E+03</pdfrwt>
<totfact> 0.35438199E+02</totfact>
</mgrwt>
</event>
<event>
 4    0  0.1264838E-002  0.5181282E+03  0.7546771E-02  0.1009153E+00
         -2   -1    0    0    0  501 -0.00000000000E+00  0.00000000000E+00  0.51791694042E+03  0.51791694042E+03  0.00000000000E+00 0. -1.
          2   -1    0    0  502    0  0.00000000000E+00 -0.00000000000E+00 -0.12958488063E+03  0.12958488063E+03  0.00000000000E+00 0.  1.
         25    1    1    2    0    0 -0.13322593663E+03 -0.20272573446E+03  0.17282668231E+03  0.32301847582E+03  0.12500000000E+03 0.  0.
         21    1    1    2  502  501  0.13322593663E+03  0.20272573446E+03  0.21550537749E+03  0.32448334523E+03  0.00000000000E+00 0.  1.
<mgrwt>
<rscale>  3 0.51812819E+03</rscale>
<asrwt>0</asrwt>
<pdfrwt beam="1">  1        2 0.19936136E-01 0.51812819E+03</pdfrwt>
<pdfrwt beam="2">  1       -2 0.79679528E-01 0.51812819E+03</pdfrwt>
<totfact> 0.40184267E+02</totfact>
</mgrwt>
</event>
<event>
 4    0  0.1264838E-002  0.7652382E+03  0.7546771E-02  0.9611743E-01
         -2   -1    0    0    0  501 -0.00000000000E+00  0.00000000000E+00  0.13671892291E+03  0.13671892291E+03  0.00000000000E+00 0.  1.
          2   -1    0    0  502    0  0.00000000000E+00 -0.00000000000E+00 -0.10707908874E+04  0.10707908874E+04  0.00000000000E+00 0. -1.
         25    1    1    2    0    0  0.25702111947E+03  0.55341989382E+02 -0.89569007525E+03  0.94181118201E+03  0.12500000000E+03 0.  0.
         21    1    1    2  502  501 -0.25702111947E+03 -0.55341989382E+02 -0.38381889194E+02  0.26569862827E+03  0.00000000000E+00 0.  1.
<mgrwt>
<rscale>  3 0.76523820E+03</rscale>
<asrwt>0</asrwt>
<pdfrwt beam="1">  1        2 0.16473707E+00 0.76523820E+03</pdfrwt>
<pdfrwt beam="2">  1       -2 0.21033680E-01 0.76523820E+03</pdfrwt>
<totfact> 0.44626263E+02</totfact>
</mgrwt>
</event>
<event>
 4    0  0.1264838E-002  0.4445648E+03  0.7546771E-02  0.1029355E+00
         -2   -1    0    0    0  501 -0.00000000000E+00  0.00000000000E+00  0.49813974563E+03  0.49813974563E+03  0.00000000000E+00 0. -1.
          2   -1    0    0  502    0  0.00000000000E+00 -0.00000000000E+00 -0.99187973961E+02  0.99187973961E+02  0.00000000000E+00 0.  1.
         25    1    1    2    0    0  0.16926403908E+03  0.11048884792E+03  0.17175563883E+03  0.29322875014E+03  0.12500000000E+03 0.  0.
         21    1    1    2  502  501 -0.16926403908E+03 -0.11048884792E+03  0.22719613284E+03  0.30409896945E+03  0.00000000000E+00 0. -1.
<mgrwt>
<rscale>  3 0.44456483E+03</rscale>
<asrwt>0</asrwt>
<pdfrwt beam="1">  1        2 0.15259689E-01 0.44456483E+03</pdfrwt>
<pdfrwt beam="2">  1       -2 0.76636882E-01 0.44456483E+03</pdfrwt>
<totfact> 0.60161543E+02</totfact>
</mgrwt>
</event>
<event>
 4    0  0.1264838E-002  0.5773806E+03  0.7546771E-02  0.9953478E-01
          2   -1    0    0  502    0  0.00000000000E+00  0.00000000000E+00  0.77348553751E+03  0.77348553751E+03  0.00000000000E+00 0. -1.
         -2   -1    0    0    0  501 -0.00000000000E+00 -0.00000000000E+00 -0.10774874575E+03  0.10774874575E+03  0.00000000000E+00 0.  1.
         25    1    1    2    0    0  0.21700410324E+03 -0.25283074472E+02  0.60378343739E+03  0.65414788385E+03  0.12500000000E+03 0.  0.
         21    1    1    2  502  501 -0.21700410324E+03  0.25283074472E+02  0.61953354374E+02  0.22708639941E+03  0.00000000000E+00 0.  1.
<mgrwt>
<rscale>  3 0.57738062E+03</rscale>
<asrwt>0</asrwt>
<pdfrwt beam="1">  1        2 0.11899777E+00 0.57738062E+03</pdfrwt>
<pdfrwt beam="2">  1       -2 0.16576731E-01 0.57738062E+03</pdfrwt>
<totfact> 0.10694274E+03</totfact>
</mgrwt>
</event>
<event>
 4    0  0.1264838E-002  0.5105945E+03  0.7546771E-02  0.1011050E+00
         -1   -1    0    0    0  501 -0.00000000000E+00  0.00000000000E+00  0.20747461913E+03  0.20747461913E+03  0.00000000000E+00 0.  1.
          1   -1    0    0  502    0  0.00000000000E+00 -0.00000000000E+00 -0.31414291004E+03  0.31414291004E+03  0.00000000000E+00 0. -1.
         25    1    1    2    0    0  0.60334527952E+01 -0.22237210896E+03 -0.14854474185E+03  0.29525632547E+03  0.12500000000E+03 0.  0.
         21    1    1    2  502  501 -0.60334527952E+01  0.22237210896E+03  0.41876450939E+02  0.22636120370E+03  0.00000000000E+00 0.  1.
<mgrwt>
<rscale>  3 0.51059448E+03</rscale>
<asrwt>0</asrwt>
<pdfrwt beam="1">  1        1 0.48329678E-01 0.51059448E+03</pdfrwt>
<pdfrwt beam="2">  1       -1 0.31919172E-01 0.51059448E+03</pdfrwt>
<totfact> 0.75971060E+02</totfact>
</mgrwt>
</event>
<event>
 4    0  0.1264838E-002  0.6208375E+03  0.7546771E-02  0.9863094E-01
         -2   -1    0    0    0  501 -0.00000000000E+00  0.00000000000E+00  0.48202869571E+03  0.48202869571E+03  0.00000000000E+00 0. -1.
          2   -1    0    0  502    0  0.00000000000E+00 -0.00000000000E+00 -0.19990467501E+03  0.19990467501E+03  0.00000000000E+00 0.  1.
         25    1    1    2    0    0  0.26170460490E+03 -0.14212694104E+03  0.15121155853E+03  0.35662207311E+03  0.12500000000E+03 0.  0.
         21    1    1    2  502  501 -0.26170460490E+03  0.14212694104E+03  0.13091246217E+03  0.32531129761E+03  0.00000000000E+00 0. -1.
<mgrwt>
<rscale>  3 0.62083747E+03</rscale>
<asrwt>0</asrwt>
<pdfrwt beam="1">  1        2 0.30754566E-01 0.62083747E+03</pdfrwt>
<pdfrwt beam="2">  1       -2 0.74158261E-01 0.62083747E+03</pdfrwt>
<totfact> 0.28632163E+02</totfact>
</mgrwt>
</event>
<event>
 4    0  0.1264838E-002  0.5404477E+03  0.7546771E-02  0.1003729E+00
          2   -1    0    0  502    0  0.00000000000E+00  0.00000000000E+00  0.49933615297E+02  0.49933615297E+02  0.00000000000E+00 0.  1.
         -2   -1    0    0    0  501 -0.00000000000E+00 -0.00000000000E+00 -0.14623601585E+04  0.14623601585E+04  0.00000000000E+00 0. -1.
         25    1    1    2    0    0 -0.20535777498E+03  0.51276234810E+02 -0.34221227815E+03  0.42134939340E+03  0.12500000000E+03 0.  0.
         21    1    1    2  502  501  0.20535777498E+03 -0.51276234810E+02 -0.10702142651E+04  0.10909443804E+04  0.00000000000E+00 0. -1.
<mgrwt>
<rscale>  3 0.54044770E+03</rscale>
<asrwt>0</asrwt>
<pdfrwt beam="1">  1        2 0.76820957E-02 0.54044770E+03</pdfrwt>
<pdfrwt beam="2">  1       -2 0.22497846E+00 0.54044770E+03</pdfrwt>
<totfact> 0.88894280E+01</totfact>
</mgrwt>
</event>
<event>
 4    0  0.1264838E-002  0.4438238E+03  0.7546771E-02  0.1029580E+00
          2   -1    0    0  502    0  0.00000000000E+00  0.00000000000E+00  0.11671524861E+03  0.11671524861E+03  0.00000000000E+00 0. -1.
         -2   -1    0    0    0  501 -0.00000000000E+00 -0.00000000000E+00 -0.42192338184E+03  0.42192338184E+03  0.00000000000E+00 0.  1.
         25    1    1    2    0    0 -0.20418190125E+03  0.67310468014E+01 -0.16156956733E+03  0.28890358405E+03  0.12500000000E+03 0.  0.
         21    1    1    2  502  501  0.20418190125E+03 -0.67310468014E+01 -0.14363856590E+03  0.24973504641E+03  0.00000000000E+00 0.  1.
<mgrwt>
<rscale>  3 0.44382380E+03</rscale>
<asrwt>0</asrwt>
<pdfrwt beam="1">  1        2 0.17956192E-01 0.44382380E+03</pdfrwt>
<pdfrwt beam="2">  1       -2 0.64911289E-01 0.44382380E+03</pdfrwt>
<totfact> 0.71040454E+02</totfact>
</mgrwt>
</event>
<event>
 4    0  0.1264838E-002  0.5599145E+03  0.7546771E-02  0.9992248E-01
          1   -1    0    0  502    0  0.00000000000E+00  0.00000000000E+00  0.33220174239E+03  0.33220174239E+03  0.00000000000E+00 0.  1.
         -1   -1    0    0    0  501 -0.00000000000E+00 -0.00000000000E+00 -0.23592912753E+03  0.23592912753E+03  0.00000000000E+00 0. -1.
         25    1    1    2    0    0 -0.15672957921E+03  0.19323660849E+03  0.14601031288E+03  0.31440190732E+03  0.12500000000E+03 0.  0.
         21    1    1    2  502  501  0.15672957921E+03 -0.19323660849E+03 -0.49737698025E+02  0.25372896260E+03  0.00000000000E+00 0. -1.
<mgrwt>
<rscale>  3 0.55991452E+03</rscale>
<asrwt>0</asrwt>
<pdfrwt beam="1">  1        1 0.51107961E-01 0.55991452E+03</pdfrwt>
<pdfrwt beam="2">  1       -1 0.36296789E-01 0.55991452E+03</pdfrwt>
<totfact> 0.56307651E+02</totfact>
</mgrwt>
</event>
<event>
 4    0  0.1264838E-002  0.4855270E+03  0.7546771E-02  0.1017627E+00
          2   -1    0    0  502    0  0.00000000000E+00  0.00000000000E+00  0.22605644439E+03  0.22605644439E+03  0.00000000000E+00 0. -1.
         -2   -1    0    0    0  501 -0.00000000000E+00 -0.00000000000E+00 -0.26070533950E+03  0.26070533950E+03  0.00000000000E+00 0.  1.
         25    1    1    2    0    0  0.16153568798E+03  0.15541759540E+03 -0.52205408511E+02  0.26191374941E+03  0.12500000000E+03 0.  0.
         21    1    1    2  502  501 -0.16153568798E+03 -0.15541759540E+03  0.17556513396E+02  0.22484803449E+03  0.00000000000E+00 0.  1.
<mgrwt>
<rscale>  3 0.48552702E+03</rscale>
<asrwt>0</asrwt>
<pdfrwt beam="1">  1        2 0.34777915E-01 0.48552702E+03</pdfrwt>
<pdfrwt beam="2">  1       -2 0.40108514E-01 0.48552702E+03</pdfrwt>
<totfact> 0.88858425E+02</totfact>
</mgrwt>
</event>
<event>
 4    0  0.1264838E-002  0.7408870E+03  0.7546771E-02  0.9649757E-01
          2   -1    0    0  502    0  0.00000000000E+00  0.00000000000E+00  0.11222076015E+03  0.11222076015E+03  0.00000000000E+00 0. -1.
         -2   -1    0    0    0  501 -0.00000000000E+00 -0.00000000000E+00 -0.12228430605E+04  0.12228430605E+04  0.00000000000E+00 0.  1.
         25    1    1    2    0    0  0.33844070289E+03 -0.30341176775E+02 -0.78482108987E+03  0.86431003667E+03  0.12500000000E+03 0.  0.
         21    1    1    2  502  501 -0.33844070289E+03  0.30341176775E+02 -0.32580121047E+03  0.47075378398E+03  0.00000000000E+00 0. -1.
<mgrwt>
<rscale>  3 0.74088698E+03</rscale>
<asrwt>0</asrwt>
<pdfrwt beam="1">  1        2 0.17264732E-01 0.74088698E+03</pdfrwt>
<pdfrwt beam="2">  1       -2 0.18812971E+00 0.74088698E+03</pdfrwt>
<totfact> 0.54847287E+01</totfact>
</mgrwt>
</event>
<event>
 4    0  0.1264838E-002  0.5740201E+03  0.7546771E-02  0.9960822E-01
          4   -1    0    0  502    0  0.00000000000E+00  0.00000000000E+00  0.68252765412E+03  0.68252765412E+03  0.00000000000E+00 0.  1.
         -4   -1    0    0    0  501 -0.00000000000E+00 -0.00000000000E+00 -0.12069072710E+03  0.12069072710E+03  0.00000000000E+00 0. -1.
         25    1    1    2    0    0  0.19987854952E+03  0.38560565065E+02  0.54962058117E+03  0.59928802339E+03  0.12500000000E+03 0.  0.
         21    1    1    2  502  501 -0.19987854952E+03 -0.38560565065E+02  0.12216345854E+02  0.20393035782E+03  0.00000000000E+00 0. -1.
<mgrwt>
<rscale>  3 0.57402007E+03</rscale>
<asrwt>0</asrwt>
<pdfrwt beam="1">  1        4 0.10500425E+00 0.57402007E+03</pdfrwt>
<pdfrwt beam="2">  1       -4 0.18567805E-01 0.57402007E+03</pdfrwt>
<totfact> 0.38310220E+01</totfact>
</mgrwt>
</event>
<event>
 4    0  0.1280529E-002  0.6442381E+03  0.7546771E-02  0.9817651E-01
         -3   -1    0    0    0  501 -0.00000000000E+00  0.00000000000E+00  0.24021124209E+03  0.24021124209E+03  0.00000000000E+00 0.  1.
          3   -1    0    0  502    0  0.00000000000E+00 -0.00000000000E+00 -0.43195597280E+03  0.43195597280E+03  0.00000000000E+00 0. -1.
         25    1    1    2    0    0 -0.19618918875E+03 -0.83654063748E+02  0.13523094292E+03  0.28178113508E+03  0.12500000000E+03 0.  0.
         21    1    1    2  502  501  0.19618918875E+03  0.83654063748E+02 -0.32697567363E+03  0.39038607981E+03  0.00000000000E+00 0. -1.
<mgrwt>
<rscale>  3 0.64423809E+03</rscale>
<asrwt>0</asrwt>
<pdfrwt beam="1">  1        3 0.66454765E-01 0.64423809E+03</pdfrwt>
<pdfrwt beam="2">  1       -3 0.36955576E-01 0.64423809E+03</pdfrwt>
<totfact> 0.41746934E+01</totfact>
</mgrwt>
</event>
<event>
 4    0  0.1264838E-002  0.4457464E+03  0.7546771E-02  0.1028998E+00
         -2   -1    0    0    0  501 -0.00000000000E+00  0.00000000000E+00  0.12072814598E+03  0.12072814598E+03  0.00000000000E+00 0. -1.
          2   -1    0    0  502    0  0.00000000000E+00 -0.00000000000E+00 -0.41144058216E+03  0.41144058216E+03  0.00000000000E+00 0.  1.
         25    1    1    2    0    0  0.47476969177E+02  0.19905882367E+03 -0.13650268406E+03  0.27592836143E+03  0.12500000000E+03 0.  0.
         21    1    1    2  502  501 -0.47476969177E+02 -0.19905882367E+03 -0.15420975212E+03  0.25624036671E+03  0.00000000000E+00 0.  1.
<mgrwt>
<rscale>  3 0.44574638E+03</rscale>
<asrwt>0</asrwt>
<pdfrwt beam="1">  1        2 0.63298550E-01 0.44574638E+03</pdfrwt>
<pdfrwt beam="2">  1       -2 0.18573561E-01 0.44574638E+03</pdfrwt>
<totfact> 0.18593183E+03</totfact>
</mgrwt>
</event>
<event>
 4    0  0.1264838E-002  0.7677262E+03  0.7546771E-02  0.9607944E-01
         -2   -1    0    0    0  501 -0.00000000000E+00  0.00000000000E+00  0.13336927272E+04  0.13336927272E+04  0.00000000000E+00 0. -1.
          2   -1    0    0  502    0  0.00000000000E+00 -0.00000000000E+00 -0.11048338820E+03  0.11048338820E+03  0.00000000000E+00 0.  1.
         25    1    1    2    0    0  0.34083085215E+03 -0.15047336691E+03  0.68214420233E+03  0.78724431830E+03  0.12500000000E+03 0.  0.
         21    1    1    2  502  501 -0.34083085215E+03  0.15047336691E+03  0.54106513665E+03  0.65693179709E+03  0.00000000000E+00 0.  1.
<mgrwt>
<rscale>  3 0.76772623E+03</rscale>
<asrwt>0</asrwt>
<pdfrwt beam="1">  1        2 0.16997445E-01 0.76772623E+03</pdfrwt>
<pdfrwt beam="2">  1       -2 0.20518348E+00 0.76772623E+03</pdfrwt>
<totfact> 0.43131952E+01</totfact>
</mgrwt>
</event>
<event>
 4    0  0.1264838E-002  0.4534465E+03  0.7546771E-02  0.1026699E+00
         -1   -1    0    0    0  501 -0.00000000000E+00  0.00000000000E+00  0.32004335132E+02  0.32004335132E+02  0.00000000000E+00 0.  1.
          1   -1    0    0  502    0  0.00000000000E+00 -0.00000000000E+00 -0.16061396432E+04  0.16061396432E+04  0.00000000000E+00 0. -1.
         25    1    1    2    0    0 -0.16455053555E+03  0.12928457360E+03 -0.88234794635E+03  0.91539842591E+03  0.12500000000E+03 0.  0.
         21    1    1    2  502  501  0.16455053555E+03 -0.12928457360E+03 -0.69178736175E+03  0.72274555245E+03  0.00000000000E+00 0. -1.
<mgrwt>
<rscale>  3 0.45344650E+03</rscale>
<asrwt>0</asrwt>
<pdfrwt beam="1">  1        1 0.24709840E+00 0.45344650E+03</pdfrwt>
<pdfrwt beam="2">  1       -1 0.49237440E-02 0.45344650E+03</pdfrwt>
<totfact> 0.10855843E+03</totfact>
</mgrwt>
</event>
<event>
 4    0  0.1264838E-002  0.7443906E+03  0.7546771E-02  0.9644192E-01
          2   -1    0    0  502    0  0.00000000000E+00  0.00000000000E+00  0.39014789448E+03  0.39014789448E+03  0.00000000000E+00 0.  1.
         -2   -1    0    0    0  501 -0.00000000000E+00 -0.00000000000E+00 -0.35506882922E+03  0.35506882922E+03  0.00000000000E+00 0. -1.
         25    1    1    2    0    0 -0.86006251291E+00  0.34848521761E+03 -0.78946081054E+02  0.37855008957E+03  0.12500000000E+03 0.  0.
         21    1    1    2  502  501  0.86006251291E+00 -0.34848521761E+03  0.11402514631E+03  0.36666663414E+03  0.00000000000E+00 0.  1.
<mgrwt>
<rscale>  3 0.74439064E+03</rscale>
<asrwt>0</asrwt>
<pdfrwt beam="1">  1        2 0.60022753E-01 0.74439064E+03</pdfrwt>
<pdfrwt beam="2">  1       -2 0.54625974E-01 0.74439064E+03</pdfrwt>
<totfact> 0.26019348E+02</totfact>
</mgrwt>
</event>
<event>
 4    0  0.1264838E-002  0.1000974E+04  0.7546771E-02  0.9307477E-01
          2   -1    0    0  502    0  0.00000000000E+00  0.00000000000E+00  0.15788010557E+04  0.15788010557E+04  0.00000000000E+00 0.  1.
         -2   -1    0    0    0  501 -0.00000000000E+00 -0.00000000000E+00 -0.15865670104E+03  0.15865670104E+03  0.00000000000E+00 0. -1.
         25    1    1    2    0    0  0.16738874570E+03  0.32164011916E+03  0.14215754003E+03  0.40902949115E+03  0.12500000000E+03 0.  0.
         21    1    1    2  502  501 -0.16738874570E+03 -0.32164011916E+03  0.12779868146E+04  0.13284282656E+04  0.00000000000E+00 0.  1.
<mgrwt>
<rscale>  3 0.10009743E+04</rscale>
<asrwt>0</asrwt>
<pdfrwt beam="1">  1        2 0.24289246E+00 0.10009743E+04</pdfrwt>
<pdfrwt beam="2">  1       -2 0.24408724E-01 0.10009743E+04</pdfrwt>
<totfact> 0.17135530E+02</totfact>
</mgrwt>
</event>
<event>
 4    0  0.1264838E-002  0.5591748E+03  0.7546771E-02  0.9993924E-01
         -1   -1    0    0    0  501 -0.00000000000E+00  0.00000000000E+00  0.26476418018E+02  0.26476418018E+02  0.00000000000E+00 0. -1.
          1   -1    0    0  502    0  0.00000000000E+00 -0.00000000000E+00 -0.29524047644E+04  0.29524047644E+04  0.00000000000E+00 0.  1.
         25    1    1    2    0    0  0.70813260427E+02  0.22133924264E+03 -0.85081154302E+03  0.89079226530E+03  0.12500000000E+03 0.  0.
         21    1    1    2  502  501 -0.70813260427E+02 -0.22133924264E+03 -0.20751168033E+04  0.20880889171E+04  0.00000000000E+00 0.  1.
<mgrwt>
<rscale>  3 0.55917476E+03</rscale>
<asrwt>0</asrwt>
<pdfrwt beam="1">  1        1 0.45421596E+00 0.55917476E+03</pdfrwt>
<pdfrwt beam="2">  1       -1 0.40732965E-02 0.55917476E+03</pdfrwt>
<totfact> 0.17756472E+02</totfact>
</mgrwt>
</event>
<event>
 4    0  0.1264838E-002  0.6157782E+03  0.7546771E-02  0.9873201E-01
         -4   -1    0    0    0  501 -0.00000000000E+00  0.00000000000E+00  0.13687934811E+04  0.13687934811E+04  0.00000000000E+00 0. -1.
          4   -1    0    0  502    0  0.00000000000E+00 -0.00000000000E+00 -0.69254940691E+02  0.69254940691E+02  0.00000000000E+00 0.  1.
         25    1    1    2    0    0 -0.12363702369E+03  0.19005023291E+03  0.11180336470E+04  0.11476190311E+04  0.12500000000E+03 0.  0.
         21    1    1    2  502  501  0.12363702369E+03 -0.19005023291E+03  0.18150489337E+03  0.29042939068E+03  0.00000000000E+00 0.  1.
<mgrwt>
<rscale>  3 0.61577824E+03</rscale>
<asrwt>0</asrwt>
<pdfrwt beam="1">  1        4 0.10654607E-01 0.61577824E+03</pdfrwt>
<pdfrwt beam="2">  1       -4 0.21058359E+00 0.61577824E+03</pdfrwt>
<totfact> 0.16031649E+01</totfact>
</mgrwt>
</event>
<event>
 4    0  0.1457478E-002  0.1251981E+04  0.7546771E-02  0.9068536E-01
         -1   -1    0    0    0  501 -0.00000000000E+00  0.00000000000E+00  0.28314931868E+03  0.28314931868E+03  0.00000000000E+00 0.  1.
          1   -1    0    0  502    0  0.00000000000E+00 -0.00000000000E+00 -0.13839478629E+04  0.13839478629E+04  0.00000000000E+00 0. -1.
         25    1    1    2    0    0 -0.15650651553E+03  0.19256302473E+03  0.20031750800E+03  0.34253016204E+03  0.12500000000E+03 0.  0.
         21    1    1    2  502  501  0.15650651553E+03 -0.19256302473E+03 -0.13011160522E+04  0.13245670195E+04  0.00000000000E+00 0. -1.
<mgrwt>
<rscale>  3 0.12519807E+04</rscale>
<asrwt>0</asrwt>
<pdfrwt beam="1">  1        1 0.21291506E+00 0.12519807E+04</pdfrwt>
<pdfrwt beam="2">  1       -1 0.43561433E-01 0.12519807E+04</pdfrwt>
<totfact> 0.40445040E+01</totfact>
</mgrwt>
</event>
<event>
 4    0  0.1264838E-002  0.4781254E+03  0.7546771E-02  0.1019652E+00
          2   -1    0    0  502    0  0.00000000000E+00  0.00000000000E+00  0.35973319804E+03  0.35973319804E+03  0.00000000000E+00 0.  1.
         -2   -1    0    0    0  501 -0.00000000000E+00 -0.00000000000E+00 -0.15887045435E+03  0.15887045435E+03  0.00000000000E+00 0. -1.
         25    1    1    2    0    0 -0.10597284361E+03 -0.19229574001E+03  0.66746753346E+02  0.26131977401E+03  0.12500000000E+03 0.  0.
         21    1    1    2  502  501  0.10597284361E+03  0.19229574001E+03  0.13411599034E+03  0.25728387838E+03  0.00000000000E+00 0. -1.
<mgrwt>
<rscale>  3 0.47812541E+03</rscale>
<asrwt>0</asrwt>
<pdfrwt beam="1">  1        2 0.55343569E-01 0.47812541E+03</pdfrwt>
<pdfrwt beam="2">  1       -2 0.24441608E-01 0.47812541E+03</pdfrwt>
<totfact> 0.13355802E+03</totfact>
</mgrwt>
</event>
<event>
 4    0  0.1264838E-002  0.4439587E+03  0.7546771E-02  0.1029539E+00
         -2   -1    0    0    0  501 -0.00000000000E+00  0.00000000000E+00  0.53283789273E+02  0.53283789273E+02  0.00000000000E+00 0. -1.
          2   -1    0    0  502    0  0.00000000000E+00 -0.00000000000E+00 -0.92476197965E+03  0.92476197965E+03  0.00000000000E+00 0.  1.
         25    1    1    2    0    0  0.20156643634E+03  0.28331536412E+02 -0.51092076295E+03  0.56400064736E+03  0.12500000000E+03 0.  0.
         21    1    1    2  502  501 -0.20156643634E+03 -0.28331536412E+02 -0.36055742743E+03  0.41404512156E+03  0.00000000000E+00 0. -1.
<mgrwt>
<rscale>  3 0.44395866E+03</rscale>
<asrwt>0</asrwt>
<pdfrwt beam="1">  1        2 0.14227108E+00 0.44395866E+03</pdfrwt>
<pdfrwt beam="2">  1       -2 0.81975056E-02 0.44395866E+03</pdfrwt>
<totfact> 0.26731710E+03</totfact>
</mgrwt>
</event>
<event>
 4    0  0.1264838E-002  0.4951002E+03  0.7546771E-02  0.1015066E+00
          1   -1    0    0  502    0  0.00000000000E+00  0.00000000000E+00  0.58502369899E+03  0.58502369899E+03  0.00000000000E+00 0.  1.
         -1   -1    0    0    0  501 -0.00000000000E+00 -0.00000000000E+00 -0.10474967795E+03  0.10474967795E+03  0.00000000000E+00 0. -1.
         25    1    1    2    0    0 -0.20140762900E+03  0.47306620914E+02  0.10989247427E+03  0.26552646818E+03  0.12500000000E+03 0.  0.
         21    1    1    2  502  501  0.20140762900E+03 -0.47306620914E+02  0.37038154678E+03  0.42424690876E+03  0.00000000000E+00 0.  1.
<mgrwt>
<rscale>  3 0.49510017E+03</rscale>
<asrwt>0</asrwt>
<pdfrwt beam="1">  1        1 0.90003645E-01 0.49510017E+03</pdfrwt>
<pdfrwt beam="2">  1       -1 0.16115335E-01 0.49510017E+03</pdfrwt>
<totfact> 0.10441009E+03</totfact>
</mgrwt>
</event>
<event>
 4    0  0.1264838E-002  0.5274961E+03  0.7546771E-02  0.1006841E+00
         -2   -1    0    0    0  501 -0.00000000000E+00  0.00000000000E+00  0.36826591305E+02  0.36826591305E+02  0.00000000000E+00 0.  1.
          2   -1    0    0  502    0  0.00000000000E+00 -0.00000000000E+00 -0.18889345813E+04  0.18889345813E+04  0.00000000000E+00 0. -1.
         25    1    1    2    0    0 -0.64648943672E+02 -0.23857057825E+03 -0.10860137690E+04  0.11207793330E+04  0.12500000000E+03 0.  0.
         21    1    1    2  502  501  0.64648943672E+02  0.23857057825E+03 -0.76609422098E+03  0.80498183963E+03  0.00000000000E+00 0. -1.
<mgrwt>
<rscale>  3 0.52749605E+03</rscale>
<asrwt>0</asrwt>
<pdfrwt beam="1">  1        2 0.29060527E+00 0.52749605E+03</pdfrwt>
<pdfrwt beam="2">  1       -2 0.56656305E-02 0.52749605E+03</pdfrwt>
<totfact> 0.13503685E+03</totfact>
</mgrwt>
</event>
<event>
 4    0  0.1264838E-002  0.5557502E+03  0.7546771E-02  0.1000172E+00
         -2   -1    0    0    0  501 -0.00000000000E+00  0.00000000000E+00  0.87494447847E+02  0.87494447847E+02  0.00000000000E+00 0. -1.
          2   -1    0    0  502    0  0.00000000000E+00 -0.00000000000E+00 -0.88250808824E+03  0.88250808824E+03  0.00000000000E+00 0.  1.
         25    1    1    2    0    0  0.22589992700E+03 -0.83216709787E+02 -0.22927673358E+03  0.35517406770E+03  0.12500000000E+03 0.  0.
         21    1    1    2  502  501 -0.22589992700E+03  0.83216709787E+02 -0.56573690682E+03  0.61482846839E+03  0.00000000000E+00 0.  1.
<mgrwt>
<rscale>  3 0.55575015E+03</rscale>
<asrwt>0</asrwt>
<pdfrwt beam="1">  1        2 0.13577047E+00 0.55575015E+03</pdfrwt>
<pdfrwt beam="2">  1       -2 0.13460685E-01 0.55575015E+03</pdfrwt>
<totfact> 0.12741858E+03</totfact>
</mgrwt>
</event>
<event>
 4    0  0.1264838E-002  0.7704551E+03  0.7546771E-02  0.9603795E-01
          2   -1    0    0  502    0  0.00000000000E+00  0.00000000000E+00  0.12977089916E+04  0.12977089916E+04  0.00000000000E+00 0.  1.
         -2   -1    0    0    0  501 -0.00000000000E+00 -0.00000000000E+00 -0.11435556784E+03  0.11435556784E+03  0.00000000000E+00 0. -1.
         25    1    1    2    0    0 -0.16990348787E+03  0.31191272003E+03  0.82820272923E+03  0.90978101805E+03  0.12500000000E+03 0.  0.
         21    1    1    2  502  501  0.16990348787E+03 -0.31191272003E+03  0.35515069449E+03  0.50228354134E+03  0.00000000000E+00 0. -1.
<mgrwt>
<rscale>  3 0.77045506E+03</rscale>
<asrwt>0</asrwt>
<pdfrwt beam="1">  1        2 0.19964753E+00 0.77045506E+03</pdfrwt>
<pdfrwt beam="2">  1       -2 0.17593165E-01 0.77045506E+03</pdfrwt>
<totfact> 0.44600688E+02</totfact>
</mgrwt>
</event>
<event>
 4    0  0.1264838E-002  0.4795962E+03  0.7546771E-02  0.1019246E+00
          1   -1    0    0  502    0  0.00000000000E+00  0.00000000000E+00  0.70590365550E+03  0.70590365550E+03  0.00000000000E+00 0. -1.
         -1   -1    0    0    0  501 -0.00000000000E+00 -0.00000000000E+00 -0.81460323263E+02  0.81460323263E+02  0.00000000000E+00 0.  1.
         25    1    1    2    0    0 -0.21988393452E+03 -0.17305939324E+02  0.27406630573E+03  0.37334405062E+03  0.12500000000E+03 0.  0.
         21    1    1    2  502  501  0.21988393452E+03  0.17305939324E+02  0.35037702650E+03  0.41401992814E+03  0.00000000000E+00 0. -1.
<mgrwt>
<rscale>  3 0.47959625E+03</rscale>
<asrwt>0</asrwt>
<pdfrwt beam="1">  1        1 0.10860056E+00 0.47959625E+03</pdfrwt>
<pdfrwt beam="2">  1       -1 0.12532358E-01 0.47959625E+03</pdfrwt>
<totfact> 0.11909303E+03</totfact>
</mgrwt>
</event>
<event>
 4    0  0.1264838E-002  0.6438876E+03  0.7546771E-02  0.9818317E-01
         -3   -1    0    0    0  501 -0.00000000000E+00  0.00000000000E+00  0.45597910986E+03  0.45597910986E+03  0.00000000000E+00 0.  1.
          3   -1    0    0  502    0  0.00000000000E+00 -0.00000000000E+00 -0.22730823691E+03  0.22730823691E+03  0.00000000000E+00 0. -1.
         25    1    1    2    0    0 -0.24572790205E+03  0.38381968464E+02 -0.77394900902E+02  0.28891235356E+03  0.12500000000E+03 0.  0.
         21    1    1    2  502  501  0.24572790205E+03 -0.38381968464E+02  0.30606577385E+03  0.39437499321E+03  0.00000000000E+00 0.  1.
<mgrwt>
<rscale>  3 0.64388759E+03</rscale>
<asrwt>0</asrwt>
<pdfrwt beam="1">  1        3 0.34970498E-01 0.64388759E+03</pdfrwt>
<pdfrwt beam="2">  1       -3 0.70150632E-01 0.64388759E+03</pdfrwt>
<totfact> 0.41312767E+01</totfact>
</mgrwt>
</event>
<event>
 4    0  0.1264838E-002  0.1057819E+04  0.7546771E-02  0.9247308E-01
          2   -1    0    0  502    0  0.00000000000E+00  0.00000000000E+00  0.48511429199E+03  0.48511429199E+03  0.00000000000E+00 0. -1.
         -2   -1    0    0    0  501 -0.00000000000E+00 -0.00000000000E+00 -0.57665883873E+03  0.57665883873E+03  0.00000000000E+00 0.  1.
         25    1    1    2    0    0 -0.15918781348E+03  0.44550937238E+03  0.17388128416E+03  0.51930632754E+03  0.12500000000E+03 0.  0.
         21    1    1    2  502  501  0.15918781348E+03 -0.44550937238E+03 -0.26542583090E+03  0.54246680318E+03  0.00000000000E+00 0.  1.
<mgrwt>
<rscale>  3 0.10578193E+04</rscale>
<asrwt>0</asrwt>
<pdfrwt beam="1">  1        2 0.74632968E-01 0.10578193E+04</pdfrwt>
<pdfrwt beam="2">  1       -2 0.88716745E-01 0.10578193E+04</pdfrwt>
<totfact> 0.69382235E+01</totfact>
</mgrwt>
</event>
<event>
 4    0  0.1264838E-002  0.4803103E+03  0.7546771E-02  0.1019050E+00
          2   -1    0    0  502    0  0.00000000000E+00  0.00000000000E+00  0.16082698400E+04  0.16082698400E+04  0.00000000000E+00 0.  1.
         -2   -1    0    0    0  501 -0.00000000000E+00 -0.00000000000E+00 -0.35861206110E+02  0.35861206110E+02  0.00000000000E+00 0. -1.
         25    1    1    2    0    0 -0.20009062044E+03  0.19235957837E+02  0.50196868510E+03  0.55498093597E+03  0.12500000000E+03 0.  0.
         21    1    1    2  502  501  0.20009062044E+03 -0.19235957837E+02  0.10704399488E+04  0.10891501102E+04  0.00000000000E+00 0. -1.
<mgrwt>
<rscale>  3 0.48031030E+03</rscale>
<asrwt>0</asrwt>
<pdfrwt beam="1">  1        2 0.24742607E+00 0.48031030E+03</pdfrwt>
<pdfrwt beam="2">  1       -2 0.55171099E-02 0.48031030E+03</pdfrwt>
<totfact> 0.19980802E+03</totfact>
</mgrwt>
</event>
<event>
 4    0  0.1264838E-002  0.6059539E+03  0.7546771E-02  0.9893130E-01
          2   -1    0    0  502    0  0.00000000000E+00  0.00000000000E+00  0.69964615094E+03  0.69964615094E+03  0.00000000000E+00 0. -1.
         -2   -1    0    0    0  501 -0.00000000000E+00 -0.00000000000E+00 -0.13120207517E+03  0.13120207517E+03  0.00000000000E+00 0.  1.
         25    1    1    2    0    0 -0.18677424482E+02 -0.23765527712E+03  0.52294897227E+03  0.58815772079E+03  0.12500000000E+03 0.  0.
         21    1    1    2  502  501  0.18677424482E+02  0.23765527712E+03  0.45495103503E+02  0.24269050531E+03  0.00000000000E+00 0.  1.
<mgrwt>
<rscale>  3 0.60595388E+03</rscale>
<asrwt>0</asrwt>
<pdfrwt beam="1">  1        2 0.10763787E+00 0.60595388E+03</pdfrwt>
<pdfrwt beam="2">  1       -2 0.20184935E-01 0.60595388E+03</pdfrwt>
<totfact> 0.86512217E+02</totfact>
</mgrwt>
</event>
<event>
 4    0  0.1264838E-002  0.7025971E+03  0.7546771E-02  0.9712801E-01
         -1   -1    0    0    0  501 -0.00000000000E+00  0.00000000000E+00  0.20999784853E+03  0.20999784853E+03  0.00000000000E+00 0. -1.
          1   -1    0    0  502    0  0.00000000000E+00 -0.00000000000E+00 -0.58767592231E+03  0.58767592231E+03  0.00000000000E+00 0.  1.
         25    1    1    2    0    0  0.22961788824E+03  0.75318218052E+02 -0.46664132597E+03  0.54016324910E+03  0.12500000000E+03 0.  0.
         21    1    1    2  502  501 -0.22961788824E+03 -0.75318218052E+02  0.88963252185E+02  0.25751052174E+03  0.00000000000E+00 0. -1.
<mgrwt>
<rscale>  3 0.70259712E+03</rscale>
<asrwt>0</asrwt>
<pdfrwt beam="1">  1        1 0.90411680E-01 0.70259712E+03</pdfrwt>
<pdfrwt beam="2">  1       -1 0.32307361E-01 0.70259712E+03</pdfrwt>
<totfact> 0.31959678E+02</totfact>
</mgrwt>
</event>
<event>
 4    0  0.1264838E-002  0.4910016E+03  0.7546771E-02  0.1016155E+00
          2   -1    0    0  502    0  0.00000000000E+00  0.00000000000E+00  0.12924588991E+04  0.12924588991E+04  0.00000000000E+00 0.  1.
         -2   -1    0    0    0  501 -0.00000000000E+00 -0.00000000000E+00 -0.46632533396E+02  0.46632533396E+02  0.00000000000E+00 0. -1.
         25    1    1    2    0    0  0.13854631058E+03  0.17300539501E+03  0.49998254928E+03  0.56101113755E+03  0.12500000000E+03 0.  0.
         21    1    1    2  502  501 -0.13854631058E+03 -0.17300539501E+03  0.74584381644E+03  0.77808029496E+03  0.00000000000E+00 0. -1.
<mgrwt>
<rscale>  3 0.49100156E+03</rscale>
<asrwt>0</asrwt>
<pdfrwt beam="1">  1        2 0.19883980E+00 0.49100156E+03</pdfrwt>
<pdfrwt beam="2">  1       -2 0.71742369E-02 0.49100156E+03</pdfrwt>
<totfact> 0.19807257E+03</totfact>
</mgrwt>
</event>
<event>
 4    0  0.1264838E-002  0.5557999E+03  0.7546771E-02  0.1000160E+00
         -2   -1    0    0    0  501 -0.00000000000E+00  0.00000000000E+00  0.33360555476E+02  0.33360555476E+02  0.00000000000E+00 0. -1.
          2   -1    0    0  502    0  0.00000000000E+00 -0.00000000000E+00 -0.23149607680E+04  0.23149607680E+04  0.00000000000E+00 0.  1.
         25    1    1    2    0    0 -0.18222424485E+03  0.12362686862E+03 -0.18125880589E+04  0.18301884464E+04  0.12500000000E+03 0.  0.
         21    1    1    2  502  501  0.18222424485E+03 -0.12362686862E+03 -0.46901215357E+03  0.51813287703E+03  0.00000000000E+00 0. -1.
<mgrwt>
<rscale>  3 0.55579988E+03</rscale>
<asrwt>0</asrwt>
<pdfrwt beam="1">  1        2 0.35614796E+00 0.55579988E+03</pdfrwt>
<pdfrwt beam="2">  1       -2 0.51323910E-02 0.55579988E+03</pdfrwt>
<totfact> 0.92261504E+02</totfact>
</mgrwt>
</event>
<event>
 4    0  0.1264838E-002  0.5532832E+03  0.7546771E-02  0.1000737E+00
          1   -1    0    0  502    0  0.00000000000E+00  0.00000000000E+00  0.14248428448E+03  0.14248428448E+03  0.00000000000E+00 0. -1.
         -1   -1    0    0    0  501 -0.00000000000E+00 -0.00000000000E+00 -0.53711581537E+03  0.53711581537E+03  0.00000000000E+00 0.  1.
         25    1    1    2    0    0 -0.37972904427E+02  0.22369065304E+03 -0.36958836888E+03  0.45133137731E+03  0.12500000000E+03 0.  0.
         21    1    1    2  502  501  0.37972904427E+02 -0.22369065304E+03 -0.25043162010E+02  0.22826872255E+03  0.00000000000E+00 0. -1.
<mgrwt>
<rscale>  3 0.55328316E+03</rscale>
<asrwt>0</asrwt>
<pdfrwt beam="1">  1        1 0.21920659E-01 0.55328316E+03</pdfrwt>
<pdfrwt beam="2">  1       -1 0.82633204E-01 0.55328316E+03</pdfrwt>
<totfact> 0.34324398E+02</totfact>
</mgrwt>
</event>
<event>
 4    0  0.1264838E-002  0.5010476E+03  0.7546771E-02  0.1013506E+00
          2   -1    0    0  502    0  0.00000000000E+00  0.00000000000E+00  0.93398647976E+03  0.93398647976E+03  0.00000000000E+00 0.  1.
         -2   -1    0    0    0  501 -0.00000000000E+00 -0.00000000000E+00 -0.67198161680E+02  0.67198161680E+02  0.00000000000E+00 0. -1.
         25    1    1    2    0    0 -0.18824117183E+03  0.71829429574E+02  0.21893847358E+03  0.32272784345E+03  0.12500000000E+03 0.  0.
         21    1    1    2  502  501  0.18824117183E+03 -0.71829429574E+02  0.64784984449E+03  0.67845679798E+03  0.00000000000E+00 0.  1.
<mgrwt>
<rscale>  3 0.50104760E+03</rscale>
<asrwt>0</asrwt>
<pdfrwt beam="1">  1        2 0.14369022E+00 0.50104760E+03</pdfrwt>
<pdfrwt beam="2">  1       -2 0.10338179E-01 0.50104760E+03</pdfrwt>
<totfact> 0.18177775E+03</totfact>
</mgrwt>
</event>
<event>
 4    0  0.1264838E-002  0.4978724E+03  0.7546771E-02  0.1014336E+00
         -2   -1    0    0    0  501 -0.00000000000E+00  0.00000000000E+00  0.31669432836E+03  0.31669432836E+03  0.00000000000E+00 0.  1.
          2   -1    0    0  502    0  0.00000000000E+00 -0.00000000000E+00 -0.19567519442E+03  0.19567519442E+03  0.00000000000E+00 0. -1.
         25    1    1    2    0    0  0.14049024584E+03  0.17485052044E+03  0.13016117561E+03  0.28788390943E+03  0.12500000000E+03 0.  0.
         21    1    1    2  502  501 -0.14049024584E+03 -0.17485052044E+03 -0.91420416704E+01  0.22448561334E+03  0.00000000000E+00 0. -1.
<mgrwt>
<rscale>  3 0.49787237E+03</rscale>
<asrwt>0</asrwt>
<pdfrwt beam="1">  1        2 0.30103876E-01 0.49787237E+03</pdfrwt>
<pdfrwt beam="2">  1       -2 0.48722204E-01 0.49787237E+03</pdfrwt>
<totfact> 0.71095779E+02</totfact>
</mgrwt>
</event>
<event>
 4    0  0.1264838E-002  0.4581045E+03  0.7546771E-02  0.1025332E+00
          2   -1    0    0  502    0  0.00000000000E+00  0.00000000000E+00  0.15105893209E+04  0.15105893209E+04  0.00000000000E+00 0. -1.
         -2   -1    0    0    0  501 -0.00000000000E+00 -0.00000000000E+00 -0.34731440300E+02  0.34731440300E+02  0.00000000000E+00 0.  1.
         25    1    1    2    0    0  0.11779761987E+03  0.16388406181E+03  0.57402218316E+03  0.62117689246E+03  0.12500000000E+03 0.  0.
         21    1    1    2  502  501 -0.11779761987E+03 -0.16388406181E+03  0.90183569747E+03  0.92414386878E+03  0.00000000000E+00 0.  1.
<mgrwt>
<rscale>  3 0.45810454E+03</rscale>
<asrwt>0</asrwt>
<pdfrwt beam="1">  1        2 0.23239831E+00 0.45810454E+03</pdfrwt>
<pdfrwt beam="2">  1       -2 0.53432997E-02 0.45810454E+03</pdfrwt>
<totfact> 0.23744638E+03</totfact>
</mgrwt>
</event>
<event>
 4    0  0.1264838E-002  0.4851254E+03  0.7546771E-02  0.1017736E+00
         -2   -1    0    0    0  501 -0.00000000000E+00  0.00000000000E+00  0.40480827602E+02  0.40480827602E+02  0.00000000000E+00 0.  1.
          2   -1    0    0  502    0  0.00000000000E+00 -0.00000000000E+00 -0.14534454077E+04  0.14534454077E+04  0.00000000000E+00 0. -1.
         25    1    1    2    0    0 -0.14255338473E+03  0.17581185110E+03 -0.73112914189E+03  0.77550376956E+03  0.12500000000E+03 0.  0.
         21    1    1    2  502  501  0.14255338473E+03 -0.17581185110E+03 -0.68183543821E+03  0.71842246575E+03  0.00000000000E+00 0. -1.
<mgrwt>
<rscale>  3 0.48512544E+03</rscale>
<asrwt>0</asrwt>
<pdfrwt beam="1">  1        2 0.22360693E+00 0.48512544E+03</pdfrwt>
<pdfrwt beam="2">  1       -2 0.62278211E-02 0.48512544E+03</pdfrwt>
<totfact> 0.20101040E+03</totfact>
</mgrwt>
</event>
<event>
 4    0  0.1264838E-002  0.5589741E+03  0.7546771E-02  0.9994379E-01
          2   -1    0    0  502    0  0.00000000000E+00  0.00000000000E+00  0.75204273742E+03  0.75204273742E+03  0.00000000000E+00 0.  1.
         -2   -1    0    0    0  501 -0.00000000000E+00 -0.00000000000E+00 -0.10386777185E+03  0.10386777185E+03  0.00000000000E+00 0. -1.
         25    1    1    2    0    0  0.18103781397E+03  0.19404907805E+03  0.35274448398E+03  0.45878470524E+03  0.12500000000E+03 0.  0.
         21    1    1    2  502  501 -0.18103781397E+03 -0.19404907805E+03  0.29543048159E+03  0.39712580404E+03  0.00000000000E+00 0.  1.
<mgrwt>
<rscale>  3 0.55897407E+03</rscale>
<asrwt>0</asrwt>
<pdfrwt beam="1">  1        2 0.11569888E+00 0.55897407E+03</pdfrwt>
<pdfrwt beam="2">  1       -2 0.15979658E-01 0.55897407E+03</pdfrwt>
<totfact> 0.11804589E+03</totfact>
</mgrwt>
</event>
<event>
 4    0  0.1264838E-002  0.4730310E+03  0.7546771E-02  0.1021068E+00
          4   -1    0    0  502    0  0.00000000000E+00  0.00000000000E+00  0.41036181193E+03  0.41036181193E+03  0.00000000000E+00 0.  1.
         -4   -1    0    0    0  501 -0.00000000000E+00 -0.00000000000E+00 -0.13631772386E+03  0.13631772386E+03  0.00000000000E+00 0. -1.
         25    1    1    2    0    0  0.11688317973E+03  0.17714490906E+03  0.79621119666E+02  0.25885617475E+03  0.12500000000E+03 0.  0.
         21    1    1    2  502  501 -0.11688317973E+03 -0.17714490906E+03  0.19442296840E+03  0.28782336103E+03  0.00000000000E+00 0.  1.
<mgrwt>
<rscale>  3 0.47303103E+03</rscale>
<asrwt>0</asrwt>
<pdfrwt beam="1">  1        4 0.63132586E-01 0.47303103E+03</pdfrwt>
<pdfrwt beam="2">  1       -4 0.20971958E-01 0.47303103E+03</pdfrwt>
<totfact> 0.96329294E+01</totfact>
</mgrwt>
</event>
<event>
 4    0  0.1264838E-002  0.6590863E+03  0.7546771E-02  0.9789877E-01
         -2   -1    0    0    0  501 -0.00000000000E+00  0.00000000000E+00  0.11019623882E+03  0.11019623882E+03  0.00000000000E+00 0.  1.
          2   -1    0    0  502    0  0.00000000000E+00 -0.00000000000E+00 -0.98550270511E+03  0.98550270511E+03  0.00000000000E+00 0. -1.
         25    1    1    2    0    0  0.80030479805E-01 -0.30738128225E+03 -0.31994875150E+03  0.46095060762E+03  0.12500000000E+03 0.  0.
         21    1    1    2  502  501 -0.80030479805E-01  0.30738128225E+03 -0.55535771478E+03  0.63474833631E+03  0.00000000000E+00 0. -1.
<mgrwt>
<rscale>  3 0.65908631E+03</rscale>
<asrwt>0</asrwt>
<pdfrwt beam="1">  1        2 0.15161581E+00 0.65908631E+03</pdfrwt>
<pdfrwt beam="2">  1       -2 0.16953266E-01 0.65908631E+03</pdfrwt>
<totfact> 0.73724328E+02</totfact>
</mgrwt>
</event>
