<event>
 5    0  0.1828625E+000  0.4305635E+03  0.7546771E-02  0.1033682E+00
         21   -1    0    0  502  501  0.00000000000E+00  0.00000000000E+00  0.32489423194E+03  0.32489423194E+03  0.00000000000E+00 0.  1.
         21   -1    0    0  504  502 -0.00000000000E+00 -0.00000000000E+00 -0.50229726394E+03  0.50229726394E+03  0.00000000000E+00 0. -1.
         25    1    1    2    0    0  0.61533069678E+02 -0.20595269918E+03 -0.18700658065E+03  0.31112584941E+03  0.12500000000E+03 0.  0.
         21    1    1    2  503  501  0.89598125370E+02  0.11096666344E+03  0.20607445847E+03  0.25061545622E+03  0.00000000000E+00 0.  1.
         21    1    1    2  504  503 -0.15113119505E+03  0.94986035738E+02 -0.19647090982E+03  0.26545019026E+03  0.00000000000E+00 0. -1.
<mgrwt>
<rscale>  4 0.43056352E+03</rscale>
<asrwt>0</asrwt>
<pdfrwt beam="1">  1       21 0.49983728E-01 0.43056352E+03</pdfrwt>
<pdfrwt beam="2">  1       21 0.77276503E-01 0.43056352E+03</pdfrwt>
<totfact> 0.50207314E+03</totfact>
</mgrwt>
</event>
<event>
 5    0  0.1828625E+000  0.4049943E+03  0.7546771E-02  0.1042064E+00
         21   -1    0    0  503  501  0.00000000000E+00  0.00000000000E+00  0.10557861816E+03  0.10557861816E+03  0.00000000000E+00 0. -1.
         21   -1    0    0  504  502 -0.00000000000E+00 -0.00000000000E+00 -0.10222754999E+04  0.10222754999E+04  0.00000000000E+00 0. -1.
         25    1    1    2    0    0 -0.19943434716E+03 -0.13625909494E+03 -0.57369961337E+03  0.63489908345E+03  0.12500000000E+03 0.  0.
         21    1    1    2  503  502  0.73293258706E+02  0.10010052613E+03  0.17519651775E+01  0.12407693777E+03  0.00000000000E+00 0. -1.
         21    1    1    2  504  501  0.12614108845E+03  0.36158568808E+02 -0.34474923352E+03  0.36887809681E+03  0.00000000000E+00 0. -1.
<mgrwt>
<rscale>  4 0.40499425E+03</rscale>
<asrwt>0</asrwt>
<pdfrwt beam="1">  1       21 0.16242865E-01 0.40499425E+03</pdfrwt>
<pdfrwt beam="2">  1       21 0.15727315E+00 0.40499425E+03</pdfrwt>
<totfact> 0.79687600E+03</totfact>
</mgrwt>
</event>
<event>
 5    0  0.1828625E+000  0.5060841E+03  0.7546771E-02  0.1012203E+00
         21   -1    0    0  503  501  0.00000000000E+00  0.00000000000E+00  0.13408588103E+04  0.13408588103E+04  0.00000000000E+00 0.  1.
         21   -1    0    0  504  502 -0.00000000000E+00 -0.00000000000E+00 -0.62059009133E+02  0.62059009133E+02  0.00000000000E+00 0.  1.
         25    1    1    2    0    0 -0.11332792773E+03 -0.18547965538E+03  0.64658601173E+03  0.69350154458E+03  0.12500000000E+03 0.  0.
         21    1    1    2  503  502  0.16638040959E+02 -0.33152119399E+02  0.28772282571E+03  0.29010396733E+03  0.00000000000E+00 0.  1.
         21    1    1    2  504  501  0.96689886771E+02  0.21863177478E+03  0.34449096369E+03  0.41931230748E+03  0.00000000000E+00 0.  1.
<mgrwt>
<rscale>  4 0.50608408E+03</rscale>
<asrwt>0</asrwt>
<pdfrwt beam="1">  1       21 0.20628595E+00 0.50608408E+03</pdfrwt>
<pdfrwt beam="2">  1       21 0.95475408E-02 0.50608408E+03</pdfrwt>
<totfact> 0.91838912E+03</totfact>
</mgrwt>
</event>
<event>
 5    0  0.1828625E+000  0.4038584E+03  0.7546771E-02  0.1042452E+00
         21   -1    0    0  503  501  0.00000000000E+00  0.00000000000E+00  0.10761414260E+04  0.10761414260E+04  0.00000000000E+00 0. -1.
         21   -1    0    0  504  502 -0.00000000000E+00 -0.00000000000E+00 -0.59901862114E+02  0.59901862114E+02  0.00000000000E+00 0.  1.
         25    1    1    2    0    0  0.96899721163E+02 -0.20024481067E+03  0.46508064982E+03  0.53048331830E+03  0.12500000000E+03 0.  0.
         21    1    1    2  503  502  0.12335826340E+02  0.10319016343E+03  0.20549521878E+03  0.23027954182E+03  0.00000000000E+00 0.  1.
         21    1    1    2  504  501 -0.10923554750E+03  0.97054647241E+02  0.34566369526E+03  0.37528042796E+03  0.00000000000E+00 0. -1.
<mgrwt>
<rscale>  4 0.40385836E+03</rscale>
<asrwt>0</asrwt>
<pdfrwt beam="1">  1       21 0.16556020E+00 0.40385836E+03</pdfrwt>
<pdfrwt beam="2">  1       21 0.92156719E-02 0.40385836E+03</pdfrwt>
<totfact> 0.19410325E+04</totfact>
</mgrwt>
</event>
<event>
 5    0  0.1828625E+000  0.4645679E+03  0.7546771E-02  0.1023465E+00
         21   -1    0    0  504  501  0.00000000000E+00  0.00000000000E+00  0.42749221321E+02  0.42749221321E+02  0.00000000000E+00 0. -1.
         21   -1    0    0  503  502 -0.00000000000E+00 -0.00000000000E+00 -0.19076177183E+04  0.19076177183E+04  0.00000000000E+00 0. -1.
         25    1    1    2    0    0  0.23362454064E+03  0.13618366486E+02 -0.12704622183E+04  0.12978694596E+04  0.12500000000E+03 0.  0.
         21    1    1    2  503  501 -0.18703974185E+03 -0.21290281874E+02 -0.56804367764E+03  0.59842356308E+03  0.00000000000E+00 0. -1.
         21    1    1    2  504  502 -0.46584798787E+02  0.76719153884E+01 -0.26362600991E+02  0.54073916954E+02  0.00000000000E+00 0. -1.
<mgrwt>
<rscale>  4 0.46456786E+03</rscale>
<asrwt>0</asrwt>
<pdfrwt beam="1">  1       21 0.65768045E-02 0.46456786E+03</pdfrwt>
<pdfrwt beam="2">  1       21 0.29347960E+00 0.46456786E+03</pdfrwt>
<totfact> 0.51929052E+03</totfact>
</mgrwt>
</event>
<event>
 5    0  0.1828625E+000  0.5139073E+03  0.7546771E-02  0.1010211E+00
         21   -1    0    0  502  501  0.00000000000E+00  0.00000000000E+00  0.59400818293E+02  0.59400818293E+02  0.00000000000E+00 0.  1.
         21   -1    0    0  504  502 -0.00000000000E+00 -0.00000000000E+00 -0.23212139628E+04  0.23212139628E+04  0.00000000000E+00 0.  1.
         25    1    1    2    0    0  0.21380349217E+03 -0.95839179198E+02 -0.16922945719E+04  0.17130040862E+04  0.12500000000E+03 0.  0.
         21    1    1    2  503  501 -0.45262882709E+02 -0.28096892473E+02  0.75357168631E+01  0.53804748363E+02  0.00000000000E+00 0.  1.
         21    1    1    2  504  503 -0.16854060946E+03  0.12393607167E+03 -0.57705428948E+03  0.61380594645E+03  0.00000000000E+00 0.  1.
<mgrwt>
<rscale>  4 0.51390726E+03</rscale>
<asrwt>0</asrwt>
<pdfrwt beam="1">  1       21 0.91385870E-02 0.51390726E+03</pdfrwt>
<pdfrwt beam="2">  1       21 0.35710986E+00 0.51390726E+03</pdfrwt>
<totfact> 0.11613061E+03</totfact>
</mgrwt>
</event>
<event>
 5    0  0.1828625E+000  0.5080143E+03  0.7546771E-02  0.1011708E+00
         21   -1    0    0  503  501  0.00000000000E+00  0.00000000000E+00  0.62009115279E+02  0.62009115279E+02  0.00000000000E+00 0.  1.
         21   -1    0    0  504  502 -0.00000000000E+00 -0.00000000000E+00 -0.18211157070E+04  0.18211157070E+04  0.00000000000E+00 0.  1.
         25    1    1    2    0    0 -0.16715220945E+03 -0.17591954283E+03 -0.77596966314E+03  0.82258219333E+03  0.12500000000E+03 0.  0.
         21    1    1    2  503  502 -0.10509803356E+02  0.39977494241E+02  0.99952089770E+01  0.42527170314E+02  0.00000000000E+00 0.  1.
         21    1    1    2  504  501  0.17766201280E+03  0.13594204859E+03 -0.99313213756E+03  0.10180154586E+04  0.00000000000E+00 0.  1.
<mgrwt>
<rscale>  4 0.50801431E+03</rscale>
<asrwt>0</asrwt>
<pdfrwt beam="1">  1       21 0.95398646E-02 0.50801431E+03</pdfrwt>
<pdfrwt beam="2">  1       21 0.28017163E+00 0.50801431E+03</pdfrwt>
<totfact> 0.31699507E+03</totfact>
</mgrwt>
</event>
<event>
 5    0  0.1828625E+000  0.3872329E+03  0.7546771E-02  0.1048292E+00
         21   -1    0    0  503  501  0.00000000000E+00  0.00000000000E+00  0.14581092303E+03  0.14581092303E+03  0.00000000000E+00 0.  1.
         21   -1    0    0  504  502 -0.00000000000E+00 -0.00000000000E+00 -0.22258768544E+04  0.22258768544E+04  0.00000000000E+00 0. -1.
         25    1    1    2    0    0 -0.14538147200E+03 -0.16833180715E+03 -0.18114051714E+04  0.18292853973E+04  0.12500000000E+03 0.  0.
         21    1    1    2  503  502  0.69641832730E+02  0.87094859250E+02  0.10464457347E+03  0.15292477279E+03  0.00000000000E+00 0.  1.
         21    1    1    2  504  501  0.75739639269E+02  0.81236947896E+02 -0.37330533344E+03  0.38947760736E+03  0.00000000000E+00 0.  1.
<mgrwt>
<rscale>  4 0.38723285E+03</rscale>
<asrwt>0</asrwt>
<pdfrwt beam="1">  1       21 0.22432452E-01 0.38723285E+03</pdfrwt>
<pdfrwt beam="2">  1       21 0.34244256E+00 0.38723285E+03</pdfrwt>
<totfact> 0.29275451E+02</totfact>
</mgrwt>
</event>
<event>
 5    0  0.1828625E+000  0.6244488E+03  0.7546771E-02  0.9855942E-01
         21   -1    0    0  504  501  0.00000000000E+00  0.00000000000E+00  0.41154174421E+03  0.41154174421E+03  0.00000000000E+00 0.  1.
         21   -1    0    0  501  502 -0.00000000000E+00 -0.00000000000E+00 -0.34275216870E+03  0.34275216870E+03  0.00000000000E+00 0.  1.
         25    1    1    2    0    0 -0.22406279146E+03 -0.45058064069E+01  0.17653259702E+03  0.31146941201E+03  0.12500000000E+03 0.  0.
         21    1    1    2  503  502  0.21311447753E+03 -0.26477338610E+02 -0.23091646598E+03  0.31534305804E+03  0.00000000000E+00 0.  1.
         21    1    1    2  504  503  0.10948313932E+02  0.30983145017E+02  0.12317344447E+03  0.12748144286E+03  0.00000000000E+00 0.  1.
<mgrwt>
<rscale>  4 0.62444877E+03</rscale>
<asrwt>0</asrwt>
<pdfrwt beam="1">  1       21 0.63314115E-01 0.62444877E+03</pdfrwt>
<pdfrwt beam="2">  1       21 0.52731103E-01 0.62444877E+03</pdfrwt>
<totfact> 0.66595259E+03</totfact>
</mgrwt>
</event>
<event>
 5    0  0.1828625E+000  0.4105390E+03  0.7546771E-02  0.1040190E+00
         21   -1    0    0  504  501  0.00000000000E+00  0.00000000000E+00  0.20990784054E+03  0.20990784054E+03  0.00000000000E+00 0. -1.
         21   -1    0    0  503  502 -0.00000000000E+00 -0.00000000000E+00 -0.41728230034E+03  0.41728230034E+03  0.00000000000E+00 0. -1.
         25    1    1    2    0    0  0.21562044636E+03 -0.40784770554E+02 -0.28589470535E+03  0.38146606264E+03  0.12500000000E+03 0.  0.
         21    1    1    2  503  501 -0.65347908768E+02 -0.34340342665E+01  0.58559022559E+02  0.87814013089E+02  0.00000000000E+00 0.  1.
         21    1    1    2  504  502 -0.15027253759E+03  0.44218804821E+02  0.19961222990E+02  0.15791006515E+03  0.00000000000E+00 0. -1.
<mgrwt>
<rscale>  4 0.41053901E+03</rscale>
<asrwt>0</asrwt>
<pdfrwt beam="1">  1       21 0.32293514E-01 0.41053901E+03</pdfrwt>
<pdfrwt beam="2">  1       21 0.64197277E-01 0.41053901E+03</pdfrwt>
<totfact> 0.18861493E+04</totfact>
</mgrwt>
</event>
<event>
 5    0  0.1828625E+000  0.5230319E+03  0.7546771E-02  0.1007936E+00
         21   -1    0    0  502  501  0.00000000000E+00  0.00000000000E+00  0.40095067314E+03  0.40095067314E+03  0.00000000000E+00 0. -1.
         21   -1    0    0  503  502 -0.00000000000E+00 -0.00000000000E+00 -0.67892288141E+03  0.67892288141E+03  0.00000000000E+00 0.  1.
         25    1    1    2    0    0 -0.26186633745E+03  0.67046450660E+02 -0.17453412239E+03  0.34519033173E+03  0.12500000000E+03 0.  0.
         21    1    1    2  503  504  0.16734775835E+03  0.16657881008E+02 -0.38826821565E+03  0.42312523502E+03  0.00000000000E+00 0.  1.
         21    1    1    2  504  501  0.94518579101E+02 -0.83704331668E+02  0.28483012978E+03  0.31155798780E+03  0.00000000000E+00 0. -1.
<mgrwt>
<rscale>  4 0.52303187E+03</rscale>
<asrwt>0</asrwt>
<pdfrwt beam="1">  1       21 0.61684719E-01 0.52303187E+03</pdfrwt>
<pdfrwt beam="2">  1       21 0.10444967E+00 0.52303187E+03</pdfrwt>
<totfact> 0.15088372E+03</totfact>
</mgrwt>
</event>
<event>
 5    0  0.1828625E+000  0.6815241E+03  0.7546771E-02  0.9749361E-01
         21   -1    0    0  503  501  0.00000000000E+00  0.00000000000E+00  0.16344446042E+03  0.16344446042E+03  0.00000000000E+00 0. -1.
         21   -1    0    0  504  502 -0.00000000000E+00 -0.00000000000E+00 -0.16461186074E+04  0.16461186074E+04  0.00000000000E+00 0.  1.
         25    1    1    2    0    0 -0.92960715809E+02 -0.39460500852E+03 -0.11516442691E+04  0.12272996089E+04  0.12500000000E+03 0.  0.
         21    1    1    2  503  502 -0.37864842007E+01  0.18457083477E+03 -0.77255609394E+01  0.18477124993E+03  0.00000000000E+00 0. -1.
         21    1    1    2  504  501  0.96747200009E+02  0.21003417375E+03 -0.32330431691E+03  0.39749220896E+03  0.00000000000E+00 0. -1.
<mgrwt>
<rscale>  4 0.68152412E+03</rscale>
<asrwt>0</asrwt>
<pdfrwt beam="1">  1       21 0.25145303E-01 0.68152412E+03</pdfrwt>
<pdfrwt beam="2">  1       21 0.25324900E+00 0.68152412E+03</pdfrwt>
<totfact> 0.70855720E+02</totfact>
</mgrwt>
</event>
<event>
 5    0  0.1828625E+000  0.6189377E+03  0.7546771E-02  0.9866877E-01
         21   -1    0    0  503  501  0.00000000000E+00  0.00000000000E+00  0.15252190068E+04  0.15252190068E+04  0.00000000000E+00 0.  1.
         21   -1    0    0  504  502 -0.00000000000E+00 -0.00000000000E+00 -0.89066121366E+02  0.89066121366E+02  0.00000000000E+00 0. -1.
         25    1    1    2    0    0 -0.24396168955E+03 -0.66955962324E+00  0.98200020766E+03  0.10195426240E+04  0.12500000000E+03 0.  0.
         21    1    1    2  503  502  0.66034146533E+02  0.49110033492E+02  0.39139406235E+03  0.39995201705E+03  0.00000000000E+00 0.  1.
         21    1    1    2  504  501  0.17792754301E+03 -0.48440473869E+02  0.62758615438E+02  0.19479048715E+03  0.00000000000E+00 0.  1.
<mgrwt>
<rscale>  4 0.61893772E+03</rscale>
<asrwt>0</asrwt>
<pdfrwt beam="1">  1       21 0.23464906E+00 0.61893772E+03</pdfrwt>
<pdfrwt beam="2">  1       21 0.13702481E-01 0.61893772E+03</pdfrwt>
<totfact> 0.30074084E+03</totfact>
</mgrwt>
</event>
<event>
 5    0  0.1828625E+000  0.4781110E+03  0.7546771E-02  0.1019656E+00
         21   -1    0    0  502  501  0.00000000000E+00  0.00000000000E+00  0.37141208562E+03  0.37141208562E+03  0.00000000000E+00 0.  1.
         21   -1    0    0  503  502 -0.00000000000E+00 -0.00000000000E+00 -0.36030809673E+03  0.36030809673E+03  0.00000000000E+00 0. -1.
         25    1    1    2    0    0  0.57730708206E+02 -0.25366991325E+03 -0.16802400600E+03  0.33397354109E+03  0.12500000000E+03 0.  0.
         21    1    1    2  503  504  0.19244068463E+02  0.17556094946E+03 -0.12397841692E+02  0.17704713391E+03  0.00000000000E+00 0.  1.
         21    1    1    2  504  501 -0.76974776669E+02  0.78108963790E+02  0.19152583657E+03  0.22069950735E+03  0.00000000000E+00 0.  1.
<mgrwt>
<rscale>  4 0.47811096E+03</rscale>
<asrwt>0</asrwt>
<pdfrwt beam="1">  1       21 0.57140321E-01 0.47811096E+03</pdfrwt>
<pdfrwt beam="2">  1       21 0.55432015E-01 0.47811096E+03</pdfrwt>
<totfact> 0.77732436E+03</totfact>
</mgrwt>
</event>
<event>
 5    0  0.1828625E+000  0.9407112E+03  0.7546771E-02  0.9376074E-01
         21   -1    0    0  502  501  0.00000000000E+00  0.00000000000E+00  0.87447289568E+03  0.87447289568E+03  0.00000000000E+00 0.  1.
         21   -1    0    0  503  502 -0.00000000000E+00 -0.00000000000E+00 -0.42647511395E+03  0.42647511395E+03  0.00000000000E+00 0.  1.
         25    1    1    2    0    0 -0.20095364629E+03  0.32595003624E+03  0.33099629116E+03  0.52135337233E+03  0.12500000000E+03 0.  0.
         21    1    1    2  503  504  0.15383663464E+03 -0.31783316557E+03 -0.23513243022E+03  0.42422976208E+03  0.00000000000E+00 0.  1.
         21    1    1    2  504  501  0.47117011648E+02 -0.81168706690E+01  0.35213392079E+03  0.35536487523E+03  0.00000000000E+00 0.  1.
<mgrwt>
<rscale>  4 0.94071121E+03</rscale>
<asrwt>0</asrwt>
<pdfrwt beam="1">  1       21 0.13453429E+00 0.94071121E+03</pdfrwt>
<pdfrwt beam="2">  1       21 0.65611556E-01 0.94071121E+03</pdfrwt>
<totfact> 0.61758230E+02</totfact>
</mgrwt>
</event>
<event>
 5    0  0.1828625E+000  0.5052521E+03  0.7546771E-02  0.1012417E+00
         21   -1    0    0  503  501  0.00000000000E+00  0.00000000000E+00  0.11095136701E+03  0.11095136701E+03  0.00000000000E+00 0.  1.
         21   -1    0    0  504  502 -0.00000000000E+00 -0.00000000000E+00 -0.63430533671E+03  0.63430533671E+03  0.00000000000E+00 0.  1.
         25    1    1    2    0    0 -0.10063550321E+03  0.20101234960E+03 -0.27626476825E+03  0.37746614600E+03  0.12500000000E+03 0.  0.
         21    1    1    2  503  502 -0.67962947132E+01  0.22064910241E+02 -0.10622843718E+02  0.25414458374E+02  0.00000000000E+00 0. -1.
         21    1    1    2  504  501  0.10743179793E+03 -0.22307725984E+03 -0.23646635774E+03  0.34237609935E+03  0.00000000000E+00 0.  1.
<mgrwt>
<rscale>  4 0.50525207E+03</rscale>
<asrwt>0</asrwt>
<pdfrwt beam="1">  1       21 0.17069441E-01 0.50525207E+03</pdfrwt>
<pdfrwt beam="2">  1       21 0.97585437E-01 0.50525207E+03</pdfrwt>
<totfact> 0.24048796E+04</totfact>
</mgrwt>
</event>
<event>
 5    0  0.1828625E+000  0.5859950E+03  0.7546771E-02  0.9934896E-01
         21   -1    0    0  504  501  0.00000000000E+00  0.00000000000E+00  0.28206275015E+03  0.28206275015E+03  0.00000000000E+00 0. -1.
         21   -1    0    0  501  502 -0.00000000000E+00 -0.00000000000E+00 -0.46937238803E+03  0.46937238803E+03  0.00000000000E+00 0. -1.
         25    1    1    2    0    0  0.24720393291E+03  0.16237857880E+03 -0.97337064260E+02  0.33552360778E+03  0.12500000000E+03 0.  0.
         21    1    1    2  503  502 -0.21703183420E+03 -0.13433124428E+03 -0.18307101375E+03  0.31410618638E+03  0.00000000000E+00 0. -1.
         21    1    1    2  504  503 -0.30172098707E+02 -0.28047334520E+02  0.93098440138E+02  0.10180534402E+03  0.00000000000E+00 0. -1.
<mgrwt>
<rscale>  4 0.58599503E+03</rscale>
<asrwt>0</asrwt>
<pdfrwt beam="1">  1       21 0.43394270E-01 0.58599503E+03</pdfrwt>
<pdfrwt beam="2">  1       21 0.72211136E-01 0.58599503E+03</pdfrwt>
<totfact> 0.75609146E+03</totfact>
</mgrwt>
</event>
<event>
 5    0  0.1828625E+000  0.4242958E+03  0.7546771E-02  0.1035677E+00
         21   -1    0    0  504  501  0.00000000000E+00  0.00000000000E+00  0.63539675016E+03  0.63539675016E+03  0.00000000000E+00 0.  1.
         21   -1    0    0  503  502 -0.00000000000E+00 -0.00000000000E+00 -0.94286970480E+02  0.94286970480E+02  0.00000000000E+00 0.  1.
         25    1    1    2    0    0  0.10807700208E+02 -0.19983312285E+03  0.22378953941E+03  0.32520276955E+03  0.12500000000E+03 0.  0.
         21    1    1    2  503  501  0.17018961515E+02  0.18749244680E+03  0.16874673709E+03  0.25282113033E+03  0.00000000000E+00 0. -1.
         21    1    1    2  504  502 -0.27826661724E+02  0.12340676049E+02  0.14857350318E+03  0.15165982076E+03  0.00000000000E+00 0. -1.
<mgrwt>
<rscale>  4 0.42429577E+03</rscale>
<asrwt>0</asrwt>
<pdfrwt beam="1">  1       21 0.97753344E-01 0.42429577E+03</pdfrwt>
<pdfrwt beam="2">  1       21 0.14505688E-01 0.42429577E+03</pdfrwt>
<totfact> 0.33085349E+04</totfact>
</mgrwt>
</event>
<event>
 5    0  0.1828625E+000  0.9600916E+03  0.7546771E-02  0.9353432E-01
         21   -1    0    0  502  501  0.00000000000E+00  0.00000000000E+00  0.81399081618E+03  0.81399081618E+03  0.00000000000E+00 0.  1.
         21   -1    0    0  504  502 -0.00000000000E+00 -0.00000000000E+00 -0.66731405608E+03  0.66731405608E+03  0.00000000000E+00 0.  1.
         25    1    1    2    0    0 -0.17746925092E+03 -0.17236481948E+03  0.24708768166E+03  0.37132504420E+03  0.12500000000E+03 0.  0.
         21    1    1    2  503  501  0.35397574168E+03 -0.26681842945E+03  0.26104200652E+03  0.51442572755E+03  0.00000000000E+00 0.  1.
         21    1    1    2  504  503 -0.17650649076E+03  0.43918324893E+03 -0.36145292808E+03  0.59555410052E+03  0.00000000000E+00 0.  1.
<mgrwt>
<rscale>  4 0.96009160E+03</rscale>
<asrwt>0</asrwt>
<pdfrwt beam="1">  1       21 0.12522936E+00 0.96009160E+03</pdfrwt>
<pdfrwt beam="2">  1       21 0.10266370E+00 0.96009160E+03</pdfrwt>
<totfact> 0.25770271E+02</totfact>
</mgrwt>
</event>
<event>
 5    0  0.1828625E+000  0.5136895E+03  0.7546771E-02  0.1010266E+00
         21   -1    0    0  502  501  0.00000000000E+00  0.00000000000E+00  0.36444750581E+02  0.36444750581E+02  0.00000000000E+00 0.  1.
         21   -1    0    0  503  502 -0.00000000000E+00 -0.00000000000E+00 -0.28841539513E+04  0.28841539513E+04  0.00000000000E+00 0.  1.
         25    1    1    2    0    0 -0.23036807961E+03 -0.12520098463E+03 -0.14632896676E+04  0.14918399344E+04  0.12500000000E+03 0.  0.
         21    1    1    2  503  504  0.19150108062E+03  0.10964005356E+03 -0.13647988529E+04  0.13825228801E+04  0.00000000000E+00 0.  1.
         21    1    1    2  504  501  0.38866998987E+02  0.15560931075E+02 -0.19620680271E+02  0.46235887365E+02  0.00000000000E+00 0.  1.
<mgrwt>
<rscale>  4 0.51368951E+03</rscale>
<asrwt>0</asrwt>
<pdfrwt beam="1">  1       21 0.56068851E-02 0.51368951E+03</pdfrwt>
<pdfrwt beam="2">  1       21 0.44371596E+00 0.51368951E+03</pdfrwt>
<totfact> 0.75966505E+02</totfact>
</mgrwt>
</event>
<event>
 5    0  0.1828625E+000  0.3657610E+03  0.7546771E-02  0.1056326E+00
         21   -1    0    0  503  501  0.00000000000E+00  0.00000000000E+00  0.27876806146E+03  0.27876806146E+03  0.00000000000E+00 0. -1.
         21   -1    0    0  504  502 -0.00000000000E+00 -0.00000000000E+00 -0.75354432791E+03  0.75354432791E+03  0.00000000000E+00 0. -1.
         25    1    1    2    0    0 -0.26235481381E+03  0.50349410092E+02 -0.61189496647E+03  0.67926840160E+03  0.12500000000E+03 0.  0.
         21    1    1    2  503  502  0.25319189745E+03 -0.29789067837E+01  0.16012463358E+03  0.29959123668E+03  0.00000000000E+00 0. -1.
         21    1    1    2  504  501  0.91629163594E+01 -0.47370503309E+02 -0.23005933558E+02  0.53452751088E+02  0.00000000000E+00 0.  1.
<mgrwt>
<rscale>  4 0.36576104E+03</rscale>
<asrwt>0</asrwt>
<pdfrwt beam="1">  1       21 0.42887393E-01 0.36576104E+03</pdfrwt>
<pdfrwt beam="2">  1       21 0.11592990E+00 0.36576104E+03</pdfrwt>
<totfact> 0.26932355E+03</totfact>
</mgrwt>
</event>
<event>
 5    0  0.1828625E+000  0.5092944E+03  0.7546771E-02  0.1011381E+00
         21   -1    0    0  502  501  0.00000000000E+00  0.00000000000E+00  0.14807339652E+04  0.14807339652E+04  0.00000000000E+00 0. -1.
         21   -1    0    0  504  502 -0.00000000000E+00 -0.00000000000E+00 -0.28564545947E+03  0.28564545947E+03  0.00000000000E+00 0.  1.
         25    1    1    2    0    0  0.47778321374E+01 -0.22770412203E+03 -0.39688201407E+02  0.26281580661E+03  0.12500000000E+03 0.  0.
         21    1    1    2  503  501 -0.18434190807E+03  0.56046378192E+02  0.12402126926E+04  0.12550899005E+04  0.00000000000E+00 0. -1.
         21    1    1    2  504  503  0.17956407593E+03  0.17165774384E+03 -0.54359854054E+01  0.24847371757E+03  0.00000000000E+00 0.  1.
<mgrwt>
<rscale>  4 0.50929440E+03</rscale>
<asrwt>0</asrwt>
<pdfrwt beam="1">  1       21 0.22780522E+00 0.50929440E+03</pdfrwt>
<pdfrwt beam="2">  1       21 0.43945456E-01 0.50929440E+03</pdfrwt>
<totfact> 0.35347329E+02</totfact>
</mgrwt>
</event>
<event>
 5    0  0.1828625E+000  0.4423099E+03  0.7546771E-02  0.1030040E+00
         21   -1    0    0  503  501  0.00000000000E+00  0.00000000000E+00  0.40641323967E+03  0.40641323967E+03  0.00000000000E+00 0.  1.
         21   -1    0    0  504  502 -0.00000000000E+00 -0.00000000000E+00 -0.39562048874E+03  0.39562048874E+03  0.00000000000E+00 0.  1.
         25    1    1    2    0    0 -0.84051614589E+02 -0.20028723675E+03 -0.86007782642E+02  0.26495658096E+03  0.12500000000E+03 0.  0.
         21    1    1    2  503  502  0.11542625942E+02  0.42023414172E+02  0.28057583044E+03  0.28394012780E+03  0.00000000000E+00 0.  1.
         21    1    1    2  504  501  0.72508988647E+02  0.15826382258E+03 -0.18377529687E+03  0.25313701964E+03  0.00000000000E+00 0.  1.
<mgrwt>
<rscale>  4 0.44230992E+03</rscale>
<asrwt>0</asrwt>
<pdfrwt beam="1">  1       21 0.62525114E-01 0.44230992E+03</pdfrwt>
<pdfrwt beam="2">  1       21 0.60864690E-01 0.44230992E+03</pdfrwt>
<totfact> 0.52620123E+03</totfact>
</mgrwt>
</event>
<event>
 5    0  0.1828625E+000  0.6475319E+03  0.7546771E-02  0.9811421E-01
         21   -1    0    0  503  501  0.00000000000E+00  0.00000000000E+00  0.66679383157E+03  0.66679383157E+03  0.00000000000E+00 0. -1.
         21   -1    0    0  504  502 -0.00000000000E+00 -0.00000000000E+00 -0.33016223313E+03  0.33016223313E+03  0.00000000000E+00 0. -1.
         25    1    1    2    0    0 -0.41605495098E+02  0.26932964205E+03  0.11853123638E+03  0.32240367136E+03  0.12500000000E+03 0.  0.
         21    1    1    2  503  502  0.21113160707E+00  0.25789464698E+02  0.34836447452E+03  0.34931783260E+03  0.00000000000E+00 0. -1.
         21    1    1    2  504  501  0.41394363491E+02 -0.29511910675E+03 -0.13026411247E+03  0.32523456073E+03  0.00000000000E+00 0. -1.
<mgrwt>
<rscale>  4 0.64753194E+03</rscale>
<asrwt>0</asrwt>
<pdfrwt beam="1">  1       21 0.10258367E+00 0.64753194E+03</pdfrwt>
<pdfrwt beam="2">  1       21 0.50794190E-01 0.64753194E+03</pdfrwt>
<totfact> 0.23235874E+03</totfact>
</mgrwt>
</event>
<event>
 5    0  0.1828625E+000  0.4740972E+03  0.7546771E-02  0.1020770E+00
         21   -1    0    0  504  501  0.00000000000E+00  0.00000000000E+00  0.68553731237E+03  0.68553731237E+03  0.00000000000E+00 0.  1.
         21   -1    0    0  501  502 -0.00000000000E+00 -0.00000000000E+00 -0.32226602817E+03  0.32226602817E+03  0.00000000000E+00 0. -1.
         25    1    1    2    0    0 -0.37785530596E+02  0.24142523691E+03 -0.23105727308E+03  0.35878455204E+03  0.12500000000E+03 0.  0.
         21    1    1    2  503  502  0.33411352605E+02 -0.22691340504E+02  0.12130378485E+03  0.12785078660E+03  0.00000000000E+00 0.  1.
         21    1    1    2  504  503  0.43741779910E+01 -0.21873389641E+03  0.47302477243E+03  0.52116800190E+03  0.00000000000E+00 0.  1.
<mgrwt>
<rscale>  4 0.47409717E+03</rscale>
<asrwt>0</asrwt>
<pdfrwt beam="1">  1       21 0.10546728E+00 0.47409717E+03</pdfrwt>
<pdfrwt beam="2">  1       21 0.49579389E-01 0.47409717E+03</pdfrwt>
<totfact> 0.24047886E+03</totfact>
</mgrwt>
</event>
<event>
 5    0  0.1828625E+000  0.4413078E+03  0.7546771E-02  0.1030346E+00
         21   -1    0    0  502  501  0.00000000000E+00  0.00000000000E+00  0.12111662595E+03  0.12111662595E+03  0.00000000000E+00 0. -1.
         21   -1    0    0  504  502 -0.00000000000E+00 -0.00000000000E+00 -0.81486740649E+03  0.81486740649E+03  0.00000000000E+00 0. -1.
         25    1    1    2    0    0  0.82033195125E+02  0.18263883727E+03 -0.25024931111E+03  0.34400015653E+03  0.12500000000E+03 0.  0.
         21    1    1    2  503  501  0.23109220859E+02 -0.52437457713E+02  0.46750294505E+02  0.73954804417E+02  0.00000000000E+00 0. -1.
         21    1    1    2  504  503 -0.10514241598E+03 -0.13020137955E+03 -0.49025176394E+03  0.51802907150E+03  0.00000000000E+00 0. -1.
<mgrwt>
<rscale>  4 0.44130777E+03</rscale>
<asrwt>0</asrwt>
<pdfrwt beam="1">  1       21 0.18633326E-01 0.44130777E+03</pdfrwt>
<pdfrwt beam="2">  1       21 0.12536422E+00 0.44130777E+03</pdfrwt>
<totfact> 0.11109403E+04</totfact>
</mgrwt>
</event>
<event>
 5    0  0.1828625E+000  0.5802587E+03  0.7546771E-02  0.9947231E-01
         21   -1    0    0  503  501  0.00000000000E+00  0.00000000000E+00  0.42778183939E+03  0.42778183939E+03  0.00000000000E+00 0. -1.
         21   -1    0    0  504  502 -0.00000000000E+00 -0.00000000000E+00 -0.37176682780E+03  0.37176682780E+03  0.00000000000E+00 0. -1.
         25    1    1    2    0    0  0.17128719890E+03 -0.23065876471E+03 -0.73451839202E+02  0.32181196828E+03  0.12500000000E+03 0.  0.
         21    1    1    2  503  502 -0.21215217033E+02  0.99742259853E+01  0.20026198360E+03  0.20162944402E+03  0.00000000000E+00 0. -1.
         21    1    1    2  504  501 -0.15007198187E+03  0.22068453873E+03 -0.70795132815E+02  0.27610725490E+03  0.00000000000E+00 0. -1.
<mgrwt>
<rscale>  4 0.58025874E+03</rscale>
<asrwt>0</asrwt>
<pdfrwt beam="1">  1       21 0.65812591E-01 0.58025874E+03</pdfrwt>
<pdfrwt beam="2">  1       21 0.57194897E-01 0.58025874E+03</pdfrwt>
<totfact> 0.51728531E+03</totfact>
</mgrwt>
</event>
<event>
 5    0  0.1828625E+000  0.8077879E+03  0.7546771E-02  0.9548812E-01
         21   -1    0    0  502  501  0.00000000000E+00  0.00000000000E+00  0.79326344735E+03  0.79326344735E+03  0.00000000000E+00 0. -1.
         21   -1    0    0  503  502 -0.00000000000E+00 -0.00000000000E+00 -0.42055386825E+03  0.42055386825E+03  0.00000000000E+00 0. -1.
         25    1    1    2    0    0 -0.32758125095E+03 -0.13282680871E+03  0.22675961128E+03  0.43817503169E+03  0.12500000000E+03 0.  0.
         21    1    1    2  503  504  0.10267417709E+03  0.39749914237E+03  0.39859299456E+02  0.41247584000E+03  0.00000000000E+00 0. -1.
         21    1    1    2  504  501  0.22490707386E+03 -0.26467233366E+03  0.10609066836E+03  0.36316644392E+03  0.00000000000E+00 0. -1.
<mgrwt>
<rscale>  4 0.80778788E+03</rscale>
<asrwt>0</asrwt>
<pdfrwt beam="1">  1       21 0.12204053E+00 0.80778788E+03</pdfrwt>
<pdfrwt beam="2">  1       21 0.64700595E-01 0.80778788E+03</pdfrwt>
<totfact> 0.84759968E+02</totfact>
</mgrwt>
</event>
<event>
 5    0  0.1828625E+000  0.4743242E+03  0.7546771E-02  0.1020707E+00
         21   -1    0    0  503  501  0.00000000000E+00  0.00000000000E+00  0.32083746681E+02  0.32083746681E+02  0.00000000000E+00 0.  1.
         21   -1    0    0  504  502 -0.00000000000E+00 -0.00000000000E+00 -0.23792540008E+04  0.23792540008E+04  0.00000000000E+00 0.  1.
         25    1    1    2    0    0 -0.35868082733E+01 -0.20708179118E+03 -0.10184801263E+04  0.10468154093E+04  0.12500000000E+03 0.  0.
         21    1    1    2  503  502  0.36414142558E+02 -0.18115609788E+02 -0.44350500619E+02  0.60175842341E+02  0.00000000000E+00 0.  1.
         21    1    1    2  504  501 -0.32827334285E+02  0.22519740097E+03 -0.12843396273E+04  0.13043464959E+04  0.00000000000E+00 0.  1.
<mgrwt>
<rscale>  4 0.47432424E+03</rscale>
<asrwt>0</asrwt>
<pdfrwt beam="1">  1       21 0.49359599E-02 0.47432424E+03</pdfrwt>
<pdfrwt beam="2">  1       21 0.36603916E+00 0.47432424E+03</pdfrwt>
<totfact> 0.30777804E+03</totfact>
</mgrwt>
</event>
<event>
 5    0  0.1828625E+000  0.5205760E+03  0.7546771E-02  0.1008544E+00
         21   -1    0    0  502  501  0.00000000000E+00  0.00000000000E+00  0.62380115045E+03  0.62380115045E+03  0.00000000000E+00 0. -1.
         21   -1    0    0  503  502 -0.00000000000E+00 -0.00000000000E+00 -0.30107560639E+03  0.30107560639E+03  0.00000000000E+00 0. -1.
         25    1    1    2    0    0 -0.29033698121E+01  0.37114692699E+03  0.78560698069E+02  0.39944368095E+03  0.12500000000E+03 0.  0.
         21    1    1    2  503  504 -0.88461715280E+02 -0.84626695036E+02 -0.21338703429E+02  0.12426782708E+03  0.00000000000E+00 0.  1.
         21    1    1    2  504  501  0.91365085092E+02 -0.28652023195E+03  0.26550354942E+03  0.40116524881E+03  0.00000000000E+00 0. -1.
<mgrwt>
<rscale>  4 0.52057601E+03</rscale>
<asrwt>0</asrwt>
<pdfrwt beam="1">  1       21 0.95969407E-01 0.52057601E+03</pdfrwt>
<pdfrwt beam="2">  1       21 0.46319324E-01 0.52057601E+03</pdfrwt>
<totfact> 0.34447759E+03</totfact>
</mgrwt>
</event>
<event>
 5    0  0.1828625E+000  0.4976264E+03  0.7546771E-02  0.1014400E+00
         21   -1    0    0  503  501  0.00000000000E+00  0.00000000000E+00  0.13235057941E+03  0.13235057941E+03  0.00000000000E+00 0. -1.
         21   -1    0    0  504  502 -0.00000000000E+00 -0.00000000000E+00 -0.13332632974E+04  0.13332632974E+04  0.00000000000E+00 0. -1.
         25    1    1    2    0    0 -0.39593057556E+02 -0.29106685796E+03 -0.86486451462E+03  0.92190192247E+03  0.12500000000E+03 0.  0.
         21    1    1    2  503  502 -0.92823051760E+02  0.14172652289E+03 -0.29463319611E+03  0.33986945505E+03  0.00000000000E+00 0. -1.
         21    1    1    2  504  501  0.13241610932E+03  0.14934033508E+03 -0.41415007266E+02  0.20384249928E+03  0.00000000000E+00 0. -1.
<mgrwt>
<rscale>  4 0.49762643E+03</rscale>
<asrwt>0</asrwt>
<pdfrwt beam="1">  1       21 0.20361627E-01 0.49762643E+03</pdfrwt>
<pdfrwt beam="2">  1       21 0.20511744E+00 0.49762643E+03</pdfrwt>
<totfact> 0.23096026E+03</totfact>
</mgrwt>
</event>
<event>
 5    0  0.1828625E+000  0.4756181E+03  0.7546771E-02  0.1020346E+00
         21   -1    0    0  504  501  0.00000000000E+00  0.00000000000E+00  0.15437479289E+04  0.15437479289E+04  0.00000000000E+00 0. -1.
         21   -1    0    0  503  502 -0.00000000000E+00 -0.00000000000E+00 -0.85129717688E+02  0.85129717688E+02  0.00000000000E+00 0.  1.
         25    1    1    2    0    0  0.25323410479E+03 -0.31395603672E+02  0.26627261269E+03  0.38940891108E+03  0.12500000000E+03 0.  0.
         21    1    1    2  503  501 -0.15713374858E+03 -0.57254280385E+02  0.36040326850E+03  0.39731547102E+03  0.00000000000E+00 0. -1.
         21    1    1    2  504  502 -0.96100356207E+02  0.88649884057E+02  0.83194233003E+03  0.84215326449E+03  0.00000000000E+00 0. -1.
<mgrwt>
<rscale>  4 0.47561812E+03</rscale>
<asrwt>0</asrwt>
<pdfrwt beam="1">  1       21 0.23749966E+00 0.47561812E+03</pdfrwt>
<pdfrwt beam="2">  1       21 0.13096881E-01 0.47561812E+03</pdfrwt>
<totfact> 0.32997766E+03</totfact>
</mgrwt>
</event>
<event>
 5    0  0.1828625E+000  0.3799372E+03  0.7546771E-02  0.1050957E+00
         21   -1    0    0  503  501  0.00000000000E+00  0.00000000000E+00  0.22835192418E+03  0.22835192418E+03  0.00000000000E+00 0. -1.
         21   -1    0    0  504  502 -0.00000000000E+00 -0.00000000000E+00 -0.29938332856E+03  0.29938332856E+03  0.00000000000E+00 0. -1.
         25    1    1    2    0    0  0.20520187846E+03  0.37333787421E+02 -0.80953037708E+02  0.25628112868E+03  0.12500000000E+03 0.  0.
         21    1    1    2  503  502 -0.13327500807E+03 -0.18238437510E+02 -0.78607803434E+02  0.15580133228E+03  0.00000000000E+00 0. -1.
         21    1    1    2  504  501 -0.71926870386E+02 -0.19095349910E+02  0.88529436765E+02  0.11565279178E+03  0.00000000000E+00 0. -1.
<mgrwt>
<rscale>  4 0.37993722E+03</rscale>
<asrwt>0</asrwt>
<pdfrwt beam="1">  1       21 0.35131065E-01 0.37993722E+03</pdfrwt>
<pdfrwt beam="2">  1       21 0.46058974E-01 0.37993722E+03</pdfrwt>
<totfact> 0.32812474E+04</totfact>
</mgrwt>
</event>
<event>
 5    0  0.1828625E+000  0.6292345E+03  0.7546771E-02  0.9846544E-01
         21   -1    0    0  503  501  0.00000000000E+00  0.00000000000E+00  0.71359174669E+02  0.71359174669E+02  0.00000000000E+00 0. -1.
         21   -1    0    0  504  502 -0.00000000000E+00 -0.00000000000E+00 -0.18204308932E+04  0.18204308932E+04  0.00000000000E+00 0. -1.
         25    1    1    2    0    0  0.23039601994E+03  0.33399391584E+01 -0.31983012701E+03  0.41353330137E+03  0.12500000000E+03 0.  0.
         21    1    1    2  503  502 -0.19379904127E+02  0.50092831699E+01  0.10846563103E+02  0.22766675932E+02  0.00000000000E+00 0. -1.
         21    1    1    2  504  501 -0.21101611582E+03 -0.83492223283E+01 -0.14400881547E+04  0.14554900906E+04  0.00000000000E+00 0. -1.
<mgrwt>
<rscale>  4 0.62923452E+03</rscale>
<asrwt>0</asrwt>
<pdfrwt beam="1">  1       21 0.10978335E-01 0.62923452E+03</pdfrwt>
<pdfrwt beam="2">  1       21 0.28006628E+00 0.62923452E+03</pdfrwt>
<totfact> 0.23540575E+03</totfact>
</mgrwt>
</event>
<event>
 5    0  0.1828625E+000  0.1170519E+04  0.7546771E-02  0.9139059E-01
         21   -1    0    0  503  501  0.00000000000E+00  0.00000000000E+00  0.37749765161E+03  0.37749765161E+03  0.00000000000E+00 0.  1.
         21   -1    0    0  504  502 -0.00000000000E+00 -0.00000000000E+00 -0.10031662860E+04  0.10031662860E+04  0.00000000000E+00 0. -1.
         25    1    1    2    0    0 -0.29466318961E+03  0.31017336878E+02  0.23614116339E+03  0.39896882027E+03  0.12500000000E+03 0.  0.
         21    1    1    2  503  502 -0.83990510864E+01  0.27828413592E+02  0.27688479122E+02  0.40144944119E+02  0.00000000000E+00 0.  1.
         21    1    1    2  504  501  0.30306224070E+03 -0.58845750470E+02 -0.88949827687E+03  0.94155017320E+03  0.00000000000E+00 0. -1.
<mgrwt>
<rscale>  4 0.11705194E+04</rscale>
<asrwt>0</asrwt>
<pdfrwt beam="1">  1       21 0.58076562E-01 0.11705194E+04</pdfrwt>
<pdfrwt beam="2">  1       21 0.15433327E+00 0.11705194E+04</pdfrwt>
<totfact> 0.53384386E+02</totfact>
</mgrwt>
</event>
<event>
 5    0  0.1828625E+000  0.5252411E+03  0.7546771E-02  0.1007393E+00
         21   -1    0    0  502  501  0.00000000000E+00  0.00000000000E+00  0.22569659780E+03  0.22569659780E+03  0.00000000000E+00 0. -1.
         21   -1    0    0  503  502 -0.00000000000E+00 -0.00000000000E+00 -0.37342025510E+03  0.37342025510E+03  0.00000000000E+00 0. -1.
         25    1    1    2    0    0  0.13326872879E+03  0.16920250687E+03  0.26000414021E+02  0.25038183627E+03  0.12500000000E+03 0.  0.
         21    1    1    2  503  504 -0.15680307939E+03 -0.15931732005E+03 -0.20844243501E+03  0.30564270462E+03  0.00000000000E+00 0. -1.
         21    1    1    2  504  501  0.23534350598E+02 -0.98851868246E+01  0.34718363690E+02  0.43092312005E+02  0.00000000000E+00 0. -1.
<mgrwt>
<rscale>  4 0.52524109E+03</rscale>
<asrwt>0</asrwt>
<pdfrwt beam="1">  1       21 0.34722554E-01 0.52524109E+03</pdfrwt>
<pdfrwt beam="2">  1       21 0.57449270E-01 0.52524109E+03</pdfrwt>
<totfact> 0.20210866E+04</totfact>
</mgrwt>
</event>
<event>
 5    0  0.1828625E+000  0.4393957E+03  0.7546771E-02  0.1030932E+00
         21   -1    0    0  503  501  0.00000000000E+00  0.00000000000E+00  0.12115060041E+04  0.12115060041E+04  0.00000000000E+00 0. -1.
         21   -1    0    0  504  502 -0.00000000000E+00 -0.00000000000E+00 -0.23540974356E+03  0.23540974356E+03  0.00000000000E+00 0. -1.
         25    1    1    2    0    0  0.93357236508E+02  0.17979483224E+03  0.57352708755E+02  0.24485932392E+03  0.12500000000E+03 0.  0.
         21    1    1    2  503  502  0.72375396077E+01 -0.36500005161E+02  0.10058273143E+04  0.10065153842E+04  0.00000000000E+00 0. -1.
         21    1    1    2  504  501 -0.10059477612E+03 -0.14329482708E+03 -0.87083762541E+02  0.19554103955E+03  0.00000000000E+00 0. -1.
<mgrwt>
<rscale>  4 0.43939566E+03</rscale>
<asrwt>0</asrwt>
<pdfrwt beam="1">  1       21 0.18638553E+00 0.43939566E+03</pdfrwt>
<pdfrwt beam="2">  1       21 0.36216885E-01 0.43939566E+03</pdfrwt>
<totfact> 0.10201490E+03</totfact>
</mgrwt>
</event>
<event>
 5    0  0.1828625E+000  0.4550346E+03  0.7546771E-02  0.1026231E+00
         21   -1    0    0  502  501  0.00000000000E+00  0.00000000000E+00  0.12784943752E+03  0.12784943752E+03  0.00000000000E+00 0. -1.
         21   -1    0    0  503  502 -0.00000000000E+00 -0.00000000000E+00 -0.57107902105E+03  0.57107902105E+03  0.00000000000E+00 0. -1.
         25    1    1    2    0    0 -0.49742581369E+02 -0.20422570812E+03 -0.16232091516E+03  0.29352264607E+03  0.12500000000E+03 0.  0.
         21    1    1    2  503  504  0.53287817889E+02  0.17902662742E+03 -0.31297021360E+03  0.36447287891E+03  0.00000000000E+00 0. -1.
         21    1    1    2  504  501 -0.35452365205E+01  0.25199080696E+02  0.32061545227E+02  0.40932933589E+02  0.00000000000E+00 0. -1.
<mgrwt>
<rscale>  4 0.45503456E+03</rscale>
<asrwt>0</asrwt>
<pdfrwt beam="1">  1       21 0.19669144E-01 0.45503456E+03</pdfrwt>
<pdfrwt beam="2">  1       21 0.87858310E-01 0.45503456E+03</pdfrwt>
<totfact> 0.23927821E+04</totfact>
</mgrwt>
</event>
<event>
 5    0  0.5945716E+000  0.1344130E+04  0.7546771E-02  0.8995284E-01
         21   -1    0    0  503  501  0.00000000000E+00  0.00000000000E+00  0.15438639932E+04  0.15438639932E+04  0.00000000000E+00 0. -1.
         21   -1    0    0  504  502 -0.00000000000E+00 -0.00000000000E+00 -0.59389628033E+03  0.59389628033E+03  0.00000000000E+00 0.  1.
         25    1    1    2    0    0  0.22787550434E+03  0.60525125983E+02  0.71245510429E+03  0.76079419818E+03  0.12500000000E+03 0.  0.
         21    1    1    2  503  502 -0.23132480899E+03 -0.37761306356E+02 -0.54544357945E+03  0.59367144270E+03  0.00000000000E+00 0.  1.
         21    1    1    2  504  501  0.34493046477E+01 -0.22763819626E+02  0.78295618799E+03  0.78329463262E+03  0.00000000000E+00 0. -1.
<mgrwt>
<rscale>  4 0.13441296E+04</rscale>
<asrwt>0</asrwt>
<pdfrwt beam="1">  1       21 0.23751754E+00 0.13441296E+04</pdfrwt>
<pdfrwt beam="2">  1       21 0.91368659E-01 0.13441296E+04</pdfrwt>
<totfact> 0.46551747E+01</totfact>
</mgrwt>
</event>
<event>
 5    0  0.1828625E+000  0.6584867E+03  0.7546771E-02  0.9790984E-01
         21   -1    0    0  502  501  0.00000000000E+00  0.00000000000E+00  0.24948747016E+03  0.24948747016E+03  0.00000000000E+00 0. -1.
         21   -1    0    0  504  502 -0.00000000000E+00 -0.00000000000E+00 -0.87905887220E+03  0.87905887220E+03  0.00000000000E+00 0.  1.
         25    1    1    2    0    0  0.96480177967E+02  0.30365809141E+03 -0.59236084453E+03  0.68412939665E+03  0.12500000000E+03 0.  0.
         21    1    1    2  503  501 -0.11734003808E+03 -0.42669663684E+02  0.89426029786E+02  0.15357864284E+03  0.00000000000E+00 0. -1.
         21    1    1    2  504  503  0.20859860108E+02 -0.26098842773E+03 -0.12663658730E+03  0.29083830287E+03  0.00000000000E+00 0. -1.
<mgrwt>
<rscale>  4 0.65848668E+03</rscale>
<asrwt>0</asrwt>
<pdfrwt beam="1">  1       21 0.38382688E-01 0.65848668E+03</pdfrwt>
<pdfrwt beam="2">  1       21 0.13523983E+00 0.65848668E+03</pdfrwt>
<totfact> 0.20629463E+03</totfact>
</mgrwt>
</event>
<event>
 5    0  0.1828625E+000  0.4216470E+03  0.7546771E-02  0.1036532E+00
         21   -1    0    0  503  501  0.00000000000E+00  0.00000000000E+00  0.10733233616E+04  0.10733233616E+04  0.00000000000E+00 0.  1.
         21   -1    0    0  504  502 -0.00000000000E+00 -0.00000000000E+00 -0.13432093133E+03  0.13432093133E+03  0.00000000000E+00 0.  1.
         25    1    1    2    0    0 -0.20304952490E+03 -0.24569317933E+03  0.44371632330E+03  0.56044930502E+03  0.12500000000E+03 0.  0.
         21    1    1    2  503  502 -0.41968743370E+02  0.37720506895E+02  0.21002536433E+03  0.21747382767E+03  0.00000000000E+00 0. -1.
         21    1    1    2  504  501  0.24501826827E+03  0.20797267243E+03  0.28526074265E+03  0.42972116025E+03  0.00000000000E+00 0.  1.
<mgrwt>
<rscale>  4 0.42164702E+03</rscale>
<asrwt>0</asrwt>
<pdfrwt beam="1">  1       21 0.16512667E+00 0.42164702E+03</pdfrwt>
<pdfrwt beam="2">  1       21 0.20664759E-01 0.42164702E+03</pdfrwt>
<totfact> 0.43916006E+03</totfact>
</mgrwt>
</event>
<event>
 5    0  0.1828625E+000  0.1095441E+04  0.7546771E-02  0.9209646E-01
         21   -1    0    0  502  501  0.00000000000E+00  0.00000000000E+00  0.88447782411E+03  0.88447782411E+03  0.00000000000E+00 0. -1.
         21   -1    0    0  504  502 -0.00000000000E+00 -0.00000000000E+00 -0.81072960128E+03  0.81072960128E+03  0.00000000000E+00 0.  1.
         25    1    1    2    0    0 -0.29805045722E+03  0.36445862648E+03 -0.51874959966E+03  0.71161106836E+03  0.12500000000E+03 0.  0.
         21    1    1    2  503  501  0.49141634163E+02  0.24101025961E+02  0.51231905941E+03  0.51523448866E+03  0.00000000000E+00 0. -1.
         21    1    1    2  504  503  0.24890882306E+03 -0.38855965244E+03  0.80178763065E+02  0.46836186838E+03  0.00000000000E+00 0. -1.
<mgrwt>
<rscale>  4 0.10954414E+04</rscale>
<asrwt>0</asrwt>
<pdfrwt beam="1">  1       21 0.13607351E+00 0.10954414E+04</pdfrwt>
<pdfrwt beam="2">  1       21 0.12472763E+00 0.10954414E+04</pdfrwt>
<totfact> 0.12211094E+02</totfact>
</mgrwt>
</event>
<event>
 5    0  0.3577093E+000  0.3933734E+03  0.7546771E-02  0.1046099E+00
         21   -1    0    0  502  501  0.00000000000E+00  0.00000000000E+00  0.35540177207E+03  0.35540177207E+03  0.00000000000E+00 0.  1.
         21   -1    0    0  504  502 -0.00000000000E+00 -0.00000000000E+00 -0.73023018774E+03  0.73023018774E+03  0.00000000000E+00 0.  1.
         25    1    1    2    0    0  0.15461239409E+03  0.16746643898E+03 -0.65587474888E+03  0.70551164895E+03  0.12500000000E+03 0.  0.
         21    1    1    2  503  501 -0.13722502761E+03 -0.11875738520E+03  0.27294583094E+03  0.32777042480E+03  0.00000000000E+00 0.  1.
         21    1    1    2  504  503 -0.17387366481E+02 -0.48709053778E+02  0.81005022664E+01  0.52349886056E+02  0.00000000000E+00 0. -1.
<mgrwt>
<rscale>  4 0.39337340E+03</rscale>
<asrwt>0</asrwt>
<pdfrwt beam="1">  1       21 0.54677196E-01 0.39337340E+03</pdfrwt>
<pdfrwt beam="2">  1       21 0.11234310E+00 0.39337340E+03</pdfrwt>
<totfact> 0.17226893E+03</totfact>
</mgrwt>
</event>
<event>
 5    0  0.1828625E+000  0.4763104E+03  0.7546771E-02  0.1020154E+00
         21   -1    0    0  504  501  0.00000000000E+00  0.00000000000E+00  0.41586833578E+03  0.41586833578E+03  0.00000000000E+00 0. -1.
         21   -1    0    0  501  502 -0.00000000000E+00 -0.00000000000E+00 -0.33487466762E+03  0.33487466762E+03  0.00000000000E+00 0. -1.
         25    1    1    2    0    0 -0.56529126301E+02 -0.26668141753E+03 -0.58167630641E+02  0.30548812388E+03  0.12500000000E+03 0.  0.
         21    1    1    2  503  502  0.80485431335E+02  0.15195595797E+03 -0.85366612377E+02  0.19197910389E+03  0.00000000000E+00 0. -1.
         21    1    1    2  504  503 -0.23956305034E+02  0.11472545956E+03  0.22452791118E+03  0.25327577563E+03  0.00000000000E+00 0. -1.
<mgrwt>
<rscale>  4 0.47631036E+03</rscale>
<asrwt>0</asrwt>
<pdfrwt beam="1">  1       21 0.63979744E-01 0.47631036E+03</pdfrwt>
<pdfrwt beam="2">  1       21 0.51519180E-01 0.47631036E+03</pdfrwt>
<totfact> 0.71011883E+03</totfact>
</mgrwt>
</event>
<event>
 5    0  0.1828625E+000  0.5088053E+03  0.7546771E-02  0.1011506E+00
         21   -1    0    0  502  501  0.00000000000E+00  0.00000000000E+00  0.46852586739E+03  0.46852586739E+03  0.00000000000E+00 0.  1.
         21   -1    0    0  504  502 -0.00000000000E+00 -0.00000000000E+00 -0.17700395659E+03  0.17700395659E+03  0.00000000000E+00 0. -1.
         25    1    1    2    0    0  0.46017673622E+02 -0.22710933832E+03  0.38980439899E+01  0.26331819645E+03  0.12500000000E+03 0.  0.
         21    1    1    2  503  501  0.85111407430E+01  0.27749956431E+02  0.96264300075E+02  0.10054508972E+03  0.00000000000E+00 0.  1.
         21    1    1    2  504  503 -0.54528814365E+02  0.19935938188E+03  0.19135956673E+03  0.28166653781E+03  0.00000000000E+00 0.  1.
<mgrwt>
<rscale>  4 0.50880529E+03</rscale>
<asrwt>0</asrwt>
<pdfrwt beam="1">  1       21 0.72080902E-01 0.50880529E+03</pdfrwt>
<pdfrwt beam="2">  1       21 0.27231378E-01 0.50880529E+03</pdfrwt>
<totfact> 0.19897877E+04</totfact>
</mgrwt>
</event>
<event>
 5    0  0.1828625E+000  0.4834548E+03  0.7546771E-02  0.1018190E+00
         21   -1    0    0  502  501  0.00000000000E+00  0.00000000000E+00  0.14121518803E+03  0.14121518803E+03  0.00000000000E+00 0.  1.
         21   -1    0    0  504  502 -0.00000000000E+00 -0.00000000000E+00 -0.67810009488E+03  0.67810009488E+03  0.00000000000E+00 0.  1.
         25    1    1    2    0    0 -0.19832991818E+03  0.49361901927E+02 -0.15001449374E+03  0.28266712249E+03  0.12500000000E+03 0.  0.
         21    1    1    2  503  501 -0.94854749871E+00 -0.68674149013E+02  0.29418462347E+02  0.74716025134E+02  0.00000000000E+00 0.  1.
         21    1    1    2  504  503  0.19927846568E+03  0.19312247086E+02 -0.41628887547E+03  0.46193213529E+03  0.00000000000E+00 0.  1.
<mgrwt>
<rscale>  4 0.48345481E+03</rscale>
<asrwt>0</asrwt>
<pdfrwt beam="1">  1       21 0.21725414E-01 0.48345481E+03</pdfrwt>
<pdfrwt beam="2">  1       21 0.10432309E+00 0.48345481E+03</pdfrwt>
<totfact> 0.12988956E+04</totfact>
</mgrwt>
</event>
<event>
 5    0  0.1828625E+000  0.3658325E+03  0.7546771E-02  0.1056298E+00
         21   -1    0    0  503  501  0.00000000000E+00  0.00000000000E+00  0.71031962013E+03  0.71031962013E+03  0.00000000000E+00 0. -1.
         21   -1    0    0  504  502 -0.00000000000E+00 -0.00000000000E+00 -0.34285372665E+03  0.34285372665E+03  0.00000000000E+00 0.  1.
         25    1    1    2    0    0 -0.24041616246E+03 -0.41696102194E+02 -0.13506538010E+03  0.30562420227E+03  0.12500000000E+03 0.  0.
         21    1    1    2  503  502  0.16050557125E+03  0.67194860242E+02  0.59663352926E+03  0.62148914382E+03  0.00000000000E+00 0. -1.
         21    1    1    2  504  501  0.79910591213E+02 -0.25498758048E+02 -0.94102255678E+02  0.12606000069E+03  0.00000000000E+00 0. -1.
<mgrwt>
<rscale>  4 0.36583254E+03</rscale>
<asrwt>0</asrwt>
<pdfrwt beam="1">  1       21 0.10927994E+00 0.36583254E+03</pdfrwt>
<pdfrwt beam="2">  1       21 0.52746727E-01 0.36583254E+03</pdfrwt>
<totfact> 0.20178284E+03</totfact>
</mgrwt>
</event>
<event>
 5    0  0.1828625E+000  0.3850376E+03  0.7546771E-02  0.1049087E+00
         21   -1    0    0  502  501  0.00000000000E+00  0.00000000000E+00  0.18427797086E+03  0.18427797086E+03  0.00000000000E+00 0.  1.
         21   -1    0    0  503  502 -0.00000000000E+00 -0.00000000000E+00 -0.62819459601E+03  0.62819459601E+03  0.00000000000E+00 0. -1.
         25    1    1    2    0    0  0.22702804963E+03  0.27413659848E+02 -0.36044303379E+03  0.44478919127E+03  0.12500000000E+03 0.  0.
         21    1    1    2  503  504 -0.11627525093E+03 -0.44101084407E+02 -0.18070728612E+03  0.21936262873E+03  0.00000000000E+00 0. -1.
         21    1    1    2  504  501 -0.11075279870E+03  0.16687424559E+02  0.97233694758E+02  0.14832074688E+03  0.00000000000E+00 0.  1.
<mgrwt>
<rscale>  4 0.38503762E+03</rscale>
<asrwt>0</asrwt>
<pdfrwt beam="1">  1       21 0.28350457E-01 0.38503762E+03</pdfrwt>
<pdfrwt beam="2">  1       21 0.96645321E-01 0.38503762E+03</pdfrwt>
<totfact> 0.96132077E+03</totfact>
</mgrwt>
</event>
<event>
 5    0  0.1828625E+000  0.4237591E+03  0.7546771E-02  0.1035850E+00
         21   -1    0    0  503  501  0.00000000000E+00  0.00000000000E+00  0.11203986793E+04  0.11203986793E+04  0.00000000000E+00 0. -1.
         21   -1    0    0  504  502 -0.00000000000E+00 -0.00000000000E+00 -0.26681313244E+03  0.26681313244E+03  0.00000000000E+00 0. -1.
         25    1    1    2    0    0  0.19171692458E+03 -0.10249730674E+03 -0.90145798679E+02  0.26648141038E+03  0.12500000000E+03 0.  0.
         21    1    1    2  503  502 -0.58319337650E+02  0.18374282483E+00  0.95068360727E+03  0.95247073448E+03  0.00000000000E+00 0. -1.
         21    1    1    2  504  501 -0.13339758692E+03  0.10231356392E+03 -0.69522617321E+01  0.16825966689E+03  0.00000000000E+00 0. -1.
<mgrwt>
<rscale>  4 0.42375910E+03</rscale>
<asrwt>0</asrwt>
<pdfrwt beam="1">  1       21 0.17236903E+00 0.42375910E+03</pdfrwt>
<pdfrwt beam="2">  1       21 0.41048175E-01 0.42375910E+03</pdfrwt>
<totfact> 0.99844859E+02</totfact>
</mgrwt>
</event>
<event>
 5    0  0.1828625E+000  0.5434251E+03  0.7546771E-02  0.1003027E+00
         21   -1    0    0  503  501  0.00000000000E+00  0.00000000000E+00  0.46413610313E+03  0.46413610313E+03  0.00000000000E+00 0. -1.
         21   -1    0    0  504  502 -0.00000000000E+00 -0.00000000000E+00 -0.84343867452E+03  0.84343867452E+03  0.00000000000E+00 0.  1.
         25    1    1    2    0    0  0.27845576488E+03 -0.12116686979E+02 -0.18232728706E+03  0.35574241623E+03  0.12500000000E+03 0.  0.
         21    1    1    2  503  502 -0.19163758213E+03  0.49795479365E+01  0.34941149890E+03  0.39854504682E+03  0.00000000000E+00 0. -1.
         21    1    1    2  504  501 -0.86818182753E+02  0.71371390426E+01 -0.54638678323E+03  0.55328731461E+03  0.00000000000E+00 0.  1.
<mgrwt>
<rscale>  4 0.54342511E+03</rscale>
<asrwt>0</asrwt>
<pdfrwt beam="1">  1       21 0.71405555E-01 0.54342511E+03</pdfrwt>
<pdfrwt beam="2">  1       21 0.12975979E+00 0.54342511E+03</pdfrwt>
<totfact> 0.62318526E+02</totfact>
</mgrwt>
</event>
<event>
 5    0  0.1828625E+000  0.4293016E+03  0.7546771E-02  0.1034081E+00
         21   -1    0    0  503  501  0.00000000000E+00  0.00000000000E+00  0.81922070343E+03  0.81922070343E+03  0.00000000000E+00 0.  1.
         21   -1    0    0  504  502 -0.00000000000E+00 -0.00000000000E+00 -0.22875068176E+03  0.22875068176E+03  0.00000000000E+00 0.  1.
         25    1    1    2    0    0  0.39455520861E+02  0.28540578780E+03 -0.11813876721E+02  0.31428930863E+03  0.12500000000E+03 0.  0.
         21    1    1    2  503  502  0.11504670076E+02 -0.18293034664E+03  0.59089437146E+03  0.61866956235E+03  0.00000000000E+00 0.  1.
         21    1    1    2  504  501 -0.50960190936E+02 -0.10247544116E+03  0.11389526937E+02  0.11501251421E+03  0.00000000000E+00 0. -1.
<mgrwt>
<rscale>  4 0.42930161E+03</rscale>
<asrwt>0</asrwt>
<pdfrwt beam="1">  1       21 0.12603395E+00 0.42930161E+03</pdfrwt>
<pdfrwt beam="2">  1       21 0.35192413E-01 0.42930161E+03</pdfrwt>
<totfact> 0.31796997E+03</totfact>
</mgrwt>
</event>
<event>
 5    0  0.1828625E+000  0.7324409E+03  0.7546771E-02  0.9663308E-01
         21   -1    0    0  502  501  0.00000000000E+00  0.00000000000E+00  0.29509623758E+04  0.29509623758E+04  0.00000000000E+00 0. -1.
         21   -1    0    0  504  502 -0.00000000000E+00 -0.00000000000E+00 -0.10587422949E+03  0.10587422949E+03  0.00000000000E+00 0. -1.
         25    1    1    2    0    0  0.31022536683E+03 -0.19698447888E+03  0.72826228056E+03  0.82524760674E+03  0.12500000000E+03 0.  0.
         21    1    1    2  503  501 -0.52121161151E+01  0.56253929201E+02  0.16780119216E+04  0.16789626797E+04  0.00000000000E+00 0. -1.
         21    1    1    2  504  503 -0.30501325072E+03  0.14073054968E+03  0.43881394411E+03  0.55262631884E+03  0.00000000000E+00 0. -1.
<mgrwt>
<rscale>  4 0.73244088E+03</rscale>
<asrwt>0</asrwt>
<pdfrwt beam="1">  1       21 0.45399415E+00 0.73244088E+03</pdfrwt>
<pdfrwt beam="2">  1       21 0.16288345E-01 0.73244088E+03</pdfrwt>
<totfact> 0.84968481E+01</totfact>
</mgrwt>
</event>
<event>
 5    0  0.1828625E+000  0.6322107E+03  0.7546771E-02  0.9840744E-01
         21   -1    0    0  502  501  0.00000000000E+00  0.00000000000E+00  0.33147586479E+03  0.33147586479E+03  0.00000000000E+00 0. -1.
         21   -1    0    0  504  502 -0.00000000000E+00 -0.00000000000E+00 -0.12329928942E+04  0.12329928942E+04  0.00000000000E+00 0. -1.
         25    1    1    2    0    0 -0.16503789077E+03  0.17482956427E+03 -0.22603558978E+03  0.35287387234E+03  0.12500000000E+03 0.  0.
         21    1    1    2  503  501 -0.27683795162E+02 -0.30672572609E+01  0.24960961801E+03  0.25115883815E+03  0.00000000000E+00 0. -1.
         21    1    1    2  504  503  0.19272168593E+03 -0.17176230701E+03 -0.92509105765E+03  0.96043604851E+03  0.00000000000E+00 0. -1.
<mgrwt>
<rscale>  4 0.63221072E+03</rscale>
<asrwt>0</asrwt>
<pdfrwt beam="1">  1       21 0.50996286E-01 0.63221072E+03</pdfrwt>
<pdfrwt beam="2">  1       21 0.18969122E+00 0.63221072E+03</pdfrwt>
<totfact> 0.43894774E+02</totfact>
</mgrwt>
</event>
<event>
 5    0  0.1828625E+000  0.6077169E+03  0.7546771E-02  0.9889524E-01
         21   -1    0    0  502  501  0.00000000000E+00  0.00000000000E+00  0.40788064177E+03  0.40788064177E+03  0.00000000000E+00 0.  1.
         21   -1    0    0  503  502 -0.00000000000E+00 -0.00000000000E+00 -0.24596218699E+03  0.24596218699E+03  0.00000000000E+00 0. -1.
         25    1    1    2    0    0  0.17332701667E+03  0.14125067932E+03  0.27641286196E+03  0.37685949553E+03  0.12500000000E+03 0.  0.
         21    1    1    2  503  504 -0.16436961679E+03 -0.12286917466E+03 -0.13686911169E+03  0.24667257395E+03  0.00000000000E+00 0. -1.
         21    1    1    2  504  501 -0.89573998791E+01 -0.18381504666E+02  0.22374704506E+02  0.30310759279E+02  0.00000000000E+00 0.  1.
<mgrwt>
<rscale>  4 0.60771686E+03</rscale>
<asrwt>0</asrwt>
<pdfrwt beam="1">  1       21 0.62750868E-01 0.60771686E+03</pdfrwt>
<pdfrwt beam="2">  1       21 0.37840337E-01 0.60771686E+03</pdfrwt>
<totfact> 0.13717306E+04</totfact>
</mgrwt>
</event>
<event>
 5    0  0.1828625E+000  0.4777828E+03  0.7546771E-02  0.1019746E+00
         21   -1    0    0  504  501  0.00000000000E+00  0.00000000000E+00  0.21755749421E+04  0.21755749421E+04  0.00000000000E+00 0.  1.
         21   -1    0    0  501  502 -0.00000000000E+00 -0.00000000000E+00 -0.12391850288E+03  0.12391850288E+03  0.00000000000E+00 0.  1.
         25    1    1    2    0    0  0.11304151972E+03  0.21874920517E+03  0.27623283780E+03  0.39058824946E+03  0.12500000000E+03 0.  0.
         21    1    1    2  503  502 -0.13614530124E+03 -0.12660435345E+03  0.66661261380E+02  0.19750425091E+03  0.00000000000E+00 0.  1.
         21    1    1    2  504  503  0.23103781521E+02 -0.92144851720E+02  0.17087623401E+04  0.17114009446E+04  0.00000000000E+00 0.  1.
<mgrwt>
<rscale>  4 0.47778282E+03</rscale>
<asrwt>0</asrwt>
<pdfrwt beam="1">  1       21 0.33470381E+00 0.47778282E+03</pdfrwt>
<pdfrwt beam="2">  1       21 0.19064387E-01 0.47778282E+03</pdfrwt>
<totfact> 0.41966680E+02</totfact>
</mgrwt>
</event>
<event>
 5    0  0.1828625E+000  0.6152785E+03  0.7546771E-02  0.9874205E-01
         21   -1    0    0  504  501  0.00000000000E+00  0.00000000000E+00  0.57995701955E+03  0.57995701955E+03  0.00000000000E+00 0. -1.
         21   -1    0    0  501  502 -0.00000000000E+00 -0.00000000000E+00 -0.10711919581E+04  0.10711919581E+04  0.00000000000E+00 0.  1.
         25    1    1    2    0    0  0.16157673481E+03  0.18095021455E+03 -0.22000723253E+03  0.35053987469E+03  0.12500000000E+03 0.  0.
         21    1    1    2  503  502 -0.17511252295E+03 -0.20487435137E+03 -0.76241677932E+03  0.80865149536E+03  0.00000000000E+00 0.  1.
         21    1    1    2  504  503  0.13535788140E+02  0.23924136819E+02  0.49118907333E+03  0.49195760757E+03  0.00000000000E+00 0. -1.
<mgrwt>
<rscale>  4 0.61527855E+03</rscale>
<asrwt>0</asrwt>
<pdfrwt beam="1">  1       21 0.89224158E-01 0.61527855E+03</pdfrwt>
<pdfrwt beam="2">  1       21 0.16479876E+00 0.61527855E+03</pdfrwt>
<totfact> 0.18874612E+02</totfact>
</mgrwt>
</event>
<event>
 5    0  0.1828625E+000  0.4139517E+03  0.7546771E-02  0.1039053E+00
         21   -1    0    0  502  501  0.00000000000E+00  0.00000000000E+00  0.16601769043E+03  0.16601769043E+03  0.00000000000E+00 0. -1.
         21   -1    0    0  503  502 -0.00000000000E+00 -0.00000000000E+00 -0.58834697709E+03  0.58834697709E+03  0.00000000000E+00 0. -1.
         25    1    1    2    0    0 -0.22665251191E+03 -0.10330571746E+02 -0.42308332464E+03  0.49608727201E+03  0.12500000000E+03 0.  0.
         21    1    1    2  503  504  0.11854292270E+03 -0.30962963274E+02 -0.49458720778E+02  0.13212605602E+03  0.00000000000E+00 0.  1.
         21    1    1    2  504  501  0.10810958921E+03  0.41293535020E+02  0.50212758751E+02  0.12615133949E+03  0.00000000000E+00 0. -1.
<mgrwt>
<rscale>  4 0.41395169E+03</rscale>
<asrwt>0</asrwt>
<pdfrwt beam="1">  1       21 0.25541183E-01 0.41395169E+03</pdfrwt>
<pdfrwt beam="2">  1       21 0.90514919E-01 0.41395169E+03</pdfrwt>
<totfact> 0.13649922E+04</totfact>
</mgrwt>
</event>
<event>
 5    0  0.1828625E+000  0.4284417E+03  0.7546771E-02  0.1034353E+00
         21   -1    0    0  502  501  0.00000000000E+00  0.00000000000E+00  0.26684013115E+03  0.26684013115E+03  0.00000000000E+00 0. -1.
         21   -1    0    0  504  502 -0.00000000000E+00 -0.00000000000E+00 -0.31988434430E+03  0.31988434430E+03  0.00000000000E+00 0. -1.
         25    1    1    2    0    0 -0.16242194636E+03  0.12939802079E+03 -0.92697912478E+02  0.25950460385E+03  0.12500000000E+03 0.  0.
         21    1    1    2  503  501  0.20525456140E+02 -0.93019737100E+01  0.12188269190E+03  0.12394842334E+03  0.00000000000E+00 0. -1.
         21    1    1    2  504  503  0.14189649021E+03 -0.12009604708E+03 -0.82228992564E+02  0.20327144826E+03  0.00000000000E+00 0. -1.
<mgrwt>
<rscale>  4 0.42844166E+03</rscale>
<asrwt>0</asrwt>
<pdfrwt beam="1">  1       21 0.41052328E-01 0.42844166E+03</pdfrwt>
<pdfrwt beam="2">  1       21 0.49212976E-01 0.42844166E+03</pdfrwt>
<totfact> 0.20490541E+04</totfact>
</mgrwt>
</event>
<event>
 5    0  0.1828625E+000  0.4959162E+03  0.7546771E-02  0.1014850E+00
         21   -1    0    0  502  501  0.00000000000E+00  0.00000000000E+00  0.48663354078E+03  0.48663354078E+03  0.00000000000E+00 0.  1.
         21   -1    0    0  503  502 -0.00000000000E+00 -0.00000000000E+00 -0.35815836805E+03  0.35815836805E+03  0.00000000000E+00 0.  1.
         25    1    1    2    0    0  0.20114493631E+02  0.21344418719E+03 -0.47434704421E+02  0.25266195813E+03  0.12500000000E+03 0.  0.
         21    1    1    2  503  504 -0.10540185697E+03 -0.21693370327E+03 -0.13037941582E+03  0.27416888068E+03  0.00000000000E+00 0.  1.
         21    1    1    2  504  501  0.85287363335E+02  0.34895160748E+01  0.30628929296E+03  0.31796107003E+03  0.00000000000E+00 0.  1.
<mgrwt>
<rscale>  4 0.49591619E+03</rscale>
<asrwt>0</asrwt>
<pdfrwt beam="1">  1       21 0.74866699E-01 0.49591619E+03</pdfrwt>
<pdfrwt beam="2">  1       21 0.55101287E-01 0.49591619E+03</pdfrwt>
<totfact> 0.42884594E+03</totfact>
</mgrwt>
</event>
<event>
 5    0  0.1828625E+000  0.6127297E+03  0.7546771E-02  0.9879342E-01
         21   -1    0    0  502  501  0.00000000000E+00  0.00000000000E+00  0.21148145893E+04  0.21148145893E+04  0.00000000000E+00 0.  1.
         21   -1    0    0  503  502 -0.00000000000E+00 -0.00000000000E+00 -0.54007510240E+02  0.54007510240E+02  0.00000000000E+00 0. -1.
         25    1    1    2    0    0 -0.16097094655E+03  0.16207685505E+03  0.15969388828E+04  0.16180294645E+04  0.12500000000E+03 0.  0.
         21    1    1    2  503  504  0.10296106118E+03 -0.16649287436E+03  0.19724677746E+03  0.27789773038E+03  0.00000000000E+00 0. -1.
         21    1    1    2  504  501  0.58009885365E+02  0.44160193094E+01  0.26662141873E+03  0.27289490459E+03  0.00000000000E+00 0.  1.
<mgrwt>
<rscale>  4 0.61272975E+03</rscale>
<asrwt>0</asrwt>
<pdfrwt beam="1">  1       21 0.32535603E+00 0.61272975E+03</pdfrwt>
<pdfrwt beam="2">  1       21 0.83088494E-02 0.61272975E+03</pdfrwt>
<totfact> 0.20704055E+03</totfact>
</mgrwt>
</event>
<event>
 5    0  0.1828625E+000  0.6082072E+03  0.7546771E-02  0.9888523E-01
         21   -1    0    0  502  501  0.00000000000E+00  0.00000000000E+00  0.24552648236E+03  0.24552648236E+03  0.00000000000E+00 0.  1.
         21   -1    0    0  504  502 -0.00000000000E+00 -0.00000000000E+00 -0.51044797768E+03  0.51044797768E+03  0.00000000000E+00 0.  1.
         25    1    1    2    0    0  0.23118826076E+03  0.15583182069E+03 -0.28006836928E+02  0.30682397424E+03  0.12500000000E+03 0.  0.
         21    1    1    2  503  501 -0.80451967129E+01 -0.51006008721E+02  0.49301197012E+02  0.71392899805E+02  0.00000000000E+00 0.  1.
         21    1    1    2  504  503 -0.22314306405E+03 -0.10482581197E+03 -0.28621585540E+03  0.37775758599E+03  0.00000000000E+00 0.  1.
<mgrwt>
<rscale>  4 0.60820721E+03</rscale>
<asrwt>0</asrwt>
<pdfrwt beam="1">  1       21 0.37773305E-01 0.60820721E+03</pdfrwt>
<pdfrwt beam="2">  1       21 0.78530457E-01 0.60820721E+03</pdfrwt>
<totfact> 0.82744317E+03</totfact>
</mgrwt>
</event>
