<event>
 5    0  0.1911311E+001  0.2794082E+03  0.7546771E-02  0.1096013E+00
         21   -1    0    0  502  501  0.00000000000E+00  0.00000000000E+00  0.42254061135E+03  0.42254061135E+03  0.00000000000E+00 0. -1.
         21   -1    0    0  504  502 -0.00000000000E+00 -0.00000000000E+00 -0.13433287469E+04  0.13433287469E+04  0.00000000000E+00 0. -1.
         25    1    1    2    0    0  0.53947380896E+01 -0.25448946722E+03 -0.10833707536E+04  0.11198710559E+04  0.12500000000E+03 0.  0.
         21    1    1    2  503  501 -0.26473001149E+02  0.24834861800E+03  0.36506796875E+03  0.44232621182E+03  0.00000000000E+00 0. -1.
         21    1    1    2  504  503  0.21078263060E+02  0.61408492236E+01 -0.20248535076E+03  0.20367209057E+03  0.00000000000E+00 0. -1.
<mgrwt>
<rscale>  4 0.27940818E+03</rscale>
<asrwt>0</asrwt>
<pdfrwt beam="1">  1       21 0.65006248E-01 0.27940818E+03</pdfrwt>
<pdfrwt beam="2">  1       21 0.20666596E+00 0.27940818E+03</pdfrwt>
<totfact> 0.24120720E+02</totfact>
</mgrwt>
</event>
<event>
 5    0  0.1911311E+001  0.4722325E+03  0.7546771E-02  0.1021292E+00
         21   -1    0    0  504  501  0.00000000000E+00  0.00000000000E+00  0.65326312734E+03  0.65326312734E+03  0.00000000000E+00 0.  1.
         21   -1    0    0  501  502 -0.00000000000E+00 -0.00000000000E+00 -0.36602676576E+03  0.36602676576E+03  0.00000000000E+00 0.  1.
         25    1    1    2    0    0 -0.32135567318E+03  0.30365999738E+03  0.17439301388E+03  0.49144357355E+03  0.12500000000E+03 0.  0.
         21    1    1    2  503  502  0.34349381334E+03 -0.32095013200E+03  0.13820873440E+03  0.48999861357E+03  0.00000000000E+00 0.  1.
         21    1    1    2  504  503 -0.22138140164E+02  0.17290134622E+02 -0.25365386700E+02  0.37847705975E+02  0.00000000000E+00 0.  1.
<mgrwt>
<rscale>  4 0.47223246E+03</rscale>
<asrwt>0</asrwt>
<pdfrwt beam="1">  1       21 0.10050202E+00 0.47223246E+03</pdfrwt>
<pdfrwt beam="2">  1       21 0.56311810E-01 0.47223246E+03</pdfrwt>
<totfact> 0.20606937E+03</totfact>
</mgrwt>
</event>
<event>
 5    0  0.1911311E+001  0.4578759E+03  0.7546771E-02  0.1025399E+00
         21   -1    0    0  504  501  0.00000000000E+00  0.00000000000E+00  0.33794430327E+04  0.33794430327E+04  0.00000000000E+00 0.  1.
         21   -1    0    0  503  502 -0.00000000000E+00 -0.00000000000E+00 -0.64018837159E+02  0.64018837159E+02  0.00000000000E+00 0.  1.
         25    1    1    2    0    0 -0.39999015832E+03 -0.18448088302E+03  0.12634383619E+04  0.13438477656E+04  0.12500000000E+03 0.  0.
         21    1    1    2  503  501  0.37628197867E+03  0.18281426330E+03  0.18792264562E+04  0.19252275855E+04  0.00000000000E+00 0.  1.
         21    1    1    2  504  502  0.23708179651E+02  0.16666197198E+01  0.17275937748E+03  0.17438651872E+03  0.00000000000E+00 0.  1.
<mgrwt>
<rscale>  4 0.45787588E+03</rscale>
<asrwt>0</asrwt>
<pdfrwt beam="1">  1       21 0.51991417E+00 0.45787588E+03</pdfrwt>
<pdfrwt beam="2">  1       21 0.98490545E-02 0.45787588E+03</pdfrwt>
<totfact> 0.84876450E+01</totfact>
</mgrwt>
</event>
