<event>
 5    0  0.2159162E+000  0.2918741E+03  0.7546771E-02  0.1089375E+00
         21   -1    0    0  502  501  0.00000000000E+00  0.00000000000E+00  0.85490094784E+03  0.85490094784E+03  0.00000000000E+00 0. -1.
         21   -1    0    0  503  502 -0.00000000000E+00 -0.00000000000E+00 -0.14624657093E+03  0.14624657093E+03  0.00000000000E+00 0.  1.
         25    1    1    2    0    0  0.26163947201E+03 -0.33320431045E+02  0.66401558870E+03  0.72533245238E+03  0.12500000000E+03 0.  0.
         21    1    1    2  503  504 -0.12761646837E+03 -0.38990154001E+01  0.48731139490E+02  0.13665975734E+03  0.00000000000E+00 0.  1.
         21    1    1    2  504  501 -0.13402300364E+03  0.37219446445E+02 -0.40923512811E+01  0.13915530905E+03  0.00000000000E+00 0.  1.
<mgrwt>
<rscale>  4 0.29187406E+03</rscale>
<asrwt>0</asrwt>
<pdfrwt beam="1">  1       21 0.13152322E+00 0.29187406E+03</pdfrwt>
<pdfrwt beam="2">  1       21 0.22499473E-01 0.29187406E+03</pdfrwt>
<totfact> 0.72886746E+03</totfact>
</mgrwt>
</event>
<event>
 5    0  0.2348973E+000  0.2590065E+03  0.7546771E-02  0.1107742E+00
         21   -1    0    0  502  501  0.00000000000E+00  0.00000000000E+00  0.18440129957E+03  0.18440129957E+03  0.00000000000E+00 0. -1.
         21   -1    0    0  503  502 -0.00000000000E+00 -0.00000000000E+00 -0.42018943015E+03  0.42018943015E+03  0.00000000000E+00 0. -1.
         25    1    1    2    0    0  0.19193984573E+03 -0.90975509960E+02 -0.21070842669E+03  0.32425374149E+03  0.12500000000E+03 0.  0.
         21    1    1    2  503  504 -0.20107025638E+03  0.11783906630E+03  0.12332968196E+02  0.23338250931E+03  0.00000000000E+00 0. -1.
         21    1    1    2  504  501  0.91304106553E+01 -0.26863556343E+02 -0.37412672090E+02  0.46954478925E+02  0.00000000000E+00 0.  1.
<mgrwt>
<rscale>  4 0.25900654E+03</rscale>
<asrwt>0</asrwt>
<pdfrwt beam="1">  1       21 0.28369431E-01 0.25900654E+03</pdfrwt>
<pdfrwt beam="2">  1       21 0.64644528E-01 0.25900654E+03</pdfrwt>
<totfact> 0.25324547E+04</totfact>
</mgrwt>
</event>
<event>
 5    0  0.2159162E+000  0.2457588E+03  0.7546771E-02  0.1116015E+00
         21   -1    0    0  502  501  0.00000000000E+00  0.00000000000E+00  0.53081296163E+02  0.53081296163E+02  0.00000000000E+00 0. -1.
         21   -1    0    0  503  502 -0.00000000000E+00 -0.00000000000E+00 -0.19990981304E+04  0.19990981304E+04  0.00000000000E+00 0. -1.
         25    1    1    2    0    0 -0.21469541296E+03 -0.19985439282E+02 -0.33406394962E+03  0.41679402655E+03  0.12500000000E+03 0.  0.
         21    1    1    2  503  504  0.25395072951E+02 -0.63859869976E+02 -0.41988174687E+03  0.42546876980E+03  0.00000000000E+00 0. -1.
         21    1    1    2  504  501  0.18930034001E+03  0.83845309259E+02 -0.11920711378E+04  0.12099166302E+04  0.00000000000E+00 0. -1.
<mgrwt>
<rscale>  4 0.24575881E+03</rscale>
<asrwt>0</asrwt>
<pdfrwt beam="1">  1       21 0.81663517E-02 0.24575881E+03</pdfrwt>
<pdfrwt beam="2">  1       21 0.30755362E+00 0.24575881E+03</pdfrwt>
<totfact> 0.33746504E+03</totfact>
</mgrwt>
</event>
<event>
 5    0  0.3403596E+000  0.2458768E+03  0.7546771E-02  0.1115939E+00
         21   -1    0    0  502  501  0.00000000000E+00  0.00000000000E+00  0.19711591796E+03  0.19711591796E+03  0.00000000000E+00 0.  1.
         21   -1    0    0  503  502 -0.00000000000E+00 -0.00000000000E+00 -0.26903290430E+03  0.26903290430E+03  0.00000000000E+00 0.  1.
         25    1    1    2    0    0  0.56473567635E+00 -0.21173113353E+03 -0.55054010664E+02  0.25196494979E+03  0.12500000000E+03 0.  0.
         21    1    1    2  503  504  0.80253907077E+01  0.19389956048E+02 -0.14675031083E+01  0.21036417398E+02  0.00000000000E+00 0.  1.
         21    1    1    2  504  501 -0.85901263840E+01  0.19234117748E+03 -0.15395472566E+02  0.19314745507E+03  0.00000000000E+00 0.  1.
<mgrwt>
<rscale>  4 0.24587678E+03</rscale>
<asrwt>0</asrwt>
<pdfrwt beam="1">  1       21 0.30325526E-01 0.24587678E+03</pdfrwt>
<pdfrwt beam="2">  1       21 0.41389677E-01 0.24587678E+03</pdfrwt>
<totfact> 0.57315535E+04</totfact>
</mgrwt>
</event>
<event>
 5    0  0.2159162E+000  0.2778815E+03  0.7546771E-02  0.1096852E+00
         21   -1    0    0  502  501  0.00000000000E+00  0.00000000000E+00  0.61117325326E+03  0.61117325326E+03  0.00000000000E+00 0. -1.
         21   -1    0    0  503  502 -0.00000000000E+00 -0.00000000000E+00 -0.96497694450E+03  0.96497694450E+03  0.00000000000E+00 0. -1.
         25    1    1    2    0    0 -0.25391726556E+03 -0.15374404153E+02  0.55299638112E+03  0.62140192113E+03  0.12500000000E+03 0.  0.
         21    1    1    2  503  504  0.12731694010E+03 -0.46540716363E+02 -0.26501419779E+03  0.29767123903E+03  0.00000000000E+00 0. -1.
         21    1    1    2  504  501  0.12660032546E+03  0.61915120516E+02 -0.64178587457E+03  0.65707703761E+03  0.00000000000E+00 0. -1.
<mgrwt>
<rscale>  4 0.27788155E+03</rscale>
<asrwt>0</asrwt>
<pdfrwt beam="1">  1       21 0.94026654E-01 0.27788155E+03</pdfrwt>
<pdfrwt beam="2">  1       21 0.14845799E+00 0.27788155E+03</pdfrwt>
<totfact> 0.26703683E+02</totfact>
</mgrwt>
</event>
<event>
 5    0  0.2159162E+000  0.2742733E+03  0.7546771E-02  0.1098858E+00
         21   -1    0    0  502  501  0.00000000000E+00  0.00000000000E+00  0.65933508374E+03  0.65933508374E+03  0.00000000000E+00 0. -1.
         21   -1    0    0  503  502 -0.00000000000E+00 -0.00000000000E+00 -0.10430448675E+03  0.10430448675E+03  0.00000000000E+00 0. -1.
         25    1    1    2    0    0  0.88790662246E+01 -0.24397131847E+03  0.29883801294E+03  0.40562297769E+03  0.12500000000E+03 0.  0.
         21    1    1    2  503  504 -0.28855118275E+02  0.10431326466E+03  0.97386554670E+02  0.14559538477E+03  0.00000000000E+00 0. -1.
         21    1    1    2  504  501  0.19976052051E+02  0.13965805381E+03  0.15880602938E+03  0.21242120802E+03  0.00000000000E+00 0. -1.
<mgrwt>
<rscale>  4 0.27427330E+03</rscale>
<asrwt>0</asrwt>
<pdfrwt beam="1">  1       21 0.10143616E+00 0.27427330E+03</pdfrwt>
<pdfrwt beam="2">  1       21 0.16046845E-01 0.27427330E+03</pdfrwt>
<totfact> 0.26400727E+04</totfact>
</mgrwt>
</event>
<event>
 5    0  0.2159162E+000  0.2978170E+03  0.7546771E-02  0.1086337E+00
         21   -1    0    0  502  501  0.00000000000E+00  0.00000000000E+00  0.39402641414E+03  0.39402641414E+03  0.00000000000E+00 0.  1.
         21   -1    0    0  503  502 -0.00000000000E+00 -0.00000000000E+00 -0.26459732765E+03  0.26459732765E+03  0.00000000000E+00 0.  1.
         25    1    1    2    0    0  0.22289886306E+03  0.15292507336E+03 -0.72176523855E+02  0.30643830017E+03  0.12500000000E+03 0.  0.
         21    1    1    2  503  504 -0.47531289375E+02 -0.87490816309E+02  0.90281192624E+02  0.13440446477E+03  0.00000000000E+00 0.  1.
         21    1    1    2  504  501 -0.17536757368E+03 -0.65434257051E+02  0.11132441773E+03  0.21778097685E+03  0.00000000000E+00 0.  1.
<mgrwt>
<rscale>  4 0.29781703E+03</rscale>
<asrwt>0</asrwt>
<pdfrwt beam="1">  1       21 0.60619449E-01 0.29781703E+03</pdfrwt>
<pdfrwt beam="2">  1       21 0.40707281E-01 0.29781703E+03</pdfrwt>
<totfact> 0.13934448E+04</totfact>
</mgrwt>
</event>
<event>
 5    0  0.2159162E+000  0.2359587E+03  0.7546771E-02  0.1122515E+00
         21   -1    0    0  502  501  0.00000000000E+00  0.00000000000E+00  0.40570013392E+02  0.40570013392E+02  0.00000000000E+00 0.  1.
         21   -1    0    0  503  502 -0.00000000000E+00 -0.00000000000E+00 -0.22900621560E+04  0.22900621560E+04  0.00000000000E+00 0.  1.
         25    1    1    2    0    0 -0.52766068714E+01  0.20005912259E+03 -0.36231849778E+03  0.43237852507E+03  0.12500000000E+03 0.  0.
         21    1    1    2  503  504 -0.94008660012E+01 -0.10386978040E+03 -0.11423706639E+04  0.11471216332E+04  0.00000000000E+00 0.  1.
         21    1    1    2  504  501  0.14677472873E+02 -0.96189342187E+02 -0.74480298092E+03  0.75113201113E+03  0.00000000000E+00 0.  1.
<mgrwt>
<rscale>  4 0.23595867E+03</rscale>
<asrwt>0</asrwt>
<pdfrwt beam="1">  1       21 0.62415387E-02 0.23595867E+03</pdfrwt>
<pdfrwt beam="2">  1       21 0.35231736E+00 0.23595867E+03</pdfrwt>
<totfact> 0.29619738E+03</totfact>
</mgrwt>
</event>
<event>
 5    0  0.2159162E+000  0.2714813E+03  0.7546771E-02  0.1100435E+00
         21   -1    0    0  502  501  0.00000000000E+00  0.00000000000E+00  0.37304177641E+03  0.37304177641E+03  0.00000000000E+00 0. -1.
         21   -1    0    0  503  502 -0.00000000000E+00 -0.00000000000E+00 -0.33936158518E+03  0.33936158518E+03  0.00000000000E+00 0. -1.
         25    1    1    2    0    0 -0.10455610708E+03 -0.21712931672E+03  0.25903179042E+03  0.37523271200E+03  0.12500000000E+03 0.  0.
         21    1    1    2  503  504  0.87947815615E+02  0.12237924507E+03 -0.10786896546E+03  0.18533000729E+03  0.00000000000E+00 0. -1.
         21    1    1    2  504  501  0.16608291470E+02  0.94750071655E+02 -0.11748263373E+03  0.15184064230E+03  0.00000000000E+00 0.  1.
<mgrwt>
<rscale>  4 0.27148134E+03</rscale>
<asrwt>0</asrwt>
<pdfrwt beam="1">  1       21 0.57391043E-01 0.27148134E+03</pdfrwt>
<pdfrwt beam="2">  1       21 0.52209474E-01 0.27148134E+03</pdfrwt>
<totfact> 0.94607342E+03</totfact>
</mgrwt>
</event>
<event>
 5    0  0.2264965E+000  0.2646270E+03  0.7546771E-02  0.1104395E+00
         21   -1    0    0  502  501  0.00000000000E+00  0.00000000000E+00  0.20610139132E+03  0.20610139132E+03  0.00000000000E+00 0. -1.
         21   -1    0    0  503  502 -0.00000000000E+00 -0.00000000000E+00 -0.43099011170E+03  0.43099011170E+03  0.00000000000E+00 0. -1.
         25    1    1    2    0    0  0.35359797052E+02 -0.23054747316E+03  0.53951644560E+02  0.27007079179E+03  0.12500000000E+03 0.  0.
         21    1    1    2  503  504 -0.10355539212E+02  0.61361573660E+02 -0.42768420267E+02  0.75509056984E+02  0.00000000000E+00 0. -1.
         21    1    1    2  504  501 -0.25004257840E+02  0.16918589950E+03 -0.23607194467E+03  0.29151165424E+03  0.00000000000E+00 0. -1.
<mgrwt>
<rscale>  4 0.26462701E+03</rscale>
<asrwt>0</asrwt>
<pdfrwt beam="1">  1       21 0.31707907E-01 0.26462701E+03</pdfrwt>
<pdfrwt beam="2">  1       21 0.66306170E-01 0.26462701E+03</pdfrwt>
<totfact> 0.19202932E+04</totfact>
</mgrwt>
</event>
<event>
 5    0  0.2159162E+000  0.2509639E+03  0.7546771E-02  0.1112697E+00
         21   -1    0    0  502  501  0.00000000000E+00  0.00000000000E+00  0.53501893777E+02  0.53501893777E+02  0.00000000000E+00 0. -1.
         21   -1    0    0  503  502 -0.00000000000E+00 -0.00000000000E+00 -0.11234867202E+04  0.11234867202E+04  0.00000000000E+00 0. -1.
         25    1    1    2    0    0 -0.21606046953E+03 -0.25995031099E+02 -0.62366660247E+03  0.67226698504E+03  0.12500000000E+03 0.  0.
         21    1    1    2  503  504  0.94378801247E+02 -0.37002818855E+01 -0.10542807795E+03  0.14154903685E+03  0.00000000000E+00 0. -1.
         21    1    1    2  504  501  0.12168166828E+03  0.29695312985E+02 -0.34089014602E+03  0.36317259212E+03  0.00000000000E+00 0. -1.
<mgrwt>
<rscale>  4 0.25096388E+03</rscale>
<asrwt>0</asrwt>
<pdfrwt beam="1">  1       21 0.82310605E-02 0.25096388E+03</pdfrwt>
<pdfrwt beam="2">  1       21 0.17284411E+00 0.25096388E+03</pdfrwt>
<totfact> 0.22437585E+04</totfact>
</mgrwt>
</event>
<event>
 5    0  0.2159162E+000  0.2672393E+03  0.7546771E-02  0.1102870E+00
         21   -1    0    0  502  501  0.00000000000E+00  0.00000000000E+00  0.34187221292E+03  0.34187221292E+03  0.00000000000E+00 0.  1.
         21   -1    0    0  503  502 -0.00000000000E+00 -0.00000000000E+00 -0.20398202375E+03  0.20398202375E+03  0.00000000000E+00 0.  1.
         25    1    1    2    0    0  0.22887560548E+03 -0.58376584228E+02  0.14596469457E+03  0.30450379379E+03  0.12500000000E+03 0.  0.
         21    1    1    2  503  504 -0.85610372302E+02  0.38365091636E+02 -0.20943380451E+02  0.96123052837E+02  0.00000000000E+00 0. -1.
         21    1    1    2  504  501 -0.14326523318E+03  0.20011492592E+02  0.12868875052E+02  0.14522739005E+03  0.00000000000E+00 0.  1.
<mgrwt>
<rscale>  4 0.26723935E+03</rscale>
<asrwt>0</asrwt>
<pdfrwt beam="1">  1       21 0.52595725E-01 0.26723935E+03</pdfrwt>
<pdfrwt beam="2">  1       21 0.31381850E-01 0.26723935E+03</pdfrwt>
<totfact> 0.32281275E+04</totfact>
</mgrwt>
</event>
<event>
 5    0  0.2159162E+000  0.2725599E+03  0.7546771E-02  0.1099823E+00
         21   -1    0    0  502  501  0.00000000000E+00  0.00000000000E+00  0.15311322096E+03  0.15311322096E+03  0.00000000000E+00 0. -1.
         21   -1    0    0  503  502 -0.00000000000E+00 -0.00000000000E+00 -0.19503286552E+04  0.19503286552E+04  0.00000000000E+00 0. -1.
         25    1    1    2    0    0 -0.13515905739E+03 -0.25489419607E+03 -0.55492614203E+02  0.31928584719E+03  0.12500000000E+03 0.  0.
         21    1    1    2  503  504  0.42191972341E+02  0.12714657322E+03 -0.14140506230E+04  0.14203821943E+04  0.00000000000E+00 0. -1.
         21    1    1    2  504  501  0.92967085050E+02  0.12774762285E+03 -0.32767219703E+03  0.36377383462E+03  0.00000000000E+00 0. -1.
<mgrwt>
<rscale>  4 0.27255988E+03</rscale>
<asrwt>0</asrwt>
<pdfrwt beam="1">  1       21 0.23555881E-01 0.27255988E+03</pdfrwt>
<pdfrwt beam="2">  1       21 0.30005055E+00 0.27255988E+03</pdfrwt>
<totfact> 0.52589904E+02</totfact>
</mgrwt>
</event>
<event>
 5    0  0.2159162E+000  0.2604347E+03  0.7546771E-02  0.1106882E+00
         21   -1    0    0  502  501  0.00000000000E+00  0.00000000000E+00  0.16245784308E+03  0.16245784308E+03  0.00000000000E+00 0.  1.
         21   -1    0    0  503  502 -0.00000000000E+00 -0.00000000000E+00 -0.38958683916E+03  0.38958683916E+03  0.00000000000E+00 0.  1.
         25    1    1    2    0    0  0.18450217815E+03 -0.13475970567E+03 -0.75885173614E+02  0.27126516841E+03  0.12500000000E+03 0.  0.
         21    1    1    2  503  504 -0.10268081530E+03  0.37284473343E+02 -0.66729680885E+02  0.12800910942E+03  0.00000000000E+00 0. -1.
         21    1    1    2  504  501 -0.81821362851E+02  0.97475232330E+02 -0.84514141576E+02  0.15277040441E+03  0.00000000000E+00 0.  1.
<mgrwt>
<rscale>  4 0.26043470E+03</rscale>
<asrwt>0</asrwt>
<pdfrwt beam="1">  1       21 0.24993514E-01 0.26043470E+03</pdfrwt>
<pdfrwt beam="2">  1       21 0.59936437E-01 0.26043470E+03</pdfrwt>
<totfact> 0.38133178E+04</totfact>
</mgrwt>
</event>
<event>
 5    0  0.2159162E+000  0.3221645E+03  0.7546771E-02  0.1080031E+00
         21   -1    0    0  502  501  0.00000000000E+00  0.00000000000E+00  0.29053047811E+03  0.29053047811E+03  0.00000000000E+00 0. -1.
         21   -1    0    0  503  502 -0.00000000000E+00 -0.00000000000E+00 -0.96851962718E+03  0.96851962718E+03  0.00000000000E+00 0. -1.
         25    1    1    2    0    0  0.55441193813E+02  0.24267382840E+03 -0.97501272266E+02  0.29511999433E+03  0.12500000000E+03 0.  0.
         21    1    1    2  503  504 -0.33589391495E+03 -0.91137267624E+02 -0.54021493914E+03  0.64262189826E+03  0.00000000000E+00 0. -1.
         21    1    1    2  504  501  0.28045272113E+03 -0.15153656078E+03 -0.40272937657E+02  0.32130821270E+03  0.00000000000E+00 0. -1.
<mgrwt>
<rscale>  4 0.31065868E+03</rscale>
<asrwt>0</asrwt>
<pdfrwt beam="1">  1       21 0.44696997E-01 0.32216449E+03</pdfrwt>
<pdfrwt beam="2">  1       21 0.14900302E+00 0.32216449E+03</pdfrwt>
<totfact> 0.13215724E+03</totfact>
</mgrwt>
</event>
<event>
 5    0  0.2159162E+000  0.3158241E+03  0.7546771E-02  0.1077587E+00
         21   -1    0    0  502  501  0.00000000000E+00  0.00000000000E+00  0.21708950634E+04  0.21708950634E+04  0.00000000000E+00 0. -1.
         21   -1    0    0  503  502 -0.00000000000E+00 -0.00000000000E+00 -0.12800367709E+03  0.12800367709E+03  0.00000000000E+00 0. -1.
         25    1    1    2    0    0 -0.25048268235E+03 -0.14621314281E+03  0.19572158479E+04  0.19825334127E+04  0.12500000000E+03 0.  0.
         21    1    1    2  503  504  0.23167600575E+03  0.96322550723E+02  0.65050525989E+02  0.25919756239E+03  0.00000000000E+00 0. -1.
         21    1    1    2  504  501  0.18806676591E+02  0.49890592088E+02  0.20625012475E+02  0.57167765418E+02  0.00000000000E+00 0.  1.
<mgrwt>
<rscale>  4 0.31582409E+03</rscale>
<asrwt>0</asrwt>
<pdfrwt beam="1">  1       21 0.33398383E+00 0.31582409E+03</pdfrwt>
<pdfrwt beam="2">  1       21 0.19692875E-01 0.31582409E+03</pdfrwt>
<totfact> 0.44700295E+02</totfact>
</mgrwt>
</event>
