<event>
 5    0  0.1861957E+000  0.3130614E+03  0.7546771E-02  0.1078888E+00
         21   -1    0    0  504  501  0.00000000000E+00  0.00000000000E+00  0.58828534160E+03  0.58828534160E+03  0.00000000000E+00 0.  1.
         21   -1    0    0  501  502 -0.00000000000E+00 -0.00000000000E+00 -0.32952951171E+03  0.32952951171E+03  0.00000000000E+00 0.  1.
         25    1    1    2    0    0 -0.26122972677E+03 -0.11246103764E+03  0.44640340269E+03  0.54386528945E+03  0.12500000000E+03 0.  0.
         21    1    1    2  503  502  0.28168940055E+03  0.10611201853E+03 -0.16718442183E+03  0.34432442516E+03  0.00000000000E+00 0.  1.
         21    1    1    2  504  503 -0.20459673782E+02  0.63490191071E+01 -0.20463150968E+02  0.29625138690E+02  0.00000000000E+00 0.  1.
<mgrwt>
<rscale>  4 0.31306137E+03</rscale>
<asrwt>0</asrwt>
<pdfrwt beam="1">  1       21 0.90505437E-01 0.31306137E+03</pdfrwt>
<pdfrwt beam="2">  1       21 0.50696848E-01 0.31306137E+03</pdfrwt>
<totfact> 0.35473430E+03</totfact>
</mgrwt>
</event>
<event>
 5    0  0.1861957E+000  0.4217066E+03  0.7546771E-02  0.1036512E+00
         21   -1    0    0  504  501  0.00000000000E+00  0.00000000000E+00  0.23901749157E+04  0.23901749157E+04  0.00000000000E+00 0.  1.
         21   -1    0    0  503  502 -0.00000000000E+00 -0.00000000000E+00 -0.98861145376E+02  0.98861145376E+02  0.00000000000E+00 0.  1.
         25    1    1    2    0    0 -0.93698051734E+02 -0.35795000744E+03  0.10248122390E+04  0.10967099242E+04  0.12500000000E+03 0.  0.
         21    1    1    2  503  501  0.10322172256E+03  0.42414185187E+03  0.12491678341E+04  0.13232427261E+04  0.00000000000E+00 0.  1.
         21    1    1    2  504  502 -0.95236708299E+01 -0.66191844435E+02  0.17333697236E+02  0.69083410712E+02  0.00000000000E+00 0.  1.
<mgrwt>
<rscale>  4 0.42170661E+03</rscale>
<asrwt>0</asrwt>
<pdfrwt beam="1">  1       21 0.36771917E+00 0.42170661E+03</pdfrwt>
<pdfrwt beam="2">  1       21 0.15209409E-01 0.42170661E+03</pdfrwt>
<totfact> 0.41590146E+02</totfact>
</mgrwt>
</event>
<event>
 5    0  0.1861957E+000  0.3260795E+03  0.7546771E-02  0.1072885E+00
         21   -1    0    0  503  501  0.00000000000E+00  0.00000000000E+00  0.71672491769E+03  0.71672491769E+03  0.00000000000E+00 0. -1.
         21   -1    0    0  504  502 -0.00000000000E+00 -0.00000000000E+00 -0.70781095432E+03  0.70781095432E+03  0.00000000000E+00 0.  1.
         25    1    1    2    0    0  0.22680437677E+03  0.31923997120E+03  0.18977984070E+02  0.41150886797E+03  0.12500000000E+03 0.  0.
         21    1    1    2  503  502 -0.46516935338E+02 -0.10144705744E+03 -0.46455391682E+03  0.47777156923E+03  0.00000000000E+00 0.  1.
         21    1    1    2  504  501 -0.18028744144E+03 -0.21779291377E+03  0.45448989611E+03  0.53525543481E+03  0.00000000000E+00 0. -1.
<mgrwt>
<rscale>  4 0.32607945E+03</rscale>
<asrwt>0</asrwt>
<pdfrwt beam="1">  1       21 0.11026537E+00 0.32607945E+03</pdfrwt>
<pdfrwt beam="2">  1       21 0.10889399E+00 0.32607945E+03</pdfrwt>
<totfact> 0.38660975E+02</totfact>
</mgrwt>
</event>
<event>
 5    0  0.1861957E+000  0.4131404E+03  0.7546771E-02  0.1039904E+00
         21   -1    0    0  503  501  0.00000000000E+00  0.00000000000E+00  0.14807377886E+04  0.14807377886E+04  0.00000000000E+00 0. -1.
         21   -1    0    0  504  502 -0.00000000000E+00 -0.00000000000E+00 -0.31952143832E+03  0.31952143832E+03  0.00000000000E+00 0.  1.
         25    1    1    2    0    0  0.12411085752E+03  0.36601775316E+03  0.13019204137E+04  0.13638160669E+04  0.12500000000E+03 0.  0.
         21    1    1    2  503  502 -0.15245686590E+03 -0.28083079381E+03 -0.84523307773E+02  0.33053474896E+03  0.00000000000E+00 0.  1.
         21    1    1    2  504  501  0.28346008383E+02 -0.85186959355E+02 -0.56180755660E+02  0.10590841110E+03  0.00000000000E+00 0.  1.
<mgrwt>
<rscale>  4 0.41139398E+03</rscale>
<asrwt>0</asrwt>
<pdfrwt beam="1">  1       21 0.22780581E+00 0.41314041E+03</pdfrwt>
<pdfrwt beam="2">  1       21 0.49157145E-01 0.41314041E+03</pdfrwt>
<totfact> 0.29351162E+02</totfact>
</mgrwt>
</event>
<event>
 5    0  0.1861957E+000  0.4550819E+03  0.7546771E-02  0.1026217E+00
         21   -1    0    0  503  501  0.00000000000E+00  0.00000000000E+00  0.10995904998E+04  0.10995904998E+04  0.00000000000E+00 0. -1.
         21   -1    0    0  504  502 -0.00000000000E+00 -0.00000000000E+00 -0.26117381935E+03  0.26117381935E+03  0.00000000000E+00 0. -1.
         25    1    1    2    0    0  0.33071858592E+03 -0.26937650176E+03  0.61855576867E+03  0.76169201238E+03  0.12500000000E+03 0.  0.
         21    1    1    2  503  502 -0.30745417787E+03  0.34720186166E+03  0.22919784937E+03  0.51730924831E+03  0.00000000000E+00 0. -1.
         21    1    1    2  504  501 -0.23264408059E+02 -0.77825359899E+02 -0.93369375844E+01  0.81763058463E+02  0.00000000000E+00 0. -1.
<mgrwt>
<rscale>  4 0.45508190E+03</rscale>
<asrwt>0</asrwt>
<pdfrwt beam="1">  1       21 0.16916777E+00 0.45508190E+03</pdfrwt>
<pdfrwt beam="2">  1       21 0.40180588E-01 0.45508190E+03</pdfrwt>
<totfact> 0.10853377E+03</totfact>
</mgrwt>
</event>
<event>
 5    0  0.1861957E+000  0.2314305E+03  0.7546771E-02  0.1125637E+00
         21   -1    0    0  504  501  0.00000000000E+00  0.00000000000E+00  0.32938240147E+03  0.32938240147E+03  0.00000000000E+00 0. -1.
         21   -1    0    0  503  502 -0.00000000000E+00 -0.00000000000E+00 -0.48331250257E+03  0.48331250257E+03  0.00000000000E+00 0. -1.
         25    1    1    2    0    0 -0.11582678802E+03 -0.21072695842E+03  0.18436553757E+03  0.32777636778E+03  0.12500000000E+03 0.  0.
         21    1    1    2  503  501  0.96965237221E+02  0.10842053366E+03 -0.16099077682E+02  0.14634360133E+03  0.00000000000E+00 0. -1.
         21    1    1    2  504  502  0.18861550801E+02  0.10230642476E+03 -0.32219656100E+03  0.33857493493E+03  0.00000000000E+00 0. -1.
<mgrwt>
<rscale>  4 0.23143054E+03</rscale>
<asrwt>0</asrwt>
<pdfrwt beam="1">  1       21 0.50674216E-01 0.23143054E+03</pdfrwt>
<pdfrwt beam="2">  1       21 0.74355769E-01 0.23143054E+03</pdfrwt>
<totfact> 0.58411571E+03</totfact>
</mgrwt>
</event>
<event>
 5    0  0.1861957E+000  0.2158620E+03  0.7546771E-02  0.1137006E+00
         21   -1    0    0  503  501  0.00000000000E+00  0.00000000000E+00  0.72023337639E+03  0.72023337639E+03  0.00000000000E+00 0.  1.
         21   -1    0    0  504  502 -0.00000000000E+00 -0.00000000000E+00 -0.11335232870E+03  0.11335232870E+03  0.00000000000E+00 0.  1.
         25    1    1    2    0    0  0.15685588283E+03 -0.15742548180E+03  0.31657371900E+03  0.40648551003E+03  0.12500000000E+03 0.  0.
         21    1    1    2  503  502 -0.12140572927E+03 -0.64100975540E+01  0.20664448466E+03  0.23975484039E+03  0.00000000000E+00 0.  1.
         21    1    1    2  504  501 -0.35450153563E+02  0.16383557935E+03  0.83662844017E+02  0.18734535467E+03  0.00000000000E+00 0.  1.
<mgrwt>
<rscale>  4 0.21586204E+03</rscale>
<asrwt>0</asrwt>
<pdfrwt beam="1">  1       21 0.11080513E+00 0.21586204E+03</pdfrwt>
<pdfrwt beam="2">  1       21 0.17438820E-01 0.21586204E+03</pdfrwt>
<totfact> 0.18826190E+04</totfact>
</mgrwt>
</event>
<event>
 5    0  0.1861957E+000  0.2354791E+03  0.7546771E-02  0.1122842E+00
         21   -1    0    0  503  501  0.00000000000E+00  0.00000000000E+00  0.62191556434E+03  0.62191556434E+03  0.00000000000E+00 0. -1.
         21   -1    0    0  504  502 -0.00000000000E+00 -0.00000000000E+00 -0.15908417668E+03  0.15908417668E+03  0.00000000000E+00 0. -1.
         25    1    1    2    0    0  0.12969314146E+03 -0.18576268667E+03  0.16826386379E+03  0.30865160709E+03  0.12500000000E+03 0.  0.
         21    1    1    2  503  502 -0.10262107947E+02  0.19770994686E+03  0.29138610504E+03  0.35227886135E+03  0.00000000000E+00 0. -1.
         21    1    1    2  504  501 -0.11943103351E+03 -0.11947260190E+02  0.31814188387E+01  0.12006927258E+03  0.00000000000E+00 0. -1.
<mgrwt>
<rscale>  4 0.23547914E+03</rscale>
<asrwt>0</asrwt>
<pdfrwt beam="1">  1       21 0.95679316E-01 0.23547914E+03</pdfrwt>
<pdfrwt beam="2">  1       21 0.24474489E-01 0.23547914E+03</pdfrwt>
<totfact> 0.13993049E+04</totfact>
</mgrwt>
</event>
<event>
 5    0  0.1861957E+000  0.3192671E+03  0.7546771E-02  0.1075987E+00
         21   -1    0    0  503  501  0.00000000000E+00  0.00000000000E+00  0.38654354411E+03  0.38654354411E+03  0.00000000000E+00 0. -1.
         21   -1    0    0  504  502 -0.00000000000E+00 -0.00000000000E+00 -0.69080070934E+03  0.69080070934E+03  0.00000000000E+00 0. -1.
         25    1    1    2    0    0  0.24467582088E+03 -0.15120800775E+03 -0.17054025637E+03  0.35698613135E+03  0.12500000000E+03 0.  0.
         21    1    1    2  503  502 -0.24086415161E+03  0.17145175115E+03  0.21844164648E+03  0.36759759985E+03  0.00000000000E+00 0. -1.
         21    1    1    2  504  501 -0.38116692701E+01 -0.20243743401E+02 -0.35215855533E+03  0.35276052226E+03  0.00000000000E+00 0. -1.
<mgrwt>
<rscale>  4 0.31926713E+03</rscale>
<asrwt>0</asrwt>
<pdfrwt beam="1">  1       21 0.59468238E-01 0.31926713E+03</pdfrwt>
<pdfrwt beam="2">  1       21 0.10627703E+00 0.31926713E+03</pdfrwt>
<totfact> 0.17096643E+03</totfact>
</mgrwt>
</event>
<event>
 5    0  0.1861957E+000  0.2367745E+03  0.7546771E-02  0.1121960E+00
         21   -1    0    0  504  501  0.00000000000E+00  0.00000000000E+00  0.72354448064E+03  0.72354448064E+03  0.00000000000E+00 0. -1.
         21   -1    0    0  503  502 -0.00000000000E+00 -0.00000000000E+00 -0.22138386565E+03  0.22138386565E+03  0.00000000000E+00 0. -1.
         25    1    1    2    0    0  0.18439614730E+03  0.99963806081E+02  0.49494792182E+03  0.55189958052E+03  0.12500000000E+03 0.  0.
         21    1    1    2  503  501 -0.16693077970E+03 -0.85779889627E+02  0.15507829545E+03  0.24346119279E+03  0.00000000000E+00 0. -1.
         21    1    1    2  504  502 -0.17465367599E+02 -0.14183916453E+02 -0.14786560227E+03  0.14956757298E+03  0.00000000000E+00 0. -1.
<mgrwt>
<rscale>  4 0.23677448E+03</rscale>
<asrwt>0</asrwt>
<pdfrwt beam="1">  1       21 0.11131453E+00 0.23677448E+03</pdfrwt>
<pdfrwt beam="2">  1       21 0.34059057E-01 0.23677448E+03</pdfrwt>
<totfact> 0.51011587E+03</totfact>
</mgrwt>
</event>
<event>
 5    0  0.1861957E+000  0.2495314E+03  0.7546771E-02  0.1113601E+00
         21   -1    0    0  504  501  0.00000000000E+00  0.00000000000E+00  0.50087149473E+03  0.50087149473E+03  0.00000000000E+00 0. -1.
         21   -1    0    0  501  502 -0.00000000000E+00 -0.00000000000E+00 -0.53776301163E+03  0.53776301163E+03  0.00000000000E+00 0. -1.
         25    1    1    2    0    0 -0.20410982050E+03  0.70569845330E+02  0.44365990847E+03  0.50901869934E+03  0.12500000000E+03 0.  0.
         21    1    1    2  503  502  0.13972437841E+03 -0.73948744662E+02 -0.33536041746E+03  0.37075319062E+03  0.00000000000E+00 0. -1.
         21    1    1    2  504  503  0.64385442094E+02  0.33788993320E+01 -0.14519100791E+03  0.15886261641E+03  0.00000000000E+00 0. -1.
<mgrwt>
<rscale>  4 0.24953140E+03</rscale>
<asrwt>0</asrwt>
<pdfrwt beam="1">  1       21 0.77057153E-01 0.24953140E+03</pdfrwt>
<pdfrwt beam="2">  1       21 0.82732771E-01 0.24953140E+03</pdfrwt>
<totfact> 0.18200346E+03</totfact>
</mgrwt>
</event>
<event>
 5    0  0.1861957E+000  0.2669990E+03  0.7546771E-02  0.1103010E+00
         21   -1    0    0  503  501  0.00000000000E+00  0.00000000000E+00  0.73074831914E+02  0.73074831914E+02  0.00000000000E+00 0. -1.
         21   -1    0    0  504  502 -0.00000000000E+00 -0.00000000000E+00 -0.14768805522E+04  0.14768805522E+04  0.00000000000E+00 0. -1.
         25    1    1    2    0    0  0.25683720510E+03  0.42617659844E+02 -0.60554196630E+03  0.67088574870E+03  0.12500000000E+03 0.  0.
         21    1    1    2  503  502 -0.18708372299E+03 -0.13467109617E+03 -0.37369946473E+03  0.43907620465E+03  0.00000000000E+00 0. -1.
         21    1    1    2  504  501 -0.69753482115E+02  0.92053436326E+02 -0.42456428927E+03  0.43999343078E+03  0.00000000000E+00 0. -1.
<mgrwt>
<rscale>  4 0.26699898E+03</rscale>
<asrwt>0</asrwt>
<pdfrwt beam="1">  1       21 0.11242283E-01 0.26699898E+03</pdfrwt>
<pdfrwt beam="2">  1       21 0.22721237E+00 0.26699898E+03</pdfrwt>
<totfact> 0.56334987E+03</totfact>
</mgrwt>
</event>
<event>
 5    0  0.1861957E+000  0.2379373E+03  0.7546771E-02  0.1121175E+00
         21   -1    0    0  504  501  0.00000000000E+00  0.00000000000E+00  0.21474115081E+03  0.21474115081E+03  0.00000000000E+00 0. -1.
         21   -1    0    0  503  502 -0.00000000000E+00 -0.00000000000E+00 -0.14777915119E+04  0.14777915119E+04  0.00000000000E+00 0. -1.
         25    1    1    2    0    0  0.15705865915E+03 -0.14126203949E+03  0.76898595599E+02  0.25721737931E+03  0.12500000000E+03 0.  0.
         21    1    1    2  503  501 -0.14701216705E+03  0.11272608595E+03 -0.13316102958E+03  0.22814821391E+03  0.00000000000E+00 0. -1.
         21    1    1    2  504  502 -0.10046492101E+02  0.28535953548E+02 -0.12067879271E+04  0.12071670695E+04  0.00000000000E+00 0. -1.
<mgrwt>
<rscale>  4 0.23793733E+03</rscale>
<asrwt>0</asrwt>
<pdfrwt beam="1">  1       21 0.33037099E-01 0.23793733E+03</pdfrwt>
<pdfrwt beam="2">  1       21 0.22735255E+00 0.23793733E+03</pdfrwt>
<totfact> 0.76112740E+02</totfact>
</mgrwt>
</event>
<event>
 5    0  0.1861957E+000  0.2570230E+03  0.7546771E-02  0.1108945E+00
         21   -1    0    0  504  501  0.00000000000E+00  0.00000000000E+00  0.10933353576E+03  0.10933353576E+03  0.00000000000E+00 0. -1.
         21   -1    0    0  503  502 -0.00000000000E+00 -0.00000000000E+00 -0.65755763393E+03  0.65755763393E+03  0.00000000000E+00 0. -1.
         25    1    1    2    0    0  0.26386870161E+02  0.20566027203E+03 -0.37380188983E+03  0.44535970546E+03  0.12500000000E+03 0.  0.
         21    1    1    2  503  501 -0.23329956436E+02 -0.23150550782E+03 -0.12134926464E+03  0.26242090436E+03  0.00000000000E+00 0. -1.
         21    1    1    2  504  502 -0.30569137251E+01  0.25845235791E+02 -0.53072943704E+02  0.59110559869E+02  0.00000000000E+00 0. -1.
<mgrwt>
<rscale>  4 0.25702301E+03</rscale>
<asrwt>0</asrwt>
<pdfrwt beam="1">  1       21 0.16820544E-01 0.25702301E+03</pdfrwt>
<pdfrwt beam="2">  1       21 0.10116271E+00 0.25702301E+03</pdfrwt>
<totfact> 0.24547586E+04</totfact>
</mgrwt>
</event>
<event>
 5    0  0.1861957E+000  0.2731637E+03  0.7546771E-02  0.1099482E+00
         21   -1    0    0  503  501  0.00000000000E+00  0.00000000000E+00  0.31573925884E+04  0.31573925884E+04  0.00000000000E+00 0. -1.
         21   -1    0    0  504  502 -0.00000000000E+00 -0.00000000000E+00 -0.22931251314E+03  0.22931251314E+03  0.00000000000E+00 0. -1.
         25    1    1    2    0    0  0.18869001775E+01  0.24167188447E+03  0.30285360774E+04  0.30407342258E+04  0.12500000000E+03 0.  0.
         21    1    1    2  503  502 -0.18475423716E+02  0.41116982290E+02  0.96449009021E+00  0.45087445650E+02  0.00000000000E+00 0. -1.
         21    1    1    2  504  501  0.16588523539E+02 -0.28278886676E+03 -0.10142049217E+03  0.30088343010E+03  0.00000000000E+00 0. -1.
<mgrwt>
<rscale>  4 0.27316372E+03</rscale>
<asrwt>0</asrwt>
<pdfrwt beam="1">  1       21 0.48575267E+00 0.27316372E+03</pdfrwt>
<pdfrwt beam="2">  1       21 0.35278851E-01 0.27316372E+03</pdfrwt>
<totfact> 0.16048120E+01</totfact>
</mgrwt>
</event>
<event>
 5    0  0.1861957E+000  0.2349201E+03  0.7546771E-02  0.1123224E+00
         21   -1    0    0  503  501  0.00000000000E+00  0.00000000000E+00  0.14135263650E+04  0.14135263650E+04  0.00000000000E+00 0.  1.
         21   -1    0    0  504  502 -0.00000000000E+00 -0.00000000000E+00 -0.11157359396E+03  0.11157359396E+03  0.00000000000E+00 0.  1.
         25    1    1    2    0    0  0.22713791020E+03 -0.13857113782E+03  0.31977495789E+03  0.43436691193E+03  0.12500000000E+03 0.  0.
         21    1    1    2  503  502 -0.15581004216E+03  0.10618846415E+03  0.99381051847E+03  0.10115394732E+04  0.00000000000E+00 0.  1.
         21    1    1    2  504  501 -0.71327868038E+02  0.32382673674E+02 -0.11632705282E+02  0.79193573889E+02  0.00000000000E+00 0.  1.
<mgrwt>
<rscale>  4 0.23492014E+03</rscale>
<asrwt>0</asrwt>
<pdfrwt beam="1">  1       21 0.21746558E+00 0.23492014E+03</pdfrwt>
<pdfrwt beam="2">  1       21 0.17165169E-01 0.23492014E+03</pdfrwt>
<totfact> 0.30704871E+03</totfact>
</mgrwt>
</event>
<event>
 5    0  0.1861957E+000  0.2953431E+03  0.7546771E-02  0.1087592E+00
         21   -1    0    0  503  501  0.00000000000E+00  0.00000000000E+00  0.16793630961E+04  0.16793630961E+04  0.00000000000E+00 0. -1.
         21   -1    0    0  504  502 -0.00000000000E+00 -0.00000000000E+00 -0.42224533834E+03  0.42224533834E+03  0.00000000000E+00 0.  1.
         25    1    1    2    0    0 -0.14921796872E+03  0.16963356090E+03  0.98011844047E+02  0.27617543111E+03  0.12500000000E+03 0.  0.
         21    1    1    2  503  502  0.65091406029E+01  0.64159751428E+02 -0.31732385691E+03  0.32381055075E+03  0.00000000000E+00 0.  1.
         21    1    1    2  504  501  0.14270882811E+03 -0.23379331233E+03  0.14764297706E+04  0.15016224526E+04  0.00000000000E+00 0. -1.
<mgrwt>
<rscale>  4 0.29534309E+03</rscale>
<asrwt>0</asrwt>
<pdfrwt beam="1">  1       21 0.25836355E+00 0.29534309E+03</pdfrwt>
<pdfrwt beam="2">  1       21 0.64960822E-01 0.29534309E+03</pdfrwt>
<totfact> 0.11435835E+02</totfact>
</mgrwt>
</event>
<event>
 5    0  0.1861957E+000  0.2992830E+03  0.7546771E-02  0.1085600E+00
         21   -1    0    0  504  501  0.00000000000E+00  0.00000000000E+00  0.16817436819E+03  0.16817436819E+03  0.00000000000E+00 0.  1.
         21   -1    0    0  501  502 -0.00000000000E+00 -0.00000000000E+00 -0.60436739613E+03  0.60436739613E+03  0.00000000000E+00 0.  1.
         25    1    1    2    0    0 -0.17922689538E+03  0.19816644804E+03 -0.10039111892E+03  0.31160166545E+03  0.12500000000E+03 0.  0.
         21    1    1    2  503  502 -0.22824908975E+02 -0.46721035163E+01 -0.74763937861E+02  0.78309970154E+02  0.00000000000E+00 0.  1.
         21    1    1    2  504  503  0.20205180435E+03 -0.19349434452E+03 -0.26103797116E+03  0.38263012871E+03  0.00000000000E+00 0.  1.
<mgrwt>
<rscale>  4 0.29928296E+03</rscale>
<asrwt>0</asrwt>
<pdfrwt beam="1">  1       21 0.25872980E-01 0.29928296E+03</pdfrwt>
<pdfrwt beam="2">  1       21 0.92979599E-01 0.29928296E+03</pdfrwt>
<totfact> 0.13032761E+04</totfact>
</mgrwt>
</event>
<event>
 5    0  0.1861957E+000  0.5216394E+03  0.7546771E-02  0.1008280E+00
         21   -1    0    0  504  501  0.00000000000E+00  0.00000000000E+00  0.47804912813E+03  0.47804912813E+03  0.00000000000E+00 0. -1.
         21   -1    0    0  503  502 -0.00000000000E+00 -0.00000000000E+00 -0.77339204656E+03  0.77339204656E+03  0.00000000000E+00 0.  1.
         25    1    1    2    0    0 -0.29299147353E+03  0.42922628980E+03  0.74049417904E+02  0.53961794606E+03  0.12500000000E+03 0.  0.
         21    1    1    2  503  501  0.35917119589E+03 -0.33203628348E+03 -0.31856248458E+03  0.58372433398E+03  0.00000000000E+00 0.  1.
         21    1    1    2  504  502 -0.66179722356E+02 -0.97190006324E+02 -0.50829851760E+02  0.12809889465E+03  0.00000000000E+00 0.  1.
<mgrwt>
<rscale>  4 0.52163941E+03</rscale>
<asrwt>0</asrwt>
<pdfrwt beam="1">  1       21 0.73546020E-01 0.52163941E+03</pdfrwt>
<pdfrwt beam="2">  1       21 0.11898339E+00 0.52163941E+03</pdfrwt>
<totfact> 0.73461128E+02</totfact>
</mgrwt>
</event>
<event>
 5    0  0.1861957E+000  0.2404495E+03  0.7546771E-02  0.1119494E+00
         21   -1    0    0  504  501  0.00000000000E+00  0.00000000000E+00  0.92019054157E+03  0.92019054157E+03  0.00000000000E+00 0.  1.
         21   -1    0    0  501  502 -0.00000000000E+00 -0.00000000000E+00 -0.94572766804E+02  0.94572766804E+02  0.00000000000E+00 0.  1.
         25    1    1    2    0    0  0.15919956880E+03 -0.13915943855E+03  0.71354911653E+03  0.75464375286E+03  0.12500000000E+03 0.  0.
         21    1    1    2  503  502 -0.14066868527E+02  0.15472023163E+02 -0.19383390984E+02  0.28512736399E+02  0.00000000000E+00 0. -1.
         21    1    1    2  504  503 -0.14513270027E+03  0.12368741538E+03  0.13145204923E+03  0.23160681911E+03  0.00000000000E+00 0.  1.
<mgrwt>
<rscale>  4 0.24044953E+03</rscale>
<asrwt>0</asrwt>
<pdfrwt beam="1">  1       21 0.14156777E+00 0.24044953E+03</pdfrwt>
<pdfrwt beam="2">  1       21 0.14549657E-01 0.24044953E+03</pdfrwt>
<totfact> 0.13972913E+04</totfact>
</mgrwt>
</event>
<event>
 5    0  0.1861957E+000  0.2822623E+03  0.7546771E-02  0.1094460E+00
         21   -1    0    0  504  501  0.00000000000E+00  0.00000000000E+00  0.95394413582E+03  0.95394413582E+03  0.00000000000E+00 0.  1.
         21   -1    0    0  501  502 -0.00000000000E+00 -0.00000000000E+00 -0.32206153545E+03  0.32206153545E+03  0.00000000000E+00 0.  1.
         25    1    1    2    0    0  0.25338871653E+03  0.91137186377E+02  0.68521517688E+03  0.74676413079E+03  0.12500000000E+03 0.  0.
         21    1    1    2  503  502 -0.59474143120E+02 -0.23653422415E+03 -0.12824536275E+03  0.27555849826E+03  0.00000000000E+00 0.  1.
         21    1    1    2  504  503 -0.19391457341E+03  0.14539703778E+03  0.74912786234E+02  0.25368304223E+03  0.00000000000E+00 0.  1.
<mgrwt>
<rscale>  4 0.28226232E+03</rscale>
<asrwt>0</asrwt>
<pdfrwt beam="1">  1       21 0.14676064E+00 0.28226232E+03</pdfrwt>
<pdfrwt beam="2">  1       21 0.49547929E-01 0.28226232E+03</pdfrwt>
<totfact> 0.11384948E+03</totfact>
</mgrwt>
</event>
<event>
 5    0  0.1861957E+000  0.2511080E+03  0.7546771E-02  0.1112607E+00
         21   -1    0    0  502  501  0.00000000000E+00  0.00000000000E+00  0.99097280487E+03  0.99097280487E+03  0.00000000000E+00 0.  1.
         21   -1    0    0  503  502 -0.00000000000E+00 -0.00000000000E+00 -0.34548014652E+03  0.34548014652E+03  0.00000000000E+00 0. -1.
         25    1    1    2    0    0 -0.84848305457E+01 -0.21820491347E+03  0.90145680415E+03  0.93591385627E+03  0.12500000000E+03 0.  0.
         21    1    1    2  503  504  0.80678744504E+02  0.20451476162E+03 -0.23974648272E+03  0.32529021429E+03  0.00000000000E+00 0. -1.
         21    1    1    2  504  501 -0.72193913959E+02  0.13690151844E+02 -0.16217663089E+02  0.75248880830E+02  0.00000000000E+00 0.  1.
<mgrwt>
<rscale>  4 0.25110801E+03</rscale>
<asrwt>0</asrwt>
<pdfrwt beam="1">  1       21 0.15245735E+00 0.25110801E+03</pdfrwt>
<pdfrwt beam="2">  1       21 0.53150792E-01 0.25110801E+03</pdfrwt>
<totfact> 0.90849624E+02</totfact>
</mgrwt>
</event>
<event>
 5    0  0.1861957E+000  0.3636519E+03  0.7546771E-02  0.1057147E+00
         21   -1    0    0  504  501  0.00000000000E+00  0.00000000000E+00  0.78072576656E+03  0.78072576656E+03  0.00000000000E+00 0. -1.
         21   -1    0    0  503  502 -0.00000000000E+00 -0.00000000000E+00 -0.22680810151E+03  0.22680810151E+03  0.00000000000E+00 0. -1.
         25    1    1    2    0    0  0.19764025307E+03  0.28948775382E+03  0.48012972687E+03  0.60746554130E+03  0.12500000000E+03 0.  0.
         21    1    1    2  503  501 -0.19034551905E+03 -0.26401195479E+03  0.11992247179E+03  0.34686471157E+03  0.00000000000E+00 0. -1.
         21    1    1    2  504  502 -0.72947340175E+01 -0.25475799030E+02 -0.46134533594E+02  0.53203615202E+02  0.00000000000E+00 0.  1.
<mgrwt>
<rscale>  4 0.36365192E+03</rscale>
<asrwt>0</asrwt>
<pdfrwt beam="1">  1       21 0.12011166E+00 0.36365192E+03</pdfrwt>
<pdfrwt beam="2">  1       21 0.34893554E-01 0.36365192E+03</pdfrwt>
<totfact> 0.37581548E+03</totfact>
</mgrwt>
</event>
<event>
 5    0  0.1861957E+000  0.2548021E+03  0.7546771E-02  0.1110307E+00
         21   -1    0    0  503  501  0.00000000000E+00  0.00000000000E+00  0.27759919155E+03  0.27759919155E+03  0.00000000000E+00 0. -1.
         21   -1    0    0  504  502 -0.00000000000E+00 -0.00000000000E+00 -0.74753497738E+03  0.74753497738E+03  0.00000000000E+00 0. -1.
         25    1    1    2    0    0 -0.89373465943E+02 -0.20992908611E+03  0.83157974426E+02  0.27312650241E+03  0.12500000000E+03 0.  0.
         21    1    1    2  503  502 -0.31485328784E+02  0.24054046275E+02  0.75606177120E+02  0.85359340963E+02  0.00000000000E+00 0. -1.
         21    1    1    2  504  501  0.12085879473E+03  0.18587503983E+03 -0.62869993738E+03  0.66664832555E+03  0.00000000000E+00 0. -1.
<mgrwt>
<rscale>  4 0.25480207E+03</rscale>
<asrwt>0</asrwt>
<pdfrwt beam="1">  1       21 0.42707568E-01 0.25480207E+03</pdfrwt>
<pdfrwt beam="2">  1       21 0.11500538E+00 0.25480207E+03</pdfrwt>
<totfact> 0.29464480E+03</totfact>
</mgrwt>
</event>
<event>
 5    0  0.1861957E+000  0.2305643E+03  0.7546771E-02  0.1126243E+00
         21   -1    0    0  503  501  0.00000000000E+00  0.00000000000E+00  0.47277437030E+03  0.47277437030E+03  0.00000000000E+00 0. -1.
         21   -1    0    0  504  502 -0.00000000000E+00 -0.00000000000E+00 -0.43626792401E+03  0.43626792401E+03  0.00000000000E+00 0. -1.
         25    1    1    2    0    0  0.53023728902E+02 -0.19410635495E+03  0.33709617535E+03  0.41200439839E+03  0.12500000000E+03 0.  0.
         21    1    1    2  503  502 -0.34374274549E+01  0.23523119662E+02 -0.31768485124E+03  0.31857309644E+03  0.00000000000E+00 0. -1.
         21    1    1    2  504  501 -0.49586301447E+02  0.17058323529E+03  0.17095122176E+02  0.17846479948E+03  0.00000000000E+00 0. -1.
<mgrwt>
<rscale>  4 0.23056426E+03</rscale>
<asrwt>0</asrwt>
<pdfrwt beam="1">  1       21 0.72734518E-01 0.23056426E+03</pdfrwt>
<pdfrwt beam="2">  1       21 0.67118142E-01 0.23056426E+03</pdfrwt>
<totfact> 0.33579848E+03</totfact>
</mgrwt>
</event>
<event>
 5    0  0.1861957E+000  0.4388987E+03  0.7546771E-02  0.1031085E+00
         21   -1    0    0  504  501  0.00000000000E+00  0.00000000000E+00  0.47269251488E+03  0.47269251488E+03  0.00000000000E+00 0.  1.
         21   -1    0    0  501  502 -0.00000000000E+00 -0.00000000000E+00 -0.53171025875E+03  0.53171025875E+03  0.00000000000E+00 0.  1.
         25    1    1    2    0    0 -0.37947104174E+03 -0.14394311099E+03  0.15493909289E+03  0.45204979065E+03  0.12500000000E+03 0.  0.
         21    1    1    2  503  502  0.42600368912E+03  0.16337656998E+03 -0.20846865450E+03  0.50162757766E+03  0.00000000000E+00 0.  1.
         21    1    1    2  504  503 -0.46532647379E+02 -0.19433458996E+02 -0.54881822647E+01  0.50725405323E+02  0.00000000000E+00 0.  1.
<mgrwt>
<rscale>  4 0.43889869E+03</rscale>
<asrwt>0</asrwt>
<pdfrwt beam="1">  1       21 0.72721925E-01 0.43889869E+03</pdfrwt>
<pdfrwt beam="2">  1       21 0.81801578E-01 0.43889869E+03</pdfrwt>
<totfact> 0.19293232E+03</totfact>
</mgrwt>
</event>
<event>
 5    0  0.1861957E+000  0.2676431E+03  0.7546771E-02  0.1102636E+00
         21   -1    0    0  503  501  0.00000000000E+00  0.00000000000E+00  0.13616415285E+03  0.13616415285E+03  0.00000000000E+00 0.  1.
         21   -1    0    0  504  502 -0.00000000000E+00 -0.00000000000E+00 -0.16053623664E+04  0.16053623664E+04  0.00000000000E+00 0. -1.
         25    1    1    2    0    0  0.17114039571E+03 -0.16625389359E+03 -0.20106525863E+02  0.27010861623E+03  0.12500000000E+03 0.  0.
         21    1    1    2  503  502  0.58792911972E+01  0.33541517456E+02 -0.18317511114E+03  0.18631350139E+03  0.00000000000E+00 0. -1.
         21    1    1    2  504  501 -0.17701968690E+03  0.13271237614E+03 -0.12659165766E+04  0.12851044017E+04  0.00000000000E+00 0. -1.
<mgrwt>
<rscale>  4 0.26764314E+03</rscale>
<asrwt>0</asrwt>
<pdfrwt beam="1">  1       21 0.20948331E-01 0.26764314E+03</pdfrwt>
<pdfrwt beam="2">  1       21 0.24697882E+00 0.26764314E+03</pdfrwt>
<totfact> 0.13590950E+03</totfact>
</mgrwt>
</event>
<event>
 5    0  0.1861957E+000  0.2247901E+03  0.7546771E-02  0.1130361E+00
         21   -1    0    0  503  501  0.00000000000E+00  0.00000000000E+00  0.34690976431E+03  0.34690976431E+03  0.00000000000E+00 0. -1.
         21   -1    0    0  504  502 -0.00000000000E+00 -0.00000000000E+00 -0.53901930872E+03  0.53901930872E+03  0.00000000000E+00 0.  1.
         25    1    1    2    0    0 -0.19101301961E+03 -0.82597917581E+02  0.22073758372E+03  0.32811350249E+03  0.12500000000E+03 0.  0.
         21    1    1    2  503  502  0.46643536602E+02 -0.34497598543E+02  0.38541377439E+02  0.69650137020E+02  0.00000000000E+00 0.  1.
         21    1    1    2  504  501  0.14436948300E+03  0.11709551612E+03 -0.45138850558E+03  0.48816543352E+03  0.00000000000E+00 0.  1.
<mgrwt>
<rscale>  4 0.22479011E+03</rscale>
<asrwt>0</asrwt>
<pdfrwt beam="1">  1       21 0.53370733E-01 0.22479011E+03</pdfrwt>
<pdfrwt beam="2">  1       21 0.82926047E-01 0.22479011E+03</pdfrwt>
<totfact> 0.41102736E+03</totfact>
</mgrwt>
</event>
<event>
 5    0  0.1861957E+000  0.2338637E+03  0.7546771E-02  0.1123949E+00
         21   -1    0    0  503  501  0.00000000000E+00  0.00000000000E+00  0.24835413965E+03  0.24835413965E+03  0.00000000000E+00 0.  1.
         21   -1    0    0  504  502 -0.00000000000E+00 -0.00000000000E+00 -0.10784659859E+04  0.10784659859E+04  0.00000000000E+00 0.  1.
         25    1    1    2    0    0 -0.73989470972E+02 -0.21396258163E+03 -0.75267282583E+02  0.26934103285E+03  0.12500000000E+03 0.  0.
         21    1    1    2  503  502  0.35297036466E+02  0.29702158592E+02 -0.84672257510E+03  0.84797831234E+03  0.00000000000E+00 0.  1.
         21    1    1    2  504  501  0.38692434506E+02  0.18426042304E+03  0.91878011434E+02  0.20950078036E+03  0.00000000000E+00 0.  1.
<mgrwt>
<rscale>  4 0.23386373E+03</rscale>
<asrwt>0</asrwt>
<pdfrwt beam="1">  1       21 0.38208330E-01 0.23386373E+03</pdfrwt>
<pdfrwt beam="2">  1       21 0.16591784E+00 0.23386373E+03</pdfrwt>
<totfact> 0.14488526E+03</totfact>
</mgrwt>
</event>
<event>
 5    0  0.1861957E+000  0.2883857E+03  0.7546771E-02  0.1091195E+00
         21   -1    0    0  504  501  0.00000000000E+00  0.00000000000E+00  0.19619660938E+04  0.19619660938E+04  0.00000000000E+00 0. -1.
         21   -1    0    0  501  502 -0.00000000000E+00 -0.00000000000E+00 -0.13539198150E+03  0.13539198150E+03  0.00000000000E+00 0.  1.
         25    1    1    2    0    0 -0.82674602535E+02  0.24638632328E+03  0.17939181369E+04  0.18169503549E+04  0.12500000000E+03 0.  0.
         21    1    1    2  503  502 -0.12757803006E+02 -0.69165782628E+02 -0.18503553242E+02  0.72725844833E+02  0.00000000000E+00 0.  1.
         21    1    1    2  504  503  0.95432405542E+02 -0.17722054065E+03  0.51159528563E+02  0.20768187552E+03  0.00000000000E+00 0.  1.
<mgrwt>
<rscale>  4 0.28838570E+03</rscale>
<asrwt>0</asrwt>
<pdfrwt beam="1">  1       21 0.30184092E+00 0.28838570E+03</pdfrwt>
<pdfrwt beam="2">  1       21 0.20829537E-01 0.28838570E+03</pdfrwt>
<totfact> 0.63889754E+02</totfact>
</mgrwt>
</event>
<event>
 5    0  0.1861957E+000  0.2617682E+03  0.7546771E-02  0.1106086E+00
         21   -1    0    0  504  501  0.00000000000E+00  0.00000000000E+00  0.10073766702E+03  0.10073766702E+03  0.00000000000E+00 0.  1.
         21   -1    0    0  501  502 -0.00000000000E+00 -0.00000000000E+00 -0.97164370158E+03  0.97164370158E+03  0.00000000000E+00 0.  1.
         25    1    1    2    0    0 -0.20042623311E+03  0.14143402102E+03 -0.19002005294E+03  0.33452485369E+03  0.12500000000E+03 0.  0.
         21    1    1    2  503  502  0.11700541800E+02 -0.54365474736E+02 -0.28863248773E+03  0.29394084523E+03  0.00000000000E+00 0.  1.
         21    1    1    2  504  503  0.18872569131E+03 -0.87068546280E+02 -0.39225349389E+03  0.44391566967E+03  0.00000000000E+00 0.  1.
<mgrwt>
<rscale>  4 0.26176819E+03</rscale>
<asrwt>0</asrwt>
<pdfrwt beam="1">  1       21 0.15498103E-01 0.26176819E+03</pdfrwt>
<pdfrwt beam="2">  1       21 0.14948364E+00 0.26176819E+03</pdfrwt>
<totfact> 0.10651469E+04</totfact>
</mgrwt>
</event>
<event>
 5    0  0.1861957E+000  0.3780811E+03  0.7546771E-02  0.1051645E+00
         21   -1    0    0  504  501  0.00000000000E+00  0.00000000000E+00  0.16321513313E+03  0.16321513313E+03  0.00000000000E+00 0. -1.
         21   -1    0    0  503  502 -0.00000000000E+00 -0.00000000000E+00 -0.10835752755E+04  0.10835752755E+04  0.00000000000E+00 0. -1.
         25    1    1    2    0    0 -0.36686829942E+03  0.19166060849E+02 -0.41759880772E+03  0.57006442725E+03  0.12500000000E+03 0.  0.
         21    1    1    2  503  501  0.34517924017E+03 -0.58608749938E+02 -0.27678766979E+03  0.44631279117E+03  0.00000000000E+00 0. -1.
         21    1    1    2  504  502  0.21689059258E+02  0.39442689089E+02 -0.22597366486E+03  0.23041319022E+03  0.00000000000E+00 0. -1.
<mgrwt>
<rscale>  4 0.37808110E+03</rscale>
<asrwt>0</asrwt>
<pdfrwt beam="1">  1       21 0.25110021E-01 0.37808110E+03</pdfrwt>
<pdfrwt beam="2">  1       21 0.16670389E+00 0.37808110E+03</pdfrwt>
<totfact> 0.29955087E+03</totfact>
</mgrwt>
</event>
<event>
 5    0  0.1861957E+000  0.2506378E+03  0.7546771E-02  0.1112902E+00
         21   -1    0    0  503  501  0.00000000000E+00  0.00000000000E+00  0.35448495909E+03  0.35448495909E+03  0.00000000000E+00 0.  1.
         21   -1    0    0  504  502 -0.00000000000E+00 -0.00000000000E+00 -0.23175056224E+03  0.23175056224E+03  0.00000000000E+00 0.  1.
         25    1    1    2    0    0  0.11708507589E+02  0.20736196408E+03 -0.70012335395E+02  0.25231488344E+03  0.12500000000E+03 0.  0.
         21    1    1    2  503  502 -0.30343702864E+02  0.12444988727E+02 -0.10019882108E+02  0.34293090928E+02  0.00000000000E+00 0. -1.
         21    1    1    2  504  501  0.18635195275E+02 -0.21980695281E+03  0.20276661435E+03  0.29962754697E+03  0.00000000000E+00 0.  1.
<mgrwt>
<rscale>  4 0.25063780E+03</rscale>
<asrwt>0</asrwt>
<pdfrwt beam="1">  1       21 0.54536148E-01 0.25063780E+03</pdfrwt>
<pdfrwt beam="2">  1       21 0.35653933E-01 0.25063780E+03</pdfrwt>
<totfact> 0.23361327E+04</totfact>
</mgrwt>
</event>
<event>
 5    0  0.1861957E+000  0.2606149E+03  0.7546771E-02  0.1106774E+00
         21   -1    0    0  503  501  0.00000000000E+00  0.00000000000E+00  0.25523905236E+03  0.25523905236E+03  0.00000000000E+00 0.  1.
         21   -1    0    0  504  502 -0.00000000000E+00 -0.00000000000E+00 -0.90732715494E+03  0.90732715494E+03  0.00000000000E+00 0.  1.
         25    1    1    2    0    0  0.44997979234E+02  0.21183154534E+03  0.10006963150E+03  0.26932573751E+03  0.12500000000E+03 0.  0.
         21    1    1    2  503  502 -0.11079420455E+03 -0.24838244868E+03 -0.20409927724E+03  0.34003780899E+03  0.00000000000E+00 0.  1.
         21    1    1    2  504  501  0.65796225317E+02  0.36550903342E+02 -0.54805845684E+03  0.55320266080E+03  0.00000000000E+00 0.  1.
<mgrwt>
<rscale>  4 0.26061494E+03</rscale>
<asrwt>0</asrwt>
<pdfrwt beam="1">  1       21 0.39267547E-01 0.26061494E+03</pdfrwt>
<pdfrwt beam="2">  1       21 0.13958879E+00 0.26061494E+03</pdfrwt>
<totfact> 0.21324061E+03</totfact>
</mgrwt>
</event>
<event>
 5    0  0.1861957E+000  0.2437498E+03  0.7546771E-02  0.1117320E+00
         21   -1    0    0  503  501  0.00000000000E+00  0.00000000000E+00  0.18064507209E+03  0.18064507209E+03  0.00000000000E+00 0.  1.
         21   -1    0    0  504  502 -0.00000000000E+00 -0.00000000000E+00 -0.11563469770E+04  0.11563469770E+04  0.00000000000E+00 0.  1.
         25    1    1    2    0    0 -0.96507908684E+01  0.21188956163E+03  0.64510687859E+02  0.25451316850E+03  0.12500000000E+03 0.  0.
         21    1    1    2  503  502  0.88169483928E+02 -0.25238828786E+02 -0.23675787885E+03  0.25389988100E+03  0.00000000000E+00 0.  1.
         21    1    1    2  504  501 -0.78518693059E+02 -0.18665073284E+03 -0.80345471390E+03  0.82857899956E+03  0.00000000000E+00 0.  1.
<mgrwt>
<rscale>  4 0.24374981E+03</rscale>
<asrwt>0</asrwt>
<pdfrwt beam="1">  1       21 0.27791551E-01 0.24374981E+03</pdfrwt>
<pdfrwt beam="2">  1       21 0.17789953E+00 0.24374981E+03</pdfrwt>
<totfact> 0.22209289E+03</totfact>
</mgrwt>
</event>
<event>
 5    0  0.1861957E+000  0.3300132E+03  0.7546771E-02  0.1071131E+00
         21   -1    0    0  504  501  0.00000000000E+00  0.00000000000E+00  0.36834222082E+03  0.36834222082E+03  0.00000000000E+00 0.  1.
         21   -1    0    0  503  502 -0.00000000000E+00 -0.00000000000E+00 -0.31697123564E+03  0.31697123564E+03  0.00000000000E+00 0. -1.
         25    1    1    2    0    0 -0.25378880765E+03  0.15312362881E+03  0.77453987238E+02  0.33087720491E+03  0.12500000000E+03 0.  0.
         21    1    1    2  503  501  0.26555073874E+03 -0.17246195880E+03  0.41535944212E+01  0.31666634558E+03  0.00000000000E+00 0. -1.
         21    1    1    2  504  502 -0.11761931085E+02  0.19338329997E+02 -0.30236596485E+02  0.37769905969E+02  0.00000000000E+00 0.  1.
<mgrwt>
<rscale>  4 0.33001317E+03</rscale>
<asrwt>0</asrwt>
<pdfrwt beam="1">  1       21 0.56668034E-01 0.33001317E+03</pdfrwt>
<pdfrwt beam="2">  1       21 0.48764805E-01 0.33001317E+03</pdfrwt>
<totfact> 0.10936545E+04</totfact>
</mgrwt>
</event>
<event>
 5    0  0.1861957E+000  0.2951142E+03  0.7546771E-02  0.1087709E+00
         21   -1    0    0  504  501  0.00000000000E+00  0.00000000000E+00  0.61936099268E+03  0.61936099268E+03  0.00000000000E+00 0. -1.
         21   -1    0    0  501  502 -0.00000000000E+00 -0.00000000000E+00 -0.46836570779E+03  0.46836570779E+03  0.00000000000E+00 0. -1.
         25    1    1    2    0    0 -0.21596903183E+03  0.15755871715E+03  0.53846459701E+03  0.61403297492E+03  0.12500000000E+03 0.  0.
         21    1    1    2  503  502  0.19641558889E+02 -0.14628102618E+02 -0.68872922118E+02  0.73097548679E+02  0.00000000000E+00 0. -1.
         21    1    1    2  504  503  0.19632747295E+03 -0.14293061453E+03 -0.31859639000E+03  0.40059617687E+03  0.00000000000E+00 0. -1.
<mgrwt>
<rscale>  4 0.29511417E+03</rscale>
<asrwt>0</asrwt>
<pdfrwt beam="1">  1       21 0.95286307E-01 0.29511417E+03</pdfrwt>
<pdfrwt beam="2">  1       21 0.72056263E-01 0.29511417E+03</pdfrwt>
<totfact> 0.14770778E+03</totfact>
</mgrwt>
</event>
<event>
 5    0  0.1861957E+000  0.2734135E+03  0.7546771E-02  0.1099342E+00
         21   -1    0    0  504  501  0.00000000000E+00  0.00000000000E+00  0.10713701566E+03  0.10713701566E+03  0.00000000000E+00 0. -1.
         21   -1    0    0  503  502 -0.00000000000E+00 -0.00000000000E+00 -0.13641737898E+04  0.13641737898E+04  0.00000000000E+00 0. -1.
         25    1    1    2    0    0 -0.19362193336E+03 -0.17831577919E+03 -0.56157204332E+03  0.63267221373E+03  0.12500000000E+03 0.  0.
         21    1    1    2  503  501  0.20130460806E+03  0.12608396665E+03 -0.13012277131E+03  0.27083693893E+03  0.00000000000E+00 0. -1.
         21    1    1    2  504  502 -0.76826747042E+01  0.52231812543E+02 -0.56534195955E+03  0.56780165283E+03  0.00000000000E+00 0. -1.
<mgrwt>
<rscale>  4 0.27341353E+03</rscale>
<asrwt>0</asrwt>
<pdfrwt beam="1">  1       21 0.16482619E-01 0.27341353E+03</pdfrwt>
<pdfrwt beam="2">  1       21 0.20987288E+00 0.27341353E+03</pdfrwt>
<totfact> 0.35875652E+03</totfact>
</mgrwt>
</event>
<event>
 5    0  0.1861957E+000  0.3061911E+03  0.7546771E-02  0.1082186E+00
         21   -1    0    0  504  501  0.00000000000E+00  0.00000000000E+00  0.57168249466E+03  0.57168249466E+03  0.00000000000E+00 0.  1.
         21   -1    0    0  501  502 -0.00000000000E+00 -0.00000000000E+00 -0.13853869099E+04  0.13853869099E+04  0.00000000000E+00 0.  1.
         25    1    1    2    0    0 -0.25751490400E+03 -0.22629559011E+03  0.42567191112E+03  0.56066495860E+03  0.12500000000E+03 0.  0.
         21    1    1    2  503  502  0.10824000190E+03  0.12879399849E+03 -0.12026559549E+04  0.12143661465E+04  0.00000000000E+00 0.  1.
         21    1    1    2  504  503  0.14927490210E+03  0.97501591618E+02 -0.36720371442E+02  0.18203829939E+03  0.00000000000E+00 0.  1.
<mgrwt>
<rscale>  4 0.30619106E+03</rscale>
<asrwt>0</asrwt>
<pdfrwt beam="1">  1       21 0.87951153E-01 0.30619106E+03</pdfrwt>
<pdfrwt beam="2">  1       21 0.21313645E+00 0.30619106E+03</pdfrwt>
<totfact> 0.10805876E+02</totfact>
</mgrwt>
</event>
<event>
 5    0  0.1861957E+000  0.2527519E+03  0.7546771E-02  0.1111578E+00
         21   -1    0    0  504  501  0.00000000000E+00  0.00000000000E+00  0.47425941934E+03  0.47425941934E+03  0.00000000000E+00 0.  1.
         21   -1    0    0  501  502 -0.00000000000E+00 -0.00000000000E+00 -0.12714540977E+03  0.12714540977E+03  0.00000000000E+00 0.  1.
         25    1    1    2    0    0 -0.60355096776E+02  0.21122446234E+03  0.22916286698E+03  0.34117316835E+03  0.12500000000E+03 0.  0.
         21    1    1    2  503  502  0.42384171912E+02 -0.64982537369E+02  0.11437203837E+02  0.78421666797E+02  0.00000000000E+00 0.  1.
         21    1    1    2  504  503  0.17970924864E+02 -0.14624192497E+03  0.10651393875E+03  0.18180999397E+03  0.00000000000E+00 0.  1.
<mgrwt>
<rscale>  4 0.25275188E+03</rscale>
<asrwt>0</asrwt>
<pdfrwt beam="1">  1       21 0.72962987E-01 0.25275188E+03</pdfrwt>
<pdfrwt beam="2">  1       21 0.19560832E-01 0.25275188E+03</pdfrwt>
<totfact> 0.39529346E+04</totfact>
</mgrwt>
</event>
<event>
 5    0  0.1861957E+000  0.3076686E+03  0.7546771E-02  0.1081469E+00
         21   -1    0    0  504  501  0.00000000000E+00  0.00000000000E+00  0.32448975941E+03  0.32448975941E+03  0.00000000000E+00 0. -1.
         21   -1    0    0  503  502 -0.00000000000E+00 -0.00000000000E+00 -0.66439729887E+03  0.66439729887E+03  0.00000000000E+00 0. -1.
         25    1    1    2    0    0  0.23026153024E+03  0.15631555091E+03  0.19123630472E+03  0.36007117075E+03  0.12500000000E+03 0.  0.
         21    1    1    2  503  501 -0.25083274175E+03 -0.15831448596E+03 -0.41069845758E+03  0.50661007082E+03  0.00000000000E+00 0. -1.
         21    1    1    2  504  502  0.20571211502E+02  0.19989350502E+01 -0.12044538660E+03  0.12220581671E+03  0.00000000000E+00 0. -1.
<mgrwt>
<rscale>  4 0.30766864E+03</rscale>
<asrwt>0</asrwt>
<pdfrwt beam="1">  1       21 0.49921502E-01 0.30766864E+03</pdfrwt>
<pdfrwt beam="2">  1       21 0.10221497E+00 0.30766864E+03</pdfrwt>
<totfact> 0.27505330E+03</totfact>
</mgrwt>
</event>
<event>
 5    0  0.1861957E+000  0.2587520E+03  0.7546771E-02  0.1107895E+00
         21   -1    0    0  504  501  0.00000000000E+00  0.00000000000E+00  0.19502456507E+03  0.19502456507E+03  0.00000000000E+00 0. -1.
         21   -1    0    0  501  502 -0.00000000000E+00 -0.00000000000E+00 -0.63697207605E+03  0.63697207605E+03  0.00000000000E+00 0. -1.
         25    1    1    2    0    0  0.18959049120E+03  0.14062177276E+03 -0.36052271328E+03  0.44868771336E+03  0.12500000000E+03 0.  0.
         21    1    1    2  503  502  0.34629318304E+01 -0.25482888927E+02 -0.14694096246E+03  0.14917444812E+03  0.00000000000E+00 0. -1.
         21    1    1    2  504  503 -0.19305342303E+03 -0.11513888383E+03  0.65516164760E+02  0.23413447964E+03  0.00000000000E+00 0. -1.
<mgrwt>
<rscale>  4 0.25875200E+03</rscale>
<asrwt>0</asrwt>
<pdfrwt beam="1">  1       21 0.30003779E-01 0.25875200E+03</pdfrwt>
<pdfrwt beam="2">  1       21 0.97995705E-01 0.25875200E+03</pdfrwt>
<totfact> 0.87957625E+03</totfact>
</mgrwt>
</event>
<event>
 5    0  0.1861957E+000  0.3096874E+03  0.7546771E-02  0.1080496E+00
         21   -1    0    0  503  501  0.00000000000E+00  0.00000000000E+00  0.25896085118E+03  0.25896085118E+03  0.00000000000E+00 0.  1.
         21   -1    0    0  504  502 -0.00000000000E+00 -0.00000000000E+00 -0.43105913992E+03  0.43105913992E+03  0.00000000000E+00 0.  1.
         25    1    1    2    0    0  0.28320895520E+03 -0.88858354622E+01  0.35090566058E+02  0.31167710568E+03  0.12500000000E+03 0.  0.
         21    1    1    2  503  502 -0.10070370733E+01 -0.21683337037E+02 -0.48518054996E+02  0.53152449514E+02  0.00000000000E+00 0.  1.
         21    1    1    2  504  501 -0.28220191813E+03  0.30569172499E+02 -0.15867079980E+03  0.32519043591E+03  0.00000000000E+00 0.  1.
<mgrwt>
<rscale>  4 0.30968742E+03</rscale>
<asrwt>0</asrwt>
<pdfrwt beam="1">  1       21 0.39840132E-01 0.30968742E+03</pdfrwt>
<pdfrwt beam="2">  1       21 0.66316790E-01 0.30968742E+03</pdfrwt>
<totfact> 0.11898378E+04</totfact>
</mgrwt>
</event>
<event>
 5    0  0.1861957E+000  0.3063616E+03  0.7546771E-02  0.1082103E+00
         21   -1    0    0  504  501  0.00000000000E+00  0.00000000000E+00  0.23748205982E+03  0.23748205982E+03  0.00000000000E+00 0. -1.
         21   -1    0    0  501  502 -0.00000000000E+00 -0.00000000000E+00 -0.60393418846E+03  0.60393418846E+03  0.00000000000E+00 0. -1.
         25    1    1    2    0    0 -0.97643746171E+02 -0.30836576911E+03 -0.99793176862E+02  0.36084266221E+03  0.12500000000E+03 0.  0.
         21    1    1    2  503  502  0.13249565269E+03  0.58501131319E+02 -0.12451779059E+03  0.19100303799E+03  0.00000000000E+00 0.  1.
         21    1    1    2  504  503 -0.34851906521E+02  0.24986463779E+03 -0.14214116120E+03  0.28957054808E+03  0.00000000000E+00 0. -1.
<mgrwt>
<rscale>  4 0.30636157E+03</rscale>
<asrwt>0</asrwt>
<pdfrwt beam="1">  1       21 0.36535702E-01 0.30636157E+03</pdfrwt>
<pdfrwt beam="2">  1       21 0.92912950E-01 0.30636157E+03</pdfrwt>
<totfact> 0.65801392E+03</totfact>
</mgrwt>
</event>
<event>
 5    0  0.1861957E+000  0.2641048E+03  0.7546771E-02  0.1104702E+00
         21   -1    0    0  503  501  0.00000000000E+00  0.00000000000E+00  0.80735655148E+03  0.80735655148E+03  0.00000000000E+00 0.  1.
         21   -1    0    0  504  502 -0.00000000000E+00 -0.00000000000E+00 -0.98435588441E+02  0.98435588441E+02  0.00000000000E+00 0.  1.
         25    1    1    2    0    0  0.40968281330E+02 -0.21287372273E+03  0.28026623234E+03  0.37572301353E+03  0.12500000000E+03 0.  0.
         21    1    1    2  503  502 -0.40716505354E+01 -0.27502236072E+02 -0.91380782199E+01  0.29265266112E+02  0.00000000000E+00 0.  1.
         21    1    1    2  504  501 -0.36896630795E+02  0.24037595880E+03  0.43779280892E+03  0.50080386029E+03  0.00000000000E+00 0.  1.
<mgrwt>
<rscale>  4 0.26410475E+03</rscale>
<asrwt>0</asrwt>
<pdfrwt beam="1">  1       21 0.12420870E+00 0.26410475E+03</pdfrwt>
<pdfrwt beam="2">  1       21 0.15143937E-01 0.26410475E+03</pdfrwt>
<totfact> 0.17929819E+04</totfact>
</mgrwt>
</event>
<event>
 5    0  0.1861957E+000  0.3705523E+03  0.7546771E-02  0.1054482E+00
         21   -1    0    0  503  501  0.00000000000E+00  0.00000000000E+00  0.71121563059E+03  0.71121563059E+03  0.00000000000E+00 0. -1.
         21   -1    0    0  504  502 -0.00000000000E+00 -0.00000000000E+00 -0.24760596078E+03  0.24760596078E+03  0.00000000000E+00 0. -1.
         25    1    1    2    0    0 -0.26481537816E+03  0.15408843708E+03  0.21023574183E+03  0.39203889870E+03  0.12500000000E+03 0.  0.
         21    1    1    2  503  502 -0.74685052554E+02  0.60619684390E+02  0.90421957209E+01  0.96614515027E+02  0.00000000000E+00 0. -1.
         21    1    1    2  504  501  0.33950043072E+03 -0.21470812147E+03  0.24433173225E+03  0.47016817764E+03  0.00000000000E+00 0. -1.
<mgrwt>
<rscale>  4 0.37055228E+03</rscale>
<asrwt>0</asrwt>
<pdfrwt beam="1">  1       21 0.10941779E+00 0.37055228E+03</pdfrwt>
<pdfrwt beam="2">  1       21 0.38093225E-01 0.37055228E+03</pdfrwt>
<totfact> 0.39565261E+03</totfact>
</mgrwt>
</event>
<event>
 5    0  0.1861957E+000  0.3100794E+03  0.7546771E-02  0.1080308E+00
         21   -1    0    0  503  501  0.00000000000E+00  0.00000000000E+00  0.15621877948E+03  0.15621877948E+03  0.00000000000E+00 0.  1.
         21   -1    0    0  504  502 -0.00000000000E+00 -0.00000000000E+00 -0.67193768392E+03  0.67193768392E+03  0.00000000000E+00 0.  1.
         25    1    1    2    0    0 -0.26636109527E+03  0.36896735838E+02 -0.29440504606E+03  0.41786233778E+03  0.12500000000E+03 0.  0.
         21    1    1    2  503  502  0.29117528828E+03 -0.36678671834E+02 -0.13977381314E+03  0.32506167463E+03  0.00000000000E+00 0.  1.
         21    1    1    2  504  501 -0.24814193005E+02 -0.21806400353E+00 -0.81540045237E+02  0.85232451001E+02  0.00000000000E+00 0. -1.
<mgrwt>
<rscale>  4 0.31007938E+03</rscale>
<asrwt>0</asrwt>
<pdfrwt beam="1">  1       21 0.24033659E-01 0.31007938E+03</pdfrwt>
<pdfrwt beam="2">  1       21 0.10337503E+00 0.31007938E+03</pdfrwt>
<totfact> 0.11605207E+04</totfact>
</mgrwt>
</event>
<event>
 5    0  0.1959292E+000  0.2252388E+03  0.7546771E-02  0.1130036E+00
         21   -1    0    0  504  501  0.00000000000E+00  0.00000000000E+00  0.58789021222E+03  0.58789021222E+03  0.00000000000E+00 0. -1.
         21   -1    0    0  503  502 -0.00000000000E+00 -0.00000000000E+00 -0.21641103115E+03  0.21641103115E+03  0.00000000000E+00 0.  1.
         25    1    1    2    0    0  0.21656056482E+03 -0.25665224194E+02 -0.83301990673E+00  0.25136204147E+03  0.12500000000E+03 0.  0.
         21    1    1    2  503  501 -0.18275564040E+03  0.90558745662E+01  0.43941369065E+03  0.47598952141E+03  0.00000000000E+00 0. -1.
         21    1    1    2  504  502 -0.33804924429E+02  0.16609349628E+02 -0.67101489675E+02  0.76949680489E+02  0.00000000000E+00 0.  1.
<mgrwt>
<rscale>  4 0.22523881E+03</rscale>
<asrwt>0</asrwt>
<pdfrwt beam="1">  1       21 0.90444647E-01 0.22523881E+03</pdfrwt>
<pdfrwt beam="2">  1       21 0.33294005E-01 0.22523881E+03</pdfrwt>
<totfact> 0.88243765E+03</totfact>
</mgrwt>
</event>
<event>
 5    0  0.1861957E+000  0.2979033E+03  0.7546771E-02  0.1086293E+00
         21   -1    0    0  504  501  0.00000000000E+00  0.00000000000E+00  0.43211016785E+02  0.43211016785E+02  0.00000000000E+00 0. -1.
         21   -1    0    0  501  502 -0.00000000000E+00 -0.00000000000E+00 -0.19098136005E+04  0.19098136005E+04  0.00000000000E+00 0. -1.
         25    1    1    2    0    0 -0.26941344981E+03 -0.23189683675E+02 -0.96249870538E+03  0.10075465876E+04  0.12500000000E+03 0.  0.
         21    1    1    2  503  502  0.25291220697E+03  0.70578077701E+01 -0.84353179829E+03  0.88065900995E+03  0.00000000000E+00 0. -1.
         21    1    1    2  504  503  0.16501242838E+02  0.16131875905E+02 -0.60572080058E+02  0.64819019724E+02  0.00000000000E+00 0. -1.
<mgrwt>
<rscale>  4 0.29790329E+03</rscale>
<asrwt>0</asrwt>
<pdfrwt beam="1">  1       21 0.66478490E-02 0.29790329E+03</pdfrwt>
<pdfrwt beam="2">  1       21 0.29381746E+00 0.29790329E+03</pdfrwt>
<totfact> 0.55707798E+03</totfact>
</mgrwt>
</event>
<event>
 5    0  0.1861957E+000  0.3229890E+03  0.7546771E-02  0.1074282E+00
         21   -1    0    0  503  501  0.00000000000E+00  0.00000000000E+00  0.27502393598E+03  0.27502393598E+03  0.00000000000E+00 0.  1.
         21   -1    0    0  504  502 -0.00000000000E+00 -0.00000000000E+00 -0.71824949535E+03  0.71824949535E+03  0.00000000000E+00 0.  1.
         25    1    1    2    0    0 -0.10063746590E+03 -0.27892184619E+03  0.74308781700E+02  0.33026064080E+03  0.12500000000E+03 0.  0.
         21    1    1    2  503  502  0.16762635193E+03  0.24833108480E+03 -0.50659426375E+03  0.58856152576E+03  0.00000000000E+00 0.  1.
         21    1    1    2  504  501 -0.66988886039E+02  0.30590761386E+02 -0.10940077333E+02  0.74451264777E+02  0.00000000000E+00 0.  1.
<mgrwt>
<rscale>  4 0.32298904E+03</rscale>
<asrwt>0</asrwt>
<pdfrwt beam="1">  1       21 0.42311375E-01 0.32298904E+03</pdfrwt>
<pdfrwt beam="2">  1       21 0.11049992E+00 0.32298904E+03</pdfrwt>
<totfact> 0.31840159E+03</totfact>
</mgrwt>
</event>
<event>
 5    0  0.1861957E+000  0.2492393E+03  0.7546771E-02  0.1113786E+00
         21   -1    0    0  504  501  0.00000000000E+00  0.00000000000E+00  0.50967162721E+03  0.50967162721E+03  0.00000000000E+00 0.  1.
         21   -1    0    0  501  502 -0.00000000000E+00 -0.00000000000E+00 -0.10962202313E+04  0.10962202313E+04  0.00000000000E+00 0.  1.
         25    1    1    2    0    0 -0.16228358282E+03  0.14311409886E+03  0.46508097031E+03  0.52796109278E+03  0.12500000000E+03 0.  0.
         21    1    1    2  503  502  0.26551169376E+02  0.89208274428E+00 -0.28267297024E+03  0.28391859487E+03  0.00000000000E+00 0.  1.
         21    1    1    2  504  503  0.13573241345E+03 -0.14400618160E+03 -0.76895660414E+03  0.79401217084E+03  0.00000000000E+00 0.  1.
<mgrwt>
<rscale>  4 0.24923934E+03</rscale>
<asrwt>0</asrwt>
<pdfrwt beam="1">  1       21 0.78411020E-01 0.24923934E+03</pdfrwt>
<pdfrwt beam="2">  1       21 0.16864927E+00 0.24923934E+03</pdfrwt>
<totfact> 0.29495909E+02</totfact>
</mgrwt>
</event>
<event>
 5    0  0.1861957E+000  0.2869505E+03  0.7546771E-02  0.1091952E+00
         21   -1    0    0  504  501  0.00000000000E+00  0.00000000000E+00  0.40415692669E+03  0.40415692669E+03  0.00000000000E+00 0.  1.
         21   -1    0    0  501  502 -0.00000000000E+00 -0.00000000000E+00 -0.22436684433E+03  0.22436684433E+03  0.00000000000E+00 0.  1.
         25    1    1    2    0    0 -0.21839552820E+03  0.11794192011E+03 -0.21206722365E+02  0.27871424135E+03  0.12500000000E+03 0.  0.
         21    1    1    2  503  502 -0.19438521384E+02 -0.61090008354E+01  0.26486775559E+01  0.20547299034E+02  0.00000000000E+00 0.  1.
         21    1    1    2  504  503  0.23783404958E+03 -0.11183291928E+03  0.19834812717E+03  0.32926223064E+03  0.00000000000E+00 0.  1.
<mgrwt>
<rscale>  4 0.28695047E+03</rscale>
<asrwt>0</asrwt>
<pdfrwt beam="1">  1       21 0.62177989E-01 0.28695047E+03</pdfrwt>
<pdfrwt beam="2">  1       21 0.34517976E-01 0.28695047E+03</pdfrwt>
<totfact> 0.18490456E+04</totfact>
</mgrwt>
</event>
<event>
 5    0  0.1861957E+000  0.2924843E+03  0.7546771E-02  0.1089059E+00
         21   -1    0    0  503  501  0.00000000000E+00  0.00000000000E+00  0.81773506681E+03  0.81773506681E+03  0.00000000000E+00 0. -1.
         21   -1    0    0  504  502 -0.00000000000E+00 -0.00000000000E+00 -0.68056001887E+03  0.68056001887E+03  0.00000000000E+00 0. -1.
         25    1    1    2    0    0  0.95656887896E+02 -0.27921865046E+03  0.66711364667E+03  0.74012087698E+03  0.12500000000E+03 0.  0.
         21    1    1    2  503  502  0.50488923128E+02  0.59859555681E+02  0.68638126028E+02  0.10413208012E+03  0.00000000000E+00 0.  1.
         21    1    1    2  504  501 -0.14614581102E+03  0.21935909478E+03 -0.59857672476E+03  0.65404212858E+03  0.00000000000E+00 0. -1.
<mgrwt>
<rscale>  4 0.29248429E+03</rscale>
<asrwt>0</asrwt>
<pdfrwt beam="1">  1       21 0.12580539E+00 0.29248429E+03</pdfrwt>
<pdfrwt beam="2">  1       21 0.10470154E+00 0.29248429E+03</pdfrwt>
<totfact> 0.31362798E+02</totfact>
</mgrwt>
</event>
<event>
 5    0  0.1861957E+000  0.3604844E+03  0.7546771E-02  0.1058392E+00
         21   -1    0    0  503  501  0.00000000000E+00  0.00000000000E+00  0.46475859119E+03  0.46475859119E+03  0.00000000000E+00 0. -1.
         21   -1    0    0  504  502 -0.00000000000E+00 -0.00000000000E+00 -0.35621837369E+03  0.35621837369E+03  0.00000000000E+00 0. -1.
         25    1    1    2    0    0  0.50898582286E+02 -0.37412298208E+03  0.93749842147E+00  0.39772421387E+03  0.12500000000E+03 0.  0.
         21    1    1    2  503  502 -0.70690622979E+02  0.29801172842E+03  0.22091339896E+02  0.30707683363E+03  0.00000000000E+00 0. -1.
         21    1    1    2  504  501  0.19792040693E+02  0.76111253655E+02  0.85511379183E+02  0.11617591737E+03  0.00000000000E+00 0. -1.
<mgrwt>
<rscale>  4 0.36048438E+03</rscale>
<asrwt>0</asrwt>
<pdfrwt beam="1">  1       21 0.71501322E-01 0.36048438E+03</pdfrwt>
<pdfrwt beam="2">  1       21 0.54802827E-01 0.36048438E+03</pdfrwt>
<totfact> 0.50521651E+03</totfact>
</mgrwt>
</event>
<event>
 5    0  0.1861957E+000  0.3719027E+03  0.7546771E-02  0.1053968E+00
         21   -1    0    0  504  501  0.00000000000E+00  0.00000000000E+00  0.27173609096E+03  0.27173609096E+03  0.00000000000E+00 0. -1.
         21   -1    0    0  501  502 -0.00000000000E+00 -0.00000000000E+00 -0.11773415116E+04  0.11773415116E+04  0.00000000000E+00 0. -1.
         25    1    1    2    0    0 -0.32788534644E+03 -0.15151660569E+03 -0.74944289721E+03  0.84128219902E+03  0.12500000000E+03 0.  0.
         21    1    1    2  503  502  0.19939662599E+02 -0.11624444874E+02 -0.24666706859E+03  0.24774454705E+03  0.00000000000E+00 0. -1.
         21    1    1    2  504  503  0.30794568385E+03  0.16314105056E+03  0.90504545149E+02  0.36005085651E+03  0.00000000000E+00 0. -1.
<mgrwt>
<rscale>  4 0.37190265E+03</rscale>
<asrwt>0</asrwt>
<pdfrwt beam="1">  1       21 0.41805552E-01 0.37190265E+03</pdfrwt>
<pdfrwt beam="2">  1       21 0.18112946E+00 0.37190265E+03</pdfrwt>
<totfact> 0.85588065E+02</totfact>
</mgrwt>
</event>
<event>
 5    0  0.1861957E+000  0.2501230E+03  0.7546771E-02  0.1113227E+00
         21   -1    0    0  503  501  0.00000000000E+00  0.00000000000E+00  0.59803536488E+03  0.59803536488E+03  0.00000000000E+00 0.  1.
         21   -1    0    0  504  502 -0.00000000000E+00 -0.00000000000E+00 -0.34212095316E+03  0.34212095316E+03  0.00000000000E+00 0. -1.
         25    1    1    2    0    0 -0.20369453284E+03 -0.10740147539E+03  0.49470736538E+03  0.55980971498E+03  0.12500000000E+03 0.  0.
         21    1    1    2  503  502  0.79426258101E+02  0.99200723320E+02 -0.22046262855E+03  0.25446627393E+03  0.00000000000E+00 0. -1.
         21    1    1    2  504  501  0.12426827474E+03  0.82007520657E+01 -0.18330325111E+02  0.12588032912E+03  0.00000000000E+00 0. -1.
<mgrwt>
<rscale>  4 0.25012303E+03</rscale>
<asrwt>0</asrwt>
<pdfrwt beam="1">  1       21 0.92005440E-01 0.25012303E+03</pdfrwt>
<pdfrwt beam="2">  1       21 0.52633993E-01 0.25012303E+03</pdfrwt>
<totfact> 0.32707973E+03</totfact>
</mgrwt>
</event>
<event>
 5    0  0.1861957E+000  0.2684501E+03  0.7546771E-02  0.1102170E+00
         21   -1    0    0  504  501  0.00000000000E+00  0.00000000000E+00  0.44431666038E+03  0.44431666038E+03  0.00000000000E+00 0. -1.
         21   -1    0    0  501  502 -0.00000000000E+00 -0.00000000000E+00 -0.34857052571E+03  0.34857052571E+03  0.00000000000E+00 0. -1.
         25    1    1    2    0    0  0.13672912163E+03  0.19675609167E+03  0.28344973371E+03  0.39163320065E+03  0.12500000000E+03 0.  0.
         21    1    1    2  503  502  0.27960466191E+02 -0.29107457018E+02 -0.15953796636E+03  0.16456425625E+03  0.00000000000E+00 0. -1.
         21    1    1    2  504  503 -0.16468958782E+03 -0.16764863466E+03 -0.28165632673E+02  0.23668972919E+03  0.00000000000E+00 0. -1.
<mgrwt>
<rscale>  4 0.26845007E+03</rscale>
<asrwt>0</asrwt>
<pdfrwt beam="1">  1       21 0.68356410E-01 0.26845007E+03</pdfrwt>
<pdfrwt beam="2">  1       21 0.53626234E-01 0.26845007E+03</pdfrwt>
<totfact> 0.61136549E+03</totfact>
</mgrwt>
</event>
<event>
 5    0  0.1861957E+000  0.2794875E+03  0.7546771E-02  0.1095969E+00
         21   -1    0    0  503  501  0.00000000000E+00  0.00000000000E+00  0.10166801226E+03  0.10166801226E+03  0.00000000000E+00 0.  1.
         21   -1    0    0  504  502 -0.00000000000E+00 -0.00000000000E+00 -0.90271785053E+03  0.90271785053E+03  0.00000000000E+00 0.  1.
         25    1    1    2    0    0 -0.19542039172E+03 -0.14348372736E+03 -0.25672123653E+03  0.37457643119E+03  0.12500000000E+03 0.  0.
         21    1    1    2  503  502  0.21776447454E+03  0.14164863291E+03 -0.35901703125E+03  0.44314662393E+03  0.00000000000E+00 0.  1.
         21    1    1    2  504  501 -0.22344082818E+02  0.18350944556E+01 -0.18531157049E+03  0.18666280767E+03  0.00000000000E+00 0. -1.
<mgrwt>
<rscale>  4 0.27948754E+03</rscale>
<asrwt>0</asrwt>
<pdfrwt beam="1">  1       21 0.15641232E-01 0.27948754E+03</pdfrwt>
<pdfrwt beam="2">  1       21 0.13887968E+00 0.27948754E+03</pdfrwt>
<totfact> 0.12594301E+04</totfact>
</mgrwt>
</event>
<event>
 5    0  0.1861957E+000  0.2568528E+03  0.7546771E-02  0.1109049E+00
         21   -1    0    0  504  501  0.00000000000E+00  0.00000000000E+00  0.13503180477E+03  0.13503180477E+03  0.00000000000E+00 0. -1.
         21   -1    0    0  501  502 -0.00000000000E+00 -0.00000000000E+00 -0.88441789968E+03  0.88441789968E+03  0.00000000000E+00 0.  1.
         25    1    1    2    0    0  0.21418328766E+03  0.68780289389E+02 -0.30954737228E+02  0.25920726201E+03  0.12500000000E+03 0.  0.
         21    1    1    2  503  502 -0.11026235934E+02  0.22970448830E+02 -0.63878632574E+02  0.68772807837E+02  0.00000000000E+00 0. -1.
         21    1    1    2  504  503 -0.20315705172E+03 -0.91750738218E+02 -0.65455272511E+03  0.69146963460E+03  0.00000000000E+00 0.  1.
<mgrwt>
<rscale>  4 0.25685281E+03</rscale>
<asrwt>0</asrwt>
<pdfrwt beam="1">  1       21 0.20774123E-01 0.25685281E+03</pdfrwt>
<pdfrwt beam="2">  1       21 0.13606430E+00 0.25685281E+03</pdfrwt>
<totfact> 0.79240129E+03</totfact>
</mgrwt>
</event>
<event>
 5    0  0.1861957E+000  0.2412789E+03  0.7546771E-02  0.1118944E+00
         21   -1    0    0  503  501  0.00000000000E+00  0.00000000000E+00  0.67777773268E+03  0.67777773268E+03  0.00000000000E+00 0.  1.
         21   -1    0    0  504  502 -0.00000000000E+00 -0.00000000000E+00 -0.35064686473E+03  0.35064686473E+03  0.00000000000E+00 0. -1.
         25    1    1    2    0    0 -0.19433897331E+03  0.62481157610E+02  0.59144052047E+03  0.63804264815E+03  0.12500000000E+03 0.  0.
         21    1    1    2  503  502  0.22714244939E+03 -0.65824381482E+02 -0.26774401492E+03  0.35723017655E+03  0.00000000000E+00 0. -1.
         21    1    1    2  504  501 -0.32803476084E+02  0.33432238720E+01  0.34343623937E+01  0.33151772714E+02  0.00000000000E+00 0.  1.
<mgrwt>
<rscale>  4 0.24127890E+03</rscale>
<asrwt>0</asrwt>
<pdfrwt beam="1">  1       21 0.10427350E+00 0.24127890E+03</pdfrwt>
<pdfrwt beam="2">  1       21 0.53945672E-01 0.24127890E+03</pdfrwt>
<totfact> 0.23197513E+03</totfact>
</mgrwt>
</event>
<event>
 5    0  0.1861957E+000  0.5166895E+03  0.7546771E-02  0.1009512E+00
         21   -1    0    0  503  501  0.00000000000E+00  0.00000000000E+00  0.36358295941E+03  0.36358295941E+03  0.00000000000E+00 0. -1.
         21   -1    0    0  504  502 -0.00000000000E+00 -0.00000000000E+00 -0.23959165647E+04  0.23959165647E+04  0.00000000000E+00 0.  1.
         25    1    1    2    0    0 -0.38244881249E+03 -0.38802707392E+03 -0.86530817594E+03  0.10301530681E+04  0.12500000000E+03 0.  0.
         21    1    1    2  503  502  0.24864959993E+03  0.42732326865E+03  0.56754127052E+02  0.49764729519E+03  0.00000000000E+00 0. -1.
         21    1    1    2  504  501  0.13379921256E+03 -0.39296194733E+02 -0.12237795564E+04  0.12316991608E+04  0.00000000000E+00 0.  1.
<mgrwt>
<rscale>  4 0.51668950E+03</rscale>
<asrwt>0</asrwt>
<pdfrwt beam="1">  1       21 0.55935841E-01 0.51668950E+03</pdfrwt>
<pdfrwt beam="2">  1       21 0.36860254E+00 0.51668950E+03</pdfrwt>
<totfact> 0.28832136E+01</totfact>
</mgrwt>
</event>
<event>
 5    0  0.1861957E+000  0.2512473E+03  0.7546771E-02  0.1112519E+00
         21   -1    0    0  504  501  0.00000000000E+00  0.00000000000E+00  0.79397840767E+02  0.79397840767E+02  0.00000000000E+00 0. -1.
         21   -1    0    0  501  502 -0.00000000000E+00 -0.00000000000E+00 -0.13835686519E+04  0.13835686519E+04  0.00000000000E+00 0. -1.
         25    1    1    2    0    0  0.54311582441E+02  0.23017707102E+03 -0.94429332345E+03  0.98145102411E+03  0.12500000000E+03 0.  0.
         21    1    1    2  503  502  0.14535340961E+02 -0.27114444471E+02 -0.22740631921E+03  0.22947789273E+03  0.00000000000E+00 0.  1.
         21    1    1    2  504  503 -0.68846923402E+02 -0.20306262655E+03 -0.13247116852E+03  0.25203757588E+03  0.00000000000E+00 0. -1.
<mgrwt>
<rscale>  4 0.25124730E+03</rscale>
<asrwt>0</asrwt>
<pdfrwt beam="1">  1       21 0.12215052E-01 0.25124730E+03</pdfrwt>
<pdfrwt beam="2">  1       21 0.21285672E+00 0.25124730E+03</pdfrwt>
<totfact> 0.60306099E+03</totfact>
</mgrwt>
</event>
<event>
 5    0  0.1861957E+000  0.2663779E+03  0.7546771E-02  0.1103371E+00
         21   -1    0    0  503  501  0.00000000000E+00  0.00000000000E+00  0.65672957715E+03  0.65672957715E+03  0.00000000000E+00 0.  1.
         21   -1    0    0  504  502 -0.00000000000E+00 -0.00000000000E+00 -0.22967732526E+03  0.22967732526E+03  0.00000000000E+00 0.  1.
         25    1    1    2    0    0 -0.16264544383E+02  0.20755645254E+03  0.51058134052E+03  0.56538705476E+03  0.12500000000E+03 0.  0.
         21    1    1    2  503  502  0.35188482206E+02  0.31041714939E+02  0.30430912891E+02  0.55927254587E+02  0.00000000000E+00 0. -1.
         21    1    1    2  504  501 -0.18923937823E+02 -0.23859816748E+03 -0.11396000152E+03  0.26509259306E+03  0.00000000000E+00 0.  1.
<mgrwt>
<rscale>  4 0.26637787E+03</rscale>
<asrwt>0</asrwt>
<pdfrwt beam="1">  1       21 0.10103532E+00 0.26637787E+03</pdfrwt>
<pdfrwt beam="2">  1       21 0.35334973E-01 0.26637787E+03</pdfrwt>
<totfact> 0.58868971E+03</totfact>
</mgrwt>
</event>
<event>
 5    0  0.1861957E+000  0.3581770E+03  0.7546771E-02  0.1059308E+00
         21   -1    0    0  503  501  0.00000000000E+00  0.00000000000E+00  0.19523237066E+04  0.19523237066E+04  0.00000000000E+00 0. -1.
         21   -1    0    0  504  502 -0.00000000000E+00 -0.00000000000E+00 -0.10481986169E+04  0.10481986169E+04  0.00000000000E+00 0. -1.
         25    1    1    2    0    0  0.22275802354E+03 -0.25176598305E+03  0.16645442687E+04  0.17027448046E+04  0.12500000000E+03 0.  0.
         21    1    1    2  503  502 -0.17109105759E+02 -0.10660328104E+02 -0.92551530321E+03  0.92573481115E+03  0.00000000000E+00 0. -1.
         21    1    1    2  504  501 -0.20564891778E+03  0.26242631115E+03  0.16509612425E+03  0.37204270778E+03  0.00000000000E+00 0.  1.
<mgrwt>
<rscale>  4 0.35817704E+03</rscale>
<asrwt>0</asrwt>
<pdfrwt beam="1">  1       21 0.30035749E+00 0.35817704E+03</pdfrwt>
<pdfrwt beam="2">  1       21 0.16126133E+00 0.35817704E+03</pdfrwt>
<totfact> 0.65809636E+00</totfact>
</mgrwt>
</event>
<event>
 5    0  0.1861957E+000  0.3321855E+03  0.7546771E-02  0.1070174E+00
         21   -1    0    0  504  501  0.00000000000E+00  0.00000000000E+00  0.17625424174E+04  0.17625424174E+04  0.00000000000E+00 0.  1.
         21   -1    0    0  501  502 -0.00000000000E+00 -0.00000000000E+00 -0.79822069992E+02  0.79822069992E+02  0.00000000000E+00 0.  1.
         25    1    1    2    0    0  0.28168434122E+03 -0.83431170861E+02  0.68691611105E+03  0.75748635102E+03  0.12500000000E+03 0.  0.
         21    1    1    2  503  502  0.29776116467E+02  0.19264253688E+02 -0.40284577448E+01  0.35692534987E+02  0.00000000000E+00 0.  1.
         21    1    1    2  504  503 -0.31146045768E+03  0.64166917173E+02  0.99983269409E+03  0.10491856014E+04  0.00000000000E+00 0.  1.
<mgrwt>
<rscale>  4 0.33218546E+03</rscale>
<asrwt>0</asrwt>
<pdfrwt beam="1">  1       21 0.27116034E+00 0.33218546E+03</pdfrwt>
<pdfrwt beam="2">  1       21 0.12280320E-01 0.33218546E+03</pdfrwt>
<totfact> 0.24934521E+03</totfact>
</mgrwt>
</event>
<event>
 5    0  0.1861957E+000  0.3757890E+03  0.7546771E-02  0.1052501E+00
         21   -1    0    0  502  501  0.00000000000E+00  0.00000000000E+00  0.74614262332E+03  0.74614262332E+03  0.00000000000E+00 0. -1.
         21   -1    0    0  503  502 -0.00000000000E+00 -0.00000000000E+00 -0.35085804369E+03  0.35085804369E+03  0.00000000000E+00 0.  1.
         25    1    1    2    0    0 -0.33274794207E+03  0.15300486725E+03  0.47205934083E+03  0.61040699834E+03  0.12500000000E+03 0.  0.
         21    1    1    2  503  504  0.22997564622E+03 -0.24901107858E+03 -0.67740947542E+02  0.34566479584E+03  0.00000000000E+00 0.  1.
         21    1    1    2  504  501  0.10277229585E+03  0.96006211323E+02 -0.90338136636E+01  0.14092887283E+03  0.00000000000E+00 0.  1.
<mgrwt>
<rscale>  4 0.37578900E+03</rscale>
<asrwt>0</asrwt>
<pdfrwt beam="1">  1       21 0.11479117E+00 0.37578900E+03</pdfrwt>
<pdfrwt beam="2">  1       21 0.53978161E-01 0.37578900E+03</pdfrwt>
<totfact> 0.16923566E+03</totfact>
</mgrwt>
</event>
<event>
 5    0  0.1861957E+000  0.2589285E+03  0.7546771E-02  0.1107789E+00
         21   -1    0    0  503  501  0.00000000000E+00  0.00000000000E+00  0.36678630042E+03  0.36678630042E+03  0.00000000000E+00 0. -1.
         21   -1    0    0  504  502 -0.00000000000E+00 -0.00000000000E+00 -0.29007493798E+03  0.29007493798E+03  0.00000000000E+00 0. -1.
         25    1    1    2    0    0 -0.48520311778E+02  0.21143882674E+03  0.19847497624E+03  0.31949634474E+03  0.12500000000E+03 0.  0.
         21    1    1    2  503  502 -0.71306946066E+01  0.33762666468E+02 -0.73694923622E+02  0.81373866937E+02  0.00000000000E+00 0. -1.
         21    1    1    2  504  501  0.55651006384E+02 -0.24520149321E+03 -0.48068690176E+02  0.25599102672E+03  0.00000000000E+00 0. -1.
<mgrwt>
<rscale>  4 0.25892845E+03</rscale>
<asrwt>0</asrwt>
<pdfrwt beam="1">  1       21 0.56428662E-01 0.25892845E+03</pdfrwt>
<pdfrwt beam="2">  1       21 0.44626913E-01 0.25892845E+03</pdfrwt>
<totfact> 0.13706510E+04</totfact>
</mgrwt>
</event>
<event>
 5    0  0.1861957E+000  0.2648723E+03  0.7546771E-02  0.1104251E+00
         21   -1    0    0  504  501  0.00000000000E+00  0.00000000000E+00  0.62401871955E+03  0.62401871955E+03  0.00000000000E+00 0.  1.
         21   -1    0    0  501  502 -0.00000000000E+00 -0.00000000000E+00 -0.16116683113E+03  0.16116683113E+03  0.00000000000E+00 0.  1.
         25    1    1    2    0    0 -0.22395567336E+03  0.25918226936E+02  0.38280883565E+03  0.46151435814E+03  0.12500000000E+03 0.  0.
         21    1    1    2  503  502 -0.21210446035E+02  0.27563517833E+02 -0.33461088604E+02  0.48262562995E+02  0.00000000000E+00 0.  1.
         21    1    1    2  504  503  0.24516611939E+03 -0.53481744769E+02  0.11350414137E+03  0.27540862955E+03  0.00000000000E+00 0.  1.
<mgrwt>
<rscale>  4 0.26487234E+03</rscale>
<asrwt>0</asrwt>
<pdfrwt beam="1">  1       21 0.96002879E-01 0.26487234E+03</pdfrwt>
<pdfrwt beam="2">  1       21 0.24794897E-01 0.26487234E+03</pdfrwt>
<totfact> 0.13330896E+04</totfact>
</mgrwt>
</event>
<event>
 5    0  0.1861957E+000  0.2763313E+03  0.7546771E-02  0.1097710E+00
         21   -1    0    0  504  501  0.00000000000E+00  0.00000000000E+00  0.26558696653E+03  0.26558696653E+03  0.00000000000E+00 0. -1.
         21   -1    0    0  501  502 -0.00000000000E+00 -0.00000000000E+00 -0.17112989235E+04  0.17112989235E+04  0.00000000000E+00 0. -1.
         25    1    1    2    0    0 -0.19595112697E+03 -0.13431681412E+03 -0.15474528359E+03  0.30985311602E+03  0.12500000000E+03 0.  0.
         21    1    1    2  503  502  0.80317356279E+00 -0.21596635769E+02 -0.13959260259E+04  0.13960933098E+04  0.00000000000E+00 0. -1.
         21    1    1    2  504  503  0.19514795341E+03  0.15591344989E+03  0.10495935257E+03  0.27093946421E+03  0.00000000000E+00 0. -1.
<mgrwt>
<rscale>  4 0.27633128E+03</rscale>
<asrwt>0</asrwt>
<pdfrwt beam="1">  1       21 0.40859535E-01 0.27633128E+03</pdfrwt>
<pdfrwt beam="2">  1       21 0.26327675E+00 0.27633128E+03</pdfrwt>
<totfact> 0.29067087E+02</totfact>
</mgrwt>
</event>
<event>
 5    0  0.1861957E+000  0.2400513E+03  0.7546771E-02  0.1119759E+00
         21   -1    0    0  503  501  0.00000000000E+00  0.00000000000E+00  0.24343805201E+03  0.24343805201E+03  0.00000000000E+00 0. -1.
         21   -1    0    0  504  502 -0.00000000000E+00 -0.00000000000E+00 -0.50732598772E+03  0.50732598772E+03  0.00000000000E+00 0. -1.
         25    1    1    2    0    0 -0.48666853238E+02 -0.20316599924E+03  0.12877652476E+03  0.27541474031E+03  0.12500000000E+03 0.  0.
         21    1    1    2  503  502 -0.58982963502E+02  0.38815043821E+02 -0.87924020567E+02  0.11276626713E+03  0.00000000000E+00 0.  1.
         21    1    1    2  504  501  0.10764981674E+03  0.16435095542E+03 -0.30474043990E+03  0.36258303228E+03  0.00000000000E+00 0. -1.
<mgrwt>
<rscale>  4 0.24005128E+03</rscale>
<asrwt>0</asrwt>
<pdfrwt beam="1">  1       21 0.37452008E-01 0.24005128E+03</pdfrwt>
<pdfrwt beam="2">  1       21 0.78050151E-01 0.24005128E+03</pdfrwt>
<totfact> 0.96967753E+03</totfact>
</mgrwt>
</event>
<event>
 5    0  0.1861957E+000  0.2305429E+03  0.7546771E-02  0.1126258E+00
         21   -1    0    0  503  501  0.00000000000E+00  0.00000000000E+00  0.58953840499E+02  0.58953840499E+02  0.00000000000E+00 0.  1.
         21   -1    0    0  504  502 -0.00000000000E+00 -0.00000000000E+00 -0.15925908580E+04  0.15925908580E+04  0.00000000000E+00 0.  1.
         25    1    1    2    0    0 -0.19148927190E+03  0.71080196955E+02 -0.24455493099E+03  0.34227569286E+03  0.12500000000E+03 0.  0.
         21    1    1    2  503  502  0.16299797919E+03 -0.38122096020E+02 -0.75119019628E+03  0.76961571347E+03  0.00000000000E+00 0.  1.
         21    1    1    2  504  501  0.28491292712E+02 -0.32958100935E+02 -0.53789189022E+03  0.53965329216E+03  0.00000000000E+00 0. -1.
<mgrwt>
<rscale>  4 0.23054289E+03</rscale>
<asrwt>0</asrwt>
<pdfrwt beam="1">  1       21 0.90698219E-02 0.23054289E+03</pdfrwt>
<pdfrwt beam="2">  1       21 0.24501397E+00 0.23054289E+03</pdfrwt>
<totfact> 0.66198268E+03</totfact>
</mgrwt>
</event>
<event>
 5    0  0.1861957E+000  0.2437168E+03  0.7546771E-02  0.1117341E+00
         21   -1    0    0  503  501  0.00000000000E+00  0.00000000000E+00  0.15398813711E+04  0.15398813711E+04  0.00000000000E+00 0. -1.
         21   -1    0    0  504  502 -0.00000000000E+00 -0.00000000000E+00 -0.89699618228E+02  0.89699618228E+02  0.00000000000E+00 0. -1.
         25    1    1    2    0    0  0.21013110163E+02  0.20566858666E+03  0.13304690249E+04  0.13522255524E+04  0.12500000000E+03 0.  0.
         21    1    1    2  503  502 -0.13645717107E+02  0.19667420279E+02  0.52483221236E+01  0.24506282886E+02  0.00000000000E+00 0. -1.
         21    1    1    2  504  501 -0.73673930563E+01 -0.22533600694E+03  0.11446440589E+03  0.25284915408E+03  0.00000000000E+00 0. -1.
<mgrwt>
<rscale>  4 0.24371678E+03</rscale>
<asrwt>0</asrwt>
<pdfrwt beam="1">  1       21 0.23690481E+00 0.24371678E+03</pdfrwt>
<pdfrwt beam="2">  1       21 0.13799942E-01 0.24371678E+03</pdfrwt>
<totfact> 0.34563770E+03</totfact>
</mgrwt>
</event>
<event>
 5    0  0.1861957E+000  0.3050417E+03  0.7546771E-02  0.1082747E+00
         21   -1    0    0  504  501  0.00000000000E+00  0.00000000000E+00  0.56934956413E+03  0.56934956413E+03  0.00000000000E+00 0. -1.
         21   -1    0    0  503  502 -0.00000000000E+00 -0.00000000000E+00 -0.19953810651E+04  0.19953810651E+04  0.00000000000E+00 0. -1.
         25    1    1    2    0    0 -0.18517486253E+03  0.86395269962E+02 -0.10450097551E+03  0.26134139792E+03  0.12500000000E+03 0.  0.
         21    1    1    2  503  501  0.22479524115E+03 -0.19616334694E+03  0.44349505776E+03  0.53450989269E+03  0.00000000000E+00 0. -1.
         21    1    1    2  504  502 -0.39620378619E+02  0.10976807698E+03 -0.17650255832E+04  0.17688793386E+04  0.00000000000E+00 0. -1.
<mgrwt>
<rscale>  4 0.30504165E+03</rscale>
<asrwt>0</asrwt>
<pdfrwt beam="1">  1       21 0.87592240E-01 0.30504165E+03</pdfrwt>
<pdfrwt beam="2">  1       21 0.30698170E+00 0.30504165E+03</pdfrwt>
<totfact> 0.29685904E+01</totfact>
</mgrwt>
</event>
<event>
 5    0  0.1861957E+000  0.2386109E+03  0.7546771E-02  0.1120722E+00
         21   -1    0    0  504  501  0.00000000000E+00  0.00000000000E+00  0.22475665250E+03  0.22475665250E+03  0.00000000000E+00 0. -1.
         21   -1    0    0  501  502 -0.00000000000E+00 -0.00000000000E+00 -0.43689878657E+03  0.43689878657E+03  0.00000000000E+00 0. -1.
         25    1    1    2    0    0  0.18129133936E+03 -0.10571196762E+03  0.10287169688E+03  0.26504557315E+03  0.12500000000E+03 0.  0.
         21    1    1    2  503  502 -0.20854581638E+02  0.12434218188E+02 -0.13808353098E+03  0.14020194323E+03  0.00000000000E+00 0. -1.
         21    1    1    2  504  503 -0.16043675773E+03  0.93277749433E+02 -0.17693029997E+03  0.25640792269E+03  0.00000000000E+00 0. -1.
<mgrwt>
<rscale>  4 0.23861092E+03</rscale>
<asrwt>0</asrwt>
<pdfrwt beam="1">  1       21 0.34577947E-01 0.23861092E+03</pdfrwt>
<pdfrwt beam="2">  1       21 0.67215197E-01 0.23861092E+03</pdfrwt>
<totfact> 0.15894280E+04</totfact>
</mgrwt>
</event>
<event>
 5    0  0.1861957E+000  0.3935927E+03  0.7546771E-02  0.1047000E+00
         21   -1    0    0  504  501  0.00000000000E+00  0.00000000000E+00  0.11374449714E+04  0.11374449714E+04  0.00000000000E+00 0.  1.
         21   -1    0    0  501  502 -0.00000000000E+00 -0.00000000000E+00 -0.34624117143E+03  0.34624117143E+03  0.00000000000E+00 0.  1.
         25    1    1    2    0    0 -0.29041540544E+03  0.21559533843E+03  0.97638857648E+03  0.10487049680E+04  0.12500000000E+03 0.  0.
         21    1    1    2  503  502  0.11640394305E+03 -0.58173869184E+01 -0.86376534562E+02  0.14506765894E+03  0.00000000000E+00 0.  1.
         21    1    1    2  504  503  0.17401146240E+03 -0.20977795151E+03 -0.98808241978E+02  0.28991351584E+03  0.00000000000E+00 0.  1.
<mgrwt>
<rscale>  4 0.39083686E+03</rscale>
<asrwt>0</asrwt>
<pdfrwt beam="1">  1       21 0.17499153E+00 0.39359271E+03</pdfrwt>
<pdfrwt beam="2">  1       21 0.53267873E-01 0.39359271E+03</pdfrwt>
<totfact> 0.56138132E+02</totfact>
</mgrwt>
</event>
<event>
 5    0  0.1861957E+000  0.3051760E+03  0.7546771E-02  0.1082681E+00
         21   -1    0    0  503  501  0.00000000000E+00  0.00000000000E+00  0.88431052220E+03  0.88431052220E+03  0.00000000000E+00 0. -1.
         21   -1    0    0  504  502 -0.00000000000E+00 -0.00000000000E+00 -0.84713049253E+03  0.84713049253E+03  0.00000000000E+00 0. -1.
         25    1    1    2    0    0  0.25108632069E+03  0.11295803868E+03  0.75564060768E+03  0.81389285960E+03  0.12500000000E+03 0.  0.
         21    1    1    2  503  502 -0.26983201176E+03 -0.13838715641E+03 -0.13282841672E+03  0.33106450719E+03  0.00000000000E+00 0. -1.
         21    1    1    2  504  501  0.18745691075E+02  0.25429117732E+02 -0.58563216129E+03  0.58648364794E+03  0.00000000000E+00 0. -1.
<mgrwt>
<rscale>  4 0.30517602E+03</rscale>
<asrwt>0</asrwt>
<pdfrwt beam="1">  1       21 0.13604777E+00 0.30517602E+03</pdfrwt>
<pdfrwt beam="2">  1       21 0.13032777E+00 0.30517602E+03</pdfrwt>
<totfact> 0.14720062E+02</totfact>
</mgrwt>
</event>
<event>
 5    0  0.1861957E+000  0.2658932E+03  0.7546771E-02  0.1103653E+00
         21   -1    0    0  503  501  0.00000000000E+00  0.00000000000E+00  0.15336195949E+03  0.15336195949E+03  0.00000000000E+00 0. -1.
         21   -1    0    0  504  502 -0.00000000000E+00 -0.00000000000E+00 -0.59500247557E+03  0.59500247557E+03  0.00000000000E+00 0. -1.
         25    1    1    2    0    0 -0.12146448120E+03 -0.19381001097E+03 -0.76394555701E+02  0.27161934520E+03  0.12500000000E+03 0.  0.
         21    1    1    2  503  502 -0.21757204544E+02 -0.40938953024E+01 -0.14856053784E+03  0.15020109630E+03  0.00000000000E+00 0. -1.
         21    1    1    2  504  501  0.14322168575E+03  0.19790390628E+03 -0.21668542254E+03  0.32654399356E+03  0.00000000000E+00 0. -1.
<mgrwt>
<rscale>  4 0.26589320E+03</rscale>
<asrwt>0</asrwt>
<pdfrwt beam="1">  1       21 0.23594148E-01 0.26589320E+03</pdfrwt>
<pdfrwt beam="2">  1       21 0.91538841E-01 0.26589320E+03</pdfrwt>
<totfact> 0.16394203E+04</totfact>
</mgrwt>
</event>
<event>
 5    0  0.1861957E+000  0.3773231E+03  0.7546771E-02  0.1051928E+00
         21   -1    0    0  504  501  0.00000000000E+00  0.00000000000E+00  0.13344770800E+03  0.13344770800E+03  0.00000000000E+00 0.  1.
         21   -1    0    0  501  502 -0.00000000000E+00 -0.00000000000E+00 -0.12031032099E+04  0.12031032099E+04  0.00000000000E+00 0.  1.
         25    1    1    2    0    0 -0.32888910918E+03  0.16146836625E+03 -0.48995381747E+03  0.62443560332E+03  0.12500000000E+03 0.  0.
         21    1    1    2  503  502  0.14025904329E+02 -0.14463534744E+02 -0.18562345727E+03  0.18671365167E+03  0.00000000000E+00 0.  1.
         21    1    1    2  504  503  0.31486320485E+03 -0.14700483151E+03 -0.39407822712E+03  0.52540166287E+03  0.00000000000E+00 0.  1.
<mgrwt>
<rscale>  4 0.37732307E+03</rscale>
<asrwt>0</asrwt>
<pdfrwt beam="1">  1       21 0.20530417E-01 0.37732307E+03</pdfrwt>
<pdfrwt beam="2">  1       21 0.18509279E+00 0.37732307E+03</pdfrwt>
<totfact> 0.32663044E+03</totfact>
</mgrwt>
</event>
<event>
 5    0  0.1861957E+000  0.5169064E+03  0.7546771E-02  0.1009458E+00
         21   -1    0    0  503  501  0.00000000000E+00  0.00000000000E+00  0.10981788531E+04  0.10981788531E+04  0.00000000000E+00 0.  1.
         21   -1    0    0  504  502 -0.00000000000E+00 -0.00000000000E+00 -0.87436219534E+03  0.87436219534E+03  0.00000000000E+00 0.  1.
         25    1    1    2    0    0 -0.18417105519E+03 -0.37366186381E+03  0.64247631192E+03  0.77584984206E+03  0.12500000000E+03 0.  0.
         21    1    1    2  503  502 -0.27028511513E+03  0.11819616669E+03  0.22309901464E+03  0.36986152492E+03  0.00000000000E+00 0.  1.
         21    1    1    2  504  501  0.45445617032E+03  0.25546569712E+03 -0.64175866881E+03  0.82682968146E+03  0.00000000000E+00 0.  1.
<mgrwt>
<rscale>  4 0.51690643E+03</rscale>
<asrwt>0</asrwt>
<pdfrwt beam="1">  1       21 0.16895059E+00 0.51690643E+03</pdfrwt>
<pdfrwt beam="2">  1       21 0.13451726E+00 0.51690643E+03</pdfrwt>
<totfact> 0.65730000E+01</totfact>
</mgrwt>
</event>
<event>
 5    0  0.1861957E+000  0.3869896E+03  0.7546771E-02  0.1048380E+00
         21   -1    0    0  504  501  0.00000000000E+00  0.00000000000E+00  0.57995301098E+03  0.57995301098E+03  0.00000000000E+00 0.  1.
         21   -1    0    0  501  502 -0.00000000000E+00 -0.00000000000E+00 -0.87271246575E+03  0.87271246575E+03  0.00000000000E+00 0.  1.
         25    1    1    2    0    0 -0.27424119903E+03 -0.24384797400E+03  0.45329242518E+03  0.59646382320E+03  0.12500000000E+03 0.  0.
         21    1    1    2  503  502  0.37554768551E+02 -0.30872583586E+02 -0.15823551223E+03  0.16553535691E+03  0.00000000000E+00 0.  1.
         21    1    1    2  504  503  0.23668643047E+03  0.27472055758E+03 -0.58781636771E+03  0.69066629662E+03  0.00000000000E+00 0.  1.
<mgrwt>
<rscale>  4 0.38698960E+03</rscale>
<asrwt>0</asrwt>
<pdfrwt beam="1">  1       21 0.89223540E-01 0.38698960E+03</pdfrwt>
<pdfrwt beam="2">  1       21 0.13426346E+00 0.38698960E+03</pdfrwt>
<totfact> 0.36549443E+02</totfact>
</mgrwt>
</event>
<event>
 5    0  0.1861957E+000  0.2447712E+03  0.7546771E-02  0.1116655E+00
         21   -1    0    0  504  501  0.00000000000E+00  0.00000000000E+00  0.50228824316E+03  0.50228824316E+03  0.00000000000E+00 0. -1.
         21   -1    0    0  503  502 -0.00000000000E+00 -0.00000000000E+00 -0.80837580844E+03  0.80837580844E+03  0.00000000000E+00 0. -1.
         25    1    1    2    0    0  0.72721213829E+02 -0.18934344399E+03  0.36516405091E+03  0.43601502130E+03  0.12500000000E+03 0.  0.
         21    1    1    2  503  501  0.61555506032E+02  0.30808097134E+03 -0.20501914600E+03  0.37514772484E+03  0.00000000000E+00 0. -1.
         21    1    1    2  504  502 -0.13427671986E+03 -0.11873752735E+03 -0.46623247018E+03  0.49950130546E+03  0.00000000000E+00 0. -1.
<mgrwt>
<rscale>  4 0.24477123E+03</rscale>
<asrwt>0</asrwt>
<pdfrwt beam="1">  1       21 0.77275114E-01 0.24477123E+03</pdfrwt>
<pdfrwt beam="2">  1       21 0.12436551E+00 0.24477123E+03</pdfrwt>
<totfact> 0.68311351E+02</totfact>
</mgrwt>
</event>
<event>
 5    0  0.1861957E+000  0.3720549E+03  0.7546771E-02  0.1053910E+00
         21   -1    0    0  504  501  0.00000000000E+00  0.00000000000E+00  0.96678211447E+03  0.96678211447E+03  0.00000000000E+00 0. -1.
         21   -1    0    0  501  502 -0.00000000000E+00 -0.00000000000E+00 -0.21489024477E+03  0.21489024477E+03  0.00000000000E+00 0. -1.
         25    1    1    2    0    0 -0.33847569609E+03 -0.38892660985E+02  0.54930313343E+03  0.65835960410E+03  0.12500000000E+03 0.  0.
         21    1    1    2  503  502 -0.25226918754E+02 -0.11564008812E+02 -0.63866142930E+02  0.69634818463E+02  0.00000000000E+00 0. -1.
         21    1    1    2  504  503  0.36370261484E+03  0.50456669797E+02  0.26645487921E+03  0.45367793667E+03  0.00000000000E+00 0. -1.
<mgrwt>
<rscale>  4 0.37205488E+03</rscale>
<asrwt>0</asrwt>
<pdfrwt beam="1">  1       21 0.14873571E+00 0.37205488E+03</pdfrwt>
<pdfrwt beam="2">  1       21 0.33060038E-01 0.37205488E+03</pdfrwt>
<totfact> 0.23907925E+03</totfact>
</mgrwt>
</event>
<event>
 5    0  0.1861957E+000  0.3707353E+03  0.7546771E-02  0.1054412E+00
         21   -1    0    0  502  501  0.00000000000E+00  0.00000000000E+00  0.26746297600E+03  0.26746297600E+03  0.00000000000E+00 0.  1.
         21   -1    0    0  503  502 -0.00000000000E+00 -0.00000000000E+00 -0.10749689357E+04  0.10749689357E+04  0.00000000000E+00 0.  1.
         25    1    1    2    0    0 -0.31358060260E+03 -0.14349290061E+03  0.69844288212E+02  0.37339822100E+03  0.12500000000E+03 0.  0.
         21    1    1    2  503  504  0.34759889317E+03  0.13658092660E+03 -0.83152858540E+03  0.91154765558E+03  0.00000000000E+00 0.  1.
         21    1    1    2  504  501 -0.34018290572E+02  0.69119740129E+01 -0.45821662457E+02  0.57486035074E+02  0.00000000000E+00 0. -1.
<mgrwt>
<rscale>  4 0.37073532E+03</rscale>
<asrwt>0</asrwt>
<pdfrwt beam="1">  1       21 0.41148150E-01 0.37073532E+03</pdfrwt>
<pdfrwt beam="2">  1       21 0.16537984E+00 0.37073532E+03</pdfrwt>
<totfact> 0.11468989E+03</totfact>
</mgrwt>
</event>
<event>
 5    0  0.1861957E+000  0.2801488E+03  0.7546771E-02  0.1095608E+00
         21   -1    0    0  504  501  0.00000000000E+00  0.00000000000E+00  0.11627897387E+04  0.11627897387E+04  0.00000000000E+00 0.  1.
         21   -1    0    0  501  502 -0.00000000000E+00 -0.00000000000E+00 -0.12593263547E+03  0.12593263547E+03  0.00000000000E+00 0. -1.
         25    1    1    2    0    0 -0.12683199414E+03 -0.21513319440E+03  0.91569694373E+03  0.95733721270E+03  0.12500000000E+03 0.  0.
         21    1    1    2  503  502  0.33973192956E+02 -0.25706771316E+02  0.45659385397E+02  0.62448341899E+02  0.00000000000E+00 0. -1.
         21    1    1    2  504  503  0.92858801187E+02  0.24083996572E+03  0.75500774137E+02  0.26893681960E+03  0.00000000000E+00 0. -1.
<mgrwt>
<rscale>  4 0.28014877E+03</rscale>
<asrwt>0</asrwt>
<pdfrwt beam="1">  1       21 0.17889072E+00 0.28014877E+03</pdfrwt>
<pdfrwt beam="2">  1       21 0.19374252E-01 0.28014877E+03</pdfrwt>
<totfact> 0.42419219E+03</totfact>
</mgrwt>
</event>
<event>
 5    0  0.1861957E+000  0.2880357E+03  0.7546771E-02  0.1091379E+00
         21   -1    0    0  504  501  0.00000000000E+00  0.00000000000E+00  0.56277064911E+03  0.56277064911E+03  0.00000000000E+00 0.  1.
         21   -1    0    0  501  502 -0.00000000000E+00 -0.00000000000E+00 -0.21041544378E+03  0.21041544378E+03  0.00000000000E+00 0.  1.
         25    1    1    2    0    0  0.21788860423E+03 -0.14098918009E+03  0.10714154057E+03  0.30733971834E+03  0.12500000000E+03 0.  0.
         21    1    1    2  503  502 -0.12575809321E+02 -0.18188437130E+02 -0.60643447140E+02  0.64549189819E+02  0.00000000000E+00 0. -1.
         21    1    1    2  504  503 -0.20531279491E+03  0.15917761722E+03  0.30585711190E+03  0.40129718473E+03  0.00000000000E+00 0.  1.
<mgrwt>
<rscale>  4 0.28803574E+03</rscale>
<asrwt>0</asrwt>
<pdfrwt beam="1">  1       21 0.86580099E-01 0.28803574E+03</pdfrwt>
<pdfrwt beam="2">  1       21 0.32371607E-01 0.28803574E+03</pdfrwt>
<totfact> 0.99764617E+03</totfact>
</mgrwt>
</event>
<event>
 5    0  0.1861957E+000  0.3094557E+03  0.7546771E-02  0.1080607E+00
         21   -1    0    0  503  501  0.00000000000E+00  0.00000000000E+00  0.74219397288E+03  0.74219397288E+03  0.00000000000E+00 0. -1.
         21   -1    0    0  504  502 -0.00000000000E+00 -0.00000000000E+00 -0.93895395288E+03  0.93895395288E+03  0.00000000000E+00 0. -1.
         25    1    1    2    0    0  0.14683683817E+03  0.18676710248E+03  0.22688064479E+03  0.35148660656E+03  0.12500000000E+03 0.  0.
         21    1    1    2  503  502  0.68441701295E+02  0.58684718678E+02 -0.81501679706E+03  0.81998813539E+03  0.00000000000E+00 0. -1.
         21    1    1    2  504  501 -0.21527853947E+03 -0.24545182115E+03  0.39137617228E+03  0.50967318380E+03  0.00000000000E+00 0. -1.
<mgrwt>
<rscale>  4 0.30945567E+03</rscale>
<asrwt>0</asrwt>
<pdfrwt beam="1">  1       21 0.11418369E+00 0.30945567E+03</pdfrwt>
<pdfrwt beam="2">  1       21 0.14445445E+00 0.30945567E+03</pdfrwt>
<totfact> 0.17491114E+02</totfact>
</mgrwt>
</event>
<event>
 5    0  0.1861957E+000  0.2599021E+03  0.7546771E-02  0.1107202E+00
         21   -1    0    0  504  501  0.00000000000E+00  0.00000000000E+00  0.19206270709E+03  0.19206270709E+03  0.00000000000E+00 0. -1.
         21   -1    0    0  501  502 -0.00000000000E+00 -0.00000000000E+00 -0.56743901245E+03  0.56743901245E+03  0.00000000000E+00 0. -1.
         25    1    1    2    0    0  0.11256130067E+03  0.22106829162E+03 -0.15631695100E+03  0.31874947080E+03  0.12500000000E+03 0.  0.
         21    1    1    2  503  502 -0.20895709917E+02 -0.22548672336E+02 -0.21995148201E+03  0.22208945891E+03  0.00000000000E+00 0. -1.
         21    1    1    2  504  503 -0.91665590750E+02 -0.19851961928E+03  0.89212765501E+00  0.21866278984E+03  0.00000000000E+00 0. -1.
<mgrwt>
<rscale>  4 0.25990205E+03</rscale>
<asrwt>0</asrwt>
<pdfrwt beam="1">  1       21 0.29548109E-01 0.25990205E+03</pdfrwt>
<pdfrwt beam="2">  1       21 0.87298310E-01 0.25990205E+03</pdfrwt>
<totfact> 0.11882542E+04</totfact>
</mgrwt>
</event>
<event>
 5    0  0.1861957E+000  0.2795806E+03  0.7546771E-02  0.1095918E+00
         21   -1    0    0  504  501  0.00000000000E+00  0.00000000000E+00  0.32150763668E+03  0.32150763668E+03  0.00000000000E+00 0.  1.
         21   -1    0    0  503  502 -0.00000000000E+00 -0.00000000000E+00 -0.11631971836E+04  0.11631971836E+04  0.00000000000E+00 0.  1.
         25    1    1    2    0    0  0.24976855311E+03  0.26008025775E+02  0.23473548012E+03  0.36576835997E+03  0.12500000000E+03 0.  0.
         21    1    1    2  503  501 -0.22796788438E+03 -0.65682829435E+02 -0.10165917502E+04  0.10439072645E+04  0.00000000000E+00 0.  1.
         21    1    1    2  504  502 -0.21800668725E+02  0.39674803660E+02 -0.59833276849E+02  0.75029195789E+02  0.00000000000E+00 0.  1.
<mgrwt>
<rscale>  4 0.27958064E+03</rscale>
<asrwt>0</asrwt>
<pdfrwt beam="1">  1       21 0.49462713E-01 0.27958064E+03</pdfrwt>
<pdfrwt beam="2">  1       21 0.17895341E+00 0.27958064E+03</pdfrwt>
<totfact> 0.66355026E+02</totfact>
</mgrwt>
</event>
<event>
 5    0  0.1861957E+000  0.2532076E+03  0.7546771E-02  0.1111294E+00
         21   -1    0    0  503  501  0.00000000000E+00  0.00000000000E+00  0.15004104927E+04  0.15004104927E+04  0.00000000000E+00 0.  1.
         21   -1    0    0  504  502 -0.00000000000E+00 -0.00000000000E+00 -0.63706975753E+02  0.63706975753E+02  0.00000000000E+00 0.  1.
         25    1    1    2    0    0 -0.20960600464E+03 -0.49517236670E+02  0.74043811177E+03  0.78119154583E+03  0.12500000000E+03 0.  0.
         21    1    1    2  503  502  0.13021614246E+01 -0.37414819192E+02 -0.12198302232E+02  0.39374647896E+02  0.00000000000E+00 0. -1.
         21    1    1    2  504  501  0.20830384322E+03  0.86932055862E+02  0.70846370739E+03  0.74355127471E+03  0.00000000000E+00 0.  1.
<mgrwt>
<rscale>  4 0.25320760E+03</rscale>
<asrwt>0</asrwt>
<pdfrwt beam="1">  1       21 0.23083236E+00 0.25320760E+03</pdfrwt>
<pdfrwt beam="2">  1       21 0.98010743E-02 0.25320760E+03</pdfrwt>
<totfact> 0.69058904E+03</totfact>
</mgrwt>
</event>
<event>
 5    0  0.1861957E+000  0.2367675E+03  0.7546771E-02  0.1121965E+00
         21   -1    0    0  503  501  0.00000000000E+00  0.00000000000E+00  0.12652715226E+03  0.12652715226E+03  0.00000000000E+00 0. -1.
         21   -1    0    0  504  502 -0.00000000000E+00 -0.00000000000E+00 -0.16660630574E+04  0.16660630574E+04  0.00000000000E+00 0. -1.
         25    1    1    2    0    0 -0.13142888920E+03  0.16266332659E+03 -0.88644154570E+03  0.91931307218E+03  0.12500000000E+03 0.  0.
         21    1    1    2  503  502 -0.65466651816E+02 -0.10873147694E+03 -0.65694481777E+03  0.66909260209E+03  0.00000000000E+00 0. -1.
         21    1    1    2  504  501  0.19689554102E+03 -0.53931849649E+02  0.38504582875E+01  0.20418453543E+03  0.00000000000E+00 0. -1.
<mgrwt>
<rscale>  4 0.23676754E+03</rscale>
<asrwt>0</asrwt>
<pdfrwt beam="1">  1       21 0.19465717E-01 0.23676754E+03</pdfrwt>
<pdfrwt beam="2">  1       21 0.25631738E+00 0.23676754E+03</pdfrwt>
<totfact> 0.14119974E+03</totfact>
</mgrwt>
</event>
<event>
 5    0  0.1861957E+000  0.3210868E+03  0.7546771E-02  0.1075150E+00
         21   -1    0    0  504  501  0.00000000000E+00  0.00000000000E+00  0.18034483697E+03  0.18034483697E+03  0.00000000000E+00 0.  1.
         21   -1    0    0  503  502 -0.00000000000E+00 -0.00000000000E+00 -0.11273699033E+04  0.11273699033E+04  0.00000000000E+00 0.  1.
         25    1    1    2    0    0 -0.17703329901E+03 -0.24162223267E+03 -0.25618416461E+02  0.32558162654E+03  0.12500000000E+03 0.  0.
         21    1    1    2  503  501  0.18354940572E+03  0.21406785191E+03 -0.64078090883E+03  0.70008256847E+03  0.00000000000E+00 0.  1.
         21    1    1    2  504  502 -0.65161067129E+01  0.27554380763E+02 -0.28062574101E+03  0.28205054522E+03  0.00000000000E+00 0. -1.
<mgrwt>
<rscale>  4 0.32108685E+03</rscale>
<asrwt>0</asrwt>
<pdfrwt beam="1">  1       21 0.27745360E-01 0.32108685E+03</pdfrwt>
<pdfrwt beam="2">  1       21 0.17344152E+00 0.32108685E+03</pdfrwt>
<totfact> 0.22723307E+03</totfact>
</mgrwt>
</event>
<event>
 5    0  0.1861957E+000  0.3039785E+03  0.7546771E-02  0.1083269E+00
         21   -1    0    0  503  501  0.00000000000E+00  0.00000000000E+00  0.23938453013E+04  0.23938453013E+04  0.00000000000E+00 0. -1.
         21   -1    0    0  504  502 -0.00000000000E+00 -0.00000000000E+00 -0.53508604309E+02  0.53508604309E+02  0.00000000000E+00 0. -1.
         25    1    1    2    0    0 -0.66726667599E+02  0.29694467418E+03  0.11361880511E+04  0.11828680717E+04  0.12500000000E+03 0.  0.
         21    1    1    2  503  502 -0.16404717757E+02 -0.26271093528E+03  0.10774080703E+04  0.11090961637E+04  0.00000000000E+00 0. -1.
         21    1    1    2  504  501  0.83131385356E+02 -0.34233738895E+02  0.12674057564E+03  0.15538967026E+03  0.00000000000E+00 0. -1.
<mgrwt>
<rscale>  4 0.30397846E+03</rscale>
<asrwt>0</asrwt>
<pdfrwt beam="1">  1       21 0.36828381E+00 0.30397846E+03</pdfrwt>
<pdfrwt beam="2">  1       21 0.82320949E-02 0.30397846E+03</pdfrwt>
<totfact> 0.13693758E+03</totfact>
</mgrwt>
</event>
