<event>
 5    0  0.1911311E+001  0.2210322E+03  0.7546771E-02  0.1133116E+00
         21   -1    0    0  502  501  0.00000000000E+00  0.00000000000E+00  0.14461939677E+04  0.14461939677E+04  0.00000000000E+00 0.  1.
         21   -1    0    0  504  502 -0.00000000000E+00 -0.00000000000E+00 -0.35035448683E+03  0.35035448683E+03  0.00000000000E+00 0. -1.
         25    1    1    2    0    0 -0.13788724425E+03  0.15637095316E+03 -0.22894492536E+03  0.33392446147E+03  0.12500000000E+03 0.  0.
         21    1    1    2  503  501  0.73399294591E+02 -0.16647315371E+03  0.13707614872E+04  0.13827826373E+04  0.00000000000E+00 0.  1.
         21    1    1    2  504  503  0.64487949655E+02  0.10102200545E+02 -0.45977080976E+02  0.79841355710E+02  0.00000000000E+00 0. -1.
<mgrwt>
<rscale>  4 0.22103224E+03</rscale>
<asrwt>0</asrwt>
<pdfrwt beam="1">  1       21 0.22249138E+00 0.22103224E+03</pdfrwt>
<pdfrwt beam="2">  1       21 0.53900691E-01 0.22103224E+03</pdfrwt>
<totfact> 0.30510446E+02</totfact>
</mgrwt>
</event>
<event>
 5    0  0.1911311E+001  0.5023496E+03  0.7546771E-02  0.1013167E+00
         21   -1    0    0  503  501  0.00000000000E+00  0.00000000000E+00  0.37138957783E+03  0.37138957783E+03  0.00000000000E+00 0.  1.
         21   -1    0    0  501  502 -0.00000000000E+00 -0.00000000000E+00 -0.87740788615E+03  0.87740788615E+03  0.00000000000E+00 0.  1.
         25    1    1    2    0    0 -0.51284776411E+03  0.56757534509E+02 -0.35628636520E+03  0.63937408526E+03  0.12500000000E+03 0.  0.
         21    1    1    2  503  504  0.61345526576E+02  0.86330413376E+02 -0.75370640063E+02  0.12998825827E+03  0.00000000000E+00 0.  1.
         21    1    1    2  504  502  0.45150223754E+03 -0.14308794788E+03 -0.74361303054E+02  0.47943512045E+03  0.00000000000E+00 0.  1.
<mgrwt>
<rscale>  4 0.50234959E+03</rscale>
<asrwt>0</asrwt>
<pdfrwt beam="1">  1       21 0.57136858E-01 0.50234959E+03</pdfrwt>
<pdfrwt beam="2">  1       21 0.13498583E+00 0.50234959E+03</pdfrwt>
<totfact> 0.93661012E+02</totfact>
</mgrwt>
</event>
<event>
 5    0  0.1911311E+001  0.2252629E+03  0.7546771E-02  0.1130019E+00
         21   -1    0    0  502  501  0.00000000000E+00  0.00000000000E+00  0.29323015618E+03  0.29323015618E+03  0.00000000000E+00 0.  1.
         21   -1    0    0  504  502 -0.00000000000E+00 -0.00000000000E+00 -0.32506468910E+03  0.32506468910E+03  0.00000000000E+00 0.  1.
         25    1    1    2    0    0  0.84076859462E+02 -0.18995733412E+03 -0.14796358994E+03  0.28402628581E+03  0.12500000000E+03 0.  0.
         21    1    1    2  503  501 -0.83001593490E+02  0.16406879344E+03  0.18491106059E+03  0.26076796933E+03  0.00000000000E+00 0.  1.
         21    1    1    2  504  503 -0.10752659711E+01  0.25888540682E+02 -0.68782003572E+02  0.73500590140E+02  0.00000000000E+00 0. -1.
<mgrwt>
<rscale>  4 0.22526289E+03</rscale>
<asrwt>0</asrwt>
<pdfrwt beam="1">  1       21 0.45112332E-01 0.22526289E+03</pdfrwt>
<pdfrwt beam="2">  1       21 0.50009952E-01 0.22526289E+03</pdfrwt>
<totfact> 0.17613854E+04</totfact>
</mgrwt>
</event>
<event>
 5    0  0.1911311E+001  0.3371293E+03  0.7546771E-02  0.1068025E+00
         21   -1    0    0  502  501  0.00000000000E+00  0.00000000000E+00  0.33357173941E+03  0.33357173941E+03  0.00000000000E+00 0.  1.
         21   -1    0    0  504  502 -0.00000000000E+00 -0.00000000000E+00 -0.41786182008E+03  0.41786182008E+03  0.00000000000E+00 0.  1.
         25    1    1    2    0    0 -0.13236595953E+03 -0.27135984368E+03 -0.10039471281E+03  0.34184939720E+03  0.12500000000E+03 0.  0.
         21    1    1    2  503  501  0.18326493539E+02 -0.34910013265E+02  0.68071828682E+02  0.78666023490E+02  0.00000000000E+00 0.  1.
         21    1    1    2  504  503  0.11403946599E+03  0.30626985694E+03 -0.51967196540E+02  0.33091813881E+03  0.00000000000E+00 0.  1.
<mgrwt>
<rscale>  4 0.33712930E+03</rscale>
<asrwt>0</asrwt>
<pdfrwt beam="1">  1       21 0.51318729E-01 0.33712930E+03</pdfrwt>
<pdfrwt beam="2">  1       21 0.64286434E-01 0.33712930E+03</pdfrwt>
<totfact> 0.74368061E+03</totfact>
</mgrwt>
</event>
<event>
 5    0  0.1911311E+001  0.2400123E+03  0.7546771E-02  0.1119785E+00
         21   -1    0    0  504  501  0.00000000000E+00  0.00000000000E+00  0.71174107468E+03  0.71174107468E+03  0.00000000000E+00 0. -1.
         21   -1    0    0  503  502 -0.00000000000E+00 -0.00000000000E+00 -0.32018152397E+03  0.32018152397E+03  0.00000000000E+00 0.  1.
         25    1    1    2    0    0  0.45976807328E+02  0.22778668139E+03 -0.21504236362E+03  0.34039514859E+03  0.12500000000E+03 0.  0.
         21    1    1    2  503  501 -0.49506189218E+02 -0.24273776579E+02  0.37764317777E+01  0.55266087588E+02  0.00000000000E+00 0.  1.
         21    1    1    2  504  502  0.35293818898E+01 -0.20351290481E+03  0.60282548255E+03  0.63626136247E+03  0.00000000000E+00 0. -1.
<mgrwt>
<rscale>  4 0.24001229E+03</rscale>
<asrwt>0</asrwt>
<pdfrwt beam="1">  1       21 0.10949863E+00 0.24001229E+03</pdfrwt>
<pdfrwt beam="2">  1       21 0.49258696E-01 0.24001229E+03</pdfrwt>
<totfact> 0.24974435E+03</totfact>
</mgrwt>
</event>
<event>
 5    0  0.1911311E+001  0.2705943E+03  0.7546771E-02  0.1100940E+00
         21   -1    0    0  504  501  0.00000000000E+00  0.00000000000E+00  0.13657041853E+03  0.13657041853E+03  0.00000000000E+00 0. -1.
         21   -1    0    0  503  502 -0.00000000000E+00 -0.00000000000E+00 -0.59502139020E+03  0.59502139020E+03  0.00000000000E+00 0.  1.
         25    1    1    2    0    0 -0.29008937765E+02 -0.23562933022E+03 -0.25873401992E+03  0.37273448029E+03  0.12500000000E+03 0.  0.
         21    1    1    2  503  501  0.23062804993E+02 -0.62521655703E+01 -0.90127456227E+02  0.93241304766E+02  0.00000000000E+00 0. -1.
         21    1    1    2  504  502  0.59461327714E+01  0.24188149579E+03 -0.10958949552E+03  0.26561602367E+03  0.00000000000E+00 0. -1.
<mgrwt>
<rscale>  4 0.27059425E+03</rscale>
<asrwt>0</asrwt>
<pdfrwt beam="1">  1       21 0.21010833E-01 0.27059425E+03</pdfrwt>
<pdfrwt beam="2">  1       21 0.91541754E-01 0.27059425E+03</pdfrwt>
<totfact> 0.20393023E+04</totfact>
</mgrwt>
</event>
