<event>
 5    0  0.1946162E+000  0.2711136E+03  0.7546771E-02  0.1100644E+00
         21   -1    0    0  502  501  0.00000000000E+00  0.00000000000E+00  0.23477242262E+03  0.23477242262E+03  0.00000000000E+00 0. -1.
         21   -1    0    0  503  502 -0.00000000000E+00 -0.00000000000E+00 -0.35750832942E+03  0.35750832942E+03  0.00000000000E+00 0. -1.
         25    1    1    2    0    0 -0.65804973127E+02 -0.23140282045E+03  0.57697916535E+02  0.27718515359E+03  0.12500000000E+03 0.  0.
         21    1    1    2  503  504 -0.23328185070E+02  0.66772399186E+02 -0.57203883156E+02  0.90967256525E+02  0.00000000000E+00 0. -1.
         21    1    1    2  504  501  0.89133158196E+02  0.16463042126E+03 -0.12322994019E+03  0.22412834192E+03  0.00000000000E+00 0. -1.
<mgrwt>
<rscale>  4 0.27111356E+03</rscale>
<asrwt>0</asrwt>
<pdfrwt beam="1">  1       21 0.36118835E-01 0.27111356E+03</pdfrwt>
<pdfrwt beam="2">  1       21 0.55001281E-01 0.27111356E+03</pdfrwt>
<totfact> 0.22149354E+04</totfact>
</mgrwt>
</event>
<event>
 5    0  0.1856407E+000  0.2759963E+03  0.7546771E-02  0.1097896E+00
         21   -1    0    0  502  501  0.00000000000E+00  0.00000000000E+00  0.18992784881E+04  0.18992784881E+04  0.00000000000E+00 0. -1.
         21   -1    0    0  503  502 -0.00000000000E+00 -0.00000000000E+00 -0.48539299777E+02  0.48539299777E+02  0.00000000000E+00 0. -1.
         25    1    1    2    0    0  0.24121908891E+03 -0.19111795310E+02  0.12103623744E+04  0.12406264494E+04  0.12500000000E+03 0.  0.
         21    1    1    2  503  504 -0.24918817933E+03  0.47770777023E+02  0.62313210462E+03  0.67280785940E+03  0.00000000000E+00 0. -1.
         21    1    1    2  504  501  0.79690904201E+01 -0.28658981714E+02  0.17244709304E+02  0.34383479085E+02  0.00000000000E+00 0.  1.
<mgrwt>
<rscale>  4 0.27599631E+03</rscale>
<asrwt>0</asrwt>
<pdfrwt beam="1">  1       21 0.29219663E+00 0.27599631E+03</pdfrwt>
<pdfrwt beam="2">  1       21 0.74675860E-02 0.27599631E+03</pdfrwt>
<totfact> 0.47267801E+03</totfact>
</mgrwt>
</event>
<event>
 5    0  0.2625750E+000  0.2989820E+03  0.7546771E-02  0.1085751E+00
         21   -1    0    0  502  501  0.00000000000E+00  0.00000000000E+00  0.61581017632E+03  0.61581017632E+03  0.00000000000E+00 0. -1.
         21   -1    0    0  503  502 -0.00000000000E+00 -0.00000000000E+00 -0.24215943770E+03  0.24215943770E+03  0.00000000000E+00 0.  1.
         25    1    1    2    0    0  0.10833075049E+03 -0.24905760758E+03  0.46967086576E+03  0.55675934257E+03  0.12500000000E+03 0.  0.
         21    1    1    2  503  504 -0.84016887678E+02  0.21342096592E+03 -0.11194567138E+03  0.25522378308E+03  0.00000000000E+00 0.  1.
         21    1    1    2  504  501 -0.24313862810E+02  0.35636641656E+02  0.15925544227E+02  0.45986488365E+02  0.00000000000E+00 0.  1.
<mgrwt>
<rscale>  4 0.29898201E+03</rscale>
<asrwt>0</asrwt>
<pdfrwt beam="1">  1       21 0.94740027E-01 0.29898201E+03</pdfrwt>
<pdfrwt beam="2">  1       21 0.37255298E-01 0.29898201E+03</pdfrwt>
<totfact> 0.60630963E+03</totfact>
</mgrwt>
</event>
<event>
 5    0  0.1856407E+000  0.2474258E+03  0.7546771E-02  0.1114943E+00
         21   -1    0    0  502  501  0.00000000000E+00  0.00000000000E+00  0.75390926806E+03  0.75390926806E+03  0.00000000000E+00 0. -1.
         21   -1    0    0  503  502 -0.00000000000E+00 -0.00000000000E+00 -0.23410609937E+03  0.23410609937E+03  0.00000000000E+00 0.  1.
         25    1    1    2    0    0  0.77231407719E+01 -0.21338903447E+03  0.67479708540E+03  0.71872848378E+03  0.12500000000E+03 0.  0.
         21    1    1    2  503  504 -0.28129474289E+02  0.11182370480E+03 -0.66966127843E+02  0.13334268093E+03  0.00000000000E+00 0.  1.
         21    1    1    2  504  501  0.20406333518E+02  0.10156532967E+03 -0.88027788873E+02  0.13594420272E+03  0.00000000000E+00 0.  1.
<mgrwt>
<rscale>  4 0.24742580E+03</rscale>
<asrwt>0</asrwt>
<pdfrwt beam="1">  1       21 0.11598604E+00 0.24742580E+03</pdfrwt>
<pdfrwt beam="2">  1       21 0.36016323E-01 0.24742580E+03</pdfrwt>
<totfact> 0.40966011E+03</totfact>
</mgrwt>
</event>
<event>
 5    0  0.1998326E+000  0.2548428E+03  0.7546771E-02  0.1110282E+00
         21   -1    0    0  502  501  0.00000000000E+00  0.00000000000E+00  0.22165736349E+03  0.22165736349E+03  0.00000000000E+00 0.  1.
         21   -1    0    0  503  502 -0.00000000000E+00 -0.00000000000E+00 -0.43415681903E+03  0.43415681903E+03  0.00000000000E+00 0.  1.
         25    1    1    2    0    0  0.16308379330E+03  0.20850132243E+03 -0.81088822239E+02  0.30375898700E+03  0.12500000000E+03 0.  0.
         21    1    1    2  503  504 -0.18481831087E+03 -0.90895188563E+02 -0.96636807723E+02  0.22750476027E+03  0.00000000000E+00 0.  1.
         21    1    1    2  504  501  0.21734517574E+02 -0.11760613387E+03 -0.34773825578E+02  0.12455043526E+03  0.00000000000E+00 0.  1.
<mgrwt>
<rscale>  4 0.25484276E+03</rscale>
<asrwt>0</asrwt>
<pdfrwt beam="1">  1       21 0.34101133E-01 0.25484276E+03</pdfrwt>
<pdfrwt beam="2">  1       21 0.66793356E-01 0.25484276E+03</pdfrwt>
<totfact> 0.16431874E+04</totfact>
</mgrwt>
</event>
<event>
 5    0  0.1856407E+000  0.2988684E+03  0.7546771E-02  0.1085808E+00
         21   -1    0    0  502  501  0.00000000000E+00  0.00000000000E+00  0.88286885185E+02  0.88286885185E+02  0.00000000000E+00 0.  1.
         21   -1    0    0  503  502 -0.00000000000E+00 -0.00000000000E+00 -0.17734957816E+04  0.17734957816E+04  0.00000000000E+00 0. -1.
         25    1    1    2    0    0  0.32638252555E+02  0.26626509119E+03 -0.23650525273E+03  0.37884309270E+03  0.12500000000E+03 0.  0.
         21    1    1    2  503  504 -0.21852926964E+02  0.19089756555E+02 -0.19349157330E+03  0.19565520224E+03  0.00000000000E+00 0.  1.
         21    1    1    2  504  501 -0.10785325591E+02 -0.28535484775E+03 -0.12552120704E+04  0.12872843719E+04  0.00000000000E+00 0. -1.
<mgrwt>
<rscale>  4 0.29886839E+03</rscale>
<asrwt>0</asrwt>
<pdfrwt beam="1">  1       21 0.13582598E-01 0.29886839E+03</pdfrwt>
<pdfrwt beam="2">  1       21 0.27284550E+00 0.29886839E+03</pdfrwt>
<totfact> 0.20771696E+03</totfact>
</mgrwt>
</event>
<event>
 5    0  0.1856407E+000  0.3340529E+03  0.7546771E-02  0.1069358E+00
         21   -1    0    0  502  501  0.00000000000E+00  0.00000000000E+00  0.49533344828E+03  0.49533344828E+03  0.00000000000E+00 0. -1.
         21   -1    0    0  503  502 -0.00000000000E+00 -0.00000000000E+00 -0.11120343760E+04  0.11120343760E+04  0.00000000000E+00 0. -1.
         25    1    1    2    0    0 -0.26561341592E+03  0.15942354066E+03  0.41034278910E+03  0.52912433000E+03  0.12500000000E+03 0.  0.
         21    1    1    2  503  504  0.22098004243E+03 -0.15526046594E+03 -0.96241482246E+03  0.99959005693E+03  0.00000000000E+00 0. -1.
         21    1    1    2  504  501  0.44633373490E+02 -0.41630747179E+01 -0.64628894396E+02  0.78653437376E+02  0.00000000000E+00 0.  1.
<mgrwt>
<rscale>  4 0.33405292E+03</rscale>
<asrwt>0</asrwt>
<pdfrwt beam="1">  1       21 0.76205146E-01 0.33405292E+03</pdfrwt>
<pdfrwt beam="2">  1       21 0.17108221E+00 0.33405292E+03</pdfrwt>
<totfact> 0.28203274E+02</totfact>
</mgrwt>
</event>
<event>
 5    0  0.1856407E+000  0.2361886E+03  0.7546771E-02  0.1122358E+00
         21   -1    0    0  502  501  0.00000000000E+00  0.00000000000E+00  0.40221793120E+03  0.40221793120E+03  0.00000000000E+00 0.  1.
         21   -1    0    0  503  502 -0.00000000000E+00 -0.00000000000E+00 -0.11875881169E+04  0.11875881169E+04  0.00000000000E+00 0. -1.
         25    1    1    2    0    0  0.37616651334E+02 -0.19985390894E+03  0.34708703776E+03  0.42124934321E+03  0.12500000000E+03 0.  0.
         21    1    1    2  503  504  0.69869551292E+02  0.15636774245E+03 -0.72209984224E+03  0.74213260759E+03  0.00000000000E+00 0. -1.
         21    1    1    2  504  501 -0.10748620263E+03  0.43486166490E+02 -0.41035738118E+03  0.42642409725E+03  0.00000000000E+00 0. -1.
<mgrwt>
<rscale>  4 0.23618865E+03</rscale>
<asrwt>0</asrwt>
<pdfrwt beam="1">  1       21 0.61879681E-01 0.23618865E+03</pdfrwt>
<pdfrwt beam="2">  1       21 0.18270586E+00 0.23618865E+03</pdfrwt>
<totfact> 0.40292658E+02</totfact>
</mgrwt>
</event>
<event>
 5    0  0.3490350E+000  0.2515440E+03  0.7546771E-02  0.1112333E+00
         21   -1    0    0  502  501  0.00000000000E+00  0.00000000000E+00  0.35936897153E+03  0.35936897153E+03  0.00000000000E+00 0.  1.
         21   -1    0    0  503  502 -0.00000000000E+00 -0.00000000000E+00 -0.31491822067E+03  0.31491822067E+03  0.00000000000E+00 0.  1.
         25    1    1    2    0    0  0.24001046369E+03  0.74853832940E+02  0.19913183617E+03  0.34421883615E+03  0.12500000000E+03 0.  0.
         21    1    1    2  503  504 -0.74596302944E+02 -0.21823008433E+02 -0.13430140979E+03  0.15516997384E+03  0.00000000000E+00 0.  1.
         21    1    1    2  504  501 -0.16541416075E+03 -0.53030824507E+02 -0.20379675522E+02  0.17489838221E+03  0.00000000000E+00 0.  1.
<mgrwt>
<rscale>  4 0.25154399E+03</rscale>
<asrwt>0</asrwt>
<pdfrwt beam="1">  1       21 0.55287534E-01 0.25154399E+03</pdfrwt>
<pdfrwt beam="2">  1       21 0.48448957E-01 0.25154399E+03</pdfrwt>
<totfact> 0.12116397E+04</totfact>
</mgrwt>
</event>
<event>
 5    0  0.1856407E+000  0.2543042E+03  0.7546771E-02  0.1110614E+00
         21   -1    0    0  502  501  0.00000000000E+00  0.00000000000E+00  0.23678694944E+03  0.23678694944E+03  0.00000000000E+00 0.  1.
         21   -1    0    0  503  502 -0.00000000000E+00 -0.00000000000E+00 -0.23708731703E+04  0.23708731703E+04  0.00000000000E+00 0. -1.
         25    1    1    2    0    0  0.18610751448E+03 -0.12004006765E+03  0.16080886818E+03  0.30088223090E+03  0.12500000000E+03 0.  0.
         21    1    1    2  503  504 -0.34072838906E+02  0.17579966250E+02 -0.18493738240E+03  0.18886992607E+03  0.00000000000E+00 0. -1.
         21    1    1    2  504  501 -0.15203467558E+03  0.10246010140E+03 -0.21099577066E+04  0.21179079627E+04  0.00000000000E+00 0. -1.
<mgrwt>
<rscale>  4 0.25430420E+03</rscale>
<asrwt>0</asrwt>
<pdfrwt beam="1">  1       21 0.36428761E-01 0.25430420E+03</pdfrwt>
<pdfrwt beam="2">  1       21 0.36474972E+00 0.25430420E+03</pdfrwt>
<totfact> 0.94466573E+01</totfact>
</mgrwt>
</event>
<event>
 5    0  0.1856407E+000  0.2424024E+03  0.7546771E-02  0.1118203E+00
         21   -1    0    0  502  501  0.00000000000E+00  0.00000000000E+00  0.37245224940E+04  0.37245224940E+04  0.00000000000E+00 0.  1.
         21   -1    0    0  503  502 -0.00000000000E+00 -0.00000000000E+00 -0.22033284660E+02  0.22033284660E+02  0.00000000000E+00 0.  1.
         25    1    1    2    0    0  0.14030160012E+03 -0.14624276043E+03  0.28329786512E+04  0.28429675556E+04  0.12500000000E+03 0.  0.
         21    1    1    2  503  504 -0.14776153803E+03  0.16742189560E+03  0.79541425204E+03  0.82616426671E+03  0.00000000000E+00 0.  1.
         21    1    1    2  504  501  0.74599379098E+01 -0.21179135175E+02  0.74096306101E+02  0.77423956358E+02  0.00000000000E+00 0. -1.
<mgrwt>
<rscale>  4 0.24240241E+03</rscale>
<asrwt>0</asrwt>
<pdfrwt beam="1">  1       21 0.57300296E+00 0.24240241E+03</pdfrwt>
<pdfrwt beam="2">  1       21 0.33897391E-02 0.24240241E+03</pdfrwt>
<totfact> 0.26440472E+02</totfact>
</mgrwt>
</event>
<event>
 5    0  0.1986516E+000  0.2485659E+03  0.7546771E-02  0.1114215E+00
         21   -1    0    0  502  501  0.00000000000E+00  0.00000000000E+00  0.18302981997E+03  0.18302981997E+03  0.00000000000E+00 0.  1.
         21   -1    0    0  503  502 -0.00000000000E+00 -0.00000000000E+00 -0.42503070886E+03  0.42503070886E+03  0.00000000000E+00 0.  1.
         25    1    1    2    0    0 -0.20423476260E+03 -0.66694559418E+02  0.39635892899E+02  0.25170619086E+03  0.12500000000E+03 0.  0.
         21    1    1    2  503  504  0.33446676927E+02  0.22809113595E+02 -0.37414420238E+02  0.55125082333E+02  0.00000000000E+00 0.  1.
         21    1    1    2  504  501  0.17078808568E+03  0.43885445823E+02 -0.24422236155E+03  0.30122925563E+03  0.00000000000E+00 0.  1.
<mgrwt>
<rscale>  4 0.24856589E+03</rscale>
<asrwt>0</asrwt>
<pdfrwt beam="1">  1       21 0.28158434E-01 0.24856589E+03</pdfrwt>
<pdfrwt beam="2">  1       21 0.65389339E-01 0.24856589E+03</pdfrwt>
<totfact> 0.25177416E+04</totfact>
</mgrwt>
</event>
