<event>
 5    0  0.1856407E+000  0.2470523E+03  0.7546771E-02  0.1115182E+00
         21   -1    0    0  502  501  0.00000000000E+00  0.00000000000E+00  0.10735068314E+03  0.10735068314E+03  0.00000000000E+00 0.  1.
         21   -1    0    0  503  502 -0.00000000000E+00 -0.00000000000E+00 -0.67088352229E+03  0.67088352229E+03  0.00000000000E+00 0.  1.
         25    1    1    2    0    0 -0.70591021904E+01 -0.21297885024E+03 -0.98581098648E+02  0.26599446344E+03  0.12500000000E+03 0.  0.
         21    1    1    2  503  504 -0.81007639943E+00  0.18931499924E+03 -0.39626469844E+03  0.43916572770E+03  0.00000000000E+00 0.  1.
         21    1    1    2  504  501  0.78691785898E+01  0.23663851000E+02 -0.68687042064E+02  0.73074014283E+02  0.00000000000E+00 0.  1.
<mgrwt>
<rscale>  4 0.24705226E+03</rscale>
<asrwt>0</asrwt>
<pdfrwt beam="1">  1       21 0.16515490E-01 0.24705226E+03</pdfrwt>
<pdfrwt beam="2">  1       21 0.10321285E+00 0.24705226E+03</pdfrwt>
<totfact> 0.24309541E+04</totfact>
</mgrwt>
</event>
<event>
 5    0  0.1856407E+000  0.3266857E+03  0.7546771E-02  0.1072613E+00
         21   -1    0    0  502  501  0.00000000000E+00  0.00000000000E+00  0.14024268824E+04  0.14024268824E+04  0.00000000000E+00 0. -1.
         21   -1    0    0  503  502 -0.00000000000E+00 -0.00000000000E+00 -0.10867318422E+03  0.10867318422E+03  0.00000000000E+00 0. -1.
         25    1    1    2    0    0  0.15585641973E+03  0.25984314391E+03  0.64516421905E+03  0.72365154083E+03  0.12500000000E+03 0.  0.
         21    1    1    2  503  504  0.10354556943E+03 -0.79713963355E+02  0.19597146215E+03  0.23554365811E+03  0.00000000000E+00 0. -1.
         21    1    1    2  504  501 -0.25940198916E+03 -0.18012918055E+03  0.45261801695E+03  0.55190486765E+03  0.00000000000E+00 0. -1.
<mgrwt>
<rscale>  4 0.32668571E+03</rscale>
<asrwt>0</asrwt>
<pdfrwt beam="1">  1       21 0.21575797E+00 0.32668571E+03</pdfrwt>
<pdfrwt beam="2">  1       21 0.16718952E-01 0.32668571E+03</pdfrwt>
<totfact> 0.30970862E+03</totfact>
</mgrwt>
</event>
<event>
 5    0  0.1875277E+000  0.3346988E+03  0.7546771E-02  0.1069077E+00
         21   -1    0    0  502  501  0.00000000000E+00  0.00000000000E+00  0.10497377805E+04  0.10497377805E+04  0.00000000000E+00 0. -1.
         21   -1    0    0  503  502 -0.00000000000E+00 -0.00000000000E+00 -0.10539595420E+03  0.10539595420E+03  0.00000000000E+00 0. -1.
         25    1    1    2    0    0  0.29538201399E+03  0.95643901548E+02  0.50359816758E+03  0.60467710762E+03  0.12500000000E+03 0.  0.
         21    1    1    2  503  504 -0.22654861067E+03 -0.10053013412E+03  0.27114005185E+03  0.36735202270E+03  0.00000000000E+00 0. -1.
         21    1    1    2  504  501 -0.68833403316E+02  0.48862325697E+01  0.16960360687E+03  0.18310460438E+03  0.00000000000E+00 0. -1.
<mgrwt>
<rscale>  4 0.33469881E+03</rscale>
<asrwt>0</asrwt>
<pdfrwt beam="1">  1       21 0.16149811E+00 0.33469881E+03</pdfrwt>
<pdfrwt beam="2">  1       21 0.16214763E-01 0.33469881E+03</pdfrwt>
<totfact> 0.76522017E+03</totfact>
</mgrwt>
</event>
<event>
 5    0  0.1856407E+000  0.2374152E+03  0.7546771E-02  0.1121527E+00
         21   -1    0    0  502  501  0.00000000000E+00  0.00000000000E+00  0.18869265613E+03  0.18869265613E+03  0.00000000000E+00 0.  1.
         21   -1    0    0  503  502 -0.00000000000E+00 -0.00000000000E+00 -0.33475031944E+03  0.33475031944E+03  0.00000000000E+00 0.  1.
         25    1    1    2    0    0 -0.13797561046E+03 -0.14732185398E+03 -0.18793870001E+03  0.30279853485E+03  0.12500000000E+03 0.  0.
         21    1    1    2  503  504  0.13183800856E+03  0.10309592513E+03  0.13870258495E+02  0.16793574471E+03  0.00000000000E+00 0.  1.
         21    1    1    2  504  501  0.61376019004E+01  0.44225928847E+02  0.28010778215E+02  0.52708696015E+02  0.00000000000E+00 0.  1.
<mgrwt>
<rscale>  4 0.23741524E+03</rscale>
<asrwt>0</asrwt>
<pdfrwt beam="1">  1       21 0.29029640E-01 0.23741524E+03</pdfrwt>
<pdfrwt beam="2">  1       21 0.51500049E-01 0.23741524E+03</pdfrwt>
<totfact> 0.39823509E+04</totfact>
</mgrwt>
</event>
<event>
 5    0  0.1856407E+000  0.3424802E+03  0.7546771E-02  0.1066775E+00
         21   -1    0    0  502  501  0.00000000000E+00  0.00000000000E+00  0.17334600273E+03  0.17334600273E+03  0.00000000000E+00 0.  1.
         21   -1    0    0  503  502 -0.00000000000E+00 -0.00000000000E+00 -0.10048315399E+04  0.10048315399E+04  0.00000000000E+00 0.  1.
         25    1    1    2    0    0  0.27026709948E+03 -0.14874451967E+03 -0.65675629631E+02  0.33927499985E+03  0.12500000000E+03 0.  0.
         21    1    1    2  503  504 -0.35478461271E+02  0.91613113394E+02 -0.27062392575E+03  0.28790448581E+03  0.00000000000E+00 0.  1.
         21    1    1    2  504  501 -0.23478863821E+03  0.57131406275E+02 -0.49518598175E+03  0.55099805693E+03  0.00000000000E+00 0.  1.
<mgrwt>
<rscale>  4 0.34004877E+03</rscale>
<asrwt>0</asrwt>
<pdfrwt beam="1">  1       21 0.26668616E-01 0.34248016E+03</pdfrwt>
<pdfrwt beam="2">  1       21 0.15458947E+00 0.34248016E+03</pdfrwt>
<totfact> 0.33399972E+03</totfact>
</mgrwt>
</event>
<event>
 5    0  0.1856407E+000  0.2777478E+03  0.7546771E-02  0.1096925E+00
         21   -1    0    0  502  501  0.00000000000E+00  0.00000000000E+00  0.31237923345E+03  0.31237923345E+03  0.00000000000E+00 0.  1.
         21   -1    0    0  503  502 -0.00000000000E+00 -0.00000000000E+00 -0.22429545694E+03  0.22429545694E+03  0.00000000000E+00 0.  1.
         25    1    1    2    0    0  0.10848657479E+03 -0.22304597507E+03  0.56492850300E+02  0.28343480033E+03  0.12500000000E+03 0.  0.
         21    1    1    2  503  504 -0.86617504664E+02  0.18901291150E+03  0.11917079139E+02  0.20825582730E+03  0.00000000000E+00 0.  1.
         21    1    1    2  504  501 -0.21869070128E+02  0.34033063566E+02  0.19673847062E+02  0.44984062758E+02  0.00000000000E+00 0.  1.
<mgrwt>
<rscale>  4 0.27774781E+03</rscale>
<asrwt>0</asrwt>
<pdfrwt beam="1">  1       21 0.48058344E-01 0.27774781E+03</pdfrwt>
<pdfrwt beam="2">  1       21 0.34506993E-01 0.27774781E+03</pdfrwt>
<totfact> 0.32187832E+04</totfact>
</mgrwt>
</event>
<event>
 5    0  0.2589424E+000  0.2889960E+03  0.7546771E-02  0.1090875E+00
         21   -1    0    0  502  501  0.00000000000E+00  0.00000000000E+00  0.26524208191E+03  0.26524208191E+03  0.00000000000E+00 0. -1.
         21   -1    0    0  503  502 -0.00000000000E+00 -0.00000000000E+00 -0.40919330257E+03  0.40919330257E+03  0.00000000000E+00 0. -1.
         25    1    1    2    0    0 -0.12308476876E+03 -0.22966025308E+03  0.10271433239E+03  0.30670658001E+03  0.12500000000E+03 0.  0.
         21    1    1    2  503  504  0.12460098635E+03  0.16013470923E+03 -0.19091544921E+03  0.27859870719E+03  0.00000000000E+00 0. -1.
         21    1    1    2  504  501 -0.15162175896E+01  0.69525543847E+02 -0.55750103834E+02  0.89130097277E+02  0.00000000000E+00 0.  1.
<mgrwt>
<rscale>  4 0.28899601E+03</rscale>
<asrwt>0</asrwt>
<pdfrwt beam="1">  1       21 0.40806474E-01 0.28899601E+03</pdfrwt>
<pdfrwt beam="2">  1       21 0.62952816E-01 0.28899601E+03</pdfrwt>
<totfact> 0.12818318E+04</totfact>
</mgrwt>
</event>
<event>
 5    0  0.1856407E+000  0.3632167E+03  0.7546771E-02  0.1057317E+00
         21   -1    0    0  502  501  0.00000000000E+00  0.00000000000E+00  0.46094873082E+03  0.46094873082E+03  0.00000000000E+00 0. -1.
         21   -1    0    0  503  502 -0.00000000000E+00 -0.00000000000E+00 -0.65616726583E+03  0.65616726583E+03  0.00000000000E+00 0. -1.
         25    1    1    2    0    0 -0.34083369162E+03 -0.11566773954E+02  0.32491448277E+03  0.48733542527E+03  0.12500000000E+03 0.  0.
         21    1    1    2  503  504  0.15173966822E+03  0.11518029083E+02 -0.32058659129E+03  0.35487089824E+03  0.00000000000E+00 0. -1.
         21    1    1    2  504  501  0.18909402340E+03  0.48744870303E-01 -0.19954642649E+03  0.27490967314E+03  0.00000000000E+00 0. -1.
<mgrwt>
<rscale>  4 0.36321673E+03</rscale>
<asrwt>0</asrwt>
<pdfrwt beam="1">  1       21 0.70915190E-01 0.36321673E+03</pdfrwt>
<pdfrwt beam="2">  1       21 0.10094881E+00 0.36321673E+03</pdfrwt>
<totfact> 0.12833619E+03</totfact>
</mgrwt>
</event>
<event>
 5    0  0.1856407E+000  0.2789416E+03  0.7546771E-02  0.1096268E+00
         21   -1    0    0  502  501  0.00000000000E+00  0.00000000000E+00  0.32196556728E+02  0.32196556728E+02  0.00000000000E+00 0.  1.
         21   -1    0    0  503  502 -0.00000000000E+00 -0.00000000000E+00 -0.22493109132E+04  0.22493109132E+04  0.00000000000E+00 0.  1.
         25    1    1    2    0    0 -0.24936447339E+03 -0.89008084304E+00 -0.11525648572E+04  0.11858390206E+04  0.12500000000E+03 0.  0.
         21    1    1    2  503  504  0.97083387768E+02 -0.25265292738E+02 -0.32412566211E+03  0.33929480402E+03  0.00000000000E+00 0.  1.
         21    1    1    2  504  501  0.15228108563E+03  0.26155373581E+02 -0.74042383719E+03  0.75637364529E+03  0.00000000000E+00 0.  1.
<mgrwt>
<rscale>  4 0.27894163E+03</rscale>
<asrwt>0</asrwt>
<pdfrwt beam="1">  1       21 0.49533147E-02 0.27894163E+03</pdfrwt>
<pdfrwt beam="2">  1       21 0.34604796E+00 0.27894163E+03</pdfrwt>
<totfact> 0.46044571E+03</totfact>
</mgrwt>
</event>
<event>
 5    0  0.2089763E+000  0.3290973E+03  0.7546771E-02  0.1071537E+00
         21   -1    0    0  502  501  0.00000000000E+00  0.00000000000E+00  0.45578891226E+03  0.45578891226E+03  0.00000000000E+00 0.  1.
         21   -1    0    0  503  502 -0.00000000000E+00 -0.00000000000E+00 -0.27334028544E+03  0.27334028544E+03  0.00000000000E+00 0.  1.
         25    1    1    2    0    0 -0.27362201614E+03 -0.14150994506E+03  0.16851499087E+03  0.37271487013E+03  0.12500000000E+03 0.  0.
         21    1    1    2  503  504  0.23997679286E+03  0.18351574520E+03  0.16297743465E+02  0.30254339572E+03  0.00000000000E+00 0.  1.
         21    1    1    2  504  501  0.33645223273E+02 -0.42005800144E+02 -0.23641075069E+01  0.53870931856E+02  0.00000000000E+00 0.  1.
<mgrwt>
<rscale>  4 0.32909727E+03</rscale>
<asrwt>0</asrwt>
<pdfrwt beam="1">  1       21 0.70121371E-01 0.32909727E+03</pdfrwt>
<pdfrwt beam="2">  1       21 0.42052352E-01 0.32909727E+03</pdfrwt>
<totfact> 0.93309409E+03</totfact>
</mgrwt>
</event>
<event>
 5    0  0.1856407E+000  0.3025361E+03  0.7546771E-02  0.1083980E+00
         21   -1    0    0  502  501  0.00000000000E+00  0.00000000000E+00  0.77626345999E+03  0.77626345999E+03  0.00000000000E+00 0. -1.
         21   -1    0    0  503  502 -0.00000000000E+00 -0.00000000000E+00 -0.24217667424E+03  0.24217667424E+03  0.00000000000E+00 0. -1.
         25    1    1    2    0    0  0.32193180175E+03 -0.83440193960E+02  0.34539290795E+03  0.49550339233E+03  0.12500000000E+03 0.  0.
         21    1    1    2  503  504 -0.23841489690E+03  0.45356469760E+02  0.29531774280E+03  0.38224526371E+03  0.00000000000E+00 0. -1.
         21    1    1    2  504  501 -0.83516904849E+02  0.38083724200E+02 -0.10662386501E+03  0.14069147819E+03  0.00000000000E+00 0. -1.
<mgrwt>
<rscale>  4 0.30253607E+03</rscale>
<asrwt>0</asrwt>
<pdfrwt beam="1">  1       21 0.11942515E+00 0.30253607E+03</pdfrwt>
<pdfrwt beam="2">  1       21 0.37257950E-01 0.30253607E+03</pdfrwt>
<totfact> 0.34426366E+03</totfact>
</mgrwt>
</event>
