<event>
 5    0  0.1911311E+001  0.2407575E+03  0.7546771E-02  0.1119289E+00
         21   -1    0    0  502  501  0.00000000000E+00  0.00000000000E+00  0.11567296246E+04  0.11567296246E+04  0.00000000000E+00 0. -1.
         21   -1    0    0  504  502 -0.00000000000E+00 -0.00000000000E+00 -0.10978776556E+03  0.10978776556E+03  0.00000000000E+00 0. -1.
         25    1    1    2    0    0  0.64954111233E+02 -0.25611104381E+03  0.74856696968E+03  0.80361023602E+03  0.12500000000E+03 0.  0.
         21    1    1    2  503  501 -0.71753410885E+01  0.16434985122E+03  0.31289293365E+03  0.35350296610E+03  0.00000000000E+00 0. -1.
         21    1    1    2  504  503 -0.57778770145E+02  0.91761192600E+02 -0.14518044312E+02  0.10940418802E+03  0.00000000000E+00 0. -1.
<mgrwt>
<rscale>  4 0.24075750E+03</rscale>
<asrwt>0</asrwt>
<pdfrwt beam="1">  1       21 0.17795840E+00 0.24075750E+03</pdfrwt>
<pdfrwt beam="2">  1       21 0.16890426E-01 0.24075750E+03</pdfrwt>
<totfact> 0.57087165E+03</totfact>
</mgrwt>
</event>
<event>
 5    0  0.1911311E+001  0.2709698E+03  0.7546771E-02  0.1100726E+00
         21   -1    0    0  504  501  0.00000000000E+00  0.00000000000E+00  0.23438880308E+03  0.23438880308E+03  0.00000000000E+00 0.  1.
         21   -1    0    0  503  502 -0.00000000000E+00 -0.00000000000E+00 -0.10184961266E+04  0.10184961266E+04  0.00000000000E+00 0. -1.
         25    1    1    2    0    0  0.23528888998E+03  0.92970418654E+02 -0.74757901686E+03  0.79906429462E+03  0.12500000000E+03 0.  0.
         21    1    1    2  503  501 -0.23700152316E+01 -0.37235886444E+02 -0.17381042879E+03  0.17777005757E+03  0.00000000000E+00 0. -1.
         21    1    1    2  504  502 -0.23291887475E+03 -0.55734532210E+02  0.13728212211E+03  0.27605057752E+03  0.00000000000E+00 0.  1.
<mgrwt>
<rscale>  4 0.27096978E+03</rscale>
<asrwt>0</asrwt>
<pdfrwt beam="1">  1       21 0.36059816E-01 0.27096978E+03</pdfrwt>
<pdfrwt beam="2">  1       21 0.15669171E+00 0.27096978E+03</pdfrwt>
<totfact> 0.18495985E+03</totfact>
</mgrwt>
</event>
<event>
 5    0  0.2896976E+001  0.2415075E+03  0.7546771E-02  0.1118793E+00
         21   -1    0    0  502  501  0.00000000000E+00  0.00000000000E+00  0.41449522137E+03  0.41449522137E+03  0.00000000000E+00 0.  1.
         21   -1    0    0  504  502 -0.00000000000E+00 -0.00000000000E+00 -0.22230022863E+03  0.22230022863E+03  0.00000000000E+00 0.  1.
         25    1    1    2    0    0  0.21078082512E+02 -0.20328802529E+03 -0.26823893318E+02  0.24107017244E+03  0.12500000000E+03 0.  0.
         21    1    1    2  503  501  0.15931637765E+01  0.20749588811E+03  0.26955805591E+03  0.34017440712E+03  0.00000000000E+00 0.  1.
         21    1    1    2  504  503 -0.22671246288E+02 -0.42078628244E+01 -0.50539169845E+02  0.55550870438E+02  0.00000000000E+00 0. -1.
<mgrwt>
<rscale>  4 0.24150750E+03</rscale>
<asrwt>0</asrwt>
<pdfrwt beam="1">  1       21 0.63768496E-01 0.24150750E+03</pdfrwt>
<pdfrwt beam="2">  1       21 0.34200035E-01 0.24150750E+03</pdfrwt>
<totfact> 0.18205250E+04</totfact>
</mgrwt>
</event>
