<event>
 5    0  0.2159162E+000  0.2408625E+03  0.7546771E-02  0.1119220E+00
         21   -1    0    0  502  501  0.00000000000E+00  0.00000000000E+00  0.43511711584E+04  0.43511711584E+04  0.00000000000E+00 0. -1.
         21   -1    0    0  503  502 -0.00000000000E+00 -0.00000000000E+00 -0.52340066357E+02  0.52340066357E+02  0.00000000000E+00 0.  1.
         25    1    1    2    0    0  0.20052566717E+03  0.46681850661E+02  0.41040048675E+04  0.41110668555E+04  0.12500000000E+03 0.  0.
         21    1    1    2  503  504 -0.14725279371E+03 -0.28491274585E+02  0.94111715638E+02  0.17706539189E+03  0.00000000000E+00 0.  1.
         21    1    1    2  504  501 -0.53272873456E+02 -0.18190576076E+02  0.10071450897E+03  0.11537897738E+03  0.00000000000E+00 0.  1.
<mgrwt>
<rscale>  4 0.24086249E+03</rscale>
<asrwt>0</asrwt>
<pdfrwt beam="1">  1       21 0.66941067E+00 0.24086249E+03</pdfrwt>
<pdfrwt beam="2">  1       21 0.80523213E-02 0.24086249E+03</pdfrwt>
<totfact> 0.10090278E+01</totfact>
</mgrwt>
</event>
<event>
 5    0  0.2159162E+000  0.3043467E+03  0.7546771E-02  0.1083088E+00
         21   -1    0    0  502  501  0.00000000000E+00  0.00000000000E+00  0.14355609978E+04  0.14355609978E+04  0.00000000000E+00 0.  1.
         21   -1    0    0  503  502 -0.00000000000E+00 -0.00000000000E+00 -0.91821838940E+02  0.91821838940E+02  0.00000000000E+00 0.  1.
         25    1    1    2    0    0 -0.13554096392E+03  0.24213742602E+03  0.11070217158E+04  0.11480957997E+04  0.12500000000E+03 0.  0.
         21    1    1    2  503  504  0.10088516932E+03 -0.75222001911E+02  0.10334572181E+03  0.16283889331E+03  0.00000000000E+00 0.  1.
         21    1    1    2  504  501  0.34655794605E+02 -0.16691542411E+03  0.13337172127E+03  0.21644814377E+03  0.00000000000E+00 0.  1.
<mgrwt>
<rscale>  4 0.30434665E+03</rscale>
<asrwt>0</asrwt>
<pdfrwt beam="1">  1       21 0.22085552E+00 0.30434665E+03</pdfrwt>
<pdfrwt beam="2">  1       21 0.14126438E-01 0.30434665E+03</pdfrwt>
<totfact> 0.39787933E+03</totfact>
</mgrwt>
</event>
<event>
 5    0  0.2159162E+000  0.2391961E+03  0.7546771E-02  0.1120330E+00
         21   -1    0    0  502  501  0.00000000000E+00  0.00000000000E+00  0.10434415504E+03  0.10434415504E+03  0.00000000000E+00 0. -1.
         21   -1    0    0  503  502 -0.00000000000E+00 -0.00000000000E+00 -0.11465222801E+04  0.11465222801E+04  0.00000000000E+00 0. -1.
         25    1    1    2    0    0  0.19466322426E+03 -0.60794809186E+02 -0.65743062484E+02  0.24806638218E+03  0.12500000000E+03 0.  0.
         21    1    1    2  503  504 -0.12877289955E+03 -0.48089762978E+01 -0.44459688336E+03  0.46289520910E+03  0.00000000000E+00 0. -1.
         21    1    1    2  504  501 -0.65890324712E+02  0.65603785484E+02 -0.53183817917E+03  0.53990484383E+03  0.00000000000E+00 0. -1.
<mgrwt>
<rscale>  4 0.23919611E+03</rscale>
<asrwt>0</asrwt>
<pdfrwt beam="1">  1       21 0.16052947E-01 0.23919611E+03</pdfrwt>
<pdfrwt beam="2">  1       21 0.17638804E+00 0.23919611E+03</pdfrwt>
<totfact> 0.64363869E+03</totfact>
</mgrwt>
</event>
<event>
 5    0  0.2159162E+000  0.3654771E+03  0.7546771E-02  0.1056436E+00
         21   -1    0    0  502  501  0.00000000000E+00  0.00000000000E+00  0.79219339893E+02  0.79219339893E+02  0.00000000000E+00 0.  1.
         21   -1    0    0  503  502 -0.00000000000E+00 -0.00000000000E+00 -0.18043972513E+04  0.18043972513E+04  0.00000000000E+00 0.  1.
         25    1    1    2    0    0 -0.34152687199E+03  0.36165213397E+02 -0.58751750204E+03  0.69191787241E+03  0.12500000000E+03 0.  0.
         21    1    1    2  503  504  0.11267424689E+03  0.10360392541E+02 -0.49934469330E+03  0.51200385387E+03  0.00000000000E+00 0.  1.
         21    1    1    2  504  501  0.22885262510E+03 -0.46525605938E+02 -0.63831571609E+03  0.67969486494E+03  0.00000000000E+00 0.  1.
<mgrwt>
<rscale>  4 0.36547712E+03</rscale>
<asrwt>0</asrwt>
<pdfrwt beam="1">  1       21 0.12187592E-01 0.36547712E+03</pdfrwt>
<pdfrwt beam="2">  1       21 0.27759956E+00 0.36547712E+03</pdfrwt>
<totfact> 0.22659002E+03</totfact>
</mgrwt>
</event>
<event>
 5    0  0.2159162E+000  0.3002418E+03  0.7546771E-02  0.1085120E+00
         21   -1    0    0  502  501  0.00000000000E+00  0.00000000000E+00  0.26367111740E+03  0.26367111740E+03  0.00000000000E+00 0.  1.
         21   -1    0    0  503  502 -0.00000000000E+00 -0.00000000000E+00 -0.79237908257E+03  0.79237908257E+03  0.00000000000E+00 0. -1.
         25    1    1    2    0    0 -0.18951696681E+03 -0.19647766119E+03  0.13970047591E+03  0.33115158919E+03  0.12500000000E+03 0.  0.
         21    1    1    2  503  504  0.95343437964E+02  0.10706243868E+03 -0.43206657922E+03  0.45522990436E+03  0.00000000000E+00 0. -1.
         21    1    1    2  504  501  0.94173528841E+02  0.89415222509E+02 -0.23634186187E+03  0.26966870642E+03  0.00000000000E+00 0. -1.
<mgrwt>
<rscale>  4 0.30024182E+03</rscale>
<asrwt>0</asrwt>
<pdfrwt beam="1">  1       21 0.40564789E-01 0.30024182E+03</pdfrwt>
<pdfrwt beam="2">  1       21 0.12190447E+00 0.30024182E+03</pdfrwt>
<totfact> 0.27533221E+03</totfact>
</mgrwt>
</event>
<event>
 5    0  0.2159162E+000  0.3009331E+03  0.7546771E-02  0.1084775E+00
         21   -1    0    0  502  501  0.00000000000E+00  0.00000000000E+00  0.13713149814E+04  0.13713149814E+04  0.00000000000E+00 0. -1.
         21   -1    0    0  503  502 -0.00000000000E+00 -0.00000000000E+00 -0.13347329853E+03  0.13347329853E+03  0.00000000000E+00 0. -1.
         25    1    1    2    0    0 -0.17340179188E+03 -0.21235312045E+03  0.10936657037E+04  0.11344124914E+04  0.12500000000E+03 0.  0.
         21    1    1    2  503  504 -0.26242002855E+02  0.24692271228E+02  0.81777140765E+02  0.89363592832E+02  0.00000000000E+00 0. -1.
         21    1    1    2  504  501  0.19964379473E+03  0.18766084922E+03  0.62398838416E+02  0.28101219572E+03  0.00000000000E+00 0. -1.
<mgrwt>
<rscale>  4 0.30093310E+03</rscale>
<asrwt>0</asrwt>
<pdfrwt beam="1">  1       21 0.21097153E+00 0.30093310E+03</pdfrwt>
<pdfrwt beam="2">  1       21 0.20534355E-01 0.30093310E+03</pdfrwt>
<totfact> 0.22968069E+03</totfact>
</mgrwt>
</event>
