<event>
 5    0  0.1911311E+001  0.2458290E+03  0.7546771E-02  0.1115970E+00
         21   -1    0    0  503  501  0.00000000000E+00  0.00000000000E+00  0.60954981152E+02  0.60954981152E+02  0.00000000000E+00 0. -1.
         21   -1    0    0  504  502 -0.00000000000E+00 -0.00000000000E+00 -0.14455590977E+04  0.14455590977E+04  0.00000000000E+00 0.  1.
         25    1    1    2    0    0  0.22735672962E+03  0.14715583294E+02 -0.35108552442E+03  0.43679935480E+03  0.12500000000E+03 0.  0.
         21    1    1    2  503  502 -0.20783470468E+03  0.18868743007E+01 -0.10195664957E+04  0.10405357581E+04  0.00000000000E+00 0.  1.
         21    1    1    2  504  501 -0.19522024949E+02 -0.16602457595E+02 -0.13952096360E+02  0.29178965868E+02  0.00000000000E+00 0. -1.
<mgrwt>
<rscale>  4 0.24582897E+03</rscale>
<asrwt>0</asrwt>
<pdfrwt beam="1">  1       21 0.93776899E-02 0.24582897E+03</pdfrwt>
<pdfrwt beam="2">  1       21 0.22239370E+00 0.24582897E+03</pdfrwt>
<totfact> 0.84606757E+03</totfact>
</mgrwt>
</event>
<event>
 5    0  0.1911311E+001  0.2339434E+03  0.7546771E-02  0.1123895E+00
         21   -1    0    0  504  501  0.00000000000E+00  0.00000000000E+00  0.68805080391E+03  0.68805080391E+03  0.00000000000E+00 0. -1.
         21   -1    0    0  503  502 -0.00000000000E+00 -0.00000000000E+00 -0.35619638443E+03  0.35619638443E+03  0.00000000000E+00 0.  1.
         25    1    1    2    0    0 -0.14039489404E+03 -0.14421321020E+03 -0.27176724474E+03  0.36054210792E+03  0.12500000000E+03 0.  0.
         21    1    1    2  503  501 -0.11928918183E+02  0.18292196452E+02 -0.19941035478E+02  0.29572765106E+02  0.00000000000E+00 0.  1.
         21    1    1    2  504  502  0.15232381223E+03  0.12592101374E+03  0.62356269970E+03  0.65413231531E+03  0.00000000000E+00 0. -1.
<mgrwt>
<rscale>  4 0.23394340E+03</rscale>
<asrwt>0</asrwt>
<pdfrwt beam="1">  1       21 0.10585397E+00 0.23394340E+03</pdfrwt>
<pdfrwt beam="2">  1       21 0.54799444E-01 0.23394340E+03</pdfrwt>
<totfact> 0.21753355E+03</totfact>
</mgrwt>
</event>
<event>
 5    0  0.4565662E+001  0.2619611E+03  0.7546771E-02  0.1105971E+00
         21   -1    0    0  504  501  0.00000000000E+00  0.00000000000E+00  0.56003562642E+03  0.56003562642E+03  0.00000000000E+00 0. -1.
         21   -1    0    0  503  502 -0.00000000000E+00 -0.00000000000E+00 -0.23140541582E+03  0.23140541582E+03  0.00000000000E+00 0. -1.
         25    1    1    2    0    0  0.20877468834E+03 -0.29821075163E+02  0.30276354510E+03  0.38957275477E+03  0.12500000000E+03 0.  0.
         21    1    1    2  503  501 -0.23170719261E+03  0.34837308794E+02 -0.11362979723E+03  0.26041042992E+03  0.00000000000E+00 0. -1.
         21    1    1    2  504  502  0.22932504271E+02 -0.50162336313E+01  0.13949646272E+03  0.14145785756E+03  0.00000000000E+00 0.  1.
<mgrwt>
<rscale>  4 0.26196114E+03</rscale>
<asrwt>0</asrwt>
<pdfrwt beam="1">  1       21 0.86159327E-01 0.26196114E+03</pdfrwt>
<pdfrwt beam="2">  1       21 0.35600833E-01 0.26196114E+03</pdfrwt>
<totfact> 0.84586687E+03</totfact>
</mgrwt>
</event>
<event>
 5    0  0.1911311E+001  0.2566182E+03  0.7546771E-02  0.1109192E+00
         21   -1    0    0  504  501  0.00000000000E+00  0.00000000000E+00  0.89852322889E+02  0.89852322889E+02  0.00000000000E+00 0.  1.
         21   -1    0    0  503  502 -0.00000000000E+00 -0.00000000000E+00 -0.11203552561E+04  0.11203552561E+04  0.00000000000E+00 0.  1.
         25    1    1    2    0    0  0.18633609794E+03 -0.12789247087E+03 -0.89435410680E+03  0.93089843370E+03  0.12500000000E+03 0.  0.
         21    1    1    2  503  501 -0.18215275308E+02 -0.10421352293E+02 -0.31269026071E+02  0.37658369980E+02  0.00000000000E+00 0. -1.
         21    1    1    2  504  502 -0.16812082264E+03  0.13831382317E+03 -0.10487980031E+03  0.24165077528E+03  0.00000000000E+00 0.  1.
<mgrwt>
<rscale>  4 0.25661823E+03</rscale>
<asrwt>0</asrwt>
<pdfrwt beam="1">  1       21 0.13823433E-01 0.25661823E+03</pdfrwt>
<pdfrwt beam="2">  1       21 0.17236236E+00 0.25661823E+03</pdfrwt>
<totfact> 0.89281650E+03</totfact>
</mgrwt>
</event>
<event>
 5    0  0.1911311E+001  0.2840504E+03  0.7546771E-02  0.1093497E+00
         21   -1    0    0  504  501  0.00000000000E+00  0.00000000000E+00  0.45008019344E+03  0.45008019344E+03  0.00000000000E+00 0. -1.
         21   -1    0    0  503  502 -0.00000000000E+00 -0.00000000000E+00 -0.67767059285E+03  0.67767059285E+03  0.00000000000E+00 0. -1.
         25    1    1    2    0    0 -0.19884994549E+03 -0.10284294460E+03  0.36608789495E+03  0.44694889966E+03  0.12500000000E+03 0.  0.
         21    1    1    2  503  501  0.22407855506E+03  0.12609928005E+03 -0.59315365685E+03  0.64648548932E+03  0.00000000000E+00 0. -1.
         21    1    1    2  504  502 -0.25228609571E+02 -0.23256335455E+02 -0.52463750793E+00  0.34316397308E+02  0.00000000000E+00 0. -1.
<mgrwt>
<rscale>  4 0.28405042E+03</rscale>
<asrwt>0</asrwt>
<pdfrwt beam="1">  1       21 0.69243107E-01 0.28405042E+03</pdfrwt>
<pdfrwt beam="2">  1       21 0.10425701E+00 0.28405042E+03</pdfrwt>
<totfact> 0.13101122E+03</totfact>
</mgrwt>
</event>
<event>
 5    0  0.1911311E+001  0.2466508E+03  0.7546771E-02  0.1115440E+00
         21   -1    0    0  502  501  0.00000000000E+00  0.00000000000E+00  0.49780845023E+03  0.49780845023E+03  0.00000000000E+00 0. -1.
         21   -1    0    0  504  502 -0.00000000000E+00 -0.00000000000E+00 -0.94365862841E+03  0.94365862841E+03  0.00000000000E+00 0. -1.
         25    1    1    2    0    0 -0.63015103352E+02 -0.20432292789E+03 -0.87624600384E+03  0.91057719132E+03  0.12500000000E+03 0.  0.
         21    1    1    2  503  501  0.14807137361E+02  0.18451584382E+03  0.44048895447E+03  0.47780316758E+03  0.00000000000E+00 0. -1.
         21    1    1    2  504  503  0.48207965991E+02  0.19807084062E+02 -0.10093128814E+02  0.53086719745E+02  0.00000000000E+00 0.  1.
<mgrwt>
<rscale>  4 0.24665083E+03</rscale>
<asrwt>0</asrwt>
<pdfrwt beam="1">  1       21 0.76585916E-01 0.24665083E+03</pdfrwt>
<pdfrwt beam="2">  1       21 0.14517825E+00 0.24665083E+03</pdfrwt>
<totfact> 0.46744303E+02</totfact>
</mgrwt>
</event>
<event>
 5    0  0.1911311E+001  0.2473888E+03  0.7546771E-02  0.1114966E+00
         21   -1    0    0  503  501  0.00000000000E+00  0.00000000000E+00  0.20319628252E+03  0.20319628252E+03  0.00000000000E+00 0.  1.
         21   -1    0    0  504  502 -0.00000000000E+00 -0.00000000000E+00 -0.36808331369E+03  0.36808331369E+03  0.00000000000E+00 0.  1.
         25    1    1    2    0    0  0.16319953889E+03 -0.16790153981E+03 -0.72433857960E+02  0.27513029703E+03  0.12500000000E+03 0.  0.
         21    1    1    2  503  502 -0.17103357117E+03  0.11025609869E+03 -0.11502182747E+03  0.23374967499E+03  0.00000000000E+00 0.  1.
         21    1    1    2  504  501  0.78340322793E+01  0.57645441117E+02  0.22568654270E+02  0.62399624189E+02  0.00000000000E+00 0.  1.
<mgrwt>
<rscale>  4 0.24738875E+03</rscale>
<asrwt>0</asrwt>
<pdfrwt beam="1">  1       21 0.31260967E-01 0.24738875E+03</pdfrwt>
<pdfrwt beam="2">  1       21 0.56628201E-01 0.24738875E+03</pdfrwt>
<totfact> 0.28033706E+04</totfact>
</mgrwt>
</event>
