<event>
 5    0  0.2396052E+000  0.3822500E+03  0.7546771E-02  0.1050105E+00
          2   -1    0    0  503    0 -0.00000000000E+00  0.00000000000E+00  0.13036479713E+04  0.13036479713E+04  0.00000000000E+00 0.  1.
         21   -1    0    0  501  502  0.00000000000E+00 -0.00000000000E+00 -0.23076368080E+03  0.23076368080E+03  0.00000000000E+00 0.  1.
         25    1    1    2    0    0 -0.22624655959E+03 -0.18538161519E+02 -0.11695891465E+03  0.28431594552E+03  0.12500000000E+03 0.  0.
         21    1    1    2  503  502 -0.46090903122E+02 -0.48402726430E+02  0.74731259969E+02  0.10025944590E+03  0.00000000000E+00 0. -1.
          2    1    1    2  501    0  0.27233746271E+03  0.66940887949E+02  0.11151119452E+04  0.11498362607E+04  0.00000000000E+00 0.  1.
<mgrwt>
<rscale>  4 0.38224999E+03</rscale>
<asrwt>0</asrwt>
<pdfrwt beam="1">  1       21 0.35502106E-01 0.38224999E+03</pdfrwt>
<pdfrwt beam="2">  1        2 0.20056122E+00 0.38224999E+03</pdfrwt>
<totfact> 0.15856653E+03</totfact>
</mgrwt>
</event>
<event>
 5    0  0.2396052E+000  0.4753235E+03  0.7546771E-02  0.1020428E+00
          2   -1    0    0  503    0 -0.00000000000E+00  0.00000000000E+00  0.68625551143E+03  0.68625551143E+03  0.00000000000E+00 0.  1.
         21   -1    0    0  501  502  0.00000000000E+00 -0.00000000000E+00 -0.34899229006E+03  0.34899229006E+03  0.00000000000E+00 0.  1.
         25    1    1    2    0    0  0.21264141329E+03 -0.36656628585E+02 -0.16313950882E+03  0.29799258112E+03  0.12500000000E+03 0.  0.
         21    1    1    2  503  502 -0.20377218733E+03  0.56293538028E+02 -0.23682398435E+02  0.21272734368E+03  0.00000000000E+00 0.  1.
          2    1    1    2  501    0 -0.88692259620E+01 -0.19636909442E+02  0.52408512862E+03  0.52452787668E+03  0.00000000000E+00 0.  1.
<mgrwt>
<rscale>  4 0.47532349E+03</rscale>
<asrwt>0</asrwt>
<pdfrwt beam="1">  1       21 0.53691122E-01 0.47532349E+03</pdfrwt>
<pdfrwt beam="2">  1        2 0.10557777E+00 0.47532349E+03</pdfrwt>
<totfact> 0.16295727E+03</totfact>
</mgrwt>
</event>
<event>
 5    0  0.2396052E+000  0.5549168E+03  0.7546771E-02  0.1000362E+00
          2   -1    0    0  503    0 -0.00000000000E+00  0.00000000000E+00  0.19163160610E+04  0.19163160610E+04  0.00000000000E+00 0.  1.
         21   -1    0    0  501  502  0.00000000000E+00 -0.00000000000E+00 -0.90068375614E+02  0.90068375614E+02  0.00000000000E+00 0.  1.
         25    1    1    2    0    0  0.25416409037E+03 -0.94787425700E+02  0.57126743527E+03  0.64463596201E+03  0.12500000000E+03 0.  0.
         21    1    1    2  503  502 -0.21292216076E+03  0.88225637007E+02  0.19772524034E+03  0.30366903075E+03  0.00000000000E+00 0.  1.
          2    1    1    2  501    0 -0.41241929613E+02  0.65617886924E+01  0.10572550097E+04  0.10580794438E+04  0.00000000000E+00 0.  1.
<mgrwt>
<rscale>  4 0.55491677E+03</rscale>
<asrwt>0</asrwt>
<pdfrwt beam="1">  1       21 0.13856675E-01 0.55491677E+03</pdfrwt>
<pdfrwt beam="2">  1        2 0.29481782E+00 0.55491677E+03</pdfrwt>
<totfact> 0.43376708E+03</totfact>
</mgrwt>
</event>
<event>
 5    0  0.2396052E+000  0.4080747E+03  0.7546771E-02  0.1041019E+00
          2   -1    0    0  503    0 -0.00000000000E+00  0.00000000000E+00  0.18085354134E+03  0.18085354134E+03  0.00000000000E+00 0. -1.
         21   -1    0    0  501  502  0.00000000000E+00 -0.00000000000E+00 -0.64024115445E+03  0.64024115445E+03  0.00000000000E+00 0.  1.
         25    1    1    2    0    0 -0.20464980854E+03  0.16618046050E+03 -0.39512877238E+03  0.49117129024E+03  0.12500000000E+03 0.  0.
         21    1    1    2  503  502  0.11448678638E+02 -0.10603008464E+03 -0.69872423081E+02  0.12749747683E+03  0.00000000000E+00 0. -1.
          2    1    1    2  501    0  0.19320112990E+03 -0.60150375861E+02  0.56135823528E+01  0.20242592872E+03  0.00000000000E+00 0. -1.
<mgrwt>
<rscale>  4 0.40807466E+03</rscale>
<asrwt>0</asrwt>
<pdfrwt beam="1">  1       21 0.98498639E-01 0.40807466E+03</pdfrwt>
<pdfrwt beam="2">  1        2 0.27823622E-01 0.40807466E+03</pdfrwt>
<totfact> 0.18706447E+03</totfact>
</mgrwt>
</event>
<event>
 5    0  0.2396052E+000  0.3995997E+03  0.7546771E-02  0.1043918E+00
         21   -1    0    0  501  502  0.00000000000E+00  0.00000000000E+00  0.37498925019E+03  0.37498925019E+03  0.00000000000E+00 0.  1.
          1   -1    0    0  503    0 -0.00000000000E+00 -0.00000000000E+00 -0.23063212029E+03  0.23063212029E+03  0.00000000000E+00 0.  1.
         25    1    1    2    0    0 -0.18057049468E+03  0.13615204539E+03  0.53799519107E+02  0.26393649098E+03  0.12500000000E+03 0.  0.
         21    1    1    2  503  502  0.10997532334E+03 -0.50202149045E+01  0.14592863771E+03  0.18279754267E+03  0.00000000000E+00 0.  1.
          1    1    1    2  501    0  0.70595171342E+02 -0.13113183048E+03 -0.55371026915E+02  0.15888733683E+03  0.00000000000E+00 0.  1.
<mgrwt>
<rscale>  4 0.39959975E+03</rscale>
<asrwt>0</asrwt>
<pdfrwt beam="1">  1       21 0.57690654E-01 0.39959975E+03</pdfrwt>
<pdfrwt beam="2">  1        1 0.35481865E-01 0.39959975E+03</pdfrwt>
<totfact> 0.35715908E+03</totfact>
</mgrwt>
</event>
<event>
 5    0  0.2396052E+000  0.6679546E+03  0.7546771E-02  0.9773660E-01
         21   -1    0    0  501  502  0.00000000000E+00  0.00000000000E+00  0.58587584565E+02  0.58587584565E+02  0.00000000000E+00 0. -1.
          1   -1    0    0  503    0 -0.00000000000E+00 -0.00000000000E+00 -0.23972135007E+04  0.23972135007E+04  0.00000000000E+00 0.  1.
         25    1    1    2    0    0 -0.17018501893E+03  0.16601463411E+03 -0.31052504688E+03  0.41057837759E+03  0.12500000000E+03 0.  0.
         21    1    1    2  503  502  0.15012310456E+03 -0.17087049928E+03 -0.15420819910E+04  0.15587657107E+04  0.00000000000E+00 0.  1.
          1    1    1    2  501    0  0.20061914363E+02  0.48558651740E+01 -0.48601887824E+03  0.48645699691E+03  0.00000000000E+00 0.  1.
<mgrwt>
<rscale>  4 0.66795457E+03</rscale>
<asrwt>0</asrwt>
<pdfrwt beam="1">  1       21 0.90134783E-02 0.66795457E+03</pdfrwt>
<pdfrwt beam="2">  1        1 0.36880192E+00 0.66795457E+03</pdfrwt>
<totfact> 0.18020947E+03</totfact>
</mgrwt>
</event>
<event>
 5    0  0.2396052E+000  0.7207479E+03  0.7546771E-02  0.9682394E-01
          2   -1    0    0  503    0 -0.00000000000E+00  0.00000000000E+00  0.15068988835E+04  0.15068988835E+04  0.00000000000E+00 0.  1.
         21   -1    0    0  501  502  0.00000000000E+00 -0.00000000000E+00 -0.16315426330E+03  0.16315426330E+03  0.00000000000E+00 0. -1.
         25    1    1    2    0    0  0.17720904979E+03 -0.18377089250E+03  0.61522559062E+03  0.67771846339E+03  0.12500000000E+03 0.  0.
         21    1    1    2  503  502 -0.18019467255E+03  0.21727587444E+03  0.19961855655E+02  0.28297950687E+03  0.00000000000E+00 0. -1.
          2    1    1    2  501    0  0.29856227578E+01 -0.33504981939E+02  0.70855717396E+03  0.70935517657E+03  0.00000000000E+00 0.  1.
<mgrwt>
<rscale>  4 0.72074787E+03</rscale>
<asrwt>0</asrwt>
<pdfrwt beam="1">  1       21 0.25100657E-01 0.72074787E+03</pdfrwt>
<pdfrwt beam="2">  1        2 0.23183059E+00 0.72074787E+03</pdfrwt>
<totfact> 0.22769899E+03</totfact>
</mgrwt>
</event>
<event>
 5    0  0.2396052E+000  0.4410073E+03  0.7546771E-02  0.1030438E+00
          2   -1    0    0  503    0 -0.00000000000E+00  0.00000000000E+00  0.11846094686E+04  0.11846094686E+04  0.00000000000E+00 0.  1.
         21   -1    0    0  501  502  0.00000000000E+00 -0.00000000000E+00 -0.31745742167E+03  0.31745742167E+03  0.00000000000E+00 0. -1.
         25    1    1    2    0    0  0.40659179933E+02 -0.24413470430E+03 -0.23852395309E+03  0.36575073336E+03  0.12500000000E+03 0.  0.
         21    1    1    2  503  502  0.21490969159E+01  0.43932336899E+02  0.89525300518E+02  0.99746921135E+02  0.00000000000E+00 0.  1.
          2    1    1    2  501    0 -0.42808276849E+02  0.20020236740E+03  0.10161506995E+04  0.10365692357E+04  0.00000000000E+00 0.  1.
<mgrwt>
<rscale>  4 0.44100733E+03</rscale>
<asrwt>0</asrwt>
<pdfrwt beam="1">  1       21 0.48839604E-01 0.44100733E+03</pdfrwt>
<pdfrwt beam="2">  1        2 0.18224761E+00 0.44100733E+03</pdfrwt>
<totfact> 0.94358805E+02</totfact>
</mgrwt>
</event>
<event>
 5    0  0.2396052E+000  0.6314118E+03  0.7546771E-02  0.9842298E-01
         21   -1    0    0  501  502  0.00000000000E+00  0.00000000000E+00  0.10358466957E+03  0.10358466957E+03  0.00000000000E+00 0.  1.
          2   -1    0    0  503    0 -0.00000000000E+00 -0.00000000000E+00 -0.13273037640E+04  0.13273037640E+04  0.00000000000E+00 0.  1.
         25    1    1    2    0    0  0.29605472254E+03 -0.12275563089E+03 -0.45143652545E+03  0.56757138772E+03  0.12500000000E+03 0.  0.
         21    1    1    2  503  502 -0.26329148159E+03  0.11398052813E+03 -0.41552340222E+03  0.50494916859E+03  0.00000000000E+00 0.  1.
          2    1    1    2  501    0 -0.32763240949E+02  0.87751027592E+01 -0.35675916678E+03  0.35836787728E+03  0.00000000000E+00 0.  1.
<mgrwt>
<rscale>  4 0.63141177E+03</rscale>
<asrwt>0</asrwt>
<pdfrwt beam="1">  1       21 0.15936104E-01 0.63141177E+03</pdfrwt>
<pdfrwt beam="2">  1        2 0.20420056E+00 0.63141177E+03</pdfrwt>
<totfact> 0.69536017E+03</totfact>
</mgrwt>
</event>
<event>
 5    0  0.2396052E+000  0.6018205E+03  0.7546771E-02  0.9901636E-01
          3   -1    0    0  503    0 -0.00000000000E+00  0.00000000000E+00  0.75857049986E+03  0.75857049986E+03  0.00000000000E+00 0. -1.
         21   -1    0    0  501  502  0.00000000000E+00 -0.00000000000E+00 -0.33318110070E+03  0.33318110070E+03  0.00000000000E+00 0. -1.
         25    1    1    2    0    0 -0.25800818243E+03 -0.30601763907E+02 -0.15041190785E+03  0.32519752794E+03  0.12500000000E+03 0.  0.
         21    1    1    2  503  502  0.25764593893E+03  0.61247535589E+02  0.89873006387E+02  0.27966023625E+03  0.00000000000E+00 0. -1.
          3    1    1    2  501    0  0.36224350013E+00 -0.30645771682E+02  0.48592830063E+03  0.48689383637E+03  0.00000000000E+00 0. -1.
<mgrwt>
<rscale>  4 0.60182053E+03</rscale>
<asrwt>0</asrwt>
<pdfrwt beam="1">  1       21 0.51258631E-01 0.60182053E+03</pdfrwt>
<pdfrwt beam="2">  1        3 0.11670315E+00 0.60182053E+03</pdfrwt>
<totfact> 0.10408740E+02</totfact>
</mgrwt>
</event>
<event>
 5    0  0.2396052E+000  0.6132340E+03  0.7546771E-02  0.9878324E-01
         -1   -1    0    0    0  501 -0.00000000000E+00  0.00000000000E+00  0.93155700900E+03  0.93155700900E+03  0.00000000000E+00 0.  1.
         21   -1    0    0  501  502  0.00000000000E+00 -0.00000000000E+00 -0.23999337442E+03  0.23999337442E+03  0.00000000000E+00 0.  1.
         25    1    1    2    0    0  0.51240168572E+02 -0.25542117099E+03  0.17004215810E+03  0.33526834774E+03  0.12500000000E+03 0.  0.
         21    1    1    2  503  502 -0.94068817925E+02  0.28151901517E+03 -0.15213166147E+02  0.29720925092E+03  0.00000000000E+00 0.  1.
         -1    1    1    2    0  503  0.42828649353E+02 -0.26097844189E+02  0.53673464262E+03  0.53907278476E+03  0.00000000000E+00 0.  1.
<mgrwt>
<rscale>  4 0.61323397E+03</rscale>
<asrwt>0</asrwt>
<pdfrwt beam="1">  1       21 0.36922058E-01 0.61323397E+03</pdfrwt>
<pdfrwt beam="2">  1       -1 0.14331646E+00 0.61323397E+03</pdfrwt>
<totfact> 0.25108999E+02</totfact>
</mgrwt>
</event>
<event>
 5    0  0.2396052E+000  0.4637702E+03  0.7546771E-02  0.1023693E+00
         -2   -1    0    0    0  501 -0.00000000000E+00  0.00000000000E+00  0.19806569821E+03  0.19806569821E+03  0.00000000000E+00 0. -1.
         21   -1    0    0  501  502  0.00000000000E+00 -0.00000000000E+00 -0.88587733116E+03  0.88587733116E+03  0.00000000000E+00 0. -1.
         25    1    1    2    0    0  0.15851177795E+03 -0.13138290223E+03 -0.47433826718E+03  0.53198612995E+03  0.12500000000E+03 0.  0.
         21    1    1    2  503  502 -0.18347816384E+03  0.12288674473E+03 -0.34948790317E+03  0.41340921990E+03  0.00000000000E+00 0. -1.
         -2    1    1    2    0  503  0.24966385881E+02  0.84961575054E+01  0.13601453740E+03  0.13854767952E+03  0.00000000000E+00 0. -1.
<mgrwt>
<rscale>  4 0.46377021E+03</rscale>
<asrwt>0</asrwt>
<pdfrwt beam="1">  1       21 0.13628882E+00 0.46377021E+03</pdfrwt>
<pdfrwt beam="2">  1       -2 0.30471646E-01 0.46377021E+03</pdfrwt>
<totfact> 0.27620845E+02</totfact>
</mgrwt>
</event>
<event>
 5    0  0.2396052E+000  0.4357121E+03  0.7546771E-02  0.1032071E+00
          1   -1    0    0  503    0 -0.00000000000E+00  0.00000000000E+00  0.12149440984E+04  0.12149440984E+04  0.00000000000E+00 0. -1.
         21   -1    0    0  501  502  0.00000000000E+00 -0.00000000000E+00 -0.47365167159E+02  0.47365167159E+02  0.00000000000E+00 0. -1.
         25    1    1    2    0    0 -0.72399653956E+02 -0.18722644792E+03  0.37463637909E+03  0.44302693962E+03  0.12500000000E+03 0.  0.
         21    1    1    2  503  502  0.44569041301E+02  0.16232546378E+03  0.62844053338E+03  0.65059469689E+03  0.00000000000E+00 0.  1.
          1    1    1    2  501    0  0.27830612654E+02  0.24900984140E+02  0.16450201873E+03  0.16868762900E+03  0.00000000000E+00 0. -1.
<mgrwt>
<rscale>  4 0.43571205E+03</rscale>
<asrwt>0</asrwt>
<pdfrwt beam="1">  1       21 0.72869497E-02 0.43571205E+03</pdfrwt>
<pdfrwt beam="2">  1        1 0.18691445E+00 0.43571205E+03</pdfrwt>
<totfact> 0.17058793E+04</totfact>
</mgrwt>
</event>
<event>
 5    0  0.2396052E+000  0.4026307E+03  0.7546771E-02  0.1042873E+00
         -4   -1    0    0    0  501 -0.00000000000E+00  0.00000000000E+00  0.20786120631E+03  0.20786120631E+03  0.00000000000E+00 0.  1.
         21   -1    0    0  501  502  0.00000000000E+00 -0.00000000000E+00 -0.34294716068E+03  0.34294716068E+03  0.00000000000E+00 0.  1.
         25    1    1    2    0    0  0.10685833661E+03  0.18624865365E+03 -0.81356796828E+02  0.26144061176E+03  0.12500000000E+03 0.  0.
         21    1    1    2  503  502 -0.13946359772E+03 -0.59281667932E+02 -0.12986982809E+02  0.15209560469E+03  0.00000000000E+00 0.  1.
         -4    1    1    2    0  503  0.32605261115E+02 -0.12696698572E+03 -0.40742174733E+02  0.13727215055E+03  0.00000000000E+00 0.  1.
<mgrwt>
<rscale>  4 0.40263067E+03</rscale>
<asrwt>0</asrwt>
<pdfrwt beam="1">  1       21 0.52761101E-01 0.40263067E+03</pdfrwt>
<pdfrwt beam="2">  1       -4 0.31978648E-01 0.40263067E+03</pdfrwt>
<totfact> 0.13437489E+03</totfact>
</mgrwt>
</event>
<event>
 5    0  0.2396052E+000  0.9042423E+03  0.7546771E-02  0.9420294E-01
          2   -1    0    0  503    0 -0.00000000000E+00  0.00000000000E+00  0.22334150517E+04  0.22334150517E+04  0.00000000000E+00 0. -1.
         21   -1    0    0  501  502  0.00000000000E+00 -0.00000000000E+00 -0.12525052075E+03  0.12525052075E+03  0.00000000000E+00 0. -1.
         25    1    1    2    0    0  0.29909578245E+02  0.27646259127E+03  0.14705130655E+04  0.15017855450E+04  0.12500000000E+03 0.  0.
         21    1    1    2  503  502 -0.26833199230E+02 -0.25371992883E+03  0.39365383277E+02  0.25815393909E+03  0.00000000000E+00 0. -1.
          2    1    1    2  501    0 -0.30763790157E+01 -0.22742662443E+02  0.59828608216E+03  0.59872608839E+03  0.00000000000E+00 0. -1.
<mgrwt>
<rscale>  4 0.90424226E+03</rscale>
<asrwt>0</asrwt>
<pdfrwt beam="1">  1       21 0.19269312E-01 0.90424226E+03</pdfrwt>
<pdfrwt beam="2">  1        2 0.34360229E+00 0.90424226E+03</pdfrwt>
<totfact> 0.14799640E+03</totfact>
</mgrwt>
</event>
<event>
 5    0  0.2396052E+000  0.5542464E+03  0.7546771E-02  0.1000516E+00
          2   -1    0    0  503    0 -0.00000000000E+00  0.00000000000E+00  0.11245431346E+04  0.11245431346E+04  0.00000000000E+00 0.  1.
         21   -1    0    0  501  502  0.00000000000E+00 -0.00000000000E+00 -0.17496611437E+03  0.17496611437E+03  0.00000000000E+00 0.  1.
         25    1    1    2    0    0  0.21481350088E+03 -0.10072231704E+03  0.53559724156E+03  0.59898182817E+03  0.12500000000E+03 0.  0.
         21    1    1    2  503  502  0.11294066705E+03  0.13030364049E+03  0.96837176188E+00  0.17244004970E+03  0.00000000000E+00 0.  1.
          2    1    1    2  501    0 -0.32775416792E+03 -0.29581323444E+02  0.41301140695E+03  0.52808737114E+03  0.00000000000E+00 0.  1.
<mgrwt>
<rscale>  4 0.55424639E+03</rscale>
<asrwt>0</asrwt>
<pdfrwt beam="1">  1       21 0.26917864E-01 0.55424639E+03</pdfrwt>
<pdfrwt beam="2">  1        2 0.17300663E+00 0.55424639E+03</pdfrwt>
<totfact> 0.33720618E+03</totfact>
</mgrwt>
</event>
<event>
 5    0  0.2396052E+000  0.4525350E+03  0.7546771E-02  0.1026969E+00
          2   -1    0    0  503    0 -0.00000000000E+00  0.00000000000E+00  0.15456609032E+04  0.15456609032E+04  0.00000000000E+00 0.  1.
         21   -1    0    0  501  502  0.00000000000E+00 -0.00000000000E+00 -0.66854880187E+02  0.66854880187E+02  0.00000000000E+00 0.  1.
         25    1    1    2    0    0  0.64041282483E+02  0.20317055843E+03  0.36515920343E+03  0.44084669164E+03  0.12500000000E+03 0.  0.
         21    1    1    2  503  502 -0.96621641856E+01 -0.20460865606E+03  0.34592602233E+03  0.40202347254E+03  0.00000000000E+00 0.  1.
          2    1    1    2  501    0 -0.54379118297E+02  0.14380976336E+01  0.76772079722E+03  0.76964561918E+03  0.00000000000E+00 0.  1.
<mgrwt>
<rscale>  4 0.45253499E+03</rscale>
<asrwt>0</asrwt>
<pdfrwt beam="1">  1       21 0.10285367E-01 0.45253499E+03</pdfrwt>
<pdfrwt beam="2">  1        2 0.23779396E+00 0.45253499E+03</pdfrwt>
<totfact> 0.12061108E+04</totfact>
</mgrwt>
</event>
<event>
 5    0  0.2396052E+000  0.4516967E+03  0.7546771E-02  0.1027217E+00
          4   -1    0    0  503    0 -0.00000000000E+00  0.00000000000E+00  0.17475961519E+03  0.17475961519E+03  0.00000000000E+00 0.  1.
         21   -1    0    0  501  502  0.00000000000E+00 -0.00000000000E+00 -0.15743948546E+04  0.15743948546E+04  0.00000000000E+00 0. -1.
         25    1    1    2    0    0  0.96338278413E+02 -0.25612859581E+03 -0.79360482932E+03  0.84871464380E+03  0.12500000000E+03 0.  0.
         21    1    1    2  503  502  0.65518529146E+02  0.11606876361E+03 -0.66515797937E+03  0.67838025699E+03  0.00000000000E+00 0. -1.
          4    1    1    2  501    0 -0.16185680756E+03  0.14005983219E+03  0.59127569262E+02  0.22205956902E+03  0.00000000000E+00 0.  1.
<mgrwt>
<rscale>  4 0.45169669E+03</rscale>
<asrwt>0</asrwt>
<pdfrwt beam="1">  1       21 0.24221459E+00 0.45169669E+03</pdfrwt>
<pdfrwt beam="2">  1        4 0.26886095E-01 0.45169669E+03</pdfrwt>
<totfact> 0.36357930E+01</totfact>
</mgrwt>
</event>
<event>
 5    0  0.2396052E+000  0.5006512E+03  0.7546771E-02  0.1013609E+00
          2   -1    0    0  503    0 -0.00000000000E+00  0.00000000000E+00  0.15071451767E+04  0.15071451767E+04  0.00000000000E+00 0. -1.
         21   -1    0    0  501  502  0.00000000000E+00 -0.00000000000E+00 -0.15954960557E+03  0.15954960557E+03  0.00000000000E+00 0. -1.
         25    1    1    2    0    0 -0.13263278949E+03 -0.24895864648E+03  0.70883859660E+03  0.77307762905E+03  0.12500000000E+03 0.  0.
         21    1    1    2  503  502  0.18626549020E+03 -0.15786082037E+02  0.59028855030E+03  0.61918059227E+03  0.00000000000E+00 0. -1.
          2    1    1    2  501    0 -0.53632700714E+02  0.26474472852E+03  0.48468424275E+02  0.27443656101E+03  0.00000000000E+00 0. -1.
<mgrwt>
<rscale>  4 0.50065119E+03</rscale>
<asrwt>0</asrwt>
<pdfrwt beam="1">  1       21 0.24546094E-01 0.50065119E+03</pdfrwt>
<pdfrwt beam="2">  1        2 0.23186848E+00 0.50065119E+03</pdfrwt>
<totfact> 0.24691688E+03</totfact>
</mgrwt>
</event>
<event>
 5    0  0.2396052E+000  0.4490052E+03  0.7546771E-02  0.1028019E+00
          1   -1    0    0  503    0 -0.00000000000E+00  0.00000000000E+00  0.18009272458E+04  0.18009272458E+04  0.00000000000E+00 0. -1.
         21   -1    0    0  501  502  0.00000000000E+00 -0.00000000000E+00 -0.51831002244E+02  0.51831002244E+02  0.00000000000E+00 0.  1.
         25    1    1    2    0    0  0.17778726971E+03  0.11179977167E+03  0.37483273124E+03  0.44747299207E+03  0.12500000000E+03 0.  0.
         21    1    1    2  503  502 -0.12825248631E+03 -0.13184129354E+03  0.56341788080E+03  0.59268080391E+03  0.00000000000E+00 0. -1.
          1    1    1    2  501    0 -0.49534783404E+02  0.20041521861E+02  0.81084563149E+03  0.81260445203E+03  0.00000000000E+00 0. -1.
<mgrwt>
<rscale>  4 0.44900524E+03</rscale>
<asrwt>0</asrwt>
<pdfrwt beam="1">  1       21 0.79740017E-02 0.44900524E+03</pdfrwt>
<pdfrwt beam="2">  1        1 0.27706568E+00 0.44900524E+03</pdfrwt>
<totfact> 0.58199752E+03</totfact>
</mgrwt>
</event>
<event>
 5    0  0.2396052E+000  0.5393167E+03  0.7546771E-02  0.1003997E+00
         -1   -1    0    0    0  501 -0.00000000000E+00  0.00000000000E+00  0.37446173013E+03  0.37446173013E+03  0.00000000000E+00 0. -1.
         21   -1    0    0  501  502  0.00000000000E+00 -0.00000000000E+00 -0.24465379821E+03  0.24465379821E+03  0.00000000000E+00 0.  1.
         25    1    1    2    0    0  0.27036075297E+03 -0.45677415829E+02  0.80687670755E+02  0.31195650863E+03  0.12500000000E+03 0.  0.
         21    1    1    2  503  502 -0.23206652083E+03  0.12992808982E+02 -0.59990527315E+01  0.23250735861E+03  0.00000000000E+00 0.  1.
         -1    1    1    2    0  503 -0.38294232147E+02  0.32684606848E+02  0.55119313894E+02  0.74651661098E+02  0.00000000000E+00 0. -1.
<mgrwt>
<rscale>  4 0.53931671E+03</rscale>
<asrwt>0</asrwt>
<pdfrwt beam="1">  1       21 0.37639046E-01 0.53931671E+03</pdfrwt>
<pdfrwt beam="2">  1       -1 0.57609497E-01 0.53931671E+03</pdfrwt>
<totfact> 0.18515756E+03</totfact>
</mgrwt>
</event>
<event>
 5    0  0.2396052E+000  0.3959455E+03  0.7546771E-02  0.1045193E+00
          1   -1    0    0  503    0 -0.00000000000E+00  0.00000000000E+00  0.11734823336E+04  0.11734823336E+04  0.00000000000E+00 0. -1.
         21   -1    0    0  501  502  0.00000000000E+00 -0.00000000000E+00 -0.27110132675E+03  0.27110132675E+03  0.00000000000E+00 0.  1.
         25    1    1    2    0    0 -0.18904731200E+03  0.20319427338E+03 -0.14191160533E+03  0.33584327095E+03  0.12500000000E+03 0.  0.
         21    1    1    2  503  502  0.63707154672E+02 -0.37964684424E+00  0.37121535399E+02  0.73734348024E+02  0.00000000000E+00 0. -1.
          1    1    1    2  501    0  0.12534015733E+03 -0.20281462654E+03  0.10071710768E+04  0.10350060414E+04  0.00000000000E+00 0. -1.
<mgrwt>
<rscale>  4 0.39594554E+03</rscale>
<asrwt>0</asrwt>
<pdfrwt beam="1">  1       21 0.41707897E-01 0.39594554E+03</pdfrwt>
<pdfrwt beam="2">  1        1 0.18053574E+00 0.39594554E+03</pdfrwt>
<totfact> 0.68288643E+02</totfact>
</mgrwt>
</event>
<event>
 5    0  0.2396052E+000  0.5508450E+03  0.7546771E-02  0.1001299E+00
         21   -1    0    0  501  502  0.00000000000E+00  0.00000000000E+00  0.18387764731E+03  0.18387764731E+03  0.00000000000E+00 0. -1.
          1   -1    0    0  503    0 -0.00000000000E+00 -0.00000000000E+00 -0.65840882617E+03  0.65840882617E+03  0.00000000000E+00 0. -1.
         25    1    1    2    0    0  0.31936937681E+03  0.84647295722E+02 -0.22053880812E+03  0.41644246830E+03  0.12500000000E+03 0.  0.
         21    1    1    2  503  502 -0.19524349799E+03 -0.27342107541E+02 -0.10401660363E+03  0.22290596265E+03  0.00000000000E+00 0.  1.
          1    1    1    2  501    0 -0.12412587882E+03 -0.57305188181E+02 -0.14997576712E+03  0.20293804253E+03  0.00000000000E+00 0. -1.
<mgrwt>
<rscale>  4 0.55084499E+03</rscale>
<asrwt>0</asrwt>
<pdfrwt beam="1">  1       21 0.28288869E-01 0.55084499E+03</pdfrwt>
<pdfrwt beam="2">  1        1 0.10129366E+00 0.55084499E+03</pdfrwt>
<totfact> 0.37887556E+03</totfact>
</mgrwt>
</event>
<event>
 5    0  0.2396052E+000  0.4602519E+03  0.7546771E-02  0.1024708E+00
          2   -1    0    0  503    0 -0.00000000000E+00  0.00000000000E+00  0.27514330431E+03  0.27514330431E+03  0.00000000000E+00 0.  1.
         21   -1    0    0  501  502  0.00000000000E+00 -0.00000000000E+00 -0.63139235237E+03  0.63139235237E+03  0.00000000000E+00 0.  1.
         25    1    1    2    0    0  0.12858694827E+03  0.29365616236E+03 -0.39672912543E+03  0.52515478092E+03  0.12500000000E+03 0.  0.
         21    1    1    2  503  502 -0.76452993676E+02 -0.80213782538E+02 -0.74372281890E+02  0.13345616308E+03  0.00000000000E+00 0. -1.
          2    1    1    2  501    0 -0.52133954593E+02 -0.21344237982E+03  0.11485235927E+03  0.24792471267E+03  0.00000000000E+00 0.  1.
<mgrwt>
<rscale>  4 0.46025193E+03</rscale>
<asrwt>0</asrwt>
<pdfrwt beam="1">  1       21 0.97137285E-01 0.46025193E+03</pdfrwt>
<pdfrwt beam="2">  1        2 0.42329739E-01 0.46025193E+03</pdfrwt>
<totfact> 0.12016048E+03</totfact>
</mgrwt>
</event>
<event>
 5    0  0.2396052E+000  0.4961089E+03  0.7546771E-02  0.1014800E+00
          2   -1    0    0  503    0 -0.00000000000E+00  0.00000000000E+00  0.95322991919E+03  0.95322991919E+03  0.00000000000E+00 0.  1.
         21   -1    0    0  501  502  0.00000000000E+00 -0.00000000000E+00 -0.86791234835E+02  0.86791234835E+02  0.00000000000E+00 0.  1.
         25    1    1    2    0    0 -0.22175814810E+03  0.13575421746E+02  0.54981163360E+03  0.60603531313E+03  0.12500000000E+03 0.  0.
         21    1    1    2  503  502  0.18126124662E+03 -0.47109125580E+02  0.10249893643E+03  0.21349693490E+03  0.00000000000E+00 0.  1.
          2    1    1    2  501    0  0.40496901481E+02  0.33533703834E+02  0.21412811432E+03  0.22048890599E+03  0.00000000000E+00 0.  1.
<mgrwt>
<rscale>  4 0.49610889E+03</rscale>
<asrwt>0</asrwt>
<pdfrwt beam="1">  1       21 0.13352498E-01 0.49610889E+03</pdfrwt>
<pdfrwt beam="2">  1        2 0.14665075E+00 0.49610889E+03</pdfrwt>
<totfact> 0.16463184E+04</totfact>
</mgrwt>
</event>
<event>
 5    0  0.2396052E+000  0.4182981E+03  0.7546771E-02  0.1037622E+00
          1   -1    0    0  503    0 -0.00000000000E+00  0.00000000000E+00  0.30494562595E+03  0.30494562595E+03  0.00000000000E+00 0. -1.
         21   -1    0    0  501  502  0.00000000000E+00 -0.00000000000E+00 -0.68068935543E+03  0.68068935543E+03  0.00000000000E+00 0.  1.
         25    1    1    2    0    0  0.88207502949E+02 -0.19438575704E+03 -0.57767344323E+03  0.62840909695E+03  0.12500000000E+03 0.  0.
         21    1    1    2  503  502 -0.40807413226E+02  0.93359484125E+02 -0.24498376795E+02  0.10479221687E+03  0.00000000000E+00 0. -1.
          1    1    1    2  501    0 -0.47400089723E+02  0.10102627291E+03  0.22642809055E+03  0.25243366755E+03  0.00000000000E+00 0. -1.
<mgrwt>
<rscale>  4 0.41829806E+03</rscale>
<asrwt>0</asrwt>
<pdfrwt beam="1">  1       21 0.10472144E+00 0.41829806E+03</pdfrwt>
<pdfrwt beam="2">  1        1 0.46914712E-01 0.41829806E+03</pdfrwt>
<totfact> 0.63261295E+02</totfact>
</mgrwt>
</event>
<event>
 5    0  0.2396052E+000  0.6105135E+03  0.7546771E-02  0.9883831E-01
         21   -1    0    0  501  502  0.00000000000E+00  0.00000000000E+00  0.50024681517E+03  0.50024681517E+03  0.00000000000E+00 0.  1.
          1   -1    0    0  503    0 -0.00000000000E+00 -0.00000000000E+00 -0.68308411785E+03  0.68308411785E+03  0.00000000000E+00 0. -1.
         25    1    1    2    0    0 -0.33880594484E+03 -0.26277099788E+03  0.28342831784E+02  0.44751132019E+03  0.12500000000E+03 0.  0.
         21    1    1    2  503  502 -0.33133508159E+02  0.10425988384E+03  0.15541486848E+03  0.19005718636E+03  0.00000000000E+00 0. -1.
          1    1    1    2  501    0  0.37193945299E+03  0.15851111404E+03 -0.36659500295E+03  0.54576242648E+03  0.00000000000E+00 0. -1.
<mgrwt>
<rscale>  4 0.61051348E+03</rscale>
<asrwt>0</asrwt>
<pdfrwt beam="1">  1       21 0.76961048E-01 0.61051348E+03</pdfrwt>
<pdfrwt beam="2">  1        1 0.10508986E+00 0.61051348E+03</pdfrwt>
<totfact> 0.42300953E+02</totfact>
</mgrwt>
</event>
<event>
 5    0  0.2396052E+000  0.4141752E+03  0.7546771E-02  0.1038979E+00
         21   -1    0    0  501  502  0.00000000000E+00  0.00000000000E+00  0.20056063675E+03  0.20056063675E+03  0.00000000000E+00 0. -1.
         -1   -1    0    0    0  501 -0.00000000000E+00 -0.00000000000E+00 -0.60043209195E+03  0.60043209195E+03  0.00000000000E+00 0. -1.
         25    1    1    2    0    0  0.56844871016E+02  0.29882367973E+03 -0.87471450151E+02  0.34029867105E+03  0.12500000000E+03 0.  0.
         21    1    1    2  503  502 -0.42515688009E+02 -0.73516401092E+02 -0.13308197019E+02  0.85961346338E+02  0.00000000000E+00 0.  1.
         -1    1    1    2    0  503 -0.14329183007E+02 -0.22530727864E+03 -0.29909180803E+03  0.37473271131E+03  0.00000000000E+00 0. -1.
<mgrwt>
<rscale>  4 0.41417516E+03</rscale>
<asrwt>0</asrwt>
<pdfrwt beam="1">  1       21 0.30855483E-01 0.41417516E+03</pdfrwt>
<pdfrwt beam="2">  1       -1 0.92374167E-01 0.41417516E+03</pdfrwt>
<totfact> 0.10684576E+03</totfact>
</mgrwt>
</event>
<event>
 5    0  0.2396052E+000  0.6180522E+03  0.7546771E-02  0.9868645E-01
         21   -1    0    0  501  502  0.00000000000E+00  0.00000000000E+00  0.17822563968E+04  0.17822563968E+04  0.00000000000E+00 0. -1.
          2   -1    0    0  503    0 -0.00000000000E+00 -0.00000000000E+00 -0.10303545172E+04  0.10303545172E+04  0.00000000000E+00 0. -1.
         25    1    1    2    0    0  0.20240120829E+03 -0.49597763339E+02  0.15348588186E+04  0.15539764413E+04  0.12500000000E+03 0.  0.
         21    1    1    2  503  502  0.58181884198E+02 -0.18376296537E+03  0.16150766664E+03  0.25147303130E+03  0.00000000000E+00 0.  1.
          2    1    1    2  501    0 -0.26058309249E+03  0.23336072871E+03 -0.94446460556E+03  0.10071614414E+04  0.00000000000E+00 0. -1.
<mgrwt>
<rscale>  4 0.61805222E+03</rscale>
<asrwt>0</asrwt>
<pdfrwt beam="1">  1       21 0.27419329E+00 0.61805222E+03</pdfrwt>
<pdfrwt beam="2">  1        2 0.15851608E+00 0.61805222E+03</pdfrwt>
<totfact> 0.11280002E+01</totfact>
</mgrwt>
</event>
<event>
 5    0  0.2396052E+000  0.4212422E+03  0.7546771E-02  0.1036663E+00
         21   -1    0    0  501  502  0.00000000000E+00  0.00000000000E+00  0.62351663973E+03  0.62351663973E+03  0.00000000000E+00 0. -1.
          4   -1    0    0  503    0 -0.00000000000E+00 -0.00000000000E+00 -0.68188607080E+03  0.68188607080E+03  0.00000000000E+00 0.  1.
         25    1    1    2    0    0  0.15131850506E+03 -0.26427376563E+03  0.32058050879E+03  0.45949404326E+03  0.12500000000E+03 0.  0.
         21    1    1    2  503  502 -0.57115838003E+02 -0.45381389010E+02  0.18322695086E+03  0.19721512351E+03  0.00000000000E+00 0.  1.
          4    1    1    2  501    0 -0.94202667055E+02  0.30965515464E+03 -0.56217689071E+03  0.64869354377E+03  0.00000000000E+00 0.  1.
<mgrwt>
<rscale>  4 0.42124218E+03</rscale>
<asrwt>0</asrwt>
<pdfrwt beam="1">  1       21 0.95925637E-01 0.42124218E+03</pdfrwt>
<pdfrwt beam="2">  1        4 0.10490555E+00 0.42124218E+03</pdfrwt>
<totfact> 0.27180464E+01</totfact>
</mgrwt>
</event>
<event>
 5    0  0.2396052E+000  0.9611990E+03  0.7546771E-02  0.9352156E-01
         -1   -1    0    0    0  501 -0.00000000000E+00  0.00000000000E+00  0.46685899595E+03  0.46685899595E+03  0.00000000000E+00 0. -1.
         21   -1    0    0  501  502  0.00000000000E+00 -0.00000000000E+00 -0.16782664479E+04  0.16782664479E+04  0.00000000000E+00 0. -1.
         25    1    1    2    0    0 -0.28050469546E+03  0.28161079356E+03 -0.26916459866E+03  0.49604647403E+03  0.12500000000E+03 0.  0.
         21    1    1    2  503  502  0.27045837928E+03 -0.22998457532E+03 -0.12692000458E+04  0.13179185848E+04  0.00000000000E+00 0. -1.
         -1    1    1    2    0  503  0.10046316187E+02 -0.51626218241E+02  0.32695719252E+03  0.33116038504E+03  0.00000000000E+00 0. -1.
<mgrwt>
<rscale>  4 0.96119897E+03</rscale>
<asrwt>0</asrwt>
<pdfrwt beam="1">  1       21 0.25819484E+00 0.96119897E+03</pdfrwt>
<pdfrwt beam="2">  1       -1 0.71824460E-01 0.96119897E+03</pdfrwt>
<totfact> 0.78208855E+00</totfact>
</mgrwt>
</event>
<event>
 5    0  0.2396052E+000  0.3706788E+03  0.7546771E-02  0.1054434E+00
          1   -1    0    0  503    0 -0.00000000000E+00  0.00000000000E+00  0.12443445752E+03  0.12443445752E+03  0.00000000000E+00 0. -1.
         21   -1    0    0  501  502  0.00000000000E+00 -0.00000000000E+00 -0.56440109129E+03  0.56440109129E+03  0.00000000000E+00 0. -1.
         25    1    1    2    0    0  0.20713270024E+03  0.11216205526E+03 -0.23589396760E+03  0.35602703002E+03  0.12500000000E+03 0.  0.
         21    1    1    2  503  502 -0.69470549301E+02 -0.69065622304E+02 -0.14917707435E+03  0.17846573037E+03  0.00000000000E+00 0. -1.
          1    1    1    2  501    0 -0.13766215094E+03 -0.43096432959E+02 -0.54895591824E+02  0.15434278842E+03  0.00000000000E+00 0. -1.
<mgrwt>
<rscale>  4 0.37067884E+03</rscale>
<asrwt>0</asrwt>
<pdfrwt beam="1">  1       21 0.86830936E-01 0.37067884E+03</pdfrwt>
<pdfrwt beam="2">  1        1 0.19143763E-01 0.37067884E+03</pdfrwt>
<totfact> 0.31692594E+03</totfact>
</mgrwt>
</event>
<event>
 5    0  0.2396052E+000  0.5378296E+03  0.7546771E-02  0.1004351E+00
          2   -1    0    0  503    0 -0.00000000000E+00  0.00000000000E+00  0.12551131596E+04  0.12551131596E+04  0.00000000000E+00 0. -1.
         21   -1    0    0  501  502  0.00000000000E+00 -0.00000000000E+00 -0.19939603151E+03  0.19939603151E+03  0.00000000000E+00 0. -1.
         25    1    1    2    0    0 -0.15084181098E+03 -0.20208975317E+03  0.12908281753E+02  0.28175369388E+03  0.12500000000E+03 0.  0.
         21    1    1    2  503  502  0.12786522680E+03  0.19888991484E+03  0.15079201679E+03  0.28043706385E+03  0.00000000000E+00 0. -1.
          2    1    1    2  501    0  0.22976584183E+02  0.31998383233E+01  0.89201682956E+03  0.89231843341E+03  0.00000000000E+00 0. -1.
<mgrwt>
<rscale>  4 0.53782958E+03</rscale>
<asrwt>0</asrwt>
<pdfrwt beam="1">  1       21 0.30676313E-01 0.53782958E+03</pdfrwt>
<pdfrwt beam="2">  1        2 0.19309433E+00 0.53782958E+03</pdfrwt>
<totfact> 0.21864898E+03</totfact>
</mgrwt>
</event>
<event>
 5    0  0.2396052E+000  0.3723306E+03  0.7546771E-02  0.1053805E+00
         21   -1    0    0  501  502  0.00000000000E+00  0.00000000000E+00  0.74532781412E+02  0.74532781412E+02  0.00000000000E+00 0. -1.
          1   -1    0    0  503    0 -0.00000000000E+00 -0.00000000000E+00 -0.19871705357E+04  0.19871705357E+04  0.00000000000E+00 0.  1.
         25    1    1    2    0    0  0.18842756086E+03  0.77746741445E+02 -0.28465681356E+03  0.37175798983E+03  0.12500000000E+03 0.  0.
         21    1    1    2  503  502 -0.12545714875E+03 -0.37525914542E+02 -0.11254223610E+03  0.17266570401E+03  0.00000000000E+00 0.  1.
          1    1    1    2  501    0 -0.62970412105E+02 -0.40220826903E+02 -0.15154387047E+04  0.15172796233E+04  0.00000000000E+00 0.  1.
<mgrwt>
<rscale>  4 0.37233060E+03</rscale>
<asrwt>0</asrwt>
<pdfrwt beam="1">  1       21 0.11466582E-01 0.37233060E+03</pdfrwt>
<pdfrwt beam="2">  1        1 0.30571852E+00 0.37233060E+03</pdfrwt>
<totfact> 0.23327253E+03</totfact>
</mgrwt>
</event>
<event>
 5    0  0.2396052E+000  0.5455717E+03  0.7546771E-02  0.1002524E+00
         21   -1    0    0  501  502  0.00000000000E+00  0.00000000000E+00  0.76777125680E+02  0.76777125680E+02  0.00000000000E+00 0.  1.
          2   -1    0    0  503    0 -0.00000000000E+00 -0.00000000000E+00 -0.26004157540E+04  0.26004157540E+04  0.00000000000E+00 0.  1.
         25    1    1    2    0    0 -0.21248798369E+03  0.87729384348E+01 -0.33418181601E+03  0.41536802213E+03  0.12500000000E+03 0.  0.
         21    1    1    2  503  502 -0.15847573628E+02  0.23304847719E+03 -0.98215290988E+03  0.10095479566E+04  0.00000000000E+00 0. -1.
          2    1    1    2  501    0  0.22833555732E+03 -0.24182141563E+03 -0.12073039025E+04  0.12522769010E+04  0.00000000000E+00 0.  1.
<mgrwt>
<rscale>  4 0.54557166E+03</rscale>
<asrwt>0</asrwt>
<pdfrwt beam="1">  1       21 0.11811865E-01 0.54557166E+03</pdfrwt>
<pdfrwt beam="2">  1        2 0.40006399E+00 0.54557166E+03</pdfrwt>
<totfact> 0.24508301E+03</totfact>
</mgrwt>
</event>
<event>
 5    0  0.2396052E+000  0.6409606E+03  0.7546771E-02  0.9823890E-01
          2   -1    0    0  503    0 -0.00000000000E+00  0.00000000000E+00  0.16260762688E+04  0.16260762688E+04  0.00000000000E+00 0.  1.
         21   -1    0    0  501  502  0.00000000000E+00 -0.00000000000E+00 -0.12849207222E+04  0.12849207222E+04  0.00000000000E+00 0. -1.
         25    1    1    2    0    0  0.24673451742E+03 -0.18088971847E+03 -0.10895072942E+04  0.11385298224E+04  0.12500000000E+03 0.  0.
         21    1    1    2  503  502 -0.17921798415E+03  0.72770098984E+02 -0.11268907334E+03  0.22386022513E+03  0.00000000000E+00 0. -1.
          2    1    1    2  501    0 -0.67516533272E+02  0.10811961948E+03  0.15433519142E+04  0.15486069435E+04  0.00000000000E+00 0.  1.
<mgrwt>
<rscale>  4 0.64096063E+03</rscale>
<asrwt>0</asrwt>
<pdfrwt beam="1">  1       21 0.19768011E+00 0.64096063E+03</pdfrwt>
<pdfrwt beam="2">  1        2 0.25016558E+00 0.64096063E+03</pdfrwt>
<totfact> 0.15628395E+01</totfact>
</mgrwt>
</event>
<event>
 5    0  0.2396052E+000  0.9269485E+03  0.7546771E-02  0.9392508E-01
         21   -1    0    0  501  502  0.00000000000E+00  0.00000000000E+00  0.14604084410E+03  0.14604084410E+03  0.00000000000E+00 0. -1.
          2   -1    0    0  503    0 -0.00000000000E+00 -0.00000000000E+00 -0.24819025841E+04  0.24819025841E+04  0.00000000000E+00 0.  1.
         25    1    1    2    0    0  0.18190543102E+01 -0.33626478726E+03 -0.12625056698E+04  0.13124872885E+04  0.12500000000E+03 0.  0.
         21    1    1    2  503  502  0.13152978887E+02  0.30030050179E+03 -0.66512520244E+02  0.30785923338E+03  0.00000000000E+00 0. -1.
          2    1    1    2  501    0 -0.14972033197E+02  0.35964285472E+02 -0.10068435499E+04  0.10075969063E+04  0.00000000000E+00 0.  1.
<mgrwt>
<rscale>  4 0.92694849E+03</rscale>
<asrwt>0</asrwt>
<pdfrwt beam="1">  1       21 0.22467823E-01 0.92694849E+03</pdfrwt>
<pdfrwt beam="2">  1        2 0.38183115E+00 0.92694849E+03</pdfrwt>
<totfact> 0.79427029E+02</totfact>
</mgrwt>
</event>
<event>
 5    0  0.2396052E+000  0.4096780E+03  0.7546771E-02  0.1040479E+00
          2   -1    0    0  503    0 -0.00000000000E+00  0.00000000000E+00  0.10375300875E+04  0.10375300875E+04  0.00000000000E+00 0. -1.
         21   -1    0    0  501  502  0.00000000000E+00 -0.00000000000E+00 -0.39287220749E+03  0.39287220749E+03  0.00000000000E+00 0.  1.
         25    1    1    2    0    0 -0.14365173073E+03  0.21704344697E+03 -0.27587064715E+03  0.39934107173E+03  0.12500000000E+03 0.  0.
         21    1    1    2  503  502 -0.34658769696E+02 -0.83546278867E+02  0.69464160323E+01  0.90716391711E+02  0.00000000000E+00 0. -1.
          2    1    1    2  501    0  0.17831050042E+03 -0.13349716810E+03  0.91358211108E+03  0.94034483151E+03  0.00000000000E+00 0. -1.
<mgrwt>
<rscale>  4 0.40967801E+03</rscale>
<asrwt>0</asrwt>
<pdfrwt beam="1">  1       21 0.60441878E-01 0.40967801E+03</pdfrwt>
<pdfrwt beam="2">  1        2 0.15962001E+00 0.40967801E+03</pdfrwt>
<totfact> 0.73658099E+02</totfact>
</mgrwt>
</event>
<event>
 5    0  0.2396052E+000  0.7286931E+03  0.7546771E-02  0.9669383E-01
         21   -1    0    0  501  502  0.00000000000E+00  0.00000000000E+00  0.45782953010E+03  0.45782953010E+03  0.00000000000E+00 0. -1.
          1   -1    0    0  503    0 -0.00000000000E+00 -0.00000000000E+00 -0.87518128062E+03  0.87518128062E+03  0.00000000000E+00 0. -1.
         25    1    1    2    0    0 -0.32829408493E+03  0.61762409428E+02  0.30087134254E+02  0.35794110837E+03  0.12500000000E+03 0.  0.
         21    1    1    2  503  502  0.35716134573E+03 -0.74119759081E+02  0.13710224836E+03  0.38968576068E+03  0.00000000000E+00 0. -1.
          1    1    1    2  501    0 -0.28867260806E+02  0.12357349653E+02 -0.58454113313E+03  0.58538394166E+03  0.00000000000E+00 0. -1.
<mgrwt>
<rscale>  4 0.72869311E+03</rscale>
<asrwt>0</asrwt>
<pdfrwt beam="1">  1       21 0.70435313E-01 0.72869311E+03</pdfrwt>
<pdfrwt beam="2">  1        1 0.13464327E+00 0.72869311E+03</pdfrwt>
<totfact> 0.34371929E+02</totfact>
</mgrwt>
</event>
<event>
 5    0  0.2396052E+000  0.5727204E+03  0.7546771E-02  0.9963677E-01
         21   -1    0    0  501  502  0.00000000000E+00  0.00000000000E+00  0.13358307371E+03  0.13358307371E+03  0.00000000000E+00 0. -1.
          2   -1    0    0  503    0 -0.00000000000E+00 -0.00000000000E+00 -0.17880952059E+04  0.17880952059E+04  0.00000000000E+00 0. -1.
         25    1    1    2    0    0  0.20480052064E+03  0.30689944412E+03 -0.47646969676E+03  0.61545015557E+03  0.12500000000E+03 0.  0.
         21    1    1    2  503  502  0.10846145453E+03 -0.51321681340E+02 -0.52201153594E+03  0.53562472474E+03  0.00000000000E+00 0.  1.
          2    1    1    2  501    0 -0.31326197517E+03 -0.25557776278E+03 -0.65603089944E+03  0.77060339925E+03  0.00000000000E+00 0. -1.
<mgrwt>
<rscale>  4 0.57272036E+03</rscale>
<asrwt>0</asrwt>
<pdfrwt beam="1">  1       21 0.20551242E-01 0.57272036E+03</pdfrwt>
<pdfrwt beam="2">  1        2 0.27509157E+00 0.57272036E+03</pdfrwt>
<totfact> 0.24140409E+03</totfact>
</mgrwt>
</event>
<event>
 5    0  0.2396052E+000  0.3915998E+03  0.7546771E-02  0.1046728E+00
         21   -1    0    0  501  502  0.00000000000E+00  0.00000000000E+00  0.76784684769E+02  0.76784684769E+02  0.00000000000E+00 0.  1.
          2   -1    0    0  503    0 -0.00000000000E+00 -0.00000000000E+00 -0.15895444907E+04  0.15895444907E+04  0.00000000000E+00 0.  1.
         25    1    1    2    0    0  0.16841762658E+01 -0.25641022078E+03 -0.26179119816E+03  0.38718040912E+03  0.12500000000E+03 0.  0.
         21    1    1    2  503  502  0.29372987064E+02  0.48004852522E+02 -0.25546783023E+03  0.26159329219E+03  0.00000000000E+00 0. -1.
          2    1    1    2  501    0 -0.31057163330E+02  0.20840536826E+03 -0.99550077757E+03  0.10175554742E+04  0.00000000000E+00 0.  1.
<mgrwt>
<rscale>  4 0.39159981E+03</rscale>
<asrwt>0</asrwt>
<pdfrwt beam="1">  1       21 0.11813029E-01 0.39159981E+03</pdfrwt>
<pdfrwt beam="2">  1        2 0.24454528E+00 0.39159981E+03</pdfrwt>
<totfact> 0.89868568E+03</totfact>
</mgrwt>
</event>
<event>
 5    0  0.2396052E+000  0.5248556E+03  0.7546771E-02  0.1007487E+00
         21   -1    0    0  501  502  0.00000000000E+00  0.00000000000E+00  0.42303346180E+03  0.42303346180E+03  0.00000000000E+00 0.  1.
          2   -1    0    0  503    0 -0.00000000000E+00 -0.00000000000E+00 -0.10133770201E+04  0.10133770201E+04  0.00000000000E+00 0.  1.
         25    1    1    2    0    0  0.17090385384E+03  0.15644267553E+03  0.79970594271E+01  0.26338449261E+03  0.12500000000E+03 0.  0.
         21    1    1    2  503  502 -0.16331724646E+03 -0.11752845236E+03  0.25159982955E+03  0.32216134829E+03  0.00000000000E+00 0.  1.
          2    1    1    2  501    0 -0.75866073851E+01 -0.38914223172E+02 -0.84994044726E+03  0.85086464097E+03  0.00000000000E+00 0.  1.
<mgrwt>
<rscale>  4 0.52485559E+03</rscale>
<asrwt>0</asrwt>
<pdfrwt beam="1">  1       21 0.65082072E-01 0.52485559E+03</pdfrwt>
<pdfrwt beam="2">  1        2 0.15590416E+00 0.52485559E+03</pdfrwt>
<totfact> 0.62826159E+02</totfact>
</mgrwt>
</event>
<event>
 5    0  0.2396052E+000  0.4284386E+03  0.7546771E-02  0.1034354E+00
          2   -1    0    0  503    0 -0.00000000000E+00  0.00000000000E+00  0.15259588708E+04  0.15259588708E+04  0.00000000000E+00 0.  1.
         21   -1    0    0  501  502  0.00000000000E+00 -0.00000000000E+00 -0.96397878046E+02  0.96397878046E+02  0.00000000000E+00 0.  1.
         25    1    1    2    0    0 -0.13753664650E+03 -0.15095607203E+03  0.74304043765E+03  0.78066520148E+03  0.12500000000E+03 0.  0.
         21    1    1    2  503  502  0.18460853985E+03 -0.40475310112E+02  0.59510264166E+03  0.62439227880E+03  0.00000000000E+00 0.  1.
          2    1    1    2  501    0 -0.47071893354E+02  0.19143138214E+03  0.91417913403E+02  0.21729926853E+03  0.00000000000E+00 0.  1.
<mgrwt>
<rscale>  4 0.42843859E+03</rscale>
<asrwt>0</asrwt>
<pdfrwt beam="1">  1       21 0.14830444E-01 0.42843859E+03</pdfrwt>
<pdfrwt beam="2">  1        2 0.23476289E+00 0.42843859E+03</pdfrwt>
<totfact> 0.63640769E+03</totfact>
</mgrwt>
</event>
<event>
 5    0  0.2396052E+000  0.6270396E+03  0.7546771E-02  0.9850843E-01
          2   -1    0    0  503    0 -0.00000000000E+00  0.00000000000E+00  0.12780471865E+04  0.12780471865E+04  0.00000000000E+00 0. -1.
         21   -1    0    0  501  502  0.00000000000E+00 -0.00000000000E+00 -0.15195501071E+03  0.15195501071E+03  0.00000000000E+00 0.  1.
         25    1    1    2    0    0 -0.19755089535E+03 -0.64404977629E+02 -0.35294101860E+02  0.24504087623E+03  0.12500000000E+03 0.  0.
         21    1    1    2  503  502  0.14447340998E+03  0.46952491728E+02  0.53680582364E+03  0.55788672234E+03  0.00000000000E+00 0. -1.
          2    1    1    2  501    0  0.53077485371E+02  0.17452485901E+02  0.62458045401E+03  0.62707459863E+03  0.00000000000E+00 0. -1.
<mgrwt>
<rscale>  4 0.62703965E+03</rscale>
<asrwt>0</asrwt>
<pdfrwt beam="1">  1       21 0.23377695E-01 0.62703965E+03</pdfrwt>
<pdfrwt beam="2">  1        2 0.19662264E+00 0.62703965E+03</pdfrwt>
<totfact> 0.35712424E+03</totfact>
</mgrwt>
</event>
<event>
 5    0  0.2396052E+000  0.5058011E+03  0.7546771E-02  0.1012276E+00
          1   -1    0    0  503    0 -0.00000000000E+00  0.00000000000E+00  0.21694285233E+04  0.21694285233E+04  0.00000000000E+00 0. -1.
         21   -1    0    0  501  502  0.00000000000E+00 -0.00000000000E+00 -0.64972361218E+02  0.64972361218E+02  0.00000000000E+00 0. -1.
         25    1    1    2    0    0  0.19955201219E+03 -0.27715123194E+03  0.10200149681E+04  0.10829078197E+04  0.12500000000E+03 0.  0.
         21    1    1    2  503  502 -0.82120487477E+02  0.89628782874E+02  0.15998870784E+03  0.20093153017E+03  0.00000000000E+00 0. -1.
          1    1    1    2  501    0 -0.11743152471E+03  0.18752244907E+03  0.92445248621E+03  0.95056153466E+03  0.00000000000E+00 0. -1.
<mgrwt>
<rscale>  4 0.50580115E+03</rscale>
<asrwt>0</asrwt>
<pdfrwt beam="1">  1       21 0.99957495E-02 0.50580115E+03</pdfrwt>
<pdfrwt beam="2">  1        1 0.33375818E+00 0.50580115E+03</pdfrwt>
<totfact> 0.21920566E+03</totfact>
</mgrwt>
</event>
<event>
 5    0  0.2396052E+000  0.5011025E+03  0.7546771E-02  0.1013492E+00
         21   -1    0    0  501  502  0.00000000000E+00  0.00000000000E+00  0.18267978359E+04  0.18267978359E+04  0.00000000000E+00 0.  1.
          2   -1    0    0  503    0 -0.00000000000E+00 -0.00000000000E+00 -0.15524066615E+04  0.15524066615E+04  0.00000000000E+00 0.  1.
         25    1    1    2    0    0  0.15910542884E+03  0.15136165374E+03  0.17826399354E+04  0.18004596710E+04  0.12500000000E+03 0.  0.
         21    1    1    2  503  502 -0.48546020497E+02  0.23063331667E+02  0.26373059402E+01  0.53810675115E+02  0.00000000000E+00 0. -1.
          2    1    1    2  501    0 -0.11055940835E+03 -0.17442498540E+03 -0.15108860669E+04  0.15249341512E+04  0.00000000000E+00 0.  1.
<mgrwt>
<rscale>  4 0.50110247E+03</rscale>
<asrwt>0</asrwt>
<pdfrwt beam="1">  1       21 0.28104582E+00 0.50110247E+03</pdfrwt>
<pdfrwt beam="2">  1        2 0.23883179E+00 0.50110247E+03</pdfrwt>
<totfact> 0.54209110E+00</totfact>
</mgrwt>
</event>
<event>
 5    0  0.2396052E+000  0.9099965E+03  0.7546771E-02  0.9413171E-01
         21   -1    0    0  501  502  0.00000000000E+00  0.00000000000E+00  0.24186049960E+03  0.24186049960E+03  0.00000000000E+00 0.  1.
          1   -1    0    0  503    0 -0.00000000000E+00 -0.00000000000E+00 -0.15409229018E+04  0.15409229018E+04  0.00000000000E+00 0.  1.
         25    1    1    2    0    0 -0.27193719759E+03 -0.29025572981E+03 -0.23690578953E+03  0.47952849887E+03  0.12500000000E+03 0.  0.
         21    1    1    2  503  502  0.26724698711E+03  0.40852550924E+03 -0.40148243868E+03  0.63206185804E+03  0.00000000000E+00 0.  1.
          1    1    1    2  501    0  0.46902104834E+01 -0.11826977943E+03 -0.66067417400E+03  0.67119304450E+03  0.00000000000E+00 0.  1.
<mgrwt>
<rscale>  4 0.90999648E+03</rscale>
<asrwt>0</asrwt>
<pdfrwt beam="1">  1       21 0.37209308E-01 0.90999648E+03</pdfrwt>
<pdfrwt beam="2">  1        1 0.23706506E+00 0.90999648E+03</pdfrwt>
<totfact> 0.43199133E+02</totfact>
</mgrwt>
</event>
<event>
 5    0  0.2396052E+000  0.4385192E+03  0.7546771E-02  0.1031202E+00
         21   -1    0    0  501  502  0.00000000000E+00  0.00000000000E+00  0.83285990946E+03  0.83285990946E+03  0.00000000000E+00 0.  1.
          2   -1    0    0  503    0 -0.00000000000E+00 -0.00000000000E+00 -0.36598105885E+03  0.36598105885E+03  0.00000000000E+00 0.  1.
         25    1    1    2    0    0  0.13113879839E+03 -0.23083377475E+03  0.53082639405E+03  0.60653382151E+03  0.12500000000E+03 0.  0.
         21    1    1    2  503  502  0.88102143799E+02  0.11129085005E+03  0.18933001713E+03  0.23662944963E+03  0.00000000000E+00 0. -1.
          2    1    1    2  501    0 -0.21924094219E+03  0.11954292471E+03 -0.25327756057E+03  0.35567769718E+03  0.00000000000E+00 0.  1.
<mgrwt>
<rscale>  4 0.43851915E+03</rscale>
<asrwt>0</asrwt>
<pdfrwt beam="1">  1       21 0.12813229E+00 0.43851915E+03</pdfrwt>
<pdfrwt beam="2">  1        2 0.56304779E-01 0.43851915E+03</pdfrwt>
<totfact> 0.44236427E+02</totfact>
</mgrwt>
</event>
<event>
 5    0  0.2396052E+000  0.4593591E+03  0.7546771E-02  0.1024967E+00
         21   -1    0    0  501  502  0.00000000000E+00  0.00000000000E+00  0.15335632743E+03  0.15335632743E+03  0.00000000000E+00 0.  1.
          2   -1    0    0  503    0 -0.00000000000E+00 -0.00000000000E+00 -0.68397364079E+03  0.68397364079E+03  0.00000000000E+00 0.  1.
         25    1    1    2    0    0  0.23091468412E+02 -0.23621549575E+03 -0.12947438898E+03  0.29785834511E+03  0.12500000000E+03 0.  0.
         21    1    1    2  503  502 -0.26360696246E+02  0.18845226280E+03 -0.66728689954E+02  0.20164786069E+03  0.00000000000E+00 0.  1.
          2    1    1    2  501    0  0.32692278342E+01  0.47763232957E+02 -0.33441423442E+03  0.33782376242E+03  0.00000000000E+00 0.  1.
<mgrwt>
<rscale>  4 0.45935912E+03</rscale>
<asrwt>0</asrwt>
<pdfrwt beam="1">  1       21 0.23593281E-01 0.45935912E+03</pdfrwt>
<pdfrwt beam="2">  1        2 0.10522672E+00 0.45935912E+03</pdfrwt>
<totfact> 0.87435353E+03</totfact>
</mgrwt>
</event>
<event>
 5    0  0.2396052E+000  0.4097323E+03  0.7546771E-02  0.1040461E+00
         21   -1    0    0  501  502  0.00000000000E+00  0.00000000000E+00  0.28621001927E+03  0.28621001927E+03  0.00000000000E+00 0. -1.
          1   -1    0    0  503    0 -0.00000000000E+00 -0.00000000000E+00 -0.63245732427E+03  0.63245732427E+03  0.00000000000E+00 0. -1.
         25    1    1    2    0    0 -0.14960341231E+03 -0.19032475615E+03  0.10093833407E+03  0.29054817340E+03  0.12500000000E+03 0.  0.
         21    1    1    2  503  502  0.95228831067E+02  0.97500275801E+02  0.29499698295E+02  0.13944556733E+03  0.00000000000E+00 0. -1.
          1    1    1    2  501    0  0.54374581244E+02  0.92824480350E+02 -0.47668533737E+03  0.48867360282E+03  0.00000000000E+00 0. -1.
<mgrwt>
<rscale>  4 0.40973227E+03</rscale>
<asrwt>0</asrwt>
<pdfrwt beam="1">  1       21 0.44032311E-01 0.40973227E+03</pdfrwt>
<pdfrwt beam="2">  1        1 0.97301127E-01 0.40973227E+03</pdfrwt>
<totfact> 0.16764645E+03</totfact>
</mgrwt>
</event>
<event>
 5    0  0.2396052E+000  0.5877198E+03  0.7546771E-02  0.9931216E-01
         21   -1    0    0  501  502  0.00000000000E+00  0.00000000000E+00  0.33096196676E+03  0.33096196676E+03  0.00000000000E+00 0. -1.
          2   -1    0    0  503    0 -0.00000000000E+00 -0.00000000000E+00 -0.10424827351E+04  0.10424827351E+04  0.00000000000E+00 0.  1.
         25    1    1    2    0    0 -0.14839992714E+03  0.22115681278E+03  0.20867745061E+03  0.36069953231E+03  0.12500000000E+03 0.  0.
         21    1    1    2  503  502  0.11107686624E+03 -0.14297659170E+03 -0.14295030625E+03  0.23068412612E+03  0.00000000000E+00 0. -1.
          2    1    1    2  501    0  0.37323060900E+02 -0.78180221079E+02 -0.77724791273E+03  0.78206104346E+03  0.00000000000E+00 0.  1.
<mgrwt>
<rscale>  4 0.58771981E+03</rscale>
<asrwt>0</asrwt>
<pdfrwt beam="1">  1       21 0.50917227E-01 0.58771981E+03</pdfrwt>
<pdfrwt beam="2">  1        2 0.16038196E+00 0.58771981E+03</pdfrwt>
<totfact> 0.10170243E+03</totfact>
</mgrwt>
</event>
<event>
 5    0  0.2396052E+000  0.7167979E+03  0.7546771E-02  0.9688929E-01
         21   -1    0    0  501  502  0.00000000000E+00  0.00000000000E+00  0.11910151465E+03  0.11910151465E+03  0.00000000000E+00 0.  1.
          1   -1    0    0  503    0 -0.00000000000E+00 -0.00000000000E+00 -0.22953073841E+04  0.22953073841E+04  0.00000000000E+00 0. -1.
         25    1    1    2    0    0  0.31548329876E+03  0.12231658353E+02 -0.31845571441E+03  0.46553020020E+03  0.12500000000E+03 0.  0.
         21    1    1    2  503  502 -0.26002962940E+03  0.20463448699E+03 -0.76594768564E+03  0.83436595003E+03  0.00000000000E+00 0. -1.
          1    1    1    2  501    0 -0.55453669356E+02 -0.21686614534E+03 -0.10918024694E+04  0.11145127485E+04  0.00000000000E+00 0. -1.
<mgrwt>
<rscale>  4 0.71679793E+03</rscale>
<asrwt>0</asrwt>
<pdfrwt beam="1">  1       21 0.18323311E-01 0.71679793E+03</pdfrwt>
<pdfrwt beam="2">  1        1 0.35312420E+00 0.71679793E+03</pdfrwt>
<totfact> 0.56361159E+02</totfact>
</mgrwt>
</event>
<event>
 5    0  0.2396052E+000  0.5104347E+03  0.7546771E-02  0.1011091E+00
         21   -1    0    0  501  502  0.00000000000E+00  0.00000000000E+00  0.39419645564E+03  0.39419645564E+03  0.00000000000E+00 0. -1.
          3   -1    0    0  503    0 -0.00000000000E+00 -0.00000000000E+00 -0.22197122281E+03  0.22197122281E+03  0.00000000000E+00 0. -1.
         25    1    1    2    0    0 -0.97546325600E+02 -0.21276180643E+03  0.24438028717E+02  0.26646780136E+03  0.12500000000E+03 0.  0.
         21    1    1    2  503  502  0.11962117317E+03  0.17771566443E+03  0.19302935866E+03  0.28836160590E+03  0.00000000000E+00 0. -1.
          3    1    1    2  501    0 -0.22074847575E+02  0.35046142002E+02 -0.45242154547E+02  0.61338271191E+02  0.00000000000E+00 0. -1.
<mgrwt>
<rscale>  4 0.51043472E+03</rscale>
<asrwt>0</asrwt>
<pdfrwt beam="1">  1       21 0.60645608E-01 0.51043472E+03</pdfrwt>
<pdfrwt beam="2">  1        3 0.34149419E-01 0.51043472E+03</pdfrwt>
<totfact> 0.10188068E+03</totfact>
</mgrwt>
</event>
<event>
 5    0  0.2396052E+000  0.4256238E+03  0.7546771E-02  0.1035251E+00
          1   -1    0    0  503    0 -0.00000000000E+00  0.00000000000E+00  0.43988294737E+03  0.43988294737E+03  0.00000000000E+00 0. -1.
         21   -1    0    0  501  502  0.00000000000E+00 -0.00000000000E+00 -0.25501871911E+03  0.25501871911E+03  0.00000000000E+00 0.  1.
         25    1    1    2    0    0  0.21741974520E+03  0.17691162935E+02 -0.27411735109E+02  0.25290457898E+03  0.12500000000E+03 0.  0.
         21    1    1    2  503  502 -0.17296370790E+03 -0.50921485808E+00 -0.46309023457E+02  0.17905649724E+03  0.00000000000E+00 0. -1.
          1    1    1    2  501    0 -0.44456037300E+02 -0.17181948077E+02  0.25858498683E+03  0.26294059026E+03  0.00000000000E+00 0. -1.
<mgrwt>
<rscale>  4 0.42562380E+03</rscale>
<asrwt>0</asrwt>
<pdfrwt beam="1">  1       21 0.39233649E-01 0.42562380E+03</pdfrwt>
<pdfrwt beam="2">  1        1 0.67674300E-01 0.42562380E+03</pdfrwt>
<totfact> 0.34917109E+03</totfact>
</mgrwt>
</event>
<event>
 5    0  0.2396052E+000  0.6503920E+03  0.7546771E-02  0.9806044E-01
          2   -1    0    0  503    0 -0.00000000000E+00  0.00000000000E+00  0.84605505920E+03  0.84605505920E+03  0.00000000000E+00 0. -1.
         21   -1    0    0  501  502  0.00000000000E+00 -0.00000000000E+00 -0.29790540553E+03  0.29790540553E+03  0.00000000000E+00 0.  1.
         25    1    1    2    0    0  0.35786924233E+03  0.29509746042E+01 -0.17974562816E+02  0.37950914055E+03  0.12500000000E+03 0.  0.
         21    1    1    2  503  502 -0.25625058964E+03  0.43142310351E+02  0.89342907346E+02  0.27478678775E+03  0.00000000000E+00 0.  1.
          2    1    1    2  501    0 -0.10161865269E+03 -0.46093284955E+02  0.47678130914E+03  0.48966453643E+03  0.00000000000E+00 0. -1.
<mgrwt>
<rscale>  4 0.65039198E+03</rscale>
<asrwt>0</asrwt>
<pdfrwt beam="1">  1       21 0.45831601E-01 0.65039198E+03</pdfrwt>
<pdfrwt beam="2">  1        2 0.13016232E+00 0.65039198E+03</pdfrwt>
<totfact> 0.16925925E+03</totfact>
</mgrwt>
</event>
<event>
 5    0  0.2396052E+000  0.4465872E+03  0.7546771E-02  0.1028745E+00
          2   -1    0    0  503    0 -0.00000000000E+00  0.00000000000E+00  0.41415128162E+03  0.41415128162E+03  0.00000000000E+00 0. -1.
         21   -1    0    0  501  502  0.00000000000E+00 -0.00000000000E+00 -0.44676375362E+03  0.44676375362E+03  0.00000000000E+00 0. -1.
         25    1    1    2    0    0 -0.17492929089E+03 -0.12112087308E+03 -0.23531032077E+03  0.34097869401E+03  0.12500000000E+03 0.  0.
         21    1    1    2  503  502  0.17099711520E+03  0.89341132116E+02 -0.98790645343E+02  0.21675203090E+03  0.00000000000E+00 0. -1.
          2    1    1    2  501    0  0.39321756937E+01  0.31779740962E+02  0.30148849411E+03  0.30318431032E+03  0.00000000000E+00 0. -1.
<mgrwt>
<rscale>  4 0.44658718E+03</rscale>
<asrwt>0</asrwt>
<pdfrwt beam="1">  1       21 0.68732885E-01 0.44658718E+03</pdfrwt>
<pdfrwt beam="2">  1        2 0.63715582E-01 0.44658718E+03</pdfrwt>
<totfact> 0.17144102E+03</totfact>
</mgrwt>
</event>
<event>
 5    0  0.2396052E+000  0.6621829E+03  0.7546771E-02  0.9784184E-01
          2   -1    0    0  503    0 -0.00000000000E+00  0.00000000000E+00  0.19291708534E+04  0.19291708534E+04  0.00000000000E+00 0.  1.
         21   -1    0    0  501  502  0.00000000000E+00 -0.00000000000E+00 -0.91198018047E+02  0.91198018047E+02  0.00000000000E+00 0. -1.
         25    1    1    2    0    0  0.24413470935E+03  0.13739846782E+03  0.92454139482E+03  0.97410568523E+03  0.12500000000E+03 0.  0.
         21    1    1    2  503  502 -0.21881879744E+03 -0.14074682953E+03  0.18947689018E+03  0.32185839751E+03  0.00000000000E+00 0. -1.
          2    1    1    2  501    0 -0.25315911913E+02  0.33483617055E+01  0.72395455036E+03  0.72440478871E+03  0.00000000000E+00 0.  1.
<mgrwt>
<rscale>  4 0.66218288E+03</rscale>
<asrwt>0</asrwt>
<pdfrwt beam="1">  1       21 0.14030466E-01 0.66218288E+03</pdfrwt>
<pdfrwt beam="2">  1        2 0.29679548E+00 0.66218288E+03</pdfrwt>
<totfact> 0.40980980E+03</totfact>
</mgrwt>
</event>
<event>
 5    0  0.2396052E+000  0.6803345E+03  0.7546771E-02  0.9751467E-01
          2   -1    0    0  503    0 -0.00000000000E+00  0.00000000000E+00  0.36127331300E+03  0.36127331300E+03  0.00000000000E+00 0.  1.
         21   -1    0    0  501  502  0.00000000000E+00 -0.00000000000E+00 -0.71175703637E+03  0.71175703637E+03  0.00000000000E+00 0. -1.
         25    1    1    2    0    0 -0.22407525162E+03 -0.25652035541E+03 -0.50650728333E+03  0.62304657867E+03  0.12500000000E+03 0.  0.
         21    1    1    2  503  502  0.11618530584E+03  0.20593751071E+03 -0.20136610867E+02  0.23730732544E+03  0.00000000000E+00 0.  1.
          2    1    1    2  501    0  0.10788994578E+03  0.50582844696E+02  0.17616017083E+03  0.21267644525E+03  0.00000000000E+00 0.  1.
<mgrwt>
<rscale>  4 0.68033451E+03</rscale>
<asrwt>0</asrwt>
<pdfrwt beam="1">  1       21 0.10950108E+00 0.68033451E+03</pdfrwt>
<pdfrwt beam="2">  1        2 0.55580510E-01 0.68033451E+03</pdfrwt>
<totfact> 0.63575742E+02</totfact>
</mgrwt>
</event>
<event>
 5    0  0.2396052E+000  0.7905621E+03  0.7546771E-02  0.9573779E-01
         -1   -1    0    0    0  501 -0.00000000000E+00  0.00000000000E+00  0.22881857231E+03  0.22881857231E+03  0.00000000000E+00 0. -1.
         21   -1    0    0  501  502  0.00000000000E+00 -0.00000000000E+00 -0.12651069779E+04  0.12651069779E+04  0.00000000000E+00 0. -1.
         25    1    1    2    0    0 -0.24573112184E+03  0.83763899840E+02 -0.43512071732E+02  0.29140774791E+03  0.12500000000E+03 0.  0.
         21    1    1    2  503  502  0.13368353524E+03 -0.55897295792E+01 -0.10470095197E+04  0.10555242617E+04  0.00000000000E+00 0. -1.
         -1    1    1    2    0  503  0.11204758659E+03 -0.78174170261E+02  0.54233185787E+02  0.14699354067E+03  0.00000000000E+00 0. -1.
<mgrwt>
<rscale>  4 0.79056214E+03</rscale>
<asrwt>0</asrwt>
<pdfrwt beam="1">  1       21 0.19463184E+00 0.79056214E+03</pdfrwt>
<pdfrwt beam="2">  1       -1 0.35202858E-01 0.79056214E+03</pdfrwt>
<totfact> 0.82409861E+01</totfact>
</mgrwt>
</event>
