<LesHouchesEvents version="3.0">
  <!--
  <scalesfunctionalform>
    muR  H_T/2 := sum_i mT(i)/2, i=final state
    muF1 H_T/2 := sum_i mT(i)/2, i=final state
    muF2 H_T/2 := sum_i mT(i)/2, i=final state
    QES  H_T/2 := sum_i mT(i)/2, i=final state
  </scalesfunctionalform>
HERWIG6   
  -->
  <header>
      166
  </header>
  <init>
   2212   2212 0.65000000D+04 0.65000000D+04 -1 -1   247000   247000 -3   1
 0.33325385D-01 0.76785458D-03 0.42750230D-03     66
  </init>
  <event>
  6     66 0.42750230E-03 0.49227711E+02 0.75467711E-02 0.11954961E+00
        1 -1    0    0  503    0 0.00000000E+00 0.00000000E+00 0.12777869E+04 0.12777869E+04 0.32000000E+00 0.0000E+00 0.9000E+01
       -2 -1    0    0    0  501 0.00000000E+00 0.00000000E+00 -.90770239E+02 0.90770803E+02 0.32000000E+00 0.0000E+00 0.9000E+01
       25  1    1    2    0    0 0.17823815E+02 0.31291392E+02 0.64098670E+02 0.14501889E+03 0.12500000E+03 0.0000E+00 0.9000E+01
      -24  1    1    2    0    0 -.86243253E+01 0.50753700E+02 0.85370660E+01 0.95866650E+02 0.80419002E+02 0.0000E+00 0.9000E+01
       21  1    1    2  502  501 -.63494966E+00 -.22279376E+02 0.15558324E+02 0.27191869E+02 0.75000000E+00 0.0000E+00 0.9000E+01
       21  1    1    2  503  502 -.85645401E+01 -.59765716E+02 0.10988226E+04 0.11004803E+04 0.75000000E+00 0.0000E+00 0.9000E+01
#aMCatNLO 2  0  0  1  2 0.60376255D+02 0.00000000D+00  -5  6  0 0.00000000D+00 0.00000000D+00 0.00000000D+00 0.00000000D+00 0.00000000D+00
  <mgrwgt>
 0.1980638271D+00    1    2    0
 0.122924787715126D+03 0.000000000000000D+00 0.000000000000000D+00 0.122924787715126D+03
 0.122924787715126D+03 0.000000000000000D+00 0.000000000000000D+00 -.122924787715126D+03
 0.126908223311912D+03 0.133934634293225D+02 0.378157780245758D+00 0.173542294051559D+02
 0.894352053198793D+02 -.118504505227705D+02 0.282430096836143D+02 -.243585554304248D+02
 0.295061467984616D+02 -.154301290655199D+01 -.286211674638600D+02 0.700432602526888D+01
 0.000000000000000D+00 -.000000000000000D+00 -.000000000000000D+00 0.000000000000000D+00
 0.907952005337343D+03 0.000000000000000D+00 0.000000000000000D+00 0.907952005337343D+03
 0.127743661142145D+03 0.000000000000000D+00 0.000000000000000D+00 -.127743661142145D+03
 0.131237663587253D+03 0.178240883312154D+02 0.312962767874288D+02 0.173542294051559D+02
 0.985456787521844D+02 -.862408578748866D+01 0.507574700712236D+02 -.243585554304248D+02
 0.233713651308951D+02 -.635462436085423D+00 -.222880307004833D+02 0.700432602526888D+01
 0.782540959009154D+03 -.856454010764132D+01 -.597657161581691D+02 0.780208344195198D+03
0.250215275143D-02 0.000000000000D+00 0.000000000000D+00 0.309211082269D-04 0.223133600166D-06  6 1 -2 25 -24 21 21 4 0.19658237D+00 0.13964679D-01 0.23753943D+05 0.23753943D+05 0.23753943D+05 0.12256854D+01  1  2  1  1  6  1        1 0.198063827051D+00 0.100000000000D+01
  </mgrwgt>
  </event>
  <event>
  6     66 -.42750230E-03 0.28718315E+02 0.75467711E-02 0.11966350E+00
        1 -1    0    0  502    0 0.00000000E+00 0.00000000E+00 0.14648868E+04 0.14648868E+04 0.32000000E+00 0.0000E+00 0.9000E+01
       -2 -1    0    0    0  503 0.00000000E+00 0.00000000E+00 -.22956376E+02 0.22958606E+02 0.32000000E+00 0.0000E+00 0.9000E+01
       25  1    1    2    0    0 -.52770971E+02 0.54264373E+01 0.64114424E+03 0.65536643E+03 0.12500000E+03 0.0000E+00 0.9000E+01
      -24  1    1    2    0    0 0.68866361E+02 0.61968449E+01 0.29103337E+03 0.30975574E+03 0.80419002E+02 0.0000E+00 0.9000E+01
       21  1    1    2  502  501 -.20579331E+02 -.35041955E+02 0.49018922E+03 0.49187141E+03 0.75000000E+00 0.0000E+00 0.9000E+01
       21  1    1    2  501  503 0.44839408E+01 0.23418673E+02 0.19563543E+02 0.30851818E+02 0.75000000E+00 0.0000E+00 0.9000E+01
#aMCatNLO 2  0  0  2  5 0.23844076D+02 0.00000000D+00  -5  6  0 0.00000000D+00 0.00000000D+00 0.00000000D+00 0.00000000D+00 0.00000000D+00
  <mgrwgt>
 -.5205053700D-01    2    2    0
 0.157428022728103D+03 0.000000000000000D+00 0.000000000000000D+00 0.157428022728103D+03
 0.157428022728103D+03 0.000000000000000D+00 0.000000000000000D+00 -.157428022728103D+03
 0.135975688723200D+03 -.508368741861868D+02 0.155252669946519D+02 0.624229376680838D+01
 0.120087145884982D+03 0.705620424194551D+02 0.150507837525537D+02 -.524230744086926D+02
 0.587932108480244D+02 -.197251682332682D+02 -.305760507472055D+02 0.461807806418842D+02
 0.000000000000000D+00 0.000000000000000D+00 0.000000000000000D+00 -.000000000000000D+00
 0.160640587231781D+03 0.000000000000000D+00 0.000000000000000D+00 0.160640587231781D+03
 0.209343772576182D+03 0.000000000000000D+00 0.000000000000000D+00 -.209343772576182D+03
 0.135934271294887D+03 -.527702737369153D+02 0.542753081352835D+01 0.624229376680838D+01
 0.118306653195300D+03 0.688669575317679D+02 0.619771455947104D+01 -.524230744086926D+02
 0.615166871577927D+02 -.205806245863094D+02 -.350439180145899D+02 0.461807806418842D+02
 0.542267481599839D+02 0.448394079145677D+01 0.234186726415906D+02 -.487031853444006D+02
-.264796595259D-03 0.000000000000D+00 0.000000000000D+00 0.167416024081D-04 0.000000000000D+00  6 1 -2 25 -24 21 21 4 0.22085686D+00 0.36123742D-02 0.23460012D+05 0.23460012D+05 0.23460012D+05 0.12262691D+01  1  2 13  2  6  2       -2 -.132846773496D+00 0.100000000000D+01
0.162786650808D-03 0.000000000000D+00 0.000000000000D+00 0.169727211563D-04 0.951445725699D-07  6 1 -2 25 -24 21 21 4 0.22536378D+00 0.35318682D-02 0.23460012D+05 0.23460012D+05 0.23460012D+05 0.12262691D+01  1  2  1  2  6  2       -2 0.807962364929D-01 0.100000000000D+01
  </mgrwgt>
  </event>
  <event>
  6     66 -.42750230E-03 0.10018498E+02 0.75467711E-02 0.12270208E+00
        1 -1    0    0  502    0 0.00000000E+00 0.00000000E+00 0.26758395E+02 0.26760308E+02 0.32000000E+00 0.0000E+00 0.9000E+01
       -2 -1    0    0    0  501 -.00000000E+00 -.00000000E+00 -.70311796E+03 0.70311803E+03 0.32000000E+00 0.0000E+00 0.9000E+01
       25  1    1    2    0    0 0.45882798E+02 0.40036086E+02 -.26865622E+03 0.30250501E+03 0.12500000E+03 0.0000E+00 0.9000E+01
      -24  1    1    2    0    0 -.21706930E+02 -.39381936E+02 -.35411188E+03 0.36590240E+03 0.80419002E+02 0.0000E+00 0.9000E+01
       21  1    1    2  502  503 -.15117941E+02 0.82253462E+01 -.34083128E+02 0.38189404E+02 0.75000000E+00 0.0000E+00 0.9000E+01
       21  1    1    2  503  501 -.90579274E+01 -.88794955E+01 -.19508337E+02 0.23281521E+02 0.75000000E+00 0.0000E+00 0.9000E+01
#aMCatNLO 2  0  0  5  1 0.89222087D+01 0.00000000D+00  -5  6  0 0.00000000D+00 0.00000000D+00 0.00000000D+00 0.00000000D+00 0.00000000D+00
  <mgrwgt>
 -.2544885990D+00    2    2    0
 0.137167900002546D+03 0.000000000000000D+00 0.000000000000000D+00 0.137167900002546D+03
 0.137167900002546D+03 -.000000000000000D+00 -.000000000000000D+00 -.137167900002546D+03
 0.143185129697474D+03 0.486550596625800D+02 0.401110973154475D+02 0.300127707461996D+02
 0.100318631495001D+03 -.197584527000046D+02 -.393292146144164D+02 -.407360810016651D+02
 0.308320388126167D+02 -.288966069625754D+02 -.781882701031149D+00 0.107233102554654D+02
 0.000000000000000D+00 0.000000000000000D+00 0.000000000000000D+00 0.000000000000000D+00
 0.137167900002546D+03 0.000000000000000D+00 0.000000000000000D+00 0.137167900002546D+03
 0.137167900002546D+03 -.000000000000000D+00 -.000000000000000D+00 -.137167900002546D+03
 0.142467216129830D+03 0.458857800346507D+02 0.400361663092501D+02 0.310404292762438D+02
 0.100450743200895D+03 -.217048275412376D+02 -.393818795110270D+02 -.400137961561465D+02
 0.169530763183301D+02 -.144198443864987D+02 0.832214846349242D+01 0.319636191253088D+01
 0.144647643560370D+02 -.976110810691436D+01 -.897643526171555D+01 0.577700496737180D+01
-.400478007870D-03 0.000000000000D+00 0.000000000000D+00 0.256062057885D-04 0.000000000000D+00  6 1 -2 25 -24 21 21 4 0.41168289D-02 0.10817215D+00 0.17042231D+05 0.17042231D+05 0.17042231D+05 0.12415520D+01  1  2 13  3  6  5       21 -.125090046444D+00 0.100000000000D+01
-.414271766691D-03 0.000000000000D+00 0.000000000000D+00 0.256062057885D-04 0.000000000000D+00  6 1 -2 25 -24 21 21 4 0.41168289D-02 0.10817215D+00 0.17042231D+05 0.17042231D+05 0.17042231D+05 0.12415520D+01  1  2 13  3  6  5       21 -.129398552523D+00 0.100000000000D+01
  </mgrwgt>
  </event>
  <event>
  6     66 0.42750230E-03 0.18304274E+02 0.75467711E-02 0.12389296E+00
        1 -1    0    0  503    0 0.00000000E+00 0.00000000E+00 0.15497260E+04 0.15497260E+04 0.32000000E+00 0.0000E+00 0.9000E+01
       -2 -1    0    0    0  501 0.00000000E+00 0.00000000E+00 -.13367285E+02 0.13371115E+02 0.32000000E+00 0.0000E+00 0.9000E+01
       25  1    1    2    0    0 -.50010561E+02 -.31418781E+01 0.62276086E+03 0.63715541E+03 0.12500000E+03 0.0000E+00 0.9000E+01
      -24  1    1    2    0    0 0.31558975E+02 0.35032734E+01 0.32609537E+03 0.33736279E+03 0.80419002E+02 0.0000E+00 0.9000E+01
       21  1    1    2  502  501 0.19819257E+02 -.38988451E+01 0.57752530E+03 0.57787892E+03 0.75000000E+00 0.0000E+00 0.9000E+01
       21  1    1    2  503  502 -.13676717E+01 0.35374498E+01 0.99771327E+01 0.10699988E+02 0.75000000E+00 0.0000E+00 0.9000E+01
#aMCatNLO 2  0  0  1  5 0.24598972D+02 0.00000000D+00  -5  6  0 0.00000000D+00 0.00000000D+00 0.00000000D+00 0.00000000D+00 0.00000000D+00
  <mgrwgt>
 0.2889512640D+00    1    2    0
 0.141493657140380D+03 0.000000000000000D+00 0.000000000000000D+00 0.141493657140380D+03
 0.141493657140380D+03 0.000000000000000D+00 0.000000000000000D+00 -.141493657140380D+03
 0.136419593264555D+03 -.506702022789949D+02 -.143786290507464D+01 -.203904040602066D+02
 0.916803729901503D+02 0.311150732877117D+02 0.464998288264204D+01 -.307945565114033D+02
 0.548873480260550D+02 0.195551289912833D+02 -.321211997756740D+01 0.511849605716099D+02
 0.000000000000000D+00 -.000000000000000D+00 0.000000000000000D+00 -.000000000000000D+00
 0.142427862361827D+03 0.000000000000000D+00 0.000000000000000D+00 0.142427862361827D+03
 0.145408724486658D+03 0.000000000000000D+00 0.000000000000000D+00 -.145408724486658D+03
 0.136204930192467D+03 -.500114375831107D+02 -.314174185236778D+01 -.203904040602066D+02
 0.917808582334277D+02 0.315583855057800D+02 0.350336655641263D+01 -.307945565114033D+02
 0.550269394160616D+02 0.198207237779223D+02 -.389907446722422D+01 0.511849605716099D+02
 0.482385900652893D+01 -.136767170059159D+01 0.353744976317937D+01 -.298086212483125D+01
0.280039458336D-03 0.000000000000D+00 0.000000000000D+00 0.702694238672D-04 0.182669386581D-04  6 1 -2 25 -24 21 21 4 0.23837137D+00 0.20563859D-02 0.15021415D+05 0.15021415D+05 0.15021415D+05 0.12477519D+01  1  2  1  1  6  1        1 0.288951263968D+00 0.100000000000D+01
  </mgrwgt>
  </event>
  <event>
  6     66 0.42750230E-03 0.10650807E+03 0.75467711E-02 0.11426628E+00
        1 -1    0    0  503    0 0.00000000E+00 0.00000000E+00 0.17288854E+04 0.17288854E+04 0.32000000E+00 0.0000E+00 0.9000E+01
       -2 -1    0    0    0  501 0.00000000E+00 0.00000000E+00 -.50803551E+02 0.50804559E+02 0.32000000E+00 0.0000E+00 0.9000E+01
       25  1    1    2    0    0 0.16247356E+02 0.21844509E+02 0.14070347E+03 0.19016736E+03 0.12500000E+03 0.0000E+00 0.9000E+01
      -24  1    1    2    0    0 -.10314226E+03 -.10597235E+03 0.28843749E+03 0.33396387E+03 0.80419002E+02 0.0000E+00 0.9000E+01
       21  1    1    2  502  501 0.80503567E+02 0.76901349E+02 0.95647359E+03 0.96293143E+03 0.75000000E+00 0.0000E+00 0.9000E+01
       21  1    1    2  503  502 0.63913414E+01 0.72264874E+01 0.29246732E+03 0.29262735E+03 0.75000000E+00 0.0000E+00 0.9000E+01
#aMCatNLO 2  0  0  1  5 0.96473501D+01 0.00000000D+00  -5  6  0 0.00000000D+00 0.00000000D+00 0.00000000D+00 0.00000000D+00 0.00000000D+00
  <mgrwgt>
 0.5887301084D-01    2    2    0
 0.269877100233441D+03 0.000000000000000D+00 0.000000000000000D+00 0.269877100233441D+03
 0.269877100233441D+03 0.000000000000000D+00 0.000000000000000D+00 -.269877100233441D+03
 0.163207252622264D+03 0.181765696078334D+02 0.240258397876881D+02 -.100518548777305D+03
 0.177001274798545D+03 -.101031259398914D+03 -.103585465399340D+03 -.626495914448847D+02
 0.199545673046073D+03 0.828546897910808D+02 0.795596256116514D+02 0.163168140222189D+03
 0.000000000000000D+00 0.000000000000000D+00 0.000000000000000D+00 0.000000000000000D+00
 0.324893357853108D+03 0.000000000000000D+00 0.000000000000000D+00 0.324893357853108D+03
 0.270343463271351D+03 0.000000000000000D+00 0.000000000000000D+00 -.270343463271351D+03
 0.162696418123697D+03 0.162471772285538D+02 0.218443368882971D+02 -.100518548777305D+03
 0.179612729287211D+03 -.103142460970387D+03 -.105972534198215D+03 -.626495914448847D+02
 0.197531262605274D+03 0.805039423696730D+02 0.769017099017056D+02 0.163168140222189D+03
 0.553964111082773D+02 0.639134137215986D+01 0.722648740821181D+01 0.545498945817564D+02
-.597980182506D-03 0.000000000000D+00 0.000000000000D+00 0.268998966839D-05 0.000000000000D+00  6 1 -2 25 -24 21 21 4 0.26899700D+00 0.78024544D-02 0.43522644D+05 0.43522644D+05 0.43522644D+05 0.11982956D+01  1  2 13  1  6  1        1 -.529794618853D-01 0.100000000000D+01
0.122945252779D-02 0.000000000000D+00 0.000000000000D+00 0.269784813953D-05 0.248152642913D-06  6 1 -2 25 -24 21 21 4 0.26597996D+00 0.78159375D-02 0.43522644D+05 0.43522644D+05 0.43522644D+05 0.11982956D+01  1  2  1  1  6  1        1 0.111852472724D+00 0.100000000000D+01
  </mgrwgt>
  </event>
  <event>
  6     66 -.42750230E-03 0.61722388E+02 0.75467711E-02 0.11972232E+00
        1 -1    0    0  502    0 0.00000000E+00 0.00000000E+00 0.17140863E+04 0.17140864E+04 0.32000000E+00 0.0000E+00 0.9000E+01
       -2 -1    0    0    0  501 0.00000000E+00 0.00000000E+00 -.10745036E+03 0.10745084E+03 0.32000000E+00 0.0000E+00 0.9000E+01
       25  1    1    2    0    0 -.69444285E+02 0.37359172E+02 0.52569453E+02 0.15686543E+03 0.12500000E+03 0.0000E+00 0.9000E+01
      -24  1    1    2    0    0 0.13553658E+02 -.21351832E+02 -.21573711E+02 0.87018638E+02 0.80419002E+02 0.0000E+00 0.9000E+01
       21  1    1    2  503  501 0.63553042E+02 -.16020349E+02 0.15271092E+04 0.15285152E+04 0.75000000E+00 0.0000E+00 0.9000E+01
       21  1    1    2  502  503 -.76624150E+01 0.13008714E-01 0.48531038E+02 0.49137938E+02 0.75000000E+00 0.0000E+00 0.9000E+01
#aMCatNLO 2  0  0  5  2 0.91738503D+01 0.00000000D+00  -5  6  0 0.00000000D+00 0.00000000D+00 0.00000000D+00 0.00000000D+00 0.00000000D+00
  <mgrwgt>
 -.1897846997D+00    3    2    0
 0.429161571428240D+03 0.000000000000000D+00 0.000000000000000D+00 0.429161571428240D+03
 0.429161571428240D+03 -.000000000000000D+00 -.000000000000000D+00 -.429161571428240D+03
 0.235337076934250D+03 -.695893501521197D+02 0.374007189447838D+02 -.183076618790538D+03
 0.225944510637007D+03 0.134144096995734D+02 -.213119501311633D+02 -.209641504303525D+03
 0.397041555285223D+03 0.561749404525464D+02 -.160887688136206D+02 0.392718123094063D+03
 0.000000000000000D+00 0.000000000000000D+00 0.000000000000000D+00 0.000000000000000D+00
 0.429161571428240D+03 0.000000000000000D+00 0.000000000000000D+00 0.429161571428240D+03
 0.429161571428240D+03 -.000000000000000D+00 -.000000000000000D+00 -.429161571428240D+03
 0.234498384014228D+03 -.694441122212593D+02 0.373591221139949D+02 -.182061262705600D+03
 0.225052622972427D+03 0.135538242307311D+02 -.213518791127160D+02 -.208666859514100D+03
 0.385373744063080D+03 0.635785825566324D+02 -.160229663582916D+02 0.379755119784272D+03
 0.133983918067449D+02 -.768829456610414D+01 0.157233570126262D-01 0.109730024354279D+02
-.461067103031D-02 0.000000000000D+00 0.000000000000D+00 0.429981507262D-04 0.000000000000D+00  6 1 -2 25 -24 21 21 4 0.26370563D+00 0.16530864D-01 0.23309847D+05 0.23309847D+05 0.23309847D+05 0.12265704D+01  1  2 13  3  6  5       21 -.144003664551D+00 0.100000000000D+01
-.781981647152D-02 0.000000000000D+00 0.000000000000D+00 0.433272088100D-04 0.000000000000D+00  6 1 -2 25 -24 21 21 4 0.26370563D+00 0.16530864D-01 0.21108645D+05 0.21108645D+05 0.21108645D+05 0.12312549D+01  1  2  8  3  6  5       21 -.248760917419D+00 0.100000000000D+01
0.649895588242D-02 0.000000000000D+00 0.000000000000D+00 0.433272088100D-04 0.158532258612D-05  6 1 -2 25 -24 21 21 4 0.26370563D+00 0.16530864D-01 0.23309847D+05 0.23309847D+05 0.23309847D+05 0.12265704D+01  1  2  1  3  6  5       21 0.202979882250D+00 0.100000000000D+01
  </mgrwgt>
  </event>
  <event>
  5     66 0.42750230E-03 0.35080601E+02 0.75467711E-02 0.11729161E+00
        1 -1    0    0  502    0 0.00000000E+00 0.00000000E+00 0.10877084E+04 0.10877084E+04 0.32000000E+00 0.0000E+00 0.9000E+01
       -2 -1    0    0    0  501 0.00000000E+00 0.00000000E+00 -.30300911E+02 0.30302600E+02 0.32000000E+00 0.0000E+00 0.9000E+01
       25  1    1    2    0    0 0.11351668E+03 -.16980666E+02 0.28917704E+03 0.33529500E+03 0.12500000E+03 0.0000E+00 0.9000E+01
      -24  1    1    2    0    0 -.78540003E+02 0.19621771E+02 0.55370143E+03 0.56533710E+03 0.80419002E+02 0.0000E+00 0.9000E+01
       21  1    1    2  502  501 -.34976673E+02 -.26411055E+01 0.21452897E+03 0.21737890E+03 0.75000000E+00 0.0000E+00 0.9000E+01
#aMCatNLO 1  0  0  1  5 0.29145164D+02 0.00000000D+00  -5  6  0 0.00000000D+00 0.00000000D+00 0.00000000D+00 0.00000000D+00 0.00000000D+00
  <mgrwgt>
 0.9403851813D-01    4    2    0
 0.181547581625985D+03 0.000000000000000D+00 0.000000000000000D+00 0.181547581625985D+03
 0.181547581625985D+03 0.000000000000000D+00 0.000000000000000D+00 -.181547581625985D+03
 0.190270884412126D+03 0.113519269524017D+03 -.169804699295652D+02 -.860409701402615D+02
 0.128243165794479D+03 -.785382543435700D+02 0.196219033218112D+02 0.585304803782935D+02
 0.445811130453658D+02 -.349810151804471D+02 -.264143339224599D+01 0.275104897619680D+02
 0.000000000000000D+00 0.000000000000000D+00 0.000000000000000D+00 -.000000000000000D+00
 0.186442216971449D+03 0.000000000000000D+00 0.000000000000000D+00 0.186442216971449D+03
 0.231394842497624D+03 0.000000000000000D+00 0.000000000000000D+00 -.231394842497624D+03
 0.184714452543059D+03 0.101919113524074D+03 -.265306376491742D+02 -.860409701402615D+02
 0.132521538409391D+03 -.866049997598194D+02 0.129807192138609D+02 0.585304803782935D+02
 0.470270158854712D+02 -.378149088870365D+02 -.497451927467775D+01 0.275104897619680D+02
 0.535740526311510D+02 0.225007951227823D+02 0.185244377099911D+02 -.449526255261756D+02
0.246906037915D-03 0.000000000000D+00 0.000000000000D+00 0.126582529140D-04 0.000000000000D+00  6 1 -2 25 -24 21 21 2 0.16733988D+00 0.46618122D-02 0.25423264D+05 0.25423264D+05 0.25423264D+05 0.12225167D+01  1  2  2  1  6  1        1 0.964777228186D-01 0.100000000000D+01
0.236486606059D-04 0.130295895885D-04 -.948184197446D-06 0.126582529140D-04 0.000000000000D+00  6 1 -2 25 -24 21 21 4 0.16733988D+00 0.46618122D-02 0.25423264D+05 0.25423264D+05 0.25423264D+05 0.12225167D+01  1  2  3  1  6  1        1 0.138105661054D-01 0.100000000000D+01
0.915554257763D-05 0.000000000000D+00 0.000000000000D+00 0.126582529140D-04 0.000000000000D+00  6 1 -2 25 -24 21 21 4 0.16733988D+00 0.46618122D-02 0.25423264D+05 0.25423264D+05 0.25423264D+05 0.12225167D+01  1  2 15  1  6  1        1 0.534673942452D-02 0.100000000000D+01
-.369809996535D-04 0.000000000000D+00 0.000000000000D+00 0.126582529140D-04 0.000000000000D+00  6 1 -2 25 -24 21 21 4 0.16733988D+00 0.46618122D-02 0.25423264D+05 0.25423264D+05 0.25423264D+05 0.12225167D+01  1  2  4  1  6  1        1 -.215965102154D-01 0.100000000000D+01
  </mgrwgt>
  </event>
  <event>
  6     66 -.42750230E-03 0.91250523E+01 0.75467711E-02 0.12135414E+00
        1 -1    0    0  502    0 0.00000000E+00 0.00000000E+00 0.33339882E+03 0.33339897E+03 0.32000000E+00 0.0000E+00 0.9000E+01
       -2 -1    0    0    0  501 0.00000000E+00 0.00000000E+00 -.10796906E+03 0.10796953E+03 0.32000000E+00 0.0000E+00 0.9000E+01
       25  1    1    2    0    0 -.66139630E+02 -.26603440E+02 0.58777013E+02 0.15544109E+03 0.12500000E+03 0.0000E+00 0.9000E+01
      -24  1    1    2    0    0 0.48753565E+02 0.46723034E+02 -.18472600E+01 0.10502657E+03 0.80419002E+02 0.0000E+00 0.9000E+01
       21  1    1    2  502  503 0.13972171E+02 -.75055306E+01 0.16696895E+03 0.16772223E+03 0.75000000E+00 0.0000E+00 0.9000E+01
       21  1    1    2  503  501 0.34138937E+01 -.12614063E+02 0.15310591E+01 0.13178615E+02 0.75000000E+00 0.0000E+00 0.9000E+01
#aMCatNLO 2  0  0  5  2 0.14347083D+02 0.00000000D+00  -5  6  0 0.00000000D+00 0.00000000D+00 0.00000000D+00 0.00000000D+00 0.00000000D+00
  <mgrwgt>
 -.2012812704D+00    2    2    0
 0.189728474335768D+03 0.000000000000000D+00 0.000000000000000D+00 0.189728474335768D+03
 0.189728474335768D+03 -.000000000000000D+00 -.000000000000000D+00 -.189728474335768D+03
 0.147484317939494D+03 -.674713965685536D+02 -.250622864816089D+02 -.307590064774598D+02
 0.126437276648427D+03 0.476200467510255D+02 0.480347694812779D+02 -.703147284728529D+02
 0.105535354083615D+03 0.198513498175281D+02 -.229724829996690D+02 0.101073734950313D+03
 0.000000000000000D+00 0.000000000000000D+00 0.000000000000000D+00 -.000000000000000D+00
 0.189728474335768D+03 0.000000000000000D+00 0.000000000000000D+00 0.189728474335768D+03
 0.189728474335768D+03 -.000000000000000D+00 -.000000000000000D+00 -.189728474335768D+03
 0.145871114415433D+03 -.661276459407814D+02 -.266173086204578D+02 -.239172603977629D+02
 0.123232533432925D+03 0.487636900145553D+02 0.467113166344631D+02 -.644918349588986D+02
 0.958047581104947D+02 0.139108370298054D+02 -.734327963039445D+01 0.945045847248187D+02
 0.145485427126827D+02 0.345311889642071D+01 -.127507283836108D+02 -.609548936815713D+01
-.429011891730D-03 0.000000000000D+00 0.000000000000D+00 0.304511870553D-04 0.000000000000D+00  6 1 -2 25 -24 21 21 4 0.51292174D-01 0.16610672D-01 0.19299728D+05 0.19299728D+05 0.19299728D+05 0.12355338D+01  1  2 13  3  6  5       21 -.189807573754D+00 0.100000000000D+01
-.259807251996D-04 0.000000000000D+00 0.000000000000D+00 0.304200160461D-04 0.000000000000D+00  6 1 -2 25 -24 21 21 4 0.51292174D-01 0.16610672D-01 0.19555851D+05 0.19555851D+05 0.19555851D+05 0.12349012D+01  1  2  8  3  6  5       21 -.114736966233D-01 0.100000000000D+01
  </mgrwgt>
  </event>
  <event>
  5     66 0.42750230E-03 0.20841004E+02 0.75467711E-02 0.92168340E-01
        3 -1    0    0  502    0 0.00000000E+00 0.00000000E+00 0.65788418E+03 0.65788437E+03 0.50000000E+00 0.0000E+00 0.9000E+01
       -4 -1    0    0    0  501 0.00000000E+00 0.00000000E+00 -.10246946E+03 0.10248118E+03 0.15500000E+01 0.0000E+00 0.9000E+01
       25  1    1    2    0    0 0.14181785E+03 -.12177635E+03 0.43136675E+03 0.48646074E+03 0.12500000E+03 0.0000E+00 0.9000E+01
      -24  1    1    2    0    0 -.16109419E+03 0.11388111E+03 0.84479091E+02 0.22918154E+03 0.80419002E+02 0.0000E+00 0.9000E+01
       21  1    1    2  502  501 0.19276348E+02 0.78952408E+01 0.39568881E+02 0.44723274E+02 0.75000000E+00 0.0000E+00 0.9000E+01
#aMCatNLO 1  0  0  2  5 0.10407643D+04 0.00000000D+00  -5  6  0 0.00000000D+00 0.00000000D+00 0.00000000D+00 0.00000000D+00 0.00000000D+00
  <mgrwgt>
 0.6745165196D-01    5    4    0
 0.259648930531673D+03 0.000000000000000D+00 0.000000000000000D+00 0.259648930531673D+03
 0.259648930531673D+03 0.000000000000000D+00 0.000000000000000D+00 -.259648930531673D+03
 0.250913859669871D+03 0.141812960647031D+03 -.121778350879805D+03 0.111318832296922D+03
 0.245220769188459D+03 -.161098969337250D+03 0.113879153064868D+03 -.121427633851250D+03
 0.231632322050164D+02 0.192860086902190D+02 0.789919781493733D+01 0.101088015543285D+02
 0.000000000000000D+00 0.000000000000000D+00 0.000000000000000D+00 -.000000000000000D+00
 0.104665673942181D+04 0.000000000000000D+00 0.000000000000000D+00 0.104665673942181D+04
 0.116380524597451D+04 0.000000000000000D+00 0.000000000000000D+00 -.116380524597451D+04
 0.580990638043425D+03 -.173231514802300D+03 -.528700370105277D+03 0.111318832296922D+03
 0.566434168978080D+03 -.468474882009215D+03 -.283137893075542D+03 -.121427633851250D+03
 0.157005302997175D+02 0.456819708330194D+01 -.111108216723906D+02 0.101088015543285D+02
 0.104733664807509D+04 0.637138199728212D+03 0.822949084853209D+03 -.117148506552696D+03
 0.259648930531673D+03 0.000000000000000D+00 0.000000000000000D+00 0.259648930531673D+03
 0.259648930531673D+03 0.000000000000000D+00 0.000000000000000D+00 -.259648930531673D+03
 0.250913859669871D+03 0.141812960647031D+03 -.121778350879805D+03 0.111318832296922D+03
 0.245220769188459D+03 -.161098969337250D+03 0.113879153064868D+03 -.121427633851250D+03
 0.000000000000000D+00 0.000000000000000D+00 0.000000000000000D+00 -.000000000000000D+00
 0.231632322050164D+02 0.192860086902190D+02 0.789919781493733D+01 0.101088015543285D+02
 0.104665673942181D+04 0.000000000000000D+00 0.000000000000000D+00 0.104665673942181D+04
 0.116380524597451D+04 0.000000000000000D+00 0.000000000000000D+00 -.116380524597451D+04
 0.580990638043425D+03 -.173231514802300D+03 -.528700370105277D+03 0.111318832296922D+03
 0.566434168978080D+03 -.468474882009215D+03 -.283137893075542D+03 -.121427633851250D+03
 0.104733664807509D+04 0.637138199728212D+03 0.822949084853209D+03 -.117148506552696D+03
 0.157005302997175D+02 0.456819708330194D+01 -.111108216723906D+02 0.101088015543285D+02
0.437650679793D-02 0.000000000000D+00 0.000000000000D+00 0.282836652379D-04 0.000000000000D+00  6 3 -4 25 -24 21 21 2 0.10121387D+00 0.15765449D-01 0.52614151D+05 0.52614151D+05 0.52614151D+05 0.11900960D+01  1  2  2  2  6  2       -4 0.399216507213D-01 0.100000000000D+01
0.177614628955D-02 0.230954608846D-03 -.168069384648D-04 0.282836652379D-04 0.000000000000D+00  6 3 -4 25 -24 21 21 4 0.10121387D+00 0.15765449D-01 0.52614151D+05 0.52614151D+05 0.52614151D+05 0.11900960D+01  1  2  3  2  6  2       -4 0.229468796407D-01 0.100000000000D+01
0.548163730293D-04 0.000000000000D+00 0.000000000000D+00 0.282836652379D-04 0.000000000000D+00  6 3 -4 25 -24 21 21 4 0.10121387D+00 0.15765449D-01 0.52614151D+05 0.52614151D+05 0.52614151D+05 0.11900960D+01  1  2 15  2  6  2       -4 0.708198824412D-03 0.100000000000D+01
0.257717232260D-01 0.000000000000D+00 -.754961814373D-02 0.282836652379D-04 0.000000000000D+00  6 3 -4 25 -24 21 21 4 0.10121387D+00 0.25558785D+00 0.52614151D+05 0.52614151D+05 0.52614151D+05 0.11900960D+01  1  2  5  2  6  2       -4 0.631953788985D-03 0.100000000000D+01
0.624202401339D-02 0.000000000000D+00 -.234006738729D-02 0.282836652379D-04 0.000000000000D+00  6 3 21 25 -24 4 21 4 0.10121387D+00 0.25558785D+00 0.52614151D+05 0.52614151D+05 0.52614151D+05 0.11900960D+01  3  4  5  5  5  2       -4 0.324296898620D-02 0.100000000000D+01
  </mgrwgt>
  </event>
  <event>
  5     66 0.42750230E-03 0.16742951E+03 0.75467711E-02 0.11209246E+00
        1 -1    0    0  502    0 0.00000000E+00 0.00000000E+00 0.17809135E+04 0.17809136E+04 0.32000000E+00 0.0000E+00 0.9000E+01
       -2 -1    0    0    0  501 0.00000000E+00 0.00000000E+00 -.32920547E+02 0.32922102E+02 0.32000000E+00 0.0000E+00 0.9000E+01
       25  1    1    2    0    0 -.24465502E+02 0.44663974E+01 0.61334153E+03 0.62644341E+03 0.12500000E+03 0.0000E+00 0.9000E+01
      -24  1    1    2    0    0 0.17234801E+02 0.16280582E+03 0.57596842E+03 0.60416025E+03 0.80419002E+02 0.0000E+00 0.9000E+01
       21  1    1    2  502  501 0.72307017E+01 -.16727221E+03 0.55868304E+03 0.58323201E+03 0.75000000E+00 0.0000E+00 0.9000E+01
#aMCatNLO 1  0  0  5  5 0.45875285D+01 0.00000000D+00  -5  6  0 0.00000000D+00 0.00000000D+00 0.00000000D+00 0.00000000D+00 0.00000000D+00
  <mgrwgt>
 0.1783241666D-01    8    2    0
 0.242136499524864D+03 0.000000000000000D+00 0.000000000000000D+00 0.242136499524864D+03
 0.242136499524864D+03 -.000000000000000D+00 -.000000000000000D+00 -.242136499524864D+03
 0.132463949580403D+03 -.244655220871857D+02 0.446685389041821D+01 0.360996313521697D+02
 0.183902301405316D+03 0.172347732530064D+02 0.162806449228685D+03 -.234491617817352D+02
 0.167906748064010D+03 0.723074883417930D+01 -.167273303119104D+03 -.126504695704345D+02
 0.000000000000000D+00 -.000000000000000D+00 0.000000000000000D+00 0.000000000000000D+00
 0.242136499524864D+03 0.000000000000000D+00 0.000000000000000D+00 0.242136499524864D+03
 0.242136499524864D+03 -.000000000000000D+00 -.000000000000000D+00 -.242136499524864D+03
 0.132280539079164D+03 -.242994340521417D+02 0.624638531057120D+00 0.358090540300250D+02
 0.179326892391445D+03 0.174626458836087D+02 0.157534933306143D+03 -.238478335992021D+02
 0.768176712512537D+01 0.376332261893856D+01 0.614645210427146D+01 0.265858525542044D+01
 0.164983800453995D+03 0.307346554959451D+01 -.164306023941472D+03 -.146198056862433D+02
0.146502468987D-03 0.000000000000D+00 0.000000000000D+00 0.858918768843D-06 0.000000000000D+00  6 1 -2 25 -24 21 21 2 0.27398682D+00 0.50648214D-02 0.56949228D+05 0.56949228D+05 0.56949228D+05 0.11867247D+01  1  2  2  3  6  5       21 0.163561784338D-01 0.100000000000D+01
-.141168541564D-04 0.773114768975D-05 -.562608055897D-06 0.858918768843D-06 0.000000000000D+00  6 1 -2 25 -24 21 21 4 0.27398682D+00 0.50648214D-02 0.56949228D+05 0.56949228D+05 0.56949228D+05 0.11867247D+01  1  2  3  3  6  5       21 -.221960034886D-02 0.100000000000D+01
0.590895597593D-05 0.000000000000D+00 0.000000000000D+00 0.858918768843D-06 0.000000000000D+00  6 1 -2 25 -24 21 21 4 0.27398682D+00 0.50648214D-02 0.56949228D+05 0.56949228D+05 0.56949228D+05 0.11867247D+01  1  2 15  3  6  5       21 0.929068232925D-03 0.100000000000D+01
0.345092620486D-06 0.000000000000D+00 0.000000000000D+00 0.859089507118D-06 0.334436574570D-07  6 1 -2 25 -24 21 21 4 0.27398682D+00 0.50648214D-02 0.56791038D+05 0.56791038D+05 0.56791038D+05 0.11868426D+01  1  2 11  3  6  5       21 0.542825625163D-04 0.100000000000D+01
0.263213592067D-05 0.000000000000D+00 0.000000000000D+00 0.859089507118D-06 0.541231828917D-09  6 1 -2 25 -24 1 -1 4 0.27398682D+00 0.50648214D-02 0.56791038D+05 0.56791038D+05 0.56791038D+05 0.11868426D+01  1  2 11  6  6  5       21 0.414031115659D-03 0.100000000000D+01
0.493435374437D-05 0.000000000000D+00 0.000000000000D+00 0.859089507118D-06 0.285685010023D-09  6 1 -2 25 -24 2 -2 4 0.27398682D+00 0.50648214D-02 0.56791038D+05 0.56791038D+05 0.56791038D+05 0.11868426D+01  1  2 11  7  6  5       21 0.776166599070D-03 0.100000000000D+01
0.483885655216D-05 0.000000000000D+00 0.000000000000D+00 0.859089507118D-06 0.275764459858D-09  6 1 -2 25 -24 3 -3 4 0.27398682D+00 0.50648214D-02 0.56791038D+05 0.56791038D+05 0.56791038D+05 0.11868426D+01  1  2 11  8  6  5       21 0.761145030949D-03 0.100000000000D+01
0.483885655216D-05 0.000000000000D+00 0.000000000000D+00 0.859089507118D-06 0.275764459858D-09  6 1 -2 25 -24 4 -4 4 0.27398682D+00 0.50648214D-02 0.56791038D+05 0.56791038D+05 0.56791038D+05 0.11868426D+01  1  2 11  8  6  5       21 0.761145030949D-03 0.100000000000D+01
  </mgrwgt>
  </event>
  <event>
  6     66 0.42750230E-03 0.11923786E+02 0.75467711E-02 0.11945799E+00
        1 -1    0    0  502    0 0.00000000E+00 0.00000000E+00 0.54585030E+02 0.54585968E+02 0.32000000E+00 0.0000E+00 0.9000E+01
       -2 -1    0    0    0  503 0.00000000E+00 0.00000000E+00 -.63586303E+03 0.63586311E+03 0.32000000E+00 0.0000E+00 0.9000E+01
       25  1    1    2    0    0 -.23993677E+02 -.69331001E+02 -.95013806E+02 0.17330640E+03 0.12500000E+03 0.0000E+00 0.9000E+01
      -24  1    1    2    0    0 -.63125307E+01 0.95256936E+02 -.36407520E+03 0.38487881E+03 0.80419002E+02 0.0000E+00 0.9000E+01
       21  1    1    2  502  501 0.13103160E+02 -.13378110E+02 -.18233629E+02 0.26147550E+02 0.75000000E+00 0.0000E+00 0.9000E+01
       21  1    1    2  501  503 0.17203047E+02 -.12547825E+02 -.10395536E+03 0.10611631E+03 0.75000000E+00 0.0000E+00 0.9000E+01
#aMCatNLO 2  0  0  2  5 0.46992563D+02 0.00000000D+00  -5  6  0 0.00000000D+00 0.00000000D+00 0.00000000D+00 0.00000000D+00 0.00000000D+00
  <mgrwgt>
 0.8275946416D-01    1    2    0
 0.168192213561593D+03 0.000000000000000D+00 0.000000000000000D+00 0.168192213561593D+03
 0.168192213561593D+03 0.000000000000000D+00 0.000000000000000D+00 -.168192213561593D+03
 0.167584187720528D+03 -.154795065064423D+02 -.755399496234756D+02 0.807066345671091D+02
 0.148084222657189D+03 0.134008873848481D+01 0.896762533675253D+02 -.861283622841500D+02
 0.207160167454701D+02 0.141394177679575D+02 -.141363037440497D+02 0.542172771704089D+01
 0.000000000000000D+00 0.000000000000000D+00 -.000000000000000D+00 -.000000000000000D+00
 0.171928329066026D+03 0.000000000000000D+00 0.000000000000000D+00 0.171928329066026D+03
 0.201871520148855D+03 0.000000000000000D+00 0.000000000000000D+00 -.201871520148855D+03
 0.165893437986992D+03 -.239981769907827D+02 -.693264697292026D+02 0.807066345671091D+02
 0.151657175138342D+03 -.631679136829391D+01 0.952611472407872D+02 -.861283622841500D+02
 0.195070608158145D+02 0.131119211169193D+02 -.133868523132900D+02 0.542172771704089D+01
 0.367421752737322D+02 0.172030472421573D+02 -.125478251982946D+02 -.299431910828289D+02
0.578521699288D-03 0.000000000000D+00 0.000000000000D+00 0.340380318030D-04 0.539325686393D-06  6 1 -2 25 -24 21 21 4 0.83975913D-02 0.97823016D-01 0.23993507D+05 0.23993507D+05 0.23993507D+05 0.12252156D+01  1  2  1  2  6  2       -2 0.827594641580D-01 0.100000000000D+01
  </mgrwgt>
  </event>
  <event>
  5     66 0.42750230E-03 0.36957020E+02 0.75467711E-02 0.11695382E+00
        1 -1    0    0  502    0 0.00000000E+00 0.00000000E+00 0.63421172E+03 0.63421180E+03 0.32000000E+00 0.0000E+00 0.9000E+01
       -2 -1    0    0    0  501 0.00000000E+00 0.00000000E+00 -.81682715E+02 0.81683341E+02 0.32000000E+00 0.0000E+00 0.9000E+01
       25  1    1    2    0    0 0.12115391E+03 -.25676169E+01 0.54102479E+02 0.18231002E+03 0.12500000E+03 0.0000E+00 0.9000E+01
      -24  1    1    2    0    0 -.11092350E+03 -.32943716E+02 0.29622921E+03 0.32803700E+03 0.80419002E+02 0.0000E+00 0.9000E+01
       21  1    1    2  502  501 -.10230415E+02 0.35511333E+02 0.20219732E+03 0.20554813E+03 0.75000000E+00 0.0000E+00 0.9000E+01
#aMCatNLO 1  0  0  1  1 0.48230231D+01 0.00000000D+00  -5  6  0 0.00000000D+00 0.00000000D+00 0.00000000D+00 0.00000000D+00 0.00000000D+00
  <mgrwgt>
 0.7586480240D-01    8    4    0
 0.227605773993847D+03 0.000000000000000D+00 0.000000000000000D+00 0.227605773993847D+03
 0.227605773993847D+03 0.000000000000000D+00 0.000000000000000D+00 -.227605773993847D+03
 0.221044832851988D+03 0.121154144409324D+03 -.256841750804034D+01 -.136201669059201D+03
 0.156333135942924D+03 -.110923336099533D+03 -.329442826153894D+02 0.677017074443888D+02
 0.778335791927822D+02 -.102308083097913D+02 0.355127001234298D+02 0.684999616148122D+02
 0.000000000000000D+00 0.000000000000000D+00 0.000000000000000D+00 -.000000000000000D+00
 0.228052051482625D+03 0.000000000000000D+00 0.000000000000000D+00 0.228052051482625D+03
 0.241033431179642D+03 0.000000000000000D+00 0.000000000000000D+00 -.241033431179642D+03
 0.220859265632328D+03 0.120744244092115D+03 -.487320015627315D+01 -.136201669059201D+03
 0.156891352381316D+03 -.111213876100321D+03 -.345779274903010D+02 0.677017074443888D+02
 0.774864795224816D+02 -.103748797079855D+02 0.347026171722255D+02 0.684999616148122D+02
 0.138483851261407D+02 0.844511716191752D+00 0.474851047434863D+01 -.129813796970172D+02
 0.227605773993847D+03 0.000000000000000D+00 0.000000000000000D+00 0.227605773993847D+03
 0.227605773993847D+03 0.000000000000000D+00 0.000000000000000D+00 -.227605773993847D+03
 0.221044832851988D+03 0.121154144409324D+03 -.256841750804034D+01 -.136201669059201D+03
 0.156333135942924D+03 -.110923336099533D+03 -.329442826153894D+02 0.677017074443888D+02
 0.000000000000000D+00 0.000000000000000D+00 0.000000000000000D+00 -.000000000000000D+00
 0.778335791927822D+02 -.102308083097913D+02 0.355127001234298D+02 0.684999616148122D+02
 0.228052051482625D+03 0.000000000000000D+00 0.000000000000000D+00 0.228052051482625D+03
 0.241033431179642D+03 0.000000000000000D+00 0.000000000000000D+00 -.241033431179642D+03
 0.220859265632328D+03 0.120744244092115D+03 -.487320015627315D+01 -.136201669059201D+03
 0.156891352381316D+03 -.111213876100321D+03 -.345779274903010D+02 0.677017074443888D+02
 0.138483851261407D+02 0.844511716191752D+00 0.474851047434863D+01 -.129813796970172D+02
 0.774864795224816D+02 -.103748797079855D+02 0.347026171722255D+02 0.684999616148122D+02
0.418964318201D-03 0.000000000000D+00 0.000000000000D+00 0.101051737831D-04 0.000000000000D+00  6 1 -2 25 -24 21 21 2 0.97571089D-01 0.12566626D-01 0.30970310D+05 0.30970310D+05 0.30970310D+05 0.12134502D+01  1  2  2  1  6  1        1 0.804834243468D-01 0.100000000000D+01
0.315929914158D-04 0.221093544917D-04 -.160893329773D-05 0.101051737831D-04 0.000000000000D+00  6 1 -2 25 -24 21 21 4 0.97571089D-01 0.12566626D-01 0.30970310D+05 0.30970310D+05 0.30970310D+05 0.12134502D+01  1  2  3  1  6  1        1 0.893642975454D-02 0.100000000000D+01
0.170568787381D-04 0.000000000000D+00 0.000000000000D+00 0.101051737831D-04 0.000000000000D+00  6 1 -2 25 -24 21 21 4 0.97571089D-01 0.12566626D-01 0.30970310D+05 0.30970310D+05 0.30970310D+05 0.12134502D+01  1  2 15  1  6  1        1 0.482472826546D-02 0.100000000000D+01
-.199266263007D-03 0.000000000000D+00 0.000000000000D+00 0.101051737831D-04 0.000000000000D+00  6 1 -2 25 -24 21 21 4 0.97571089D-01 0.12566626D-01 0.30970310D+05 0.30970310D+05 0.30970310D+05 0.12134502D+01  1  2  4  1  6  1        1 -.563646834951D-01 0.100000000000D+01
0.269465988457D-04 0.000000000000D+00 0.000000000000D+00 0.101051737831D-04 0.000000000000D+00  6 1 -2 25 -24 21 21 4 0.10294002D+00 0.12566626D-01 0.30970310D+05 0.30970310D+05 0.30970310D+05 0.12134502D+01  1  2  5  1  6  1        1 0.706815081263D-02 0.100000000000D+01
-.269079869161D-04 0.000000000000D+00 0.000000000000D+00 0.101051737831D-04 0.000000000000D+00  6 1 -2 25 -24 21 21 4 0.97571089D-01 0.12566626D-01 0.30970310D+05 0.30970310D+05 0.30970310D+05 0.12134502D+01  1  2  6  1  6  1        1 -.761122401317D-02 0.100000000000D+01
0.145494289478D-03 0.000000000000D+00 0.000000000000D+00 0.101051737831D-04 0.185584130243D-05  6 1 -2 25 -24 21 21 4 0.97762401D-01 0.13307997D-01 0.31761895D+05 0.31761895D+05 0.31761895D+05 0.12123057D+01  1  2 11  1  6  1        1 0.372702795962D-01 0.100000000000D+01
0.203283672466D-05 0.000000000000D+00 0.000000000000D+00 0.100861211492D-04 0.378288383830D-08  6 21 -2 25 -24 -1 21 4 0.97762401D-01 0.13307997D-01 0.31761895D+05 0.31761895D+05 0.31761895D+05 0.12123057D+01  3  4 11  4  5  1        1 0.125769713005D-02 0.100000000000D+01
  </mgrwgt>
  </event>
  <event>
  5     66 0.42750230E-03 0.21160540E+02 0.75467711E-02 0.11046994E+00
        1 -1    0    0  502    0 0.00000000E+00 0.00000000E+00 0.45154898E+03 0.45154909E+03 0.32000000E+00 0.0000E+00 0.9000E+01
       -2 -1    0    0    0  501 0.00000000E+00 0.00000000E+00 -.51465312E+02 0.51466307E+02 0.32000000E+00 0.0000E+00 0.9000E+01
       25  1    1    2    0    0 0.66507379E+02 0.65600531E+02 0.17387308E+03 0.23363114E+03 0.12500000E+03 0.0000E+00 0.9000E+01
      -24  1    1    2    0    0 -.70020798E+02 -.44739022E+02 0.14501840E+03 0.18547788E+03 0.80419002E+02 0.0000E+00 0.9000E+01
       21  1    1    2  502  501 0.35134189E+01 -.20861509E+02 0.81192187E+02 0.83906379E+02 0.75000000E+00 0.0000E+00 0.9000E+01
#aMCatNLO 1  0  0  2  2 0.18633749D+03 0.00000000D+00  -5  6  0 0.00000000D+00 0.00000000D+00 0.00000000D+00 0.00000000D+00 0.00000000D+00
  <mgrwgt>
 0.1539284986D+00    5    4    0
 0.152444704027917D+03 0.000000000000000D+00 0.000000000000000D+00 0.152444704027917D+03
 0.152444704027917D+03 0.000000000000000D+00 0.000000000000000D+00 -.152444704027917D+03
 0.157292198581767D+03 0.665068775636657D+02 0.656035085912841D+02 -.197192959288870D+02
 0.115709412886878D+03 -.700211669594277D+02 -.447368309665235D+02 -.413574769155276D+01
 0.318877965871889D+02 0.351428939576200D+01 -.208666776247606D+02 0.238550436204398D+02
 0.000000000000000D+00 0.000000000000000D+00 -.000000000000000D+00 -.000000000000000D+00
 0.235379179965249D+03 0.000000000000000D+00 0.000000000000000D+00 0.235379179965249D+03
 0.331706172044122D+03 0.000000000000000D+00 0.000000000000000D+00 -.331706172044122D+03
 0.182470102686158D+03 -.282767743305995D+01 0.131428657387575D+03 -.197192959288870D+02
 0.147818768333819D+03 -.123798790627055D+03 0.631880903866121D+01 -.413574769155276D+01
 0.270334057495428D+02 -.850963241264315D+01 -.945135315645455D+01 0.238550436204398D+02
 0.209763075239851D+03 0.135136100472758D+03 -.128296113269782D+03 -.963269920788738D+02
 0.152444704027917D+03 0.000000000000000D+00 0.000000000000000D+00 0.152444704027917D+03
 0.152444704027917D+03 0.000000000000000D+00 0.000000000000000D+00 -.152444704027917D+03
 0.157292198581767D+03 0.665068775636657D+02 0.656035085912841D+02 -.197192959288870D+02
 0.115709412886878D+03 -.700211669594277D+02 -.447368309665235D+02 -.413574769155276D+01
 0.000000000000000D+00 0.000000000000000D+00 -.000000000000000D+00 -.000000000000000D+00
 0.318877965871889D+02 0.351428939576200D+01 -.208666776247606D+02 0.238550436204398D+02
 0.235379179965249D+03 0.000000000000000D+00 0.000000000000000D+00 0.235379179965249D+03
 0.331706172044122D+03 0.000000000000000D+00 0.000000000000000D+00 -.331706172044122D+03
 0.182470102686158D+03 -.282767743305995D+01 0.131428657387575D+03 -.197192959288870D+02
 0.147818768333819D+03 -.123798790627055D+03 0.631880903866121D+01 -.413574769155276D+01
 0.209763075239851D+03 0.135136100472758D+03 -.128296113269782D+03 -.963269920788738D+02
 0.270334057495428D+02 -.850963241264315D+01 -.945135315645455D+01 0.238550436204398D+02
0.163389894653D-03 0.000000000000D+00 0.000000000000D+00 0.468594708399D-04 0.000000000000D+00  6 1 -2 25 -24 21 21 2 0.69469159D-01 0.79178255D-02 0.21439877D+05 0.21439877D+05 0.21439877D+05 0.12305159D+01  1  2  2  2  6  2       -2 0.104661733345D+00 0.100000000000D+01
0.326627973577D-04 0.862232162573D-05 -.627460217014D-06 0.468594708399D-04 0.000000000000D+00  6 1 -2 25 -24 21 21 4 0.69469159D-01 0.79178255D-02 0.21439877D+05 0.21439877D+05 0.21439877D+05 0.12305159D+01  1  2  3  2  6  2       -2 0.316803945200D-01 0.100000000000D+01
0.355730850934D-05 0.000000000000D+00 0.000000000000D+00 0.468594708399D-04 0.000000000000D+00  6 1 -2 25 -24 21 21 4 0.69469159D-01 0.79178255D-02 0.21439877D+05 0.21439877D+05 0.21439877D+05 0.12305159D+01  1  2 15  2  6  2       -2 0.345031491856D-02 0.100000000000D+01
0.208249482944D-04 0.000000000000D+00 -.848600942903D-04 0.468594708399D-04 0.000000000000D+00  6 1 -2 25 -24 21 21 4 0.69469159D-01 0.26266468D-01 0.21439877D+05 0.21439877D+05 0.21439877D+05 0.12305159D+01  1  2  5  2  6  2       -2 0.283334140401D-02 0.100000000000D+01
0.620029466142D-05 0.000000000000D+00 -.117959060212D-04 0.468594708399D-04 0.000000000000D+00  6 1 21 25 -24 2 21 4 0.69469159D-01 0.26266468D-01 0.21439877D+05 0.21439877D+05 0.21439877D+05 0.12305159D+01  3  4  5  5  5  2       -2 0.113027144350D-01 0.100000000000D+01
  </mgrwgt>
  </event>
  <event>
  5     66 0.42750230E-03 0.25651966E+02 0.75467711E-02 0.10670675E+00
        1 -1    0    0  502    0 0.00000000E+00 0.00000000E+00 0.81912384E+03 0.81912390E+03 0.32000000E+00 0.0000E+00 0.9000E+01
       -2 -1    0    0    0  501 0.00000000E+00 0.00000000E+00 -.68127031E+02 0.68127783E+02 0.32000000E+00 0.0000E+00 0.9000E+01
       25  1    1    2    0    0 0.75252215E+02 -.11025395E+03 0.23438143E+03 0.29728519E+03 0.12500000E+03 0.0000E+00 0.9000E+01
      -24  1    1    2    0    0 -.88860253E+02 0.13199780E+03 0.53128873E+03 0.56040565E+03 0.80419002E+02 0.0000E+00 0.9000E+01
       21  1    1    2  502  501 0.13608038E+02 -.21743851E+02 -.14673351E+02 0.29560844E+02 0.75000000E+00 0.0000E+00 0.9000E+01
#aMCatNLO 1  0  0  2  5 0.39296094D+01 0.00000000D+00  -5  6  0 0.00000000D+00 0.00000000D+00 0.00000000D+00 0.00000000D+00 0.00000000D+00
  <mgrwgt>
 0.4244510212D+00    5    4    0
 0.236230473357999D+03 0.000000000000000D+00 0.000000000000000D+00 0.236230473357999D+03
 0.236230473357999D+03 0.000000000000000D+00 0.000000000000000D+00 -.236230473357999D+03
 0.185722897084988D+03 0.752519727357478D+02 -.110253563528148D+03 -.323926971764311D+02
 0.207901339835384D+03 -.888605240284871D+02 0.131998234297457D+03 0.106939349926552D+03
 0.788367097956267D+02 0.136085512927393D+02 -.217446707693082D+02 -.745466527501211D+02
 0.000000000000000D+00 -.000000000000000D+00 0.000000000000000D+00 -.000000000000000D+00
 0.299474343981981D+03 0.000000000000000D+00 0.000000000000000D+00 0.299474343981981D+03
 0.629244267610948D+03 0.000000000000000D+00 0.000000000000000D+00 -.629244267610948D+03
 0.271995890759492D+03 0.139370616114549D+03 -.194636350981867D+03 -.323926971764311D+02
 0.153723257365796D+03 -.382030478647094D+02 0.653308998247630D+02 0.106939349926552D+03
 0.100268697366954D+03 0.386981828177061D+02 -.547636638842400D+02 -.745466527501211D+02
 0.402730766100688D+03 -.139865751067546D+03 0.184069115041344D+03 -.329769923628967D+03
 0.236230473357999D+03 0.000000000000000D+00 0.000000000000000D+00 0.236230473357999D+03
 0.236230473357999D+03 0.000000000000000D+00 0.000000000000000D+00 -.236230473357999D+03
 0.185722897084988D+03 0.752519727357478D+02 -.110253563528148D+03 -.323926971764311D+02
 0.207901339835384D+03 -.888605240284871D+02 0.131998234297457D+03 0.106939349926552D+03
 0.000000000000000D+00 -.000000000000000D+00 0.000000000000000D+00 -.000000000000000D+00
 0.788367097956267D+02 0.136085512927393D+02 -.217446707693082D+02 -.745466527501211D+02
 0.299474343981981D+03 0.000000000000000D+00 0.000000000000000D+00 0.299474343981981D+03
 0.629244267610948D+03 0.000000000000000D+00 0.000000000000000D+00 -.629244267610948D+03
 0.271995890759492D+03 0.139370616114549D+03 -.194636350981867D+03 -.323926971764311D+02
 0.153723257365796D+03 -.382030478647094D+02 0.653308998247630D+02 0.106939349926552D+03
 0.402730766100688D+03 -.139865751067546D+03 0.184069115041344D+03 -.329769923628967D+03
 0.100268697366954D+03 0.386981828177061D+02 -.547636638842400D+02 -.745466527501211D+02
0.225920763774D-02 0.000000000000D+00 0.000000000000D+00 0.240131504849D-04 0.000000000000D+00  6 1 -2 25 -24 21 21 2 0.12601911D+00 0.10481144D-01 0.37406868D+05 0.37406868D+05 0.37406868D+05 0.12049675D+01  1  2  2  2  6  2       -2 0.393849756905D+00 0.100000000000D+01
0.419536273774D-03 0.119221662474D-03 -.867595219197D-05 0.240131504849D-04 0.000000000000D+00  6 1 -2 25 -24 21 21 4 0.12601911D+00 0.10481144D-01 0.37406868D+05 0.37406868D+05 0.37406868D+05 0.12049675D+01  1  2  3  2  6  2       -2 0.106192689274D+00 0.100000000000D+01
-.108366732876D-04 0.000000000000D+00 0.000000000000D+00 0.240131504849D-04 0.000000000000D+00  6 1 -2 25 -24 21 21 4 0.12601911D+00 0.10481144D-01 0.37406868D+05 0.37406868D+05 0.37406868D+05 0.12049675D+01  1  2 15  2  6  2       -2 -.274297015807D-02 0.100000000000D+01
-.101234342515D-02 0.000000000000D+00 -.117078446426D-02 0.240131504849D-04 0.000000000000D+00  6 1 -2 25 -24 21 21 4 0.12601911D+00 0.34803042D-01 0.37406868D+05 0.37406868D+05 0.37406868D+05 0.12049675D+01  1  2  5  2  6  2       -2 -.331189231025D-01 0.100000000000D+01
-.953879475907D-04 0.000000000000D+00 -.162900403965D-03 0.240131504849D-04 0.000000000000D+00  6 1 21 25 -24 2 21 4 0.12601911D+00 0.34803042D-01 0.37406868D+05 0.37406868D+05 0.37406868D+05 0.12049675D+01  3  4  5  5  5  2       -2 -.397295316724D-01 0.100000000000D+01
  </mgrwgt>
  </event>
  <event>
  5     66 0.42750230E-03 0.40318480E+02 0.75467711E-02 0.11862658E+00
        1 -1    0    0  502    0 0.00000000E+00 0.00000000E+00 0.19959905E+03 0.19959930E+03 0.32000000E+00 0.0000E+00 0.9000E+01
       -2 -1    0    0    0  501 0.00000000E+00 0.00000000E+00 -.19257426E+03 0.19257453E+03 0.32000000E+00 0.0000E+00 0.9000E+01
       25  1    1    2    0    0 -.46070789E+01 -.10606906E+03 0.10264660E+03 0.19347660E+03 0.12500000E+03 0.0000E+00 0.9000E+01
      -24  1    1    2    0    0 0.11133896E+02 0.34072087E+02 -.90433329E+02 0.12621519E+03 0.80419002E+02 0.0000E+00 0.9000E+01
       21  1    1    2  502  501 -.65268171E+01 0.71996974E+02 -.51884902E+01 0.72482043E+02 0.75000000E+00 0.0000E+00 0.9000E+01
#aMCatNLO 1  0  0  5  2 0.36043850D+02 0.00000000D+00  -5  6  0 0.00000000D+00 0.00000000D+00 0.00000000D+00 0.00000000D+00 0.00000000D+00
  <mgrwgt>
 0.1144326123D-01    1    2    0
 0.196055457059472D+03 0.000000000000000D+00 0.000000000000000D+00 0.196055457059472D+03
 0.196055457059472D+03 -.000000000000000D+00 -.000000000000000D+00 -.196055457059472D+03
 0.191669828628283D+03 -.460690861149733D+01 -.106070940248815D+03 0.991970525478107D+02
 0.127855175370842D+03 0.111340096868160D+02 0.340708339473798D+02 -.927089101282185D+02
 0.725859101198182D+02 -.652710107531866D+01 0.720001063014353D+02 -.648814241959222D+01
 0.000000000000000D+00 0.000000000000000D+00 -.000000000000000D+00 0.000000000000000D+00
 0.196055457059472D+03 0.000000000000000D+00 0.000000000000000D+00 0.196055457059472D+03
 0.196055457059472D+03 -.000000000000000D+00 -.000000000000000D+00 -.196055457059472D+03
 0.176585223043155D+03 -.711089655464582D+01 -.784495818534418D+02 0.967080102908243D+02
 0.135574285691939D+03 0.934279408399561D+01 0.538296384033933D+02 -.944894344070963D+02
 0.290089542887026D+02 0.766922859083483D+01 -.207126196329137D+02 0.188066411059444D+02
 0.509424510951461D+02 -.990112612018462D+01 0.453325630829621D+02 -.210252169896725D+02
0.386583012238D-04 0.000000000000D+00 0.000000000000D+00 0.250787651908D-05 0.000000000000D+00  6 1 -2 25 -24 21 21 4 0.30707586D-01 0.29626850D-01 0.26299869D+05 0.26299869D+05 0.26299869D+05 0.12209445D+01  1  2 14  3  6  5       21 0.114432612309D-01 0.100000000000D+01
  </mgrwgt>
  </event>
  <event>
  6     66 0.42750230E-03 0.10569489E+02 0.75467711E-02 0.12208573E+00
        3 -1    0    0  502    0 0.00000000E+00 0.00000000E+00 0.24671773E+03 0.24671824E+03 0.50000000E+00 0.0000E+00 0.9000E+01
       21 -1    0    0  503  501 0.00000000E+00 0.00000000E+00 -.11096410E+03 0.11096663E+03 0.75000000E+00 0.0000E+00 0.9000E+01
       25  1    1    2    0    0 -.40051242E+02 0.29759174E+02 0.12584582E+03 0.18426036E+03 0.12500000E+03 0.0000E+00 0.9000E+01
      -24  1    1    2    0    0 0.34611420E+02 -.30725214E+02 -.10067304E+02 0.93330358E+02 0.80419002E+02 0.0000E+00 0.9000E+01
        4  1    1    2  503    0 -.18425461E+00 0.20952829E+02 -.23734251E+02 0.31698141E+02 0.15500000E+01 0.0000E+00 0.9000E+01
       21  1    1    2  502  501 0.56240767E+01 -.19986789E+02 0.43709368E+02 0.48396006E+02 0.75000000E+00 0.0000E+00 0.9000E+01
#aMCatNLO 2  0  0  2  5 0.80414602D+01 0.00000000D+00  -5  6  0 0.00000000D+00 0.00000000D+00 0.00000000D+00 0.00000000D+00 0.00000000D+00
  <mgrwgt>
 0.2412264016D-01    1    2    0
 0.141767332019323D+03 0.000000000000000D+00 0.000000000000000D+00 0.141767332019323D+03
 0.141767332019323D+03 0.000000000000000D+00 0.000000000000000D+00 -.141767332019323D+03
 0.143285714740814D+03 -.401442941386519D+02 0.402400008826442D+02 0.409264465335088D+02
 0.110674987228965D+03 0.345382486374048D+02 -.224821876932790D+02 -.639014668168586D+02
 0.000000000000000D+00 -.000000000000000D+00 0.000000000000000D+00 -.000000000000000D+00
 0.295739620688669D+02 0.560604550124706D+01 -.177578131893652D+02 0.229750202833498D+02
 0.144473948340055D+03 0.000000000000000D+00 0.000000000000000D+00 0.144473948340055D+03
 0.189465544826612D+03 0.000000000000000D+00 0.000000000000000D+00 -.189465544826612D+03
 0.140676685127075D+03 -.400521534837581D+02 0.297620683722688D+02 0.409264465335088D+02
 0.112660645700039D+03 0.346107170046562D+02 -.307230522939472D+02 -.639014668168586D+02
 0.496316306061586D+02 -.184254613645065D+00 0.209528292231474D+02 -.449915964865568D+02
 0.309705317333949D+02 0.562569109274702D+01 -.199918453014691D+02 0.229750202833498D+02
0.992875028805D-05 0.000000000000D+00 0.000000000000D+00 0.543750970603D-04 0.345823527154D-07  6 3 21 25 -24 4 21 4 0.37953676D-01 0.17070224D-01 0.18103511D+05 0.18103511D+05 0.18103511D+05 0.12386180D+01  1  2  1  5  5  2       -4 0.241226401638D-01 0.100000000000D+01
  </mgrwgt>
  </event>
  <event>
  5     66 0.42750230E-03 0.24178849E+02 0.75467711E-02 0.12436529E+00
        1 -1    0    0  502    0 0.00000000E+00 0.00000000E+00 0.23711873E+03 0.23711894E+03 0.32000000E+00 0.0000E+00 0.9000E+01
       -2 -1    0    0    0  501 0.00000000E+00 0.00000000E+00 -.66272414E+02 0.66273187E+02 0.32000000E+00 0.0000E+00 0.9000E+01
       25  1    1    2    0    0 0.20213165E+02 0.19123300E+02 0.66242659E+02 0.14417823E+03 0.12500000E+03 0.0000E+00 0.9000E+01
      -24  1    1    2    0    0 -.33404740E+02 0.11339122E+01 0.52291290E+02 0.10158128E+03 0.80419002E+02 0.0000E+00 0.9000E+01
       21  1    1    2  502  501 0.13191574E+02 -.20257212E+02 0.52312365E+02 0.57632615E+02 0.75000000E+00 0.0000E+00 0.9000E+01
#aMCatNLO 1  0  0  5  2 0.11966368D+02 0.00000000D+00  -5  6  0 0.00000000D+00 0.00000000D+00 0.00000000D+00 0.00000000D+00 0.00000000D+00
  <mgrwgt>
 0.9211089370D+00   20    2    0
 0.125357810198935D+03 0.000000000000000D+00 0.000000000000000D+00 0.125357810198935D+03
 0.125357810198935D+03 -.000000000000000D+00 -.000000000000000D+00 -.125357810198935D+03
 0.129331237199085D+03 0.202115182738569D+02 0.191258292672643D+02 -.180904974876555D+02
 0.872914699382568D+02 -.334058514178066D+02 0.113561931112190D+01 -.594510129793380D+01
 0.340929132605288D+02 0.131943331439496D+02 -.202614485783862D+02 0.240355987855893D+02
 0.000000000000000D+00 0.000000000000000D+00 0.000000000000000D+00 0.000000000000000D+00
 0.125357810198935D+03 0.000000000000000D+00 0.000000000000000D+00 0.125357810198935D+03
 0.125357810198935D+03 -.000000000000000D+00 -.000000000000000D+00 -.125357810198935D+03
 0.128800435351191D+03 0.221300613695345D+02 0.161796809584115D+02 -.145955628367358D+02
 0.866721504050283D+02 -.321128806660532D+02 -.849889173027642D+00 -.358974723103307D+01
 0.165567062699974D+02 -.282670612807865D+01 -.156562683898335D+02 0.458426821662462D+01
 0.186863283716529D+02 0.128095254245974D+02 0.326476604449653D+00 0.136010418511443D+02
0.476831828312D-03 0.000000000000D+00 0.000000000000D+00 0.458325855578D-04 0.000000000000D+00  6 1 -2 25 -24 21 21 2 0.36479880D-01 0.10195832D-01 0.14319401D+05 0.14319401D+05 0.14319401D+05 0.12501281D+01  1  2  2  3  6  5       21 0.468965792058D+00 0.100000000000D+01
0.552709546523D-04 0.251631068974D-04 -.183115977342D-05 0.458325855578D-04 0.000000000000D+00  6 1 -2 25 -24 21 21 4 0.36479880D-01 0.10195832D-01 0.14319401D+05 0.14319401D+05 0.14319401D+05 0.12501281D+01  1  2  3  3  6  5       21 0.849536276172D-01 0.100000000000D+01
0.381590155382D-05 0.000000000000D+00 0.000000000000D+00 0.458325855578D-04 0.000000000000D+00  6 1 -2 25 -24 21 21 4 0.36479880D-01 0.10195832D-01 0.14319401D+05 0.14319401D+05 0.14319401D+05 0.12501281D+01  1  2 15  3  6  5       21 0.586519052668D-02 0.100000000000D+01
0.919485012776D-04 0.000000000000D+00 0.000000000000D+00 0.457129422858D-04 0.000000000000D+00  6 1 -2 25 -24 21 21 4 0.36479880D-01 0.10195832D-01 0.14797707D+05 0.14797707D+05 0.14797707D+05 0.12484953D+01  1  2 12  3  6  5       21 0.140754419360D+00 0.100000000000D+01
0.120304604214D-03 0.000000000000D+00 0.000000000000D+00 0.457129422858D-04 0.000000000000D+00  6 1 -2 25 -24 21 21 4 0.36479880D-01 0.10195832D-01 0.14797707D+05 0.14797707D+05 0.14797707D+05 0.12484953D+01  1  2 12  3  6  5       21 0.184161834910D+00 0.100000000000D+01
-.242556761632D-03 0.000000000000D+00 0.000000000000D+00 0.458325855578D-04 0.000000000000D+00  6 1 -2 25 -24 21 21 4 0.36479880D-01 0.10195832D-01 0.14319401D+05 0.14319401D+05 0.14319401D+05 0.12501281D+01  1  2  4  3  6  5       21 -.372819267070D+00 0.100000000000D+01
-.151616351228D-03 0.000000000000D+00 0.000000000000D+00 0.458325855578D-04 0.000000000000D+00  6 1 -2 25 -24 21 21 4 0.36479880D-01 0.10195832D-01 0.14319401D+05 0.14319401D+05 0.14319401D+05 0.12501281D+01  1  2  5  3  6  5       21 -.233040285335D+00 0.100000000000D+01
0.430780943849D-03 0.000000000000D+00 -.000000000000D+00 0.458325855578D-04 0.000000000000D+00  6 1 -2 25 -24 21 21 4 0.36479880D-01 0.10195832D-01 0.14319401D+05 0.14319401D+05 0.14319401D+05 0.12501281D+01  1  2  6  3  6  5       21 0.662127226109D+00 0.100000000000D+01
0.387286508197D-05 0.000000000000D+00 0.000000000000D+00 0.457129422858D-04 0.000000000000D+00  6 1 -2 25 -24 1 -1 4 0.36479880D-01 0.10195832D-01 0.14797707D+05 0.14797707D+05 0.14797707D+05 0.12484953D+01  1  2 12  6  6  5       21 0.592856727731D-02 0.100000000000D+01
0.505840368931D-05 0.000000000000D+00 0.000000000000D+00 0.457129422858D-04 0.000000000000D+00  6 1 -2 25 -24 1 -1 4 0.36479880D-01 0.10195832D-01 0.14797707D+05 0.14797707D+05 0.14797707D+05 0.12484953D+01  1  2 12  6  6  5       21 0.774338531117D-02 0.100000000000D+01
-.121251637994D-04 0.000000000000D+00 0.000000000000D+00 0.458325855578D-04 0.000000000000D+00  6 1 -2 25 -24 1 -1 4 0.36479880D-01 0.10195832D-01 0.14319401D+05 0.14319401D+05 0.14319401D+05 0.12501281D+01  1  2  5  6  6  5       21 -.186368528767D-01 0.100000000000D+01
0.387286508197D-05 0.000000000000D+00 0.000000000000D+00 0.457129422858D-04 0.000000000000D+00  6 1 -2 25 -24 2 -2 4 0.36479880D-01 0.10195832D-01 0.14797707D+05 0.14797707D+05 0.14797707D+05 0.12484953D+01  1  2 12  7  6  5       21 0.592856727731D-02 0.100000000000D+01
0.505840368931D-05 0.000000000000D+00 0.000000000000D+00 0.457129422858D-04 0.000000000000D+00  6 1 -2 25 -24 2 -2 4 0.36479880D-01 0.10195832D-01 0.14797707D+05 0.14797707D+05 0.14797707D+05 0.12484953D+01  1  2 12  7  6  5       21 0.774338531117D-02 0.100000000000D+01
-.121251637994D-04 0.000000000000D+00 0.000000000000D+00 0.458325855578D-04 0.000000000000D+00  6 1 -2 25 -24 2 -2 4 0.36479880D-01 0.10195832D-01 0.14319401D+05 0.14319401D+05 0.14319401D+05 0.12501281D+01  1  2  5  7  6  5       21 -.186368528767D-01 0.100000000000D+01
0.387286508197D-05 0.000000000000D+00 0.000000000000D+00 0.457129422858D-04 0.000000000000D+00  6 1 -2 25 -24 3 -3 4 0.36479880D-01 0.10195832D-01 0.14797707D+05 0.14797707D+05 0.14797707D+05 0.12484953D+01  1  2 12  8  6  5       21 0.592856727731D-02 0.100000000000D+01
0.387286508197D-05 0.000000000000D+00 0.000000000000D+00 0.457129422858D-04 0.000000000000D+00  6 1 -2 25 -24 4 -4 4 0.36479880D-01 0.10195832D-01 0.14797707D+05 0.14797707D+05 0.14797707D+05 0.12484953D+01  1  2 12  8  6  5       21 0.592856727731D-02 0.100000000000D+01
0.505840368931D-05 0.000000000000D+00 0.000000000000D+00 0.457129422858D-04 0.000000000000D+00  6 1 -2 25 -24 3 -3 4 0.36479880D-01 0.10195832D-01 0.14797707D+05 0.14797707D+05 0.14797707D+05 0.12484953D+01  1  2 12  8  6  5       21 0.774338531117D-02 0.100000000000D+01
0.505840368931D-05 0.000000000000D+00 0.000000000000D+00 0.457129422858D-04 0.000000000000D+00  6 1 -2 25 -24 4 -4 4 0.36479880D-01 0.10195832D-01 0.14797707D+05 0.14797707D+05 0.14797707D+05 0.12484953D+01  1  2 12  8  6  5       21 0.774338531117D-02 0.100000000000D+01
-.121251637994D-04 0.000000000000D+00 0.000000000000D+00 0.458325855578D-04 0.000000000000D+00  6 1 -2 25 -24 3 -3 4 0.36479880D-01 0.10195832D-01 0.14319401D+05 0.14319401D+05 0.14319401D+05 0.12501281D+01  1  2  5  8  6  5       21 -.186368528767D-01 0.100000000000D+01
-.121251637994D-04 0.000000000000D+00 0.000000000000D+00 0.458325855578D-04 0.000000000000D+00  6 1 -2 25 -24 4 -4 4 0.36479880D-01 0.10195832D-01 0.14319401D+05 0.14319401D+05 0.14319401D+05 0.12501281D+01  1  2  5  8  6  5       21 -.186368528767D-01 0.100000000000D+01
  </mgrwgt>
  </event>
  <event>
  6     66 0.42750230E-03 0.45868177E+02 0.75467711E-02 0.11687240E+00
        1 -1    0    0  502    0 0.00000000E+00 0.00000000E+00 0.99626926E+03 0.99626931E+03 0.32000000E+00 0.0000E+00 0.9000E+01
       -2 -1    0    0    0  503 0.00000000E+00 0.00000000E+00 -.47730035E+02 0.47731107E+02 0.32000000E+00 0.0000E+00 0.9000E+01
       25  1    1    2    0    0 -.89894909E+00 -.81676633E+02 0.41809553E+03 0.44396031E+03 0.12500000E+03 0.0000E+00 0.9000E+01
      -24  1    1    2    0    0 -.19122041E+02 0.57029132E+02 0.45719691E+03 0.46809636E+03 0.80419002E+02 0.0000E+00 0.9000E+01
       21  1    1    2  502  501 -.41650163E+02 -.75455486E+00 0.38525843E+02 0.56746000E+02 0.75000000E+00 0.0000E+00 0.9000E+01
       21  1    1    2  501  503 0.61671153E+02 0.25402056E+02 0.34720945E+02 0.75197753E+02 0.75000000E+00 0.0000E+00 0.9000E+01
#aMCatNLO 2  0  0  2  5 0.34010265D+01 0.00000000D+00  -5  6  0 0.00000000D+00 0.00000000D+00 0.00000000D+00 0.00000000D+00 0.00000000D+00
  <mgrwgt>
 0.2699320065D-02    1    2    0
 0.157373885834406D+03 0.000000000000000D+00 0.000000000000000D+00 0.157373885834406D+03
 0.157373885834406D+03 0.000000000000000D+00 0.000000000000000D+00 -.157373885834406D+03
 0.145883453352748D+03 0.277070516666961D+02 -.698946743675189D+02 -.200891640470023D+01
 0.114274592622412D+03 0.270212617486607D+01 0.660178409886788D+02 0.471784882120693D+02
 0.545897256936516D+02 -.304091778415622D+02 0.387683337884013D+01 -.451695718073691D+02
 0.000000000000000D+00 0.000000000000000D+00 0.000000000000000D+00 -.000000000000000D+00
 0.170259964510458D+03 0.000000000000000D+00 0.000000000000000D+00 0.170259964510458D+03
 0.279290356593253D+03 0.000000000000000D+00 0.000000000000000D+00 -.279290356593253D+03
 0.149335006151445D+03 -.897654998105118D+00 -.816768175961532D+02 -.200891640470023D+01
 0.110954694375708D+03 -.191210948314480D+02 0.570289595916557D+02 0.471784882120693D+02
 0.614473898468399D+02 -.416524031393294D+02 -.754197883336896D+00 -.451695718073691D+02
 0.127813230729718D+03 0.616711529688825D+02 0.254020558878344D+02 -.109030392082796D+03
0.819390124772D-05 0.000000000000D+00 0.000000000000D+00 0.238344166989D-04 0.838480165766D-08  6 1 -2 25 -24 21 21 4 0.15327133D+00 0.73431234D-02 0.32059491D+05 0.32059491D+05 0.32059491D+05 0.12118836D+01  1  2  1  2  6  2       -2 0.269932006469D-02 0.100000000000D+01
  </mgrwgt>
  </event>
  <event>
  5     66 0.42750230E-03 0.20757909E+02 0.75467711E-02 0.12364235E+00
        1 -1    0    0  502    0 0.00000000E+00 0.00000000E+00 0.20291470E+03 0.20291495E+03 0.32000000E+00 0.0000E+00 0.9000E+01
       -2 -1    0    0    0  501 0.00000000E+00 0.00000000E+00 -.90301880E+02 0.90302447E+02 0.32000000E+00 0.0000E+00 0.9000E+01
       25  1    1    2    0    0 0.26900427E+02 -.30409894E+02 0.18997830E+01 0.13144202E+03 0.12500000E+03 0.0000E+00 0.9000E+01
      -24  1    1    2    0    0 -.11211565E+02 0.46945909E+02 0.78506937E+02 0.12231178E+03 0.80419002E+02 0.0000E+00 0.9000E+01
       21  1    1    2  502  501 -.15688862E+02 -.16536015E+02 0.32206101E+02 0.39463599E+02 0.75000000E+00 0.0000E+00 0.9000E+01
#aMCatNLO 1  0  0  5  2 0.22623280D+01 0.00000000D+00  -5  6  0 0.00000000D+00 0.00000000D+00 0.00000000D+00 0.00000000D+00 0.00000000D+00
  <mgrwgt>
 0.5012759819D+00   25    2    0
 0.135365058686570D+03 0.000000000000000D+00 0.000000000000000D+00 0.135365058686570D+03
 0.135365058686570D+03 -.000000000000000D+00 -.000000000000000D+00 -.135365058686570D+03
 0.141570646225798D+03 0.269031081061317D+02 -.304070679682708D+02 -.526201564478184D+02
 0.998154407874216D+02 -.112096749727964D+02 0.469479010281400D+02 0.341488512438261D+02
 0.293440303599210D+02 -.156934331333353D+02 -.165408330598693D+02 0.184713052039923D+02
 0.000000000000000D+00 0.000000000000000D+00 0.000000000000000D+00 0.000000000000000D+00
 0.135365058686570D+03 0.000000000000000D+00 0.000000000000000D+00 0.135365058686570D+03
 0.135365058686570D+03 -.000000000000000D+00 -.000000000000000D+00 -.135365058686570D+03
 0.141405217069106D+03 0.264855768122889D+02 -.308471447424251D+02 -.521287185390280D+02
 0.998226269328430D+02 -.115042412292430D+02 0.466374290471811D+02 0.344955582504698D+02
 0.269700666463560D+02 -.158804149401880D+02 -.155489995124097D+02 0.152782698758537D+02
 0.253220672483585D+01 0.899079357142137D+00 -.241284792346187D+00 0.235489041270443D+01
0.202125469026D-03 0.000000000000D+00 0.000000000000D+00 0.406553988923D-04 0.000000000000D+00  6 1 -2 25 -24 21 21 2 0.31217709D-01 0.13892660D-01 0.15378645D+05 0.15378645D+05 0.15378645D+05 0.12465902D+01  1  2  2  3  6  5       21 0.146780473230D+00 0.100000000000D+01
0.291589686798D-04 0.106664540448D-04 -.776215021917D-06 0.406553988923D-04 0.000000000000D+00  6 1 -2 25 -24 21 21 4 0.31217709D-01 0.13892660D-01 0.15378645D+05 0.15378645D+05 0.15378645D+05 0.12465902D+01  1  2  3  3  6  5       21 0.329053704925D-01 0.100000000000D+01
0.863511893743D-05 0.000000000000D+00 0.000000000000D+00 0.406553988923D-04 0.000000000000D+00  6 1 -2 25 -24 21 21 4 0.31217709D-01 0.13892660D-01 0.15378645D+05 0.15378645D+05 0.15378645D+05 0.12465902D+01  1  2 15  3  6  5       21 0.974457605148D-02 0.100000000000D+01
0.931499305140D-07 0.000000000000D+00 0.000000000000D+00 0.406488199476D-04 0.000000000000D+00  6 1 -2 25 -24 21 21 4 0.31217709D-01 0.13892660D-01 0.15410108D+05 0.15410108D+05 0.15410108D+05 0.12464893D+01  1  2 12  3  6  5       21 0.105090899474D-03 0.100000000000D+01
0.110462985239D-06 0.000000000000D+00 0.000000000000D+00 0.406488199476D-04 0.000000000000D+00  6 1 -2 25 -24 21 21 4 0.31217709D-01 0.13892660D-01 0.15410108D+05 0.15410108D+05 0.15410108D+05 0.12464893D+01  1  2 12  3  6  5       21 0.124623329435D-03 0.100000000000D+01
-.100495740820D-02 0.000000000000D+00 0.000000000000D+00 0.406553988923D-04 0.000000000000D+00  6 1 -2 25 -24 21 21 4 0.31217709D-01 0.13892660D-01 0.15378645D+05 0.15378645D+05 0.15378645D+05 0.12465902D+01  1  2  4  3  6  5       21 -.113407631830D+01 0.100000000000D+01
-.119751173175D-02 0.000000000000D+00 0.000000000000D+00 0.406553988923D-04 0.000000000000D+00  6 1 -2 25 -24 21 21 4 0.31217709D-01 0.13892660D-01 0.15378645D+05 0.15378645D+05 0.15378645D+05 0.12465902D+01  1  2  5  3  6  5       21 -.135137040116D+01 0.100000000000D+01
0.138517963957D-02 0.000000000000D+00 -.000000000000D+00 0.406553988923D-04 0.000000000000D+00  6 1 -2 25 -24 21 21 4 0.31217709D-01 0.13892660D-01 0.15378645D+05 0.15378645D+05 0.15378645D+05 0.12465902D+01  1  2  6  3  6  5       21 0.156315025196D+01 0.100000000000D+01
0.108726729082D-02 0.000000000000D+00 0.000000000000D+00 0.406553988923D-04 0.147467942591D-03  6 1 -2 25 -24 21 21 4 0.31217709D-01 0.13892660D-01 0.15410108D+05 0.15410108D+05 0.15410108D+05 0.12464893D+01  1  2 11  3  6  5       21 0.122664501123D+01 0.100000000000D+01
0.109432823948D-07 0.000000000000D+00 0.000000000000D+00 0.406488199476D-04 0.000000000000D+00  6 1 -2 25 -24 1 -1 4 0.31217709D-01 0.13892660D-01 0.15410108D+05 0.15410108D+05 0.15410108D+05 0.12464893D+01  1  2 12  6  6  5       21 0.123461110891D-04 0.100000000000D+01
0.114249107171D-07 0.000000000000D+00 0.000000000000D+00 0.406488199476D-04 0.000000000000D+00  6 1 -2 25 -24 1 -1 4 0.31217709D-01 0.13892660D-01 0.15410108D+05 0.15410108D+05 0.15410108D+05 0.12464893D+01  1  2 12  6  6  5       21 0.128894797564D-04 0.100000000000D+01
-.678980152824D-05 0.000000000000D+00 0.000000000000D+00 0.406553988923D-04 0.000000000000D+00  6 1 -2 25 -24 1 -1 4 0.31217709D-01 0.13892660D-01 0.15378645D+05 0.15378645D+05 0.15378645D+05 0.12465902D+01  1  2  5  6  6  5       21 -.766216862162D-02 0.100000000000D+01
0.837025256784D-05 0.000000000000D+00 0.000000000000D+00 0.406553988923D-04 0.664894237940D-06  6 1 -2 25 -24 1 -1 4 0.31217709D-01 0.13892660D-01 0.15410108D+05 0.15410108D+05 0.15410108D+05 0.12464893D+01  1  2 11  6  6  5       21 0.944324237631D-02 0.100000000000D+01
0.109432823948D-07 0.000000000000D+00 0.000000000000D+00 0.406488199476D-04 0.000000000000D+00  6 1 -2 25 -24 2 -2 4 0.31217709D-01 0.13892660D-01 0.15410108D+05 0.15410108D+05 0.15410108D+05 0.12464893D+01  1  2 12  7  6  5       21 0.123461110891D-04 0.100000000000D+01
0.114249107171D-07 0.000000000000D+00 0.000000000000D+00 0.406488199476D-04 0.000000000000D+00  6 1 -2 25 -24 2 -2 4 0.31217709D-01 0.13892660D-01 0.15410108D+05 0.15410108D+05 0.15410108D+05 0.12464893D+01  1  2 12  7  6  5       21 0.128894797564D-04 0.100000000000D+01
-.678980152824D-05 0.000000000000D+00 0.000000000000D+00 0.406553988923D-04 0.000000000000D+00  6 1 -2 25 -24 2 -2 4 0.31217709D-01 0.13892660D-01 0.15378645D+05 0.15378645D+05 0.15378645D+05 0.12465902D+01  1  2  5  7  6  5       21 -.766216862162D-02 0.100000000000D+01
0.840569432752D-05 0.000000000000D+00 0.000000000000D+00 0.406553988923D-04 0.675704067583D-06  6 1 -2 25 -24 2 -2 4 0.31217709D-01 0.13892660D-01 0.15410108D+05 0.15410108D+05 0.15410108D+05 0.12464893D+01  1  2 11  7  6  5       21 0.948322744535D-02 0.100000000000D+01
0.109432823948D-07 0.000000000000D+00 0.000000000000D+00 0.406488199476D-04 0.000000000000D+00  6 1 -2 25 -24 3 -3 4 0.31217709D-01 0.13892660D-01 0.15410108D+05 0.15410108D+05 0.15410108D+05 0.12464893D+01  1  2 12  8  6  5       21 0.123461110891D-04 0.100000000000D+01
0.109432823948D-07 0.000000000000D+00 0.000000000000D+00 0.406488199476D-04 0.000000000000D+00  6 1 -2 25 -24 4 -4 4 0.31217709D-01 0.13892660D-01 0.15410108D+05 0.15410108D+05 0.15410108D+05 0.12464893D+01  1  2 12  8  6  5       21 0.123461110891D-04 0.100000000000D+01
0.114249107171D-07 0.000000000000D+00 0.000000000000D+00 0.406488199476D-04 0.000000000000D+00  6 1 -2 25 -24 3 -3 4 0.31217709D-01 0.13892660D-01 0.15410108D+05 0.15410108D+05 0.15410108D+05 0.12464893D+01  1  2 12  8  6  5       21 0.128894797564D-04 0.100000000000D+01
0.114249107171D-07 0.000000000000D+00 0.000000000000D+00 0.406488199476D-04 0.000000000000D+00  6 1 -2 25 -24 4 -4 4 0.31217709D-01 0.13892660D-01 0.15410108D+05 0.15410108D+05 0.15410108D+05 0.12464893D+01  1  2 12  8  6  5       21 0.128894797564D-04 0.100000000000D+01
-.678980152824D-05 0.000000000000D+00 0.000000000000D+00 0.406553988923D-04 0.000000000000D+00  6 1 -2 25 -24 3 -3 4 0.31217709D-01 0.13892660D-01 0.15378645D+05 0.15378645D+05 0.15378645D+05 0.12465902D+01  1  2  5  8  6  5       21 -.766216862162D-02 0.100000000000D+01
-.678980152824D-05 0.000000000000D+00 0.000000000000D+00 0.406553988923D-04 0.000000000000D+00  6 1 -2 25 -24 4 -4 4 0.31217709D-01 0.13892660D-01 0.15378645D+05 0.15378645D+05 0.15378645D+05 0.12465902D+01  1  2  5  8  6  5       21 -.766216862162D-02 0.100000000000D+01
0.837117515142D-05 0.000000000000D+00 0.000000000000D+00 0.406553988923D-04 0.662019163954D-06  6 1 -2 25 -24 3 -3 4 0.31217709D-01 0.13892660D-01 0.15410108D+05 0.15410108D+05 0.15410108D+05 0.12464893D+01  1  2 11  8  6  5       21 0.944428322666D-02 0.100000000000D+01
0.837117515142D-05 0.000000000000D+00 0.000000000000D+00 0.406553988923D-04 0.662019163954D-06  6 1 -2 25 -24 4 -4 4 0.31217709D-01 0.13892660D-01 0.15410108D+05 0.15410108D+05 0.15410108D+05 0.12464893D+01  1  2 11  8  6  5       21 0.944428322666D-02 0.100000000000D+01
  </mgrwgt>
  </event>
  <event>
  5     66 0.42750230E-03 0.12287199E+03 0.75467711E-02 0.10672804E+00
        1 -1    0    0  502    0 0.00000000E+00 0.00000000E+00 0.34684127E+03 0.34684141E+03 0.32000000E+00 0.0000E+00 0.9000E+01
       -2 -1    0    0    0  501 0.00000000E+00 0.00000000E+00 -.17780371E+03 0.17780399E+03 0.32000000E+00 0.0000E+00 0.9000E+01
       25  1    1    2    0    0 -.15769279E+03 -.90707107E+02 0.72234087E+02 0.23224461E+03 0.12500000E+03 0.0000E+00 0.9000E+01
      -24  1    1    2    0    0 0.84930187E+02 -.83020649E+01 0.11953234E+03 0.16744330E+03 0.80419002E+02 0.0000E+00 0.9000E+01
       21  1    1    2  502  501 0.72762603E+02 0.99009172E+02 -.22728872E+02 0.12495750E+03 0.75000000E+00 0.0000E+00 0.9000E+01
#aMCatNLO 1  0  0  1  5 0.74139515D+03 0.00000000D+00  -5  6  0 0.00000000D+00 0.00000000D+00 0.00000000D+00 0.00000000D+00 0.00000000D+00
  <mgrwgt>
 0.4536366917D-01    6    4    0
 0.248334002976179D+03 0.000000000000000D+00 0.000000000000000D+00 0.248334002976179D+03
 0.248334002976179D+03 0.000000000000000D+00 0.000000000000000D+00 -.248334002976179D+03
 0.220743202987287D+03 -.157693256385837D+03 -.907077410613881D+02 -.273939173130857D+01
 0.136193373597178D+03 0.849298996724849D+02 -.830245602974944D+01 0.692777050926616D+02
 0.139731429367892D+03 0.727633567133522D+02 0.990101970911376D+02 -.665383133613530D+02
 0.000000000000000D+00 -.000000000000000D+00 0.000000000000000D+00 0.000000000000000D+00
 0.359189839829383D+03 0.000000000000000D+00 0.000000000000000D+00 0.359189839829383D+03
 0.347926846194778D+03 0.000000000000000D+00 0.000000000000000D+00 -.347926846194778D+03
 0.195234974736582D+03 -.909132180277755D+02 -.119243355710792D+03 -.273939173130857D+01
 0.174057122688076D+03 0.134736695201769D+03 -.295852758527140D+02 0.692777050926616D+02
 0.158602573653264D+03 0.120657109876750D+03 0.785448347165833D+02 -.665383133613530D+02
 0.179222014946238D+03 -.164480587050743D+03 0.702837968469224D+02 0.112629936346051D+02
 0.248334002976179D+03 0.000000000000000D+00 0.000000000000000D+00 0.248334002976179D+03
 0.248334002976179D+03 0.000000000000000D+00 0.000000000000000D+00 -.248334002976179D+03
 0.220743202987287D+03 -.157693256385837D+03 -.907077410613881D+02 -.273939173130857D+01
 0.136193373597178D+03 0.849298996724849D+02 -.830245602974944D+01 0.692777050926616D+02
 0.000000000000000D+00 -.000000000000000D+00 0.000000000000000D+00 0.000000000000000D+00
 0.139731429367892D+03 0.727633567133522D+02 0.990101970911376D+02 -.665383133613530D+02
 0.359189839829383D+03 0.000000000000000D+00 0.000000000000000D+00 0.359189839829383D+03
 0.347926846194778D+03 0.000000000000000D+00 0.000000000000000D+00 -.347926846194778D+03
 0.195234974736582D+03 -.909132180277755D+02 -.119243355710792D+03 -.273939173130857D+01
 0.174057122688076D+03 0.134736695201769D+03 -.295852758527140D+02 0.692777050926616D+02
 0.179222014946238D+03 -.164480587050743D+03 0.702837968469224D+02 0.112629936346051D+02
 0.158602573653264D+03 0.120657109876750D+03 0.785448347165833D+02 -.665383133613530D+02
0.209060583355D-03 0.000000000000D+00 0.000000000000D+00 0.132343719851D-05 0.000000000000D+00  6 1 -2 25 -24 21 21 2 0.53360228D-01 0.27354450D-01 0.53096907D+05 0.53096907D+05 0.53096907D+05 0.11897056D+01  1  2  2  1  6  1        1 0.229209338371D-01 0.100000000000D+01
-.132093101973D-04 0.110324300826D-04 -.802847687001D-06 0.132343719851D-05 0.000000000000D+00  6 1 -2 25 -24 21 21 4 0.53360228D-01 0.27354450D-01 0.53096907D+05 0.53096907D+05 0.53096907D+05 0.11897056D+01  1  2  3  1  6  1        1 -.204983692786D-02 0.100000000000D+01
0.533527307520D-05 0.000000000000D+00 0.000000000000D+00 0.132343719851D-05 0.000000000000D+00  6 1 -2 25 -24 21 21 4 0.53360228D-01 0.27354450D-01 0.53096907D+05 0.53096907D+05 0.53096907D+05 0.11897056D+01  1  2 15  1  6  1        1 0.827934207494D-03 0.100000000000D+01
-.124816962931D-03 0.000000000000D+00 -.150006882233D-03 0.132343719851D-05 0.000000000000D+00  6 1 -2 25 -24 21 21 4 0.10281463D+00 0.27354450D-01 0.53096907D+05 0.53096907D+05 0.53096907D+05 0.11897056D+01  1  2  5  1  6  1        1 -.810129614440D-02 0.100000000000D+01
0.204876052269D-03 0.000000000000D+00 0.122665021208D-03 0.132343719851D-05 0.000000000000D+00  6 1 -2 25 -24 21 21 4 0.53360228D-01 0.27354450D-01 0.53096907D+05 0.53096907D+05 0.53096907D+05 0.11897056D+01  1  2  6  1  6  1        1 0.317929166097D-01 0.100000000000D+01
-.183880275674D-06 0.000000000000D+00 -.106734693609D-04 0.132343719851D-05 0.000000000000D+00  6 21 -2 25 -24 -1 21 4 0.10281463D+00 0.27354450D-01 0.53096907D+05 0.53096907D+05 0.53096907D+05 0.11897056D+01  3  4  5  4  5  1        1 -.269824107307D-04 0.100000000000D+01
  </mgrwgt>
  </event>
  <event>
  5     66 -.42750230E-03 0.23867176E+02 0.75467711E-02 0.12087094E+00
        1 -1    0    0  502    0 0.00000000E+00 0.00000000E+00 0.12740699E+03 0.12740739E+03 0.32000000E+00 0.0000E+00 0.9000E+01
       -2 -1    0    0    0  501 0.00000000E+00 0.00000000E+00 -.16535186E+03 0.16535217E+03 0.32000000E+00 0.0000E+00 0.9000E+01
       25  1    1    2    0    0 0.16430559E+02 0.45010648E+02 -.80222139E+02 0.15606573E+03 0.12500000E+03 0.0000E+00 0.9000E+01
      -24  1    1    2    0    0 0.73686480E+01 -.46778393E+02 0.63311357E+01 0.93540442E+02 0.80419002E+02 0.0000E+00 0.9000E+01
       21  1    1    2  502  501 -.23799207E+02 0.17677443E+01 0.35946131E+02 0.43153378E+02 0.75000000E+00 0.0000E+00 0.9000E+01
#aMCatNLO 1  0  0  1  5 0.42970135D+01 0.00000000D+00  -5  6  0 0.00000000D+00 0.00000000D+00 0.00000000D+00 0.00000000D+00 0.00000000D+00
  <mgrwgt>
 -.6349042265D+00    5    4    0
 0.145145050790754D+03 0.000000000000000D+00 0.000000000000000D+00 0.145145050790754D+03
 0.145145050790754D+03 0.000000000000000D+00 0.000000000000000D+00 -.145145050790754D+03
 0.146908420177213D+03 0.164320164952703D+02 0.450105401988607D+02 -.605072229066114D+02
 0.951635238355047D+02 0.736959192415461D+01 -.467784628769609D+02 0.186103422902525D+02
 0.482181575687915D+02 -.238016084194249D+02 0.176792267810020D+01 0.418968806163588D+02
 0.000000000000000D+00 -.000000000000000D+00 0.000000000000000D+00 0.000000000000000D+00
 0.405129540482722D+03 0.000000000000000D+00 0.000000000000000D+00 0.405129540482722D+03
 0.147269791140046D+03 0.000000000000000D+00 0.000000000000000D+00 -.147269791140046D+03
 0.142647647515848D+03 0.166030640106322D+02 0.280457765696372D+02 -.605072229066114D+02
 0.101328182445886D+03 0.748566415298551D+01 -.582906904697882D+02 0.186103422902525D+02
 0.483142723577038D+02 -.237445844640220D+02 -.388780358350085D+01 0.418968806163588D+02
 0.260109229303330D+03 -.344143699595663D+00 0.341327174836518D+02 0.257859749342676D+03
 0.145145050790754D+03 0.000000000000000D+00 0.000000000000000D+00 0.145145050790754D+03
 0.145145050790754D+03 0.000000000000000D+00 0.000000000000000D+00 -.145145050790754D+03
 0.146908420177213D+03 0.164320164952703D+02 0.450105401988607D+02 -.605072229066114D+02
 0.951635238355047D+02 0.736959192415461D+01 -.467784628769609D+02 0.186103422902525D+02
 0.000000000000000D+00 -.000000000000000D+00 0.000000000000000D+00 0.000000000000000D+00
 0.482181575687915D+02 -.238016084194249D+02 0.176792267810020D+01 0.418968806163588D+02
 0.405129540482722D+03 0.000000000000000D+00 0.000000000000000D+00 0.405129540482722D+03
 0.147269791140046D+03 0.000000000000000D+00 0.000000000000000D+00 -.147269791140046D+03
 0.142647647515848D+03 0.166030640106322D+02 0.280457765696372D+02 -.605072229066114D+02
 0.101328182445886D+03 0.748566415298551D+01 -.582906904697882D+02 0.186103422902525D+02
 0.260109229303330D+03 -.344143699595663D+00 0.341327174836518D+02 0.257859749342676D+03
 0.483142723577038D+02 -.237445844640220D+02 -.388780358350085D+01 0.418968806163588D+02
0.775816735687D-04 0.000000000000D+00 0.000000000000D+00 0.404076298064D-04 0.000000000000D+00  6 1 -2 25 -24 21 21 2 0.19601129D-01 0.25438802D-01 0.15758084D+05 0.15758084D+05 0.15758084D+05 0.12453889D+01  1  2  2  1  6  1        1 0.365461359112D-01 0.100000000000D+01
0.842064280308D-05 0.409409739320D-05 -.297934054228D-06 0.404076298064D-04 0.000000000000D+00  6 1 -2 25 -24 21 21 4 0.19601129D-01 0.25438802D-01 0.15758084D+05 0.15758084D+05 0.15758084D+05 0.12453889D+01  1  2  3  1  6  1        1 0.615230052266D-02 0.100000000000D+01
0.312102654608D-05 0.000000000000D+00 0.000000000000D+00 0.404076298064D-04 0.000000000000D+00  6 1 -2 25 -24 21 21 4 0.19601129D-01 0.25438802D-01 0.15758084D+05 0.15758084D+05 0.15758084D+05 0.12453889D+01  1  2 15  1  6  1        1 0.228028829861D-02 0.100000000000D+01
-.227567881581D-02 0.000000000000D+00 -.557076215349D-04 0.404076298064D-04 0.000000000000D+00  6 1 -2 25 -24 21 21 4 0.54992124D-01 0.25438802D-01 0.15758084D+05 0.15758084D+05 0.15758084D+05 0.12453889D+01  1  2  5  1  6  1        1 -.460851117603D+00 0.100000000000D+01
-.260635040852D-03 0.000000000000D+00 -.645612146103D-05 0.404076298064D-04 0.000000000000D+00  6 21 -2 25 -24 -1 21 4 0.54992124D-01 0.25438802D-01 0.15758084D+05 0.15758084D+05 0.15758084D+05 0.12453889D+01  3  4  5  4  5  1        1 -.219031833589D+00 0.100000000000D+01
  </mgrwgt>
  </event>
  <event>
  5     66 -.42750230E-03 0.29853958E+02 0.75467711E-02 0.11467270E+00
        1 -1    0    0  502    0 0.00000000E+00 0.00000000E+00 0.59852659E+03 0.59852668E+03 0.32000000E+00 0.0000E+00 0.9000E+01
       -2 -1    0    0    0  501 0.00000000E+00 0.00000000E+00 -.76235760E+02 0.76236431E+02 0.32000000E+00 0.0000E+00 0.9000E+01
       25  1    1    2    0    0 0.33050857E+02 -.15489234E+03 0.35840665E+03 0.41129591E+03 0.12500000E+03 0.0000E+00 0.9000E+01
      -24  1    1    2    0    0 -.60759704E+02 0.14379824E+03 0.14796724E+03 0.22963274E+03 0.80419002E+02 0.0000E+00 0.9000E+01
       21  1    1    2  502  501 0.27708847E+02 0.11094095E+02 0.15916941E+02 0.33834460E+02 0.75000000E+00 0.0000E+00 0.9000E+01
#aMCatNLO 1  0  0  5  5 0.18360269D+03 0.00000000D+00  -5  6  0 0.00000000D+00 0.00000000D+00 0.00000000D+00 0.00000000D+00 0.00000000D+00
  <mgrwgt>
 -.1150406619D-01    1    2    0
 0.213610357448775D+03 0.000000000000000D+00 0.000000000000000D+00 0.213610357448775D+03
 0.213610357448775D+03 -.000000000000000D+00 -.000000000000000D+00 -.213610357448775D+03
 0.211448646981814D+03 0.330475149251263D+02 -.154893675826946D+03 0.632561558785423D+02
 0.181792696456023D+03 -.607625768413752D+02 0.143797092974532D+03 -.470284364831626D+02
 0.339793714597131D+02 0.277150619162489D+02 0.110965828524133D+02 -.162277193953796D+02
 0.000000000000000D+00 0.000000000000000D+00 0.000000000000000D+00 0.000000000000000D+00
 0.213610357448775D+03 0.000000000000000D+00 0.000000000000000D+00 0.213610357448775D+03
 0.213610357448775D+03 -.000000000000000D+00 -.000000000000000D+00 -.213610357448775D+03
 0.210779118729420D+03 0.352438399169476D+02 -.154014309137590D+03 0.619701639592011D+02
 0.182060790711210D+03 -.588699004895948D+02 0.144554884532560D+03 -.481366360908625D+02
 0.257461334916577D+02 0.159121404297406D+02 0.129266327197186D+02 -.155746378206356D+02
 0.863467196526225D+01 0.771392014290660D+01 -.346720811468796D+01 0.174110995229703D+01
-.349869600512D-04 0.000000000000D+00 0.000000000000D+00 0.175478804904D-04 0.000000000000D+00  6 1 -2 25 -24 21 21 4 0.92081072D-01 0.11728637D-01 0.41457756D+05 0.41457756D+05 0.41457756D+05 0.12004248D+01  1  2 14  3  6  5       21 -.115040661859D-01 0.100000000000D+01
  </mgrwgt>
  </event>
  <event>
  6     66 0.42750230E-03 0.39818717E+02 0.75467711E-02 0.12174611E+00
        1 -1    0    0  502    0 0.00000000E+00 0.00000000E+00 0.88811839E+03 0.88811845E+03 0.32000000E+00 0.0000E+00 0.9000E+01
       21 -1    0    0  503  501 0.00000000E+00 0.00000000E+00 -.26664706E+02 0.26675252E+02 0.75000000E+00 0.0000E+00 0.9000E+01
       25  1    1    2    0    0 0.32354897E+01 0.11709265E+02 0.51272114E+03 0.52787834E+03 0.12500000E+03 0.0000E+00 0.9000E+01
      -24  1    1    2    0    0 0.42961556E+02 -.31263943E+02 0.26994115E+03 0.28663317E+03 0.80419002E+02 0.0000E+00 0.9000E+01
        2  1    1    2  503    0 -.42001417E+02 0.12658695E+02 0.36055992E+02 0.56784669E+02 0.32000000E+00 0.0000E+00 0.9000E+01
       21  1    1    2  502  501 -.41956286E+01 0.68959832E+01 0.42735399E+02 0.43497525E+02 0.75000000E+00 0.0000E+00 0.9000E+01
#aMCatNLO 2  0  0  2  2 0.12765286D+03 0.00000000D+00  -5  6  0 0.00000000D+00 0.00000000D+00 0.00000000D+00 0.00000000D+00 0.00000000D+00
  <mgrwgt>
 0.3951070134D-01    1    2    0
 0.115080174800331D+03 0.000000000000000D+00 0.000000000000000D+00 0.115080174800331D+03
 0.115080174800331D+03 0.000000000000000D+00 0.000000000000000D+00 -.115080174800331D+03
 0.129201169806128D+03 -.199118620572109D+02 0.186767275108037D+02 0.179621791042652D+02
 0.909192005109057D+02 0.258215694663303D+02 -.261043999999586D+02 -.212342157403890D+02
 0.000000000000000D+00 -.000000000000000D+00 0.000000000000000D+00 -.000000000000000D+00
 0.100399792836283D+02 -.590970740911948D+01 0.742767248915484D+01 0.327203663612383D+01
 0.123612440595355D+03 0.000000000000000D+00 0.000000000000000D+00 0.123612440595355D+03
 0.191616229857545D+03 0.000000000000000D+00 0.000000000000000D+00 -.191616229857545D+03
 0.126866082208314D+03 0.324427085946776D+01 0.116977623203547D+02 0.179621791042652D+02
 0.987037106860969D+02 0.429691480855506D+02 -.312724630230305D+02 -.212342157403890D+02
 0.809251319493221D+02 -.420014173750439D+02 0.126586952521257D+02 -.680037892621901D+02
 0.873374560916695D+01 -.421200156997451D+01 0.691600545055010D+01 0.327203663612383D+01
0.205790635680D-05 0.000000000000D+00 0.000000000000D+00 0.265954617749D-03 0.116057153241D-06  6 1 21 25 -24 2 21 4 0.13663408D+00 0.41030681D-02 0.18761584D+05 0.18761584D+05 0.18761584D+05 0.12368940D+01  1  2  1  5  5  2       -2 0.395107013363D-01 0.100000000000D+01
  </mgrwgt>
  </event>
  <event>
  5     66 -.42750230E-03 0.41918859E+02 0.75467711E-02 0.11713609E+00
        1 -1    0    0  502    0 0.00000000E+00 0.00000000E+00 0.62224119E+03 0.62224127E+03 0.32000000E+00 0.0000E+00 0.9000E+01
       -2 -1    0    0    0  501 0.00000000E+00 0.00000000E+00 -.56069471E+02 0.56070384E+02 0.32000000E+00 0.0000E+00 0.9000E+01
       25  1    1    2    0    0 -.14894906E+02 -.13108255E+03 0.26824748E+03 0.32401574E+03 0.12500000E+03 0.0000E+00 0.9000E+01
      -24  1    1    2    0    0 0.35443351E+02 0.94548973E+02 0.13797757E+03 0.18894646E+03 0.80419002E+02 0.0000E+00 0.9000E+01
       21  1    1    2  502  501 -.20548445E+02 0.36533578E+02 0.15994667E+03 0.16534945E+03 0.75000000E+00 0.0000E+00 0.9000E+01
#aMCatNLO 1  0  0  5  5 0.18360269D+03 0.00000000D+00  -5  6  0 0.00000000D+00 0.00000000D+00 0.00000000D+00 0.00000000D+00 0.00000000D+00
  <mgrwgt>
 -.2870829229D-02    1    2    0
 0.186786166705649D+03 0.000000000000000D+00 0.000000000000000D+00 0.186786166705649D+03
 0.186786166705649D+03 -.000000000000000D+00 -.000000000000000D+00 -.186786166705649D+03
 0.181785173087112D+03 -.148940646399250D+02 -.131084046051347D+03 -.399860771035873D+01
 0.133964630831652D+03 0.354439704657379D+02 0.945478705842457D+02 -.358291987783537D+02
 0.578225294925338D+02 -.205499058258130D+02 0.365361754671016D+02 0.398278064887124D+02
 0.000000000000000D+00 0.000000000000000D+00 0.000000000000000D+00 0.000000000000000D+00
 0.186786166705649D+03 0.000000000000000D+00 0.000000000000000D+00 0.186786166705649D+03
 0.186786166705649D+03 -.000000000000000D+00 -.000000000000000D+00 -.186786166705649D+03
 0.180103014342592D+03 -.162747872839105D+02 -.128629225809364D+03 -.132262686911491D+01
 0.134477935806825D+03 0.344197736468259D+02 0.963688149236409D+02 -.338442012286936D+02
 0.161233377525499D+02 -.123083659671723D+02 -.209572536951481D+01 0.102016705826314D+02
 0.428680455093311D+02 -.583662039574302D+01 0.343561362552379D+02 0.249651575151771D+02
-.544335176483D-05 0.000000000000D+00 0.000000000000D+00 0.109697775498D-04 0.000000000000D+00  6 1 -2 25 -24 21 21 4 0.95729490D-01 0.86261491D-02 0.31107167D+05 0.31107167D+05 0.31107167D+05 0.12132500D+01  1  2 14  3  6  5       21 -.287082922879D-02 0.100000000000D+01
  </mgrwgt>
  </event>
  <event>
  5     66 -.42750230E-03 0.22026851E+02 0.75467711E-02 0.12279824E+00
        1 -1    0    0  502    0 0.00000000E+00 0.00000000E+00 0.20867299E+04 0.20867299E+04 0.32000000E+00 0.0000E+00 0.9000E+01
       -2 -1    0    0    0  501 0.00000000E+00 0.00000000E+00 -.96278330E+01 0.96331494E+01 0.32000000E+00 0.0000E+00 0.9000E+01
       25  1    1    2    0    0 0.50683980E+02 -.15048399E+02 0.12027332E+04 0.12103667E+04 0.12500000E+03 0.0000E+00 0.9000E+01
      -24  1    1    2    0    0 -.34371923E+02 0.29844652E+02 0.37774234E+03 0.38888124E+03 0.80419002E+02 0.0000E+00 0.9000E+01
       21  1    1    2  502  501 -.16312056E+02 -.14796253E+02 0.49662652E+03 0.49711515E+03 0.75000000E+00 0.0000E+00 0.9000E+01
#aMCatNLO 1  0  0  2  5 0.94902264D+01 0.00000000D+00  -5  6  0 0.00000000D+00 0.00000000D+00 0.00000000D+00 0.00000000D+00 0.00000000D+00
  <mgrwgt>
 -.4083126791D+00    9    4    0
 0.141761367130406D+03 0.000000000000000D+00 0.000000000000000D+00 0.141761367130406D+03
 0.141761367130406D+03 0.000000000000000D+00 0.000000000000000D+00 -.141761367130406D+03
 0.138148842437495D+03 0.506855825562555D+02 -.150469448013998D+02 0.257810752277020D+02
 0.108023810093912D+03 -.343706700625809D+02 0.298457885512873D+02 -.559447364640866D+02
 0.373500817294047D+02 -.163149124936747D+02 -.147988437498875D+02 0.301636612363846D+02
 0.000000000000000D+00 -.000000000000000D+00 0.000000000000000D+00 -.000000000000000D+00
 0.146427895972562D+03 0.000000000000000D+00 0.000000000000000D+00 0.146427895972562D+03
 0.146749291861771D+03 0.000000000000000D+00 0.000000000000000D+00 -.146749291861771D+03
 0.139957436971301D+03 0.553240356211420D+02 -.154165951581367D+02 0.257810752277020D+02
 0.106858108548737D+03 -.307867175670259D+02 0.295601740802605D+02 -.559447364640866D+02
 0.368659752738822D+02 -.150770846467002D+02 -.148974894618980D+02 0.301636612363846D+02
 0.949566704041227D+01 -.946023340741592D+01 0.753910539774191D+00 -.321395889209772D+00
 0.141761367130406D+03 0.000000000000000D+00 0.000000000000000D+00 0.141761367130406D+03
 0.141761367130406D+03 0.000000000000000D+00 0.000000000000000D+00 -.141761367130406D+03
 0.138148842437495D+03 0.506855825562555D+02 -.150469448013998D+02 0.257810752277020D+02
 0.108023810093912D+03 -.343706700625809D+02 0.298457885512873D+02 -.559447364640866D+02
 0.000000000000000D+00 -.000000000000000D+00 0.000000000000000D+00 -.000000000000000D+00
 0.373500817294047D+02 -.163149124936747D+02 -.147988437498875D+02 0.301636612363846D+02
 0.146427895972562D+03 0.000000000000000D+00 0.000000000000000D+00 0.146427895972562D+03
 0.146749291861771D+03 0.000000000000000D+00 0.000000000000000D+00 -.146749291861771D+03
 0.139957436971301D+03 0.553240356211420D+02 -.154165951581367D+02 0.257810752277020D+02
 0.106858108548737D+03 -.307867175670259D+02 0.295601740802605D+02 -.559447364640866D+02
 0.949566704041227D+01 -.946023340741592D+01 0.753910539774191D+00 -.321395889209772D+00
 0.368659752738822D+02 -.150770846467002D+02 -.148974894618980D+02 0.301636612363846D+02
0.356759108442D-03 0.000000000000D+00 0.000000000000D+00 0.435993089329D-04 0.000000000000D+00  6 1 -2 25 -24 21 21 2 0.32103578D+00 0.14816159D-02 0.15644664D+05 0.15644664D+05 0.15644664D+05 0.12457445D+01  1  2  2  2  6  2       -2 0.172422031641D+00 0.100000000000D+01
0.466069553250D-04 0.188266953867D-04 -.137004891325D-05 0.435993089329D-04 0.000000000000D+00  6 1 -2 25 -24 21 21 4 0.32103578D+00 0.14816159D-02 0.15644664D+05 0.15644664D+05 0.15644664D+05 0.12457445D+01  1  2  3  2  6  2       -2 0.349563759817D-01 0.100000000000D+01
0.844948465390D-05 0.000000000000D+00 0.000000000000D+00 0.435993089329D-04 0.000000000000D+00  6 1 -2 25 -24 21 21 4 0.32103578D+00 0.14816159D-02 0.15644664D+05 0.15644664D+05 0.15644664D+05 0.12457445D+01  1  2 15  2  6  2       -2 0.633732369672D-02 0.100000000000D+01
-.165477747959D-03 0.000000000000D+00 0.000000000000D+00 0.435993089329D-04 0.000000000000D+00  6 1 -2 25 -24 21 21 4 0.32103578D+00 0.14816159D-02 0.15644664D+05 0.15644664D+05 0.15644664D+05 0.12457445D+01  1  2  4  2  6  2       -2 -.124112427725D+00 0.100000000000D+01
-.532250371227D-02 0.000000000000D+00 -.100723556667D-02 0.435993089329D-04 0.000000000000D+00  6 1 -2 25 -24 21 21 4 0.32103578D+00 0.15960178D-02 0.15644664D+05 0.15644664D+05 0.15644664D+05 0.12457445D+01  1  2  5  2  6  2       -2 -.358663448211D+01 0.100000000000D+01
0.538529691587D-02 0.000000000000D+00 0.100445589273D-02 0.435993089329D-04 0.000000000000D+00  6 1 -2 25 -24 21 21 4 0.32103578D+00 0.14816159D-02 0.15644664D+05 0.15644664D+05 0.15644664D+05 0.12457445D+01  1  2  6  2  6  2       -2 0.403910666233D+01 0.100000000000D+01
0.168410873881D-08 0.000000000000D+00 0.000000000000D+00 0.435993089329D-04 0.286879444413D-05  6 1 -2 25 -24 21 21 4 0.33160370D+00 0.15337471D-02 0.16807999D+05 0.16807999D+05 0.16807999D+05 0.12422271D+01  1  2 11  2  6  2       -2 0.107479482888D-05 0.100000000000D+01
-.647175335596D-04 0.000000000000D+00 -.126068644468D-04 0.435993089329D-04 0.000000000000D+00  6 1 21 25 -24 2 21 4 0.32103578D+00 0.15960178D-02 0.15644664D+05 0.15644664D+05 0.15644664D+05 0.12457445D+01  3  4  5  5  5  2       -2 -.950389363808D+00 0.100000000000D+01
0.901529905863D-11 0.000000000000D+00 0.000000000000D+00 0.435993089329D-04 0.291571202092D-07  6 1 21 25 -24 2 21 4 0.33160370D+00 0.15337471D-02 0.16807999D+05 0.16807999D+05 0.16807999D+05 0.12422271D+01  3  4 11  5  5  2       -2 0.126045409469D-06 0.100000000000D+01
  </mgrwgt>
  </event>
  <event>
  5     66 0.42750230E-03 0.22047112E+02 0.75467711E-02 0.10104679E+00
        1 -1    0    0  502    0 0.00000000E+00 0.00000000E+00 0.31152766E+03 0.31152782E+03 0.32000000E+00 0.0000E+00 0.9000E+01
       -2 -1    0    0    0  501 0.00000000E+00 0.00000000E+00 -.28313376E+03 0.28313395E+03 0.32000000E+00 0.0000E+00 0.9000E+01
       25  1    1    2    0    0 0.21152802E+03 -.45060168E+01 0.13900706E+03 0.28233380E+03 0.12500000E+03 0.0000E+00 0.9000E+01
      -24  1    1    2    0    0 -.20022154E+03 -.14417965E+02 -.15275689E+03 0.26476107E+03 0.80419002E+02 0.0000E+00 0.9000E+01
       21  1    1    2  502  501 -.11306489E+02 0.18923981E+02 0.42143728E+02 0.47566901E+02 0.75000000E+00 0.0000E+00 0.9000E+01
#aMCatNLO 1  0  0  2  1 0.41432857D+03 0.00000000D+00  -5  6  0 0.00000000D+00 0.00000000D+00 0.00000000D+00 0.00000000D+00 0.00000000D+00
  <mgrwgt>
 0.9788738396D+00    3    2    0
 0.296991753265494D+03 0.000000000000000D+00 0.000000000000000D+00 0.296991753265494D+03
 0.296991753265494D+03 0.000000000000000D+00 0.000000000000000D+00 -.296991753265494D+03
 0.276010726419517D+03 0.211528735333300D+03 -.450720609737419D+01 0.125667021609171D+03
 0.272366612122969D+03 -.200220834193332D+03 -.144191381639558D+02 -.165590040324014D+03
 0.456061679885008D+02 -.113079011399685D+02 0.189263442613299D+02 0.399230187148427D+02
 0.000000000000000D+00 -.000000000000000D+00 0.000000000000000D+00 0.000000000000000D+00
 0.590656697803077D+03 0.000000000000000D+00 0.000000000000000D+00 0.590656697803077D+03
 0.549886061004931D+03 0.000000000000000D+00 0.000000000000000D+00 -.549886061004931D+03
 0.419604141750875D+03 0.330730375797483D+03 -.187797374793217D+03 0.125667021609171D+03
 0.264371362942433D+03 -.108244584037122D+03 -.155846238843904D+03 -.165590040324014D+03
 0.402375654075521D+02 0.340241388146504D+01 -.369294278327839D+01 0.399230187148427D+02
 0.416329688707148D+03 -.225888205641826D+03 0.347336556420399D+03 0.407706367981462D+02
0.134404917929D-01 0.000000000000D+00 0.000000000000D+00 0.229751107581D-04 0.000000000000D+00  6 1 -2 25 -24 21 21 2 0.47927359D-01 0.43559067D-01 0.58573447D+05 0.58573447D+05 0.58573447D+05 0.11855343D+01  1  2  2  2  6  2       -2 0.704114068947D+00 0.100000000000D+01
0.383047670074D-02 0.709274238118D-03 -.516150274473D-04 0.229751107581D-04 0.000000000000D+00  6 1 -2 25 -24 21 21 4 0.47927359D-01 0.43559067D-01 0.58573447D+05 0.58573447D+05 0.58573447D+05 0.11855343D+01  1  2  3  2  6  2       -2 0.282038867306D+00 0.100000000000D+01
-.988601694047D-04 0.000000000000D+00 0.000000000000D+00 0.229751107581D-04 0.000000000000D+00  6 1 -2 25 -24 21 21 4 0.47927359D-01 0.43559067D-01 0.58573447D+05 0.58573447D+05 0.58573447D+05 0.11855343D+01  1  2 15  2  6  2       -2 -.727909667097D-02 0.100000000000D+01
  </mgrwgt>
  </event>
  <event>
  5     66 0.42750230E-03 0.39217756E+02 0.75467711E-02 0.11815514E+00
        1 -1    0    0  502    0 0.00000000E+00 0.00000000E+00 0.69687638E+03 0.69687645E+03 0.32000000E+00 0.0000E+00 0.9000E+01
       -2 -1    0    0    0  501 0.00000000E+00 0.00000000E+00 -.57853010E+02 0.57853895E+02 0.32000000E+00 0.0000E+00 0.9000E+01
       25  1    1    2    0    0 -.60936663E+02 0.54096654E+02 0.28925210E+03 0.32547120E+03 0.12500000E+03 0.0000E+00 0.9000E+01
      -24  1    1    2    0    0 0.25714848E+02 -.71342169E+02 0.36926773E+03 0.38545665E+03 0.80419002E+02 0.0000E+00 0.9000E+01
       21  1    1    2  502  501 0.35221816E+02 0.17245515E+02 -.19496461E+02 0.43802495E+02 0.75000000E+00 0.0000E+00 0.9000E+01
#aMCatNLO 1  0  0  1  5 0.28324066D+02 0.00000000D+00  -5  6  0 0.00000000D+00 0.00000000D+00 0.00000000D+00 0.00000000D+00 0.00000000D+00
  <mgrwgt>
 0.1635895308D+00    9    4    0
 0.200790333396981D+03 0.000000000000000D+00 0.000000000000000D+00 0.200790333396981D+03
 0.200790333396981D+03 0.000000000000000D+00 0.000000000000000D+00 -.200790333396981D+03
 0.151412237418937D+03 -.609369541274354D+02 0.540965121317320D+02 0.257083767877449D+02
 0.136822621366207D+03 0.257145850469346D+02 -.713422978725843D+02 0.806365327458542D+02
 0.113345808008818D+03 0.352223690805007D+02 0.172457857408523D+02 -.106344909533599D+03
 0.000000000000000D+00 -.000000000000000D+00 0.000000000000000D+00 0.000000000000000D+00
 0.224967303155584D+03 0.000000000000000D+00 0.000000000000000D+00 0.224967303155584D+03
 0.209759537068501D+03 0.000000000000000D+00 0.000000000000000D+00 -.209759537068501D+03
 0.146612360516135D+03 -.508383136604689D+02 0.512321137882505D+02 0.257083767877449D+02
 0.140280464524502D+03 0.351042946752213D+02 -.740056136716777D+02 0.806365327458542D+02
 0.115685471280009D+03 0.429831531273637D+02 0.150445016134821D+02 -.106344909533599D+03
 0.321485439034379D+02 -.272491341421160D+02 0.772899826994507D+01 0.152077660870829D+02
 0.200790333396981D+03 0.000000000000000D+00 0.000000000000000D+00 0.200790333396981D+03
 0.200790333396981D+03 0.000000000000000D+00 0.000000000000000D+00 -.200790333396981D+03
 0.151412237418937D+03 -.609369541274354D+02 0.540965121317320D+02 0.257083767877449D+02
 0.136822621366207D+03 0.257145850469346D+02 -.713422978725843D+02 0.806365327458542D+02
 0.000000000000000D+00 -.000000000000000D+00 0.000000000000000D+00 0.000000000000000D+00
 0.113345808008818D+03 0.352223690805007D+02 0.172457857408523D+02 -.106344909533599D+03
 0.224967303155584D+03 0.000000000000000D+00 0.000000000000000D+00 0.224967303155584D+03
 0.209759537068501D+03 0.000000000000000D+00 0.000000000000000D+00 -.209759537068501D+03
 0.146612360516135D+03 -.508383136604689D+02 0.512321137882505D+02 0.257083767877449D+02
 0.140280464524502D+03 0.351042946752213D+02 -.740056136716777D+02 0.806365327458542D+02
 0.321485439034379D+02 -.272491341421160D+02 0.772899826994507D+01 0.152077660870829D+02
 0.115685471280009D+03 0.429831531273637D+02 0.150445016134821D+02 -.106344909533599D+03
0.130832007511D-03 0.000000000000D+00 0.000000000000D+00 0.172987743617D-04 0.000000000000D+00  6 1 -2 25 -24 21 21 2 0.10721182D+00 0.89005368D-02 0.22345374D+05 0.22345374D+05 0.22345374D+05 0.12285593D+01  1  2  2  1  6  1        1 0.388533739004D-01 0.100000000000D+01
0.847830652494D-05 0.690419471841D-05 -.502429357702D-06 0.172987743617D-04 0.000000000000D+00  6 1 -2 25 -24 21 21 4 0.10721182D+00 0.89005368D-02 0.22345374D+05 0.22345374D+05 0.22345374D+05 0.12285593D+01  1  2  3  1  6  1        1 0.380028422327D-02 0.100000000000D+01
0.526312802441D-05 0.000000000000D+00 0.000000000000D+00 0.172987743617D-04 0.000000000000D+00  6 1 -2 25 -24 21 21 4 0.10721182D+00 0.89005368D-02 0.22345374D+05 0.22345374D+05 0.22345374D+05 0.12285593D+01  1  2 15  1  6  1        1 0.235912470697D-02 0.100000000000D+01
0.462408654840D-03 0.000000000000D+00 0.000000000000D+00 0.170171009631D-04 0.000000000000D+00  6 1 -2 25 -24 21 21 4 0.12428843D+00 0.89005368D-02 0.27721108D+05 0.27721108D+05 0.27721108D+05 0.12185160D+01  1  2 12  1  6  1        1 0.161575083980D+00 0.100000000000D+01
-.322346979981D-03 0.000000000000D+00 0.000000000000D+00 0.172987743617D-04 0.000000000000D+00  6 1 -2 25 -24 21 21 4 0.10721182D+00 0.89005368D-02 0.22345374D+05 0.22345374D+05 0.22345374D+05 0.12285593D+01  1  2  4  1  6  1        1 -.144487597710D+00 0.100000000000D+01
-.115416678761D-02 0.000000000000D+00 -.262969469003D-03 0.172987743617D-04 0.000000000000D+00  6 1 -2 25 -24 21 21 4 0.12377169D+00 0.89005368D-02 0.22345374D+05 0.22345374D+05 0.22345374D+05 0.12285593D+01  1  2  5  1  6  1        1 -.418749222728D+00 0.100000000000D+01
0.118240943315D-02 0.000000000000D+00 0.260280038085D-03 0.172987743617D-04 0.000000000000D+00  6 1 -2 25 -24 21 21 4 0.10721182D+00 0.89005368D-02 0.22345374D+05 0.22345374D+05 0.22345374D+05 0.12285593D+01  1  2  6  1  6  1        1 0.529998756358D+00 0.100000000000D+01
0.104223177793D-04 0.000000000000D+00 0.000000000000D+00 0.170171009631D-04 0.000000000000D+00  6 21 -2 25 -24 -1 21 4 0.12428843D+00 0.89005368D-02 0.27721108D+05 0.27721108D+05 0.27721108D+05 0.12185160D+01  3  4 12  4  5  1        1 0.701870334176D-02 0.100000000000D+01
-.237277050121D-04 0.000000000000D+00 -.579079972693D-05 0.172987743617D-04 0.000000000000D+00  6 21 -2 25 -24 -1 21 4 0.12377169D+00 0.89005368D-02 0.22345374D+05 0.22345374D+05 0.22345374D+05 0.12285593D+01  3  4  5  4  5  1        1 -.167789752293D-01 0.100000000000D+01
  </mgrwgt>
  </event>
  <event>
  5     66 -.42750230E-03 0.40415715E+02 0.75467711E-02 0.11775170E+00
        3 -1    0    0  502    0 0.00000000E+00 0.00000000E+00 0.62962182E+02 0.62964168E+02 0.50000000E+00 0.0000E+00 0.9000E+01
       -4 -1    0    0    0  501 0.00000000E+00 0.00000000E+00 -.52634483E+03 0.52634711E+03 0.15500000E+01 0.0000E+00 0.9000E+01
       25  1    1    2    0    0 0.81834272E+01 0.10436508E+03 -.35669155E+03 0.39218988E+03 0.12500000E+03 0.0000E+00 0.9000E+01
      -24  1    1    2    0    0 -.35861380E+02 -.74917200E+02 -.10576403E+03 0.15669037E+03 0.80419002E+02 0.0000E+00 0.9000E+01
       21  1    1    2  502  501 0.27677953E+02 -.29447882E+02 -.92707240E+00 0.40431037E+02 0.75000000E+00 0.0000E+00 0.9000E+01
#aMCatNLO 1  0  0  1  5 0.21132648D+02 0.00000000D+00  -5  6  0 0.00000000D+00 0.00000000D+00 0.00000000D+00 0.00000000D+00 0.00000000D+00
  <mgrwgt>
 -.2979561987D-01    9    4    0
 0.182046907825742D+03 0.000000000000000D+00 0.000000000000000D+00 0.182046907825742D+03
 0.182046907825742D+03 0.000000000000000D+00 0.000000000000000D+00 -.182046907825742D+03
 0.180826208304754D+03 0.818249086406668D+01 0.104366077957604D+03 -.781913436697508D+02
 0.119007807120140D+03 -.358619965000941D+02 -.749165444668150D+02 0.282324418595481D+02
 0.642598002265915D+02 0.276795056360274D+02 -.294495334907889D+02 0.499589018102027D+02
 0.000000000000000D+00 -.000000000000000D+00 -.000000000000000D+00 0.000000000000000D+00
 0.341441288631019D+03 0.000000000000000D+00 0.000000000000000D+00 0.341441288631019D+03
 0.183055089315344D+03 0.000000000000000D+00 0.000000000000000D+00 -.183055089315344D+03
 0.187116155703087D+03 0.108335462435405D+02 0.114700495971072D+03 -.781913436697508D+02
 0.114478974068884D+03 -.341797047939562D+02 -.683585880218348D+02 0.282324418595481D+02
 0.631114583257360D+02 0.285972261629530D+02 -.258720497391403D+02 0.499589018102027D+02
 0.159789789848656D+03 -.525106761253733D+01 -.204698582100966D+02 0.158386199315675D+03
 0.182046907825742D+03 0.000000000000000D+00 0.000000000000000D+00 0.182046907825742D+03
 0.182046907825742D+03 0.000000000000000D+00 0.000000000000000D+00 -.182046907825742D+03
 0.180826208304754D+03 0.818249086406668D+01 0.104366077957604D+03 -.781913436697508D+02
 0.119007807120140D+03 -.358619965000941D+02 -.749165444668150D+02 0.282324418595481D+02
 0.000000000000000D+00 -.000000000000000D+00 -.000000000000000D+00 0.000000000000000D+00
 0.642598002265915D+02 0.276795056360274D+02 -.294495334907889D+02 0.499589018102027D+02
 0.341441288631019D+03 0.000000000000000D+00 0.000000000000000D+00 0.341441288631019D+03
 0.183055089315344D+03 0.000000000000000D+00 0.000000000000000D+00 -.183055089315344D+03
 0.187116155703087D+03 0.108335462435405D+02 0.114700495971072D+03 -.781913436697508D+02
 0.114478974068884D+03 -.341797047939562D+02 -.683585880218348D+02 0.282324418595481D+02
 0.159789789848656D+03 -.525106761253733D+01 -.204698582100966D+02 0.158386199315675D+03
 0.631114583257360D+02 0.285972261629530D+02 -.258720497391403D+02 0.499589018102027D+02
0.458646296198D-04 0.000000000000D+00 0.000000000000D+00 0.114200787794D-04 0.000000000000D+00  6 3 -4 25 -24 21 21 2 0.96868179D-02 0.80976456D-01 0.25451884D+05 0.25451884D+05 0.25451884D+05 0.12224644D+01  1  2  2  1  6  1        3 0.148759578610D-02 0.100000000000D+01
0.246939144164D-05 0.242034300020D-05 -.176132254174D-06 0.114200787794D-04 0.000000000000D+00  6 3 -4 25 -24 21 21 4 0.96868179D-02 0.80976456D-01 0.25451884D+05 0.25451884D+05 0.25451884D+05 0.12224644D+01  1  2  3  1  6  1        3 0.119693189806D-03 0.100000000000D+01
0.137163242025D-05 0.000000000000D+00 0.000000000000D+00 0.114200787794D-04 0.000000000000D+00  6 3 -4 25 -24 21 21 4 0.96868179D-02 0.80976456D-01 0.25451884D+05 0.25451884D+05 0.25451884D+05 0.12224644D+01  1  2 15  1  6  1        3 0.664840157995D-04 0.100000000000D+01
0.191596828183D-02 0.000000000000D+00 0.000000000000D+00 0.113076847567D-04 0.000000000000D+00  6 3 -4 25 -24 21 21 4 0.18989354D-01 0.80976456D-01 0.29008098D+05 0.29008098D+05 0.29008098D+05 0.12164339D+01  1  2 12  1  6  1        3 0.291662673472D-01 0.100000000000D+01
-.218482238857D-02 0.000000000000D+00 0.000000000000D+00 0.114200787794D-04 0.000000000000D+00  6 3 -4 25 -24 21 21 4 0.96868179D-02 0.80976456D-01 0.25451884D+05 0.25451884D+05 0.25451884D+05 0.12224644D+01  1  2  4  1  6  1        3 -.105899921915D+00 0.100000000000D+01
-.212869577370D-02 0.000000000000D+00 -.348826976418D-04 0.114200787794D-04 0.000000000000D+00  6 3 -4 25 -24 21 21 4 0.18215682D-01 0.80976456D-01 0.25451884D+05 0.25451884D+05 0.25451884D+05 0.12224644D+01  1  2  5  1  6  1        3 -.352901611722D-01 0.100000000000D+01
0.178811505210D-02 0.000000000000D+00 0.289213510367D-04 0.114200787794D-04 0.000000000000D+00  6 3 -4 25 -24 21 21 4 0.96868179D-02 0.80976456D-01 0.25451884D+05 0.25451884D+05 0.25451884D+05 0.12224644D+01  1  2  6  1  6  1        3 0.866712302944D-01 0.100000000000D+01
0.139704999297D-03 0.000000000000D+00 0.000000000000D+00 0.113076847567D-04 0.000000000000D+00  6 21 -4 25 -24 -3 21 4 0.18989354D-01 0.80976456D-01 0.29008098D+05 0.29008098D+05 0.29008098D+05 0.12164339D+01  3  4 12  4  5  1        3 0.450870312362D-01 0.100000000000D+01
-.144301885085D-03 0.000000000000D+00 -.239690794702D-05 0.114200787794D-04 0.000000000000D+00  6 21 -4 25 -24 -3 21 4 0.18215682D-01 0.80976456D-01 0.25451884D+05 0.25451884D+05 0.25451884D+05 0.12224644D+01  3  4  5  4  5  1        3 -.512038386524D-01 0.100000000000D+01
  </mgrwgt>
  </event>
  <event>
  5     66 0.42750230E-03 0.30027912E+02 0.75467711E-02 0.11765638E+00
        1 -1    0    0  502    0 0.00000000E+00 0.00000000E+00 0.35851497E+04 0.35851497E+04 0.32000000E+00 0.0000E+00 0.9000E+01
       -2 -1    0    0    0  501 0.00000000E+00 0.00000000E+00 -.11583147E+02 0.11587567E+02 0.32000000E+00 0.0000E+00 0.9000E+01
       25  1    1    2    0    0 -.72504239E+02 -.58000542E+02 0.74422075E+03 0.76033575E+03 0.12500000E+03 0.0000E+00 0.9000E+01
      -24  1    1    2    0    0 0.75168280E+02 0.28091558E+02 0.94330195E+03 0.95011851E+03 0.80419002E+02 0.0000E+00 0.9000E+01
       21  1    1    2  502  501 -.26640406E+01 0.29908984E+02 0.18860438E+04 0.18862830E+04 0.75000000E+00 0.0000E+00 0.9000E+01
#aMCatNLO 1  0  0  5  1 0.16872991D+02 0.00000000D+00  -5  6  0 0.00000000D+00 0.00000000D+00 0.00000000D+00 0.00000000D+00 0.00000000D+00
  <mgrwgt>
 0.6996360092D-01   10    2    0
 0.203802086712417D+03 0.000000000000000D+00 0.000000000000000D+00 0.203802086712417D+03
 0.203802086712417D+03 -.000000000000000D+00 -.000000000000000D+00 -.203802086712417D+03
 0.184507036725351D+03 -.725042104953179D+02 -.580008609222462D+02 -.989792210208734D+02
 0.113773082795741D+03 0.751682970069364D+02 0.280913619576685D+02 -.614010772838621D+01
 0.109324053903742D+03 -.266408651161851D+01 0.299094989645777D+02 0.105119328749260D+03
 0.000000000000000D+00 0.000000000000000D+00 0.000000000000000D+00 0.000000000000000D+00
 0.203802086712417D+03 0.000000000000000D+00 0.000000000000000D+00 0.203802086712417D+03
 0.203802086712417D+03 -.000000000000000D+00 -.000000000000000D+00 -.203802086712417D+03
 0.178360442983689D+03 -.727657507586751D+02 -.550645680496374D+02 -.886593846322590D+02
 0.113969338931586D+03 0.750041494426412D+02 0.299342343204518D+02 0.336814736138160D+00
 0.720072509848763D+02 -.322240721759019D+02 0.291933084742928D+02 0.573968998041359D+02
 0.432671405246829D+02 0.299856734919359D+02 -.406297474510722D+01 0.309256700919850D+02
0.202089195224D-02 0.000000000000D+00 0.000000000000D+00 0.271248819047D-04 0.000000000000D+00  6 1 -2 25 -24 21 21 2 0.55156183D+00 0.17823637D-02 0.22402057D+05 0.22402057D+05 0.22402057D+05 0.12284398D+01  1  2  2  3  6  5       21 0.690119574810D-01 0.100000000000D+01
0.249257282003D-03 0.106645398237D-03 -.776075720969D-05 0.271248819047D-04 0.000000000000D+00  6 1 -2 25 -24 21 21 4 0.55156183D+00 0.17823637D-02 0.22402057D+05 0.22402057D+05 0.22402057D+05 0.12284398D+01  1  2  3  3  6  5       21 0.128450806520D-01 0.100000000000D+01
0.873077366133D-04 0.000000000000D+00 0.000000000000D+00 0.271248819047D-04 0.000000000000D+00  6 1 -2 25 -24 21 21 4 0.55156183D+00 0.17823637D-02 0.22402057D+05 0.22402057D+05 0.22402057D+05 0.12284398D+01  1  2 15  3  6  5       21 0.449926641792D-02 0.100000000000D+01
-.905210200884D-03 0.000000000000D+00 0.000000000000D+00 0.271248819047D-04 0.000000000000D+00  6 1 -2 25 -24 21 21 4 0.55156183D+00 0.17823637D-02 0.22402057D+05 0.22402057D+05 0.22402057D+05 0.12284398D+01  1  2  4  3  6  5       21 -.466485791063D-01 0.100000000000D+01
-.146306195758D-02 0.000000000000D+00 0.000000000000D+00 0.271248819047D-04 0.000000000000D+00  6 1 -2 25 -24 21 21 4 0.55156183D+00 0.17823637D-02 0.22402057D+05 0.22402057D+05 0.22402057D+05 0.12284398D+01  1  2  5  3  6  5       21 -.753965889901D-01 0.100000000000D+01
0.226963591006D-02 0.000000000000D+00 -.000000000000D+00 0.271248819047D-04 0.000000000000D+00  6 1 -2 25 -24 21 21 4 0.55156183D+00 0.17823637D-02 0.22402057D+05 0.22402057D+05 0.22402057D+05 0.12284398D+01  1  2  6  3  6  5       21 0.116962104702D+00 0.100000000000D+01
-.548655602299D-04 0.000000000000D+00 0.000000000000D+00 0.271248819047D-04 0.000000000000D+00  6 1 -2 25 -24 1 -1 4 0.55156183D+00 0.17823637D-02 0.22402057D+05 0.22402057D+05 0.22402057D+05 0.12284398D+01  1  2  5  6  6  5       21 -.282741005801D-02 0.100000000000D+01
-.548655602299D-04 0.000000000000D+00 0.000000000000D+00 0.271248819047D-04 0.000000000000D+00  6 1 -2 25 -24 2 -2 4 0.55156183D+00 0.17823637D-02 0.22402057D+05 0.22402057D+05 0.22402057D+05 0.12284398D+01  1  2  5  7  6  5       21 -.282741005801D-02 0.100000000000D+01
-.548655602299D-04 0.000000000000D+00 0.000000000000D+00 0.271248819047D-04 0.000000000000D+00  6 1 -2 25 -24 3 -3 4 0.55156183D+00 0.17823637D-02 0.22402057D+05 0.22402057D+05 0.22402057D+05 0.12284398D+01  1  2  5  8  6  5       21 -.282741005801D-02 0.100000000000D+01
-.548655602299D-04 0.000000000000D+00 0.000000000000D+00 0.271248819047D-04 0.000000000000D+00  6 1 -2 25 -24 4 -4 4 0.55156183D+00 0.17823637D-02 0.22402057D+05 0.22402057D+05 0.22402057D+05 0.12284398D+01  1  2  5  8  6  5       21 -.282741005801D-02 0.100000000000D+01
  </mgrwgt>
  </event>
  <event>
  5     66 -.42750230E-03 0.23591325E+02 0.75467711E-02 0.11668252E+00
        1 -1    0    0  502    0 0.00000000E+00 0.00000000E+00 0.99984114E+03 0.99984119E+03 0.32000000E+00 0.0000E+00 0.9000E+01
       -2 -1    0    0    0  501 0.00000000E+00 0.00000000E+00 -.32903479E+02 0.32905035E+02 0.32000000E+00 0.0000E+00 0.9000E+01
       25  1    1    2    0    0 -.85352525E+02 0.11289839E+03 0.50624374E+03 0.54031364E+03 0.12500000E+03 0.0000E+00 0.9000E+01
      -24  1    1    2    0    0 0.88833740E+02 -.89576030E+02 0.38103521E+03 0.40935357E+03 0.80419002E+02 0.0000E+00 0.9000E+01
       21  1    1    2  502  501 -.34812147E+01 -.23322357E+02 0.79658710E+02 0.83079021E+02 0.75000000E+00 0.0000E+00 0.9000E+01
#aMCatNLO 1  0  0  5  1 0.46266674D+01 0.00000000D+00  -5  6  0 0.00000000D+00 0.00000000D+00 0.00000000D+00 0.00000000D+00 0.00000000D+00
  <mgrwgt>
 -.3829983394D+00   20    2    0
 0.181381041693918D+03 0.000000000000000D+00 0.000000000000000D+00 0.181381041693918D+03
 0.181381041693918D+03 -.000000000000000D+00 -.000000000000000D+00 -.181381041693918D+03
 0.188834097524031D+03 -.853516536943648D+02 0.112904226629387D+03 0.102333209289057D+01
 0.149740624279470D+03 0.888344314746677D+02 -.895713982907403D+02 -.635979544080456D+01
 0.241873615843351D+02 -.348277778030282D+01 -.233328283386470D+02 0.533646334791399D+01
 0.000000000000000D+00 -.000000000000000D+00 0.000000000000000D+00 0.000000000000000D+00
 0.181381041693918D+03 0.000000000000000D+00 0.000000000000000D+00 0.181381041693918D+03
 0.181381041693918D+03 -.000000000000000D+00 -.000000000000000D+00 -.181381041693918D+03
 0.187859936286218D+03 -.856284776838639D+02 0.111049647602402D+03 0.144749383015095D+01
 0.150485531310957D+03 0.886138020123376D+02 -.910495027509533D+02 -.602173739821186D+01
 0.194291954395960D+02 -.257934176078871D-01 -.177508684630495D+02 0.789934420930886D+01
 0.498742035106388D+01 -.295953091086577D+01 -.224927638839886D+01 -.332510064124795D+01
0.320546611629D-03 0.000000000000D+00 0.000000000000D+00 0.322476475801D-04 0.000000000000D+00  6 1 -2 25 -24 21 21 2 0.15382184D+00 0.50621974D-02 0.32766096D+05 0.32766096D+05 0.32766096D+05 0.12108987D+01  1  2  2  3  6  5       21 0.125999118201D+00 0.100000000000D+01
0.942283271306D-04 0.169157094285D-04 -.123098339052D-05 0.322476475801D-04 0.000000000000D+00  6 1 -2 25 -24 21 21 4 0.15382184D+00 0.50621974D-02 0.32766096D+05 0.32766096D+05 0.32766096D+05 0.12108987D+01  1  2  3  3  6  5       21 0.543092065034D-01 0.100000000000D+01
0.146649318256D-05 0.000000000000D+00 0.000000000000D+00 0.322476475801D-04 0.000000000000D+00  6 1 -2 25 -24 21 21 4 0.15382184D+00 0.50621974D-02 0.32766096D+05 0.32766096D+05 0.32766096D+05 0.12108987D+01  1  2 15  3  6  5       21 0.845224398148D-03 0.100000000000D+01
0.126623064319D-04 0.000000000000D+00 0.000000000000D+00 0.322788534653D-04 0.000000000000D+00  6 1 -2 25 -24 21 21 4 0.15382184D+00 0.50621974D-02 0.32343777D+05 0.32343777D+05 0.32343777D+05 0.12114845D+01  1  2 12  3  6  5       21 0.731118461946D-02 0.100000000000D+01
0.130486802854D-04 0.000000000000D+00 0.000000000000D+00 0.322788534653D-04 0.000000000000D+00  6 1 -2 25 -24 21 21 4 0.15382184D+00 0.50621974D-02 0.32343777D+05 0.32343777D+05 0.32343777D+05 0.12114845D+01  1  2 12  3  6  5       21 0.753427593306D-02 0.100000000000D+01
-.126078705577D-02 0.000000000000D+00 0.000000000000D+00 0.322476475801D-04 0.000000000000D+00  6 1 -2 25 -24 21 21 4 0.15382184D+00 0.50621974D-02 0.32766096D+05 0.32766096D+05 0.32766096D+05 0.12108987D+01  1  2  4  3  6  5       21 -.726664121649D+00 0.100000000000D+01
-.527006838027D-03 0.000000000000D+00 0.000000000000D+00 0.322476475801D-04 0.000000000000D+00  6 1 -2 25 -24 21 21 4 0.15382184D+00 0.50621974D-02 0.32766096D+05 0.32766096D+05 0.32766096D+05 0.12108987D+01  1  2  5  3  6  5       21 -.303744362939D+00 0.100000000000D+01
0.797554835151D-03 0.000000000000D+00 -.000000000000D+00 0.322476475801D-04 0.000000000000D+00  6 1 -2 25 -24 21 21 4 0.15382184D+00 0.50621974D-02 0.32766096D+05 0.32766096D+05 0.32766096D+05 0.12108987D+01  1  2  6  3  6  5       21 0.459676740095D+00 0.100000000000D+01
0.116952104675D-05 0.000000000000D+00 0.000000000000D+00 0.322788534653D-04 0.000000000000D+00  6 1 -2 25 -24 1 -1 4 0.15382184D+00 0.50621974D-02 0.32343777D+05 0.32343777D+05 0.32343777D+05 0.12114845D+01  1  2 12  6  6  5       21 0.675278578601D-03 0.100000000000D+01
0.118717108507D-05 0.000000000000D+00 0.000000000000D+00 0.322788534653D-04 0.000000000000D+00  6 1 -2 25 -24 1 -1 4 0.15382184D+00 0.50621974D-02 0.32343777D+05 0.32343777D+05 0.32343777D+05 0.12114845D+01  1  2 12  6  6  5       21 0.685469667356D-03 0.100000000000D+01
-.594622116914D-05 0.000000000000D+00 0.000000000000D+00 0.322476475801D-04 0.000000000000D+00  6 1 -2 25 -24 1 -1 4 0.15382184D+00 0.50621974D-02 0.32766096D+05 0.32766096D+05 0.32766096D+05 0.12108987D+01  1  2  5  6  6  5       21 -.342714938515D-02 0.100000000000D+01
0.116952104675D-05 0.000000000000D+00 0.000000000000D+00 0.322788534653D-04 0.000000000000D+00  6 1 -2 25 -24 2 -2 4 0.15382184D+00 0.50621974D-02 0.32343777D+05 0.32343777D+05 0.32343777D+05 0.12114845D+01  1  2 12  7  6  5       21 0.675278578601D-03 0.100000000000D+01
0.118717108507D-05 0.000000000000D+00 0.000000000000D+00 0.322788534653D-04 0.000000000000D+00  6 1 -2 25 -24 2 -2 4 0.15382184D+00 0.50621974D-02 0.32343777D+05 0.32343777D+05 0.32343777D+05 0.12114845D+01  1  2 12  7  6  5       21 0.685469667356D-03 0.100000000000D+01
-.594622116914D-05 0.000000000000D+00 0.000000000000D+00 0.322476475801D-04 0.000000000000D+00  6 1 -2 25 -24 2 -2 4 0.15382184D+00 0.50621974D-02 0.32766096D+05 0.32766096D+05 0.32766096D+05 0.12108987D+01  1  2  5  7  6  5       21 -.342714938515D-02 0.100000000000D+01
0.116952104675D-05 0.000000000000D+00 0.000000000000D+00 0.322788534653D-04 0.000000000000D+00  6 1 -2 25 -24 3 -3 4 0.15382184D+00 0.50621974D-02 0.32343777D+05 0.32343777D+05 0.32343777D+05 0.12114845D+01  1  2 12  8  6  5       21 0.675278578601D-03 0.100000000000D+01
0.116952104675D-05 0.000000000000D+00 0.000000000000D+00 0.322788534653D-04 0.000000000000D+00  6 1 -2 25 -24 4 -4 4 0.15382184D+00 0.50621974D-02 0.32343777D+05 0.32343777D+05 0.32343777D+05 0.12114845D+01  1  2 12  8  6  5       21 0.675278578601D-03 0.100000000000D+01
0.118717108507D-05 0.000000000000D+00 0.000000000000D+00 0.322788534653D-04 0.000000000000D+00  6 1 -2 25 -24 3 -3 4 0.15382184D+00 0.50621974D-02 0.32343777D+05 0.32343777D+05 0.32343777D+05 0.12114845D+01  1  2 12  8  6  5       21 0.685469667356D-03 0.100000000000D+01
0.118717108507D-05 0.000000000000D+00 0.000000000000D+00 0.322788534653D-04 0.000000000000D+00  6 1 -2 25 -24 4 -4 4 0.15382184D+00 0.50621974D-02 0.32343777D+05 0.32343777D+05 0.32343777D+05 0.12114845D+01  1  2 12  8  6  5       21 0.685469667356D-03 0.100000000000D+01
-.594622116914D-05 0.000000000000D+00 0.000000000000D+00 0.322476475801D-04 0.000000000000D+00  6 1 -2 25 -24 3 -3 4 0.15382184D+00 0.50621974D-02 0.32766096D+05 0.32766096D+05 0.32766096D+05 0.12108987D+01  1  2  5  8  6  5       21 -.342714938515D-02 0.100000000000D+01
-.594622116914D-05 0.000000000000D+00 0.000000000000D+00 0.322476475801D-04 0.000000000000D+00  6 1 -2 25 -24 4 -4 4 0.15382184D+00 0.50621974D-02 0.32766096D+05 0.32766096D+05 0.32766096D+05 0.12108987D+01  1  2  5  8  6  5       21 -.342714938515D-02 0.100000000000D+01
  </mgrwgt>
  </event>
  <event>
  5     66 0.42750230E-03 0.42043423E+02 0.75467711E-02 0.12189934E+00
        3 -1    0    0  502    0 0.00000000E+00 0.00000000E+00 0.51268738E+02 0.51271176E+02 0.50000000E+00 0.0000E+00 0.9000E+01
       -4 -1    0    0    0  501 -.00000000E+00 -.00000000E+00 -.44847895E+03 0.44848163E+03 0.15500000E+01 0.0000E+00 0.9000E+01
       25  1    1    2    0    0 -.42121687E+02 -.48289873E+02 -.11013340E+03 0.17849514E+03 0.12500000E+03 0.0000E+00 0.9000E+01
      -24  1    1    2    0    0 0.25920497E+02 0.44157279E+01 -.24172979E+03 0.25610911E+03 0.80419002E+02 0.0000E+00 0.9000E+01
       21  1    1    2  502  501 0.16201190E+02 0.43874145E+02 -.45347027E+02 0.65148557E+02 0.75000000E+00 0.0000E+00 0.9000E+01
#aMCatNLO 1  0  0  5  2 0.10319432D+01 0.00000000D+00  -5  6  0 0.00000000D+00 0.00000000D+00 0.00000000D+00 0.00000000D+00 0.00000000D+00
  <mgrwgt>
 0.2370951983D-01   13    2    0
 0.151638479403890D+03 0.000000000000000D+00 0.000000000000000D+00 0.151638479403890D+03
 0.151638479403890D+03 -.000000000000000D+00 -.000000000000000D+00 -.151638479403890D+03
 0.149888108256163D+03 -.421226663628407D+02 -.482925245083298D+02 0.522968264018818D+02
 0.105427439782987D+03 0.259198085119740D+02 0.441386278416498D+01 -.629000035520668D+02
 0.479614107686302D+02 0.162028578508667D+02 0.438786617241647D+02 0.106031771501850D+02
 0.000000000000000D+00 0.000000000000000D+00 0.000000000000000D+00 -.000000000000000D+00
 0.151638479403890D+03 0.000000000000000D+00 0.000000000000000D+00 0.151638479403890D+03
 0.151638479403890D+03 -.000000000000000D+00 -.000000000000000D+00 -.151638479403890D+03
 0.149633528758124D+03 -.418453146375161D+02 -.475414333955059D+02 0.524783258326362D+02
 0.105422932841673D+03 0.261150522186248D+02 0.494259867981726D+01 -.627722357454161D+02
 0.470738062933394D+02 0.168038797319254D+02 0.426524316604191D+02 0.106931257521413D+02
 0.114669091464445D+01 -.107361731303414D+01 -.535969447304909D-01 -.399215839361404D+00
0.265816671044D-03 0.000000000000D+00 0.000000000000D+00 0.851318491923D-05 0.000000000000D+00  6 3 -4 25 -24 21 21 2 0.78878918D-02 0.68997155D-01 0.18475824D+05 0.18475824D+05 0.18475824D+05 0.12376342D+01  1  2  2  3  6  5       21 0.171353060982D-01 0.100000000000D+01
0.318866009313D-05 0.140275311156D-04 -.102080600794D-05 0.851318491923D-05 0.000000000000D+00  6 3 -4 25 -24 21 21 4 0.78878918D-02 0.68997155D-01 0.18475824D+05 0.18475824D+05 0.18475824D+05 0.12376342D+01  1  2  3  3  6  5       21 0.314849101908D-03 0.100000000000D+01
0.119392391165D-04 0.000000000000D+00 0.000000000000D+00 0.851318491923D-05 0.000000000000D+00  6 3 -4 25 -24 21 21 4 0.78878918D-02 0.68997155D-01 0.18475824D+05 0.18475824D+05 0.18475824D+05 0.12376342D+01  1  2 15  3  6  5       21 0.117888348194D-02 0.100000000000D+01
-.155271757233D-02 0.000000000000D+00 0.000000000000D+00 0.851318491923D-05 0.000000000000D+00  6 3 -4 25 -24 21 21 4 0.78878918D-02 0.68997155D-01 0.18475824D+05 0.18475824D+05 0.18475824D+05 0.12376342D+01  1  2  4  3  6  5       21 -.153315724752D+00 0.100000000000D+01
0.158436768502D-02 0.000000000000D+00 0.000000000000D+00 0.851318491923D-05 0.220291975617D-04  6 3 -4 25 -24 21 21 4 0.78878918D-02 0.68997155D-01 0.18461310D+05 0.18461310D+05 0.18461310D+05 0.12376721D+01  1  2 11  3  6  5       21 0.156449980905D+00 0.100000000000D+01
0.327129005044D-10 0.000000000000D+00 0.000000000000D+00 0.851370678423D-05 0.000000000000D+00  6 3 -4 25 -24 3 -3 4 0.78878918D-02 0.68997155D-01 0.18461310D+05 0.18461310D+05 0.18461310D+05 0.12376721D+01  1  2 12  6  6  5       21 0.323026826893D-08 0.100000000000D+01
0.530703850205D-05 0.000000000000D+00 0.000000000000D+00 0.851370678423D-05 0.833240165688D-07  6 3 -4 25 -24 3 -3 4 0.78878918D-02 0.68997155D-01 0.18461310D+05 0.18461310D+05 0.18461310D+05 0.12376721D+01  1  2 11  6  6  5       21 0.524048855676D-03 0.100000000000D+01
0.327129005044D-10 0.000000000000D+00 0.000000000000D+00 0.851370678423D-05 0.000000000000D+00  6 3 -4 25 -24 4 -4 4 0.78878918D-02 0.68997155D-01 0.18461310D+05 0.18461310D+05 0.18461310D+05 0.12376721D+01  1  2 12  7  6  5       21 0.323026826893D-08 0.100000000000D+01
0.381605337553D-05 0.000000000000D+00 0.000000000000D+00 0.851370678423D-05 0.943361470363D-07  6 3 -4 25 -24 4 -4 4 0.78878918D-02 0.68997155D-01 0.18461310D+05 0.18461310D+05 0.18461310D+05 0.12376721D+01  1  2 11  7  6  5       21 0.376820029452D-03 0.100000000000D+01
0.327129005044D-10 0.000000000000D+00 0.000000000000D+00 0.851370678423D-05 0.000000000000D+00  6 3 -4 25 -24 1 -1 4 0.78878918D-02 0.68997155D-01 0.18461310D+05 0.18461310D+05 0.18461310D+05 0.12376721D+01  1  2 12  8  6  5       21 0.323026826893D-08 0.100000000000D+01
0.327129005044D-10 0.000000000000D+00 0.000000000000D+00 0.851370678423D-05 0.000000000000D+00  6 3 -4 25 -24 2 -2 4 0.78878918D-02 0.68997155D-01 0.18461310D+05 0.18461310D+05 0.18461310D+05 0.12376721D+01  1  2 12  8  6  5       21 0.323026826893D-08 0.100000000000D+01
0.529309100967D-05 0.000000000000D+00 0.000000000000D+00 0.851370678423D-05 0.829640069032D-07  6 3 -4 25 -24 1 -1 4 0.78878918D-02 0.68997155D-01 0.18461310D+05 0.18461310D+05 0.18461310D+05 0.12376721D+01  1  2 11  8  6  5       21 0.522671596510D-03 0.100000000000D+01
0.529309100967D-05 0.000000000000D+00 0.000000000000D+00 0.851370678423D-05 0.829640069032D-07  6 3 -4 25 -24 2 -2 4 0.78878918D-02 0.68997155D-01 0.18461310D+05 0.18461310D+05 0.18461310D+05 0.12376721D+01  1  2 11  8  6  5       21 0.522671596510D-03 0.100000000000D+01
  </mgrwgt>
  </event>
  <event>
  5     66 0.42750230E-03 0.45030884E+02 0.75467711E-02 0.11452169E+00
        1 -1    0    0  502    0 0.00000000E+00 0.00000000E+00 0.28112958E+03 0.28112976E+03 0.32000000E+00 0.0000E+00 0.9000E+01
       -2 -1    0    0    0  501 0.00000000E+00 0.00000000E+00 -.86470807E+02 0.86471399E+02 0.32000000E+00 0.0000E+00 0.9000E+01
       25  1    1    2    0    0 -.50550113E+02 0.39311279E+02 0.13366237E+02 0.14108277E+03 0.12500000E+03 0.0000E+00 0.9000E+01
      -24  1    1    2    0    0 0.34140175E+02 0.26202004E+01 0.94410521E+02 0.12865838E+03 0.80419002E+02 0.0000E+00 0.9000E+01
       21  1    1    2  502  501 0.16409938E+02 -.41931480E+02 0.86882015E+02 0.97860013E+02 0.75000000E+00 0.0000E+00 0.9000E+01
#aMCatNLO 1  0  0  2  2 0.28357049D+02 0.00000000D+00  -5  6  0 0.00000000D+00 0.00000000D+00 0.00000000D+00 0.00000000D+00 0.00000000D+00
  <mgrwgt>
 0.1693515851D+00    3    2    0
 0.155915502523032D+03 0.000000000000000D+00 0.000000000000000D+00 0.155915502523032D+03
 0.155915502523032D+03 0.000000000000000D+00 0.000000000000000D+00 -.155915502523032D+03
 0.157972568446161D+03 -.505507383860185D+02 0.393128783199742D+02 -.723149557719863D+02
 0.927329349320201D+02 0.341398073662196D+02 0.262113909164382D+01 0.309803881446861D+02
 0.611255016678827D+02 0.164109310197989D+02 -.419340174116180D+02 0.413345676273002D+02
 0.000000000000000D+00 -.000000000000000D+00 0.000000000000000D+00 0.000000000000000D+00
 0.480975598452904D+03 0.000000000000000D+00 0.000000000000000D+00 0.480975598452904D+03
 0.176347028858902D+03 0.000000000000000D+00 0.000000000000000D+00 -.176347028858902D+03
 0.145778074175542D+03 -.193909240388112D+02 -.455918270597280D+01 -.723149557719863D+02
 0.105191945596854D+03 0.544436410593513D+02 -.259660347894350D+02 0.309803881446861D+02
 0.810686386687523D+02 0.309977084366566D+02 -.624717517470488D+02 0.413345676273002D+02
 0.325283968870658D+03 -.660504254571967D+02 0.929969692424566D+02 0.304628569594002D+03
0.310431083351D-03 0.000000000000D+00 0.000000000000D+00 0.104679891476D-04 0.000000000000D+00  6 1 -2 25 -24 21 21 2 0.43250764D-01 0.13303261D-01 0.18616503D+05 0.18616503D+05 0.18616503D+05 0.12372682D+01  1  2  2  2  6  2       -2 0.160056175773D+00 0.100000000000D+01
0.210408528074D-05 0.163818983357D-04 -.119213709845D-05 0.104679891476D-04 0.000000000000D+00  6 1 -2 25 -24 21 21 4 0.43250764D-01 0.13303261D-01 0.18616503D+05 0.18616503D+05 0.18616503D+05 0.12372682D+01  1  2  3  2  6  2       -2 0.166072707776D-02 0.100000000000D+01
0.967288531849D-05 0.000000000000D+00 0.000000000000D+00 0.104679891476D-04 0.000000000000D+00  6 1 -2 25 -24 21 21 4 0.43250764D-01 0.13303261D-01 0.18616503D+05 0.18616503D+05 0.18616503D+05 0.12372682D+01  1  2 15  2  6  2       -2 0.763468226102D-02 0.100000000000D+01
  </mgrwgt>
  </event>
  <event>
  5     66 0.42750230E-03 0.23324029E+02 0.75467711E-02 0.11763199E+00
        1 -1    0    0  502    0 0.00000000E+00 0.00000000E+00 0.10511215E+03 0.10511263E+03 0.32000000E+00 0.0000E+00 0.9000E+01
       -2 -1    0    0    0  501 0.00000000E+00 0.00000000E+00 -.26414044E+03 0.26414063E+03 0.32000000E+00 0.0000E+00 0.9000E+01
       25  1    1    2    0    0 -.92883309E+02 0.37822310E+02 -.46832193E+02 0.16696134E+03 0.12500000E+03 0.0000E+00 0.9000E+01
      -24  1    1    2    0    0 0.11417926E+03 -.28335214E+02 -.10748876E+03 0.17849604E+03 0.80419002E+02 0.0000E+00 0.9000E+01
       21  1    1    2  502  501 -.21295947E+02 -.94870964E+01 -.47073420E+01 0.23795881E+02 0.75000000E+00 0.0000E+00 0.9000E+01
#aMCatNLO 1  0  0  2  5 0.16429633D+02 0.00000000D+00  -5  6  0 0.00000000D+00 0.00000000D+00 0.00000000D+00 0.00000000D+00 0.00000000D+00
  <mgrwgt>
 0.1140961467D+00    9    4    0
 0.166626810150999D+03 0.000000000000000D+00 0.000000000000000D+00 0.166626810150999D+03
 0.166626810150999D+03 0.000000000000000D+00 0.000000000000000D+00 -.166626810150999D+03
 0.162646431054347D+03 -.928782805396034D+02 0.378245503957944D+02 0.277811073587656D+02
 0.146487946805861D+03 0.114183785046654D+03 -.283331963954443D+02 -.339233816041835D+02
 0.241192424417895D+02 -.213055045070502D+02 -.949135400035016D+01 0.614227424541786D+01
 0.000000000000000D+00 0.000000000000000D+00 0.000000000000000D+00 -.000000000000000D+00
 0.168260590004013D+03 0.000000000000000D+00 0.000000000000000D+00 0.168260590004013D+03
 0.213973927859984D+03 0.000000000000000D+00 0.000000000000000D+00 -.213973927859984D+03
 0.161736535177416D+03 -.941580042923629D+02 0.299363844309170D+02 0.277811073587656D+02
 0.147143200976755D+03 0.113025380341460D+03 -.354735566094016D+02 -.339233816041835D+02
 0.247786344432395D+02 -.214984115984311D+02 -.106804255865680D+02 0.614227424541786D+01
 0.485761472665864D+02 0.263103554933376D+01 0.162175977650526D+02 -.457133378559714D+02
 0.166626810150999D+03 0.000000000000000D+00 0.000000000000000D+00 0.166626810150999D+03
 0.166626810150999D+03 0.000000000000000D+00 0.000000000000000D+00 -.166626810150999D+03
 0.162646431054347D+03 -.928782805396034D+02 0.378245503957944D+02 0.277811073587656D+02
 0.146487946805861D+03 0.114183785046654D+03 -.283331963954443D+02 -.339233816041835D+02
 0.000000000000000D+00 0.000000000000000D+00 0.000000000000000D+00 -.000000000000000D+00
 0.241192424417895D+02 -.213055045070502D+02 -.949135400035016D+01 0.614227424541786D+01
 0.168260590004013D+03 0.000000000000000D+00 0.000000000000000D+00 0.168260590004013D+03
 0.213973927859984D+03 0.000000000000000D+00 0.000000000000000D+00 -.213973927859984D+03
 0.161736535177416D+03 -.941580042923629D+02 0.299363844309170D+02 0.277811073587656D+02
 0.147143200976755D+03 0.113025380341460D+03 -.354735566094016D+02 -.339233816041835D+02
 0.485761472665864D+02 0.263103554933376D+01 0.162175977650526D+02 -.457133378559714D+02
 0.247786344432395D+02 -.214984115984311D+02 -.106804255865680D+02 0.614227424541786D+01
0.120530674801D-03 0.000000000000D+00 0.000000000000D+00 0.335854469943D-04 0.000000000000D+00  6 1 -2 25 -24 21 21 2 0.16171152D-01 0.40637043D-01 0.26583047D+05 0.26583047D+05 0.26583047D+05 0.12204491D+01  1  2  2  2  6  2       -2 0.300964154849D-01 0.100000000000D+01
0.311530081285D-04 0.636057845630D-05 -.462869527693D-06 0.335854469943D-04 0.000000000000D+00  6 1 -2 25 -24 21 21 4 0.16171152D-01 0.40637043D-01 0.26583047D+05 0.26583047D+05 0.26583047D+05 0.12204491D+01  1  2  3  2  6  2       -2 0.115866140924D-01 0.100000000000D+01
0.186683663746D-05 0.000000000000D+00 0.000000000000D+00 0.335854469943D-04 0.000000000000D+00  6 1 -2 25 -24 21 21 4 0.16171152D-01 0.40637043D-01 0.26583047D+05 0.26583047D+05 0.26583047D+05 0.12204491D+01  1  2 15  2  6  2       -2 0.694325106667D-03 0.100000000000D+01
0.120168752375D-02 0.000000000000D+00 0.000000000000D+00 0.333309017546D-04 0.000000000000D+00  6 1 -2 25 -24 21 21 4 0.16171152D-01 0.54482165D-01 0.29403158D+05 0.29403158D+05 0.29403158D+05 0.12158154D+01  1  2 12  2  6  2       -2 0.248074753876D+00 0.100000000000D+01
-.999876467890D-03 0.000000000000D+00 0.000000000000D+00 0.335854469943D-04 0.000000000000D+00  6 1 -2 25 -24 21 21 4 0.16171152D-01 0.40637043D-01 0.26583047D+05 0.26583047D+05 0.26583047D+05 0.12204491D+01  1  2  4  2  6  2       -2 -.371880067752D+00 0.100000000000D+01
-.165031481253D-02 0.000000000000D+00 -.107118151277D-03 0.335854469943D-04 0.000000000000D+00  6 1 -2 25 -24 21 21 4 0.16171152D-01 0.52457144D-01 0.26583047D+05 0.26583047D+05 0.26583047D+05 0.12204491D+01  1  2  5  2  6  2       -2 -.372755703818D+00 0.100000000000D+01
0.162772123814D-02 0.000000000000D+00 0.103719201027D-03 0.335854469943D-04 0.000000000000D+00  6 1 -2 25 -24 21 21 4 0.16171152D-01 0.40637043D-01 0.26583047D+05 0.26583047D+05 0.26583047D+05 0.12204491D+01  1  2  6  2  6  2       -2 0.605391869656D+00 0.100000000000D+01
0.456869819927D-04 0.000000000000D+00 0.000000000000D+00 0.333309017546D-04 0.000000000000D+00  6 1 21 25 -24 2 21 4 0.16171152D-01 0.54482165D-01 0.29403158D+05 0.29403158D+05 0.29403158D+05 0.12158154D+01  3  4 12  5  5  2       -2 0.115251402877D+00 0.100000000000D+01
-.548664299714D-04 0.000000000000D+00 -.368185099915D-05 0.335854469943D-04 0.000000000000D+00  6 1 21 25 -24 2 21 4 0.16171152D-01 0.52457144D-01 0.26583047D+05 0.26583047D+05 0.26583047D+05 0.12204491D+01  3  4  5  5  5  2       -2 -.152363462796D+00 0.100000000000D+01
  </mgrwgt>
  </event>
  <event>
  5     66 0.42750230E-03 0.95285693E+02 0.75467711E-02 0.11590196E+00
        1 -1    0    0  502    0 0.00000000E+00 0.00000000E+00 0.49394178E+03 0.49394188E+03 0.32000000E+00 0.0000E+00 0.9000E+01
       -2 -1    0    0    0  501 0.00000000E+00 0.00000000E+00 -.21170917E+03 0.21170941E+03 0.32000000E+00 0.0000E+00 0.9000E+01
       25  1    1    2    0    0 0.65768476E+02 0.52829192E+02 -.98636445E+02 0.18019591E+03 0.12500000E+03 0.0000E+00 0.9000E+01
      -24  1    1    2    0    0 0.19508323E+02 0.33065061E+02 -.32404404E+02 0.94821592E+02 0.80419002E+02 0.0000E+00 0.9000E+01
       21  1    1    2  502  501 -.85276799E+02 -.85894253E+02 0.41327346E+03 0.43063380E+03 0.75000000E+00 0.0000E+00 0.9000E+01
#aMCatNLO 1  0  0  5  2 0.28240460D+02 0.00000000D+00  -5  6  0 0.00000000D+00 0.00000000D+00 0.00000000D+00 0.00000000D+00 0.00000000D+00
  <mgrwgt>
 0.4677258949D-01   15    2    0
 0.323376138218491D+03 0.000000000000000D+00 0.000000000000000D+00 0.323376138218491D+03
 0.323376138218491D+03 -.000000000000000D+00 -.000000000000000D+00 -.323376138218491D+03
 0.239649862494621D+03 0.657685820769030D+02 0.528292992076070D+02 -.186254168679569D+03
 0.117597795026239D+03 0.195083746526643D+02 0.330651134821759D+02 -.767342624222389D+02
 0.289504618916123D+03 -.852769567295673D+02 -.858944126897829D+02 0.262988431101808D+03
 0.000000000000000D+00 0.000000000000000D+00 0.000000000000000D+00 0.000000000000000D+00
 0.323376138218491D+03 0.000000000000000D+00 0.000000000000000D+00 0.323376138218491D+03
 0.323376138218491D+03 -.000000000000000D+00 -.000000000000000D+00 -.323376138218491D+03
 0.236603883891927D+03 0.647132418014271D+02 0.517663176399446D+02 -.182999569852759D+03
 0.116328209591538D+03 0.189900133042710D+02 0.325429988888687D+02 -.751356706925869D+02
 0.239918826769942D+03 -.948679004161904D+02 -.574825748665417D+02 0.212736641169315D+03
 0.539013561835762D+02 0.111646453104924D+02 -.268267416622717D+02 0.453985993760313D+02
0.230898927066D-03 0.000000000000D+00 0.000000000000D+00 0.744849290342D-05 0.000000000000D+00  6 1 -2 25 -24 21 21 2 0.75991070D-01 0.32570668D-01 0.32571713D+05 0.32571713D+05 0.32571713D+05 0.12111673D+01  1  2  2  3  6  5       21 0.121420649508D-01 0.100000000000D+01
-.967064296938D-05 0.121848711417D-04 -.886712677016D-06 0.744849290342D-05 0.000000000000D+00  6 1 -2 25 -24 21 21 4 0.75991070D-01 0.32570668D-01 0.32571713D+05 0.32571713D+05 0.32571713D+05 0.12111673D+01  1  2  3  3  6  5       21 -.745992159774D-03 0.100000000000D+01
0.105817885327D-04 0.000000000000D+00 0.000000000000D+00 0.744849290342D-05 0.000000000000D+00  6 1 -2 25 -24 21 21 4 0.75991070D-01 0.32570668D-01 0.32571713D+05 0.32571713D+05 0.32571713D+05 0.12111673D+01  1  2 15  3  6  5       21 0.816277811806D-03 0.100000000000D+01
0.896570818937D-03 0.000000000000D+00 0.000000000000D+00 0.739538465719D-05 0.000000000000D+00  6 1 -2 25 -24 21 21 4 0.75991070D-01 0.32570668D-01 0.35865673D+05 0.35865673D+05 0.35865673D+05 0.12068417D+01  1  2 12  3  6  5       21 0.681439331927D-01 0.100000000000D+01
-.706037432356D-03 0.000000000000D+00 0.000000000000D+00 0.744849290342D-05 0.000000000000D+00  6 1 -2 25 -24 21 21 4 0.75991070D-01 0.32570668D-01 0.32571713D+05 0.32571713D+05 0.32571713D+05 0.12111673D+01  1  2  4  3  6  5       21 -.544636370831D-01 0.100000000000D+01
-.166849679203D-02 0.000000000000D+00 0.000000000000D+00 0.744849290342D-05 0.000000000000D+00  6 1 -2 25 -24 21 21 4 0.75991070D-01 0.32570668D-01 0.32571713D+05 0.32571713D+05 0.32571713D+05 0.12111673D+01  1  2  5  3  6  5       21 -.128707628790D+00 0.100000000000D+01
0.198823438222D-02 0.000000000000D+00 -.000000000000D+00 0.744849290342D-05 0.000000000000D+00  6 1 -2 25 -24 21 21 4 0.75991070D-01 0.32570668D-01 0.32571713D+05 0.32571713D+05 0.32571713D+05 0.12111673D+01  1  2  6  3  6  5       21 0.153372145536D+00 0.100000000000D+01
0.110944408045D-04 0.000000000000D+00 0.000000000000D+00 0.739538465719D-05 0.000000000000D+00  6 1 -2 25 -24 1 -1 4 0.75991070D-01 0.32570668D-01 0.35865673D+05 0.35865673D+05 0.35865673D+05 0.12068417D+01  1  2 12  6  6  5       21 0.843233816029D-03 0.100000000000D+01
-.231965294218D-04 0.000000000000D+00 0.000000000000D+00 0.744849290342D-05 0.000000000000D+00  6 1 -2 25 -24 1 -1 4 0.75991070D-01 0.32570668D-01 0.32571713D+05 0.32571713D+05 0.32571713D+05 0.12111673D+01  1  2  5  6  6  5       21 -.178937730794D-02 0.100000000000D+01
0.110944408045D-04 0.000000000000D+00 0.000000000000D+00 0.739538465719D-05 0.000000000000D+00  6 1 -2 25 -24 2 -2 4 0.75991070D-01 0.32570668D-01 0.35865673D+05 0.35865673D+05 0.35865673D+05 0.12068417D+01  1  2 12  7  6  5       21 0.843233816029D-03 0.100000000000D+01
-.231965294218D-04 0.000000000000D+00 0.000000000000D+00 0.744849290342D-05 0.000000000000D+00  6 1 -2 25 -24 2 -2 4 0.75991070D-01 0.32570668D-01 0.32571713D+05 0.32571713D+05 0.32571713D+05 0.12111673D+01  1  2  5  7  6  5       21 -.178937730794D-02 0.100000000000D+01
0.110944408045D-04 0.000000000000D+00 0.000000000000D+00 0.739538465719D-05 0.000000000000D+00  6 1 -2 25 -24 3 -3 4 0.75991070D-01 0.32570668D-01 0.35865673D+05 0.35865673D+05 0.35865673D+05 0.12068417D+01  1  2 12  8  6  5       21 0.843233816029D-03 0.100000000000D+01
0.110944408045D-04 0.000000000000D+00 0.000000000000D+00 0.739538465719D-05 0.000000000000D+00  6 1 -2 25 -24 4 -4 4 0.75991070D-01 0.32570668D-01 0.35865673D+05 0.35865673D+05 0.35865673D+05 0.12068417D+01  1  2 12  8  6  5       21 0.843233816029D-03 0.100000000000D+01
-.231965294218D-04 0.000000000000D+00 0.000000000000D+00 0.744849290342D-05 0.000000000000D+00  6 1 -2 25 -24 3 -3 4 0.75991070D-01 0.32570668D-01 0.32571713D+05 0.32571713D+05 0.32571713D+05 0.12111673D+01  1  2  5  8  6  5       21 -.178937730794D-02 0.100000000000D+01
-.231965294218D-04 0.000000000000D+00 0.000000000000D+00 0.744849290342D-05 0.000000000000D+00  6 1 -2 25 -24 4 -4 4 0.75991070D-01 0.32570668D-01 0.32571713D+05 0.32571713D+05 0.32571713D+05 0.12111673D+01  1  2  5  8  6  5       21 -.178937730794D-02 0.100000000000D+01
  </mgrwgt>
  </event>
  <event>
  5     66 0.42750230E-03 0.48902752E+02 0.75467711E-02 0.11873382E+00
        1 -1    0    0  502    0 0.00000000E+00 0.00000000E+00 0.42196777E+03 0.42196790E+03 0.32000000E+00 0.0000E+00 0.9000E+01
       -2 -1    0    0    0  501 0.00000000E+00 0.00000000E+00 -.73587084E+02 0.73587780E+02 0.32000000E+00 0.0000E+00 0.9000E+01
       25  1    1    2    0    0 0.74501508E+02 -.24400040E+02 0.63455600E+02 0.16061585E+03 0.12500000E+03 0.0000E+00 0.9000E+01
      -24  1    1    2    0    0 -.64611442E+02 0.72287420E+02 0.22197738E+03 0.25522790E+03 0.80419002E+02 0.0000E+00 0.9000E+01
       21  1    1    2  502  501 -.98900660E+01 -.47887380E+02 0.62947712E+02 0.79711928E+02 0.75000000E+00 0.0000E+00 0.9000E+01
#aMCatNLO 1  0  0  1  5 0.40947808D+00 0.00000000D+00  -5  6  0 0.00000000D+00 0.00000000D+00 0.00000000D+00 0.00000000D+00 0.00000000D+00
  <mgrwgt>
 0.6915917193D-02    1    2    0
 0.176214586995661D+03 0.000000000000000D+00 0.000000000000000D+00 0.176214586995661D+03
 0.176214586995661D+03 0.000000000000000D+00 0.000000000000000D+00 -.176214586995661D+03
 0.163117641848205D+03 0.745020259728414D+02 -.243975320428070D+02 -.695454789204980D+02
 0.139452861822093D+03 -.646109992077524D+02 0.722895644251611D+02 0.598291097426465D+02
 0.498586703210230D+02 -.989102676508900D+01 -.478920323823541D+02 0.971636917785147D+01
 0.000000000000000D+00 0.000000000000000D+00 -.000000000000000D+00 -.000000000000000D+00
 0.182749231634338D+03 0.000000000000000D+00 0.000000000000000D+00 0.182749231634338D+03
 0.229854559609737D+03 0.000000000000000D+00 0.000000000000000D+00 -.229854559609737D+03
 0.158509882877896D+03 0.675175025685297D+02 -.102565188339582D+02 -.695454789204980D+02
 0.149310175347530D+03 -.708818312614734D+02 0.849856230921560D+02 0.598291097426465D+02
 0.463081702433373D+02 -.119794038379546D+02 -.436638601703148D+02 0.971636917785147D+01
 0.584755627753120D+02 0.153437325308983D+02 -.310652440878830D+02 -.471053279753995D+02
0.117517068393D-04 0.000000000000D+00 0.000000000000D+00 0.690864967323D-05 0.000000000000D+00  6 1 -2 25 -24 21 21 4 0.64918182D-01 0.11321153D-01 0.25988441D+05 0.25988441D+05 0.25988441D+05 0.12214963D+01  1  2 14  1  6  1        1 0.691591719278D-02 0.100000000000D+01
  </mgrwgt>
  </event>
  <event>
  5     66 -.42750230E-03 0.22902023E+02 0.75467711E-02 0.12437058E+00
        1 -1    0    0  502    0 0.00000000E+00 0.00000000E+00 0.32684238E+03 0.32684254E+03 0.32000000E+00 0.0000E+00 0.9000E+01
       -2 -1    0    0    0  501 0.00000000E+00 0.00000000E+00 -.48847535E+02 0.48848583E+02 0.32000000E+00 0.0000E+00 0.9000E+01
       25  1    1    2    0    0 -.22309850E+02 -.38899944E+02 0.16103455E+03 0.20872963E+03 0.12500000E+03 0.0000E+00 0.9000E+01
      -24  1    1    2    0    0 0.57488010E+01 0.23089964E+02 0.53460125E+02 0.99455498E+02 0.80419002E+02 0.0000E+00 0.9000E+01
       21  1    1    2  502  501 0.16561049E+02 0.15809981E+02 0.63500177E+02 0.67505991E+02 0.75000000E+00 0.0000E+00 0.9000E+01
#aMCatNLO 1  0  0  5  1 0.24971791D+01 0.00000000D+00  -5  6  0 0.00000000D+00 0.00000000D+00 0.00000000D+00 0.00000000D+00 0.00000000D+00
  <mgrwgt>
 -.1311156198D+01   25    2    0
 0.126355336348812D+03 0.000000000000000D+00 0.000000000000000D+00 0.126355336348812D+03
 0.126355336348812D+03 -.000000000000000D+00 -.000000000000000D+00 -.126355336348812D+03
 0.133161508757810D+03 -.223124890999756D+02 -.389024633383870D+02 0.978460990664743D+01
 0.890463041097756D+02 0.574703633573455D+01 0.230882788892884D+02 -.299321110603027D+02
 0.305028598300381D+02 0.165654527642411D+02 0.158141844490986D+02 0.201475011536553D+02
 0.000000000000000D+00 0.000000000000000D+00 0.000000000000000D+00 0.000000000000000D+00
 0.126355336348812D+03 0.000000000000000D+00 0.000000000000000D+00 0.126355336348812D+03
 0.126355336348812D+03 -.000000000000000D+00 -.000000000000000D+00 -.126355336348812D+03
 0.133115313790522D+03 -.221825434477375D+02 -.387784109178405D+02 0.994265449592854D+01
 0.890380382479558D+02 0.583394320881350D+01 0.231712444043470D+02 -.298264117866071D+02
 0.198886654162376D+02 0.115675100229236D+02 0.116843964745701D+02 0.111904692901443D+02
 0.106686552429087D+02 0.478109021600041D+01 0.392277003892337D+01 0.869328800053434D+01
0.946720649065D-04 0.000000000000D+00 0.000000000000D+00 0.475747537271D-04 0.000000000000D+00  6 1 -2 25 -24 21 21 2 0.50283536D-01 0.75150980D-02 0.14348256D+05 0.14348256D+05 0.14348256D+05 0.12500279D+01  1  2  2  3  6  5       21 0.100597676968D+00 0.100000000000D+01
0.126310529033D-04 0.499598212197D-05 -.363565656968D-06 0.475747537271D-04 0.000000000000D+00  6 1 -2 25 -24 21 21 4 0.50283536D-01 0.75150980D-02 0.14348256D+05 0.14348256D+05 0.14348256D+05 0.12500279D+01  1  2  3  3  6  5       21 0.209722511722D-01 0.100000000000D+01
0.170654649587D-05 0.000000000000D+00 0.000000000000D+00 0.475747537271D-04 0.000000000000D+00  6 1 -2 25 -24 21 21 4 0.50283536D-01 0.75150980D-02 0.14348256D+05 0.14348256D+05 0.14348256D+05 0.12500279D+01  1  2 15  3  6  5       21 0.283350264009D-02 0.100000000000D+01
0.256635631573D-05 0.000000000000D+00 0.000000000000D+00 0.475844105159D-04 0.000000000000D+00  6 1 -2 25 -24 21 21 4 0.50283536D-01 0.75150980D-02 0.14311744D+05 0.14311744D+05 0.14311744D+05 0.12501547D+01  1  2 12  3  6  5       21 0.426245958466D-02 0.100000000000D+01
0.259511279205D-05 0.000000000000D+00 0.000000000000D+00 0.475844105159D-04 0.000000000000D+00  6 1 -2 25 -24 21 21 4 0.50283536D-01 0.75150980D-02 0.14311744D+05 0.14311744D+05 0.14311744D+05 0.12501547D+01  1  2 12  3  6  5       21 0.431022119803D-02 0.100000000000D+01
-.313655915278D-02 0.000000000000D+00 0.000000000000D+00 0.475747537271D-04 0.000000000000D+00  6 1 -2 25 -24 21 21 4 0.50283536D-01 0.75150980D-02 0.14348256D+05 0.14348256D+05 0.14348256D+05 0.12500279D+01  1  2  4  3  6  5       21 -.520785613616D+01 0.100000000000D+01
-.111535934889D-02 0.000000000000D+00 0.000000000000D+00 0.475747537271D-04 0.000000000000D+00  6 1 -2 25 -24 21 21 4 0.50283536D-01 0.75150980D-02 0.14348256D+05 0.14348256D+05 0.14348256D+05 0.12500279D+01  1  2  5  3  6  5       21 -.185191183913D+01 0.100000000000D+01
0.181166674005D-02 0.000000000000D+00 -.000000000000D+00 0.475747537271D-04 0.000000000000D+00  6 1 -2 25 -24 21 21 4 0.50283536D-01 0.75150980D-02 0.14348256D+05 0.14348256D+05 0.14348256D+05 0.12500279D+01  1  2  6  3  6  5       21 0.300804138844D+01 0.100000000000D+01
0.155542913170D-02 0.000000000000D+00 0.000000000000D+00 0.475747537271D-04 0.650112847818D-04  6 1 -2 25 -24 21 21 4 0.50283536D-01 0.75150980D-02 0.14311744D+05 0.14311744D+05 0.14311744D+05 0.12501547D+01  1  2 11  3  6  5       21 0.258341126291D+01 0.100000000000D+01
0.478004025713D-07 0.000000000000D+00 0.000000000000D+00 0.475844105159D-04 0.000000000000D+00  6 1 -2 25 -24 1 -1 4 0.50283536D-01 0.75150980D-02 0.14311744D+05 0.14311744D+05 0.14311744D+05 0.12501547D+01  1  2 12  6  6  5       21 0.793916584543D-04 0.100000000000D+01
0.483081697921D-07 0.000000000000D+00 0.000000000000D+00 0.475844105159D-04 0.000000000000D+00  6 1 -2 25 -24 1 -1 4 0.50283536D-01 0.75150980D-02 0.14311744D+05 0.14311744D+05 0.14311744D+05 0.12501547D+01  1  2 12  6  6  5       21 0.802350087108D-04 0.100000000000D+01
-.560066304320D-05 0.000000000000D+00 0.000000000000D+00 0.475747537271D-04 0.000000000000D+00  6 1 -2 25 -24 1 -1 4 0.50283536D-01 0.75150980D-02 0.14348256D+05 0.14348256D+05 0.14348256D+05 0.12500279D+01  1  2  5  6  6  5       21 -.929918613851D-02 0.100000000000D+01
0.903475499272D-05 0.000000000000D+00 0.000000000000D+00 0.475747537271D-04 0.582121508910D-06  6 1 -2 25 -24 1 -1 4 0.50283536D-01 0.75150980D-02 0.14311744D+05 0.14311744D+05 0.14311744D+05 0.12501547D+01  1  2 11  6  6  5       21 0.150058188638D-01 0.100000000000D+01
0.478004025713D-07 0.000000000000D+00 0.000000000000D+00 0.475844105159D-04 0.000000000000D+00  6 1 -2 25 -24 2 -2 4 0.50283536D-01 0.75150980D-02 0.14311744D+05 0.14311744D+05 0.14311744D+05 0.12501547D+01  1  2 12  7  6  5       21 0.793916584543D-04 0.100000000000D+01
0.483081697921D-07 0.000000000000D+00 0.000000000000D+00 0.475844105159D-04 0.000000000000D+00  6 1 -2 25 -24 2 -2 4 0.50283536D-01 0.75150980D-02 0.14311744D+05 0.14311744D+05 0.14311744D+05 0.12501547D+01  1  2 12  7  6  5       21 0.802350087108D-04 0.100000000000D+01
-.560066304320D-05 0.000000000000D+00 0.000000000000D+00 0.475747537271D-04 0.000000000000D+00  6 1 -2 25 -24 2 -2 4 0.50283536D-01 0.75150980D-02 0.14348256D+05 0.14348256D+05 0.14348256D+05 0.12500279D+01  1  2  5  7  6  5       21 -.929918613851D-02 0.100000000000D+01
0.924052778838D-05 0.000000000000D+00 0.000000000000D+00 0.475747537271D-04 0.594797459084D-06  6 1 -2 25 -24 2 -2 4 0.50283536D-01 0.75150980D-02 0.14311744D+05 0.14311744D+05 0.14311744D+05 0.12501547D+01  1  2 11  7  6  5       21 0.153475867702D-01 0.100000000000D+01
0.478004025713D-07 0.000000000000D+00 0.000000000000D+00 0.475844105159D-04 0.000000000000D+00  6 1 -2 25 -24 3 -3 4 0.50283536D-01 0.75150980D-02 0.14311744D+05 0.14311744D+05 0.14311744D+05 0.12501547D+01  1  2 12  8  6  5       21 0.793916584543D-04 0.100000000000D+01
0.478004025713D-07 0.000000000000D+00 0.000000000000D+00 0.475844105159D-04 0.000000000000D+00  6 1 -2 25 -24 4 -4 4 0.50283536D-01 0.75150980D-02 0.14311744D+05 0.14311744D+05 0.14311744D+05 0.12501547D+01  1  2 12  8  6  5       21 0.793916584543D-04 0.100000000000D+01
0.483081697921D-07 0.000000000000D+00 0.000000000000D+00 0.475844105159D-04 0.000000000000D+00  6 1 -2 25 -24 3 -3 4 0.50283536D-01 0.75150980D-02 0.14311744D+05 0.14311744D+05 0.14311744D+05 0.12501547D+01  1  2 12  8  6  5       21 0.802350087108D-04 0.100000000000D+01
0.483081697921D-07 0.000000000000D+00 0.000000000000D+00 0.475844105159D-04 0.000000000000D+00  6 1 -2 25 -24 4 -4 4 0.50283536D-01 0.75150980D-02 0.14311744D+05 0.14311744D+05 0.14311744D+05 0.12501547D+01  1  2 12  8  6  5       21 0.802350087108D-04 0.100000000000D+01
-.560066304320D-05 0.000000000000D+00 0.000000000000D+00 0.475747537271D-04 0.000000000000D+00  6 1 -2 25 -24 3 -3 4 0.50283536D-01 0.75150980D-02 0.14348256D+05 0.14348256D+05 0.14348256D+05 0.12500279D+01  1  2  5  8  6  5       21 -.929918613851D-02 0.100000000000D+01
-.560066304320D-05 0.000000000000D+00 0.000000000000D+00 0.475747537271D-04 0.000000000000D+00  6 1 -2 25 -24 4 -4 4 0.50283536D-01 0.75150980D-02 0.14348256D+05 0.14348256D+05 0.14348256D+05 0.12500279D+01  1  2  5  8  6  5       21 -.929918613851D-02 0.100000000000D+01
0.914800964283D-05 0.000000000000D+00 0.000000000000D+00 0.475747537271D-04 0.588593869661D-06  6 1 -2 25 -24 3 -3 4 0.50283536D-01 0.75150980D-02 0.14311744D+05 0.14311744D+05 0.14311744D+05 0.12501547D+01  1  2 11  8  6  5       21 0.151939234407D-01 0.100000000000D+01
0.914800964283D-05 0.000000000000D+00 0.000000000000D+00 0.475747537271D-04 0.588593869661D-06  6 1 -2 25 -24 4 -4 4 0.50283536D-01 0.75150980D-02 0.14311744D+05 0.14311744D+05 0.14311744D+05 0.12501547D+01  1  2 11  8  6  5       21 0.151939234407D-01 0.100000000000D+01
  </mgrwgt>
  </event>
  <event>
  5     66 0.42750230E-03 0.32354364E+02 0.75467711E-02 0.11876343E+00
        1 -1    0    0  502    0 0.00000000E+00 0.00000000E+00 0.19733014E+03 0.19733040E+03 0.32000000E+00 0.0000E+00 0.9000E+01
       -2 -1    0    0    0  501 0.00000000E+00 0.00000000E+00 -.15859245E+03 0.15859277E+03 0.32000000E+00 0.0000E+00 0.9000E+01
       25  1    1    2    0    0 -.50465151E+02 0.71134226E+02 0.89191177E+02 0.17659806E+03 0.12500000E+03 0.0000E+00 0.9000E+01
      -24  1    1    2    0    0 0.82026590E+02 -.78218807E+02 -.47359835E+02 0.14682205E+03 0.80419002E+02 0.0000E+00 0.9000E+01
       21  1    1    2  502  501 -.31561439E+02 0.70845812E+01 -.30936515E+01 0.32503060E+02 0.75000000E+00 0.0000E+00 0.9000E+01
#aMCatNLO 1  0  0  5  2 0.45200347D+01 0.00000000D+00  -5  6  0 0.00000000D+00 0.00000000D+00 0.00000000D+00 0.00000000D+00 0.00000000D+00
  <mgrwgt>
 0.2636818052D+00   25    2    0
 0.176904418670897D+03 0.000000000000000D+00 0.000000000000000D+00 0.176904418670897D+03
 0.176904418670897D+03 -.000000000000000D+00 -.000000000000000D+00 -.176904418670897D+03
 0.167886881555794D+03 -.504612904630681D+02 0.711333595917082D+02 0.703896889929758D+02
 0.152886738882056D+03 0.820301062565949D+02 -.782195967008661D+02 -.637173079398761D+02
 0.330352169039435D+02 -.315688157935268D+02 0.708623710915784D+01 -.667238105309966D+01
 0.000000000000000D+00 0.000000000000000D+00 0.000000000000000D+00 -.000000000000000D+00
 0.176904418670897D+03 0.000000000000000D+00 0.000000000000000D+00 0.176904418670897D+03
 0.176904418670897D+03 -.000000000000000D+00 -.000000000000000D+00 -.176904418670897D+03
 0.168397863853902D+03 -.520994438404126D+02 0.715010751034004D+02 0.700434490950793D+02
 0.152055618206287D+03 0.805446319406218D+02 -.778861529856695D+02 -.640312776099959D+02
 0.285772906386242D+02 -.272612158758248D+02 0.837437189505780D+01 -.183236038467911D+01
 0.477806464297977D+01 -.118397222438444D+01 -.198929401278863D+01 -.417981110040428D+01
0.292157941388D-03 0.000000000000D+00 0.000000000000D+00 0.150733628302D-04 0.000000000000D+00  6 1 -2 25 -24 21 21 2 0.30358528D-01 0.24398883D-01 0.26203354D+05 0.26203354D+05 0.26203354D+05 0.12211147D+01  1  2  2  3  6  5       21 0.830505904401D-01 0.100000000000D+01
0.440294069847D-04 0.154175981417D-04 -.112196342188D-05 0.150733628302D-04 0.000000000000D+00  6 1 -2 25 -24 21 21 4 0.30358528D-01 0.24398883D-01 0.26203354D+05 0.26203354D+05 0.26203354D+05 0.12211147D+01  1  2  3  3  6  5       21 0.186629722255D-01 0.100000000000D+01
0.173755988583D-05 0.000000000000D+00 0.000000000000D+00 0.150733628302D-04 0.000000000000D+00  6 1 -2 25 -24 21 21 4 0.30358528D-01 0.24398883D-01 0.26203354D+05 0.26203354D+05 0.26203354D+05 0.12211147D+01  1  2 15  3  6  5       21 0.736508486264D-03 0.100000000000D+01
0.152423801219D-04 0.000000000000D+00 0.000000000000D+00 0.150865451147D-04 0.000000000000D+00  6 1 -2 25 -24 21 21 4 0.30358528D-01 0.24398883D-01 0.25903199D+05 0.25903199D+05 0.25903199D+05 0.12216486D+01  1  2 12  3  6  5       21 0.647082041715D-02 0.100000000000D+01
0.146260138061D-04 0.000000000000D+00 0.000000000000D+00 0.150865451147D-04 0.000000000000D+00  6 1 -2 25 -24 21 21 4 0.30358528D-01 0.24398883D-01 0.25903199D+05 0.25903199D+05 0.25903199D+05 0.12216486D+01  1  2 12  3  6  5       21 0.620915552565D-02 0.100000000000D+01
-.103408389335D-02 0.000000000000D+00 0.000000000000D+00 0.150733628302D-04 0.000000000000D+00  6 1 -2 25 -24 21 21 4 0.30358528D-01 0.24398883D-01 0.26203354D+05 0.26203354D+05 0.26203354D+05 0.12211147D+01  1  2  4  3  6  5       21 -.438322482680D+00 0.100000000000D+01
-.745749978638D-03 0.000000000000D+00 0.000000000000D+00 0.150733628302D-04 0.000000000000D+00  6 1 -2 25 -24 21 21 4 0.30358528D-01 0.24398883D-01 0.26203354D+05 0.26203354D+05 0.26203354D+05 0.12211147D+01  1  2  5  3  6  5       21 -.316104896514D+00 0.100000000000D+01
0.962604716288D-03 0.000000000000D+00 -.000000000000D+00 0.150733628302D-04 0.000000000000D+00  6 1 -2 25 -24 21 21 4 0.30358528D-01 0.24398883D-01 0.26203354D+05 0.26203354D+05 0.26203354D+05 0.12211147D+01  1  2  6  3  6  5       21 0.408024234586D+00 0.100000000000D+01
0.116066971020D-02 0.000000000000D+00 0.000000000000D+00 0.150733628302D-04 0.158311202139D-04  6 1 -2 25 -24 21 21 4 0.30358528D-01 0.24398883D-01 0.25903199D+05 0.25903199D+05 0.25903199D+05 0.12216486D+01  1  2 11  3  6  5       21 0.492737039642D+00 0.100000000000D+01
0.101898486269D-05 0.000000000000D+00 0.000000000000D+00 0.150865451147D-04 0.000000000000D+00  6 1 -2 25 -24 1 -1 4 0.30358528D-01 0.24398883D-01 0.25903199D+05 0.25903199D+05 0.25903199D+05 0.12216486D+01  1  2 12  6  6  5       21 0.432587824310D-03 0.100000000000D+01
0.100384002327D-05 0.000000000000D+00 0.000000000000D+00 0.150865451147D-04 0.000000000000D+00  6 1 -2 25 -24 1 -1 4 0.30358528D-01 0.24398883D-01 0.25903199D+05 0.25903199D+05 0.25903199D+05 0.12216486D+01  1  2 12  6  6  5       21 0.426158412676D-03 0.100000000000D+01
-.626449840185D-05 0.000000000000D+00 0.000000000000D+00 0.150733628302D-04 0.000000000000D+00  6 1 -2 25 -24 1 -1 4 0.30358528D-01 0.24398883D-01 0.26203354D+05 0.26203354D+05 0.26203354D+05 0.12211147D+01  1  2  5  6  6  5       21 -.265536530440D-02 0.100000000000D+01
0.631754266327D-05 0.000000000000D+00 0.000000000000D+00 0.150733628302D-04 0.790822410536D-07  6 1 -2 25 -24 1 -1 4 0.30358528D-01 0.24398883D-01 0.25903199D+05 0.25903199D+05 0.25903199D+05 0.12216486D+01  1  2 11  6  6  5       21 0.268197510657D-02 0.100000000000D+01
0.101898486269D-05 0.000000000000D+00 0.000000000000D+00 0.150865451147D-04 0.000000000000D+00  6 1 -2 25 -24 2 -2 4 0.30358528D-01 0.24398883D-01 0.25903199D+05 0.25903199D+05 0.25903199D+05 0.12216486D+01  1  2 12  7  6  5       21 0.432587824310D-03 0.100000000000D+01
0.100384002327D-05 0.000000000000D+00 0.000000000000D+00 0.150865451147D-04 0.000000000000D+00  6 1 -2 25 -24 2 -2 4 0.30358528D-01 0.24398883D-01 0.25903199D+05 0.25903199D+05 0.25903199D+05 0.12216486D+01  1  2 12  7  6  5       21 0.426158412676D-03 0.100000000000D+01
-.626449840185D-05 0.000000000000D+00 0.000000000000D+00 0.150733628302D-04 0.000000000000D+00  6 1 -2 25 -24 2 -2 4 0.30358528D-01 0.24398883D-01 0.26203354D+05 0.26203354D+05 0.26203354D+05 0.12211147D+01  1  2  5  7  6  5       21 -.265536530440D-02 0.100000000000D+01
0.325683065162D-05 0.000000000000D+00 0.000000000000D+00 0.150733628302D-04 0.856457159006D-07  6 1 -2 25 -24 2 -2 4 0.30358528D-01 0.24398883D-01 0.25903199D+05 0.25903199D+05 0.25903199D+05 0.12216486D+01  1  2 11  7  6  5       21 0.138261650131D-02 0.100000000000D+01
0.101898486269D-05 0.000000000000D+00 0.000000000000D+00 0.150865451147D-04 0.000000000000D+00  6 1 -2 25 -24 3 -3 4 0.30358528D-01 0.24398883D-01 0.25903199D+05 0.25903199D+05 0.25903199D+05 0.12216486D+01  1  2 12  8  6  5       21 0.432587824310D-03 0.100000000000D+01
0.101898486269D-05 0.000000000000D+00 0.000000000000D+00 0.150865451147D-04 0.000000000000D+00  6 1 -2 25 -24 4 -4 4 0.30358528D-01 0.24398883D-01 0.25903199D+05 0.25903199D+05 0.25903199D+05 0.12216486D+01  1  2 12  8  6  5       21 0.432587824310D-03 0.100000000000D+01
0.100384002327D-05 0.000000000000D+00 0.000000000000D+00 0.150865451147D-04 0.000000000000D+00  6 1 -2 25 -24 3 -3 4 0.30358528D-01 0.24398883D-01 0.25903199D+05 0.25903199D+05 0.25903199D+05 0.12216486D+01  1  2 12  8  6  5       21 0.426158412676D-03 0.100000000000D+01
0.100384002327D-05 0.000000000000D+00 0.000000000000D+00 0.150865451147D-04 0.000000000000D+00  6 1 -2 25 -24 4 -4 4 0.30358528D-01 0.24398883D-01 0.25903199D+05 0.25903199D+05 0.25903199D+05 0.12216486D+01  1  2 12  8  6  5       21 0.426158412676D-03 0.100000000000D+01
-.626449840185D-05 0.000000000000D+00 0.000000000000D+00 0.150733628302D-04 0.000000000000D+00  6 1 -2 25 -24 3 -3 4 0.30358528D-01 0.24398883D-01 0.26203354D+05 0.26203354D+05 0.26203354D+05 0.12211147D+01  1  2  5  8  6  5       21 -.265536530440D-02 0.100000000000D+01
-.626449840185D-05 0.000000000000D+00 0.000000000000D+00 0.150733628302D-04 0.000000000000D+00  6 1 -2 25 -24 4 -4 4 0.30358528D-01 0.24398883D-01 0.26203354D+05 0.26203354D+05 0.26203354D+05 0.12211147D+01  1  2  5  8  6  5       21 -.265536530440D-02 0.100000000000D+01
0.628903754938D-05 0.000000000000D+00 0.000000000000D+00 0.150733628302D-04 0.784856310273D-07  6 1 -2 25 -24 3 -3 4 0.30358528D-01 0.24398883D-01 0.25903199D+05 0.25903199D+05 0.25903199D+05 0.12216486D+01  1  2 11  8  6  5       21 0.266987388146D-02 0.100000000000D+01
0.628903754938D-05 0.000000000000D+00 0.000000000000D+00 0.150733628302D-04 0.784856310273D-07  6 1 -2 25 -24 4 -4 4 0.30358528D-01 0.24398883D-01 0.25903199D+05 0.25903199D+05 0.25903199D+05 0.12216486D+01  1  2 11  8  6  5       21 0.266987388146D-02 0.100000000000D+01
  </mgrwgt>
  </event>
  <event>
  6     66 0.42750230E-03 0.17758539E+02 0.75467711E-02 0.12078509E+00
        1 -1    0    0  502    0 0.00000000E+00 0.00000000E+00 0.95602686E+03 0.95602691E+03 0.32000000E+00 0.0000E+00 0.9000E+01
       -2 -1    0    0    0  503 0.00000000E+00 0.00000000E+00 -.27820327E+02 0.27822167E+02 0.32000000E+00 0.0000E+00 0.9000E+01
       25  1    1    2    0    0 -.73480618E+02 0.81501941E+01 0.30992795E+03 0.34226621E+03 0.12500000E+03 0.0000E+00 0.9000E+01
      -24  1    1    2    0    0 0.72146537E+02 0.24171589E+02 0.50299125E+03 0.51503087E+03 0.80419002E+02 0.0000E+00 0.9000E+01
       21  1    1    2  502  501 0.11914507E+01 -.22586368E+02 0.11454438E+03 0.11675847E+03 0.75000000E+00 0.0000E+00 0.9000E+01
       21  1    1    2  501  503 0.14263101E+00 -.97354153E+01 0.74296000E+00 0.97935256E+01 0.75000000E+00 0.0000E+00 0.9000E+01
#aMCatNLO 2  0  0  2  5 0.97364600D+01 0.00000000D+00  -5  6  0 0.00000000D+00 0.00000000D+00 0.00000000D+00 0.00000000D+00 0.00000000D+00
  <mgrwgt>
 0.8031485900D-01    2    2    0
 0.148745374989296D+03 0.000000000000000D+00 0.000000000000000D+00 0.148745374989296D+03
 0.148745374989296D+03 0.000000000000000D+00 0.000000000000000D+00 -.148745374989296D+03
 0.154122121949604D+03 -.734069536206387D+02 0.310940787493651D+01 -.522530306973017D+02
 0.117440844720797D+03 0.722027953267001D+02 0.203218823858555D+02 0.412178783741939D+02
 0.259277833081916D+02 0.120415829393856D+01 -.234312902607920D+02 0.110351523231078D+02
 0.000000000000000D+00 0.000000000000000D+00 -.000000000000000D+00 -.000000000000000D+00
 0.149644965661806D+03 0.000000000000000D+00 0.000000000000000D+00 0.149644965661806D+03
 0.177728923255861D+03 0.000000000000000D+00 0.000000000000000D+00 -.177728923255861D+03
 0.154341595176478D+03 -.734808798096934D+02 0.815531035338267D+01 -.522530306973017D+02
 0.118134145260587D+03 0.721463375967337D+02 0.241754585434725D+02 0.412178783741939D+02
 0.251742973195663D+02 0.119191120663515D+01 -.225953536466068D+02 0.110351523231078D+02
 0.297238511610358D+02 0.142631006324483D+00 -.973541525024840D+01 -.280839575940549D+02
-.705545624143D-03 0.000000000000D+00 0.000000000000D+00 0.340779509527D-04 0.000000000000D+00  6 1 -2 25 -24 21 21 4 0.14619243D+00 0.43706966D-02 0.20779327D+05 0.20779327D+05 0.20779327D+05 0.12320025D+01  1  2 13  2  6  2       -2 -.588161569467D+00 0.100000000000D+01
0.784926737137D-03 0.000000000000D+00 0.000000000000D+00 0.342624872705D-04 0.181394724167D-05  6 1 -2 25 -24 21 21 4 0.14707658D+00 0.42800614D-02 0.20779327D+05 0.20779327D+05 0.20779327D+05 0.12320025D+01  1  2  1  2  6  2       -2 0.668476428466D+00 0.100000000000D+01
  </mgrwgt>
  </event>
  <event>
  5     66 0.42750230E-03 0.20027505E+02 0.75467711E-02 0.11761205E+00
        1 -1    0    0  502    0 0.00000000E+00 0.00000000E+00 0.17562057E+04 0.17562058E+04 0.32000000E+00 0.0000E+00 0.9000E+01
       -2 -1    0    0    0  501 0.00000000E+00 0.00000000E+00 -.31800204E+02 0.31801814E+02 0.32000000E+00 0.0000E+00 0.9000E+01
       25  1    1    2    0    0 -.27602271E+02 0.56181725E+02 0.13068278E+04 0.13142839E+04 0.12500000E+03 0.0000E+00 0.9000E+01
      -24  1    1    2    0    0 0.39737263E+02 -.40251772E+02 0.59157240E+02 0.11474341E+03 0.80419002E+02 0.0000E+00 0.9000E+01
       21  1    1    2  502  501 -.12134993E+02 -.15929953E+02 0.35842049E+03 0.35898026E+03 0.75000000E+00 0.0000E+00 0.9000E+01
#aMCatNLO 1  0  0  1  5 0.75735333D+02 0.00000000D+00  -5  6  0 0.00000000D+00 0.00000000D+00 0.00000000D+00 0.00000000D+00 0.00000000D+00
  <mgrwgt>
 0.8769209316D-01    4    2    0
 0.236324282045686D+03 0.000000000000000D+00 0.000000000000000D+00 0.236324282045686D+03
 0.236324282045686D+03 0.000000000000000D+00 0.000000000000000D+00 -.236324282045686D+03
 0.204058142661213D+03 -.276016891489232D+02 0.561824879749967D+02 0.148648580172868D+03
 0.218242485530298D+03 0.397378850532202D+02 -.402509559819041D+02 -.194841801393108D+03
 0.503479358998608D+02 -.121361959042970D+02 -.159315319930926D+02 0.461932212202405D+02
 0.000000000000000D+00 -.000000000000000D+00 -.000000000000000D+00 -.000000000000000D+00
 0.247866947461917D+03 0.000000000000000D+00 0.000000000000000D+00 0.247866947461917D+03
 0.407486014501641D+03 0.000000000000000D+00 0.000000000000000D+00 -.407486014501641D+03
 0.206355352759730D+03 0.214920205001898D+01 0.696886802553410D+02 0.148648580172868D+03
 0.224158314649797D+03 0.718075372925635D+02 -.256921017071876D+02 -.194841801393108D+03
 0.481642052360693D+02 -.499504673301087D+01 -.126896212494763D+02 0.461932212202405D+02
 0.176675089317963D+03 -.689616926095716D+02 -.313069572986771D+02 -.159619067039724D+03
0.644486091122D-03 0.000000000000D+00 0.000000000000D+00 0.161794343178D-04 0.000000000000D+00  6 1 -2 25 -24 21 21 2 0.27018563D+00 0.48924651D-02 0.16659462D+05 0.16659462D+05 0.16659462D+05 0.12426608D+01  1  2  2  1  6  1        1 0.873749105783D-01 0.100000000000D+01
0.574963881500D-04 0.340104654133D-04 -.247499628699D-05 0.161794343178D-04 0.000000000000D+00  6 1 -2 25 -24 21 21 4 0.27018563D+00 0.48924651D-02 0.16659462D+05 0.16659462D+05 0.16659462D+05 0.12426608D+01  1  2  3  1  6  1        1 0.120370186191D-01 0.100000000000D+01
0.558676969690D-05 0.000000000000D+00 0.000000000000D+00 0.161794343178D-04 0.000000000000D+00  6 1 -2 25 -24 21 21 4 0.27018563D+00 0.48924651D-02 0.16659462D+05 0.16659462D+05 0.16659462D+05 0.12426608D+01  1  2 15  1  6  1        1 0.116960478781D-02 0.100000000000D+01
-.615680938997D-04 0.000000000000D+00 0.000000000000D+00 0.161794343178D-04 0.000000000000D+00  6 1 -2 25 -24 21 21 4 0.27018563D+00 0.48924651D-02 0.16659462D+05 0.16659462D+05 0.16659462D+05 0.12426608D+01  1  2  4  1  6  1        1 -.128894408233D-01 0.100000000000D+01
  </mgrwgt>
  </event>
  <event>
  5     66 0.42750230E-03 0.56452123E+02 0.75467711E-02 0.11372649E+00
        1 -1    0    0  502    0 0.00000000E+00 0.00000000E+00 0.35174814E+04 0.35174814E+04 0.32000000E+00 0.0000E+00 0.9000E+01
       -2 -1    0    0    0  501 0.00000000E+00 0.00000000E+00 -.47978631E+02 0.47979698E+02 0.32000000E+00 0.0000E+00 0.9000E+01
       25  1    1    2    0    0 0.46938011E+02 0.11595506E+03 0.22271101E+04 0.22341202E+04 0.12500000E+03 0.0000E+00 0.9000E+01
      -24  1    1    2    0    0 -.85153680E+02 -.15750496E+03 0.12576372E+04 0.12728619E+04 0.80419002E+02 0.0000E+00 0.9000E+01
       21  1    1    2  502  501 0.38215669E+02 0.41549897E+02 -.15244526E+02 0.58478965E+02 0.75000000E+00 0.0000E+00 0.9000E+01
#aMCatNLO 1  0  0  5  1 0.29581979D+01 0.00000000D+00  -5  6  0 0.00000000D+00 0.00000000D+00 0.00000000D+00 0.00000000D+00 0.00000000D+00
  <mgrwgt>
 0.1468150443D+00   20    2    0
 0.410811232136023D+03 0.000000000000000D+00 0.000000000000000D+00 0.410811232136023D+03
 0.410811232136023D+03 -.000000000000000D+00 -.000000000000000D+00 -.410811232136023D+03
 0.290527936291444D+03 0.469379735255674D+02 0.115955017555765D+03 0.230505406250527D+03
 0.212949481784691D+03 -.851537077171934D+02 -.157504985692104D+03 0.825911095829498D+02
 0.318145046195911D+03 0.382157341916260D+02 0.415499681363389D+02 -.313096515833477D+03
 0.000000000000000D+00 0.000000000000000D+00 0.000000000000000D+00 0.000000000000000D+00
 0.410811232136023D+03 0.000000000000000D+00 0.000000000000000D+00 0.410811232136023D+03
 0.410811232136023D+03 -.000000000000000D+00 -.000000000000000D+00 -.410811232136023D+03
 0.290417972779760D+03 0.469565999427318D+02 0.115975269084515D+03 0.230352802448979D+03
 0.212889680245010D+03 -.851400543671086D+02 -.157490141118973D+03 0.824792494700558D+02
 0.307789917012755D+03 0.388132680418379D+02 0.378833247183345D+02 -.302973624176951D+03
 0.105248942345216D+02 -.629813617461043D+00 0.363154731612329D+01 -.985842774208362D+01
0.633484884831D-02 0.000000000000D+00 0.000000000000D+00 0.114211456894D-04 0.000000000000D+00  6 1 -2 25 -24 21 21 2 0.54115106D+00 0.73814111D-02 0.46134067D+05 0.46134067D+05 0.46134067D+05 0.11957585D+01  1  2  2  3  6  5       21 0.267038675237D-01 0.100000000000D+01
0.847063437627D-03 0.334299158076D-03 -.243274875815D-04 0.114211456894D-04 0.000000000000D+00  6 1 -2 25 -24 21 21 4 0.54115106D+00 0.73814111D-02 0.46134067D+05 0.46134067D+05 0.46134067D+05 0.11957585D+01  1  2  3  3  6  5       21 0.510552937374D-02 0.100000000000D+01
0.178479718654D-03 0.000000000000D+00 0.000000000000D+00 0.114211456894D-04 0.000000000000D+00  6 1 -2 25 -24 21 21 4 0.54115106D+00 0.73814111D-02 0.46134067D+05 0.46134067D+05 0.46134067D+05 0.11957585D+01  1  2 15  3  6  5       21 0.107575584747D-02 0.100000000000D+01
0.117264562625D-02 0.000000000000D+00 0.000000000000D+00 0.114154816764D-04 0.000000000000D+00  6 1 -2 25 -24 21 21 4 0.54115106D+00 0.73814111D-02 0.46450495D+05 0.46450495D+05 0.46450495D+05 0.11954619D+01  1  2 12  3  6  5       21 0.705815404514D-02 0.100000000000D+01
-.665343863718D+00 0.000000000000D+00 0.000000000000D+00 0.114211456894D-04 0.000000000000D+00  6 1 -2 25 -24 21 21 4 0.54115106D+00 0.73814111D-02 0.46134067D+05 0.46134067D+05 0.46134067D+05 0.11957585D+01  1  2  4  3  6  5       21 -.401024585522D+01 0.100000000000D+01
-.147741691779D+01 0.000000000000D+00 0.000000000000D+00 0.114211456894D-04 0.000000000000D+00  6 1 -2 25 -24 21 21 4 0.54115106D+00 0.73814111D-02 0.46134067D+05 0.46134067D+05 0.46134067D+05 0.11957585D+01  1  2  5  3  6  5       21 -.890487670225D+01 0.100000000000D+01
0.152604409158D+01 0.000000000000D+00 -.000000000000D+00 0.114211456894D-04 0.000000000000D+00  6 1 -2 25 -24 21 21 4 0.54115106D+00 0.73814111D-02 0.46134067D+05 0.46134067D+05 0.46134067D+05 0.11957585D+01  1  2  6  3  6  5       21 0.919796863977D+01 0.100000000000D+01
0.636324490443D+00 0.000000000000D+00 0.000000000000D+00 0.114211456894D-04 0.616260186244D-05  6 1 -2 25 -24 21 21 4 0.54115106D+00 0.73814111D-02 0.46450495D+05 0.46450495D+05 0.46450495D+05 0.11954619D+01  1  2 11  3  6  5       21 0.383003711925D+01 0.100000000000D+01
0.288730143245D-04 0.000000000000D+00 0.000000000000D+00 0.114154816764D-04 0.000000000000D+00  6 1 -2 25 -24 1 -1 4 0.54115106D+00 0.73814111D-02 0.46450495D+05 0.46450495D+05 0.46450495D+05 0.11954619D+01  1  2 12  6  6  5       21 0.173786673730D-03 0.100000000000D+01
-.407600515532D-02 0.000000000000D+00 0.000000000000D+00 0.114211456894D-04 0.000000000000D+00  6 1 -2 25 -24 1 -1 4 0.54115106D+00 0.73814111D-02 0.46134067D+05 0.46134067D+05 0.46134067D+05 0.11957585D+01  1  2  5  6  6  5       21 -.245674209553D-01 0.100000000000D+01
0.385404633691D-02 0.000000000000D+00 0.000000000000D+00 0.114211456894D-04 0.538880163467D-07  6 1 -2 25 -24 1 -1 4 0.54115106D+00 0.73814111D-02 0.46450495D+05 0.46450495D+05 0.46450495D+05 0.11954619D+01  1  2 11  6  6  5       21 0.231975049701D-01 0.100000000000D+01
0.288730143245D-04 0.000000000000D+00 0.000000000000D+00 0.114154816764D-04 0.000000000000D+00  6 1 -2 25 -24 2 -2 4 0.54115106D+00 0.73814111D-02 0.46450495D+05 0.46450495D+05 0.46450495D+05 0.11954619D+01  1  2 12  7  6  5       21 0.173786673730D-03 0.100000000000D+01
-.407600515532D-02 0.000000000000D+00 0.000000000000D+00 0.114211456894D-04 0.000000000000D+00  6 1 -2 25 -24 2 -2 4 0.54115106D+00 0.73814111D-02 0.46134067D+05 0.46134067D+05 0.46134067D+05 0.11957585D+01  1  2  5  7  6  5       21 -.245674209553D-01 0.100000000000D+01
0.365009739526D-02 0.000000000000D+00 0.000000000000D+00 0.114211456894D-04 0.695933866172D-07  6 1 -2 25 -24 2 -2 4 0.54115106D+00 0.73814111D-02 0.46450495D+05 0.46450495D+05 0.46450495D+05 0.11954619D+01  1  2 11  7  6  5       21 0.219699362867D-01 0.100000000000D+01
0.288730143245D-04 0.000000000000D+00 0.000000000000D+00 0.114154816764D-04 0.000000000000D+00  6 1 -2 25 -24 3 -3 4 0.54115106D+00 0.73814111D-02 0.46450495D+05 0.46450495D+05 0.46450495D+05 0.11954619D+01  1  2 12  8  6  5       21 0.173786673730D-03 0.100000000000D+01
0.288730143245D-04 0.000000000000D+00 0.000000000000D+00 0.114154816764D-04 0.000000000000D+00  6 1 -2 25 -24 4 -4 4 0.54115106D+00 0.73814111D-02 0.46450495D+05 0.46450495D+05 0.46450495D+05 0.11954619D+01  1  2 12  8  6  5       21 0.173786673730D-03 0.100000000000D+01
-.407600515532D-02 0.000000000000D+00 0.000000000000D+00 0.114211456894D-04 0.000000000000D+00  6 1 -2 25 -24 3 -3 4 0.54115106D+00 0.73814111D-02 0.46134067D+05 0.46134067D+05 0.46134067D+05 0.11957585D+01  1  2  5  8  6  5       21 -.245674209553D-01 0.100000000000D+01
-.407600515532D-02 0.000000000000D+00 0.000000000000D+00 0.114211456894D-04 0.000000000000D+00  6 1 -2 25 -24 4 -4 4 0.54115106D+00 0.73814111D-02 0.46134067D+05 0.46134067D+05 0.46134067D+05 0.11957585D+01  1  2  5  8  6  5       21 -.245674209553D-01 0.100000000000D+01
0.385409799884D-02 0.000000000000D+00 0.000000000000D+00 0.114211456894D-04 0.538880323761D-07  6 1 -2 25 -24 3 -3 4 0.54115106D+00 0.73814111D-02 0.46450495D+05 0.46450495D+05 0.46450495D+05 0.11954619D+01  1  2 11  8  6  5       21 0.231978159233D-01 0.100000000000D+01
0.385409799884D-02 0.000000000000D+00 0.000000000000D+00 0.114211456894D-04 0.538880323761D-07  6 1 -2 25 -24 4 -4 4 0.54115106D+00 0.73814111D-02 0.46450495D+05 0.46450495D+05 0.46450495D+05 0.11954619D+01  1  2 11  8  6  5       21 0.231978159233D-01 0.100000000000D+01
  </mgrwgt>
  </event>
  <event>
  5     66 0.42750230E-03 0.56527792E+02 0.75467711E-02 0.11794804E+00
        1 -1    0    0  502    0 0.00000000E+00 0.00000000E+00 0.16213306E+02 0.16216464E+02 0.32000000E+00 0.0000E+00 0.9000E+01
       -2 -1    0    0    0  501 -.00000000E+00 -.00000000E+00 -.19098656E+04 0.19098657E+04 0.32000000E+00 0.0000E+00 0.9000E+01
       25  1    1    2    0    0 0.44826262E+02 0.45199403E+02 -.10230686E+04 0.10326407E+04 0.12500000E+03 0.0000E+00 0.9000E+01
      -24  1    1    2    0    0 -.76348068E+02 -.92117731E+02 -.63869827E+03 0.65476515E+03 0.80419002E+02 0.0000E+00 0.9000E+01
       21  1    1    2  502  501 0.31521806E+02 0.46918328E+02 -.23188545E+03 0.23867630E+03 0.75000000E+00 0.0000E+00 0.9000E+01
#aMCatNLO 1  0  0  5  2 0.62527630D+01 0.00000000D+00  -5  6  0 0.00000000D+00 0.00000000D+00 0.00000000D+00 0.00000000D+00 0.00000000D+00
  <mgrwgt>
 0.5090965082D-01   25    2    0
 0.175978131134196D+03 0.000000000000000D+00 0.000000000000000D+00 0.175978131134196D+03
 0.175978131134196D+03 -.000000000000000D+00 -.000000000000000D+00 -.175978131134196D+03
 0.146649614555656D+03 0.448251837094995D+02 0.451977974133620D+02 -.427664759328242D+02
 0.146778183230637D+03 -.763491477956835D+02 -.921193372591309D+02 0.275944641536544D+02
 0.585284644820994D+02 0.315239640861840D+02 0.469215398457690D+02 0.151720117791698D+02
 0.000000000000000D+00 0.000000000000000D+00 0.000000000000000D+00 0.000000000000000D+00
 0.175978131134196D+03 0.000000000000000D+00 0.000000000000000D+00 0.175978131134196D+03
 0.175978131134196D+03 -.000000000000000D+00 -.000000000000000D+00 -.175978131134196D+03
 0.147431980823087D+03 0.460537932655883D+02 0.470265094396574D+02 -.421751645544069D+02
 0.145123106917801D+03 -.751296470851779D+02 -.903041832060589D+02 0.281813915811161D+02
 0.639656702592261D+01 0.372912324147067D+01 0.835561098956353D+00 -.512947825972144D+01
 0.530046075015821D+02 0.253467305781190D+02 0.424421126674452D+02 0.191232512330123D+02
0.142645011878D-02 0.000000000000D+00 0.000000000000D+00 0.596713018979D-05 0.000000000000D+00  6 1 -2 25 -24 21 21 2 0.24945997D-02 0.29382573D+00 0.29064107D+05 0.29064107D+05 0.29064107D+05 0.12163457D+01  1  2  2  3  6  5       21 0.326162950597D-01 0.100000000000D+01
0.327330229682D-04 0.752758408547D-04 -.547794404904D-05 0.596713018979D-05 0.000000000000D+00  6 1 -2 25 -24 21 21 4 0.24945997D-02 0.29382573D+00 0.29064107D+05 0.29064107D+05 0.29064107D+05 0.12163457D+01  1  2  3  3  6  5       21 0.110733283595D-02 0.100000000000D+01
0.511932260009D-04 0.000000000000D+00 0.000000000000D+00 0.596713018979D-05 0.000000000000D+00  6 1 -2 25 -24 21 21 4 0.24945997D-02 0.29382573D+00 0.29064107D+05 0.29064107D+05 0.29064107D+05 0.12163457D+01  1  2 15  3  6  5       21 0.173182721877D-02 0.100000000000D+01
0.363241097702D-04 0.000000000000D+00 0.000000000000D+00 0.597794752511D-05 0.000000000000D+00  6 1 -2 25 -24 21 21 4 0.24945997D-02 0.29382573D+00 0.28373323D+05 0.28373323D+05 0.28373323D+05 0.12174477D+01  1  2 12  3  6  5       21 0.123331164702D-02 0.100000000000D+01
0.406646964179D-04 0.000000000000D+00 0.000000000000D+00 0.597794752511D-05 0.000000000000D+00  6 1 -2 25 -24 21 21 4 0.24945997D-02 0.29382573D+00 0.28373323D+05 0.28373323D+05 0.28373323D+05 0.12174477D+01  1  2 12  3  6  5       21 0.138068748365D-02 0.100000000000D+01
-.463735122233D-03 0.000000000000D+00 0.000000000000D+00 0.596713018979D-05 0.000000000000D+00  6 1 -2 25 -24 21 21 4 0.24945997D-02 0.29382573D+00 0.29064107D+05 0.29064107D+05 0.29064107D+05 0.12163457D+01  1  2  4  3  6  5       21 -.156878003151D-01 0.100000000000D+01
-.471616608395D-04 0.000000000000D+00 0.000000000000D+00 0.596713018979D-05 0.000000000000D+00  6 1 -2 25 -24 21 21 4 0.24945997D-02 0.29382573D+00 0.29064107D+05 0.29064107D+05 0.29064107D+05 0.12163457D+01  1  2  5  3  6  5       21 -.159544248927D-02 0.100000000000D+01
0.823733928375D-03 0.000000000000D+00 -.000000000000D+00 0.596713018979D-05 0.000000000000D+00  6 1 -2 25 -24 21 21 4 0.24945997D-02 0.29382573D+00 0.29064107D+05 0.29064107D+05 0.29064107D+05 0.12163457D+01  1  2  6  3  6  5       21 0.278662813350D-01 0.100000000000D+01
0.145574249760D-04 0.000000000000D+00 0.000000000000D+00 0.596713018979D-05 0.290879426167D-05  6 1 -2 25 -24 21 21 4 0.24945997D-02 0.29382573D+00 0.28373323D+05 0.28373323D+05 0.28373323D+05 0.12174477D+01  1  2 11  3  6  5       21 0.494267908753D-03 0.100000000000D+01
0.195171614720D-04 0.000000000000D+00 0.000000000000D+00 0.597794752511D-05 0.000000000000D+00  6 1 -2 25 -24 1 -1 4 0.24945997D-02 0.29382573D+00 0.28373323D+05 0.28373323D+05 0.28373323D+05 0.12174477D+01  1  2 12  6  6  5       21 0.662665725668D-03 0.100000000000D+01
0.201571301565D-04 0.000000000000D+00 0.000000000000D+00 0.597794752511D-05 0.000000000000D+00  6 1 -2 25 -24 1 -1 4 0.24945997D-02 0.29382573D+00 0.28373323D+05 0.28373323D+05 0.28373323D+05 0.12174477D+01  1  2 12  6  6  5       21 0.684394567402D-03 0.100000000000D+01
-.327699235486D-04 0.000000000000D+00 0.000000000000D+00 0.596713018979D-05 0.000000000000D+00  6 1 -2 25 -24 1 -1 4 0.24945997D-02 0.29382573D+00 0.29064107D+05 0.29064107D+05 0.29064107D+05 0.12163457D+01  1  2  5  6  6  5       21 -.110858115403D-02 0.100000000000D+01
0.598733553058D-05 0.000000000000D+00 0.000000000000D+00 0.596713018979D-05 0.114007845881D-07  6 1 -2 25 -24 1 -1 4 0.24945997D-02 0.29382573D+00 0.28373323D+05 0.28373323D+05 0.28373323D+05 0.12174477D+01  1  2 11  6  6  5       21 0.203287862832D-03 0.100000000000D+01
0.195171614720D-04 0.000000000000D+00 0.000000000000D+00 0.597794752511D-05 0.000000000000D+00  6 1 -2 25 -24 2 -2 4 0.24945997D-02 0.29382573D+00 0.28373323D+05 0.28373323D+05 0.28373323D+05 0.12174477D+01  1  2 12  7  6  5       21 0.662665725668D-03 0.100000000000D+01
0.201571301565D-04 0.000000000000D+00 0.000000000000D+00 0.597794752511D-05 0.000000000000D+00  6 1 -2 25 -24 2 -2 4 0.24945997D-02 0.29382573D+00 0.28373323D+05 0.28373323D+05 0.28373323D+05 0.12174477D+01  1  2 12  7  6  5       21 0.684394567402D-03 0.100000000000D+01
-.327699235486D-04 0.000000000000D+00 0.000000000000D+00 0.596713018979D-05 0.000000000000D+00  6 1 -2 25 -24 2 -2 4 0.24945997D-02 0.29382573D+00 0.29064107D+05 0.29064107D+05 0.29064107D+05 0.12163457D+01  1  2  5  7  6  5       21 -.110858115403D-02 0.100000000000D+01
0.593149747710D-05 0.000000000000D+00 0.000000000000D+00 0.596713018979D-05 0.107060783197D-07  6 1 -2 25 -24 2 -2 4 0.24945997D-02 0.29382573D+00 0.28373323D+05 0.28373323D+05 0.28373323D+05 0.12174477D+01  1  2 11  7  6  5       21 0.201391994712D-03 0.100000000000D+01
0.195171614720D-04 0.000000000000D+00 0.000000000000D+00 0.597794752511D-05 0.000000000000D+00  6 1 -2 25 -24 3 -3 4 0.24945997D-02 0.29382573D+00 0.28373323D+05 0.28373323D+05 0.28373323D+05 0.12174477D+01  1  2 12  8  6  5       21 0.662665725668D-03 0.100000000000D+01
0.195171614720D-04 0.000000000000D+00 0.000000000000D+00 0.597794752511D-05 0.000000000000D+00  6 1 -2 25 -24 4 -4 4 0.24945997D-02 0.29382573D+00 0.28373323D+05 0.28373323D+05 0.28373323D+05 0.12174477D+01  1  2 12  8  6  5       21 0.662665725668D-03 0.100000000000D+01
0.201571301565D-04 0.000000000000D+00 0.000000000000D+00 0.597794752511D-05 0.000000000000D+00  6 1 -2 25 -24 3 -3 4 0.24945997D-02 0.29382573D+00 0.28373323D+05 0.28373323D+05 0.28373323D+05 0.12174477D+01  1  2 12  8  6  5       21 0.684394567402D-03 0.100000000000D+01
0.201571301565D-04 0.000000000000D+00 0.000000000000D+00 0.597794752511D-05 0.000000000000D+00  6 1 -2 25 -24 4 -4 4 0.24945997D-02 0.29382573D+00 0.28373323D+05 0.28373323D+05 0.28373323D+05 0.12174477D+01  1  2 12  8  6  5       21 0.684394567402D-03 0.100000000000D+01
-.327699235486D-04 0.000000000000D+00 0.000000000000D+00 0.596713018979D-05 0.000000000000D+00  6 1 -2 25 -24 3 -3 4 0.24945997D-02 0.29382573D+00 0.29064107D+05 0.29064107D+05 0.29064107D+05 0.12163457D+01  1  2  5  8  6  5       21 -.110858115403D-02 0.100000000000D+01
-.327699235486D-04 0.000000000000D+00 0.000000000000D+00 0.596713018979D-05 0.000000000000D+00  6 1 -2 25 -24 4 -4 4 0.24945997D-02 0.29382573D+00 0.29064107D+05 0.29064107D+05 0.29064107D+05 0.12163457D+01  1  2  5  8  6  5       21 -.110858115403D-02 0.100000000000D+01
0.595373018275D-05 0.000000000000D+00 0.000000000000D+00 0.596713018979D-05 0.107059060454D-07  6 1 -2 25 -24 3 -3 4 0.24945997D-02 0.29382573D+00 0.28373323D+05 0.28373323D+05 0.28373323D+05 0.12174477D+01  1  2 11  8  6  5       21 0.202146861245D-03 0.100000000000D+01
0.595373018275D-05 0.000000000000D+00 0.000000000000D+00 0.596713018979D-05 0.107059060454D-07  6 1 -2 25 -24 4 -4 4 0.24945997D-02 0.29382573D+00 0.28373323D+05 0.28373323D+05 0.28373323D+05 0.12174477D+01  1  2 11  8  6  5       21 0.202146861245D-03 0.100000000000D+01
  </mgrwgt>
  </event>
  <event>
  5     66 -.42750230E-03 0.67929299E+02 0.75467711E-02 0.11999044E+00
        3 -1    0    0  502    0 0.00000000E+00 0.00000000E+00 0.73140022E+03 0.73140039E+03 0.50000000E+00 0.0000E+00 0.9000E+01
       -4 -1    0    0    0  501 0.00000000E+00 0.00000000E+00 -.33029042E+02 0.33065392E+02 0.15500000E+01 0.0000E+00 0.9000E+01
       25  1    1    2    0    0 -.45145631E+02 0.17600384E+02 0.19227337E+03 0.23439699E+03 0.12500000E+03 0.0000E+00 0.9000E+01
      -24  1    1    2    0    0 0.22369273E+01 0.35057050E+02 0.32534556E+03 0.33697322E+03 0.80419002E+02 0.0000E+00 0.9000E+01
       21  1    1    2  502  501 0.42908703E+02 -.52657434E+02 0.18075225E+03 0.19309557E+03 0.75000000E+00 0.0000E+00 0.9000E+01
#aMCatNLO 1  0  0  1  5 0.10858151D+02 0.00000000D+00  -5  6  0 0.00000000D+00 0.00000000D+00 0.00000000D+00 0.00000000D+00 0.00000000D+00
  <mgrwgt>
 -.2657180049D-02    9    4    0
 0.155471566188814D+03 0.000000000000000D+00 0.000000000000000D+00 0.155471566188814D+03
 0.155471566188814D+03 0.000000000000000D+00 0.000000000000000D+00 -.155471566188814D+03
 0.144433180414220D+03 -.451468162328767D+02 0.176018392038856D+02 -.537390346511914D+02
 0.977433071826962D+02 0.223612505737271D+01 0.350580341699208D+02 0.430403546629071D+02
 0.687666447807113D+02 0.429106911755040D+02 -.526598733738064D+02 0.106986799882843D+02
 0.000000000000000D+00 0.000000000000000D+00 -.000000000000000D+00 0.000000000000000D+00
 0.263724796209944D+03 0.000000000000000D+00 0.000000000000000D+00 0.263724796209944D+03
 0.155838844641986D+03 0.000000000000000D+00 0.000000000000000D+00 -.155838844641986D+03
 0.146171647547340D+03 -.501627829347445D+02 0.183565222660381D+02 -.537390346511914D+02
 0.979078097544737D+02 -.114089897427859D+01 0.355661282201106D+02 0.430403546629071D+02
 0.670532009307817D+02 0.405663811090802D+02 -.523071574957475D+02 0.106986799882843D+02
 0.108430982619335D+03 0.107373007999429D+02 -.161549299040115D+01 0.107885951567959D+03
 0.155471566188814D+03 0.000000000000000D+00 0.000000000000000D+00 0.155471566188814D+03
 0.155471566188814D+03 0.000000000000000D+00 0.000000000000000D+00 -.155471566188814D+03
 0.144433180414220D+03 -.451468162328767D+02 0.176018392038856D+02 -.537390346511914D+02
 0.977433071826962D+02 0.223612505737271D+01 0.350580341699208D+02 0.430403546629071D+02
 0.000000000000000D+00 0.000000000000000D+00 -.000000000000000D+00 0.000000000000000D+00
 0.687666447807113D+02 0.429106911755040D+02 -.526598733738064D+02 0.106986799882843D+02
 0.263724796209944D+03 0.000000000000000D+00 0.000000000000000D+00 0.263724796209944D+03
 0.155838844641986D+03 0.000000000000000D+00 0.000000000000000D+00 -.155838844641986D+03
 0.146171647547340D+03 -.501627829347445D+02 0.183565222660381D+02 -.537390346511914D+02
 0.979078097544737D+02 -.114089897427859D+01 0.355661282201106D+02 0.430403546629071D+02
 0.108430982619335D+03 0.107373007999429D+02 -.161549299040115D+01 0.107885951567959D+03
 0.670532009307817D+02 0.405663811090802D+02 -.523071574957475D+02 0.106986799882843D+02
0.336118481580D-05 0.000000000000D+00 0.000000000000D+00 0.474831413269D-05 0.000000000000D+00  6 3 -4 25 -24 21 21 2 0.11252592D+00 0.50842004D-02 0.20988749D+05 0.20988749D+05 0.20988749D+05 0.12315256D+01  1  2  2  1  6  1        3 0.163369826124D-03 0.100000000000D+01
-.148111216810D-06 0.177374595822D-06 -.129078347130D-07 0.474831413269D-05 0.000000000000D+00  6 3 -4 25 -24 21 21 4 0.11252592D+00 0.50842004D-02 0.20988749D+05 0.20988749D+05 0.20988749D+05 0.12315256D+01  1  2  3  1  6  1        3 -.109182809278D-04 0.100000000000D+01
0.132762429717D-06 0.000000000000D+00 0.000000000000D+00 0.474831413269D-05 0.000000000000D+00  6 3 -4 25 -24 21 21 4 0.11252592D+00 0.50842004D-02 0.20988749D+05 0.20988749D+05 0.20988749D+05 0.12315256D+01  1  2 15  1  6  1        3 0.978681787597D-05 0.100000000000D+01
0.288477360893D-03 0.000000000000D+00 0.000000000000D+00 0.472072938972D-05 0.000000000000D+00  6 3 -4 25 -24 21 21 4 0.19165190D+00 0.50842004D-02 0.22639304D+05 0.22639304D+05 0.22639304D+05 0.12279432D+01  1  2 12  1  6  1        3 0.561111210240D-02 0.100000000000D+01
-.291160049750D-03 0.000000000000D+00 0.000000000000D+00 0.474831413269D-05 0.000000000000D+00  6 3 -4 25 -24 21 21 4 0.11252592D+00 0.50842004D-02 0.20988749D+05 0.20988749D+05 0.20988749D+05 0.12315256D+01  1  2  4  1  6  1        3 -.214633792537D-01 0.100000000000D+01
-.292122813225D-03 0.000000000000D+00 -.247448919016D-05 0.474831413269D-05 0.000000000000D+00  6 3 -4 25 -24 21 21 4 0.19101389D+00 0.50842004D-02 0.20988749D+05 0.20988749D+05 0.20988749D+05 0.12315256D+01  1  2  5  1  6  1        3 -.577569841566D-02 0.100000000000D+01
0.256924094515D-03 0.000000000000D+00 0.216433154474D-05 0.474831413269D-05 0.000000000000D+00  6 3 -4 25 -24 21 21 4 0.11252592D+00 0.50842004D-02 0.20988749D+05 0.20988749D+05 0.20988749D+05 0.12315256D+01  1  2  6  1  6  1        3 0.189396151179D-01 0.100000000000D+01
0.171110921708D-04 0.000000000000D+00 0.000000000000D+00 0.472072938972D-05 0.000000000000D+00  6 21 -4 25 -24 -3 21 4 0.19165190D+00 0.50842004D-02 0.22639304D+05 0.22639304D+05 0.22639304D+05 0.12279432D+01  3  4 12  4  5  1        3 0.582795535869D-02 0.100000000000D+01
-.171198535171D-04 0.000000000000D+00 -.146023151426D-06 0.474831413269D-05 0.000000000000D+00  6 21 -4 25 -24 -3 21 4 0.19101389D+00 0.50842004D-02 0.20988749D+05 0.20988749D+05 0.20988749D+05 0.12315256D+01  3  4  5  4  5  1        3 -.595902332145D-02 0.100000000000D+01
  </mgrwgt>
  </event>
  <event>
  5     66 -.42750230E-03 0.22958754E+02 0.75467711E-02 0.12263204E+00
        1 -1    0    0  502    0 0.00000000E+00 0.00000000E+00 0.28294130E+04 0.28294131E+04 0.32000000E+00 0.0000E+00 0.9000E+01
       -2 -1    0    0    0  501 0.00000000E+00 0.00000000E+00 -.11586811E+02 0.11591229E+02 0.32000000E+00 0.0000E+00 0.9000E+01
       25  1    1    2    0    0 -.13006902E+02 0.68388627E+02 0.15997115E+04 0.16060971E+04 0.12500000E+03 0.0000E+00 0.9000E+01
      -24  1    1    2    0    0 0.21199106E+02 -.46942638E+02 0.26786499E+03 0.28437982E+03 0.80419002E+02 0.0000E+00 0.9000E+01
       21  1    1    2  502  501 -.81922036E+01 -.21445989E+02 0.95024976E+03 0.95052733E+03 0.75000000E+00 0.0000E+00 0.9000E+01
#aMCatNLO 1  0  0  1  5 0.10858151D+02 0.00000000D+00  -5  6  0 0.00000000D+00 0.00000000D+00 0.00000000D+00 0.00000000D+00 0.00000000D+00
  <mgrwgt>
 -.2961203919D-01    1    2    0
 0.181080575495955D+03 0.000000000000000D+00 0.000000000000000D+00 0.181080575495955D+03
 0.181080575495955D+03 0.000000000000000D+00 0.000000000000000D+00 -.181080575495955D+03
 0.152472874779259D+03 -.130066574236369D+02 0.683892671920599D+02 0.526945209585299D+02
 0.146696292151922D+03 0.211993407552979D+02 -.469420222477358D+02 -.111353584026673D+03
 0.629919840607284D+02 -.819268333166097D+01 -.214472449443241D+02 0.586590630681428D+02
 0.000000000000000D+00 0.000000000000000D+00 0.000000000000000D+00 -.000000000000000D+00
 0.184807313283103D+03 0.000000000000000D+00 0.000000000000000D+00 0.184807313283103D+03
 0.349544840311857D+04 0.000000000000000D+00 0.000000000000000D+00 -.349544840311857D+04
 0.150586466941917D+03 -.378324749347178D+02 0.533223717337670D+02 0.526945209585299D+02
 0.150620646168545D+03 -.315607429898556D+01 -.617234284311347D+02 -.111353584026673D+03
 0.676664952624188D+02 -.188958794302524D+02 -.279430607060852D+02 0.586590630681428D+02
 0.331138210802879D+04 0.598844286639557D+02 0.363441174034529D+02 -.331064108983547D+04
-.159139989084D-03 0.000000000000D+00 0.000000000000D+00 0.293421683019D-04 0.000000000000D+00  6 1 -2 25 -24 21 21 4 0.43529466D+00 0.17829275D-02 0.17100299D+05 0.17100299D+05 0.17100299D+05 0.12413862D+01  1  2 14  1  6  1        1 -.296120391945D-01 0.100000000000D+01
  </mgrwgt>
  </event>
  <event>
  5     66 0.42750230E-03 0.40692551E+02 0.75467711E-02 0.12368877E+00
        1 -1    0    0  502    0 0.00000000E+00 0.00000000E+00 0.17496069E+04 0.17496069E+04 0.32000000E+00 0.0000E+00 0.9000E+01
       -2 -1    0    0    0  501 0.00000000E+00 0.00000000E+00 -.91364004E+01 0.91420026E+01 0.32000000E+00 0.0000E+00 0.9000E+01
       25  1    1    2    0    0 0.27234558E+02 -.21553603E+02 0.93585915E+03 0.94480878E+03 0.12500000E+03 0.0000E+00 0.9000E+01
      -24  1    1    2    0    0 0.20212206E+00 -.97715949E+01 0.55397045E+03 0.55986249E+03 0.80419002E+02 0.0000E+00 0.9000E+01
       21  1    1    2  502  501 -.27436680E+02 0.31325198E+02 0.25064090E+03 0.25407768E+03 0.75000000E+00 0.0000E+00 0.9000E+01
#aMCatNLO 1  0  0  5  2 0.10725524D+02 0.00000000D+00  -5  6  0 0.00000000D+00 0.00000000D+00 0.00000000D+00 0.00000000D+00 0.00000000D+00
  <mgrwgt>
 0.2029028683D+00   20    2    0
 0.126451814657771D+03 0.000000000000000D+00 0.000000000000000D+00 0.126451814657771D+03
 0.126451814657771D+03 -.000000000000000D+00 -.000000000000000D+00 -.126451814657771D+03
 0.129877216675740D+03 0.272368032533085D+02 -.215561671502595D+02 0.604810861076802D+01
 0.810125508159450D+02 0.203522682361225D+00 -.977319405483500D+01 -.510579885863672D+00
 0.420138618238577D+02 -.274403259356697D+02 0.313293612050945D+02 -.553752872490435D+01
 0.000000000000000D+00 0.000000000000000D+00 0.000000000000000D+00 0.000000000000000D+00
 0.126451814657771D+03 0.000000000000000D+00 0.000000000000000D+00 0.126451814657771D+03
 0.126451814657771D+03 -.000000000000000D+00 -.000000000000000D+00 -.126451814657771D+03
 0.129019443587103D+03 0.250376479868916D+02 -.190453321897280D+02 0.560431339175869D+01
 0.808486570682548D+02 -.117138083082334D+01 -.820342958163975D+01 -.788038969843958D+00
 0.154700420447711D+02 -.102824730966067D+02 0.402949466130191D+01 -.108331030023296D+02
 0.275654866154135D+02 -.135837940594615D+02 0.232192671100658D+02 0.601682858041489D+01
0.309487475526D-03 0.000000000000D+00 0.000000000000D+00 0.159808178116D-04 0.000000000000D+00  6 1 -2 25 -24 21 21 2 0.26917073D+00 0.14060332D-02 0.15925757D+05 0.15925757D+05 0.15925757D+05 0.12448684D+01  1  2  2  3  6  5       21 0.263508562451D+00 0.100000000000D+01
0.844512181917D-05 0.163321027827D-04 -.118851339594D-05 0.159808178116D-04 0.000000000000D+00  6 1 -2 25 -24 21 21 4 0.26917073D+00 0.14060332D-02 0.15925757D+05 0.15925757D+05 0.15925757D+05 0.12448684D+01  1  2  3  3  6  5       21 0.111430589480D-01 0.100000000000D+01
0.151642317745D-04 0.000000000000D+00 0.000000000000D+00 0.159808178116D-04 0.000000000000D+00  6 1 -2 25 -24 21 21 4 0.26917073D+00 0.14060332D-02 0.15925757D+05 0.15925757D+05 0.15925757D+05 0.12448684D+01  1  2 15  3  6  5       21 0.200087023234D-01 0.100000000000D+01
0.652647189816D-04 0.000000000000D+00 0.000000000000D+00 0.160284780190D-04 0.000000000000D+00  6 1 -2 25 -24 21 21 4 0.26917073D+00 0.14060332D-02 0.15337228D+05 0.15337228D+05 0.15337228D+05 0.12467233D+01  1  2 12  3  6  5       21 0.865795649670D-01 0.100000000000D+01
0.640044624451D-04 0.000000000000D+00 0.000000000000D+00 0.160284780190D-04 0.000000000000D+00  6 1 -2 25 -24 21 21 4 0.26917073D+00 0.14060332D-02 0.15337228D+05 0.15337228D+05 0.15337228D+05 0.12467233D+01  1  2 12  3  6  5       21 0.849077204486D-01 0.100000000000D+01
-.457445293719D-03 0.000000000000D+00 0.000000000000D+00 0.159808178116D-04 0.000000000000D+00  6 1 -2 25 -24 21 21 4 0.26917073D+00 0.14060332D-02 0.15925757D+05 0.15925757D+05 0.15925757D+05 0.12448684D+01  1  2  4  3  6  5       21 -.603583936684D+00 0.100000000000D+01
-.103455451289D-03 0.000000000000D+00 0.000000000000D+00 0.159808178116D-04 0.000000000000D+00  6 1 -2 25 -24 21 21 4 0.26917073D+00 0.14060332D-02 0.15925757D+05 0.15925757D+05 0.15925757D+05 0.12448684D+01  1  2  5  3  6  5       21 -.136506046554D+00 0.100000000000D+01
0.341615885642D-03 0.000000000000D+00 -.000000000000D+00 0.159808178116D-04 0.000000000000D+00  6 1 -2 25 -24 21 21 4 0.26917073D+00 0.14060332D-02 0.15925757D+05 0.15925757D+05 0.15925757D+05 0.12448684D+01  1  2  6  3  6  5       21 0.450750863373D+00 0.100000000000D+01
0.476772470043D-05 0.000000000000D+00 0.000000000000D+00 0.160284780190D-04 0.000000000000D+00  6 1 -2 25 -24 1 -1 4 0.26917073D+00 0.14060332D-02 0.15337228D+05 0.15337228D+05 0.15337228D+05 0.12467233D+01  1  2 12  6  6  5       21 0.632481893566D-02 0.100000000000D+01
0.468696698290D-05 0.000000000000D+00 0.000000000000D+00 0.160284780190D-04 0.000000000000D+00  6 1 -2 25 -24 1 -1 4 0.26917073D+00 0.14060332D-02 0.15337228D+05 0.15337228D+05 0.15337228D+05 0.12467233D+01  1  2 12  6  6  5       21 0.621768650392D-02 0.100000000000D+01
-.456162298787D-05 0.000000000000D+00 0.000000000000D+00 0.159808178116D-04 0.000000000000D+00  6 1 -2 25 -24 1 -1 4 0.26917073D+00 0.14060332D-02 0.15925757D+05 0.15925757D+05 0.15925757D+05 0.12448684D+01  1  2  5  6  6  5       21 -.601891067302D-02 0.100000000000D+01
0.476772470043D-05 0.000000000000D+00 0.000000000000D+00 0.160284780190D-04 0.000000000000D+00  6 1 -2 25 -24 2 -2 4 0.26917073D+00 0.14060332D-02 0.15337228D+05 0.15337228D+05 0.15337228D+05 0.12467233D+01  1  2 12  7  6  5       21 0.632481893566D-02 0.100000000000D+01
0.468696698290D-05 0.000000000000D+00 0.000000000000D+00 0.160284780190D-04 0.000000000000D+00  6 1 -2 25 -24 2 -2 4 0.26917073D+00 0.14060332D-02 0.15337228D+05 0.15337228D+05 0.15337228D+05 0.12467233D+01  1  2 12  7  6  5       21 0.621768650392D-02 0.100000000000D+01
-.456162298787D-05 0.000000000000D+00 0.000000000000D+00 0.159808178116D-04 0.000000000000D+00  6 1 -2 25 -24 2 -2 4 0.26917073D+00 0.14060332D-02 0.15925757D+05 0.15925757D+05 0.15925757D+05 0.12448684D+01  1  2  5  7  6  5       21 -.601891067302D-02 0.100000000000D+01
0.476772470043D-05 0.000000000000D+00 0.000000000000D+00 0.160284780190D-04 0.000000000000D+00  6 1 -2 25 -24 3 -3 4 0.26917073D+00 0.14060332D-02 0.15337228D+05 0.15337228D+05 0.15337228D+05 0.12467233D+01  1  2 12  8  6  5       21 0.632481893566D-02 0.100000000000D+01
0.476772470043D-05 0.000000000000D+00 0.000000000000D+00 0.160284780190D-04 0.000000000000D+00  6 1 -2 25 -24 4 -4 4 0.26917073D+00 0.14060332D-02 0.15337228D+05 0.15337228D+05 0.15337228D+05 0.12467233D+01  1  2 12  8  6  5       21 0.632481893566D-02 0.100000000000D+01
0.468696698290D-05 0.000000000000D+00 0.000000000000D+00 0.160284780190D-04 0.000000000000D+00  6 1 -2 25 -24 3 -3 4 0.26917073D+00 0.14060332D-02 0.15337228D+05 0.15337228D+05 0.15337228D+05 0.12467233D+01  1  2 12  8  6  5       21 0.621768650392D-02 0.100000000000D+01
0.468696698290D-05 0.000000000000D+00 0.000000000000D+00 0.160284780190D-04 0.000000000000D+00  6 1 -2 25 -24 4 -4 4 0.26917073D+00 0.14060332D-02 0.15337228D+05 0.15337228D+05 0.15337228D+05 0.12467233D+01  1  2 12  8  6  5       21 0.621768650392D-02 0.100000000000D+01
-.456162298787D-05 0.000000000000D+00 0.000000000000D+00 0.159808178116D-04 0.000000000000D+00  6 1 -2 25 -24 3 -3 4 0.26917073D+00 0.14060332D-02 0.15925757D+05 0.15925757D+05 0.15925757D+05 0.12448684D+01  1  2  5  8  6  5       21 -.601891067302D-02 0.100000000000D+01
-.456162298787D-05 0.000000000000D+00 0.000000000000D+00 0.159808178116D-04 0.000000000000D+00  6 1 -2 25 -24 4 -4 4 0.26917073D+00 0.14060332D-02 0.15925757D+05 0.15925757D+05 0.15925757D+05 0.12448684D+01  1  2  5  8  6  5       21 -.601891067302D-02 0.100000000000D+01
  </mgrwgt>
  </event>
  <event>
  5     66 0.42750230E-03 0.46081793E+02 0.75467711E-02 0.12293460E+00
        1 -1    0    0  502    0 0.00000000E+00 0.00000000E+00 0.11382265E+03 0.11382310E+03 0.32000000E+00 0.0000E+00 0.9000E+01
       -2 -1    0    0    0  501 -.00000000E+00 -.00000000E+00 -.23450221E+03 0.23450243E+03 0.32000000E+00 0.0000E+00 0.9000E+01
       25  1    1    2    0    0 -.34078711E+02 -.10036080E+02 0.30315150E+02 0.13343946E+03 0.12500000E+03 0.0000E+00 0.9000E+01
      -24  1    1    2    0    0 -.15522736E+01 -.19727293E+02 -.14643257E+03 0.16822987E+03 0.80419002E+02 0.0000E+00 0.9000E+01
       21  1    1    2  502  501 0.35630984E+02 0.29763373E+02 -.45621436E+01 0.46656201E+02 0.75000000E+00 0.0000E+00 0.9000E+01
#aMCatNLO 1  0  0  5  1 0.14934514D+02 0.00000000D+00  -5  6  0 0.00000000D+00 0.00000000D+00 0.00000000D+00 0.00000000D+00 0.00000000D+00
  <mgrwgt>
 0.1206202460D+00   14    2    0
 0.163376190392952D+03 0.000000000000000D+00 0.000000000000000D+00 0.163376190392952D+03
 0.163376190392952D+03 -.000000000000000D+00 -.000000000000000D+00 -.163376190392952D+03
 0.153446016858103D+03 -.340807494756474D+02 -.100377831549460D+02 0.815991759402610D+02
 0.125255582388818D+03 -.155393760087590D+01 -.197286831391382D+02 -.939686612904506D+02
 0.480507815389837D+02 0.356346870765233D+02 0.297664662940841D+02 0.123694853501896D+02
 0.000000000000000D+00 -.000000000000000D+00 0.000000000000000D+00 0.000000000000000D+00
 0.163376190392952D+03 0.000000000000000D+00 0.000000000000000D+00 0.163376190392952D+03
 0.163376190392952D+03 -.000000000000000D+00 -.000000000000000D+00 -.163376190392952D+03
 0.153094852691734D+03 -.274355965095195D+02 -.448693542726672D+01 0.839058363604234D+02
 0.123271878809316D+03 0.383360826982742D+01 -.152283432814107D+02 -.920985404843374D+02
 0.354476542451067D+02 0.331874029717211D+02 0.124379195581099D+02 -.656225981820706D+00
 0.149379950397477D+02 -.958541473202914D+01 0.727735915056747D+01 0.884893010573470D+01
0.176728299042D-03 0.000000000000D+00 0.000000000000D+00 0.636779641138D-05 0.000000000000D+00  6 1 -2 25 -24 21 21 2 0.17511228D-01 0.36077315D-01 0.16796230D+05 0.16796230D+05 0.16796230D+05 0.12422613D+01  1  2  2  3  6  5       21 0.510885439989D-01 0.100000000000D+01
-.222221683597D-06 0.932620856358D-05 -.678683201952D-06 0.636779641138D-05 0.000000000000D+00  6 1 -2 25 -24 21 21 4 0.17511228D-01 0.36077315D-01 0.16796230D+05 0.16796230D+05 0.16796230D+05 0.12422613D+01  1  2  3  3  6  5       21 -.991356348265D-04 0.100000000000D+01
0.673214321942D-05 0.000000000000D+00 0.000000000000D+00 0.636779641138D-05 0.000000000000D+00  6 1 -2 25 -24 21 21 4 0.17511228D-01 0.36077315D-01 0.16796230D+05 0.16796230D+05 0.16796230D+05 0.12422613D+01  1  2 15  3  6  5       21 0.300328609251D-02 0.100000000000D+01
0.983491788479D-04 0.000000000000D+00 0.000000000000D+00 0.637451654799D-05 0.000000000000D+00  6 1 -2 25 -24 21 21 4 0.17511228D-01 0.36077315D-01 0.16572504D+05 0.16572504D+05 0.16572504D+05 0.12429167D+01  1  2 12  3  6  5       21 0.439529789388D-01 0.100000000000D+01
0.115513089201D-03 0.000000000000D+00 0.000000000000D+00 0.637451654799D-05 0.000000000000D+00  6 1 -2 25 -24 21 21 4 0.17511228D-01 0.36077315D-01 0.16572504D+05 0.16572504D+05 0.16572504D+05 0.12429167D+01  1  2 12  3  6  5       21 0.516236580345D-01 0.100000000000D+01
-.784317529867D-04 0.000000000000D+00 0.000000000000D+00 0.636779641138D-05 0.000000000000D+00  6 1 -2 25 -24 21 21 4 0.17511228D-01 0.36077315D-01 0.16796230D+05 0.16796230D+05 0.16796230D+05 0.12422613D+01  1  2  4  3  6  5       21 -.349893021106D-01 0.100000000000D+01
0.160397327700D-05 0.000000000000D+00 0.000000000000D+00 0.637451654799D-05 0.000000000000D+00  6 1 -2 25 -24 1 -1 4 0.17511228D-01 0.36077315D-01 0.16572504D+05 0.16572504D+05 0.16572504D+05 0.12429167D+01  1  2 12  6  6  5       21 0.716827577906D-03 0.100000000000D+01
0.177492368122D-05 0.000000000000D+00 0.000000000000D+00 0.637451654799D-05 0.000000000000D+00  6 1 -2 25 -24 1 -1 4 0.17511228D-01 0.36077315D-01 0.16572504D+05 0.16572504D+05 0.16572504D+05 0.12429167D+01  1  2 12  6  6  5       21 0.793226584020D-03 0.100000000000D+01
0.160397327700D-05 0.000000000000D+00 0.000000000000D+00 0.637451654799D-05 0.000000000000D+00  6 1 -2 25 -24 2 -2 4 0.17511228D-01 0.36077315D-01 0.16572504D+05 0.16572504D+05 0.16572504D+05 0.12429167D+01  1  2 12  7  6  5       21 0.716827577906D-03 0.100000000000D+01
0.177492368122D-05 0.000000000000D+00 0.000000000000D+00 0.637451654799D-05 0.000000000000D+00  6 1 -2 25 -24 2 -2 4 0.17511228D-01 0.36077315D-01 0.16572504D+05 0.16572504D+05 0.16572504D+05 0.12429167D+01  1  2 12  7  6  5       21 0.793226584020D-03 0.100000000000D+01
0.160397327700D-05 0.000000000000D+00 0.000000000000D+00 0.637451654799D-05 0.000000000000D+00  6 1 -2 25 -24 3 -3 4 0.17511228D-01 0.36077315D-01 0.16572504D+05 0.16572504D+05 0.16572504D+05 0.12429167D+01  1  2 12  8  6  5       21 0.716827577906D-03 0.100000000000D+01
0.160397327700D-05 0.000000000000D+00 0.000000000000D+00 0.637451654799D-05 0.000000000000D+00  6 1 -2 25 -24 4 -4 4 0.17511228D-01 0.36077315D-01 0.16572504D+05 0.16572504D+05 0.16572504D+05 0.12429167D+01  1  2 12  8  6  5       21 0.716827577906D-03 0.100000000000D+01
0.177492368122D-05 0.000000000000D+00 0.000000000000D+00 0.637451654799D-05 0.000000000000D+00  6 1 -2 25 -24 3 -3 4 0.17511228D-01 0.36077315D-01 0.16572504D+05 0.16572504D+05 0.16572504D+05 0.12429167D+01  1  2 12  8  6  5       21 0.793226584020D-03 0.100000000000D+01
0.177492368122D-05 0.000000000000D+00 0.000000000000D+00 0.637451654799D-05 0.000000000000D+00  6 1 -2 25 -24 4 -4 4 0.17511228D-01 0.36077315D-01 0.16572504D+05 0.16572504D+05 0.16572504D+05 0.12429167D+01  1  2 12  8  6  5       21 0.793226584020D-03 0.100000000000D+01
  </mgrwgt>
  </event>
  <event>
  5     66 0.42750230E-03 0.28370333E+02 0.75467711E-02 0.12263572E+00
        1 -1    0    0  502    0 0.00000000E+00 0.00000000E+00 0.59637168E+03 0.59637177E+03 0.32000000E+00 0.0000E+00 0.9000E+01
       -2 -1    0    0    0  501 0.00000000E+00 0.00000000E+00 -.13528336E+03 0.13528373E+03 0.32000000E+00 0.0000E+00 0.9000E+01
       25  1    1    2    0    0 -.49552671E+02 0.21144993E+00 0.34388482E+02 0.13879150E+03 0.12500000E+03 0.0000E+00 0.9000E+01
      -24  1    1    2    0    0 0.49720486E+02 0.28158297E+02 -.53229389E+02 0.11209639E+03 0.80419002E+02 0.0000E+00 0.9000E+01
       21  1    1    2  502  501 -.16781539E+00 -.28369747E+02 0.47992923E+03 0.48076762E+03 0.75000000E+00 0.0000E+00 0.9000E+01
#aMCatNLO 1  0  0  2  5 0.13062284D+03 0.00000000D+00  -5  6  0 0.00000000D+00 0.00000000D+00 0.00000000D+00 0.00000000D+00 0.00000000D+00
  <mgrwgt>
 0.3564364382D-01    1    2    0
 0.284041075372774D+03 0.000000000000000D+00 0.000000000000000D+00 0.284041075372774D+03
 0.284041075372774D+03 0.000000000000000D+00 0.000000000000000D+00 -.284041075372774D+03
 0.150843531573070D+03 -.495526703495202D+02 0.211490102706646D+00 -.683612401189730D+02
 0.187577777504258D+03 0.497204862695254D+02 0.281583468952409D+02 -.159540550971580D+03
 0.229660841668220D+03 -.167815920005231D+00 -.283698369979475D+02 0.227901791090553D+03
 0.000000000000000D+00 0.000000000000000D+00 0.000000000000000D+00 -.000000000000000D+00
 0.346463393630290D+03 0.000000000000000D+00 0.000000000000000D+00 0.346463393630290D+03
 0.448784183361389D+03 0.000000000000000D+00 0.000000000000000D+00 -.448784183361389D+03
 0.170927132901120D+03 -.916062993202300D+02 -.229371213548150D+02 -.683612401189730D+02
 0.178681582500142D+03 0.185243323291877D+01 0.180915924857616D+01 -.159540550971580D+03
 0.244336190579578D+03 -.621165810752746D+02 -.624698167131673D+02 0.227901791090553D+03
 0.201302671010838D+03 0.151870447162586D+03 0.835977788194062D+02 -.102320789731099D+03
0.243930149980D-03 0.000000000000D+00 0.000000000000D+00 0.654293449061D-04 0.000000000000D+00  6 1 -2 25 -24 21 21 4 0.91749525D-01 0.20812860D-01 0.17093761D+05 0.17093761D+05 0.17093761D+05 0.12414048D+01  1  2 14  2  6  2       -2 0.356436438183D-01 0.100000000000D+01
  </mgrwgt>
  </event>
  <event>
  6     66 0.42750230E-03 0.11459590E+03 0.75467711E-02 0.11170824E+00
       21 -1    0    0  502  503 0.00000000E+00 0.00000000E+00 0.70247840E+03 0.70247880E+03 0.75000000E+00 0.0000E+00 0.9000E+01
       -2 -1    0    0    0  501 0.00000000E+00 0.00000000E+00 -.10313924E+03 0.10313974E+03 0.32000000E+00 0.0000E+00 0.9000E+01
       25  1    1    2    0    0 0.14795794E+03 0.10450054E+03 0.19450645E+03 0.29371700E+03 0.12500000E+03 0.0000E+00 0.9000E+01
      -24  1    1    2    0    0 0.13019741E+02 -.40488666E+02 0.53659819E+02 0.10561931E+03 0.80419002E+02 0.0000E+00 0.9000E+01
       -1  1    1    2    0  503 -.13079293E+03 -.35225210E+02 0.33533572E+03 0.36165972E+03 0.32000000E+00 0.0000E+00 0.9000E+01
       21  1    1    2  502  501 -.30184746E+02 -.28786664E+02 0.15837165E+02 0.44622519E+02 0.75000000E+00 0.0000E+00 0.9000E+01
#aMCatNLO 2  0  0  1  5 0.13545334D+03 0.00000000D+00  -5  6  0 0.00000000D+00 0.00000000D+00 0.00000000D+00 0.00000000D+00 0.00000000D+00
  <mgrwgt>
 0.1031055340D-02    1    2    0
 0.165116636459466D+03 0.000000000000000D+00 0.000000000000000D+00 0.165116636459466D+03
 0.165116636459466D+03 0.000000000000000D+00 0.000000000000000D+00 -.165116636459466D+03
 0.169623958216805D+03 0.735218296135489D+02 0.844541425234465D+02 0.246845211021441D+02
 0.982558717983936D+02 -.231313306509976D+02 -.502244434825284D+02 -.113774868787601D+02
 0.000000000000000D+00 -.000000000000000D+00 -.000000000000000D+00 0.000000000000000D+00
 0.623534429037325D+02 -.503904989625514D+02 -.342296990409180D+02 -.133070342233840D+02
 0.354168863821252D+03 0.000000000000000D+00 0.000000000000000D+00 0.354168863821252D+03
 0.204572954386655D+03 0.000000000000000D+00 0.000000000000000D+00 -.204572954386655D+03
 0.221466316921983D+03 0.147960576048851D+03 0.104502018565376D+03 0.246845211021441D+02
 0.916813870627099D+02 0.130206586715712D+02 -.404879737632545D+02 -.113774868787601D+02
 0.201808181920596D+03 -.130792930852041D+03 -.352252098597795D+02 0.149595909434597D+03
 0.437859323026175D+02 -.301883038683803D+02 -.287888349423422D+02 -.133070342233840D+02
0.316674164344D-05 0.000000000000D+00 0.000000000000D+00 0.576142860781D-05 0.939895946521D-09  6 21 -2 25 -24 -1 21 4 0.10807361D+00 0.15867636D-01 0.59591462D+05 0.59591462D+05 0.59591462D+05 0.11848068D+01  1  2  1  4  5  1        1 0.103105533992D-02 0.100000000000D+01
  </mgrwgt>
  </event>
  <event>
  6     66 0.42750230E-03 0.19972042E+02 0.75467711E-02 0.12081748E+00
        1 -1    0    0  503    0 0.00000000E+00 0.00000000E+00 0.49781447E+03 0.49781457E+03 0.32000000E+00 0.0000E+00 0.9000E+01
       -2 -1    0    0    0  501 0.00000000E+00 0.00000000E+00 -.74718618E+02 0.74719303E+02 0.32000000E+00 0.0000E+00 0.9000E+01
       25  1    1    2    0    0 -.40248106E+02 -.49108920E+02 0.92693252E+02 0.16807330E+03 0.12500000E+03 0.0000E+00 0.9000E+01
      -24  1    1    2    0    0 0.47016870E+02 0.75743026E+02 0.64110096E+02 0.13610625E+03 0.80419002E+02 0.0000E+00 0.9000E+01
       21  1    1    2  502  501 -.48862974E+01 -.21955148E+02 0.12768766E+03 0.12965572E+03 0.75000000E+00 0.0000E+00 0.9000E+01
       21  1    1    2  503  502 -.18824668E+01 -.46789576E+01 0.13860484E+03 0.13869859E+03 0.75000000E+00 0.0000E+00 0.9000E+01
#aMCatNLO 2  0  0  1  5 0.50434438D+01 0.00000000D+00  -5  6  0 0.00000000D+00 0.00000000D+00 0.00000000D+00 0.00000000D+00 0.00000000D+00
  <mgrwgt>
 0.3812712014D+00    2    2    0
 0.163747120272671D+03 0.000000000000000D+00 0.000000000000000D+00 0.163747120272671D+03
 0.163747120272671D+03 0.000000000000000D+00 0.000000000000000D+00 -.163747120272671D+03
 0.143059829237895D+03 -.410674769052846D+02 -.511451815699184D+02 -.232109345867358D+02
 0.123258134641461D+03 0.463047223940565D+02 0.739732265003818D+02 -.333044478419115D+02
 0.611762766659853D+02 -.523724548877188D+01 -.228280449304634D+02 0.565153824286473D+02
 0.000000000000000D+00 -.000000000000000D+00 -.000000000000000D+00 0.000000000000000D+00
 0.226984066978873D+03 0.000000000000000D+00 0.000000000000000D+00 0.226984066978873D+03
 0.163867126978274D+03 0.000000000000000D+00 0.000000000000000D+00 -.163867126978274D+03
 0.142110014274363D+03 -.402479343515671D+02 -.491081709403022D+02 -.232109345867358D+02
 0.124595779868112D+03 0.470170236231916D+02 0.757436838959805D+02 -.333044478419115D+02
 0.608272788678243D+02 -.488662249079525D+01 -.219565553773871D+02 0.565153824286473D+02
 0.633181209468468D+02 -.188246678082928D+01 -.467895757829120D+01 0.631169400005984D+02
-.143745335300D-02 0.000000000000D+00 0.000000000000D+00 0.424731875248D-04 0.000000000000D+00  6 1 -2 25 -24 21 21 4 0.78195431D-01 0.11486659D-01 0.20707359D+05 0.20707359D+05 0.20707359D+05 0.12321677D+01  1  2 13  1  6  1        1 -.670358305294D+00 0.100000000000D+01
0.219704287536D-02 0.000000000000D+00 0.000000000000D+00 0.425778886033D-04 0.114453328342D-04  6 1 -2 25 -24 21 21 4 0.76585864D-01 0.11495077D-01 0.20707359D+05 0.20707359D+05 0.20707359D+05 0.12321677D+01  1  2  1  1  6  1        1 0.105162950672D+01 0.100000000000D+01
  </mgrwgt>
  </event>
  <event>
  5     66 0.42750230E-03 0.30053426E+02 0.75467711E-02 0.12155823E+00
        1 -1    0    0  502    0 0.00000000E+00 0.00000000E+00 0.85902607E+03 0.85902613E+03 0.32000000E+00 0.0000E+00 0.9000E+01
       -2 -1    0    0    0  501 0.00000000E+00 0.00000000E+00 -.23230725E+02 0.23232929E+02 0.32000000E+00 0.0000E+00 0.9000E+01
       25  1    1    2    0    0 0.37296888E+02 -.31158926E+02 0.35328599E+03 0.37788613E+03 0.12500000E+03 0.0000E+00 0.9000E+01
      -24  1    1    2    0    0 -.61781452E+02 0.48575983E+02 0.32187072E+03 0.34094655E+03 0.80419002E+02 0.0000E+00 0.9000E+01
       21  1    1    2  502  501 0.24484564E+02 -.17417058E+02 0.16063864E+03 0.16342638E+03 0.75000000E+00 0.0000E+00 0.9000E+01
#aMCatNLO 1  0  0  5  2 0.78607343D+00 0.00000000D+00  -5  6  0 0.00000000D+00 0.00000000D+00 0.00000000D+00 0.00000000D+00 0.00000000D+00
  <mgrwgt>
 0.2225709007D+00   25    2    0
 0.141268528917212D+03 0.000000000000000D+00 0.000000000000000D+00 0.141268528917212D+03
 0.141268528917212D+03 -.000000000000000D+00 -.000000000000000D+00 -.141268528917212D+03
 0.134914707087863D+03 0.372942211924262D+02 -.311570287397972D+02 -.146751086660956D+02
 0.112500944642294D+03 -.617836750818937D+02 0.485775651057961D+02 -.349917887584964D+01
 0.351214061042657D+02 0.244894538894675D+02 -.174205363659989D+02 0.181742875419452D+02
 0.000000000000000D+00 0.000000000000000D+00 -.000000000000000D+00 0.000000000000000D+00
 0.141268528917212D+03 0.000000000000000D+00 0.000000000000000D+00 0.141268528917212D+03
 0.141268528917212D+03 -.000000000000000D+00 -.000000000000000D+00 -.141268528917212D+03
 0.134956708112895D+03 0.374106276202543D+02 -.312398342779838D+02 -.145887203006945D+02
 0.112415680459160D+03 -.616866594684850D+02 0.485085531944205D+02 -.342718095943601D+01
 0.107809411057386D+01 0.676111003243725D+00 0.286472163197943D+00 0.789363365162070D+00
 0.340865751517942D+02 0.235999208449870D+02 -.175551910796346D+02 0.172265378949684D+02
0.182156894265D-03 0.000000000000D+00 0.000000000000D+00 0.252356824665D-04 0.000000000000D+00  6 1 -2 25 -24 21 21 2 0.13215803D+00 0.35741319D-02 0.19128846D+05 0.19128846D+05 0.19128846D+05 0.12359610D+01  1  2  2  3  6  5       21 0.159313060197D+00 0.100000000000D+01
0.208702926045D-04 0.961268340394D-05 -.699530436990D-06 0.252356824665D-04 0.000000000000D+00  6 1 -2 25 -24 21 21 4 0.13215803D+00 0.35741319D-02 0.19128846D+05 0.19128846D+05 0.19128846D+05 0.12359610D+01  1  2  3  3  6  5       21 0.278832806517D-01 0.100000000000D+01
0.414252713219D-05 0.000000000000D+00 0.000000000000D+00 0.252356824665D-04 0.000000000000D+00  6 1 -2 25 -24 21 21 4 0.13215803D+00 0.35741319D-02 0.19128846D+05 0.19128846D+05 0.19128846D+05 0.12359610D+01  1  2 15  3  6  5       21 0.553452933426D-02 0.100000000000D+01
0.146343931734D-11 0.000000000000D+00 0.000000000000D+00 0.252347922122D-04 0.000000000000D+00  6 1 -2 25 -24 21 21 4 0.13215803D+00 0.35741319D-02 0.19137524D+05 0.19137524D+05 0.19137524D+05 0.12359392D+01  1  2 12  3  6  5       21 0.195507762845D-08 0.100000000000D+01
0.156197609887D-11 0.000000000000D+00 0.000000000000D+00 0.252347922122D-04 0.000000000000D+00  6 1 -2 25 -24 21 21 4 0.13215803D+00 0.35741319D-02 0.19137524D+05 0.19137524D+05 0.19137524D+05 0.12359392D+01  1  2 12  3  6  5       21 0.208671756382D-08 0.100000000000D+01
-.308279122516D-03 0.000000000000D+00 0.000000000000D+00 0.252356824665D-04 0.000000000000D+00  6 1 -2 25 -24 21 21 4 0.13215803D+00 0.35741319D-02 0.19128846D+05 0.19128846D+05 0.19128846D+05 0.12359610D+01  1  2  4  3  6  5       21 -.411869323304D+00 0.100000000000D+01
-.256603642337D-05 0.000000000000D+00 0.000000000000D+00 0.252356824665D-04 0.000000000000D+00  6 1 -2 25 -24 21 21 4 0.13215803D+00 0.35741319D-02 0.19128846D+05 0.19128846D+05 0.19128846D+05 0.12359610D+01  1  2  5  3  6  5       21 -.342829471111D-02 0.100000000000D+01
0.327645584130D-03 0.000000000000D+00 -.000000000000D+00 0.252356824665D-04 0.000000000000D+00  6 1 -2 25 -24 21 21 4 0.13215803D+00 0.35741319D-02 0.19128846D+05 0.19128846D+05 0.19128846D+05 0.12359610D+01  1  2  6  3  6  5       21 0.437743444699D+00 0.100000000000D+01
0.317019462282D-05 0.000000000000D+00 0.000000000000D+00 0.252356824665D-04 0.384963105558D-03  6 1 -2 25 -24 21 21 4 0.13215803D+00 0.35741319D-02 0.19137524D+05 0.19137524D+05 0.19137524D+05 0.12359392D+01  1  2 11  3  6  5       21 0.423521256500D-02 0.100000000000D+01
0.724836172970D-11 0.000000000000D+00 0.000000000000D+00 0.252347922122D-04 0.000000000000D+00  6 1 -2 25 -24 1 -1 4 0.13215803D+00 0.35741319D-02 0.19137524D+05 0.19137524D+05 0.19137524D+05 0.12359392D+01  1  2 12  6  6  5       21 0.968342840921D-08 0.100000000000D+01
0.729791376048D-11 0.000000000000D+00 0.000000000000D+00 0.252347922122D-04 0.000000000000D+00  6 1 -2 25 -24 1 -1 4 0.13215803D+00 0.35741319D-02 0.19137524D+05 0.19137524D+05 0.19137524D+05 0.12359392D+01  1  2 12  6  6  5       21 0.974962730496D-08 0.100000000000D+01
-.151223411623D-04 0.000000000000D+00 0.000000000000D+00 0.252356824665D-04 0.000000000000D+00  6 1 -2 25 -24 1 -1 4 0.13215803D+00 0.35741319D-02 0.19128846D+05 0.19128846D+05 0.19128846D+05 0.12359610D+01  1  2  5  6  6  5       21 -.202038606132D-01 0.100000000000D+01
0.144409616487D-04 0.000000000000D+00 0.000000000000D+00 0.252356824665D-04 0.161116498365D-05  6 1 -2 25 -24 1 -1 4 0.13215803D+00 0.35741319D-02 0.19137524D+05 0.19137524D+05 0.19137524D+05 0.12359392D+01  1  2 11  6  6  5       21 0.192923619847D-01 0.100000000000D+01
0.724836172970D-11 0.000000000000D+00 0.000000000000D+00 0.252347922122D-04 0.000000000000D+00  6 1 -2 25 -24 2 -2 4 0.13215803D+00 0.35741319D-02 0.19137524D+05 0.19137524D+05 0.19137524D+05 0.12359392D+01  1  2 12  7  6  5       21 0.968342840921D-08 0.100000000000D+01
0.729791376048D-11 0.000000000000D+00 0.000000000000D+00 0.252347922122D-04 0.000000000000D+00  6 1 -2 25 -24 2 -2 4 0.13215803D+00 0.35741319D-02 0.19137524D+05 0.19137524D+05 0.19137524D+05 0.12359392D+01  1  2 12  7  6  5       21 0.974962730496D-08 0.100000000000D+01
-.151223411623D-04 0.000000000000D+00 0.000000000000D+00 0.252356824665D-04 0.000000000000D+00  6 1 -2 25 -24 2 -2 4 0.13215803D+00 0.35741319D-02 0.19128846D+05 0.19128846D+05 0.19128846D+05 0.12359610D+01  1  2  5  7  6  5       21 -.202038606132D-01 0.100000000000D+01
0.161434210997D-04 0.000000000000D+00 0.000000000000D+00 0.252356824665D-04 0.154738003744D-05  6 1 -2 25 -24 2 -2 4 0.13215803D+00 0.35741319D-02 0.19137524D+05 0.19137524D+05 0.19137524D+05 0.12359392D+01  1  2 11  7  6  5       21 0.215667578866D-01 0.100000000000D+01
0.724836172970D-11 0.000000000000D+00 0.000000000000D+00 0.252347922122D-04 0.000000000000D+00  6 1 -2 25 -24 3 -3 4 0.13215803D+00 0.35741319D-02 0.19137524D+05 0.19137524D+05 0.19137524D+05 0.12359392D+01  1  2 12  8  6  5       21 0.968342840921D-08 0.100000000000D+01
0.724836172970D-11 0.000000000000D+00 0.000000000000D+00 0.252347922122D-04 0.000000000000D+00  6 1 -2 25 -24 4 -4 4 0.13215803D+00 0.35741319D-02 0.19137524D+05 0.19137524D+05 0.19137524D+05 0.12359392D+01  1  2 12  8  6  5       21 0.968342840921D-08 0.100000000000D+01
0.729791376048D-11 0.000000000000D+00 0.000000000000D+00 0.252347922122D-04 0.000000000000D+00  6 1 -2 25 -24 3 -3 4 0.13215803D+00 0.35741319D-02 0.19137524D+05 0.19137524D+05 0.19137524D+05 0.12359392D+01  1  2 12  8  6  5       21 0.974962730496D-08 0.100000000000D+01
0.729791376048D-11 0.000000000000D+00 0.000000000000D+00 0.252347922122D-04 0.000000000000D+00  6 1 -2 25 -24 4 -4 4 0.13215803D+00 0.35741319D-02 0.19137524D+05 0.19137524D+05 0.19137524D+05 0.12359392D+01  1  2 12  8  6  5       21 0.974962730496D-08 0.100000000000D+01
-.151223411623D-04 0.000000000000D+00 0.000000000000D+00 0.252356824665D-04 0.000000000000D+00  6 1 -2 25 -24 3 -3 4 0.13215803D+00 0.35741319D-02 0.19128846D+05 0.19128846D+05 0.19128846D+05 0.12359610D+01  1  2  5  8  6  5       21 -.202038606132D-01 0.100000000000D+01
-.151223411623D-04 0.000000000000D+00 0.000000000000D+00 0.252356824665D-04 0.000000000000D+00  6 1 -2 25 -24 4 -4 4 0.13215803D+00 0.35741319D-02 0.19128846D+05 0.19128846D+05 0.19128846D+05 0.12359610D+01  1  2  5  8  6  5       21 -.202038606132D-01 0.100000000000D+01
0.161365781418D-04 0.000000000000D+00 0.000000000000D+00 0.252356824665D-04 0.154661703252D-05  6 1 -2 25 -24 3 -3 4 0.13215803D+00 0.35741319D-02 0.19137524D+05 0.19137524D+05 0.19137524D+05 0.12359392D+01  1  2 11  8  6  5       21 0.215576160563D-01 0.100000000000D+01
0.161365781418D-04 0.000000000000D+00 0.000000000000D+00 0.252356824665D-04 0.154661703252D-05  6 1 -2 25 -24 4 -4 4 0.13215803D+00 0.35741319D-02 0.19137524D+05 0.19137524D+05 0.19137524D+05 0.12359392D+01  1  2 11  8  6  5       21 0.215576160563D-01 0.100000000000D+01
  </mgrwgt>
  </event>
  <event>
  6     66 0.42750230E-03 0.15203741E+02 0.75467711E-02 0.12359083E+00
       21 -1    0    0  502  503 0.00000000E+00 0.00000000E+00 0.94762581E+02 0.94765549E+02 0.75000000E+00 0.0000E+00 0.9000E+01
       -4 -1    0    0    0  501 0.00000000E+00 0.00000000E+00 -.20073096E+03 0.20073694E+03 0.15500000E+01 0.0000E+00 0.9000E+01
       25  1    1    2    0    0 -.21191893E+02 0.58126817E+01 -.62587214E+02 0.14150987E+03 0.12500000E+03 0.0000E+00 0.9000E+01
      -24  1    1    2    0    0 0.19295114E+02 0.24382216E+01 -.67673307E+02 0.10688844E+03 0.80419002E+02 0.0000E+00 0.9000E+01
       -3  1    1    2    0  503 0.71402843E+01 0.14371399E+02 0.15338515E+02 0.22204522E+02 0.50000000E+00 0.0000E+00 0.9000E+01
       21  1    1    2  502  501 -.52435054E+01 -.22622302E+02 0.89536318E+01 0.24899657E+02 0.75000000E+00 0.0000E+00 0.9000E+01
#aMCatNLO 2  0  0  1  5 0.16047454D+02 0.00000000D+00  -5  6  0 0.00000000D+00 0.00000000D+00 0.00000000D+00 0.00000000D+00 0.00000000D+00
  <mgrwgt>
 0.4852702143D-01    1    2    0
 0.122187250320631D+03 0.000000000000000D+00 0.000000000000000D+00 0.122187250320631D+03
 0.122187250320631D+03 0.000000000000000D+00 0.000000000000000D+00 -.122187250320631D+03
 0.126913311304348D+03 -.174869337041827D+02 0.132715886994197D+02 0.246311293487919D+00
 0.866546714553183D+02 0.218117319499943D+02 0.750473954861357D+01 -.225774968565538D+02
 0.000000000000000D+00 0.000000000000000D+00 0.000000000000000D+00 0.000000000000000D+00
 0.308065178815958D+02 -.432479824581162D+01 -.207763282480332D+02 0.223311855630659D+02
 0.152694336185165D+03 0.000000000000000D+00 0.000000000000000D+00 0.152694336185165D+03
 0.124579114458648D+03 0.000000000000000D+00 0.000000000000000D+00 -.124579114458648D+03
 0.126917111991620D+03 -.211912312155969D+02 0.581587195589197D+01 0.246311293487919D+00
 0.857626531191632D+02 0.192955439452127D+02 0.244035555156483D+01 -.225774968565538D+02
 0.323726190143848D+02 0.714028433704886D+01 0.143713989821944D+02 0.281152217265165D+02
 0.322210665186445D+02 -.524459706666466D+01 -.226276264896512D+02 0.223311855630659D+02
0.119619602883D-04 0.000000000000D+00 0.000000000000D+00 0.594985821442D-04 0.755659012419D-07  6 21 -4 25 -24 -3 21 4 0.14579325D-01 0.30881902D-01 0.15491445D+05 0.15491445D+05 0.15491445D+05 0.12462296D+01  1  2  1  4  5  1        3 0.485270214327D-01 0.100000000000D+01
  </mgrwgt>
  </event>
  <event>
  5     66 0.42750230E-03 0.72405818E+02 0.75467711E-02 0.11851386E+00
        1 -1    0    0  502    0 0.00000000E+00 0.00000000E+00 0.94934616E+02 0.94935156E+02 0.32000000E+00 0.0000E+00 0.9000E+01
       -2 -1    0    0    0  501 0.00000000E+00 0.00000000E+00 -.31682134E+03 0.31682150E+03 0.32000000E+00 0.0000E+00 0.9000E+01
       25  1    1    2    0    0 -.47429392E+01 -.10344835E+02 -.11848308E+03 0.17260577E+03 0.12500000E+03 0.0000E+00 0.9000E+01
      -24  1    1    2    0    0 -.48229194E+02 -.44685545E+02 0.78793210E+01 0.10417367E+03 0.80419002E+02 0.0000E+00 0.9000E+01
       21  1    1    2  502  501 0.52972133E+02 0.55030380E+02 -.11128297E+03 0.13497722E+03 0.75000000E+00 0.0000E+00 0.9000E+01
#aMCatNLO 1  0  0  2  5 0.19993907D+02 0.00000000D+00  -5  6  0 0.00000000D+00 0.00000000D+00 0.00000000D+00 0.00000000D+00 0.00000000D+00
  <mgrwgt>
 0.2512013817D-01    9    4    0
 0.173428533966585D+03 0.000000000000000D+00 0.000000000000000D+00 0.173428533966585D+03
 0.173428533966585D+03 0.000000000000000D+00 0.000000000000000D+00 -.173428533966585D+03
 0.129107161584965D+03 -.474363859849135D+01 -.103455620138319D+02 -.302345235118931D+02
 0.128706669976170D+03 -.482298910406688D+02 -.446862691306306D+02 0.759947755005188D+02
 0.890432363720352D+02 0.529735296391601D+02 0.550318311444625D+02 -.457602519886257D+02
 0.000000000000000D+00 0.000000000000000D+00 -.000000000000000D+00 -.000000000000000D+00
 0.175638893672899D+03 0.000000000000000D+00 0.000000000000000D+00 0.175638893672899D+03
 0.225701122882719D+03 0.000000000000000D+00 0.000000000000000D+00 -.225701122882719D+03
 0.128880526670857D+03 -.766277239288172D+01 -.351363945520862D+01 -.302345235118931D+02
 0.127643979779028D+03 -.511305017247425D+02 -.378976979440723D+02 0.759947755005188D+02
 0.909083387271126D+02 0.509373754033626D+02 0.597972338413562D+02 -.457602519886257D+02
 0.539071713786207D+02 0.785589871426162D+01 -.183858964420752D+02 -.500622292098197D+02
 0.173428533966585D+03 0.000000000000000D+00 0.000000000000000D+00 0.173428533966585D+03
 0.173428533966585D+03 0.000000000000000D+00 0.000000000000000D+00 -.173428533966585D+03
 0.129107161584965D+03 -.474363859849135D+01 -.103455620138319D+02 -.302345235118931D+02
 0.128706669976170D+03 -.482298910406688D+02 -.446862691306306D+02 0.759947755005188D+02
 0.000000000000000D+00 0.000000000000000D+00 -.000000000000000D+00 -.000000000000000D+00
 0.890432363720352D+02 0.529735296391601D+02 0.550318311444625D+02 -.457602519886257D+02
 0.175638893672899D+03 0.000000000000000D+00 0.000000000000000D+00 0.175638893672899D+03
 0.225701122882719D+03 0.000000000000000D+00 0.000000000000000D+00 -.225701122882719D+03
 0.128880526670857D+03 -.766277239288172D+01 -.351363945520862D+01 -.302345235118931D+02
 0.127643979779028D+03 -.511305017247425D+02 -.378976979440723D+02 0.759947755005188D+02
 0.539071713786207D+02 0.785589871426162D+01 -.183858964420752D+02 -.500622292098197D+02
 0.909083387271126D+02 0.509373754033626D+02 0.597972338413562D+02 -.457602519886257D+02
0.349948719551D-04 0.000000000000D+00 0.000000000000D+00 0.363894244793D-05 0.000000000000D+00  6 1 -2 25 -24 21 21 2 0.14605379D-01 0.48741798D-01 0.23375068D+05 0.23375068D+05 0.23375068D+05 0.12264393D+01  1  2  2  2  6  2       -2 0.706149253038D-02 0.100000000000D+01
-.200199583824D-05 0.184673012911D-05 -.134389522669D-06 0.363894244793D-05 0.000000000000D+00  6 1 -2 25 -24 21 21 4 0.14605379D-01 0.48741798D-01 0.23375068D+05 0.23375068D+05 0.23375068D+05 0.12264393D+01  1  2  3  2  6  2       -2 -.607641428973D-03 0.100000000000D+01
0.191288658196D-05 0.000000000000D+00 0.000000000000D+00 0.363894244793D-05 0.000000000000D+00  6 1 -2 25 -24 21 21 4 0.14605379D-01 0.48741798D-01 0.23375068D+05 0.23375068D+05 0.23375068D+05 0.12264393D+01  1  2 15  2  6  2       -2 0.580595181029D-03 0.100000000000D+01
0.277958290328D-03 0.000000000000D+00 0.000000000000D+00 0.360298188107D-05 0.000000000000D+00  6 1 -2 25 -24 21 21 4 0.14605379D-01 0.66029956D-01 0.26631871D+05 0.26631871D+05 0.26631871D+05 0.12203643D+01  1  2 12  2  6  2       -2 0.446714969485D-01 0.100000000000D+01
-.219720491239D-03 0.000000000000D+00 0.000000000000D+00 0.363894244793D-05 0.000000000000D+00  6 1 -2 25 -24 21 21 4 0.14605379D-01 0.48741798D-01 0.23375068D+05 0.23375068D+05 0.23375068D+05 0.12264393D+01  1  2  4  2  6  2       -2 -.666890863212D-01 0.100000000000D+01
-.372794500574D-03 0.000000000000D+00 -.294647038798D-04 0.363894244793D-05 0.000000000000D+00  6 1 -2 25 -24 21 21 4 0.14605379D-01 0.63859203D-01 0.23375068D+05 0.23375068D+05 0.23375068D+05 0.12264393D+01  1  2  5  2  6  2       -2 -.654259985023D-01 0.100000000000D+01
0.368277648482D-03 0.000000000000D+00 0.284213210408D-04 0.363894244793D-05 0.000000000000D+00  6 1 -2 25 -24 21 21 4 0.14605379D-01 0.48741798D-01 0.23375068D+05 0.23375068D+05 0.23375068D+05 0.12264393D+01  1  2  6  2  6  2       -2 0.111778832057D+00 0.100000000000D+01
0.108367882526D-04 0.000000000000D+00 0.000000000000D+00 0.360298188107D-05 0.000000000000D+00  6 1 21 25 -24 2 21 4 0.14605379D-01 0.66029956D-01 0.26631871D+05 0.26631871D+05 0.26631871D+05 0.12203643D+01  3  4 12  5  5  2       -2 0.210303181824D-01 0.100000000000D+01
-.127947387870D-04 0.000000000000D+00 -.105551654740D-05 0.363894244793D-05 0.000000000000D+00  6 1 21 25 -24 2 21 4 0.14605379D-01 0.63859203D-01 0.23375068D+05 0.23375068D+05 0.23375068D+05 0.12264393D+01  3  4  5  5  5  2       -2 -.272798704813D-01 0.100000000000D+01
  </mgrwgt>
  </event>
  <event>
  5     66 0.42750230E-03 0.23540604E+02 0.75467711E-02 0.12035900E+00
        1 -1    0    0  502    0 0.00000000E+00 0.00000000E+00 0.44329867E+03 0.44329879E+03 0.32000000E+00 0.0000E+00 0.9000E+01
       -2 -1    0    0    0  501 0.00000000E+00 0.00000000E+00 -.12581698E+03 0.12581739E+03 0.32000000E+00 0.0000E+00 0.9000E+01
       25  1    1    2    0    0 0.84549925E+02 -.10794378E+02 -.10566476E+02 0.15166364E+03 0.12500000E+03 0.0000E+00 0.9000E+01
      -24  1    1    2    0    0 -.67126143E+02 0.26623601E+02 0.21749479E+02 0.11024968E+03 0.80419002E+02 0.0000E+00 0.9000E+01
       21  1    1    2  502  501 -.17423782E+02 -.15829223E+02 0.30629869E+03 0.30720287E+03 0.75000000E+00 0.0000E+00 0.9000E+01
#aMCatNLO 1  0  0  5  2 0.13494973D+02 0.00000000D+00  -5  6  0 0.00000000D+00 0.00000000D+00 0.00000000D+00 0.00000000D+00 0.00000000D+00
  <mgrwgt>
 0.4454780422D+00   15    2    0
 0.236166573443546D+03 0.000000000000000D+00 0.000000000000000D+00 0.236166573443546D+03
 0.236166573443546D+03 -.000000000000000D+00 -.000000000000000D+00 -.236166573443546D+03
 0.189842912795338D+03 0.845499978337067D+02 -.107943120517441D+02 -.114673938766697D+03
 0.118221400334798D+03 -.671260970708270D+02 0.266236424236610D+02 -.478993976881240D+02
 0.164268833756956D+03 -.174239007628797D+02 -.158293303719170D+02 0.162573336454821D+03
 0.000000000000000D+00 0.000000000000000D+00 0.000000000000000D+00 0.000000000000000D+00
 0.236166573443546D+03 0.000000000000000D+00 0.000000000000000D+00 0.236166573443546D+03
 0.236166573443546D+03 -.000000000000000D+00 -.000000000000000D+00 -.236166573443546D+03
 0.189267422992139D+03 0.844543456317337D+02 -.108812105210615D+02 -.113781457925258D+03
 0.118018880337176D+03 -.671857021538540D+02 0.265694921754520D+02 -.473432537253435D+02
 0.901801917311442D+02 -.352742838915986D+01 -.207020908264045D+02 0.877008988838801D+02
 0.748666518266338D+02 -.137412150887199D+02 0.501380917201392D+01 0.734238127667215D+02
0.348857956471D-03 0.000000000000D+00 0.000000000000D+00 0.670272652890D-04 0.000000000000D+00  6 1 -2 25 -24 21 21 2 0.68199836D-01 0.19356499D-01 0.20010762D+05 0.20010762D+05 0.20010762D+05 0.12338003D+01  1  2  2  3  6  5       21 0.545839604610D-01 0.100000000000D+01
0.820234617068D-04 0.184097401420D-04 -.133970640926D-05 0.670272652890D-04 0.000000000000D+00  6 1 -2 25 -24 21 21 4 0.68199836D-01 0.19356499D-01 0.20010762D+05 0.20010762D+05 0.20010762D+05 0.12338003D+01  1  2  3  3  6  5       21 0.195363877646D-01 0.100000000000D+01
0.475040033625D-05 0.000000000000D+00 0.000000000000D+00 0.670272652890D-04 0.000000000000D+00  6 1 -2 25 -24 21 21 4 0.68199836D-01 0.19356499D-01 0.20010762D+05 0.20010762D+05 0.20010762D+05 0.12338003D+01  1  2 15  3  6  5       21 0.113145264873D-02 0.100000000000D+01
0.149077641445D-02 0.000000000000D+00 0.000000000000D+00 0.665963127532D-04 0.000000000000D+00  6 1 -2 25 -24 21 21 4 0.68199836D-01 0.19356499D-01 0.21753669D+05 0.21753669D+05 0.21753669D+05 0.12298276D+01  1  2 12  3  6  5       21 0.350757740631D+00 0.100000000000D+01
-.163337109229D-02 0.000000000000D+00 0.000000000000D+00 0.670272652890D-04 0.000000000000D+00  6 1 -2 25 -24 21 21 4 0.68199836D-01 0.19356499D-01 0.20010762D+05 0.20010762D+05 0.20010762D+05 0.12338003D+01  1  2  4  3  6  5       21 -.389037116435D+00 0.100000000000D+01
-.282758366702D-02 0.000000000000D+00 0.000000000000D+00 0.670272652890D-04 0.000000000000D+00  6 1 -2 25 -24 21 21 4 0.68199836D-01 0.19356499D-01 0.20010762D+05 0.20010762D+05 0.20010762D+05 0.12338003D+01  1  2  5  3  6  5       21 -.673475244841D+00 0.100000000000D+01
0.486612027051D-02 0.000000000000D+00 -.000000000000D+00 0.670272652890D-04 0.000000000000D+00  6 1 -2 25 -24 21 21 4 0.68199836D-01 0.19356499D-01 0.20010762D+05 0.20010762D+05 0.20010762D+05 0.12338003D+01  1  2  6  3  6  5       21 0.115901487862D+01 0.100000000000D+01
0.562183565053D-04 0.000000000000D+00 0.000000000000D+00 0.665963127532D-04 0.000000000000D+00  6 1 -2 25 -24 1 -1 4 0.68199836D-01 0.19356499D-01 0.21753669D+05 0.21753669D+05 0.21753669D+05 0.12298276D+01  1  2 12  6  6  5       21 0.132273515456D-01 0.100000000000D+01
-.136391761530D-03 0.000000000000D+00 0.000000000000D+00 0.670272652890D-04 0.000000000000D+00  6 1 -2 25 -24 1 -1 4 0.68199836D-01 0.19356499D-01 0.20010762D+05 0.20010762D+05 0.20010762D+05 0.12338003D+01  1  2  5  6  6  5       21 -.324858557016D-01 0.100000000000D+01
0.562183565053D-04 0.000000000000D+00 0.000000000000D+00 0.665963127532D-04 0.000000000000D+00  6 1 -2 25 -24 2 -2 4 0.68199836D-01 0.19356499D-01 0.21753669D+05 0.21753669D+05 0.21753669D+05 0.12298276D+01  1  2 12  7  6  5       21 0.132273515456D-01 0.100000000000D+01
-.136391761530D-03 0.000000000000D+00 0.000000000000D+00 0.670272652890D-04 0.000000000000D+00  6 1 -2 25 -24 2 -2 4 0.68199836D-01 0.19356499D-01 0.20010762D+05 0.20010762D+05 0.20010762D+05 0.12338003D+01  1  2  5  7  6  5       21 -.324858557016D-01 0.100000000000D+01
0.562183565053D-04 0.000000000000D+00 0.000000000000D+00 0.665963127532D-04 0.000000000000D+00  6 1 -2 25 -24 3 -3 4 0.68199836D-01 0.19356499D-01 0.21753669D+05 0.21753669D+05 0.21753669D+05 0.12298276D+01  1  2 12  8  6  5       21 0.132273515456D-01 0.100000000000D+01
0.562183565053D-04 0.000000000000D+00 0.000000000000D+00 0.665963127532D-04 0.000000000000D+00  6 1 -2 25 -24 4 -4 4 0.68199836D-01 0.19356499D-01 0.21753669D+05 0.21753669D+05 0.21753669D+05 0.12298276D+01  1  2 12  8  6  5       21 0.132273515456D-01 0.100000000000D+01
-.136391761530D-03 0.000000000000D+00 0.000000000000D+00 0.670272652890D-04 0.000000000000D+00  6 1 -2 25 -24 3 -3 4 0.68199836D-01 0.19356499D-01 0.20010762D+05 0.20010762D+05 0.20010762D+05 0.12338003D+01  1  2  5  8  6  5       21 -.324858557016D-01 0.100000000000D+01
-.136391761530D-03 0.000000000000D+00 0.000000000000D+00 0.670272652890D-04 0.000000000000D+00  6 1 -2 25 -24 4 -4 4 0.68199836D-01 0.19356499D-01 0.20010762D+05 0.20010762D+05 0.20010762D+05 0.12338003D+01  1  2  5  8  6  5       21 -.324858557016D-01 0.100000000000D+01
  </mgrwgt>
  </event>
  <event>
  5     66 0.42750230E-03 0.35275426E+02 0.75467711E-02 0.10425235E+00
        1 -1    0    0  502    0 0.00000000E+00 0.00000000E+00 0.26952853E+04 0.26952854E+04 0.32000000E+00 0.0000E+00 0.9000E+01
       -2 -1    0    0    0  501 0.00000000E+00 0.00000000E+00 -.46005815E+02 0.46006927E+02 0.32000000E+00 0.0000E+00 0.9000E+01
       25  1    1    2    0    0 -.15000548E+03 -.28274375E+03 0.11788940E+04 0.12279502E+04 0.12500000E+03 0.0000E+00 0.9000E+01
      -24  1    1    2    0    0 0.11565359E+03 0.27474072E+03 0.11397042E+04 0.11807841E+04 0.80419002E+02 0.0000E+00 0.9000E+01
       21  1    1    2  502  501 0.34351891E+02 0.80030329E+01 0.33068131E+03 0.33255795E+03 0.75000000E+00 0.0000E+00 0.9000E+01
#aMCatNLO 1  0  0  2  5 0.11301527D+03 0.00000000D+00  -5  6  0 0.00000000D+00 0.00000000D+00 0.00000000D+00 0.00000000D+00 0.00000000D+00
  <mgrwgt>
 0.4470894251D+00    4    2    0
 0.352136832561110D+03 0.000000000000000D+00 0.000000000000000D+00 0.352136832561110D+03
 0.352136832561110D+03 0.000000000000000D+00 0.000000000000000D+00 -.352136832561110D+03
 0.344967691611820D+03 -.150007332273267D+03 -.282744183456317D+03 -.305161472316807D+02
 0.308798552184627D+03 0.115651924914736D+03 0.274740331341072D+03 -.563138305084201D+01
 0.505074213257732D+02 0.343554073585303D+02 0.800385211524507D+01 0.361475302825227D+02
 0.000000000000000D+00 0.000000000000000D+00 -.000000000000000D+00 0.000000000000000D+00
 0.490343907638441D+03 0.000000000000000D+00 0.000000000000000D+00 0.490343907638441D+03
 0.380524238759288D+03 0.000000000000000D+00 0.000000000000000D+00 -.380524238759288D+03
 0.369108432637699D+03 -.206688282898563D+03 -.277425221482900D+03 -.305161472316807D+02
 0.298390743498378D+03 0.674552896820605D+02 0.279263121929818D+03 -.563138305084201D+01
 0.457846712873580D+02 0.267120663173387D+02 0.872110614679289D+01 0.361475302825227D+02
 0.157584298974294D+03 0.112520926899164D+03 -.105590065937108D+02 0.109819668879152D+03
0.205063904379D-01 0.000000000000D+00 0.000000000000D+00 0.115007034019D-04 0.000000000000D+00  6 1 -2 25 -24 21 21 2 0.41465937D+00 0.70779047D-02 0.11821148D+06 0.11821148D+06 0.11821148D+06 0.11569554D+01  1  2  2  2  6  2       -2 0.318316317747D+00 0.100000000000D+01
0.647586514149D-02 0.108215195385D-02 -.787499387380D-04 0.115007034019D-04 0.000000000000D+00  6 1 -2 25 -24 21 21 4 0.41465937D+00 0.70779047D-02 0.11821148D+06 0.11821148D+06 0.11821148D+06 0.11569554D+01  1  2  3  2  6  2       -2 0.134555274299D+00 0.100000000000D+01
-.195648174228D-03 0.000000000000D+00 0.000000000000D+00 0.115007034019D-04 0.000000000000D+00  6 1 -2 25 -24 21 21 4 0.41465937D+00 0.70779047D-02 0.11821148D+06 0.11821148D+06 0.11821148D+06 0.11569554D+01  1  2 15  2  6  2       -2 -.406517016244D-02 0.100000000000D+01
-.826354790562D-04 0.000000000000D+00 0.000000000000D+00 0.115007034019D-04 0.000000000000D+00  6 1 -2 25 -24 21 21 4 0.41465937D+00 0.70779047D-02 0.11821148D+06 0.11821148D+06 0.11821148D+06 0.11569554D+01  1  2  4  2  6  2       -2 -.171699677313D-02 0.100000000000D+01
  </mgrwgt>
  </event>
  <event>
  5     66 0.42750230E-03 0.29004453E+02 0.75467711E-02 0.11248106E+00
        1 -1    0    0  502    0 0.00000000E+00 0.00000000E+00 0.12905740E+04 0.12905740E+04 0.32000000E+00 0.0000E+00 0.9000E+01
       -2 -1    0    0    0  501 0.00000000E+00 0.00000000E+00 -.47955198E+02 0.47956265E+02 0.32000000E+00 0.0000E+00 0.9000E+01
       25  1    1    2    0    0 -.16860808E+03 0.10827706E+03 0.74395521E+03 0.78054274E+03 0.12500000E+03 0.0000E+00 0.9000E+01
      -24  1    1    2    0    0 0.15703071E+03 -.81687666E+02 0.30182291E+03 0.35902062E+03 0.80419002E+02 0.0000E+00 0.9000E+01
       21  1    1    2  502  501 0.11577380E+02 -.26589399E+02 0.19684067E+03 0.19896694E+03 0.75000000E+00 0.0000E+00 0.9000E+01
#aMCatNLO 1  0  0  5  1 0.98361444D+01 0.00000000D+00  -5  6  0 0.00000000D+00 0.00000000D+00 0.00000000D+00 0.00000000D+00 0.00000000D+00
  <mgrwgt>
 0.1421353978D+00   19    2    0
 0.248777956806103D+03 0.000000000000000D+00 0.000000000000000D+00 0.248777956806103D+03
 0.248777956806103D+03 -.000000000000000D+00 -.000000000000000D+00 -.248777956806103D+03
 0.241837819149094D+03 -.168608915099406D+03 0.108278971843304D+03 0.520310366641655D+02
 0.212054496047788D+03 0.157029976997811D+03 -.816859934676889D+02 -.846692277924776D+02
 0.436635984153248D+02 0.115789381015954D+02 -.265929783756155D+02 0.326381911283120D+02
 0.000000000000000D+00 0.000000000000000D+00 0.000000000000000D+00 -.000000000000000D+00
 0.248777956806103D+03 0.000000000000000D+00 0.000000000000000D+00 0.248777956806103D+03
 0.248777956806103D+03 -.000000000000000D+00 -.000000000000000D+00 -.248777956806103D+03
 0.240574427348340D+03 -.167447428629897D+03 0.105611422859431D+03 0.553049826039559D+02
 0.212599799379634D+03 0.158052401743325D+03 -.840341638188550D+02 -.817872628000392D+02
 0.101971710110187D+02 0.884964903916542D+01 0.369345684990813D+01 0.346761950182343D+01
 0.341845158732128D+02 0.545377847406151D+00 -.252707158904846D+02 0.230146606942598D+02
0.155702997013D-02 0.000000000000D+00 0.000000000000D+00 0.174358074130D-04 0.000000000000D+00  6 1 -2 25 -24 21 21 2 0.19854993D+00 0.73778079D-02 0.52807219D+05 0.52807219D+05 0.52807219D+05 0.11899394D+01  1  2  2  3  6  5       21 0.206773605358D+00 0.100000000000D+01
0.367098632975D-03 0.821667289270D-04 -.597940506069D-05 0.174358074130D-04 0.000000000000D+00  6 1 -2 25 -24 21 21 4 0.19854993D+00 0.73778079D-02 0.52807219D+05 0.52807219D+05 0.52807219D+05 0.11899394D+01  1  2  3  3  6  5       21 0.690288442383D-01 0.100000000000D+01
-.131172828328D-05 0.000000000000D+00 0.000000000000D+00 0.174358074130D-04 0.000000000000D+00  6 1 -2 25 -24 21 21 4 0.19854993D+00 0.73778079D-02 0.52807219D+05 0.52807219D+05 0.52807219D+05 0.11899394D+01  1  2 15  3  6  5       21 -.246656018890D-03 0.100000000000D+01
0.974355460094D-04 0.000000000000D+00 0.000000000000D+00 0.174053049660D-04 0.000000000000D+00  6 1 -2 25 -24 21 21 4 0.19854993D+00 0.73778079D-02 0.54111060D+05 0.54111060D+05 0.54111060D+05 0.11888981D+01  1  2 12  3  6  5       21 0.182546425725D-01 0.100000000000D+01
0.139644806532D-03 0.000000000000D+00 0.000000000000D+00 0.174053049660D-04 0.000000000000D+00  6 1 -2 25 -24 21 21 4 0.19854993D+00 0.73778079D-02 0.54111060D+05 0.54111060D+05 0.54111060D+05 0.11888981D+01  1  2 12  3  6  5       21 0.261625878311D-01 0.100000000000D+01
-.109417938758D-02 0.000000000000D+00 0.000000000000D+00 0.174358074130D-04 0.000000000000D+00  6 1 -2 25 -24 21 21 4 0.19854993D+00 0.73778079D-02 0.52807219D+05 0.52807219D+05 0.52807219D+05 0.11899394D+01  1  2  4  3  6  5       21 -.205748351341D+00 0.100000000000D+01
0.102428801108D-10 0.000000000000D+00 0.000000000000D+00 0.174358074130D-04 0.604871164984D-06  6 1 -2 25 -24 21 21 4 0.19854993D+00 0.73778079D-02 0.54111060D+05 0.54111060D+05 0.54111060D+05 0.11888981D+01  1  2 11  3  6  5       21 0.191901336825D-08 0.100000000000D+01
0.167175257566D-04 0.000000000000D+00 0.000000000000D+00 0.174053049660D-04 0.000000000000D+00  6 1 -2 25 -24 1 -1 4 0.19854993D+00 0.73778079D-02 0.54111060D+05 0.54111060D+05 0.54111060D+05 0.11888981D+01  1  2 12  6  6  5       21 0.313204441172D-02 0.100000000000D+01
0.205263743461D-04 0.000000000000D+00 0.000000000000D+00 0.174053049660D-04 0.000000000000D+00  6 1 -2 25 -24 1 -1 4 0.19854993D+00 0.73778079D-02 0.54111060D+05 0.54111060D+05 0.54111060D+05 0.11888981D+01  1  2 12  6  6  5       21 0.384563583151D-02 0.100000000000D+01
0.296097311191D-11 0.000000000000D+00 0.000000000000D+00 0.174053049660D-04 0.250493424721D-07  6 1 -2 25 -24 1 -1 4 0.19854993D+00 0.73778079D-02 0.54111060D+05 0.54111060D+05 0.54111060D+05 0.11888981D+01  1  2 11  6  6  5       21 0.554741139536D-09 0.100000000000D+01
0.167175257566D-04 0.000000000000D+00 0.000000000000D+00 0.174053049660D-04 0.000000000000D+00  6 1 -2 25 -24 2 -2 4 0.19854993D+00 0.73778079D-02 0.54111060D+05 0.54111060D+05 0.54111060D+05 0.11888981D+01  1  2 12  7  6  5       21 0.313204441172D-02 0.100000000000D+01
0.205263743461D-04 0.000000000000D+00 0.000000000000D+00 0.174053049660D-04 0.000000000000D+00  6 1 -2 25 -24 2 -2 4 0.19854993D+00 0.73778079D-02 0.54111060D+05 0.54111060D+05 0.54111060D+05 0.11888981D+01  1  2 12  7  6  5       21 0.384563583151D-02 0.100000000000D+01
0.309283907796D-11 0.000000000000D+00 0.000000000000D+00 0.174053049660D-04 0.239115651697D-07  6 1 -2 25 -24 2 -2 4 0.19854993D+00 0.73778079D-02 0.54111060D+05 0.54111060D+05 0.54111060D+05 0.11888981D+01  1  2 11  7  6  5       21 0.579446354176D-09 0.100000000000D+01
0.167175257566D-04 0.000000000000D+00 0.000000000000D+00 0.174053049660D-04 0.000000000000D+00  6 1 -2 25 -24 3 -3 4 0.19854993D+00 0.73778079D-02 0.54111060D+05 0.54111060D+05 0.54111060D+05 0.11888981D+01  1  2 12  8  6  5       21 0.313204441172D-02 0.100000000000D+01
0.167175257566D-04 0.000000000000D+00 0.000000000000D+00 0.174053049660D-04 0.000000000000D+00  6 1 -2 25 -24 4 -4 4 0.19854993D+00 0.73778079D-02 0.54111060D+05 0.54111060D+05 0.54111060D+05 0.11888981D+01  1  2 12  8  6  5       21 0.313204441172D-02 0.100000000000D+01
0.205263743461D-04 0.000000000000D+00 0.000000000000D+00 0.174053049660D-04 0.000000000000D+00  6 1 -2 25 -24 3 -3 4 0.19854993D+00 0.73778079D-02 0.54111060D+05 0.54111060D+05 0.54111060D+05 0.11888981D+01  1  2 12  8  6  5       21 0.384563583151D-02 0.100000000000D+01
0.205263743461D-04 0.000000000000D+00 0.000000000000D+00 0.174053049660D-04 0.000000000000D+00  6 1 -2 25 -24 4 -4 4 0.19854993D+00 0.73778079D-02 0.54111060D+05 0.54111060D+05 0.54111060D+05 0.11888981D+01  1  2 12  8  6  5       21 0.384563583151D-02 0.100000000000D+01
0.309352978905D-11 0.000000000000D+00 0.000000000000D+00 0.174053049660D-04 0.238221271856D-07  6 1 -2 25 -24 3 -3 4 0.19854993D+00 0.73778079D-02 0.54111060D+05 0.54111060D+05 0.54111060D+05 0.11888981D+01  1  2 11  8  6  5       21 0.579575759557D-09 0.100000000000D+01
0.309352978905D-11 0.000000000000D+00 0.000000000000D+00 0.174053049660D-04 0.238221271856D-07  6 1 -2 25 -24 4 -4 4 0.19854993D+00 0.73778079D-02 0.54111060D+05 0.54111060D+05 0.54111060D+05 0.11888981D+01  1  2 11  8  6  5       21 0.579575759557D-09 0.100000000000D+01
  </mgrwgt>
  </event>
  <event>
  5     66 0.42750230E-03 0.25013065E+02 0.75467711E-02 0.11737264E+00
        1 -1    0    0  502    0 0.00000000E+00 0.00000000E+00 0.76760036E+03 0.76760043E+03 0.32000000E+00 0.0000E+00 0.9000E+01
       -2 -1    0    0    0  501 0.00000000E+00 0.00000000E+00 -.44779497E+02 0.44780640E+02 0.32000000E+00 0.0000E+00 0.9000E+01
       25  1    1    2    0    0 0.12143848E+03 0.41917661E+02 0.23132507E+03 0.29264430E+03 0.12500000E+03 0.0000E+00 0.9000E+01
      -24  1    1    2    0    0 -.10336170E+03 -.59194100E+02 0.40788776E+03 0.43246645E+03 0.80419002E+02 0.0000E+00 0.9000E+01
       21  1    1    2  502  501 -.18076773E+02 0.17276438E+02 0.83608028E+02 0.87270326E+02 0.75000000E+00 0.0000E+00 0.9000E+01
#aMCatNLO 1  0  0  5  5 0.46956967D+00 0.00000000D+00  -5  6  0 0.00000000D+00 0.00000000D+00 0.00000000D+00 0.00000000D+00 0.00000000D+00
  <mgrwgt>
 0.2419172462D+00   15    2    0
 0.185400241003170D+03 0.000000000000000D+00 0.000000000000000D+00 0.185400241003170D+03
 0.185400241003170D+03 -.000000000000000D+00 -.000000000000000D+00 -.185400241003170D+03
 0.190217955544308D+03 0.121441755059648D+03 0.419145291206203D+02 -.636627284059160D+02
 0.152365592658226D+03 -.103359079765128D+03 -.591966084727055D+02 0.506035576531648D+02
 0.282169338038053D+02 -.180826752945202D+02 0.172820793520851D+02 0.130591707527512D+02
 0.000000000000000D+00 0.000000000000000D+00 0.000000000000000D+00 0.000000000000000D+00
 0.185400241003170D+03 0.000000000000000D+00 0.000000000000000D+00 0.185400241003170D+03
 0.185400241003170D+03 -.000000000000000D+00 -.000000000000000D+00 -.185400241003170D+03
 0.190173959942532D+03 0.121376011751414D+03 0.419773616966223D+02 -.636152490880557D+02
 0.152394418353784D+03 -.103411751576819D+03 -.591462686632230D+02 0.506415968355050D+02
 0.275714979105791D+02 -.180225172519961D+02 0.166028706681619D+02 0.126380795420373D+02
 0.660605799443906D+00 0.582570774002580D-01 0.566036298438857D+00 0.335572710513443D+00
0.289303521892D-03 0.000000000000D+00 0.000000000000D+00 0.258982592237D-04 0.000000000000D+00  6 1 -2 25 -24 21 21 2 0.11809246D+00 0.68892464D-02 0.30272210D+05 0.30272210D+05 0.30272210D+05 0.12144869D+01  1  2  2  3  6  5       21 0.108783739357D+00 0.100000000000D+01
0.689831382921D-04 0.152669662865D-04 -.111100169943D-05 0.258982592237D-04 0.000000000000D+00  6 1 -2 25 -24 21 21 4 0.11809246D+00 0.68892464D-02 0.30272210D+05 0.30272210D+05 0.30272210D+05 0.12144869D+01  1  2  3  3  6  5       21 0.382594635636D-01 0.100000000000D+01
0.436692976051D-05 0.000000000000D+00 0.000000000000D+00 0.258982592237D-04 0.000000000000D+00  6 1 -2 25 -24 21 21 4 0.11809246D+00 0.68892464D-02 0.30272210D+05 0.30272210D+05 0.30272210D+05 0.12144869D+01  1  2 15  3  6  5       21 0.242198882500D-02 0.100000000000D+01
-.135156330567D-01 0.000000000000D+00 0.000000000000D+00 0.258982592237D-04 0.000000000000D+00  6 1 -2 25 -24 21 21 4 0.11809246D+00 0.68892464D-02 0.30272210D+05 0.30272210D+05 0.30272210D+05 0.12144869D+01  1  2  4  3  6  5       21 -.749604734249D+01 0.100000000000D+01
-.135274548088D-01 0.000000000000D+00 0.000000000000D+00 0.258982592237D-04 0.000000000000D+00  6 1 -2 25 -24 21 21 4 0.11809246D+00 0.68892464D-02 0.30272210D+05 0.30272210D+05 0.30272210D+05 0.12144869D+01  1  2  5  3  6  5       21 -.750260392869D+01 0.100000000000D+01
0.142308402119D-01 0.000000000000D+00 -.000000000000D+00 0.258982592237D-04 0.000000000000D+00  6 1 -2 25 -24 21 21 4 0.11809246D+00 0.68892464D-02 0.30272210D+05 0.30272210D+05 0.30272210D+05 0.12144869D+01  1  2  6  3  6  5       21 0.789271590199D+01 0.100000000000D+01
0.129788843902D-01 0.000000000000D+00 0.000000000000D+00 0.258982592237D-04 0.843104596574D-03  6 1 -2 25 -24 21 21 4 0.11809246D+00 0.68892464D-02 0.30280512D+05 0.30280512D+05 0.30280512D+05 0.12144744D+01  1  2 11  3  6  5       21 0.719808420948D+01 0.100000000000D+01
-.268219363825D-04 0.000000000000D+00 0.000000000000D+00 0.258982592237D-04 0.000000000000D+00  6 1 -2 25 -24 1 -1 4 0.11809246D+00 0.68892464D-02 0.30272210D+05 0.30272210D+05 0.30272210D+05 0.12144869D+01  1  2  5  6  6  5       21 -.148759961222D-01 0.100000000000D+01
0.269554253478D-04 0.000000000000D+00 0.000000000000D+00 0.258982592237D-04 0.338671568494D-05  6 1 -2 25 -24 1 -1 4 0.11809246D+00 0.68892464D-02 0.30280512D+05 0.30280512D+05 0.30280512D+05 0.12144744D+01  1  2 11  6  6  5       21 0.149494683613D-01 0.100000000000D+01
-.268219363825D-04 0.000000000000D+00 0.000000000000D+00 0.258982592237D-04 0.000000000000D+00  6 1 -2 25 -24 2 -2 4 0.11809246D+00 0.68892464D-02 0.30272210D+05 0.30272210D+05 0.30272210D+05 0.12144869D+01  1  2  5  7  6  5       21 -.148759961222D-01 0.100000000000D+01
0.269889345597D-04 0.000000000000D+00 0.000000000000D+00 0.258982592237D-04 0.340863687750D-05  6 1 -2 25 -24 2 -2 4 0.11809246D+00 0.68892464D-02 0.30280512D+05 0.30280512D+05 0.30280512D+05 0.12144744D+01  1  2 11  7  6  5       21 0.149680525571D-01 0.100000000000D+01
-.268219363825D-04 0.000000000000D+00 0.000000000000D+00 0.258982592237D-04 0.000000000000D+00  6 1 -2 25 -24 3 -3 4 0.11809246D+00 0.68892464D-02 0.30272210D+05 0.30272210D+05 0.30272210D+05 0.12144869D+01  1  2  5  8  6  5       21 -.148759961222D-01 0.100000000000D+01
-.268219363825D-04 0.000000000000D+00 0.000000000000D+00 0.258982592237D-04 0.000000000000D+00  6 1 -2 25 -24 4 -4 4 0.11809246D+00 0.68892464D-02 0.30272210D+05 0.30272210D+05 0.30272210D+05 0.12144869D+01  1  2  5  8  6  5       21 -.148759961222D-01 0.100000000000D+01
0.269470779172D-04 0.000000000000D+00 0.000000000000D+00 0.258982592237D-04 0.338535688599D-05  6 1 -2 25 -24 3 -3 4 0.11809246D+00 0.68892464D-02 0.30280512D+05 0.30280512D+05 0.30280512D+05 0.12144744D+01  1  2 11  8  6  5       21 0.149448388795D-01 0.100000000000D+01
0.269470779172D-04 0.000000000000D+00 0.000000000000D+00 0.258982592237D-04 0.338535688599D-05  6 1 -2 25 -24 4 -4 4 0.11809246D+00 0.68892464D-02 0.30280512D+05 0.30280512D+05 0.30280512D+05 0.12144744D+01  1  2 11  8  6  5       21 0.149448388795D-01 0.100000000000D+01
  </mgrwgt>
  </event>
  <event>
  5     66 0.42750230E-03 0.29132569E+02 0.75467711E-02 0.11283787E+00
        1 -1    0    0  502    0 0.00000000E+00 0.00000000E+00 0.50523789E+02 0.50524803E+02 0.32000000E+00 0.0000E+00 0.9000E+01
       -2 -1    0    0    0  501 -.00000000E+00 -.00000000E+00 -.10820026E+04 0.10820026E+04 0.32000000E+00 0.0000E+00 0.9000E+01
       25  1    1    2    0    0 -.29075167E+02 -.16597865E+03 -.60984811E+03 0.64492945E+03 0.12500000E+03 0.0000E+00 0.9000E+01
      -24  1    1    2    0    0 0.36096575E+02 0.19424589E+03 -.39047927E+03 0.44494460E+03 0.80419002E+02 0.0000E+00 0.9000E+01
       21  1    1    2  502  501 -.70214072E+01 -.28267241E+02 -.31151390E+02 0.42653355E+02 0.75000000E+00 0.0000E+00 0.9000E+01
#aMCatNLO 1  0  0  5  2 0.71486849D+01 0.00000000D+00  -5  6  0 0.00000000D+00 0.00000000D+00 0.00000000D+00 0.00000000D+00 0.00000000D+00
  <mgrwgt>
 0.1073778356D+00   19    2    0
 0.233810757103194D+03 0.000000000000000D+00 0.000000000000000D+00 0.233810757103194D+03
 0.233810757103194D+03 -.000000000000000D+00 -.000000000000000D+00 -.233810757103194D+03
 0.216743633890857D+03 -.290744019710849D+02 -.165975563783813D+03 -.544021526125844D+02
 0.216290476320419D+03 0.360973383112946D+02 0.194248960439626D+03 0.357586035452656D+02
 0.345874039951126D+02 -.702293634020967D+01 -.282733966558135D+02 0.186435490673189D+02
 0.000000000000000D+00 0.000000000000000D+00 0.000000000000000D+00 0.000000000000000D+00
 0.233810757103194D+03 0.000000000000000D+00 0.000000000000000D+00 0.233810757103194D+03
 0.233810757103194D+03 -.000000000000000D+00 -.000000000000000D+00 -.233810757103194D+03
 0.219417943778042D+03 -.301059836426206D+02 -.170128572777388D+03 -.516636480073088D+02
 0.212927824096642D+03 0.350821784382852D+02 0.190162063397099D+03 0.384535137632696D+02
 0.277608612593294D+02 -.121941722702412D+02 -.218066946808501D+02 0.121010597717557D+02
 0.751488507237487D+01 0.721797747457650D+01 0.177320406113850D+01 0.110907447228349D+01
0.239974584320D-02 0.000000000000D+00 0.000000000000D+00 0.182728166552D-04 0.000000000000D+00  6 1 -2 25 -24 21 21 2 0.77729723D-02 0.16646201D+00 0.51132924D+05 0.51132924D+05 0.51132924D+05 0.11913193D+01  1  2  2  3  6  5       21 0.651494766062D-01 0.100000000000D+01
0.643633368933D-03 0.126638067330D-03 -.921565590549D-05 0.182728166552D-04 0.000000000000D+00  6 1 -2 25 -24 21 21 4 0.77729723D-02 0.16646201D+00 0.51132924D+05 0.51132924D+05 0.51132924D+05 0.11913193D+01  1  2  3  3  6  5       21 0.247993657785D-01 0.100000000000D+01
-.760450132944D-05 0.000000000000D+00 0.000000000000D+00 0.182728166552D-04 0.000000000000D+00  6 1 -2 25 -24 21 21 4 0.77729723D-02 0.16646201D+00 0.51132924D+05 0.51132924D+05 0.51132924D+05 0.11913193D+01  1  2 15  3  6  5       21 -.293003469265D-03 0.100000000000D+01
0.428753184033D-03 0.000000000000D+00 0.000000000000D+00 0.182563473000D-04 0.000000000000D+00  6 1 -2 25 -24 21 21 4 0.77729723D-02 0.16646201D+00 0.51777388D+05 0.51777388D+05 0.51777388D+05 0.11907823D+01  1  2 12  3  6  5       21 0.164906093610D-01 0.100000000000D+01
0.592975912921D-03 0.000000000000D+00 0.000000000000D+00 0.182563473000D-04 0.000000000000D+00  6 1 -2 25 -24 21 21 4 0.77729723D-02 0.16646201D+00 0.51777388D+05 0.51777388D+05 0.51777388D+05 0.11907823D+01  1  2 12  3  6  5       21 0.228069073412D-01 0.100000000000D+01
-.807841586499D-03 0.000000000000D+00 0.000000000000D+00 0.182728166552D-04 0.000000000000D+00  6 1 -2 25 -24 21 21 4 0.77729723D-02 0.16646201D+00 0.51132924D+05 0.51132924D+05 0.51132924D+05 0.11913193D+01  1  2  4  3  6  5       21 -.311263523020D-01 0.100000000000D+01
0.531859586675D-04 0.000000000000D+00 0.000000000000D+00 0.182728166552D-04 0.907946372956D-06  6 1 -2 25 -24 21 21 4 0.77729723D-02 0.16646201D+00 0.51777388D+05 0.51777388D+05 0.51777388D+05 0.11907823D+01  1  2 11  3  6  5       21 0.204562648288D-02 0.100000000000D+01
0.223357860227D-04 0.000000000000D+00 0.000000000000D+00 0.182563473000D-04 0.000000000000D+00  6 1 -2 25 -24 1 -1 4 0.77729723D-02 0.16646201D+00 0.51777388D+05 0.51777388D+05 0.51777388D+05 0.11907823D+01  1  2 12  6  6  5       21 0.859074021577D-03 0.100000000000D+01
0.251747947474D-04 0.000000000000D+00 0.000000000000D+00 0.182563473000D-04 0.000000000000D+00  6 1 -2 25 -24 1 -1 4 0.77729723D-02 0.16646201D+00 0.51777388D+05 0.51777388D+05 0.51777388D+05 0.11907823D+01  1  2 12  6  6  5       21 0.968267342107D-03 0.100000000000D+01
0.127854419149D-05 0.000000000000D+00 0.000000000000D+00 0.182563473000D-04 0.350593507462D-07  6 1 -2 25 -24 1 -1 4 0.77729723D-02 0.16646201D+00 0.51777388D+05 0.51777388D+05 0.51777388D+05 0.11907823D+01  1  2 11  6  6  5       21 0.491750816038D-04 0.100000000000D+01
0.223357860227D-04 0.000000000000D+00 0.000000000000D+00 0.182563473000D-04 0.000000000000D+00  6 1 -2 25 -24 2 -2 4 0.77729723D-02 0.16646201D+00 0.51777388D+05 0.51777388D+05 0.51777388D+05 0.11907823D+01  1  2 12  7  6  5       21 0.859074021577D-03 0.100000000000D+01
0.251747947474D-04 0.000000000000D+00 0.000000000000D+00 0.182563473000D-04 0.000000000000D+00  6 1 -2 25 -24 2 -2 4 0.77729723D-02 0.16646201D+00 0.51777388D+05 0.51777388D+05 0.51777388D+05 0.11907823D+01  1  2 12  7  6  5       21 0.968267342107D-03 0.100000000000D+01
0.124295724426D-05 0.000000000000D+00 0.000000000000D+00 0.182563473000D-04 0.353363200311D-07  6 1 -2 25 -24 2 -2 4 0.77729723D-02 0.16646201D+00 0.51777388D+05 0.51777388D+05 0.51777388D+05 0.11907823D+01  1  2 11  7  6  5       21 0.478063443743D-04 0.100000000000D+01
0.223357860227D-04 0.000000000000D+00 0.000000000000D+00 0.182563473000D-04 0.000000000000D+00  6 1 -2 25 -24 3 -3 4 0.77729723D-02 0.16646201D+00 0.51777388D+05 0.51777388D+05 0.51777388D+05 0.11907823D+01  1  2 12  8  6  5       21 0.859074021577D-03 0.100000000000D+01
0.223357860227D-04 0.000000000000D+00 0.000000000000D+00 0.182563473000D-04 0.000000000000D+00  6 1 -2 25 -24 4 -4 4 0.77729723D-02 0.16646201D+00 0.51777388D+05 0.51777388D+05 0.51777388D+05 0.11907823D+01  1  2 12  8  6  5       21 0.859074021577D-03 0.100000000000D+01
0.251747947474D-04 0.000000000000D+00 0.000000000000D+00 0.182563473000D-04 0.000000000000D+00  6 1 -2 25 -24 3 -3 4 0.77729723D-02 0.16646201D+00 0.51777388D+05 0.51777388D+05 0.51777388D+05 0.11907823D+01  1  2 12  8  6  5       21 0.968267342107D-03 0.100000000000D+01
0.251747947474D-04 0.000000000000D+00 0.000000000000D+00 0.182563473000D-04 0.000000000000D+00  6 1 -2 25 -24 4 -4 4 0.77729723D-02 0.16646201D+00 0.51777388D+05 0.51777388D+05 0.51777388D+05 0.11907823D+01  1  2 12  8  6  5       21 0.968267342107D-03 0.100000000000D+01
0.128515808160D-05 0.000000000000D+00 0.000000000000D+00 0.182563473000D-04 0.343454675233D-07  6 1 -2 25 -24 3 -3 4 0.77729723D-02 0.16646201D+00 0.51777388D+05 0.51777388D+05 0.51777388D+05 0.11907823D+01  1  2 11  8  6  5       21 0.494294635704D-04 0.100000000000D+01
0.128515808160D-05 0.000000000000D+00 0.000000000000D+00 0.182563473000D-04 0.343454675233D-07  6 1 -2 25 -24 4 -4 4 0.77729723D-02 0.16646201D+00 0.51777388D+05 0.51777388D+05 0.51777388D+05 0.11907823D+01  1  2 11  8  6  5       21 0.494294635704D-04 0.100000000000D+01
  </mgrwgt>
  </event>
  <event>
  5     66 0.42750230E-03 0.26599176E+02 0.75467711E-02 0.93893758E-01
        1 -1    0    0  502    0 0.00000000E+00 0.00000000E+00 0.48350963E+03 0.48350974E+03 0.32000000E+00 0.0000E+00 0.9000E+01
       -2 -1    0    0    0  501 0.00000000E+00 0.00000000E+00 -.40156431E+02 0.40157706E+02 0.32000000E+00 0.0000E+00 0.9000E+01
       25  1    1    2    0    0 -.20328005E+02 -.59815280E+02 0.19264707E+03 0.23817848E+03 0.12500000E+03 0.0000E+00 0.9000E+01
      -24  1    1    2    0    0 0.46328263E+02 0.54237624E+02 0.17649286E+03 0.20665182E+03 0.80419002E+02 0.0000E+00 0.9000E+01
       21  1    1    2  502  501 -.26000257E+02 0.55776555E+01 0.74213267E+02 0.78837143E+02 0.75000000E+00 0.0000E+00 0.9000E+01
#aMCatNLO 1  0  0  1  5 0.30053396D+00 0.00000000D+00  -5  6  0 0.00000000D+00 0.00000000D+00 0.00000000D+00 0.00000000D+00 0.00000000D+00
  <mgrwgt>
 0.3665789971D+00    3    2    0
 0.139342681792279D+03 0.000000000000000D+00 0.000000000000000D+00 0.139342681792279D+03
 0.139342681792279D+03 0.000000000000000D+00 0.000000000000000D+00 -.139342681792279D+03
 0.141075348714697D+03 -.203239111137669D+02 -.598161582292752D+02 -.169180337717901D+02
 0.107534971012810D+03 0.463313836715753D+02 0.542369549152332D+02 0.288264547866115D+01
 0.300750438570499D+02 -.260074725578084D+02 0.557920331404197D+01 0.140353882931290D+02
 0.000000000000000D+00 -.000000000000000D+00 -.000000000000000D+00 -.000000000000000D+00
 0.821327753404452D+03 0.000000000000000D+00 0.000000000000000D+00 0.821327753404452D+03
 0.107508176406196D+04 0.000000000000000D+00 0.000000000000000D+00 -.107508176406196D+04
 0.308222060363510D+03 0.239691218514488D+03 0.147097717164691D+03 -.169180337717901D+02
 0.595882661494880D+03 0.453409686826115D+03 0.378180217043594D+03 0.288264547866115D+01
 0.475999227985123D+02 0.189441922320077D+02 0.413506723834350D+02 0.140353882931290D+02
 0.944704872809511D+03 -.712045097572611D+03 -.566628606591721D+03 -.253754010657510D+03
0.335337314953D-03 0.000000000000D+00 0.000000000000D+00 0.318115631500D-04 0.000000000000D+00  6 1 -2 25 -24 21 21 2 0.74386203D-01 0.61780188D-02 0.18789933D+05 0.18789933D+05 0.18789933D+05 0.12368212D+01  1  2  2  1  6  1        1 0.289582767971D+00 0.100000000000D+01
0.500708510211D-04 0.176962362867D-04 -.128778358576D-05 0.318115631500D-04 0.000000000000D+00  6 1 -2 25 -24 21 21 4 0.74386203D-01 0.61780188D-02 0.18789933D+05 0.18789933D+05 0.18789933D+05 0.12368212D+01  1  2  3  1  6  1        1 0.661438820406D-01 0.100000000000D+01
0.821521561154D-05 0.000000000000D+00 0.000000000000D+00 0.318115631500D-04 0.000000000000D+00  6 1 -2 25 -24 21 21 4 0.74386203D-01 0.61780188D-02 0.18789933D+05 0.18789933D+05 0.18789933D+05 0.12368212D+01  1  2 15  1  6  1        1 0.108523470496D-01 0.100000000000D+01
  </mgrwgt>
  </event>
  <event>
  5     66 0.42750230E-03 0.44742757E+02 0.75467711E-02 0.10295976E+00
        1 -1    0    0  502    0 0.00000000E+00 0.00000000E+00 0.43167317E+03 0.43167329E+03 0.32000000E+00 0.0000E+00 0.9000E+01
       -2 -1    0    0    0  501 0.00000000E+00 0.00000000E+00 -.50032248E+03 0.50032258E+03 0.32000000E+00 0.0000E+00 0.9000E+01
       25  1    1    2    0    0 0.74155889E+02 -.38569015E+03 -.48177942E+02 0.41497241E+03 0.12500000E+03 0.0000E+00 0.9000E+01
      -24  1    1    2    0    0 -.46626950E+02 0.35041957E+03 0.11018702E+03 0.37891469E+03 0.80419002E+02 0.0000E+00 0.9000E+01
       21  1    1    2  502  501 -.27528939E+02 0.35270574E+02 -.13065839E+03 0.13810877E+03 0.75000000E+00 0.0000E+00 0.9000E+01
#aMCatNLO 1  0  0  2  2 0.68609402D+02 0.00000000D+00  -5  6  0 0.00000000D+00 0.00000000D+00 0.00000000D+00 0.00000000D+00 0.00000000D+00
  <mgrwgt>
 0.1588412111D+01    7    4    0
 0.464732067650185D+03 0.000000000000000D+00 0.000000000000000D+00 0.464732067650185D+03
 0.464732067650185D+03 0.000000000000000D+00 0.000000000000000D+00 -.464732067650185D+03
 0.412544610061906D+03 0.741560960786296D+02 -.385690413669400D+03 -.176588082563492D+02
 0.388085168794688D+03 -.466267551163453D+02 0.350419324644987D+03 0.138474275252491D+03
 0.128834356443775D+03 -.275293409622843D+02 0.352710890244133D+02 -.120815466996142D+03
 0.000000000000000D+00 0.000000000000000D+00 0.000000000000000D+00 -.000000000000000D+00
 0.486479630885563D+03 0.000000000000000D+00 0.000000000000000D+00 0.486479630885563D+03
 0.523449138970371D+03 0.000000000000000D+00 0.000000000000000D+00 -.523449138970371D+03
 0.435261603382044D+03 0.580760790003006D+02 -.412483937769248D+03 -.176588082563492D+02
 0.368733158561330D+03 -.609810396640389D+02 0.326501323371032D+03 0.138474275252491D+03
 0.127998171940907D+03 -.324005855665433D+02 0.271543184348867D+02 -.120815466996142D+03
 0.779358359716523D+02 0.353055462302816D+02 0.588282959633292D+02 -.369695080848078D+02
 0.464732067650185D+03 0.000000000000000D+00 0.000000000000000D+00 0.464732067650185D+03
 0.464732067650185D+03 0.000000000000000D+00 0.000000000000000D+00 -.464732067650185D+03
 0.412544610061906D+03 0.741560960786296D+02 -.385690413669400D+03 -.176588082563492D+02
 0.388085168794688D+03 -.466267551163453D+02 0.350419324644987D+03 0.138474275252491D+03
 0.000000000000000D+00 0.000000000000000D+00 0.000000000000000D+00 -.000000000000000D+00
 0.128834356443775D+03 -.275293409622843D+02 0.352710890244133D+02 -.120815466996142D+03
 0.486479630885563D+03 0.000000000000000D+00 0.000000000000000D+00 0.486479630885563D+03
 0.523449138970371D+03 0.000000000000000D+00 0.000000000000000D+00 -.523449138970371D+03
 0.435261603382044D+03 0.580760790003006D+02 -.412483937769248D+03 -.176588082563492D+02
 0.368733158561330D+03 -.609810396640389D+02 0.326501323371032D+03 0.138474275252491D+03
 0.779358359716523D+02 0.353055462302816D+02 0.588282959633292D+02 -.369695080848078D+02
 0.127998171940907D+03 -.324005855665433D+02 0.271543184348867D+02 -.120815466996142D+03
0.844896653756D-01 0.000000000000D+00 0.000000000000D+00 0.689890286985D-05 0.000000000000D+00  6 1 -2 25 -24 21 21 2 0.66411274D-01 0.76972706D-01 0.16787411D+06 0.16787411D+06 0.16787411D+06 0.11434531D+01  1  2  2  2  6  2       -2 0.821986630488D+00 0.100000000000D+01
0.200785979353D-01 0.445864213615D-02 -.324462561682D-03 0.689890286985D-05 0.000000000000D+00  6 1 -2 25 -24 21 21 4 0.66411274D-01 0.76972706D-01 0.16787411D+06 0.16787411D+06 0.16787411D+06 0.11434531D+01  1  2  3  2  6  2       -2 0.255406096958D+00 0.100000000000D+01
0.599339034480D-03 0.000000000000D+00 0.000000000000D+00 0.689890286985D-05 0.000000000000D+00  6 1 -2 25 -24 21 21 4 0.66411274D-01 0.76972706D-01 0.16787411D+06 0.16787411D+06 0.16787411D+06 0.11434531D+01  1  2 15  2  6  2       -2 0.762378150328D-02 0.100000000000D+01
-.350115815228D-01 0.000000000000D+00 0.000000000000D+00 0.689890286985D-05 0.000000000000D+00  6 1 -2 25 -24 21 21 4 0.66411274D-01 0.76972706D-01 0.16787411D+06 0.16787411D+06 0.16787411D+06 0.11434531D+01  1  2  4  2  6  2       -2 -.445358356887D+00 0.100000000000D+01
-.514723601138D+00 0.000000000000D+00 -.112073299252D+00 0.689890286985D-05 0.000000000000D+00  6 1 -2 25 -24 21 21 4 0.66411274D-01 0.89743257D-01 0.16787411D+06 0.16787411D+06 0.16787411D+06 0.11434531D+01  1  2  5  2  6  2       -2 -.463767667426D+01 0.100000000000D+01
0.527013445823D+00 0.000000000000D+00 0.110765755645D+00 0.689890286985D-05 0.000000000000D+00  6 1 -2 25 -24 21 21 4 0.66411274D-01 0.76972706D-01 0.16787411D+06 0.16787411D+06 0.16787411D+06 0.11434531D+01  1  2  6  2  6  2       -2 0.670377720973D+01 0.100000000000D+01
-.111515684432D-01 0.000000000000D+00 -.260460819495D-02 0.689890286985D-05 0.000000000000D+00  6 1 21 25 -24 2 21 4 0.66411274D-01 0.89743257D-01 0.16787411D+06 0.16787411D+06 0.16787411D+06 0.11434531D+01  3  4  5  5  5  2       -2 -.111734657682D+01 0.100000000000D+01
  </mgrwgt>
  </event>
  <event>
  6     66 0.42750230E-03 0.14794526E+02 0.75467711E-02 0.12038495E+00
        1 -1    0    0  503    0 0.00000000E+00 0.00000000E+00 0.97231019E+03 0.97231024E+03 0.32000000E+00 0.0000E+00 0.9000E+01
       -2 -1    0    0    0  501 0.00000000E+00 0.00000000E+00 -.89803086E+02 0.89803656E+02 0.32000000E+00 0.0000E+00 0.9000E+01
       25  1    1    2    0    0 -.33388543E+02 0.60344784E+02 -.79572749E+01 0.14298464E+03 0.12500000E+03 0.0000E+00 0.9000E+01
      -24  1    1    2    0    0 0.64126569E+02 -.61245917E+02 0.24475195E+03 0.27245919E+03 0.80419002E+02 0.0000E+00 0.9000E+01
       21  1    1    2  502  501 -.10788701E+02 -.40805779E+01 0.37447171E+03 0.37465006E+03 0.75000000E+00 0.0000E+00 0.9000E+01
       21  1    1    2  503  502 -.19949325E+02 0.49817103E+01 0.27124072E+03 0.27202000E+03 0.75000000E+00 0.0000E+00 0.9000E+01
#aMCatNLO 2  0  0  1  5 0.43201580D+02 0.00000000D+00  -5  6  0 0.00000000D+00 0.00000000D+00 0.00000000D+00 0.00000000D+00 0.00000000D+00
  <mgrwgt>
 0.3033985788D+00    1    2    0
 0.250089471416941D+03 0.000000000000000D+00 0.000000000000000D+00 0.250089471416941D+03
 0.250089471416941D+03 0.000000000000000D+00 0.000000000000000D+00 -.250089471416941D+03
 0.237519758070618D+03 -.428152327237117D+02 0.626988506604450D+02 -.187153267261351D+03
 0.128104584349325D+03 0.589584762062331D+02 -.599553227110385D+02 0.535987494163547D+02
 0.134554600413938D+03 -.161432434825214D+02 -.274352794940655D+01 0.133554517844996D+03
 0.000000000000000D+00 -.000000000000000D+00 0.000000000000000D+00 0.000000000000000D+00
 0.347331980510519D+03 0.000000000000000D+00 0.000000000000000D+00 0.347331980510519D+03
 0.251390024485611D+03 0.000000000000000D+00 0.000000000000000D+00 -.251390024485611D+03
 0.235388242706238D+03 -.333883937197771D+02 0.603447969799003D+02 -.187153267261351D+03
 0.131161452978392D+03 0.641266255905987D+02 -.612459038989418D+02 0.535987494163547D+02
 0.134051710471299D+03 -.107889072395389D+02 -.408060339266026D+01 0.133554517844996D+03
 0.981205988402005D+02 -.199493246312826D+02 0.498171031170176D+01 0.959419560249088D+02
0.226142729258D-02 0.000000000000D+00 0.000000000000D+00 0.588460231674D-04 0.229297707392D-05  6 1 -2 25 -24 21 21 4 0.14958538D+00 0.13815829D-01 0.21692846D+05 0.21692846D+05 0.21692846D+05 0.12299601D+01  1  2  1  1  6  1        1 0.303398578811D+00 0.100000000000D+01
  </mgrwgt>
  </event>
  <event>
  5     66 0.42750230E-03 0.34404128E+02 0.75467711E-02 0.11929578E+00
        1 -1    0    0  502    0 0.00000000E+00 0.00000000E+00 0.11723044E+03 0.11723087E+03 0.32000000E+00 0.0000E+00 0.9000E+01
       -2 -1    0    0    0  501 0.00000000E+00 0.00000000E+00 -.29380230E+03 0.29380248E+03 0.32000000E+00 0.0000E+00 0.9000E+01
       25  1    1    2    0    0 -.54199023E+02 -.73797955E+01 -.19466555E+03 0.23772183E+03 0.12500000E+03 0.0000E+00 0.9000E+01
      -24  1    1    2    0    0 0.83597127E+02 0.25238585E+02 0.47684210E+02 0.12793149E+03 0.80419002E+02 0.0000E+00 0.9000E+01
       21  1    1    2  502  501 -.29398104E+02 -.17858790E+02 -.29590530E+02 0.45380027E+02 0.75000000E+00 0.0000E+00 0.9000E+01
#aMCatNLO 1  0  0  1  2 0.22631551D+02 0.00000000D+00  -5  6  0 0.00000000D+00 0.00000000D+00 0.00000000D+00 0.00000000D+00 0.00000000D+00
  <mgrwgt>
 0.1507213713D+00    4    2    0
 0.185587438540781D+03 0.000000000000000D+00 0.000000000000000D+00 0.185587438540781D+03
 0.185587438540781D+03 0.000000000000000D+00 0.000000000000000D+00 -.185587438540781D+03
 0.170643352406729D+03 -.541961173706204D+02 -.737803052468890D+01 -.102481702016183D+03
 0.164355671002337D+03 0.835999249280472D+02 0.252402853687977D+02 0.113664203612150D+03
 0.361758536724967D+02 -.294038075574268D+02 -.178622548441088D+02 -.111825015959677D+02
 0.000000000000000D+00 0.000000000000000D+00 0.000000000000000D+00 -.000000000000000D+00
 0.187082089946634D+03 0.000000000000000D+00 0.000000000000000D+00 0.187082089946634D+03
 0.297277644904114D+03 0.000000000000000D+00 0.000000000000000D+00 -.297277644904114D+03
 0.171662254630914D+03 -.549958232420288D+02 -.177732901503007D+02 -.102481702016183D+03
 0.162735481887280D+03 0.828357635761041D+02 0.153070637515592D+02 0.113664203612150D+03
 0.374664543603216D+02 -.295758531941535D+02 -.200986509056732D+02 -.111825015959677D+02
 0.112495543972231D+03 0.173591286007822D+01 0.225648773044147D+02 -.110195554957480D+03
0.764207728357D-03 0.000000000000D+00 0.000000000000D+00 0.964608832332D-05 0.000000000000D+00  6 1 -2 25 -24 21 21 2 0.18035499D-01 0.45200401D-01 0.20961527D+05 0.20961527D+05 0.20961527D+05 0.12315873D+01  1  2  2  1  6  1        1 0.136963214093D+00 0.100000000000D+01
0.706235325837D-04 0.403283497842D-04 -.293475889741D-05 0.964608832332D-05 0.000000000000D+00  6 1 -2 25 -24 21 21 4 0.18035499D-01 0.45200401D-01 0.20961527D+05 0.20961527D+05 0.20961527D+05 0.12315873D+01  1  2  3  1  6  1        1 0.191987223279D-01 0.100000000000D+01
0.841781961536D-05 0.000000000000D+00 0.000000000000D+00 0.964608832332D-05 0.000000000000D+00  6 1 -2 25 -24 21 21 4 0.18035499D-01 0.45200401D-01 0.20961527D+05 0.20961527D+05 0.20961527D+05 0.12315873D+01  1  2 15  1  6  1        1 0.228835029188D-02 0.100000000000D+01
-.284312310966D-04 0.000000000000D+00 0.000000000000D+00 0.964608832332D-05 0.000000000000D+00  6 1 -2 25 -24 21 21 4 0.18035499D-01 0.45200401D-01 0.20961527D+05 0.20961527D+05 0.20961527D+05 0.12315873D+01  1  2  4  1  6  1        1 -.772891543789D-02 0.100000000000D+01
  </mgrwgt>
  </event>
  <event>
  5     66 0.42750230E-03 0.64794218E+02 0.75467711E-02 0.11927974E+00
        1 -1    0    0  502    0 0.00000000E+00 0.00000000E+00 0.63239983E+02 0.63240793E+02 0.32000000E+00 0.0000E+00 0.9000E+01
       -2 -1    0    0    0  501 -.00000000E+00 -.00000000E+00 -.51925778E+03 0.51925787E+03 0.32000000E+00 0.0000E+00 0.9000E+01
       25  1    1    2    0    0 -.25585608E+02 -.25639203E+02 -.63209517E+02 0.14468046E+03 0.12500000E+03 0.0000E+00 0.9000E+01
      -24  1    1    2    0    0 0.88501494E+02 0.41113039E+02 -.28891030E+03 0.31537148E+03 0.80419002E+02 0.0000E+00 0.9000E+01
       21  1    1    2  502  501 -.62915886E+02 -.15473836E+02 -.10389798E+03 0.12244673E+03 0.75000000E+00 0.0000E+00 0.9000E+01
#aMCatNLO 1  0  0  5  1 0.13545803D+02 0.00000000D+00  -5  6  0 0.00000000D+00 0.00000000D+00 0.00000000D+00 0.00000000D+00 0.00000000D+00
  <mgrwgt>
 0.5459826226D-01    4    2    0
 0.181212906640117D+03 0.000000000000000D+00 0.000000000000000D+00 0.181212906640117D+03
 0.181212906640117D+03 -.000000000000000D+00 -.000000000000000D+00 -.181212906640117D+03
 0.153000822528181D+03 -.255838967555795D+02 -.256387816431636D+02 0.804510335356473D+02
 0.143355064814021D+03 0.885030972724560D+02 0.411134333637560D+02 -.675303341002226D+02
 0.660699259380328D+02 -.629192005168766D+02 -.154746517205924D+02 -.129206994354248D+02
 0.000000000000000D+00 0.000000000000000D+00 0.000000000000000D+00 0.000000000000000D+00
 0.181212906640117D+03 0.000000000000000D+00 0.000000000000000D+00 0.181212906640117D+03
 0.181212906640117D+03 -.000000000000000D+00 -.000000000000000D+00 -.181212906640117D+03
 0.154865758577093D+03 -.383848000818088D+02 -.287870975635040D+02 0.778223188822281D+02
 0.136841745160817D+03 0.768526860328571D+02 0.382480750176004D+02 -.699227907857708D+02
 0.174967706400964D+02 0.651855168724026D+01 0.102978017862752D+02 0.125539135373597D+02
 0.532215389022276D+02 -.449864376382886D+02 -.197587792403716D+02 -.204534416338170D+02
0.528148543945D-03 0.000000000000D+00 0.000000000000D+00 0.379859883094D-05 0.000000000000D+00  6 1 -2 25 -24 21 21 2 0.97292980D-02 0.79885882D-01 0.25822701D+05 0.25822701D+05 0.25822701D+05 0.12217929D+01  1  2  2  3  6  5       21 0.648089073335D-01 0.100000000000D+01
-.104152534070D-04 0.278711643810D-04 -.202822947345D-05 0.379859883094D-05 0.000000000000D+00  6 1 -2 25 -24 21 21 4 0.97292980D-02 0.79885882D-01 0.25822701D+05 0.25822701D+05 0.25822701D+05 0.12217929D+01  1  2  3  3  6  5       21 -.190784753326D-02 0.100000000000D+01
0.110164001823D-04 0.000000000000D+00 0.000000000000D+00 0.379859883094D-05 0.000000000000D+00  6 1 -2 25 -24 21 21 4 0.97292980D-02 0.79885882D-01 0.25822701D+05 0.25822701D+05 0.25822701D+05 0.12217929D+01  1  2 15  3  6  5       21 0.201796452682D-02 0.100000000000D+01
-.563427372300D-04 0.000000000000D+00 0.000000000000D+00 0.379859883094D-05 0.000000000000D+00  6 1 -2 25 -24 21 21 4 0.97292980D-02 0.79885882D-01 0.25822701D+05 0.25822701D+05 0.25822701D+05 0.12217929D+01  1  2  4  3  6  5       21 -.103207620632D-01 0.100000000000D+01
  </mgrwgt>
  </event>
  <event>
  6     66 -.42750230E-03 0.80664511E+02 0.75467711E-02 0.11740518E+00
        1 -1    0    0  502    0 0.00000000E+00 0.00000000E+00 0.11049742E+04 0.11049743E+04 0.32000000E+00 0.0000E+00 0.9000E+01
       -2 -1    0    0    0  501 0.00000000E+00 0.00000000E+00 -.29311203E+02 0.29312950E+02 0.32000000E+00 0.0000E+00 0.9000E+01
       25  1    1    2    0    0 -.36405721E+02 0.87640991E+02 0.43546393E+03 0.46288244E+03 0.12500000E+03 0.0000E+00 0.9000E+01
      -24  1    1    2    0    0 0.60745267E+02 -.41398399E+01 0.22849743E+03 0.24977073E+03 0.80419002E+02 0.0000E+00 0.9000E+01
       21  1    1    2  502  503 -.12626153E+02 -.13261796E+02 0.57696456E+02 0.60537084E+02 0.75000000E+00 0.0000E+00 0.9000E+01
       21  1    1    2  503  501 -.11713393E+02 -.70239355E+02 0.35400519E+03 0.36109695E+03 0.75000000E+00 0.0000E+00 0.9000E+01
#aMCatNLO 2  0  0  5  1 0.96771655D+01 0.00000000D+00  -5  6  0 0.00000000D+00 0.00000000D+00 0.00000000D+00 0.00000000D+00 0.00000000D+00
  <mgrwgt>
 -.1090063293D-02    3    2    0
 0.179969830889677D+03 0.000000000000000D+00 0.000000000000000D+00 0.179969830889677D+03
 0.179969830889677D+03 -.000000000000000D+00 -.000000000000000D+00 -.179969830889677D+03
 0.158082899206763D+03 -.359879435884987D+02 0.890742506062465D+02 -.116554200620222D+02
 0.104491051391679D+03 0.610217604050347D+02 -.319128140595370D+01 -.267829114665758D+02
 0.973657111809118D+02 -.250338168165360D+02 -.858829692002928D+02 0.384383315285979D+02
 0.000000000000000D+00 0.000000000000000D+00 0.000000000000000D+00 0.000000000000000D+00
 0.179969830889677D+03 0.000000000000000D+00 0.000000000000000D+00 0.179969830889677D+03
 0.179969830889677D+03 -.000000000000000D+00 -.000000000000000D+00 -.179969830889677D+03
 0.157370566777334D+03 -.363828513407479D+02 0.877194491961406D+02 -.110490564693102D+02
 0.104267665061493D+03 0.607604209544765D+02 -.408785295745131D+01 -.263816361630263D+02
 0.175655638273752D+02 -.120993778892154D+02 -.127043799748072D+02 0.867650115701820D+00
 0.807358661131510D+02 -.122781917245132D+02 -.709272162638821D+02 0.365630425166347D+02
-.962822353645D-05 0.000000000000D+00 0.000000000000D+00 0.317528872929D-05 0.000000000000D+00  6 1 -2 25 -24 21 21 4 0.16999617D+00 0.45095538D-02 0.30168804D+05 0.30168804D+05 0.30168804D+05 0.12146427D+01  1  2 13  3  6  5       21 -.560820052138D-02 0.100000000000D+01
-.101813447795D-04 0.000000000000D+00 0.000000000000D+00 0.317528872929D-05 0.000000000000D+00  6 1 -2 25 -24 21 21 4 0.16999617D+00 0.45095538D-02 0.30168804D+05 0.30168804D+05 0.30168804D+05 0.12146427D+01  1  2 13  3  6  5       21 -.593037987584D-02 0.100000000000D+01
0.179381350432D-04 0.000000000000D+00 0.000000000000D+00 0.317429374970D-05 0.208377950377D-06  6 1 -2 25 -24 21 21 4 0.16999617D+00 0.45095538D-02 0.30168804D+05 0.30168804D+05 0.30168804D+05 0.12146427D+01  1  2  1  3  6  5       21 0.104485171040D-01 0.100000000000D+01
  </mgrwgt>
  </event>
  <event>
  5     66 0.42750230E-03 0.30385769E+02 0.75467711E-02 0.11385507E+00
        1 -1    0    0  502    0 0.00000000E+00 0.00000000E+00 0.97394265E+02 0.97394790E+02 0.32000000E+00 0.0000E+00 0.9000E+01
       -2 -1    0    0    0  501 0.00000000E+00 0.00000000E+00 -.29587308E+03 0.29587325E+03 0.32000000E+00 0.0000E+00 0.9000E+01
       25  1    1    2    0    0 0.10509324E+02 -.97358790E+02 -.98291892E+02 0.18674977E+03 0.12500000E+03 0.0000E+00 0.9000E+01
      -24  1    1    2    0    0 0.17115639E+02 0.11000273E+03 -.46803809E+02 0.14509086E+03 0.80419002E+02 0.0000E+00 0.9000E+01
       21  1    1    2  502  501 -.27624963E+02 -.12643939E+02 -.53383115E+02 0.61427414E+02 0.75000000E+00 0.0000E+00 0.9000E+01
#aMCatNLO 1  0  0  2  5 0.91433323D+02 0.00000000D+00  -5  6  0 0.00000000D+00 0.00000000D+00 0.00000000D+00 0.00000000D+00 0.00000000D+00
  <mgrwgt>
 0.1133008912D+00    7    4    0
 0.169754170989701D+03 0.000000000000000D+00 0.000000000000000D+00 0.169754170989701D+03
 0.169754170989701D+03 0.000000000000000D+00 0.000000000000000D+00 -.169754170989701D+03
 0.158858160324099D+03 0.105116029013656D+02 -.973577473790416D+02 -.467871042916010D+01
 0.140704946911090D+03 0.171176574769600D+02 0.110003653295204D+03 0.306079760045019D+02
 0.399452347442138D+02 -.276292603783256D+02 -.126459059161623D+02 -.259292655753418D+02
 0.000000000000000D+00 -.000000000000000D+00 -.000000000000000D+00 -.000000000000000D+00
 0.218596784748511D+03 0.000000000000000D+00 0.000000000000000D+00 0.218596784748511D+03
 0.224640938242652D+03 0.000000000000000D+00 0.000000000000000D+00 -.224640938242652D+03
 0.152349325998837D+03 0.447882264988931D+02 -.745482499332071D+02 -.467871042916010D+01
 0.165968445211438D+03 0.508948925729466D+02 0.132480830939528D+03 0.306079760045019D+02
 0.332870735456247D+02 -.195633995724447D+02 -.727845101131373D+01 -.259292655753418D+02
 0.916328782352621D+02 -.761197194993950D+02 -.506541299950070D+02 -.604415349414059D+01
 0.169754170989701D+03 0.000000000000000D+00 0.000000000000000D+00 0.169754170989701D+03
 0.169754170989701D+03 0.000000000000000D+00 0.000000000000000D+00 -.169754170989701D+03
 0.158858160324099D+03 0.105116029013656D+02 -.973577473790416D+02 -.467871042916010D+01
 0.140704946911090D+03 0.171176574769600D+02 0.110003653295204D+03 0.306079760045019D+02
 0.000000000000000D+00 -.000000000000000D+00 -.000000000000000D+00 -.000000000000000D+00
 0.399452347442138D+02 -.276292603783256D+02 -.126459059161623D+02 -.259292655753418D+02
 0.218596784748511D+03 0.000000000000000D+00 0.000000000000000D+00 0.218596784748511D+03
 0.224640938242652D+03 0.000000000000000D+00 0.000000000000000D+00 -.224640938242652D+03
 0.152349325998837D+03 0.447882264988931D+02 -.745482499332071D+02 -.467871042916010D+01
 0.165968445211438D+03 0.508948925729466D+02 0.132480830939528D+03 0.306079760045019D+02
 0.916328782352621D+02 -.761197194993950D+02 -.506541299950070D+02 -.604415349414059D+01
 0.332870735456247D+02 -.195633995724447D+02 -.727845101131373D+01 -.259292655753418D+02
0.245075024839D-03 0.000000000000D+00 0.000000000000D+00 0.210244083093D-04 0.000000000000D+00  6 1 -2 25 -24 21 21 2 0.14983787D-01 0.45518989D-01 0.26652276D+05 0.26652276D+05 0.26652276D+05 0.12203289D+01  1  2  2  2  6  2       -2 0.542942688782D-01 0.100000000000D+01
0.350330806768D-04 0.129329643739D-04 -.941152625119D-06 0.210244083093D-04 0.000000000000D+00  6 1 -2 25 -24 21 21 4 0.14983787D-01 0.45518989D-01 0.26652276D+05 0.26652276D+05 0.26652276D+05 0.12203289D+01  1  2  3  2  6  2       -2 0.115581166244D-01 0.100000000000D+01
-.109144685917D-05 0.000000000000D+00 0.000000000000D+00 0.210244083093D-04 0.000000000000D+00  6 1 -2 25 -24 21 21 4 0.14983787D-01 0.45518989D-01 0.26652276D+05 0.26652276D+05 0.26652276D+05 0.12203289D+01  1  2 15  2  6  2       -2 -.360090230259D-03 0.100000000000D+01
-.142846693422D-04 0.000000000000D+00 0.000000000000D+00 0.210244083093D-04 0.000000000000D+00  6 1 -2 25 -24 21 21 4 0.14983787D-01 0.45518989D-01 0.26652276D+05 0.26652276D+05 0.26652276D+05 0.12203289D+01  1  2  4  2  6  2       -2 -.471279918890D-02 0.100000000000D+01
-.205694285021D-03 0.000000000000D+00 -.135059579676D-03 0.210244083093D-04 0.000000000000D+00  6 1 -2 25 -24 21 21 4 0.14983787D-01 0.75272496D-01 0.26652276D+05 0.26652276D+05 0.26652276D+05 0.12203289D+01  1  2  5  2  6  2       -2 -.241724761070D-01 0.100000000000D+01
0.256006396256D-03 0.000000000000D+00 0.119607851046D-03 0.210244083093D-04 0.000000000000D+00  6 1 -2 25 -24 21 21 4 0.14983787D-01 0.45518989D-01 0.26652276D+05 0.26652276D+05 0.26652276D+05 0.12203289D+01  1  2  6  2  6  2       -2 0.844616495996D-01 0.100000000000D+01
-.551981303445D-05 0.000000000000D+00 -.765106414017D-05 0.210244083093D-04 0.000000000000D+00  6 1 21 25 -24 2 21 4 0.14983787D-01 0.75272496D-01 0.26652276D+05 0.26652276D+05 0.26652276D+05 0.12203289D+01  3  4  5  5  5  2       -2 -.776777841491D-02 0.100000000000D+01
  </mgrwgt>
  </event>
  <event>
  6     66 0.42750230E-03 0.52392949E+02 0.75467711E-02 0.12058266E+00
        3 -1    0    0  503    0 0.00000000E+00 0.00000000E+00 0.89795038E+02 0.89796430E+02 0.50000000E+00 0.0000E+00 0.9000E+01
       -4 -1    0    0    0  501 0.00000000E+00 0.00000000E+00 -.26586409E+03 0.26586861E+03 0.15500000E+01 0.0000E+00 0.9000E+01
       25  1    1    2    0    0 -.21360008E+02 -.39523906E+02 -.39754117E+02 0.13864984E+03 0.12500000E+03 0.0000E+00 0.9000E+01
      -24  1    1    2    0    0 0.16584900E+02 -.23941468E+02 -.10993216E+03 0.13928585E+03 0.80419002E+02 0.0000E+00 0.9000E+01
       21  1    1    2  502  501 -.81818215E+01 0.58721191E+02 -.21108569E+02 0.62938499E+02 0.75000000E+00 0.0000E+00 0.9000E+01
       21  1    1    2  503  502 0.12956930E+02 0.47441829E+01 -.52742025E+01 0.14790842E+02 0.75000000E+00 0.0000E+00 0.9000E+01
#aMCatNLO 2  0  0  1  2 0.13798163D+02 0.00000000D+00  -5  6  0 0.00000000D+00 0.00000000D+00 0.00000000D+00 0.00000000D+00 0.00000000D+00
  <mgrwgt>
 0.1187697526D-01    2    2    0
 0.147338002510114D+03 0.000000000000000D+00 0.000000000000000D+00 0.147338002510114D+03
 0.147338002510114D+03 0.000000000000000D+00 0.000000000000000D+00 -.147338002510114D+03
 0.135770188197472D+03 -.153619626842479D+02 -.373298584733088D+02 0.343370903255869D+02
 0.977499484764326D+02 0.208708389219516D+02 -.223737102921120D+02 -.463860069766012D+02
 0.611558683463227D+02 -.550887623770365D+01 0.597035687654208D+02 0.120489166510142D+02
 0.000000000000000D+00 0.000000000000000D+00 0.000000000000000D+00 0.000000000000000D+00
 0.155742519565991D+03 0.000000000000000D+00 0.000000000000000D+00 0.155742519565991D+03
 0.153273653351354D+03 0.000000000000000D+00 0.000000000000000D+00 -.153273653351354D+03
 0.137195414134998D+03 -.213598374219402D+02 -.395259817456093D+02 0.343370903255869D+02
 0.972995679619955D+02 0.165850147842266D+02 -.239429658270262D+02 -.463860069766012D+02
 0.605038945597704D+02 -.818210690227404D+01 0.587247647170806D+02 0.120489166510142D+02
 0.140172962605818D+02 0.129569295399876D+02 0.474418285555486D+01 0.246886621463693D+01
-.147974500448D-05 0.000000000000D+00 0.000000000000D+00 0.640913680742D-05 0.000000000000D+00  6 3 -4 25 -24 21 21 4 0.13068708D-01 0.39316079D-01 0.19231665D+05 0.19231665D+05 0.19231665D+05 0.12357034D+01  1  2  8  1  6  1        3 -.200417550892D-03 0.100000000000D+01
0.106643071052D-03 0.000000000000D+00 0.000000000000D+00 0.640913680742D-05 0.147864750168D-06  6 3 -4 25 -24 21 21 4 0.13814178D-01 0.40899965D-01 0.21235799D+05 0.21235799D+05 0.21235799D+05 0.12309697D+01  1  2  1  1  6  1        3 0.120773928119D-01 0.100000000000D+01
  </mgrwgt>
  </event>
  <event>
  5     66 0.42750230E-03 0.75898101E+02 0.75467711E-02 0.11317014E+00
        1 -1    0    0  502    0 0.00000000E+00 0.00000000E+00 0.40839958E+03 0.40839970E+03 0.32000000E+00 0.0000E+00 0.9000E+01
       -2 -1    0    0    0  501 0.00000000E+00 0.00000000E+00 -.17205317E+03 0.17205347E+03 0.32000000E+00 0.0000E+00 0.9000E+01
       25  1    1    2    0    0 -.14224450E+03 0.92220507E+02 -.35539460E+02 0.21360284E+03 0.12500000E+03 0.0000E+00 0.9000E+01
      -24  1    1    2    0    0 0.68842324E+02 -.56311902E+02 0.49135165E+02 0.12958309E+03 0.80419002E+02 0.0000E+00 0.9000E+01
       21  1    1    2  502  501 0.73402174E+02 -.35908606E+02 0.22275071E+03 0.23726725E+03 0.75000000E+00 0.0000E+00 0.9000E+01
#aMCatNLO 1  0  0  5  2 0.57463034D+02 0.00000000D+00  -5  6  0 0.00000000D+00 0.00000000D+00 0.00000000D+00 0.00000000D+00 0.00000000D+00
  <mgrwgt>
 0.1752217685D-01   15    2    0
 0.265078411807254D+03 0.000000000000000D+00 0.000000000000000D+00 0.265078411807254D+03
 0.265078411807254D+03 -.000000000000000D+00 -.000000000000000D+00 -.265078411807254D+03
 0.249711811422089D+03 -.142244875227015D+03 0.922206919906778D+02 -.134136975529167D+03
 0.119971901035203D+03 0.688421422076853D+02 -.563118128139855D+02 -.397243974018755D+01
 0.160473111157216D+03 0.734027330193299D+02 -.359088791766923D+02 0.138109415269354D+03
 0.000000000000000D+00 0.000000000000000D+00 0.000000000000000D+00 0.000000000000000D+00
 0.265078411807254D+03 0.000000000000000D+00 0.000000000000000D+00 0.265078411807254D+03
 0.265078411807254D+03 -.000000000000000D+00 -.000000000000000D+00 -.265078411807254D+03
 0.232503289465213D+03 -.132268712485320D+03 0.873403175440722D+02 -.115366529985612D+03
 0.124150299544752D+03 0.738925912653053D+02 -.587825105324255D+02 0.553012968065232D+01
 0.100137947138024D+03 0.874045335657692D+02 -.239102700721094D+02 0.426187160088936D+02
 0.733652874665198D+02 -.290284123457545D+02 -.464753693953735D+01 0.672176842960658D+02
0.110904948271D-03 0.000000000000D+00 0.000000000000D+00 0.317838375865D-05 0.000000000000D+00  6 1 -2 25 -24 21 21 2 0.62830737D-01 0.26469751D-01 0.42486981D+05 0.42486981D+05 0.42486981D+05 0.11993491D+01  1  2  2  3  6  5       21 0.106353545120D-01 0.100000000000D+01
-.146320863720D-05 0.585261491179D-05 -.425904203305D-06 0.317838375865D-05 0.000000000000D+00  6 1 -2 25 -24 21 21 4 0.62830737D-01 0.26469751D-01 0.42486981D+05 0.42486981D+05 0.42486981D+05 0.11993491D+01  1  2  3  3  6  5       21 -.201835965768D-03 0.100000000000D+01
0.113006696989D-05 0.000000000000D+00 0.000000000000D+00 0.317838375865D-05 0.000000000000D+00  6 1 -2 25 -24 21 21 4 0.62830737D-01 0.26469751D-01 0.42486981D+05 0.42486981D+05 0.42486981D+05 0.11993491D+01  1  2 15  3  6  5       21 0.155882184161D-03 0.100000000000D+01
0.394703845309D-04 0.000000000000D+00 0.000000000000D+00 0.314236619504D-05 0.000000000000D+00  6 1 -2 25 -24 21 21 4 0.62830737D-01 0.26469751D-01 0.49707445D+05 0.49707445D+05 0.49707445D+05 0.11925342D+01  1  2 12  3  6  5       21 0.532316358621D-02 0.100000000000D+01
-.209947994708D-04 0.000000000000D+00 0.000000000000D+00 0.317838375865D-05 0.000000000000D+00  6 1 -2 25 -24 21 21 4 0.62830737D-01 0.26469751D-01 0.42486981D+05 0.42486981D+05 0.42486981D+05 0.11993491D+01  1  2  4  3  6  5       21 -.289603650468D-02 0.100000000000D+01
-.583860495881D-04 0.000000000000D+00 0.000000000000D+00 0.317838375865D-05 0.000000000000D+00  6 1 -2 25 -24 21 21 4 0.62830737D-01 0.26469751D-01 0.42486981D+05 0.42486981D+05 0.42486981D+05 0.11993491D+01  1  2  5  3  6  5       21 -.805381024031D-02 0.100000000000D+01
0.892689372379D-04 0.000000000000D+00 -.000000000000D+00 0.317838375865D-05 0.000000000000D+00  6 1 -2 25 -24 21 21 4 0.62830737D-01 0.26469751D-01 0.42486981D+05 0.42486981D+05 0.42486981D+05 0.11993491D+01  1  2  6  3  6  5       21 0.123138161588D-01 0.100000000000D+01
0.109020216600D-05 0.000000000000D+00 0.000000000000D+00 0.314236619504D-05 0.000000000000D+00  6 1 -2 25 -24 1 -1 4 0.62830737D-01 0.26469751D-01 0.49707445D+05 0.49707445D+05 0.49707445D+05 0.11925342D+01  1  2 12  6  6  5       21 0.147029843784D-03 0.100000000000D+01
-.620694902905D-06 0.000000000000D+00 0.000000000000D+00 0.317838375865D-05 0.000000000000D+00  6 1 -2 25 -24 1 -1 4 0.62830737D-01 0.26469751D-01 0.42486981D+05 0.42486981D+05 0.42486981D+05 0.11993491D+01  1  2  5  6  6  5       21 -.856190648348D-04 0.100000000000D+01
0.109020216600D-05 0.000000000000D+00 0.000000000000D+00 0.314236619504D-05 0.000000000000D+00  6 1 -2 25 -24 2 -2 4 0.62830737D-01 0.26469751D-01 0.49707445D+05 0.49707445D+05 0.49707445D+05 0.11925342D+01  1  2 12  7  6  5       21 0.147029843784D-03 0.100000000000D+01
-.620694902905D-06 0.000000000000D+00 0.000000000000D+00 0.317838375865D-05 0.000000000000D+00  6 1 -2 25 -24 2 -2 4 0.62830737D-01 0.26469751D-01 0.42486981D+05 0.42486981D+05 0.42486981D+05 0.11993491D+01  1  2  5  7  6  5       21 -.856190648348D-04 0.100000000000D+01
0.109020216600D-05 0.000000000000D+00 0.000000000000D+00 0.314236619504D-05 0.000000000000D+00  6 1 -2 25 -24 3 -3 4 0.62830737D-01 0.26469751D-01 0.49707445D+05 0.49707445D+05 0.49707445D+05 0.11925342D+01  1  2 12  8  6  5       21 0.147029843784D-03 0.100000000000D+01
0.109020216600D-05 0.000000000000D+00 0.000000000000D+00 0.314236619504D-05 0.000000000000D+00  6 1 -2 25 -24 4 -4 4 0.62830737D-01 0.26469751D-01 0.49707445D+05 0.49707445D+05 0.49707445D+05 0.11925342D+01  1  2 12  8  6  5       21 0.147029843784D-03 0.100000000000D+01
-.620694902905D-06 0.000000000000D+00 0.000000000000D+00 0.317838375865D-05 0.000000000000D+00  6 1 -2 25 -24 3 -3 4 0.62830737D-01 0.26469751D-01 0.42486981D+05 0.42486981D+05 0.42486981D+05 0.11993491D+01  1  2  5  8  6  5       21 -.856190648348D-04 0.100000000000D+01
-.620694902905D-06 0.000000000000D+00 0.000000000000D+00 0.317838375865D-05 0.000000000000D+00  6 1 -2 25 -24 4 -4 4 0.62830737D-01 0.26469751D-01 0.42486981D+05 0.42486981D+05 0.42486981D+05 0.11993491D+01  1  2  5  8  6  5       21 -.856190648348D-04 0.100000000000D+01
  </mgrwgt>
  </event>
  <event>
  5     66 0.42750230E-03 0.29835485E+02 0.75467711E-02 0.12200856E+00
        1 -1    0    0  502    0 0.00000000E+00 0.00000000E+00 0.19378113E+03 0.19378140E+03 0.32000000E+00 0.0000E+00 0.9000E+01
       -2 -1    0    0    0  501 0.00000000E+00 0.00000000E+00 -.15197732E+03 0.15197766E+03 0.32000000E+00 0.0000E+00 0.9000E+01
       25  1    1    2    0    0 -.40578569E+02 -.31242482E+02 0.99037124E+02 0.16749945E+03 0.12500000E+03 0.0000E+00 0.9000E+01
      -24  1    1    2    0    0 0.66076631E+02 0.15759999E+02 -.86659623E+02 0.13635104E+03 0.80419002E+02 0.0000E+00 0.9000E+01
       21  1    1    2  502  501 -.25498062E+02 0.15482483E+02 0.29426311E+02 0.41908575E+02 0.75000000E+00 0.0000E+00 0.9000E+01
#aMCatNLO 1  0  0  5  2 0.78903773D+01 0.00000000D+00  -5  6  0 0.00000000D+00 0.00000000D+00 0.00000000D+00 0.00000000D+00 0.00000000D+00
  <mgrwgt>
 0.1202566782D+00    9    2    0
 0.171611310776312D+03 0.000000000000000D+00 0.000000000000000D+00 0.171611310776312D+03
 0.171611310776312D+03 -.000000000000000D+00 -.000000000000000D+00 -.171611310776312D+03
 0.156673388193110D+03 -.405763752341449D+02 -.312438136642076D+02 0.793658141045829D+02
 0.147915834645488D+03 0.660787023730905D+02 0.157587413672635D+02 -.103909313094202D+03
 0.386333987140249D+02 -.255023271389455D+02 0.154850722969440D+02 0.245434989896193D+02
 0.000000000000000D+00 0.000000000000000D+00 0.000000000000000D+00 -.000000000000000D+00
 0.171611310776312D+03 0.000000000000000D+00 0.000000000000000D+00 0.171611310776312D+03
 0.171611310776312D+03 -.000000000000000D+00 -.000000000000000D+00 -.171611310776312D+03
 0.160585977217188D+03 -.464995665068104D+02 -.276472381600928D+02 0.850663071703305D+02
 0.142303851318876D+03 0.606603384145146D+02 0.190487845532272D+02 -.986946670104098D+02
 0.296789071158470D+02 -.181895041675052D+02 0.516764086832903D+01 0.228752039026401D+02
 0.106538859007117D+02 0.402873225980102D+01 0.343081273853661D+01 -.924684406256084D+01
0.159131456198D-03 0.000000000000D+00 0.000000000000D+00 0.148286271400D-04 0.000000000000D+00  6 1 -2 25 -24 21 21 2 0.29812528D-01 0.23381173D-01 0.18250668D+05 0.18250668D+05 0.18250668D+05 0.12382265D+01  1  2  2  3  6  5       21 0.508597145264D-01 0.100000000000D+01
0.136699688595D-04 0.839759765456D-05 -.611106692077D-06 0.148286271400D-04 0.000000000000D+00  6 1 -2 25 -24 21 21 4 0.29812528D-01 0.23381173D-01 0.18250668D+05 0.18250668D+05 0.18250668D+05 0.12382265D+01  1  2  3  3  6  5       21 0.669862347257D-02 0.100000000000D+01
0.524355405126D-05 0.000000000000D+00 0.000000000000D+00 0.148286271400D-04 0.000000000000D+00  6 1 -2 25 -24 21 21 4 0.29812528D-01 0.23381173D-01 0.18250668D+05 0.18250668D+05 0.18250668D+05 0.12382265D+01  1  2 15  3  6  5       21 0.256947141640D-02 0.100000000000D+01
0.199491695104D-03 0.000000000000D+00 0.000000000000D+00 0.148920466330D-04 0.000000000000D+00  6 1 -2 25 -24 21 21 4 0.29812528D-01 0.23381173D-01 0.17282019D+05 0.17282019D+05 0.17282019D+05 0.12408715D+01  1  2 12  3  6  5       21 0.984783401334D-01 0.100000000000D+01
-.859056631749D-04 0.000000000000D+00 0.000000000000D+00 0.148286271400D-04 0.000000000000D+00  6 1 -2 25 -24 21 21 4 0.29812528D-01 0.23381173D-01 0.18250668D+05 0.18250668D+05 0.18250668D+05 0.12382265D+01  1  2  4  3  6  5       21 -.420959036327D-01 0.100000000000D+01
0.189732615251D-05 0.000000000000D+00 0.000000000000D+00 0.148920466330D-04 0.000000000000D+00  6 1 -2 25 -24 1 -1 4 0.29812528D-01 0.23381173D-01 0.17282019D+05 0.17282019D+05 0.17282019D+05 0.12408715D+01  1  2 12  6  6  5       21 0.936608063276D-03 0.100000000000D+01
0.189732615251D-05 0.000000000000D+00 0.000000000000D+00 0.148920466330D-04 0.000000000000D+00  6 1 -2 25 -24 2 -2 4 0.29812528D-01 0.23381173D-01 0.17282019D+05 0.17282019D+05 0.17282019D+05 0.12408715D+01  1  2 12  7  6  5       21 0.936608063276D-03 0.100000000000D+01
0.189732615251D-05 0.000000000000D+00 0.000000000000D+00 0.148920466330D-04 0.000000000000D+00  6 1 -2 25 -24 3 -3 4 0.29812528D-01 0.23381173D-01 0.17282019D+05 0.17282019D+05 0.17282019D+05 0.12408715D+01  1  2 12  8  6  5       21 0.936608063276D-03 0.100000000000D+01
0.189732615251D-05 0.000000000000D+00 0.000000000000D+00 0.148920466330D-04 0.000000000000D+00  6 1 -2 25 -24 4 -4 4 0.29812528D-01 0.23381173D-01 0.17282019D+05 0.17282019D+05 0.17282019D+05 0.12408715D+01  1  2 12  8  6  5       21 0.936608063276D-03 0.100000000000D+01
  </mgrwgt>
  </event>
  <event>
  5     66 0.42750230E-03 0.10326656E+03 0.75467711E-02 0.11165845E+00
        1 -1    0    0  502    0 0.00000000E+00 0.00000000E+00 0.98672909E+02 0.98673428E+02 0.32000000E+00 0.0000E+00 0.9000E+01
       -2 -1    0    0    0  501 0.00000000E+00 0.00000000E+00 -.44381543E+03 0.44381554E+03 0.32000000E+00 0.0000E+00 0.9000E+01
       25  1    1    2    0    0 0.77682743E+02 -.11242232E+03 -.16599400E+03 0.24870141E+03 0.12500000E+03 0.0000E+00 0.9000E+01
      -24  1    1    2    0    0 0.38424491E+01 0.62605314E+01 -.12623181E+03 0.14985208E+03 0.80419002E+02 0.0000E+00 0.9000E+01
       21  1    1    2  502  501 -.81525192E+02 0.10616178E+03 -.52916704E+02 0.14393548E+03 0.75000000E+00 0.0000E+00 0.9000E+01
#aMCatNLO 1  0  0  2  5 0.81962058D+02 0.00000000D+00  -5  6  0 0.00000000D+00 0.00000000D+00 0.00000000D+00 0.00000000D+00 0.00000000D+00
  <mgrwgt>
 0.1347495021D-01    9    4    0
 0.209267128854310D+03 0.000000000000000D+00 0.000000000000000D+00 0.209267128854310D+03
 0.209267128854310D+03 0.000000000000000D+00 0.000000000000000D+00 -.209267128854310D+03
 0.185472142722126D+03 0.776832403369229D+02 -.112422963279193D+03 -.100651489913317D+02
 0.901363647381143D+02 0.384269086375130D+01 0.626021663735322D+01 -.400423739107821D+02
 0.142925750248381D+03 -.815259312006742D+02 0.106162746641840D+03 0.501075229021138D+02
 0.000000000000000D+00 0.000000000000000D+00 0.000000000000000D+00 -.000000000000000D+00
 0.230345951535801D+03 0.000000000000000D+00 0.000000000000000D+00 0.230345951535801D+03
 0.311432853095395D+03 0.000000000000000D+00 0.000000000000000D+00 -.311432853095395D+03
 0.193230309072163D+03 0.511494409684060D+02 -.137823727306025D+03 -.100651489913317D+02
 0.904571115325836D+02 -.881059681348987D+01 -.585275557553607D+01 -.400423739107821D+02
 0.142796698438408D+03 -.101545083684680D+03 0.869984437389268D+02 0.501075229021138D+02
 0.115294685588041D+03 0.592062395297635D+02 0.566780391426347D+02 -.810869015595945D+02
 0.209267128854310D+03 0.000000000000000D+00 0.000000000000000D+00 0.209267128854310D+03
 0.209267128854310D+03 0.000000000000000D+00 0.000000000000000D+00 -.209267128854310D+03
 0.185472142722126D+03 0.776832403369229D+02 -.112422963279193D+03 -.100651489913317D+02
 0.901363647381143D+02 0.384269086375130D+01 0.626021663735322D+01 -.400423739107821D+02
 0.000000000000000D+00 0.000000000000000D+00 0.000000000000000D+00 -.000000000000000D+00
 0.142925750248381D+03 -.815259312006742D+02 0.106162746641840D+03 0.501075229021138D+02
 0.230345951535801D+03 0.000000000000000D+00 0.000000000000000D+00 0.230345951535801D+03
 0.311432853095395D+03 0.000000000000000D+00 0.000000000000000D+00 -.311432853095395D+03
 0.193230309072163D+03 0.511494409684060D+02 -.137823727306025D+03 -.100651489913317D+02
 0.904571115325836D+02 -.881059681348987D+01 -.585275557553607D+01 -.400423739107821D+02
 0.115294685588041D+03 0.592062395297635D+02 0.566780391426347D+02 -.810869015595945D+02
 0.142796698438408D+03 -.101545083684680D+03 0.869984437389268D+02 0.501075229021138D+02
0.102693202187D-03 0.000000000000D+00 0.000000000000D+00 0.164331158842D-05 0.000000000000D+00  6 1 -2 25 -24 21 21 2 0.15180496D-01 0.68279345D-01 0.39961416D+05 0.39961416D+05 0.39961416D+05 0.12020428D+01  1  2  2  2  6  2       -2 0.957001716890D-02 0.100000000000D+01
-.926906873053D-05 0.541926916542D-05 -.394368936139D-06 0.164331158842D-05 0.000000000000D+00  6 1 -2 25 -24 21 21 4 0.15180496D-01 0.68279345D-01 0.39961416D+05 0.39961416D+05 0.39961416D+05 0.12020428D+01  1  2  3  2  6  2       -2 -.124809316160D-02 0.100000000000D+01
0.396999656442D-05 0.000000000000D+00 0.000000000000D+00 0.164331158842D-05 0.000000000000D+00  6 1 -2 25 -24 21 21 4 0.15180496D-01 0.68279345D-01 0.39961416D+05 0.39961416D+05 0.39961416D+05 0.12020428D+01  1  2 15  2  6  2       -2 0.534565629804D-03 0.100000000000D+01
0.107997524743D-03 0.000000000000D+00 0.000000000000D+00 0.159581113800D-05 0.000000000000D+00  6 1 -2 25 -24 21 21 4 0.15180496D-01 0.10803062D+00 0.59965798D+05 0.59965798D+05 0.59965798D+05 0.11845427D+01  1  2 12  2  6  2       -2 0.490928659930D-02 0.100000000000D+01
-.125412758328D-03 0.000000000000D+00 0.000000000000D+00 0.164331158842D-05 0.000000000000D+00  6 1 -2 25 -24 21 21 4 0.15180496D-01 0.68279345D-01 0.39961416D+05 0.39961416D+05 0.39961416D+05 0.12020428D+01  1  2  4  2  6  2       -2 -.168870045737D-01 0.100000000000D+01
-.189493310038D-03 0.000000000000D+00 -.579729901024D-04 0.164331158842D-05 0.000000000000D+00  6 1 -2 25 -24 21 21 4 0.15180496D-01 0.10833871D+00 0.39961416D+05 0.39961416D+05 0.39961416D+05 0.12020428D+01  1  2  5  2  6  2       -2 -.906948286461D-02 0.100000000000D+01
0.200212904446D-03 0.000000000000D+00 0.523000616128D-04 0.164331158842D-05 0.000000000000D+00  6 1 -2 25 -24 21 21 4 0.15180496D-01 0.68279345D-01 0.39961416D+05 0.39961416D+05 0.39961416D+05 0.12020428D+01  1  2  6  2  6  2       -2 0.269589496171D-01 0.100000000000D+01
0.569549715861D-05 0.000000000000D+00 0.000000000000D+00 0.159581113800D-05 0.000000000000D+00  6 1 21 25 -24 2 21 4 0.15180496D-01 0.10803062D+00 0.59965798D+05 0.59965798D+05 0.59965798D+05 0.11845427D+01  3  4 12  5  5  2       -2 0.294955754041D-02 0.100000000000D+01
-.765987073815D-05 0.000000000000D+00 -.307183722346D-05 0.164331158842D-05 0.000000000000D+00  6 1 21 25 -24 2 21 4 0.15180496D-01 0.10833871D+00 0.39961416D+05 0.39961416D+05 0.39961416D+05 0.12020428D+01  3  4  5  5  5  2       -2 -.424284574739D-02 0.100000000000D+01
  </mgrwgt>
  </event>
  <event>
  5     66 0.42750230E-03 0.20107957E+02 0.75467711E-02 0.12501727E+00
        1 -1    0    0  502    0 0.00000000E+00 0.00000000E+00 0.18997962E+03 0.18997989E+03 0.32000000E+00 0.0000E+00 0.9000E+01
       -2 -1    0    0    0  501 0.00000000E+00 0.00000000E+00 -.76004592E+02 0.76005266E+02 0.32000000E+00 0.0000E+00 0.9000E+01
       25  1    1    2    0    0 0.30376307E+02 -.16645300E+02 0.52996708E+02 0.14011937E+03 0.12500000E+03 0.0000E+00 0.9000E+01
      -24  1    1    2    0    0 -.12243946E+02 0.79684261E+01 0.26455257E+02 0.85909875E+02 0.80419002E+02 0.0000E+00 0.9000E+01
       21  1    1    2  502  501 -.18132361E+02 0.86768734E+01 0.34523061E+02 0.39955912E+02 0.75000000E+00 0.0000E+00 0.9000E+01
#aMCatNLO 1  0  0  5  1 0.12989725D+01 0.00000000D+00  -5  6  0 0.00000000D+00 0.00000000D+00 0.00000000D+00 0.00000000D+00 0.00000000D+00
  <mgrwgt>
 0.9225679784D+00   25    2    0
 0.120164257950123D+03 0.000000000000000D+00 0.000000000000000D+00 0.120164257950123D+03
 0.120164257950123D+03 -.000000000000000D+00 -.000000000000000D+00 -.120164257950123D+03
 0.129945782538725D+03 0.303798642975013D+02 -.166470018320191D+02 -.780048555358360D+01
 0.825348881549302D+02 -.122416867437661D+02 0.796734486696665D+01 -.114653534535411D+02
 0.278478452065910D+02 -.181381775537351D+02 0.867965696505246D+01 0.192658390071247D+02
 0.000000000000000D+00 -.000000000000000D+00 0.000000000000000D+00 0.000000000000000D+00
 0.120164257950123D+03 0.000000000000000D+00 0.000000000000000D+00 0.120164257950123D+03
 0.120164257950123D+03 -.000000000000000D+00 -.000000000000000D+00 -.120164257950123D+03
 0.129929226898477D+03 0.303336784037096D+02 -.166249005093505D+02 -.775142825488013D+01
 0.825362782061301D+02 -.122710237676459D+02 0.798138350469074D+01 -.114341925291681D+02
 0.101570787479191D+02 -.573637079250238D+01 0.407881641128257D+01 0.732281062880961D+01
 0.177059320477192D+02 -.123262838435613D+02 0.456470059337718D+01 0.118628101552386D+02
0.130890199144D-03 0.000000000000D+00 0.000000000000D+00 0.669269618031D-04 0.000000000000D+00  6 1 -2 25 -24 21 21 2 0.29227706D-01 0.11693087D-01 0.13404320D+05 0.13404320D+05 0.13404320D+05 0.12534298D+01  1  2  2  3  6  5       21 0.136760088313D+00 0.100000000000D+01
0.205493647177D-04 0.690726557524D-05 -.502652828894D-06 0.669269618031D-04 0.000000000000D+00  6 1 -2 25 -24 21 21 4 0.29227706D-01 0.11693087D-01 0.13404320D+05 0.13404320D+05 0.13404320D+05 0.12534298D+01  1  2  3  3  6  5       21 0.337326685525D-01 0.100000000000D+01
0.637656228717D-05 0.000000000000D+00 0.000000000000D+00 0.669269618031D-04 0.000000000000D+00  6 1 -2 25 -24 21 21 4 0.29227706D-01 0.11693087D-01 0.13404320D+05 0.13404320D+05 0.13404320D+05 0.12534298D+01  1  2 15  3  6  5       21 0.104674020386D-01 0.100000000000D+01
0.464696881639D-07 0.000000000000D+00 0.000000000000D+00 0.669238521864D-04 0.000000000000D+00  6 1 -2 25 -24 21 21 4 0.29227706D-01 0.11693087D-01 0.13412098D+05 0.13412098D+05 0.13412098D+05 0.12534007D+01  1  2 12  3  6  5       21 0.762765423924D-04 0.100000000000D+01
0.466427989782D-07 0.000000000000D+00 0.000000000000D+00 0.669238521864D-04 0.000000000000D+00  6 1 -2 25 -24 21 21 4 0.29227706D-01 0.11693087D-01 0.13412098D+05 0.13412098D+05 0.13412098D+05 0.12534007D+01  1  2 12  3  6  5       21 0.765606909393D-04 0.100000000000D+01
-.484089109051D-02 0.000000000000D+00 0.000000000000D+00 0.669269618031D-04 0.000000000000D+00  6 1 -2 25 -24 21 21 4 0.29227706D-01 0.11693087D-01 0.13404320D+05 0.13404320D+05 0.13404320D+05 0.12534298D+01  1  2  4  3  6  5       21 -.794653153020D+01 0.100000000000D+01
-.129502617458D-02 0.000000000000D+00 0.000000000000D+00 0.669269618031D-04 0.000000000000D+00  6 1 -2 25 -24 21 21 4 0.29227706D-01 0.11693087D-01 0.13404320D+05 0.13404320D+05 0.13404320D+05 0.12534298D+01  1  2  5  3  6  5       21 -.212584132473D+01 0.100000000000D+01
0.523326653481D-02 0.000000000000D+00 -.000000000000D+00 0.669269618031D-04 0.000000000000D+00  6 1 -2 25 -24 21 21 4 0.29227706D-01 0.11693087D-01 0.13404320D+05 0.13404320D+05 0.13404320D+05 0.12534298D+01  1  2  6  3  6  5       21 0.859063274658D+01 0.100000000000D+01
0.134512518174D-02 0.000000000000D+00 0.000000000000D+00 0.669269618031D-04 0.214242067306D-03  6 1 -2 25 -24 21 21 4 0.29227706D-01 0.11693087D-01 0.13412098D+05 0.13412098D+05 0.13412098D+05 0.12534007D+01  1  2 11  3  6  5       21 0.220792310003D+01 0.100000000000D+01
0.553342345886D-08 0.000000000000D+00 0.000000000000D+00 0.669238521864D-04 0.000000000000D+00  6 1 -2 25 -24 1 -1 4 0.29227706D-01 0.11693087D-01 0.13412098D+05 0.13412098D+05 0.13412098D+05 0.12534007D+01  1  2 12  6  6  5       21 0.908270370884D-05 0.100000000000D+01
0.555001845476D-08 0.000000000000D+00 0.000000000000D+00 0.669238521864D-04 0.000000000000D+00  6 1 -2 25 -24 1 -1 4 0.29227706D-01 0.11693087D-01 0.13412098D+05 0.13412098D+05 0.13412098D+05 0.12534007D+01  1  2 12  6  6  5       21 0.910994316231D-05 0.100000000000D+01
-.160173145463D-03 0.000000000000D+00 0.000000000000D+00 0.669269618031D-04 0.000000000000D+00  6 1 -2 25 -24 1 -1 4 0.29227706D-01 0.11693087D-01 0.13404320D+05 0.13404320D+05 0.13404320D+05 0.12534298D+01  1  2  5  6  6  5       21 -.262931127123D+00 0.100000000000D+01
0.162564698704D-03 0.000000000000D+00 0.000000000000D+00 0.669269618031D-04 0.125864906836D-04  6 1 -2 25 -24 1 -1 4 0.29227706D-01 0.11693087D-01 0.13412098D+05 0.13412098D+05 0.13412098D+05 0.12534007D+01  1  2 11  6  6  5       21 0.266837881255D+00 0.100000000000D+01
0.553342345886D-08 0.000000000000D+00 0.000000000000D+00 0.669238521864D-04 0.000000000000D+00  6 1 -2 25 -24 2 -2 4 0.29227706D-01 0.11693087D-01 0.13412098D+05 0.13412098D+05 0.13412098D+05 0.12534007D+01  1  2 12  7  6  5       21 0.908270370884D-05 0.100000000000D+01
0.555001845476D-08 0.000000000000D+00 0.000000000000D+00 0.669238521864D-04 0.000000000000D+00  6 1 -2 25 -24 2 -2 4 0.29227706D-01 0.11693087D-01 0.13412098D+05 0.13412098D+05 0.13412098D+05 0.12534007D+01  1  2 12  7  6  5       21 0.910994316231D-05 0.100000000000D+01
-.160173145463D-03 0.000000000000D+00 0.000000000000D+00 0.669269618031D-04 0.000000000000D+00  6 1 -2 25 -24 2 -2 4 0.29227706D-01 0.11693087D-01 0.13404320D+05 0.13404320D+05 0.13404320D+05 0.12534298D+01  1  2  5  7  6  5       21 -.262931127123D+00 0.100000000000D+01
0.162505743943D-03 0.000000000000D+00 0.000000000000D+00 0.669269618031D-04 0.125684254591D-04  6 1 -2 25 -24 2 -2 4 0.29227706D-01 0.11693087D-01 0.13412098D+05 0.13412098D+05 0.13412098D+05 0.12534007D+01  1  2 11  7  6  5       21 0.266741111393D+00 0.100000000000D+01
0.553342345886D-08 0.000000000000D+00 0.000000000000D+00 0.669238521864D-04 0.000000000000D+00  6 1 -2 25 -24 3 -3 4 0.29227706D-01 0.11693087D-01 0.13412098D+05 0.13412098D+05 0.13412098D+05 0.12534007D+01  1  2 12  8  6  5       21 0.908270370884D-05 0.100000000000D+01
0.553342345886D-08 0.000000000000D+00 0.000000000000D+00 0.669238521864D-04 0.000000000000D+00  6 1 -2 25 -24 4 -4 4 0.29227706D-01 0.11693087D-01 0.13412098D+05 0.13412098D+05 0.13412098D+05 0.12534007D+01  1  2 12  8  6  5       21 0.908270370884D-05 0.100000000000D+01
0.555001845476D-08 0.000000000000D+00 0.000000000000D+00 0.669238521864D-04 0.000000000000D+00  6 1 -2 25 -24 3 -3 4 0.29227706D-01 0.11693087D-01 0.13412098D+05 0.13412098D+05 0.13412098D+05 0.12534007D+01  1  2 12  8  6  5       21 0.910994316231D-05 0.100000000000D+01
0.555001845476D-08 0.000000000000D+00 0.000000000000D+00 0.669238521864D-04 0.000000000000D+00  6 1 -2 25 -24 4 -4 4 0.29227706D-01 0.11693087D-01 0.13412098D+05 0.13412098D+05 0.13412098D+05 0.12534007D+01  1  2 12  8  6  5       21 0.910994316231D-05 0.100000000000D+01
-.160173145463D-03 0.000000000000D+00 0.000000000000D+00 0.669269618031D-04 0.000000000000D+00  6 1 -2 25 -24 3 -3 4 0.29227706D-01 0.11693087D-01 0.13404320D+05 0.13404320D+05 0.13404320D+05 0.12534298D+01  1  2  5  8  6  5       21 -.262931127123D+00 0.100000000000D+01
-.160173145463D-03 0.000000000000D+00 0.000000000000D+00 0.669269618031D-04 0.000000000000D+00  6 1 -2 25 -24 4 -4 4 0.29227706D-01 0.11693087D-01 0.13404320D+05 0.13404320D+05 0.13404320D+05 0.12534298D+01  1  2  5  8  6  5       21 -.262931127123D+00 0.100000000000D+01
0.162463863601D-03 0.000000000000D+00 0.000000000000D+00 0.669269618031D-04 0.125647735742D-04  6 1 -2 25 -24 3 -3 4 0.29227706D-01 0.11693087D-01 0.13412098D+05 0.13412098D+05 0.13412098D+05 0.12534007D+01  1  2 11  8  6  5       21 0.266672367921D+00 0.100000000000D+01
0.162463863601D-03 0.000000000000D+00 0.000000000000D+00 0.669269618031D-04 0.125647735742D-04  6 1 -2 25 -24 4 -4 4 0.29227706D-01 0.11693087D-01 0.13412098D+05 0.13412098D+05 0.13412098D+05 0.12534007D+01  1  2 11  8  6  5       21 0.266672367921D+00 0.100000000000D+01
  </mgrwgt>
  </event>
  <event>
  6     66 -.42750230E-03 0.17316225E+02 0.75467711E-02 0.11929297E+00
        3 -1    0    0  502    0 0.00000000E+00 0.00000000E+00 0.38121295E+02 0.38124574E+02 0.50000000E+00 0.0000E+00 0.9000E+01
       -4 -1    0    0    0  501 -.00000000E+00 -.00000000E+00 -.71136351E+03 0.71136519E+03 0.15500000E+01 0.0000E+00 0.9000E+01
       25  1    1    2    0    0 0.70505358E+02 -.85593824E+02 -.26474674E+03 0.31307051E+03 0.12500000E+03 0.0000E+00 0.9000E+01
      -24  1    1    2    0    0 -.50854126E+02 0.76571414E+02 -.38043792E+03 0.39956170E+03 0.80419002E+02 0.0000E+00 0.9000E+01
       21  1    1    2  503  501 -.17467846E+02 0.74907866E+01 -.28276165E+02 0.34078462E+02 0.75000000E+00 0.0000E+00 0.9000E+01
       21  1    1    2  502  503 -.21833864E+01 0.15316233E+01 0.21862343E+00 0.27790902E+01 0.75000000E+00 0.0000E+00 0.9000E+01
#aMCatNLO 2  0  0  5  2 0.44178195D+01 0.00000000D+00  -5  6  0 0.00000000D+00 0.00000000D+00 0.00000000D+00 0.00000000D+00 0.00000000D+00
  <mgrwgt>
 -.3453938909D-01    3    2    0
 0.164681388164056D+03 0.000000000000000D+00 0.000000000000000D+00 0.164681388164056D+03
 0.164681388164056D+03 -.000000000000000D+00 -.000000000000000D+00 -.164681388164056D+03
 0.171693149586366D+03 0.713571875250685D+02 -.859849214858466D+02 0.369903052227374D+02
 0.131306607455395D+03 -.502011309307221D+02 0.762716062727413D+02 -.493629186427138D+02
 0.263630192863508D+02 -.211560565943463D+02 0.971331521310524D+01 0.123726134199763D+02
 0.000000000000000D+00 0.000000000000000D+00 0.000000000000000D+00 0.000000000000000D+00
 0.164681388164056D+03 0.000000000000000D+00 0.000000000000000D+00 0.164681388164056D+03
 0.164681388164056D+03 -.000000000000000D+00 -.000000000000000D+00 -.164681388164056D+03
 0.171249527732735D+03 0.704979989718824D+02 -.855904448872720D+02 0.374927810870854D+02
 0.131591525619936D+03 -.508597805579953D+02 0.765740100508825D+02 -.489777231701491D+02
 0.194182098185689D+02 -.172549299444368D+02 0.737234548761908D+01 0.499827842178946D+01
 0.710351315687178D+01 -.238328846945024D+01 0.164408934877044D+01 0.648666366127423D+01
-.624055863912D-04 0.000000000000D+00 0.000000000000D+00 0.330288209243D-04 0.000000000000D+00  6 3 -4 25 -24 21 21 4 0.58651967D-02 0.10944092D+00 0.24163364D+05 0.24163364D+05 0.24163364D+05 0.12248857D+01  1  2 13  3  6  5       21 -.344363165284D-02 0.100000000000D+01
-.642551845028D-04 0.000000000000D+00 0.000000000000D+00 0.330288209243D-04 0.000000000000D+00  6 3 -4 25 -24 21 21 4 0.58651967D-02 0.10944092D+00 0.24163364D+05 0.24163364D+05 0.24163364D+05 0.12248857D+01  1  2 13  3  6  5       21 -.354569518546D-02 0.100000000000D+01
-.499696982097D-03 0.000000000000D+00 0.000000000000D+00 0.330009649444D-04 0.000000000000D+00  6 3 -4 25 -24 21 21 4 0.58651967D-02 0.10944092D+00 0.24432056D+05 0.24432056D+05 0.24432056D+05 0.12243691D+01  1  2  8  3  6  5       21 -.275500622558D-01 0.100000000000D+01
  </mgrwgt>
  </event>
  <event>
  6     66 0.42750230E-03 0.22387898E+02 0.75467711E-02 0.12135431E+00
       21 -1    0    0  502  503 0.00000000E+00 0.00000000E+00 0.53717182E+03 0.53717235E+03 0.75000000E+00 0.0000E+00 0.9000E+01
       -4 -1    0    0    0  501 0.00000000E+00 0.00000000E+00 -.12460662E+03 0.12461626E+03 0.15500000E+01 0.0000E+00 0.9000E+01
       25  1    1    2    0    0 -.31046675E+02 0.50771929E+02 -.14620024E+02 0.13921361E+03 0.12500000E+03 0.0000E+00 0.9000E+01
      -24  1    1    2    0    0 0.28903560E+01 -.68094870E+02 0.13426834E+02 0.10626740E+03 0.80419002E+02 0.0000E+00 0.9000E+01
       -3  1    1    2    0  503 0.19308419E+02 0.18680507E+02 0.38972664E+03 0.39065187E+03 0.50000000E+00 0.0000E+00 0.9000E+01
       21  1    1    2  502  501 0.88479001E+01 -.13575667E+01 0.24031755E+02 0.25655722E+02 0.75000000E+00 0.0000E+00 0.9000E+01
#aMCatNLO 2  0  0  1  2 0.99463497D+02 0.00000000D+00  -5  6  0 0.00000000D+00 0.00000000D+00 0.00000000D+00 0.00000000D+00 0.00000000D+00
  <mgrwgt>
 0.9612186833D-01    1    2    0
 0.134417032633024D+03 0.000000000000000D+00 0.000000000000000D+00 0.134417032633024D+03
 0.134417032633024D+03 0.000000000000000D+00 0.000000000000000D+00 -.134417032633024D+03
 0.142947579960295D+03 -.208796973047476D+02 0.606107739312846D+02 -.264458492096177D+02
 0.101512507207479D+03 0.103045269778134D+02 -.609200341827642D+02 0.448768583040328D+01
 0.000000000000000D+00 0.000000000000000D+00 0.000000000000000D+00 0.000000000000000D+00
 0.243739780982729D+02 0.105751703269342D+02 0.309260251479538D+00 0.219581633792144D+02
 0.493682938346414D+03 0.000000000000000D+00 0.000000000000000D+00 0.493682938346414D+03
 0.135589770621350D+03 0.000000000000000D+00 0.000000000000000D+00 -.135589770621350D+03
 0.140947583764796D+03 -.310494439413621D+02 0.507717486368989D+02 -.264458492096177D+02
 0.105511207541151D+03 0.288848403034328D+01 -.680949065519247D+02 0.448768583040328D+01
 0.359099558851742D+03 0.193084191495802D+02 0.186805071154224D+02 0.358093167725064D+03
 0.237143588100758D+02 0.885254076143860D+01 -.135734920039668D+01 0.219581633792144D+02
0.317027386992D-03 0.000000000000D+00 0.000000000000D+00 0.201437307030D-03 0.108621401501D-05  6 21 -4 25 -24 -3 21 4 0.82642495D-01 0.19171006D-01 0.19555501D+05 0.19555501D+05 0.19555501D+05 0.12349021D+01  1  2  1  4  5  1        3 0.961218683299D-01 0.100000000000D+01
  </mgrwgt>
  </event>
  <event>
  6     66 0.42750230E-03 0.20373920E+02 0.75467711E-02 0.12369594E+00
        1 -1    0    0  502    0 0.00000000E+00 0.00000000E+00 0.25750934E+03 0.25750954E+03 0.32000000E+00 0.0000E+00 0.9000E+01
       21 -1    0    0  503  501 0.00000000E+00 0.00000000E+00 -.19660667E+03 0.19660810E+03 0.75000000E+00 0.0000E+00 0.9000E+01
       25  1    1    2    0    0 -.53233295E+02 0.15145939E+01 0.13688563E+03 0.19286978E+03 0.12500000E+03 0.0000E+00 0.9000E+01
      -24  1    1    2    0    0 0.30144478E+02 0.19154684E+00 0.61125250E+02 0.10541460E+03 0.80419002E+02 0.0000E+00 0.9000E+01
        2  1    1    2  503    0 0.21626736E+02 -.49938620E+01 -.14523096E+03 0.14691763E+03 0.32000000E+00 0.0000E+00 0.9000E+01
       21  1    1    2  502  501 0.14620809E+01 0.32877212E+01 0.81227529E+01 0.89156271E+01 0.75000000E+00 0.0000E+00 0.9000E+01
#aMCatNLO 2  0  0  2  5 0.55905005D+02 0.00000000D+00  -5  6  0 0.00000000D+00 0.00000000D+00 0.00000000D+00 0.00000000D+00 0.00000000D+00
  <mgrwgt>
 0.6597827175D+00    1    2    0
 0.113344738651105D+03 0.000000000000000D+00 0.000000000000000D+00 0.113344738651105D+03
 0.113344738651105D+03 0.000000000000000D+00 0.000000000000000D+00 -.113344738651105D+03
 0.131786930560706D+03 -.404925447645079D+02 -.145402063727953D+01 0.100516023147013D+02
 0.901408411885090D+02 0.385577660663145D+02 -.176939218119874D+01 -.129739440065827D+02
 0.000000000000000D+00 0.000000000000000D+00 -.000000000000000D+00 -.000000000000000D+00
 0.476170555299480D+01 0.193477869819340D+01 0.322341281847826D+01 0.292234169188146D+01
 0.114260878088189D+03 0.000000000000000D+00 0.000000000000000D+00 0.114260878088189D+03
 0.443094399979568D+03 0.000000000000000D+00 0.000000000000000D+00 -.443094399979568D+03
 0.136248197231474D+03 -.532476536739312D+02 0.149128064257523D+01 0.100516023147013D+02
 0.868544125698258D+02 0.301350128371595D+02 0.175518367342622D+00 -.129739440065827D+02
 0.329581764492829D+03 0.216267359867643D+02 -.499386196019380D+01 -.328833521891379D+03
 0.467090377362700D+01 0.148590485000740D+01 0.332706295027595D+01 0.292234169188146D+01
0.222164435807D-03 0.000000000000D+00 0.000000000000D+00 0.173617062969D-02 0.104942622069D-04  6 1 21 25 -24 2 21 4 0.39616920D-01 0.30247285D-01 0.15326005D+05 0.15326005D+05 0.15326005D+05 0.12467594D+01  1  2  1  5  5  2       -2 0.659782717540D+00 0.100000000000D+01
  </mgrwgt>
  </event>
  <event>
  5     66 -.42750230E-03 0.28249302E+02 0.75467711E-02 0.11987523E+00
        1 -1    0    0  502    0 0.00000000E+00 0.00000000E+00 0.15295917E+03 0.15295950E+03 0.32000000E+00 0.0000E+00 0.9000E+01
       -2 -1    0    0    0  501 0.00000000E+00 0.00000000E+00 -.22815936E+03 0.22815959E+03 0.32000000E+00 0.0000E+00 0.9000E+01
       25  1    1    2    0    0 -.87561776E+02 -.37857918E+02 0.57537978E+02 0.16743926E+03 0.12500000E+03 0.0000E+00 0.9000E+01
      -24  1    1    2    0    0 0.61287577E+02 0.27495697E+02 -.14817763E+03 0.18148280E+03 0.80419002E+02 0.0000E+00 0.9000E+01
       21  1    1    2  502  501 0.26274199E+02 0.10362221E+02 0.15439460E+02 0.32197028E+02 0.75000000E+00 0.0000E+00 0.9000E+01
#aMCatNLO 1  0  0  2  5 0.12746806D+02 0.00000000D+00  -5  6  0 0.00000000D+00 0.00000000D+00 0.00000000D+00 0.00000000D+00 0.00000000D+00
  <mgrwgt>
 -.2223460238D-01    9    4    0
 0.186813202097133D+03 0.000000000000000D+00 0.000000000000000D+00 0.186813202097133D+03
 0.186813202097133D+03 0.000000000000000D+00 0.000000000000000D+00 -.186813202097133D+03
 0.182378180743187D+03 -.875645675185364D+02 -.378590192277573D+02 0.923901617576166D+02
 0.155298754022402D+03 0.612851993295029D+02 0.274947593948535D+02 -.114623948612417D+03
 0.359494694286777D+02 0.262793681890335D+02 0.103642598329038D+02 0.222337868548007D+02
 0.000000000000000D+00 0.000000000000000D+00 -.000000000000000D+00 -.000000000000000D+00
 0.187152025989989D+03 0.000000000000000D+00 0.000000000000000D+00 0.187152025989989D+03
 0.363426925464727D+03 0.000000000000000D+00 0.000000000000000D+00 -.363426925464727D+03
 0.184318021039366D+03 -.928487860384348D+02 -.345151245319862D+02 0.923901617576166D+02
 0.154123904979475D+03 0.568263122801533D+02 0.303163778985578D+02 -.114623948612417D+03
 0.354018528103436D+02 0.252511710695600D+02 0.110149109899420D+02 0.222337868548007D+02
 0.176735172625531D+03 0.107713026887215D+02 -.681616435651364D+01 -.176274899474738D+03
 0.186813202097133D+03 0.000000000000000D+00 0.000000000000000D+00 0.186813202097133D+03
 0.186813202097133D+03 0.000000000000000D+00 0.000000000000000D+00 -.186813202097133D+03
 0.182378180743187D+03 -.875645675185364D+02 -.378590192277573D+02 0.923901617576166D+02
 0.155298754022402D+03 0.612851993295029D+02 0.274947593948535D+02 -.114623948612417D+03
 0.000000000000000D+00 0.000000000000000D+00 -.000000000000000D+00 -.000000000000000D+00
 0.359494694286777D+02 0.262793681890335D+02 0.103642598329038D+02 0.222337868548007D+02
 0.187152025989989D+03 0.000000000000000D+00 0.000000000000000D+00 0.187152025989989D+03
 0.363426925464727D+03 0.000000000000000D+00 0.000000000000000D+00 -.363426925464727D+03
 0.184318021039366D+03 -.928487860384348D+02 -.345151245319862D+02 0.923901617576166D+02
 0.154123904979475D+03 0.568263122801533D+02 0.303163778985578D+02 -.114623948612417D+03
 0.176735172625531D+03 0.107713026887215D+02 -.681616435651364D+01 -.176274899474738D+03
 0.354018528103436D+02 0.252511710695600D+02 0.110149109899420D+02 0.222337868548007D+02
0.255673151573D-04 0.000000000000D+00 0.000000000000D+00 0.152236473030D-04 0.000000000000D+00  6 1 -2 25 -24 21 21 2 0.23532223D-01 0.35101483D-01 0.21064874D+05 0.21064874D+05 0.21064874D+05 0.12313535D+01  1  2  2  2  6  2       -2 0.527278993353D-02 0.100000000000D+01
0.304771034022D-05 0.134922428869D-05 -.981852222327D-07 0.152236473030D-04 0.000000000000D+00  6 1 -2 25 -24 21 21 4 0.23532223D-01 0.35101483D-01 0.21064874D+05 0.21064874D+05 0.21064874D+05 0.12313535D+01  1  2  3  2  6  2       -2 0.953003575101D-03 0.100000000000D+01
0.318630353185D-06 0.000000000000D+00 0.000000000000D+00 0.152236473030D-04 0.000000000000D+00  6 1 -2 25 -24 21 21 4 0.23532223D-01 0.35101483D-01 0.21064874D+05 0.21064874D+05 0.21064874D+05 0.12313535D+01  1  2 15  2  6  2       -2 0.996340963619D-04 0.100000000000D+01
0.247764493548D-02 0.000000000000D+00 0.000000000000D+00 0.151249003336D-04 0.000000000000D+00  6 1 -2 25 -24 21 21 4 0.23532223D-01 0.68515856D-01 0.22924677D+05 0.22924677D+05 0.22924677D+05 0.12273535D+01  1  2 12  2  6  2       -2 0.204075740710D+00 0.100000000000D+01
-.209825693523D-02 0.000000000000D+00 0.000000000000D+00 0.152236473030D-04 0.000000000000D+00  6 1 -2 25 -24 21 21 4 0.23532223D-01 0.35101483D-01 0.21064874D+05 0.21064874D+05 0.21064874D+05 0.12313535D+01  1  2  4  2  6  2       -2 -.656114307966D+00 0.100000000000D+01
-.248952405808D-02 0.000000000000D+00 -.126135580343D-04 0.152236473030D-04 0.000000000000D+00  6 1 -2 25 -24 21 21 4 0.23532223D-01 0.68327049D-01 0.21064874D+05 0.21064874D+05 0.21064874D+05 0.12313535D+01  1  2  5  2  6  2       -2 -.208869881602D+00 0.100000000000D+01
0.203251696213D-02 0.000000000000D+00 0.102537381316D-04 0.152236473030D-04 0.000000000000D+00  6 1 -2 25 -24 21 21 4 0.23532223D-01 0.35101483D-01 0.21064874D+05 0.21064874D+05 0.21064874D+05 0.12313535D+01  1  2  6  2  6  2       -2 0.635557751601D+00 0.100000000000D+01
0.179567200237D-03 0.000000000000D+00 0.000000000000D+00 0.151249003336D-04 0.000000000000D+00  6 1 21 25 -24 2 21 4 0.23532223D-01 0.68515856D-01 0.22924677D+05 0.22924677D+05 0.22924677D+05 0.12273535D+01  3  4 12  5  5  2       -2 0.178934859808D+00 0.100000000000D+01
-.178985252966D-03 0.000000000000D+00 -.910600007931D-06 0.152236473030D-04 0.000000000000D+00  6 1 21 25 -24 2 21 4 0.23532223D-01 0.68327049D-01 0.21064874D+05 0.21064874D+05 0.21064874D+05 0.12313535D+01  3  4  5  5  5  2       -2 -.182144192533D+00 0.100000000000D+01
  </mgrwgt>
  </event>
  <event>
  6     66 0.42750230E-03 0.33227491E+02 0.75467711E-02 0.12026595E+00
        1 -1    0    0  503    0 0.00000000E+00 0.00000000E+00 0.21415321E+04 0.21415321E+04 0.32000000E+00 0.0000E+00 0.9000E+01
       -2 -1    0    0    0  501 0.00000000E+00 0.00000000E+00 -.42020966E+02 0.42022184E+02 0.32000000E+00 0.0000E+00 0.9000E+01
       25  1    1    2    0    0 0.19184133E+02 0.71637607E+02 0.56656952E+03 0.58491538E+03 0.12500000E+03 0.0000E+00 0.9000E+01
      -24  1    1    2    0    0 -.49663279E+02 -.57197633E+02 0.61178517E+02 0.12628554E+03 0.80419002E+02 0.0000E+00 0.9000E+01
       21  1    1    2  502  501 -.35012665E+01 -.34914045E+01 0.99316837E+02 0.99442674E+02 0.75000000E+00 0.0000E+00 0.9000E+01
       21  1    1    2  503  502 0.33980412E+02 -.10948569E+02 0.13724463E+04 0.13729107E+04 0.75000000E+00 0.0000E+00 0.9000E+01
#aMCatNLO 2  0  0  1  5 0.16071877D+02 0.00000000D+00  -5  6  0 0.00000000D+00 0.00000000D+00 0.00000000D+00 0.00000000D+00 0.00000000D+00
  <mgrwgt>
 0.5314275394D-01    1    2    0
 0.178357198081644D+03 0.000000000000000D+00 0.000000000000000D+00 0.178357198081644D+03
 0.178357198081644D+03 0.000000000000000D+00 0.000000000000000D+00 -.178357198081644D+03
 0.174065598468415D+03 0.357012290281027D+02 0.663169252422282D+02 0.948752878386517D+02
 0.159319902463248D+03 -.344213710598774D+02 -.621075449449715D+02 -.117785557016957D+03
 0.233288952316255D+02 -.127985796822531D+01 -.420938029725671D+01 0.229102691783051D+02
 0.000000000000000D+00 0.000000000000000D+00 -.000000000000000D+00 0.000000000000000D+00
 0.499268896797614D+03 0.000000000000000D+00 0.000000000000000D+00 0.499268896797614D+03
 0.180243891482168D+03 0.000000000000000D+00 0.000000000000000D+00 -.180243891482168D+03
 0.173569756650314D+03 0.191847110148390D+02 0.716385862818306D+02 0.948752878386517D+02
 0.161488526053280D+03 -.496633138323275D+02 -.571965550526188D+02 -.117785557016957D+03
 0.234381608164518D+02 -.350180953981265D+01 -.349346226290442D+01 0.229102691783051D+02
 0.321016344759736D+03 0.339804123573011D+02 -.109485689663074D+02 0.319025005315445D+03
0.713550165700D-03 0.000000000000D+00 0.000000000000D+00 0.567641799477D-03 0.176767276981D-05  6 1 -2 25 -24 21 21 4 0.32946578D+00 0.64648439D-02 0.21973427D+05 0.21973427D+05 0.21973427D+05 0.12293521D+01  1  2  1  1  6  1        1 0.531427539383D-01 0.100000000000D+01
  </mgrwgt>
  </event>
  <event>
  5     66 -.42750230E-03 0.26949472E+02 0.75467711E-02 0.12397137E+00
        1 -1    0    0  502    0 0.00000000E+00 0.00000000E+00 0.85855412E+02 0.85856009E+02 0.32000000E+00 0.0000E+00 0.9000E+01
       -2 -1    0    0    0  501 0.00000000E+00 0.00000000E+00 -.60570139E+03 0.60570147E+03 0.32000000E+00 0.0000E+00 0.9000E+01
       25  1    1    2    0    0 0.15726938E+02 0.31676843E+01 0.11865994E+02 0.12658267E+03 0.12500000E+03 0.0000E+00 0.9000E+01
      -24  1    1    2    0    0 -.42663112E+02 -.40079730E+01 -.11194823E+03 0.14434621E+03 0.80419002E+02 0.0000E+00 0.9000E+01
       21  1    1    2  502  501 0.26936174E+02 0.84028868E+00 -.41976374E+03 0.42062860E+03 0.75000000E+00 0.0000E+00 0.9000E+01
#aMCatNLO 1  0  0  2  5 0.71400241D-01 0.00000000D+00  -5  6  0 0.00000000D+00 0.00000000D+00 0.00000000D+00 0.00000000D+00 0.00000000D+00
  <mgrwgt>
 -.1449876603D+01    9    4    0
 0.228041613992211D+03 0.000000000000000D+00 0.000000000000000D+00 0.228041613992211D+03
 0.228041613992211D+03 0.000000000000000D+00 0.000000000000000D+00 -.228041613992211D+03
 0.205462411023192D+03 0.157268039275538D+02 0.316768011146596D+01 0.162272720395015D+03
 0.912725196736453D+02 -.426631721053875D+02 -.400797484580329D+01 -.521984451367288D+01
 0.159348297287585D+03 0.269363681778336D+02 0.840294734337332D+00 -.157052875881342D+03
 0.000000000000000D+00 0.000000000000000D+00 -.000000000000000D+00 -.000000000000000D+00
 0.228041816586008D+03 0.000000000000000D+00 0.000000000000000D+00 0.228041816586008D+03
 0.234420509390364D+03 0.000000000000000D+00 0.000000000000000D+00 -.234420509390364D+03
 0.205460278628842D+03 0.156966549227887D+02 0.317888881180080D+01 0.162272720395015D+03
 0.912785624540984D+02 -.426765657037054D+02 -.400299541676007D+01 -.521984451367288D+01
 0.159344392490367D+03 0.269129859999576D+02 0.848987685465565D+00 -.157052875881342D+03
 0.637909240306319D+01 0.669247809591014D-01 -.248810805062988D-01 -.637869280435615D+01
 0.228041613992211D+03 0.000000000000000D+00 0.000000000000000D+00 0.228041613992211D+03
 0.228041613992211D+03 0.000000000000000D+00 0.000000000000000D+00 -.228041613992211D+03
 0.205462411023192D+03 0.157268039275538D+02 0.316768011146596D+01 0.162272720395015D+03
 0.912725196736453D+02 -.426631721053875D+02 -.400797484580329D+01 -.521984451367288D+01
 0.000000000000000D+00 0.000000000000000D+00 -.000000000000000D+00 -.000000000000000D+00
 0.159348297287585D+03 0.269363681778336D+02 0.840294734337332D+00 -.157052875881342D+03
 0.228041816586008D+03 0.000000000000000D+00 0.000000000000000D+00 0.228041816586008D+03
 0.234420509390364D+03 0.000000000000000D+00 0.000000000000000D+00 -.234420509390364D+03
 0.205460278628842D+03 0.156966549227887D+02 0.317888881180080D+01 0.162272720395015D+03
 0.912785624540984D+02 -.426765657037054D+02 -.400299541676007D+01 -.521984451367288D+01
 0.637909240306319D+01 0.669247809591014D-01 -.248810805062988D-01 -.637869280435615D+01
 0.159344392490367D+03 0.269129859999576D+02 0.848987685465565D+00 -.157052875881342D+03
0.110275306517D-04 0.000000000000D+00 0.000000000000D+00 0.442677171354D-04 0.000000000000D+00  6 1 -2 25 -24 21 21 2 0.13208577D-01 0.93184881D-01 0.14895943D+05 0.14895943D+05 0.14895943D+05 0.12481673D+01  1  2  2  2  6  2       -2 0.664820736467D-03 0.100000000000D+01
0.168646793834D-05 0.581938780354D-06 -.423486213179D-07 0.442677171354D-04 0.000000000000D+00  6 1 -2 25 -24 21 21 4 0.13208577D-01 0.93184881D-01 0.14895943D+05 0.14895943D+05 0.14895943D+05 0.12481673D+01  1  2  3  2  6  2       -2 0.158398111429D-03 0.100000000000D+01
0.437863963789D-06 0.000000000000D+00 0.000000000000D+00 0.442677171354D-04 0.000000000000D+00  6 1 -2 25 -24 21 21 4 0.13208577D-01 0.93184881D-01 0.14895943D+05 0.14895943D+05 0.14895943D+05 0.12481673D+01  1  2 15  2  6  2       -2 0.411254927237D-04 0.100000000000D+01
-.133435519334D+01 0.000000000000D+00 0.000000000000D+00 0.442677171354D-04 0.000000000000D+00  6 1 -2 25 -24 21 21 4 0.13208577D-01 0.93184881D-01 0.14895943D+05 0.14895943D+05 0.14895943D+05 0.12481673D+01  1  2  4  2  6  2       -2 -.125326629576D+03 0.100000000000D+01
-.115425550032D+01 0.000000000000D+00 -.743021596182D-04 0.442677171354D-04 0.000000000000D+00  6 1 -2 25 -24 21 21 4 0.13208577D-01 0.95791534D-01 0.14895943D+05 0.14895943D+05 0.14895943D+05 0.12481673D+01  1  2  5  2  6  2       -2 -.101842464195D+03 0.100000000000D+01
0.115381844031D+01 0.000000000000D+00 0.742738913044D-04 0.442677171354D-04 0.000000000000D+00  6 1 -2 25 -24 21 21 4 0.13208577D-01 0.93184881D-01 0.14895943D+05 0.14895943D+05 0.14895943D+05 0.12481673D+01  1  2  6  2  6  2       -2 0.108370077914D+03 0.100000000000D+01
0.133067183288D+01 0.000000000000D+00 0.000000000000D+00 0.442677171354D-04 0.416399129928D-01  6 1 -2 25 -24 21 21 4 0.13208589D-01 0.95791496D-01 0.14902153D+05 0.14902153D+05 0.14902153D+05 0.12481467D+01  1  2 11  2  6  2       -2 0.117400783752D+03 0.100000000000D+01
-.573126465503D-02 0.000000000000D+00 -.368936395014D-06 0.442677171354D-04 0.000000000000D+00  6 1 21 25 -24 2 21 4 0.13208577D-01 0.95791534D-01 0.14895943D+05 0.14895943D+05 0.14895943D+05 0.12481673D+01  3  4  5  5  5  2       -2 -.609608330439D+01 0.100000000000D+01
0.568233073572D-02 0.000000000000D+00 0.000000000000D+00 0.442677171354D-04 0.355627448304D-03  6 1 21 25 -24 2 21 4 0.13208589D-01 0.95791496D-01 0.14902153D+05 0.14902153D+05 0.14902153D+05 0.12481467D+01  3  4 11  5  5  2       -2 0.604357446248D+01 0.100000000000D+01
  </mgrwgt>
  </event>
  <event>
  6     66 0.42750230E-03 0.14737109E+02 0.75467711E-02 0.11778480E+00
        1 -1    0    0  503    0 0.00000000E+00 0.00000000E+00 0.10139063E+04 0.10139064E+04 0.32000000E+00 0.0000E+00 0.9000E+01
       -2 -1    0    0    0  501 0.00000000E+00 0.00000000E+00 -.73794734E+02 0.73795428E+02 0.32000000E+00 0.0000E+00 0.9000E+01
       25  1    1    2    0    0 -.86603810E+02 -.66314045E+02 0.70717415E+02 0.18034335E+03 0.12500000E+03 0.0000E+00 0.9000E+01
      -24  1    1    2    0    0 0.10547603E+03 0.51712422E+02 0.29803416E+03 0.33028918E+03 0.80419002E+02 0.0000E+00 0.9000E+01
       21  1    1    2  502  501 -.10566063E+02 -.40351522E+01 0.93647774E+01 0.14703254E+02 0.75000000E+00 0.0000E+00 0.9000E+01
       21  1    1    2  503  502 -.83061567E+01 0.18636775E+02 0.56199526E+03 0.56236604E+03 0.75000000E+00 0.0000E+00 0.9000E+01
#aMCatNLO 2  0  0  1  5 0.28284853D+02 0.00000000D+00  -5  6  0 0.00000000D+00 0.00000000D+00 0.00000000D+00 0.00000000D+00 0.00000000D+00
  <mgrwgt>
 0.1065028830D+01    1    2    0
 0.182064133802330D+03 0.000000000000000D+00 0.000000000000000D+00 0.182064133802330D+03
 0.182064133802330D+03 0.000000000000000D+00 0.000000000000000D+00 -.182064133802330D+03
 0.185324937833220D+03 -.908292557303868D+02 -.568032778546126D+02 -.851103196523347D+02
 0.167281427766779D+03 0.101679641694106D+03 0.602575760311154D+02 0.868684932362370D+02
 0.115219020046602D+02 -.108503859637190D+02 -.345429817650279D+01 -.175817358390230D+01
 0.000000000000000D+00 -.000000000000000D+00 0.000000000000000D+00 0.000000000000000D+00
 0.409285668596681D+03 0.000000000000000D+00 0.000000000000000D+00 0.409285668596681D+03
 0.182808377709690D+03 0.000000000000000D+00 0.000000000000000D+00 -.182808377709690D+03
 0.186451050297802D+03 -.865922743958232D+02 -.663099212847484D+02 -.851103196523347D+02
 0.166779172791570D+03 0.105486795933126D+03 0.517153486819784D+02 0.868684932362370D+02
 0.114692654013841D+02 -.105883648804077D+02 -.404220282217559D+01 -.175817358390230D+01
 0.227394557815615D+03 -.830615665689495D+01 0.186367754249457D+02 0.226477290886990D+03
0.649959471151D-02 0.000000000000D+00 0.000000000000D+00 0.112049053571D-03 0.137546583046D-05  6 1 -2 25 -24 21 21 4 0.15598512D+00 0.11353055D-01 0.28899945D+05 0.28899945D+05 0.28899945D+05 0.12166049D+01  1  2  1  1  6  1        1 0.106502883024D+01 0.100000000000D+01
  </mgrwgt>
  </event>
  <event>
  5     66 0.42750230E-03 0.67210547E+02 0.75467711E-02 0.11460013E+00
        1 -1    0    0  502    0 0.00000000E+00 0.00000000E+00 0.68443163E+03 0.68443170E+03 0.32000000E+00 0.0000E+00 0.9000E+01
       -2 -1    0    0    0  501 0.00000000E+00 0.00000000E+00 -.90925068E+02 0.90925631E+02 0.32000000E+00 0.0000E+00 0.9000E+01
       25  1    1    2    0    0 -.10141523E+03 -.79405043E+02 0.54576393E+02 0.18760008E+03 0.12500000E+03 0.0000E+00 0.9000E+01
      -24  1    1    2    0    0 0.13995538E+03 0.24346320E+02 0.42775364E+03 0.45784347E+03 0.80419002E+02 0.0000E+00 0.9000E+01
       21  1    1    2  502  501 -.38540158E+02 0.55058723E+02 0.11117653E+03 0.12991378E+03 0.75000000E+00 0.0000E+00 0.9000E+01
#aMCatNLO 1  0  0  5  1 0.68388369D+01 0.00000000D+00  -5  6  0 0.00000000D+00 0.00000000D+00 0.00000000D+00 0.00000000D+00 0.00000000D+00
  <mgrwgt>
 0.3522969565D-01   25    2    0
 0.249463904017531D+03 0.000000000000000D+00 0.000000000000000D+00 0.249463904017531D+03
 0.249463904017531D+03 -.000000000000000D+00 -.000000000000000D+00 -.249463904017531D+03
 0.226617608833461D+03 -.101414209938854D+03 -.794064938221194D+02 -.138348499792196D+03
 0.202670223826899D+03 0.139956291328803D+03 0.243450232370668D+02 0.120114778577613D+03
 0.696399753747026D+02 -.385420813899486D+02 0.550614705850526D+02 0.182337212145831D+02
 0.000000000000000D+00 0.000000000000000D+00 0.000000000000000D+00 0.000000000000000D+00
 0.249463904017531D+03 0.000000000000000D+00 0.000000000000000D+00 0.249463904017531D+03
 0.249463904017531D+03 -.000000000000000D+00 -.000000000000000D+00 -.249463904017531D+03
 0.226443709870758D+03 -.101928228974804D+03 -.786721628517251D+02 -.138105324554573D+03
 0.202562211123775D+03 0.139496536375225D+03 0.250018321830250D+02 0.120332282234609D+03
 0.546042936895464D+02 -.333596649287966D+02 0.389719056093901D+02 0.187070098718487D+02
 0.153175933509832D+02 -.420864247162436D+01 0.146984250593100D+02 -.933967551885235D+00
0.125748481105D-03 0.000000000000D+00 0.000000000000D+00 0.244673784635D-05 0.000000000000D+00  6 1 -2 25 -24 21 21 2 0.10529722D+00 0.13988521D-01 0.42012225D+05 0.42012225D+05 0.42012225D+05 0.11998417D+01  1  2  2  3  6  5       21 0.178308847111D-01 0.100000000000D+01
0.229853773484D-05 0.663592965980D-05 -.482907277780D-06 0.244673784635D-05 0.000000000000D+00  6 1 -2 25 -24 21 21 4 0.10529722D+00 0.13988521D-01 0.42012225D+05 0.42012225D+05 0.42012225D+05 0.11998417D+01  1  2  3  3  6  5       21 0.469212590895D-03 0.100000000000D+01
0.269631393086D-05 0.000000000000D+00 0.000000000000D+00 0.244673784635D-05 0.000000000000D+00  6 1 -2 25 -24 21 21 4 0.10529722D+00 0.13988521D-01 0.42012225D+05 0.42012225D+05 0.42012225D+05 0.11998417D+01  1  2 15  3  6  5       21 0.550412736843D-03 0.100000000000D+01
0.341564604166D-03 0.000000000000D+00 0.000000000000D+00 0.244756666593D-05 0.000000000000D+00  6 1 -2 25 -24 21 21 4 0.10529722D+00 0.13988521D-01 0.41818077D+05 0.41818077D+05 0.41818077D+05 0.12000449D+01  1  2 12  3  6  5       21 0.697721689580D-01 0.100000000000D+01
0.345345868608D-03 0.000000000000D+00 0.000000000000D+00 0.244756666593D-05 0.000000000000D+00  6 1 -2 25 -24 21 21 4 0.10529722D+00 0.13988521D-01 0.41818077D+05 0.41818077D+05 0.41818077D+05 0.12000449D+01  1  2 12  3  6  5       21 0.705445763396D-01 0.100000000000D+01
-.103563439261D-02 0.000000000000D+00 0.000000000000D+00 0.244673784635D-05 0.000000000000D+00  6 1 -2 25 -24 21 21 4 0.10529722D+00 0.13988521D-01 0.42012225D+05 0.42012225D+05 0.42012225D+05 0.11998417D+01  1  2  4  3  6  5       21 -.211409492744D+00 0.100000000000D+01
-.954000325713D-03 0.000000000000D+00 0.000000000000D+00 0.244673784635D-05 0.000000000000D+00  6 1 -2 25 -24 21 21 4 0.10529722D+00 0.13988521D-01 0.42012225D+05 0.42012225D+05 0.42012225D+05 0.11998417D+01  1  2  5  3  6  5       21 -.194745101531D+00 0.100000000000D+01
0.132715943756D-02 0.000000000000D+00 -.000000000000D+00 0.244673784635D-05 0.000000000000D+00  6 1 -2 25 -24 21 21 4 0.10529722D+00 0.13988521D-01 0.42012225D+05 0.42012225D+05 0.42012225D+05 0.11998417D+01  1  2  6  3  6  5       21 0.270920032676D+00 0.100000000000D+01
0.598080687053D-04 0.000000000000D+00 0.000000000000D+00 0.244673784635D-05 0.323995122117D-06  6 1 -2 25 -24 21 21 4 0.10529722D+00 0.13988521D-01 0.41818077D+05 0.41818077D+05 0.41818077D+05 0.12000449D+01  1  2 11  3  6  5       21 0.122171285428D-01 0.100000000000D+01
0.687359816368D-05 0.000000000000D+00 0.000000000000D+00 0.244756666593D-05 0.000000000000D+00  6 1 -2 25 -24 1 -1 4 0.10529722D+00 0.13988521D-01 0.41818077D+05 0.41818077D+05 0.41818077D+05 0.12000449D+01  1  2 12  6  6  5       21 0.140408533723D-02 0.100000000000D+01
0.692137318886D-05 0.000000000000D+00 0.000000000000D+00 0.244756666593D-05 0.000000000000D+00  6 1 -2 25 -24 1 -1 4 0.10529722D+00 0.13988521D-01 0.41818077D+05 0.41818077D+05 0.41818077D+05 0.12000449D+01  1  2 12  6  6  5       21 0.141384444894D-02 0.100000000000D+01
-.158373255584D-04 0.000000000000D+00 0.000000000000D+00 0.244673784635D-05 0.000000000000D+00  6 1 -2 25 -24 1 -1 4 0.10529722D+00 0.13988521D-01 0.42012225D+05 0.42012225D+05 0.42012225D+05 0.11998417D+01  1  2  5  6  6  5       21 -.323295652078D-02 0.100000000000D+01
0.911934201061D-06 0.000000000000D+00 0.000000000000D+00 0.244673784635D-05 0.906866349359D-08  6 1 -2 25 -24 1 -1 4 0.10529722D+00 0.13988521D-01 0.41818077D+05 0.41818077D+05 0.41818077D+05 0.12000449D+01  1  2 11  6  6  5       21 0.186282847751D-03 0.100000000000D+01
0.687359816368D-05 0.000000000000D+00 0.000000000000D+00 0.244756666593D-05 0.000000000000D+00  6 1 -2 25 -24 2 -2 4 0.10529722D+00 0.13988521D-01 0.41818077D+05 0.41818077D+05 0.41818077D+05 0.12000449D+01  1  2 12  7  6  5       21 0.140408533723D-02 0.100000000000D+01
0.692137318886D-05 0.000000000000D+00 0.000000000000D+00 0.244756666593D-05 0.000000000000D+00  6 1 -2 25 -24 2 -2 4 0.10529722D+00 0.13988521D-01 0.41818077D+05 0.41818077D+05 0.41818077D+05 0.12000449D+01  1  2 12  7  6  5       21 0.141384444894D-02 0.100000000000D+01
-.158373255584D-04 0.000000000000D+00 0.000000000000D+00 0.244673784635D-05 0.000000000000D+00  6 1 -2 25 -24 2 -2 4 0.10529722D+00 0.13988521D-01 0.42012225D+05 0.42012225D+05 0.42012225D+05 0.11998417D+01  1  2  5  7  6  5       21 -.323295652078D-02 0.100000000000D+01
0.896038942923D-06 0.000000000000D+00 0.000000000000D+00 0.244673784635D-05 0.896210709944D-08  6 1 -2 25 -24 2 -2 4 0.10529722D+00 0.13988521D-01 0.41818077D+05 0.41818077D+05 0.41818077D+05 0.12000449D+01  1  2 11  7  6  5       21 0.183035887665D-03 0.100000000000D+01
0.687359816368D-05 0.000000000000D+00 0.000000000000D+00 0.244756666593D-05 0.000000000000D+00  6 1 -2 25 -24 3 -3 4 0.10529722D+00 0.13988521D-01 0.41818077D+05 0.41818077D+05 0.41818077D+05 0.12000449D+01  1  2 12  8  6  5       21 0.140408533723D-02 0.100000000000D+01
0.687359816368D-05 0.000000000000D+00 0.000000000000D+00 0.244756666593D-05 0.000000000000D+00  6 1 -2 25 -24 4 -4 4 0.10529722D+00 0.13988521D-01 0.41818077D+05 0.41818077D+05 0.41818077D+05 0.12000449D+01  1  2 12  8  6  5       21 0.140408533723D-02 0.100000000000D+01
0.692137318886D-05 0.000000000000D+00 0.000000000000D+00 0.244756666593D-05 0.000000000000D+00  6 1 -2 25 -24 3 -3 4 0.10529722D+00 0.13988521D-01 0.41818077D+05 0.41818077D+05 0.41818077D+05 0.12000449D+01  1  2 12  8  6  5       21 0.141384444894D-02 0.100000000000D+01
0.692137318886D-05 0.000000000000D+00 0.000000000000D+00 0.244756666593D-05 0.000000000000D+00  6 1 -2 25 -24 4 -4 4 0.10529722D+00 0.13988521D-01 0.41818077D+05 0.41818077D+05 0.41818077D+05 0.12000449D+01  1  2 12  8  6  5       21 0.141384444894D-02 0.100000000000D+01
-.158373255584D-04 0.000000000000D+00 0.000000000000D+00 0.244673784635D-05 0.000000000000D+00  6 1 -2 25 -24 3 -3 4 0.10529722D+00 0.13988521D-01 0.42012225D+05 0.42012225D+05 0.42012225D+05 0.11998417D+01  1  2  5  8  6  5       21 -.323295652078D-02 0.100000000000D+01
-.158373255584D-04 0.000000000000D+00 0.000000000000D+00 0.244673784635D-05 0.000000000000D+00  6 1 -2 25 -24 4 -4 4 0.10529722D+00 0.13988521D-01 0.42012225D+05 0.42012225D+05 0.42012225D+05 0.11998417D+01  1  2  5  8  6  5       21 -.323295652078D-02 0.100000000000D+01
0.907273457324D-06 0.000000000000D+00 0.000000000000D+00 0.244673784635D-05 0.900459007037D-08  6 1 -2 25 -24 3 -3 4 0.10529722D+00 0.13988521D-01 0.41818077D+05 0.41818077D+05 0.41818077D+05 0.12000449D+01  1  2 11  8  6  5       21 0.185330787158D-03 0.100000000000D+01
0.907273457324D-06 0.000000000000D+00 0.000000000000D+00 0.244673784635D-05 0.900459007037D-08  6 1 -2 25 -24 4 -4 4 0.10529722D+00 0.13988521D-01 0.41818077D+05 0.41818077D+05 0.41818077D+05 0.12000449D+01  1  2 11  8  6  5       21 0.185330787158D-03 0.100000000000D+01
  </mgrwgt>
  </event>
  <event>
  5     66 0.42750230E-03 0.20754438E+02 0.75467711E-02 0.12104638E+00
        1 -1    0    0  502    0 0.00000000E+00 0.00000000E+00 0.49241598E+03 0.49241608E+03 0.32000000E+00 0.0000E+00 0.9000E+01
       -2 -1    0    0    0  501 0.00000000E+00 0.00000000E+00 -.31042883E+02 0.31044532E+02 0.32000000E+00 0.0000E+00 0.9000E+01
       25  1    1    2    0    0 0.79749068E+01 -.35880090E+02 0.24842951E+03 0.28052309E+03 0.12500000E+03 0.0000E+00 0.9000E+01
      -24  1    1    2    0    0 -.28689848E+02 0.34762727E+02 0.14439391E+03 0.17131366E+03 0.80419002E+02 0.0000E+00 0.9000E+01
       21  1    1    2  502  501 0.20714942E+02 0.11173627E+01 0.68549674E+02 0.71623862E+02 0.75000000E+00 0.0000E+00 0.9000E+01
#aMCatNLO 1  0  0  2  5 0.37646675D+01 0.00000000D+00  -5  6  0 0.00000000D+00 0.00000000D+00 0.00000000D+00 0.00000000D+00 0.00000000D+00
  <mgrwgt>
 0.1320949036D+00    7    4    0
 0.123638465741130D+03 0.000000000000000D+00 0.000000000000000D+00 0.123638465741130D+03
 0.123638465741130D+03 0.000000000000000D+00 0.000000000000000D+00 -.123638465741130D+03
 0.130315502104736D+03 0.796944531119896D+01 -.358803841340183D+02 0.249320368935246D+01
 0.932430250376506D+02 -.286937561194078D+02 0.347625160504410D+02 -.139743193538783D+02
 0.237184043398738D+02 0.207243108082089D+02 0.111786808357731D+01 0.114811156645258D+02
 0.000000000000000D+00 -.000000000000000D+00 0.000000000000000D+00 -.000000000000000D+00
 0.133729231749845D+03 0.000000000000000D+00 0.000000000000000D+00 0.133729231749845D+03
 0.166871932572120D+03 0.000000000000000D+00 0.000000000000000D+00 -.166871932572120D+03
 0.137194582720347D+03 0.185664716876265D+02 -.533518846175659D+02 0.249320368935246D+01
 0.874834220404349D+02 -.215345384478319D+02 0.229589901774660D+02 -.139743193538783D+02
 0.255015022888161D+02 0.226740864554731D+02 -.209676071453179D+01 0.114811156645258D+02
 0.504216572723670D+02 -.197060196952677D+02 0.324896551546317D+02 -.331427008222757D+02
 0.123638465741130D+03 0.000000000000000D+00 0.000000000000000D+00 0.123638465741130D+03
 0.123638465741130D+03 0.000000000000000D+00 0.000000000000000D+00 -.123638465741130D+03
 0.130315502104736D+03 0.796944531119896D+01 -.358803841340183D+02 0.249320368935246D+01
 0.932430250376506D+02 -.286937561194078D+02 0.347625160504410D+02 -.139743193538783D+02
 0.000000000000000D+00 -.000000000000000D+00 0.000000000000000D+00 -.000000000000000D+00
 0.237184043398738D+02 0.207243108082089D+02 0.111786808357731D+01 0.114811156645258D+02
 0.133729231749845D+03 0.000000000000000D+00 0.000000000000000D+00 0.133729231749845D+03
 0.166871932572120D+03 0.000000000000000D+00 0.000000000000000D+00 -.166871932572120D+03
 0.137194582720347D+03 0.185664716876265D+02 -.533518846175659D+02 0.249320368935246D+01
 0.874834220404349D+02 -.215345384478319D+02 0.229589901774660D+02 -.139743193538783D+02
 0.504216572723670D+02 -.197060196952677D+02 0.324896551546317D+02 -.331427008222757D+02
 0.255015022888161D+02 0.226740864554731D+02 -.209676071453179D+01 0.114811156645258D+02
0.110040247613D-03 0.000000000000D+00 0.000000000000D+00 0.579837297631D-04 0.000000000000D+00  6 1 -2 25 -24 21 21 2 0.75756439D-01 0.47759630D-02 0.14790938D+05 0.14790938D+05 0.14790938D+05 0.12485180D+01  1  2  2  2  6  2       -2 0.138304174459D+00 0.100000000000D+01
0.204107049132D-04 0.580698340442D-05 -.422583525098D-06 0.579837297631D-04 0.000000000000D+00  6 1 -2 25 -24 21 21 4 0.75756439D-01 0.47759630D-02 0.14790938D+05 0.14790938D+05 0.14790938D+05 0.12485180D+01  1  2  3  2  6  2       -2 0.399881553665D-01 0.100000000000D+01
0.398668264018D-05 0.000000000000D+00 0.000000000000D+00 0.579837297631D-04 0.000000000000D+00  6 1 -2 25 -24 21 21 4 0.75756439D-01 0.47759630D-02 0.14790938D+05 0.14790938D+05 0.14790938D+05 0.12485180D+01  1  2 15  2  6  2       -2 0.781061141643D-02 0.100000000000D+01
-.627114960916D-04 0.000000000000D+00 0.000000000000D+00 0.579837297631D-04 0.000000000000D+00  6 1 -2 25 -24 21 21 4 0.75756439D-01 0.47759630D-02 0.14790938D+05 0.14790938D+05 0.14790938D+05 0.12485180D+01  1  2  4  2  6  2       -2 -.122862833971D+00 0.100000000000D+01
-.270903097281D-03 0.000000000000D+00 -.755670878771D-04 0.579837297631D-04 0.000000000000D+00  6 1 -2 25 -24 21 21 4 0.75756439D-01 0.69615579D-02 0.14790938D+05 0.14790938D+05 0.14790938D+05 0.12485180D+01  1  2  5  2  6  2       -2 -.300572287978D+00 0.100000000000D+01
0.284037835176D-03 0.000000000000D+00 0.705024742308D-04 0.579837297631D-04 0.000000000000D+00  6 1 -2 25 -24 21 21 4 0.75756439D-01 0.47759630D-02 0.14790938D+05 0.14790938D+05 0.14790938D+05 0.12485180D+01  1  2  6  2  6  2       -2 0.556480000631D+00 0.100000000000D+01
-.996959485578D-05 0.000000000000D+00 -.344350248071D-05 0.579837297631D-04 0.000000000000D+00  6 1 21 25 -24 2 21 4 0.75756439D-01 0.69615579D-02 0.14790938D+05 0.14790938D+05 0.14790938D+05 0.12485180D+01  3  4  5  5  5  2       -2 -.187052916304D+00 0.100000000000D+01
  </mgrwgt>
  </event>
  <event>
  5     66 0.42750230E-03 0.22906602E+02 0.75467711E-02 0.12362842E+00
        1 -1    0    0  502    0 0.00000000E+00 0.00000000E+00 0.20799408E+04 0.20799408E+04 0.32000000E+00 0.0000E+00 0.9000E+01
       -2 -1    0    0    0  501 0.00000000E+00 0.00000000E+00 -.10140973E+02 0.10146021E+02 0.32000000E+00 0.0000E+00 0.9000E+01
       25  1    1    2    0    0 0.42666228E+02 0.12952347E+02 0.55131476E+03 0.56706360E+03 0.12500000E+03 0.0000E+00 0.9000E+01
      -24  1    1    2    0    0 -.29482279E+02 0.57663761E+01 0.13790061E+04 0.13816756E+04 0.80419002E+02 0.0000E+00 0.9000E+01
       21  1    1    2  502  501 -.13183949E+02 -.18718723E+02 0.13947904E+03 0.14134770E+03 0.75000000E+00 0.0000E+00 0.9000E+01
#aMCatNLO 1  0  0  1  1 0.70105582D+01 0.00000000D+00  -5  6  0 0.00000000D+00 0.00000000D+00 0.00000000D+00 0.00000000D+00 0.00000000D+00
  <mgrwgt>
 0.4294609581D+00    9    4    0
 0.145251248317930D+03 0.000000000000000D+00 0.000000000000000D+00 0.145251248317930D+03
 0.145251248317930D+03 0.000000000000000D+00 0.000000000000000D+00 -.145251248317930D+03
 0.151810316526507D+03 0.426698355286723D+02 0.129574693658385D+02 -.737072678062863D+02
 0.115508235569213D+03 -.294795338123760D+02 0.577027341799312D+01 0.772825825191481D+02
 0.231839445401401D+02 -.131903017162963D+02 -.187277427838317D+02 -.357531471286178D+01
 0.000000000000000D+00 -.000000000000000D+00 0.000000000000000D+00 0.000000000000000D+00
 0.149934261728152D+03 0.000000000000000D+00 0.000000000000000D+00 0.149934261728152D+03
 0.147941181064801D+03 0.000000000000000D+00 0.000000000000000D+00 -.147941181064801D+03
 0.152683635390418D+03 0.460584816330737D+02 0.115389539483534D+02 -.737072678062863D+02
 0.114831856835542D+03 -.269161296728160D+02 0.469721114439417D+01 0.772825825191481D+02
 0.230715833265655D+02 -.126755341377426D+02 -.189432287697101D+02 -.357531471286178D+01
 0.728836724042860D+01 -.646681782251513D+01 0.270706367696254D+01 0.199308066335097D+01
 0.145251248317930D+03 0.000000000000000D+00 0.000000000000000D+00 0.145251248317930D+03
 0.145251248317930D+03 0.000000000000000D+00 0.000000000000000D+00 -.145251248317930D+03
 0.151810316526507D+03 0.426698355286723D+02 0.129574693658385D+02 -.737072678062863D+02
 0.115508235569213D+03 -.294795338123760D+02 0.577027341799312D+01 0.772825825191481D+02
 0.000000000000000D+00 -.000000000000000D+00 0.000000000000000D+00 0.000000000000000D+00
 0.231839445401401D+02 -.131903017162963D+02 -.187277427838317D+02 -.357531471286178D+01
 0.149934261728152D+03 0.000000000000000D+00 0.000000000000000D+00 0.149934261728152D+03
 0.147941181064801D+03 0.000000000000000D+00 0.000000000000000D+00 -.147941181064801D+03
 0.152683635390418D+03 0.460584816330737D+02 0.115389539483534D+02 -.737072678062863D+02
 0.114831856835542D+03 -.269161296728160D+02 0.469721114439417D+01 0.772825825191481D+02
 0.728836724042860D+01 -.646681782251513D+01 0.270706367696254D+01 0.199308066335097D+01
 0.230715833265655D+02 -.126755341377426D+02 -.189432287697101D+02 -.357531471286178D+01
0.135024964905D-03 0.000000000000D+00 0.000000000000D+00 0.294482796756D-04 0.000000000000D+00  6 1 -2 25 -24 21 21 2 0.31999129D+00 0.15605399D-02 0.14576819D+05 0.14576819D+05 0.14576819D+05 0.12492419D+01  1  2  2  1  6  1        1 0.614873278694D-01 0.100000000000D+01
0.221736156539D-04 0.712546315910D-05 -.518531418126D-06 0.294482796756D-04 0.000000000000D+00  6 1 -2 25 -24 21 21 4 0.31999129D+00 0.15605399D-02 0.14576819D+05 0.14576819D+05 0.14576819D+05 0.12492419D+01  1  2  3  1  6  1        1 0.157580015639D-01 0.100000000000D+01
0.688991438009D-05 0.000000000000D+00 0.000000000000D+00 0.294482796756D-04 0.000000000000D+00  6 1 -2 25 -24 21 21 4 0.31999129D+00 0.15605399D-02 0.14576819D+05 0.14576819D+05 0.14576819D+05 0.12492419D+01  1  2 15  1  6  1        1 0.489641758346D-02 0.100000000000D+01
-.669862699055D-04 0.000000000000D+00 0.000000000000D+00 0.294482796756D-04 0.000000000000D+00  6 1 -2 25 -24 21 21 4 0.31999129D+00 0.15605399D-02 0.14576819D+05 0.14576819D+05 0.14576819D+05 0.12492419D+01  1  2  4  1  6  1        1 -.476047642571D-01 0.100000000000D+01
-.471087249189D-02 0.000000000000D+00 -.698990542981D-03 0.294482796756D-04 0.000000000000D+00  6 1 -2 25 -24 21 21 4 0.33304459D+00 0.15605399D-02 0.14576819D+05 0.14576819D+05 0.14576819D+05 0.12492419D+01  1  2  5  1  6  1        1 -.295713168904D+01 0.100000000000D+01
0.473559261838D-02 0.000000000000D+00 0.698432208003D-03 0.294482796756D-04 0.000000000000D+00  6 1 -2 25 -24 21 21 4 0.31999129D+00 0.15605399D-02 0.14576819D+05 0.14576819D+05 0.14576819D+05 0.12492419D+01  1  2  6  1  6  1        1 0.336541757786D+01 0.100000000000D+01
0.441390332984D-05 0.000000000000D+00 0.000000000000D+00 0.294482796756D-04 0.247700404453D-05  6 1 -2 25 -24 21 21 4 0.33030805D+00 0.15894398D-02 0.15432054D+05 0.15432054D+05 0.15432054D+05 0.12464191D+01  1  2 11  1  6  1        1 0.274524563994D-02 0.100000000000D+01
-.328929716073D-04 0.000000000000D+00 -.493971108175D-05 0.294482796756D-04 0.000000000000D+00  6 21 -2 25 -24 -1 21 4 0.33304459D+00 0.15605399D-02 0.14576819D+05 0.14576819D+05 0.14576819D+05 0.12492419D+01  3  4  5  4  5  1        1 -.161234025008D-01 0.100000000000D+01
0.332722230079D-07 0.000000000000D+00 0.000000000000D+00 0.294482796756D-04 0.362143113596D-07  6 21 -2 25 -24 -1 21 4 0.33030805D+00 0.15894398D-02 0.15432054D+05 0.15432054D+05 0.15432054D+05 0.12464191D+01  3  4 11  4  5  1        1 0.162433955642D-04 0.100000000000D+01
  </mgrwgt>
  </event>
  <event>
  6     66 -.42750230E-03 0.13995017E+02 0.75467711E-02 0.12250404E+00
        1 -1    0    0  502    0 0.00000000E+00 0.00000000E+00 0.10390274E+04 0.10390274E+04 0.32000000E+00 0.0000E+00 0.9000E+01
       -2 -1    0    0    0  501 0.00000000E+00 0.00000000E+00 -.18607453E+02 0.18610204E+02 0.32000000E+00 0.0000E+00 0.9000E+01
       25  1    1    2    0    0 0.19774510E+02 -.58435042E+02 0.37381854E+03 0.39896238E+03 0.12500000E+03 0.0000E+00 0.9000E+01
      -24  1    1    2    0    0 -.27977987E+02 0.48902416E+02 0.53046530E+03 0.53947647E+03 0.80419002E+02 0.0000E+00 0.9000E+01
       21  1    1    2  503  501 -.48427302E+01 0.22270220E+01 0.60442729E+01 0.80936641E+01 0.75000000E+00 0.0000E+00 0.9000E+01
       21  1    1    2  502  503 0.13046207E+02 0.73056034E+01 0.11009182E+03 0.11110511E+03 0.75000000E+00 0.0000E+00 0.9000E+01
#aMCatNLO 2  0  0  5  2 0.66032484D+01 0.00000000D+00  -5  6  0 0.00000000D+00 0.00000000D+00 0.00000000D+00 0.00000000D+00 0.00000000D+00
  <mgrwgt>
 -.1734856302D+00    2    2    0
 0.139050832689182D+03 0.000000000000000D+00 0.000000000000000D+00 0.139050832689182D+03
 0.139050832689182D+03 -.000000000000000D+00 -.000000000000000D+00 -.139050832689182D+03
 0.148066914345141D+03 0.151294360607137D+02 -.638327220385579D+02 -.446687237933237D+02
 0.103856421081491D+03 -.312851272795081D+02 0.450594448604841D+02 0.361915388655335D+02
 0.261783299517325D+02 0.161556912187944D+02 0.187732771780738D+02 0.847718492779018D+01
 0.000000000000000D+00 0.000000000000000D+00 -.000000000000000D+00 0.000000000000000D+00
 0.139050832689182D+03 0.000000000000000D+00 0.000000000000000D+00 0.139050832689182D+03
 0.139050832689182D+03 -.000000000000000D+00 -.000000000000000D+00 -.139050832689182D+03
 0.145888975780286D+03 0.192851606643629D+02 -.590036764221569D+02 -.424881395337583D+02
 0.105098898816982D+03 -.283310760319044D+02 0.484921189638975D+02 0.377415832661701D+02
 0.758129726875300D+01 -.453782053291678D+01 0.138173901223092D+01 -.591397078030657D+01
 0.195324935123434D+02 0.135837359004583D+02 0.912981844602847D+01 0.106605270478948D+02
-.547751384134D-04 0.000000000000D+00 0.000000000000D+00 0.333289124992D-04 0.000000000000D+00  6 1 -2 25 -24 21 21 4 0.15985058D+00 0.28629005D-02 0.16739657D+05 0.16739657D+05 0.16739657D+05 0.12424261D+01  1  2 13  3  6  5       21 -.756855596932D-01 0.100000000000D+01
-.707798478114D-04 0.000000000000D+00 0.000000000000D+00 0.333289124992D-04 0.000000000000D+00  6 1 -2 25 -24 21 21 4 0.15985058D+00 0.28629005D-02 0.16739657D+05 0.16739657D+05 0.16739657D+05 0.12424261D+01  1  2 13  3  6  5       21 -.978000704658D-01 0.100000000000D+01
  </mgrwgt>
  </event>
  <event>
  6     66 0.42750230E-03 0.36170009E+02 0.75467711E-02 0.11399697E+00
        1 -1    0    0  503    0 0.00000000E+00 0.00000000E+00 0.17146457E+04 0.17146457E+04 0.32000000E+00 0.0000E+00 0.9000E+01
       -2 -1    0    0    0  501 0.00000000E+00 0.00000000E+00 -.34970582E+02 0.34972046E+02 0.32000000E+00 0.0000E+00 0.9000E+01
       25  1    1    2    0    0 0.35544540E+01 0.17833548E+03 0.53939019E+03 0.58170694E+03 0.12500000E+03 0.0000E+00 0.9000E+01
      -24  1    1    2    0    0 0.15435955E+02 -.13386769E+03 0.48652022E+03 0.51120248E+03 0.80419002E+02 0.0000E+00 0.9000E+01
       21  1    1    2  502  501 -.12499779E+02 -.38575320E+02 0.28840022E+03 0.29123796E+03 0.75000000E+00 0.0000E+00 0.9000E+01
       21  1    1    2  503  502 -.64906301E+01 -.58924740E+01 0.36536448E+03 0.36547040E+03 0.75000000E+00 0.0000E+00 0.9000E+01
#aMCatNLO 2  0  0  1  5 0.87663863D+01 0.00000000D+00  -5  6  0 0.00000000D+00 0.00000000D+00 0.00000000D+00 0.00000000D+00 0.00000000D+00
  <mgrwgt>
 0.2190242378D+00    2    2    0
 0.217010739976596D+03 0.000000000000000D+00 0.000000000000000D+00 0.217010739976596D+03
 0.217010739976596D+03 0.000000000000000D+00 0.000000000000000D+00 -.217010739976596D+03
 0.219271876803346D+03 0.258124185356832D+00 0.175344159657059D+03 -.413462816094311D+02
 0.158584333475105D+03 0.130771469914192D+02 -.136008230562933D+03 0.353897090660424D+01
 0.561652696747410D+02 -.133352711767760D+02 -.393359290941264D+02 0.378073107028268D+02
 0.000000000000000D+00 -.000000000000000D+00 -.000000000000000D+00 0.000000000000000D+00
 0.275837918730713D+03 0.000000000000000D+00 0.000000000000000D+00 0.275837918730713D+03
 0.217381837582635D+03 0.000000000000000D+00 0.000000000000000D+00 -.217381837582635D+03
 0.221701012058370D+03 0.355508088585742D+01 0.178337279178175D+03 -.413462816094311D+02
 0.156965732264785D+03 0.154363734424375D+02 -.133866423015323D+03 0.353897090660424D+01
 0.554432585447267D+02 -.125008242204200D+02 -.385783821496895D+02 0.378073107028268D+02
 0.591097534454660D+02 -.649063010787494D+01 -.589247401316270D+01 0.584560811480784D+02
-.387219628584D-02 0.000000000000D+00 0.000000000000D+00 0.989181221769D-05 0.000000000000D+00  6 1 -2 25 -24 21 21 4 0.26835068D+00 0.53709610D-02 0.44956055D+05 0.44956055D+05 0.44956055D+05 0.11968827D+01  1  2 13  1  6  1        1 -.610254398222D+00 0.100000000000D+01
0.504760452660D-02 0.000000000000D+00 0.000000000000D+00 0.992151811615D-05 0.676501872843D-06  6 1 -2 25 -24 21 21 4 0.26378888D+00 0.53801456D-02 0.44956055D+05 0.44956055D+05 0.44956055D+05 0.11968827D+01  1  2  1  1  6  1        1 0.829278636021D+00 0.100000000000D+01
  </mgrwgt>
  </event>
  <event>
  5     66 0.42750230E-03 0.28514991E+02 0.75467711E-02 0.11745484E+00
        1 -1    0    0  502    0 0.00000000E+00 0.00000000E+00 0.21403778E+04 0.21403778E+04 0.32000000E+00 0.0000E+00 0.9000E+01
       -2 -1    0    0    0  501 0.00000000E+00 0.00000000E+00 -.15111396E+02 0.15114784E+02 0.32000000E+00 0.0000E+00 0.9000E+01
       25  1    1    2    0    0 0.86688834E+02 0.88656124E+02 0.82222485E+03 0.84086477E+03 0.12500000E+03 0.0000E+00 0.9000E+01
      -24  1    1    2    0    0 -.98846963E+02 -.62869383E+02 0.96781566E+03 0.97819101E+03 0.80419002E+02 0.0000E+00 0.9000E+01
       21  1    1    2  502  501 0.12158128E+02 -.25786742E+02 0.33522589E+03 0.33643682E+03 0.75000000E+00 0.0000E+00 0.9000E+01
#aMCatNLO 1  0  0  5  1 0.40905095D+01 0.00000000D+00  -5  6  0 0.00000000D+00 0.00000000D+00 0.00000000D+00 0.00000000D+00 0.00000000D+00
  <mgrwgt>
 0.1284677844D+00   25    2    0
 0.179854870305898D+03 0.000000000000000D+00 0.000000000000000D+00 0.179854870305898D+03
 0.179854870305898D+03 -.000000000000000D+00 -.000000000000000D+00 -.179854870305898D+03
 0.180788605126404D+03 0.866874643216248D+02 0.886590300846700D+02 -.410411946400623D+02
 0.143496788838443D+03 -.988480501170122D+02 -.628670765128461D+02 0.200226404693989D+02
 0.354243466469490D+02 0.121605857953874D+02 -.257919535718239D+02 0.210185541706634D+02
 0.000000000000000D+00 0.000000000000000D+00 0.000000000000000D+00 0.000000000000000D+00
 0.179854870305898D+03 0.000000000000000D+00 0.000000000000000D+00 0.179854870305898D+03
 0.179854870305898D+03 -.000000000000000D+00 -.000000000000000D+00 -.179854870305898D+03
 0.180191203316185D+03 0.873232538782316D+02 0.873105543614303D+02 -.399422856350577D+02
 0.143747750250564D+03 -.983421296364927D+02 -.639401068556397D+02 0.208970816521486D+02
 0.316116097617641D+02 0.698304273662610D+01 -.234212778620976D+02 0.200493074487606D+02
 0.415917728328294D+01 0.403583302163500D+01 0.508303563070009D-01 -.100410346585154D+01
0.314292555575D-03 0.000000000000D+00 0.000000000000D+00 0.222070388563D-04 0.000000000000D+00  6 1 -2 25 -24 21 21 2 0.32928915D+00 0.23250927D-02 0.30046160D+05 0.30046160D+05 0.30046160D+05 0.12148283D+01  1  2  2  3  6  5       21 0.693686105705D-01 0.100000000000D+01
0.577949708654D-04 0.165856738233D-04 -.120696616854D-05 0.222070388563D-04 0.000000000000D+00  6 1 -2 25 -24 21 21 4 0.32928915D+00 0.23250927D-02 0.30046160D+05 0.30046160D+05 0.30046160D+05 0.12148283D+01  1  2  3  3  6  5       21 0.188255975301D-01 0.100000000000D+01
-.501596758445D-06 0.000000000000D+00 0.000000000000D+00 0.222070388563D-04 0.000000000000D+00  6 1 -2 25 -24 21 21 4 0.32928915D+00 0.23250927D-02 0.30046160D+05 0.30046160D+05 0.30046160D+05 0.12148283D+01  1  2 15  3  6  5       21 -.163385473779D-03 0.100000000000D+01
0.590137563084D-05 0.000000000000D+00 0.000000000000D+00 0.222096457935D-04 0.000000000000D+00  6 1 -2 25 -24 21 21 4 0.32928915D+00 0.23250927D-02 0.29999190D+05 0.29999190D+05 0.29999190D+05 0.12148996D+01  1  2 12  3  6  5       21 0.192272827789D-02 0.100000000000D+01
0.746132966917D-05 0.000000000000D+00 0.000000000000D+00 0.222096457935D-04 0.000000000000D+00  6 1 -2 25 -24 21 21 4 0.32928915D+00 0.23250927D-02 0.29999190D+05 0.29999190D+05 0.29999190D+05 0.12148996D+01  1  2 12  3  6  5       21 0.243097718955D-02 0.100000000000D+01
-.989150245173D-03 0.000000000000D+00 0.000000000000D+00 0.222070388563D-04 0.000000000000D+00  6 1 -2 25 -24 21 21 4 0.32928915D+00 0.23250927D-02 0.30046160D+05 0.30046160D+05 0.30046160D+05 0.12148283D+01  1  2  4  3  6  5       21 -.322196622536D+00 0.100000000000D+01
-.869503333503D-03 0.000000000000D+00 0.000000000000D+00 0.222070388563D-04 0.000000000000D+00  6 1 -2 25 -24 21 21 4 0.32928915D+00 0.23250927D-02 0.30046160D+05 0.30046160D+05 0.30046160D+05 0.12148283D+01  1  2  5  3  6  5       21 -.283223947732D+00 0.100000000000D+01
0.108413513675D-02 0.000000000000D+00 -.000000000000D+00 0.222070388563D-04 0.000000000000D+00  6 1 -2 25 -24 21 21 4 0.32928915D+00 0.23250927D-02 0.30046160D+05 0.30046160D+05 0.30046160D+05 0.12148283D+01  1  2  6  3  6  5       21 0.353136119754D+00 0.100000000000D+01
0.891483087669D-03 0.000000000000D+00 0.000000000000D+00 0.222070388563D-04 0.816951949050D-05  6 1 -2 25 -24 21 21 4 0.32928915D+00 0.23250927D-02 0.29999190D+05 0.29999190D+05 0.29999190D+05 0.12148996D+01  1  2 11  3  6  5       21 0.290454268486D+00 0.100000000000D+01
0.505176979914D-06 0.000000000000D+00 0.000000000000D+00 0.222096457935D-04 0.000000000000D+00  6 1 -2 25 -24 1 -1 4 0.32928915D+00 0.23250927D-02 0.29999190D+05 0.29999190D+05 0.29999190D+05 0.12148996D+01  1  2 12  6  6  5       21 0.164591804585D-03 0.100000000000D+01
0.541374392894D-06 0.000000000000D+00 0.000000000000D+00 0.222096457935D-04 0.000000000000D+00  6 1 -2 25 -24 1 -1 4 0.32928915D+00 0.23250927D-02 0.29999190D+05 0.29999190D+05 0.29999190D+05 0.12148996D+01  1  2 12  6  6  5       21 0.176385290355D-03 0.100000000000D+01
-.874345157213D-05 0.000000000000D+00 0.000000000000D+00 0.222070388563D-04 0.000000000000D+00  6 1 -2 25 -24 1 -1 4 0.32928915D+00 0.23250927D-02 0.30046160D+05 0.30046160D+05 0.30046160D+05 0.12148283D+01  1  2  5  6  6  5       21 -.284801078461D-02 0.100000000000D+01
0.625641442847D-05 0.000000000000D+00 0.000000000000D+00 0.222070388563D-04 0.981370394003D-07  6 1 -2 25 -24 1 -1 4 0.32928915D+00 0.23250927D-02 0.29999190D+05 0.29999190D+05 0.29999190D+05 0.12148996D+01  1  2 11  6  6  5       21 0.203840353373D-02 0.100000000000D+01
0.505176979914D-06 0.000000000000D+00 0.000000000000D+00 0.222096457935D-04 0.000000000000D+00  6 1 -2 25 -24 2 -2 4 0.32928915D+00 0.23250927D-02 0.29999190D+05 0.29999190D+05 0.29999190D+05 0.12148996D+01  1  2 12  7  6  5       21 0.164591804585D-03 0.100000000000D+01
0.541374392894D-06 0.000000000000D+00 0.000000000000D+00 0.222096457935D-04 0.000000000000D+00  6 1 -2 25 -24 2 -2 4 0.32928915D+00 0.23250927D-02 0.29999190D+05 0.29999190D+05 0.29999190D+05 0.12148996D+01  1  2 12  7  6  5       21 0.176385290355D-03 0.100000000000D+01
-.874345157213D-05 0.000000000000D+00 0.000000000000D+00 0.222070388563D-04 0.000000000000D+00  6 1 -2 25 -24 2 -2 4 0.32928915D+00 0.23250927D-02 0.30046160D+05 0.30046160D+05 0.30046160D+05 0.12148283D+01  1  2  5  7  6  5       21 -.284801078461D-02 0.100000000000D+01
0.571184596551D-05 0.000000000000D+00 0.000000000000D+00 0.222070388563D-04 0.973869573730D-07  6 1 -2 25 -24 2 -2 4 0.32928915D+00 0.23250927D-02 0.29999190D+05 0.29999190D+05 0.29999190D+05 0.12148996D+01  1  2 11  7  6  5       21 0.186097758282D-02 0.100000000000D+01
0.505176979914D-06 0.000000000000D+00 0.000000000000D+00 0.222096457935D-04 0.000000000000D+00  6 1 -2 25 -24 3 -3 4 0.32928915D+00 0.23250927D-02 0.29999190D+05 0.29999190D+05 0.29999190D+05 0.12148996D+01  1  2 12  8  6  5       21 0.164591804585D-03 0.100000000000D+01
0.505176979914D-06 0.000000000000D+00 0.000000000000D+00 0.222096457935D-04 0.000000000000D+00  6 1 -2 25 -24 4 -4 4 0.32928915D+00 0.23250927D-02 0.29999190D+05 0.29999190D+05 0.29999190D+05 0.12148996D+01  1  2 12  8  6  5       21 0.164591804585D-03 0.100000000000D+01
0.541374392894D-06 0.000000000000D+00 0.000000000000D+00 0.222096457935D-04 0.000000000000D+00  6 1 -2 25 -24 3 -3 4 0.32928915D+00 0.23250927D-02 0.29999190D+05 0.29999190D+05 0.29999190D+05 0.12148996D+01  1  2 12  8  6  5       21 0.176385290355D-03 0.100000000000D+01
0.541374392894D-06 0.000000000000D+00 0.000000000000D+00 0.222096457935D-04 0.000000000000D+00  6 1 -2 25 -24 4 -4 4 0.32928915D+00 0.23250927D-02 0.29999190D+05 0.29999190D+05 0.29999190D+05 0.12148996D+01  1  2 12  8  6  5       21 0.176385290355D-03 0.100000000000D+01
-.874345157213D-05 0.000000000000D+00 0.000000000000D+00 0.222070388563D-04 0.000000000000D+00  6 1 -2 25 -24 3 -3 4 0.32928915D+00 0.23250927D-02 0.30046160D+05 0.30046160D+05 0.30046160D+05 0.12148283D+01  1  2  5  8  6  5       21 -.284801078461D-02 0.100000000000D+01
-.874345157213D-05 0.000000000000D+00 0.000000000000D+00 0.222070388563D-04 0.000000000000D+00  6 1 -2 25 -24 4 -4 4 0.32928915D+00 0.23250927D-02 0.30046160D+05 0.30046160D+05 0.30046160D+05 0.12148283D+01  1  2  5  8  6  5       21 -.284801078461D-02 0.100000000000D+01
0.620329293237D-05 0.000000000000D+00 0.000000000000D+00 0.222070388563D-04 0.958970042375D-07  6 1 -2 25 -24 3 -3 4 0.32928915D+00 0.23250927D-02 0.29999190D+05 0.29999190D+05 0.29999190D+05 0.12148996D+01  1  2 11  8  6  5       21 0.202109600933D-02 0.100000000000D+01
0.620329293237D-05 0.000000000000D+00 0.000000000000D+00 0.222070388563D-04 0.958970042375D-07  6 1 -2 25 -24 4 -4 4 0.32928915D+00 0.23250927D-02 0.29999190D+05 0.29999190D+05 0.29999190D+05 0.12148996D+01  1  2 11  8  6  5       21 0.202109600933D-02 0.100000000000D+01
  </mgrwgt>
  </event>
  <event>
  6     66 -.42750230E-03 0.13821354E+02 0.75467711E-02 0.11072019E+00
        1 -1    0    0  502    0 0.00000000E+00 0.00000000E+00 0.88034663E+03 0.88034669E+03 0.32000000E+00 0.0000E+00 0.9000E+01
       -2 -1    0    0    0  501 0.00000000E+00 0.00000000E+00 -.80471094E+02 0.80471731E+02 0.32000000E+00 0.0000E+00 0.9000E+01
       25  1    1    2    0    0 0.11510513E+03 -.19415906E+03 0.30078863E+03 0.39628996E+03 0.12500000E+03 0.0000E+00 0.9000E+01
      -24  1    1    2    0    0 -.12987796E+03 0.17767079E+03 0.46448834E+03 0.52024209E+03 0.80419002E+02 0.0000E+00 0.9000E+01
       21  1    1    2  503  501 0.15319751E+02 0.94903358E+01 0.15012439E+02 0.23466936E+02 0.75000000E+00 0.0000E+00 0.9000E+01
       21  1    1    2  502  503 -.54691140E+00 0.69979338E+01 0.19586127E+02 0.20819439E+02 0.75000000E+00 0.0000E+00 0.9000E+01
#aMCatNLO 2  0  0  5  1 0.73220783D+01 0.00000000D+00  -5  6  0 0.00000000D+00 0.00000000D+00 0.00000000D+00 0.00000000D+00 0.00000000D+00
  <mgrwgt>
 -.5565688128D+00    3    2    0
 0.266163089474834D+03 0.000000000000000D+00 0.000000000000000D+00 0.266163089474834D+03
 0.266163089474834D+03 -.000000000000000D+00 -.000000000000000D+00 -.266163089474834D+03
 0.263914131186292D+03 0.113330864461572D+03 -.196139347924051D+03 -.520686085481093D+02
 0.240723090177552D+03 -.131499306650115D+03 0.175861176331405D+03 0.571066476001952D+02
 0.276889575858239D+02 0.181684421885427D+02 0.202781715926459D+02 -.503803905208596D+01
 0.000000000000000D+00 0.000000000000000D+00 0.000000000000000D+00 0.000000000000000D+00
 0.266163089474834D+03 0.000000000000000D+00 0.000000000000000D+00 0.266163089474834D+03
 0.266163089474834D+03 -.000000000000000D+00 -.000000000000000D+00 -.266163089474834D+03
 0.263300058127510D+03 0.115148969149237D+03 -.194110123929650D+03 -.525727619764651D+02
 0.241073990163031D+03 -.129837823427498D+03 0.177715591890917D+03 0.566459247009469D+02
 0.193976410653252D+02 0.151008796942889D+02 0.894546691189603D+01 -.825896682920898D+01
 0.855448959380189D+01 -.412025416028603D+00 0.744906512683710D+01 0.418580410472714D+01
-.238392258384D-03 0.000000000000D+00 0.000000000000D+00 0.197467030837D-04 0.000000000000D+00  6 1 -2 25 -24 21 21 4 0.13543800D+00 0.12380222D-01 0.66908748D+05 0.66908748D+05 0.66908748D+05 0.11799520D+01  1  2 13  3  6  5       21 -.378683392880D-01 0.100000000000D+01
-.235110265302D-03 0.000000000000D+00 0.000000000000D+00 0.197467030837D-04 0.000000000000D+00  6 1 -2 25 -24 21 21 4 0.13543800D+00 0.12380222D-01 0.66908748D+05 0.66908748D+05 0.66908748D+05 0.11799520D+01  1  2 13  3  6  5       21 -.373469984172D-01 0.100000000000D+01
-.303446174176D-02 0.000000000000D+00 0.000000000000D+00 0.197334296759D-04 0.000000000000D+00  6 1 -2 25 -24 21 21 4 0.13543800D+00 0.12380222D-01 0.67549263D+05 0.67549263D+05 0.67549263D+05 0.11795554D+01  1  2  8  3  6  5       21 -.481353475070D+00 0.100000000000D+01
  </mgrwgt>
  </event>
  <event>
  5     66 0.42750230E-03 0.24052855E+02 0.75467711E-02 0.12276848E+00
        1 -1    0    0  502    0 0.00000000E+00 0.00000000E+00 0.77762821E+02 0.77763479E+02 0.32000000E+00 0.0000E+00 0.9000E+01
       -2 -1    0    0    0  501 -.00000000E+00 -.00000000E+00 -.22164048E+03 0.22164071E+03 0.32000000E+00 0.0000E+00 0.9000E+01
       25  1    1    2    0    0 -.13623324E+02 0.56914985E+02 -.92339880E+02 0.16606193E+03 0.12500000E+03 0.0000E+00 0.9000E+01
      -24  1    1    2    0    0 0.33787748E+02 -.43818970E+02 -.48790170E+02 0.10913025E+03 0.80419002E+02 0.0000E+00 0.9000E+01
       21  1    1    2  502  501 -.20164425E+02 -.13096016E+02 -.27476057E+01 0.24212011E+02 0.75000000E+00 0.0000E+00 0.9000E+01
#aMCatNLO 1  0  0  5  2 0.62311476D+01 0.00000000D+00  -5  6  0 0.00000000D+00 0.00000000D+00 0.00000000D+00 0.00000000D+00 0.00000000D+00
  <mgrwgt>
 0.5930523943D+00   14    2    0
 0.131284125744849D+03 0.000000000000000D+00 0.000000000000000D+00 0.131284125744849D+03
 0.131284125744849D+03 -.000000000000000D+00 -.000000000000000D+00 -.131284125744849D+03
 0.138761045799042D+03 -.136189221361933D+02 0.569178438508881D+02 -.143007637019203D+02
 0.977051267312084D+02 0.337908476628523D+02 -.438169568700063D+02 0.416278032916333D+01
 0.261020789594470D+02 -.201719255266589D+02 -.131008869808817D+02 0.101379833727569D+02
 0.000000000000000D+00 0.000000000000000D+00 0.000000000000000D+00 -.000000000000000D+00
 0.131284125744849D+03 0.000000000000000D+00 0.000000000000000D+00 0.131284125744849D+03
 0.131284125744849D+03 -.000000000000000D+00 -.000000000000000D+00 -.131284125744849D+03
 0.138035507316876D+03 -.172736991038585D+02 0.545442072870195D+02 -.124639500531510D+02
 0.976765663028456D+02 0.312110593541978D+02 -.454924297950682D+02 0.545932740117224D+01
 0.204582051729539D+02 -.112635201502389D+02 -.145059096512809D+02 0.901387030707212D+01
 0.639797269702182D+01 -.267384010010039D+01 0.545413215932962D+01 -.200924765509337D+01
0.675715146661D-03 0.000000000000D+00 0.000000000000D+00 0.406800823717D-04 0.000000000000D+00  6 1 -2 25 -24 21 21 2 0.11963579D-01 0.34098603D-01 0.16859908D+05 0.16859908D+05 0.16859908D+05 0.12420766D+01  1  2  2  3  6  5       21 0.355017305332D+00 0.100000000000D+01
0.113831102120D-03 0.356584679504D-04 -.259492408306D-05 0.406800823717D-04 0.000000000000D+00  6 1 -2 25 -24 21 21 4 0.11963579D-01 0.34098603D-01 0.16859908D+05 0.16859908D+05 0.16859908D+05 0.12420766D+01  1  2  3  3  6  5       21 0.922663973820D-01 0.100000000000D+01
0.108908962538D-04 0.000000000000D+00 0.000000000000D+00 0.406800823717D-04 0.000000000000D+00  6 1 -2 25 -24 21 21 4 0.11963579D-01 0.34098603D-01 0.16859908D+05 0.16859908D+05 0.16859908D+05 0.12420766D+01  1  2 15  3  6  5       21 0.882767313049D-02 0.100000000000D+01
0.230374719351D-03 0.000000000000D+00 0.000000000000D+00 0.406863947455D-04 0.000000000000D+00  6 1 -2 25 -24 21 21 4 0.11963579D-01 0.34098603D-01 0.16826658D+05 0.16826658D+05 0.16826658D+05 0.12421730D+01  1  2 12  3  6  5       21 0.186777303501D+00 0.100000000000D+01
0.290885895598D-03 0.000000000000D+00 0.000000000000D+00 0.406863947455D-04 0.000000000000D+00  6 1 -2 25 -24 21 21 4 0.11963579D-01 0.34098603D-01 0.16826658D+05 0.16826658D+05 0.16826658D+05 0.12421730D+01  1  2 12  3  6  5       21 0.235837002250D+00 0.100000000000D+01
-.398689061387D-03 0.000000000000D+00 0.000000000000D+00 0.406800823717D-04 0.000000000000D+00  6 1 -2 25 -24 21 21 4 0.11963579D-01 0.34098603D-01 0.16859908D+05 0.16859908D+05 0.16859908D+05 0.12420766D+01  1  2  4  3  6  5       21 -.323159511632D+00 0.100000000000D+01
0.548099725926D-05 0.000000000000D+00 0.000000000000D+00 0.406863947455D-04 0.000000000000D+00  6 1 -2 25 -24 1 -1 4 0.11963579D-01 0.34098603D-01 0.16826658D+05 0.16826658D+05 0.16826658D+05 0.12421730D+01  1  2 12  6  6  5       21 0.444374231453D-02 0.100000000000D+01
0.607806030918D-05 0.000000000000D+00 0.000000000000D+00 0.406863947455D-04 0.000000000000D+00  6 1 -2 25 -24 1 -1 4 0.11963579D-01 0.34098603D-01 0.16826658D+05 0.16826658D+05 0.16826658D+05 0.12421730D+01  1  2 12  6  6  5       21 0.492781377340D-02 0.100000000000D+01
0.548099725926D-05 0.000000000000D+00 0.000000000000D+00 0.406863947455D-04 0.000000000000D+00  6 1 -2 25 -24 2 -2 4 0.11963579D-01 0.34098603D-01 0.16826658D+05 0.16826658D+05 0.16826658D+05 0.12421730D+01  1  2 12  7  6  5       21 0.444374231453D-02 0.100000000000D+01
0.607806030918D-05 0.000000000000D+00 0.000000000000D+00 0.406863947455D-04 0.000000000000D+00  6 1 -2 25 -24 2 -2 4 0.11963579D-01 0.34098603D-01 0.16826658D+05 0.16826658D+05 0.16826658D+05 0.12421730D+01  1  2 12  7  6  5       21 0.492781377340D-02 0.100000000000D+01
0.548099725926D-05 0.000000000000D+00 0.000000000000D+00 0.406863947455D-04 0.000000000000D+00  6 1 -2 25 -24 3 -3 4 0.11963579D-01 0.34098603D-01 0.16826658D+05 0.16826658D+05 0.16826658D+05 0.12421730D+01  1  2 12  8  6  5       21 0.444374231453D-02 0.100000000000D+01
0.548099725926D-05 0.000000000000D+00 0.000000000000D+00 0.406863947455D-04 0.000000000000D+00  6 1 -2 25 -24 4 -4 4 0.11963579D-01 0.34098603D-01 0.16826658D+05 0.16826658D+05 0.16826658D+05 0.12421730D+01  1  2 12  8  6  5       21 0.444374231453D-02 0.100000000000D+01
0.607806030918D-05 0.000000000000D+00 0.000000000000D+00 0.406863947455D-04 0.000000000000D+00  6 1 -2 25 -24 3 -3 4 0.11963579D-01 0.34098603D-01 0.16826658D+05 0.16826658D+05 0.16826658D+05 0.12421730D+01  1  2 12  8  6  5       21 0.492781377340D-02 0.100000000000D+01
0.607806030918D-05 0.000000000000D+00 0.000000000000D+00 0.406863947455D-04 0.000000000000D+00  6 1 -2 25 -24 4 -4 4 0.11963579D-01 0.34098603D-01 0.16826658D+05 0.16826658D+05 0.16826658D+05 0.12421730D+01  1  2 12  8  6  5       21 0.492781377340D-02 0.100000000000D+01
  </mgrwgt>
  </event>
  <event>
  5     66 0.42750230E-03 0.54413100E+02 0.75467711E-02 0.11866820E+00
        1 -1    0    0  502    0 0.00000000E+00 0.00000000E+00 0.13276814E+04 0.13276814E+04 0.32000000E+00 0.0000E+00 0.9000E+01
       -2 -1    0    0    0  501 0.00000000E+00 0.00000000E+00 -.21635999E+02 0.21638365E+02 0.32000000E+00 0.0000E+00 0.9000E+01
       25  1    1    2    0    0 -.11442608E+01 0.63823246E+02 0.48148292E+03 0.50152320E+03 0.12500000E+03 0.0000E+00 0.9000E+01
      -24  1    1    2    0    0 -.54362206E+02 -.80542256E+02 0.68754027E+03 0.69901440E+03 0.80419002E+02 0.0000E+00 0.9000E+01
       21  1    1    2  502  501 0.55506467E+02 0.16719010E+02 0.13702221E+03 0.14878220E+03 0.75000000E+00 0.0000E+00 0.9000E+01
#aMCatNLO 1  0  0  5  1 0.59353815D+01 0.00000000D+00  -5  6  0 0.00000000D+00 0.00000000D+00 0.00000000D+00 0.00000000D+00 0.00000000D+00
  <mgrwgt>
 0.2819886002D-01   25    2    0
 0.169491402147877D+03 0.000000000000000D+00 0.000000000000000D+00 0.169491402147877D+03
 0.169491402147877D+03 -.000000000000000D+00 -.000000000000000D+00 -.169491402147877D+03
 0.141235871168865D+03 -.114583403838629D+01 0.638227724664845D+02 -.157452241608729D+02
 0.133444986409897D+03 -.543636926770760D+02 -.805427040612826D+02 0.435638632880059D+02
 0.643019467169929D+02 0.555095267154623D+02 0.167199315947981D+02 -.278186391271330D+02
 0.000000000000000D+00 0.000000000000000D+00 0.000000000000000D+00 0.000000000000000D+00
 0.169491402147877D+03 0.000000000000000D+00 0.000000000000000D+00 0.169491402147877D+03
 0.169491402147877D+03 -.000000000000000D+00 -.000000000000000D+00 -.169491402147877D+03
 0.141352748866516D+03 -.520030594544843D+00 0.640112696739360D+02 -.160588460056056D+02
 0.133001812942201D+03 -.537736359203170D+02 -.803649740535917D+02 0.432681559211436D+02
 0.512606740993731D+02 0.431120341171941D+02 0.909864172656361D+01 -.261958764337379D+02
 0.133675683876649D+02 0.111816323976677D+02 0.725506265309207D+01 -.101343348180008D+01
0.279493253414D-04 0.000000000000D+00 0.000000000000D+00 0.615113164479D-05 0.000000000000D+00  6 1 -2 25 -24 21 21 2 0.20425886D+00 0.33288002D-02 0.26318947D+05 0.26318947D+05 0.26318947D+05 0.12209110D+01  1  2  2  3  6  5       21 0.123109381736D-01 0.100000000000D+01
0.958345837431D-07 0.147492641958D-05 -.107332768538D-06 0.615113164479D-05 0.000000000000D+00  6 1 -2 25 -24 21 21 4 0.20425886D+00 0.33288002D-02 0.26318947D+05 0.26318947D+05 0.26318947D+05 0.12209110D+01  1  2  3  3  6  5       21 0.629230944156D-04 0.100000000000D+01
0.114892150281D-05 0.000000000000D+00 0.000000000000D+00 0.615113164479D-05 0.000000000000D+00  6 1 -2 25 -24 21 21 4 0.20425886D+00 0.33288002D-02 0.26318947D+05 0.26318947D+05 0.26318947D+05 0.12209110D+01  1  2 15  3  6  5       21 0.754359161107D-03 0.100000000000D+01
0.898118485387D-04 0.000000000000D+00 0.000000000000D+00 0.615362797543D-05 0.000000000000D+00  6 1 -2 25 -24 21 21 4 0.20425886D+00 0.33288002D-02 0.26178497D+05 0.26178497D+05 0.26178497D+05 0.12211587D+01  1  2 12  3  6  5       21 0.590137921143D-01 0.100000000000D+01
0.873409337078D-04 0.000000000000D+00 0.000000000000D+00 0.615362797543D-05 0.000000000000D+00  6 1 -2 25 -24 21 21 4 0.20425886D+00 0.33288002D-02 0.26178497D+05 0.26178497D+05 0.26178497D+05 0.12211587D+01  1  2 12  3  6  5       21 0.573901972708D-01 0.100000000000D+01
-.278967850263D-03 0.000000000000D+00 0.000000000000D+00 0.615113164479D-05 0.000000000000D+00  6 1 -2 25 -24 21 21 4 0.20425886D+00 0.33288002D-02 0.26318947D+05 0.26318947D+05 0.26318947D+05 0.12209110D+01  1  2  4  3  6  5       21 -.183164779304D+00 0.100000000000D+01
-.240115997764D-03 0.000000000000D+00 0.000000000000D+00 0.615113164479D-05 0.000000000000D+00  6 1 -2 25 -24 21 21 4 0.20425886D+00 0.33288002D-02 0.26318947D+05 0.26318947D+05 0.26318947D+05 0.12209110D+01  1  2  5  3  6  5       21 -.157655420495D+00 0.100000000000D+01
0.304738563221D-03 0.000000000000D+00 -.000000000000D+00 0.615113164479D-05 0.000000000000D+00  6 1 -2 25 -24 21 21 4 0.20425886D+00 0.33288002D-02 0.26318947D+05 0.26318947D+05 0.26318947D+05 0.12209110D+01  1  2  6  3  6  5       21 0.200085320317D+00 0.100000000000D+01
0.590805800165D-04 0.000000000000D+00 0.000000000000D+00 0.615113164479D-05 0.111751576871D-05  6 1 -2 25 -24 21 21 4 0.20425886D+00 0.33288002D-02 0.26178497D+05 0.26178497D+05 0.26178497D+05 0.12211587D+01  1  2 11  3  6  5       21 0.388208139996D-01 0.100000000000D+01
0.131902746866D-05 0.000000000000D+00 0.000000000000D+00 0.615362797543D-05 0.000000000000D+00  6 1 -2 25 -24 1 -1 4 0.20425886D+00 0.33288002D-02 0.26178497D+05 0.26178497D+05 0.26178497D+05 0.12211587D+01  1  2 12  6  6  5       21 0.866709839458D-03 0.100000000000D+01
0.129695775821D-05 0.000000000000D+00 0.000000000000D+00 0.615362797543D-05 0.000000000000D+00  6 1 -2 25 -24 1 -1 4 0.20425886D+00 0.33288002D-02 0.26178497D+05 0.26178497D+05 0.26178497D+05 0.12211587D+01  1  2 12  6  6  5       21 0.852208219395D-03 0.100000000000D+01
-.307976776155D-05 0.000000000000D+00 0.000000000000D+00 0.615113164479D-05 0.000000000000D+00  6 1 -2 25 -24 1 -1 4 0.20425886D+00 0.33288002D-02 0.26318947D+05 0.26318947D+05 0.26318947D+05 0.12209110D+01  1  2  5  6  6  5       21 -.202211466956D-02 0.100000000000D+01
0.677695871983D-06 0.000000000000D+00 0.000000000000D+00 0.615113164479D-05 0.235032750684D-07  6 1 -2 25 -24 1 -1 4 0.20425886D+00 0.33288002D-02 0.26178497D+05 0.26178497D+05 0.26178497D+05 0.12211587D+01  1  2 11  6  6  5       21 0.445302083819D-03 0.100000000000D+01
0.131902746866D-05 0.000000000000D+00 0.000000000000D+00 0.615362797543D-05 0.000000000000D+00  6 1 -2 25 -24 2 -2 4 0.20425886D+00 0.33288002D-02 0.26178497D+05 0.26178497D+05 0.26178497D+05 0.12211587D+01  1  2 12  7  6  5       21 0.866709839458D-03 0.100000000000D+01
0.129695775821D-05 0.000000000000D+00 0.000000000000D+00 0.615362797543D-05 0.000000000000D+00  6 1 -2 25 -24 2 -2 4 0.20425886D+00 0.33288002D-02 0.26178497D+05 0.26178497D+05 0.26178497D+05 0.12211587D+01  1  2 12  7  6  5       21 0.852208219395D-03 0.100000000000D+01
-.307976776155D-05 0.000000000000D+00 0.000000000000D+00 0.615113164479D-05 0.000000000000D+00  6 1 -2 25 -24 2 -2 4 0.20425886D+00 0.33288002D-02 0.26318947D+05 0.26318947D+05 0.26318947D+05 0.12209110D+01  1  2  5  7  6  5       21 -.202211466956D-02 0.100000000000D+01
0.693856643732D-06 0.000000000000D+00 0.000000000000D+00 0.615113164479D-05 0.243370789651D-07  6 1 -2 25 -24 2 -2 4 0.20425886D+00 0.33288002D-02 0.26178497D+05 0.26178497D+05 0.26178497D+05 0.12211587D+01  1  2 11  7  6  5       21 0.455921043788D-03 0.100000000000D+01
0.131902746866D-05 0.000000000000D+00 0.000000000000D+00 0.615362797543D-05 0.000000000000D+00  6 1 -2 25 -24 3 -3 4 0.20425886D+00 0.33288002D-02 0.26178497D+05 0.26178497D+05 0.26178497D+05 0.12211587D+01  1  2 12  8  6  5       21 0.866709839458D-03 0.100000000000D+01
0.131902746866D-05 0.000000000000D+00 0.000000000000D+00 0.615362797543D-05 0.000000000000D+00  6 1 -2 25 -24 4 -4 4 0.20425886D+00 0.33288002D-02 0.26178497D+05 0.26178497D+05 0.26178497D+05 0.12211587D+01  1  2 12  8  6  5       21 0.866709839458D-03 0.100000000000D+01
0.129695775821D-05 0.000000000000D+00 0.000000000000D+00 0.615362797543D-05 0.000000000000D+00  6 1 -2 25 -24 3 -3 4 0.20425886D+00 0.33288002D-02 0.26178497D+05 0.26178497D+05 0.26178497D+05 0.12211587D+01  1  2 12  8  6  5       21 0.852208219395D-03 0.100000000000D+01
0.129695775821D-05 0.000000000000D+00 0.000000000000D+00 0.615362797543D-05 0.000000000000D+00  6 1 -2 25 -24 4 -4 4 0.20425886D+00 0.33288002D-02 0.26178497D+05 0.26178497D+05 0.26178497D+05 0.12211587D+01  1  2 12  8  6  5       21 0.852208219395D-03 0.100000000000D+01
-.307976776155D-05 0.000000000000D+00 0.000000000000D+00 0.615113164479D-05 0.000000000000D+00  6 1 -2 25 -24 3 -3 4 0.20425886D+00 0.33288002D-02 0.26318947D+05 0.26318947D+05 0.26318947D+05 0.12209110D+01  1  2  5  8  6  5       21 -.202211466956D-02 0.100000000000D+01
-.307976776155D-05 0.000000000000D+00 0.000000000000D+00 0.615113164479D-05 0.000000000000D+00  6 1 -2 25 -24 4 -4 4 0.20425886D+00 0.33288002D-02 0.26318947D+05 0.26318947D+05 0.26318947D+05 0.12209110D+01  1  2  5  8  6  5       21 -.202211466956D-02 0.100000000000D+01
0.678970320565D-06 0.000000000000D+00 0.000000000000D+00 0.615113164479D-05 0.235292780976D-07  6 1 -2 25 -24 3 -3 4 0.20425886D+00 0.33288002D-02 0.26178497D+05 0.26178497D+05 0.26178497D+05 0.12211587D+01  1  2 11  8  6  5       21 0.446139501653D-03 0.100000000000D+01
0.678970320565D-06 0.000000000000D+00 0.000000000000D+00 0.615113164479D-05 0.235292780976D-07  6 1 -2 25 -24 4 -4 4 0.20425886D+00 0.33288002D-02 0.26178497D+05 0.26178497D+05 0.26178497D+05 0.12211587D+01  1  2 11  8  6  5       21 0.446139501653D-03 0.100000000000D+01
  </mgrwgt>
  </event>
  <event>
  6     66 0.42750230E-03 0.25665086E+02 0.75467711E-02 0.12037879E+00
        1 -1    0    0  502    0 0.00000000E+00 0.00000000E+00 0.15454760E+04 0.15454760E+04 0.32000000E+00 0.0000E+00 0.9000E+01
       -2 -1    0    0    0  501 0.00000000E+00 0.00000000E+00 -.39020899E+02 0.39022211E+02 0.32000000E+00 0.0000E+00 0.9000E+01
       25  1    1    2    0    0 -.51580279E+02 0.63315998E+02 0.95879575E+03 0.97035237E+03 0.12500000E+03 0.0000E+00 0.9000E+01
      -24  1    1    2    0    0 0.14849314E+02 -.16435009E+02 0.28654325E+02 0.88198061E+02 0.80419002E+02 0.0000E+00 0.9000E+01
       21  1    1    2  502  503 0.20873183E+02 -.13116620E+02 0.40986753E+03 0.41060892E+03 0.75000000E+00 0.0000E+00 0.9000E+01
       21  1    1    2  503  501 0.15857781E+02 -.33764369E+02 0.10913747E+03 0.11533886E+03 0.75000000E+00 0.0000E+00 0.9000E+01
#aMCatNLO 2  0  0  5  2 0.28661247D+02 0.00000000D+00  -5  6  0 0.00000000D+00 0.00000000D+00 0.00000000D+00 0.00000000D+00 0.00000000D+00
  <mgrwgt>
 0.1158923949D-01    2    2    0
 0.245574686820242D+03 0.000000000000000D+00 0.000000000000000D+00 0.245574686820242D+03
 0.245574686820242D+03 -.000000000000000D+00 -.000000000000000D+00 -.245574686820242D+03
 0.188704272871075D+03 -.548751902542478D+02 0.675214067231627D+02 0.111417573696820D+03
 0.201352306872660D+03 0.113831784323247D+02 -.120110610946549D+02 -.183852367917113D+03
 0.101092793896750D+03 0.434920118219231D+02 -.555103456285078D+02 0.724347942202928D+02
 0.000000000000000D+00 0.000000000000000D+00 -.000000000000000D+00 0.000000000000000D+00
 0.245574686820242D+03 0.000000000000000D+00 0.000000000000000D+00 0.245574686820242D+03
 0.245574686820242D+03 -.000000000000000D+00 -.000000000000000D+00 -.245574686820242D+03
 0.189640269523331D+03 -.515628449411737D+02 0.632937468502978D+02 0.116934197120024D+03
 0.196623369778010D+03 0.148673911526371D+02 -.164580812311271D+02 -.178049503877415D+03
 0.670975389976864D+02 0.206002071727978D+02 -.126782562822456D+02 0.625857253822751D+02
 0.377881953414569D+02 0.160952466157388D+02 -.341574093369250D+02 -.147041862488392D+01
-.504385634837D-04 0.000000000000D+00 0.000000000000D+00 0.178570984180D-05 0.000000000000D+00  6 1 -2 25 -24 21 21 4 0.23776564D+00 0.60033186D-02 0.21707262D+05 0.21707262D+05 0.21707262D+05 0.12299287D+01  1  2 13  3  6  5       21 -.101342586814D-01 0.100000000000D+01
0.108118617840D-03 0.000000000000D+00 0.000000000000D+00 0.177635288681D-05 0.476487025141D-07  6 1 -2 25 -24 21 21 4 0.23776564D+00 0.60033186D-02 0.21707262D+05 0.21707262D+05 0.21707262D+05 0.12299287D+01  1  2  1  3  6  5       21 0.217234981687D-01 0.100000000000D+01
  </mgrwgt>
  </event>
  <event>
  5     66 0.42750230E-03 0.21464657E+02 0.75467711E-02 0.11878314E+00
        1 -1    0    0  502    0 0.00000000E+00 0.00000000E+00 0.38358447E+03 0.38358460E+03 0.32000000E+00 0.0000E+00 0.9000E+01
       -2 -1    0    0    0  501 0.00000000E+00 0.00000000E+00 -.10825091E+03 0.10825139E+03 0.32000000E+00 0.0000E+00 0.9000E+01
       25  1    1    2    0    0 0.44947855E+02 -.54654504E+02 0.90845593E+02 0.16995690E+03 0.12500000E+03 0.0000E+00 0.9000E+01
      -24  1    1    2    0    0 -.62139962E+02 0.41803513E+02 -.23839444E+02 0.11244751E+03 0.80419002E+02 0.0000E+00 0.9000E+01
       21  1    1    2  502  501 0.17192107E+02 0.12850991E+02 0.20832740E+03 0.20943158E+03 0.75000000E+00 0.0000E+00 0.9000E+01
#aMCatNLO 1  0  0  2  5 0.11590592D+01 0.00000000D+00  -5  6  0 0.00000000D+00 0.00000000D+00 0.00000000D+00 0.00000000D+00 0.00000000D+00
  <mgrwgt>
 0.2794555386D+00    4    2    0
 0.203773203607382D+03 0.000000000000000D+00 0.000000000000000D+00 0.203773203607382D+03
 0.203773203607382D+03 0.000000000000000D+00 0.000000000000000D+00 -.203773203607382D+03
 0.143733542576217D+03 0.449477189958580D+02 -.546546057737120D+02 -.518728120490388D+01
 0.151810449659672D+03 -.621401052099559D+02 0.418034058736628D+02 -.104739100880992D+03
 0.112002414978875D+03 0.171923862140978D+02 0.128511999000492D+02 0.109926382085896D+03
 0.000000000000000D+00 -.000000000000000D+00 -.000000000000000D+00 0.000000000000000D+00
 0.240349231803617D+03 0.000000000000000D+00 0.000000000000000D+00 0.240349231803617D+03
 0.214191196561794D+03 0.000000000000000D+00 0.000000000000000D+00 -.214191196561794D+03
 0.141393636440606D+03 0.500832869289073D+02 -.428008984718329D+02 -.518728120490388D+01
 0.153674885175281D+03 -.566378563713678D+02 0.545034710047264D+02 -.104739100880992D+03
 0.114154518876225D+03 0.212658116284968D+02 0.222533133970955D+02 0.109926382085896D+03
 0.453173878732997D+02 -.147112421860363D+02 -.339558859299889D+02 0.261580352418231D+02
0.100231522676D-02 0.000000000000D+00 0.000000000000D+00 0.517487090241D-04 0.000000000000D+00  6 1 -2 25 -24 21 21 2 0.59013041D-01 0.16654034D-01 0.18905704D+05 0.18905704D+05 0.18905704D+05 0.12365255D+01  1  2  2  2  6  2       -2 0.243052758257D+00 0.100000000000D+01
0.196090212152D-03 0.528936276868D-04 -.384915438644D-05 0.517487090241D-04 0.000000000000D+00  6 1 -2 25 -24 21 21 4 0.59013041D-01 0.16654034D-01 0.18905704D+05 0.18905704D+05 0.18905704D+05 0.12365255D+01  1  2  3  2  6  2       -2 0.727039945389D-01 0.100000000000D+01
0.306982878617D-04 0.000000000000D+00 0.000000000000D+00 0.517487090241D-04 0.000000000000D+00  6 1 -2 25 -24 21 21 4 0.59013041D-01 0.16654034D-01 0.18905704D+05 0.18905704D+05 0.18905704D+05 0.12365255D+01  1  2 15  2  6  2       -2 0.113819457308D-01 0.100000000000D+01
-.128606426727D-03 0.000000000000D+00 0.000000000000D+00 0.517487090241D-04 0.000000000000D+00  6 1 -2 25 -24 21 21 4 0.59013041D-01 0.16654034D-01 0.18905704D+05 0.18905704D+05 0.18905704D+05 0.12365255D+01  1  2  4  2  6  2       -2 -.476831599284D-01 0.100000000000D+01
  </mgrwgt>
  </event>
  <event>
  6     66 -.42750230E-03 0.23597110E+02 0.75467711E-02 0.12123439E+00
        1 -1    0    0  502    0 0.00000000E+00 0.00000000E+00 0.19015947E+03 0.19015974E+03 0.32000000E+00 0.0000E+00 0.9000E+01
       -2 -1    0    0    0  501 0.00000000E+00 0.00000000E+00 -.17039571E+03 0.17039601E+03 0.32000000E+00 0.0000E+00 0.9000E+01
       25  1    1    2    0    0 -.20595627E+02 -.43043670E+02 0.13558938E+02 0.13448339E+03 0.12500000E+03 0.0000E+00 0.9000E+01
      -24  1    1    2    0    0 0.42743919E+02 0.52517434E+02 0.85898712E+02 0.13576055E+03 0.80419002E+02 0.0000E+00 0.9000E+01
       21  1    1    2  503  501 -.20359884E+02 -.21887398E+02 -.57366799E+02 0.64692312E+02 0.75000000E+00 0.0000E+00 0.9000E+01
       21  1    1    2  502  503 -.17884077E+01 0.12413634E+02 -.22327089E+02 0.25619487E+02 0.75000000E+00 0.0000E+00 0.9000E+01
#aMCatNLO 2  0  0  5  1 0.15586873D+02 0.00000000D+00  -5  6  0 0.00000000D+00 0.00000000D+00 0.00000000D+00 0.00000000D+00 0.00000000D+00
  <mgrwgt>
 -.4804107111D-01    2    2    0
 0.180006831448794D+03 0.000000000000000D+00 0.000000000000000D+00 0.180006831448794D+03
 0.180006831448794D+03 -.000000000000000D+00 -.000000000000000D+00 -.180006831448794D+03
 0.133892998711459D+03 -.199638940244611D+02 -.427734507268884D+02 0.861451984972266D+01
 0.132998960823147D+03 0.433671938067058D+02 0.527840345641556D+02 0.809607301234863D+02
 0.931217033629832D+02 -.234032997822447D+02 -.100105838372672D+02 -.895752499732090D+02
 0.000000000000000D+00 0.000000000000000D+00 0.000000000000000D+00 -.000000000000000D+00
 0.180006831448794D+03 0.000000000000000D+00 0.000000000000000D+00 0.180006831448794D+03
 0.180006831448794D+03 -.000000000000000D+00 -.000000000000000D+00 -.180006831448794D+03
 0.133941910947761D+03 -.205989072617126D+02 -.430450728190048D+02 0.618403056007753D+01
 0.131240407814509D+03 0.427407052839759D+02 0.525160588539683D+02 0.785628688581510D+02
 0.676288816049628D+02 -.203029939000171D+02 -.219663759004705D+02 -.606542034457066D+02
 0.272024625303552D+02 -.183880412224619D+01 0.124953898655070D+02 -.240926959725219D+02
-.171756868090D-03 0.000000000000D+00 0.000000000000D+00 0.386672042244D-04 0.000000000000D+00  6 1 -2 25 -24 21 21 4 0.29255347D-01 0.26214768D-01 0.19806234D+05 0.19806234D+05 0.19806234D+05 0.12342918D+01  1  2 13  3  6  5       21 -.698001902538D-01 0.100000000000D+01
0.535425210563D-04 0.000000000000D+00 0.000000000000D+00 0.390418705822D-04 0.375642782225D-06  6 1 -2 25 -24 21 21 4 0.29255347D-01 0.26214768D-01 0.19806234D+05 0.19806234D+05 0.19806234D+05 0.12342918D+01  1  2  1  3  6  5       21 0.217591191430D-01 0.100000000000D+01
  </mgrwgt>
  </event>
  <event>
  5     66 -.42750230E-03 0.27599305E+02 0.75467711E-02 0.12393645E+00
        1 -1    0    0  502    0 0.00000000E+00 0.00000000E+00 0.16134833E+03 0.16134864E+03 0.32000000E+00 0.0000E+00 0.9000E+01
       -2 -1    0    0    0  501 0.00000000E+00 0.00000000E+00 -.25403288E+03 0.25403308E+03 0.32000000E+00 0.0000E+00 0.9000E+01
       25  1    1    2    0    0 0.27807885E+02 -.24096443E+02 -.71089582E+02 0.14843398E+03 0.12500000E+03 0.0000E+00 0.9000E+01
      -24  1    1    2    0    0 -.27709458E+02 -.35024241E+01 -.12982725E+03 0.15524952E+03 0.80419002E+02 0.0000E+00 0.9000E+01
       21  1    1    2  502  501 -.98427578E-01 0.27598868E+02 0.10823228E+03 0.11169823E+03 0.75000000E+00 0.0000E+00 0.9000E+01
#aMCatNLO 1  0  0  1  5 0.21063833D+01 0.00000000D+00  -5  6  0 0.00000000D+00 0.00000000D+00 0.00000000D+00 0.00000000D+00 0.00000000D+00
  <mgrwgt>
 -.5743001081D+00   11    4    0
 0.202454656297533D+03 0.000000000000000D+00 0.000000000000000D+00 0.202454656297533D+03
 0.202454656297533D+03 0.000000000000000D+00 0.000000000000000D+00 -.202454656297533D+03
 0.136000681082890D+03 0.278078859389404D+02 -.240965777240895D+02 -.389520432917689D+02
 0.129547588345792D+03 -.277094574260784D+02 -.350255193071197D+01 -.976487572422981D+02
 0.139361043166384D+03 -.984285128620090D-01 0.275991296548015D+02 0.136600800534067D+03
 0.000000000000000D+00 0.000000000000000D+00 0.000000000000000D+00 0.000000000000000D+00
 0.215910412163962D+03 0.000000000000000D+00 0.000000000000000D+00 0.215910412163962D+03
 0.202539846537948D+03 0.000000000000000D+00 0.000000000000000D+00 -.202539846537948D+03
 0.136121207233228D+03 0.277758915150737D+02 -.248036536133362D+02 -.389520432917689D+02
 0.129574059140485D+03 -.277399233613034D+02 -.417584826292976D+01 -.976487572422981D+02
 0.139219525004331D+03 -.131182308722569D+00 0.268752716653357D+02 0.136600800534067D+03
 0.135354673238659D+02 0.952141549522622D-01 0.210423021093028D+01 0.133705656260139D+02
 0.202454656297533D+03 0.000000000000000D+00 0.000000000000000D+00 0.202454656297533D+03
 0.202454656297533D+03 0.000000000000000D+00 0.000000000000000D+00 -.202454656297533D+03
 0.136000681082890D+03 0.278078859389404D+02 -.240965777240895D+02 -.389520432917689D+02
 0.129547588345792D+03 -.277094574260784D+02 -.350255193071197D+01 -.976487572422981D+02
 0.000000000000000D+00 0.000000000000000D+00 0.000000000000000D+00 0.000000000000000D+00
 0.139361043166384D+03 -.984285128620090D-01 0.275991296548015D+02 0.136600800534067D+03
 0.215910412163962D+03 0.000000000000000D+00 0.000000000000000D+00 0.215910412163962D+03
 0.202539846537948D+03 0.000000000000000D+00 0.000000000000000D+00 -.202539846537948D+03
 0.136121207233228D+03 0.277758915150737D+02 -.248036536133362D+02 -.389520432917689D+02
 0.129574059140485D+03 -.277399233613034D+02 -.417584826292976D+01 -.976487572422981D+02
 0.135354673238659D+02 0.952141549522622D-01 0.210423021093028D+01 0.133705656260139D+02
 0.139219525004331D+03 -.131182308722569D+00 0.268752716653357D+02 0.136600800534067D+03
0.122214487484D-03 0.000000000000D+00 0.000000000000D+00 0.513155209906D-04 0.000000000000D+00  6 1 -2 25 -24 21 21 2 0.24822859D-01 0.39082022D-01 0.14766329D+05 0.14766329D+05 0.14766329D+05 0.12486006D+01  1  2  2  1  6  1        1 0.197168001564D-01 0.100000000000D+01
0.168796608838D-04 0.644943569278D-05 -.469335811753D-06 0.513155209906D-04 0.000000000000D+00  6 1 -2 25 -24 21 21 4 0.24822859D-01 0.39082022D-01 0.14766329D+05 0.14766329D+05 0.14766329D+05 0.12486006D+01  1  2  3  1  6  1        1 0.424545808209D-02 0.100000000000D+01
0.750126987459D-05 0.000000000000D+00 0.000000000000D+00 0.513155209906D-04 0.000000000000D+00  6 1 -2 25 -24 21 21 4 0.24822859D-01 0.39082022D-01 0.14766329D+05 0.14766329D+05 0.14766329D+05 0.12486006D+01  1  2 15  1  6  1        1 0.188666863833D-02 0.100000000000D+01
0.371443082312D-04 0.000000000000D+00 0.000000000000D+00 0.512637723800D-04 0.000000000000D+00  6 1 -2 25 -24 21 21 4 0.27240758D-01 0.39082022D-01 0.14955126D+05 0.14955126D+05 0.14955126D+05 0.12479709D+01  1  2 12  1  6  1        1 0.830344334872D-02 0.100000000000D+01
-.169946357991D-01 0.000000000000D+00 0.000000000000D+00 0.513155209906D-04 0.000000000000D+00  6 1 -2 25 -24 21 21 4 0.24822859D-01 0.39082022D-01 0.14766329D+05 0.14766329D+05 0.14766329D+05 0.12486006D+01  1  2  4  1  6  1        1 -.427437579478D+01 0.100000000000D+01
-.459942591712D-01 0.000000000000D+00 -.569517192713D-03 0.513155209906D-04 0.000000000000D+00  6 1 -2 25 -24 21 21 4 0.26478276D-01 0.39082022D-01 0.14766329D+05 0.14766329D+05 0.14766329D+05 0.12486006D+01  1  2  5  1  6  1        1 -.106717232446D+02 0.100000000000D+01
0.459364481633D-01 0.000000000000D+00 0.568332391047D-03 0.513155209906D-04 0.000000000000D+00  6 1 -2 25 -24 21 21 4 0.24822859D-01 0.39082022D-01 0.14766329D+05 0.14766329D+05 0.14766329D+05 0.12486006D+01  1  2  6  1  6  1        1 0.115536245935D+02 0.100000000000D+01
0.153786455163D-01 0.000000000000D+00 0.000000000000D+00 0.513155209906D-04 0.209663046025D-02  6 1 -2 25 -24 21 21 4 0.26472662D-01 0.39098467D-01 0.14955126D+05 0.14955126D+05 0.14955126D+05 0.12479709D+01  1  2 11  1  6  1        1 0.355980765250D+01 0.100000000000D+01
0.766320605687D-06 0.000000000000D+00 0.000000000000D+00 0.512637723800D-04 0.000000000000D+00  6 21 -2 25 -24 -1 21 4 0.27240758D-01 0.39082022D-01 0.14955126D+05 0.14955126D+05 0.14955126D+05 0.12479709D+01  3  4 12  4  5  1        1 0.120934752727D-02 0.100000000000D+01
-.506040683101D-03 0.000000000000D+00 -.627351108892D-05 0.513155209906D-04 0.000000000000D+00  6 21 -2 25 -24 -1 21 4 0.26478276D-01 0.39082022D-01 0.14766329D+05 0.14766329D+05 0.14766329D+05 0.12486006D+01  3  4  5  4  5  1        1 -.844632095259D+00 0.100000000000D+01
0.406228157899D-04 0.000000000000D+00 0.000000000000D+00 0.513155209906D-04 0.110764856360D-04  6 21 -2 25 -24 -1 21 4 0.26472662D-01 0.39098467D-01 0.14955126D+05 0.14955126D+05 0.14955126D+05 0.12479709D+01  3  4 11  4  5  1        1 0.676370627590D-01 0.100000000000D+01
  </mgrwgt>
  </event>
  <event>
  5     66 0.42750230E-03 0.53330331E+02 0.75467711E-02 0.10998528E+00
        1 -1    0    0  502    0 0.00000000E+00 0.00000000E+00 0.66333603E+03 0.66333611E+03 0.32000000E+00 0.0000E+00 0.9000E+01
       -2 -1    0    0    0  501 0.00000000E+00 0.00000000E+00 -.12572066E+03 0.12572107E+03 0.32000000E+00 0.0000E+00 0.9000E+01
       25  1    1    2    0    0 -.14127962E+03 0.17248013E+03 0.14567387E+03 0.29420266E+03 0.12500000E+03 0.0000E+00 0.9000E+01
      -24  1    1    2    0    0 0.17237125E+03 -.12915319E+03 0.23356081E+03 0.32773505E+03 0.80419002E+02 0.0000E+00 0.9000E+01
       21  1    1    2  502  501 -.31091632E+02 -.43326948E+02 0.15838068E+03 0.16711947E+03 0.75000000E+00 0.0000E+00 0.9000E+01
#aMCatNLO 1  0  0  5  2 0.16829210D+02 0.00000000D+00  -5  6  0 0.00000000D+00 0.00000000D+00 0.00000000D+00 0.00000000D+00 0.00000000D+00
  <mgrwgt>
 0.1069752454D+00   20    2    0
 0.288782334938710D+03 0.000000000000000D+00 0.000000000000000D+00 0.288782334938710D+03
 0.288782334938710D+03 -.000000000000000D+00 -.000000000000000D+00 -.288782334938710D+03
 0.266336471029906D+03 -.141279005050408D+03 0.172480992448136D+03 -.748375960112084D+02
 0.230339168252000D+03 0.172371786243333D+03 -.129152443248337D+03 0.140189224593192D+02
 0.808890305955132D+02 -.310927811929258D+02 -.433285491997994D+02 0.608186735518893D+02
 0.000000000000000D+00 0.000000000000000D+00 0.000000000000000D+00 0.000000000000000D+00
 0.288782334938710D+03 0.000000000000000D+00 0.000000000000000D+00 0.288782334938710D+03
 0.288782334938710D+03 -.000000000000000D+00 -.000000000000000D+00 -.288782334938710D+03
 0.264849341906203D+03 -.142925464680219D+03 0.170186610783366D+03 -.716170577737139D+02
 0.230586277070728D+03 0.170943105131009D+03 -.131143345235589D+03 0.168134775568865D+02
 0.577291855205867D+02 -.147487941378918D+02 -.436030673528574D+02 0.348411315799384D+02
 0.243998653799020D+02 -.132688463128976D+02 0.455980180508070D+01 0.199624486368889D+02
0.452269125504D-03 0.000000000000D+00 0.000000000000D+00 0.543170528555D-05 0.000000000000D+00  6 1 -2 25 -24 21 21 2 0.10205173D+00 0.19341678D-01 0.72589437D+05 0.72589437D+05 0.72589437D+05 0.11765727D+01  1  2  2  3  6  5       21 0.374924182863D-01 0.100000000000D+01
0.517696736432D-04 0.238668974588D-04 -.173683252713D-05 0.543170528555D-05 0.000000000000D+00  6 1 -2 25 -24 21 21 4 0.10205173D+00 0.19341678D-01 0.72589437D+05 0.72589437D+05 0.72589437D+05 0.11765727D+01  1  2  3  3  6  5       21 0.594099920033D-02 0.100000000000D+01
0.444899859431D-06 0.000000000000D+00 0.000000000000D+00 0.543170528555D-05 0.000000000000D+00  6 1 -2 25 -24 21 21 4 0.10205173D+00 0.19341678D-01 0.72589437D+05 0.72589437D+05 0.72589437D+05 0.11765727D+01  1  2 15  3  6  5       21 0.510559469105D-04 0.100000000000D+01
0.369857775893D-03 0.000000000000D+00 0.000000000000D+00 0.542304350555D-05 0.000000000000D+00  6 1 -2 25 -24 21 21 4 0.10205173D+00 0.19341678D-01 0.74260490D+05 0.74260490D+05 0.74260490D+05 0.11756342D+01  1  2 12  3  6  5       21 0.423044730490D-01 0.100000000000D+01
0.454507864408D-03 0.000000000000D+00 0.000000000000D+00 0.542304350555D-05 0.000000000000D+00  6 1 -2 25 -24 21 21 4 0.10205173D+00 0.19341678D-01 0.74260490D+05 0.74260490D+05 0.74260490D+05 0.11756342D+01  1  2 12  3  6  5       21 0.519867823624D-01 0.100000000000D+01
-.702760483827D-03 0.000000000000D+00 0.000000000000D+00 0.543170528555D-05 0.000000000000D+00  6 1 -2 25 -24 21 21 4 0.10205173D+00 0.19341678D-01 0.72589437D+05 0.72589437D+05 0.72589437D+05 0.11765727D+01  1  2  4  3  6  5       21 -.806475911208D-01 0.100000000000D+01
-.755461557010D-03 0.000000000000D+00 0.000000000000D+00 0.543170528555D-05 0.000000000000D+00  6 1 -2 25 -24 21 21 4 0.10205173D+00 0.19341678D-01 0.72589437D+05 0.72589437D+05 0.72589437D+05 0.11765727D+01  1  2  5  3  6  5       21 -.866954761392D-01 0.100000000000D+01
0.119870836841D-02 0.000000000000D+00 -.000000000000D+00 0.543170528555D-05 0.000000000000D+00  6 1 -2 25 -24 21 21 4 0.10205173D+00 0.19341678D-01 0.72589437D+05 0.72589437D+05 0.72589437D+05 0.11765727D+01  1  2  6  3  6  5       21 0.137561722085D+00 0.100000000000D+01
0.730325852649D-05 0.000000000000D+00 0.000000000000D+00 0.542304350555D-05 0.000000000000D+00  6 1 -2 25 -24 1 -1 4 0.10205173D+00 0.19341678D-01 0.74260490D+05 0.74260490D+05 0.74260490D+05 0.11756342D+01  1  2 12  6  6  5       21 0.835349487401D-03 0.100000000000D+01
0.858525551677D-05 0.000000000000D+00 0.000000000000D+00 0.542304350555D-05 0.000000000000D+00  6 1 -2 25 -24 1 -1 4 0.10205173D+00 0.19341678D-01 0.74260490D+05 0.74260490D+05 0.74260490D+05 0.11756342D+01  1  2 12  6  6  5       21 0.981984790643D-03 0.100000000000D+01
-.180563761829D-04 0.000000000000D+00 0.000000000000D+00 0.543170528555D-05 0.000000000000D+00  6 1 -2 25 -24 1 -1 4 0.10205173D+00 0.19341678D-01 0.72589437D+05 0.72589437D+05 0.72589437D+05 0.11765727D+01  1  2  5  6  6  5       21 -.207211884708D-02 0.100000000000D+01
0.730325852649D-05 0.000000000000D+00 0.000000000000D+00 0.542304350555D-05 0.000000000000D+00  6 1 -2 25 -24 2 -2 4 0.10205173D+00 0.19341678D-01 0.74260490D+05 0.74260490D+05 0.74260490D+05 0.11756342D+01  1  2 12  7  6  5       21 0.835349487401D-03 0.100000000000D+01
0.858525551677D-05 0.000000000000D+00 0.000000000000D+00 0.542304350555D-05 0.000000000000D+00  6 1 -2 25 -24 2 -2 4 0.10205173D+00 0.19341678D-01 0.74260490D+05 0.74260490D+05 0.74260490D+05 0.11756342D+01  1  2 12  7  6  5       21 0.981984790643D-03 0.100000000000D+01
-.180563761829D-04 0.000000000000D+00 0.000000000000D+00 0.543170528555D-05 0.000000000000D+00  6 1 -2 25 -24 2 -2 4 0.10205173D+00 0.19341678D-01 0.72589437D+05 0.72589437D+05 0.72589437D+05 0.11765727D+01  1  2  5  7  6  5       21 -.207211884708D-02 0.100000000000D+01
0.730325852649D-05 0.000000000000D+00 0.000000000000D+00 0.542304350555D-05 0.000000000000D+00  6 1 -2 25 -24 3 -3 4 0.10205173D+00 0.19341678D-01 0.74260490D+05 0.74260490D+05 0.74260490D+05 0.11756342D+01  1  2 12  8  6  5       21 0.835349487401D-03 0.100000000000D+01
0.730325852649D-05 0.000000000000D+00 0.000000000000D+00 0.542304350555D-05 0.000000000000D+00  6 1 -2 25 -24 4 -4 4 0.10205173D+00 0.19341678D-01 0.74260490D+05 0.74260490D+05 0.74260490D+05 0.11756342D+01  1  2 12  8  6  5       21 0.835349487401D-03 0.100000000000D+01
0.858525551677D-05 0.000000000000D+00 0.000000000000D+00 0.542304350555D-05 0.000000000000D+00  6 1 -2 25 -24 3 -3 4 0.10205173D+00 0.19341678D-01 0.74260490D+05 0.74260490D+05 0.74260490D+05 0.11756342D+01  1  2 12  8  6  5       21 0.981984790643D-03 0.100000000000D+01
0.858525551677D-05 0.000000000000D+00 0.000000000000D+00 0.542304350555D-05 0.000000000000D+00  6 1 -2 25 -24 4 -4 4 0.10205173D+00 0.19341678D-01 0.74260490D+05 0.74260490D+05 0.74260490D+05 0.11756342D+01  1  2 12  8  6  5       21 0.981984790643D-03 0.100000000000D+01
-.180563761829D-04 0.000000000000D+00 0.000000000000D+00 0.543170528555D-05 0.000000000000D+00  6 1 -2 25 -24 3 -3 4 0.10205173D+00 0.19341678D-01 0.72589437D+05 0.72589437D+05 0.72589437D+05 0.11765727D+01  1  2  5  8  6  5       21 -.207211884708D-02 0.100000000000D+01
-.180563761829D-04 0.000000000000D+00 0.000000000000D+00 0.543170528555D-05 0.000000000000D+00  6 1 -2 25 -24 4 -4 4 0.10205173D+00 0.19341678D-01 0.72589437D+05 0.72589437D+05 0.72589437D+05 0.11765727D+01  1  2  5  8  6  5       21 -.207211884708D-02 0.100000000000D+01
  </mgrwgt>
  </event>
  <event>
  5     66 0.42750230E-03 0.99032367E+02 0.75467711E-02 0.10081219E+00
        1 -1    0    0  502    0 0.00000000E+00 0.00000000E+00 0.46840373E+02 0.46841466E+02 0.32000000E+00 0.0000E+00 0.9000E+01
       -2 -1    0    0    0  501 0.00000000E+00 0.00000000E+00 -.87150124E+03 0.87150130E+03 0.32000000E+00 0.0000E+00 0.9000E+01
       25  1    1    2    0    0 -.56143075E+02 0.60675711E+02 -.24601285E+03 0.28806407E+03 0.12500000E+03 0.0000E+00 0.9000E+01
      -24  1    1    2    0    0 0.12631738E+03 0.91995517E+01 -.37248833E+03 0.40156629E+03 0.80419002E+02 0.0000E+00 0.9000E+01
       21  1    1    2  502  501 -.70174303E+02 -.69875263E+02 -.20615969E+03 0.22871241E+03 0.75000000E+00 0.0000E+00 0.9000E+01
#aMCatNLO 1  0  0  2  2 0.23930859D+02 0.00000000D+00  -5  6  0 0.00000000D+00 0.00000000D+00 0.00000000D+00 0.00000000D+00 0.00000000D+00
  <mgrwgt>
 0.2183367634D-01    5    4    0
 0.202044479785672D+03 0.000000000000000D+00 0.000000000000000D+00 0.202044479785672D+03
 0.202044479785672D+03 0.000000000000000D+00 0.000000000000000D+00 -.202044479785672D+03
 0.152601039968069D+03 -.561423153884535D+02 0.606764677977662D+02 0.287833993431308D+02
 0.152439742604180D+03 0.126318136979080D+03 0.920030740600384D+01 -.270137332597241D+02
 0.990481769990965D+02 -.701758215906261D+02 -.698767752037700D+02 -.176966608340671D+01
 0.000000000000000D+00 0.000000000000000D+00 -.000000000000000D+00 -.000000000000000D+00
 0.458277933234202D+03 0.000000000000000D+00 0.000000000000000D+00 0.458277933234202D+03
 0.620410346071949D+03 0.000000000000000D+00 0.000000000000000D+00 -.620410346071949D+03
 0.293296463615635D+03 -.253968347613790D+03 0.711997886374138D+02 0.287833993431308D+02
 0.883116717728186D+02 0.195068256887958D+02 0.148821162426225D+02 -.270137332597241D+02
 0.221239506890509D+03 -.212274041843679D+03 -.623178854780615D+02 -.176966608340671D+01
 0.475840637027189D+03 0.446735563768673D+03 -.237640194019748D+02 -.162132412837747D+03
 0.202044479785672D+03 0.000000000000000D+00 0.000000000000000D+00 0.202044479785672D+03
 0.202044479785672D+03 0.000000000000000D+00 0.000000000000000D+00 -.202044479785672D+03
 0.152601039968069D+03 -.561423153884535D+02 0.606764677977662D+02 0.287833993431308D+02
 0.152439742604180D+03 0.126318136979080D+03 0.920030740600384D+01 -.270137332597241D+02
 0.000000000000000D+00 0.000000000000000D+00 -.000000000000000D+00 -.000000000000000D+00
 0.990481769990965D+02 -.701758215906261D+02 -.698767752037700D+02 -.176966608340671D+01
 0.458277933234202D+03 0.000000000000000D+00 0.000000000000000D+00 0.458277933234202D+03
 0.620410346071949D+03 0.000000000000000D+00 0.000000000000000D+00 -.620410346071949D+03
 0.293296463615635D+03 -.253968347613790D+03 0.711997886374138D+02 0.287833993431308D+02
 0.883116717728186D+02 0.195068256887958D+02 0.148821162426225D+02 -.270137332597241D+02
 0.475840637027189D+03 0.446735563768673D+03 -.237640194019748D+02 -.162132412837747D+03
 0.221239506890509D+03 -.212274041843679D+03 -.623178854780615D+02 -.176966608340671D+01
0.429630389409D-03 0.000000000000D+00 0.000000000000D+00 0.207210650248D-05 0.000000000000D+00  6 1 -2 25 -24 21 21 2 0.72062998D-02 0.13407720D+00 0.39784569D+05 0.39784569D+05 0.39784569D+05 0.12022385D+01  1  2  2  2  6  2       -2 0.229801748896D-01 0.100000000000D+01
-.216570058082D-04 0.226722185332D-04 -.164989381961D-05 0.207210650248D-05 0.000000000000D+00  6 1 -2 25 -24 21 21 4 0.72062998D-02 0.13407720D+00 0.39784569D+05 0.39784569D+05 0.39784569D+05 0.12022385D+01  1  2  3  2  6  2       -2 -.167431825892D-02 0.100000000000D+01
0.575265654540D-05 0.000000000000D+00 0.000000000000D+00 0.207210650248D-05 0.000000000000D+00  6 1 -2 25 -24 21 21 4 0.72062998D-02 0.13407720D+00 0.39784569D+05 0.39784569D+05 0.39784569D+05 0.12022385D+01  1  2 15  2  6  2       -2 0.444741899067D-03 0.100000000000D+01
0.198514047412D-03 0.000000000000D+00 -.218901605639D-03 0.207210650248D-05 0.000000000000D+00  6 1 -2 25 -24 21 21 4 0.72062998D-02 0.56270783D+00 0.39784569D+05 0.39784569D+05 0.39784569D+05 0.12022385D+01  1  2  5  2  6  2       -2 0.324870117890D-04 0.100000000000D+01
0.349644932881D-04 0.000000000000D+00 -.376912530414D-04 0.207210650248D-05 0.000000000000D+00  6 1 21 25 -24 2 21 4 0.72062998D-02 0.56270783D+00 0.39784569D+05 0.39784569D+05 0.39784569D+05 0.12022385D+01  3  4  5  5  5  2       -2 0.505907975867D-04 0.100000000000D+01
  </mgrwgt>
  </event>
  <event>
  6     66 0.42750230E-03 0.15623117E+02 0.75467711E-02 0.11760963E+00
        1 -1    0    0  502    0 0.00000000E+00 0.00000000E+00 0.60796713E+03 0.60796721E+03 0.32000000E+00 0.0000E+00 0.9000E+01
       21 -1    0    0  503  501 0.00000000E+00 0.00000000E+00 -.36164787E+03 0.36164865E+03 0.75000000E+00 0.0000E+00 0.9000E+01
       25  1    1    2    0    0 -.34766422E+02 -.10966732E+03 0.34831925E+03 0.38753958E+03 0.12500000E+03 0.0000E+00 0.9000E+01
      -24  1    1    2    0    0 0.11540571E+02 0.83613395E+02 0.10096829E+03 0.15422774E+03 0.80419002E+02 0.0000E+00 0.9000E+01
        2  1    1    2  503    0 0.29376459E+02 -.77209718E+00 -.31302436E+03 0.31440090E+03 0.32000000E+00 0.0000E+00 0.9000E+01
       21  1    1    2  502  501 -.61506078E+01 0.26826024E+02 0.11005608E+03 0.11344764E+03 0.75000000E+00 0.0000E+00 0.9000E+01
#aMCatNLO 2  0  0  2  5 0.76790816D+01 0.00000000D+00  -5  6  0 0.00000000D+00 0.00000000D+00 0.00000000D+00 0.00000000D+00 0.00000000D+00
  <mgrwgt>
 0.3044799155D+00    1    2    0
 0.169983672169826D+03 0.000000000000000D+00 0.000000000000000D+00 0.169983672169826D+03
 0.169983672169826D+03 0.000000000000000D+00 0.000000000000000D+00 -.169983672169826D+03
 0.171061606459399D+03 -.199213939804743D+02 -.110060251055320D+03 0.335701117660482D+02
 0.131926440065935D+03 0.228635209241277D+02 0.833136663912461D+02 -.589360843414310D+02
 0.000000000000000D+00 0.000000000000000D+00 -.000000000000000D+00 -.000000000000000D+00
 0.369792978143189D+02 -.294212694365341D+01 0.267465846640734D+02 0.253659725753828D+02
 0.170810880180334D+03 0.000000000000000D+00 0.000000000000000D+00 0.170810880180334D+03
 0.128721529642762D+04 0.000000000000000D+00 0.000000000000000D+00 -.128721529642762D+04
 0.173170928671124D+03 -.347662226835639D+02 -.109670086592248D+03 0.335701117660482D+02
 0.130631970053872D+03 0.115408415576751D+02 0.836112587181027D+02 -.589360843414310D+02
 0.111679111435760D+04 0.293764592417934D+02 -.772097184565218D+00 -.111640441624728D+04
 0.374321635253586D+02 -.615107811590458D+01 0.268309250587109D+02 0.253659725753828D+02
0.118131663993D-02 0.000000000000D+00 0.000000000000D+00 0.247155860945D-04 0.203270032812D-06  6 1 21 25 -24 2 21 4 0.93533458D-01 0.55638193D-01 0.29477626D+05 0.29477626D+05 0.29477626D+05 0.12156999D+01  1  2  1  5  5  2       -2 0.304479915480D+00 0.100000000000D+01
  </mgrwgt>
  </event>
  <event>
  5     66 0.42750230E-03 0.31998781E+02 0.75467711E-02 0.12294862E+00
        1 -1    0    0  502    0 0.00000000E+00 0.00000000E+00 0.16124978E+03 0.16125009E+03 0.32000000E+00 0.0000E+00 0.9000E+01
       -2 -1    0    0    0  501 0.00000000E+00 0.00000000E+00 -.10336634E+03 0.10336683E+03 0.32000000E+00 0.0000E+00 0.9000E+01
       25  1    1    2    0    0 -.10847167E+02 0.60669850E+02 0.30339995E+02 0.14263242E+03 0.12500000E+03 0.0000E+00 0.9000E+01
      -24  1    1    2    0    0 0.81918328E+01 -.28788762E+02 0.12825256E+02 0.86761755E+02 0.80419002E+02 0.0000E+00 0.9000E+01
       21  1    1    2  502  501 0.26553345E+01 -.31881087E+02 0.14718190E+02 0.35222750E+02 0.75000000E+00 0.0000E+00 0.9000E+01
#aMCatNLO 1  0  0  5  2 0.49494576D+01 0.00000000D+00  -5  6  0 0.00000000D+00 0.00000000D+00 0.00000000D+00 0.00000000D+00 0.00000000D+00
  <mgrwgt>
 0.2631363853D+00   19    2    0
 0.129104244712167D+03 0.000000000000000D+00 0.000000000000000D+00 0.129104244712167D+03
 0.129104244712167D+03 -.000000000000000D+00 -.000000000000000D+00 -.129104244712167D+03
 0.139372969599547D+03 -.108475421821445D+02 0.606743509967376D+02 -.882391482023916D+00
 0.860390955956847D+02 0.819160133140575D+01 -.287859836775725D+02 -.630672877922220D+01
 0.327964242291027D+02 0.265594085073874D+01 -.318883673191651D+02 0.718912026124611D+01
 0.000000000000000D+00 0.000000000000000D+00 0.000000000000000D+00 -.000000000000000D+00
 0.129104244712167D+03 0.000000000000000D+00 0.000000000000000D+00 0.129104244712167D+03
 0.129104244712167D+03 -.000000000000000D+00 -.000000000000000D+00 -.129104244712167D+03
 0.137790798575413D+03 -.105423574466296D+02 0.570101719004315D+02 -.563151916188879D-01
 0.868126132547721D+02 0.838192816739945D+01 -.310711294688176D+02 -.579155069740589D+01
 0.513311359249158D+01 0.405874882053657D+01 0.223550131486138D+01 0.220860748809464D+01
 0.284719640016577D+02 -.189831954130646D+01 -.281745437464752D+02 0.363925840093013D+01
0.376288593704D-03 0.000000000000D+00 0.000000000000D+00 0.243827037628D-04 0.000000000000D+00  6 1 -2 25 -24 21 21 2 0.24807720D-01 0.15902576D-01 0.16534951D+05 0.16534951D+05 0.16534951D+05 0.12430276D+01  1  2  2  3  6  5       21 0.290949364909D+00 0.100000000000D+01
0.352316749648D-04 0.198572946381D-04 -.144504727889D-05 0.243827037628D-04 0.000000000000D+00  6 1 -2 25 -24 21 21 4 0.24807720D-01 0.15902576D-01 0.16534951D+05 0.16534951D+05 0.16534951D+05 0.12430276D+01  1  2  3  3  6  5       21 0.420911906085D-01 0.100000000000D+01
0.915031299991D-05 0.000000000000D+00 0.000000000000D+00 0.243827037628D-04 0.000000000000D+00  6 1 -2 25 -24 21 21 4 0.24807720D-01 0.15902576D-01 0.16534951D+05 0.16534951D+05 0.16534951D+05 0.12430276D+01  1  2 15  3  6  5       21 0.109318551840D-01 0.100000000000D+01
0.670291914991D-05 0.000000000000D+00 0.000000000000D+00 0.243811295577D-04 0.000000000000D+00  6 1 -2 25 -24 21 21 4 0.24807720D-01 0.15902576D-01 0.16548519D+05 0.16548519D+05 0.16548519D+05 0.12429875D+01  1  2 12  3  6  5       21 0.800714831200D-02 0.100000000000D+01
0.782710557192D-05 0.000000000000D+00 0.000000000000D+00 0.243811295577D-04 0.000000000000D+00  6 1 -2 25 -24 21 21 4 0.24807720D-01 0.15902576D-01 0.16548519D+05 0.16548519D+05 0.16548519D+05 0.12429875D+01  1  2 12  3  6  5       21 0.935007476092D-02 0.100000000000D+01
-.125194892274D-03 0.000000000000D+00 0.000000000000D+00 0.243827037628D-04 0.000000000000D+00  6 1 -2 25 -24 21 21 4 0.24807720D-01 0.15902576D-01 0.16534951D+05 0.16534951D+05 0.16534951D+05 0.12430276D+01  1  2  4  3  6  5       21 -.149570012757D+00 0.100000000000D+01
0.814836577723D-05 0.000000000000D+00 0.000000000000D+00 0.243827037628D-04 0.356728560839D-05  6 1 -2 25 -24 21 21 4 0.24807720D-01 0.15902576D-01 0.16548519D+05 0.16548519D+05 0.16548519D+05 0.12429875D+01  1  2 11  3  6  5       21 0.973384458613D-02 0.100000000000D+01
0.162454650689D-05 0.000000000000D+00 0.000000000000D+00 0.243811295577D-04 0.000000000000D+00  6 1 -2 25 -24 1 -1 4 0.24807720D-01 0.15902576D-01 0.16548519D+05 0.16548519D+05 0.16548519D+05 0.12429875D+01  1  2 12  6  6  5       21 0.194064474440D-02 0.100000000000D+01
0.170095305284D-05 0.000000000000D+00 0.000000000000D+00 0.243811295577D-04 0.000000000000D+00  6 1 -2 25 -24 1 -1 4 0.24807720D-01 0.15902576D-01 0.16548519D+05 0.16548519D+05 0.16548519D+05 0.12429875D+01  1  2 12  6  6  5       21 0.203191819284D-02 0.100000000000D+01
0.451585452497D-05 0.000000000000D+00 0.000000000000D+00 0.243811295577D-04 0.102183688901D-06  6 1 -2 25 -24 1 -1 4 0.24807720D-01 0.15902576D-01 0.16548519D+05 0.16548519D+05 0.16548519D+05 0.12429875D+01  1  2 11  6  6  5       21 0.539453275926D-02 0.100000000000D+01
0.162454650689D-05 0.000000000000D+00 0.000000000000D+00 0.243811295577D-04 0.000000000000D+00  6 1 -2 25 -24 2 -2 4 0.24807720D-01 0.15902576D-01 0.16548519D+05 0.16548519D+05 0.16548519D+05 0.12429875D+01  1  2 12  7  6  5       21 0.194064474440D-02 0.100000000000D+01
0.170095305284D-05 0.000000000000D+00 0.000000000000D+00 0.243811295577D-04 0.000000000000D+00  6 1 -2 25 -24 2 -2 4 0.24807720D-01 0.15902576D-01 0.16548519D+05 0.16548519D+05 0.16548519D+05 0.12429875D+01  1  2 12  7  6  5       21 0.203191819284D-02 0.100000000000D+01
0.568342520886D-05 0.000000000000D+00 0.000000000000D+00 0.243811295577D-04 0.921569515086D-07  6 1 -2 25 -24 2 -2 4 0.24807720D-01 0.15902576D-01 0.16548519D+05 0.16548519D+05 0.16548519D+05 0.12429875D+01  1  2 11  7  6  5       21 0.678928501891D-02 0.100000000000D+01
0.162454650689D-05 0.000000000000D+00 0.000000000000D+00 0.243811295577D-04 0.000000000000D+00  6 1 -2 25 -24 3 -3 4 0.24807720D-01 0.15902576D-01 0.16548519D+05 0.16548519D+05 0.16548519D+05 0.12429875D+01  1  2 12  8  6  5       21 0.194064474440D-02 0.100000000000D+01
0.162454650689D-05 0.000000000000D+00 0.000000000000D+00 0.243811295577D-04 0.000000000000D+00  6 1 -2 25 -24 4 -4 4 0.24807720D-01 0.15902576D-01 0.16548519D+05 0.16548519D+05 0.16548519D+05 0.12429875D+01  1  2 12  8  6  5       21 0.194064474440D-02 0.100000000000D+01
0.170095305284D-05 0.000000000000D+00 0.000000000000D+00 0.243811295577D-04 0.000000000000D+00  6 1 -2 25 -24 3 -3 4 0.24807720D-01 0.15902576D-01 0.16548519D+05 0.16548519D+05 0.16548519D+05 0.12429875D+01  1  2 12  8  6  5       21 0.203191819284D-02 0.100000000000D+01
0.170095305284D-05 0.000000000000D+00 0.000000000000D+00 0.243811295577D-04 0.000000000000D+00  6 1 -2 25 -24 4 -4 4 0.24807720D-01 0.15902576D-01 0.16548519D+05 0.16548519D+05 0.16548519D+05 0.12429875D+01  1  2 12  8  6  5       21 0.203191819284D-02 0.100000000000D+01
0.567935688031D-05 0.000000000000D+00 0.000000000000D+00 0.243811295577D-04 0.910616903588D-07  6 1 -2 25 -24 3 -3 4 0.24807720D-01 0.15902576D-01 0.16548519D+05 0.16548519D+05 0.16548519D+05 0.12429875D+01  1  2 11  8  6  5       21 0.678442509008D-02 0.100000000000D+01
0.567935688031D-05 0.000000000000D+00 0.000000000000D+00 0.243811295577D-04 0.910616903588D-07  6 1 -2 25 -24 4 -4 4 0.24807720D-01 0.15902576D-01 0.16548519D+05 0.16548519D+05 0.16548519D+05 0.12429875D+01  1  2 11  8  6  5       21 0.678442509008D-02 0.100000000000D+01
  </mgrwgt>
  </event>
  <event>
  5     66 0.42750230E-03 0.39449220E+02 0.75467711E-02 0.11540600E+00
        3 -1    0    0  502    0 0.00000000E+00 0.00000000E+00 0.83746040E+02 0.83747532E+02 0.50000000E+00 0.0000E+00 0.9000E+01
       -4 -1    0    0    0  501 0.00000000E+00 0.00000000E+00 -.27611321E+03 0.27611756E+03 0.15500000E+01 0.0000E+00 0.9000E+01
       25  1    1    2    0    0 0.46199319E+02 -.16558145E+01 -.13807877E+03 0.19190588E+03 0.12500000E+03 0.0000E+00 0.9000E+01
      -24  1    1    2    0    0 -.61018998E+02 -.34901047E+02 -.67500163E+02 0.12635224E+03 0.80419002E+02 0.0000E+00 0.9000E+01
       21  1    1    2  502  501 0.14819678E+02 0.36556862E+02 0.13211764E+02 0.41606973E+02 0.75000000E+00 0.0000E+00 0.9000E+01
#aMCatNLO 1  0  0  2  5 0.12282048D+00 0.00000000D+00  -5  6  0 0.00000000D+00 0.00000000D+00 0.00000000D+00 0.00000000D+00 0.00000000D+00
  <mgrwgt>
 0.1244422248D-01    4    2    0
 0.152067219142943D+03 0.000000000000000D+00 0.000000000000000D+00 0.152067219142943D+03
 0.152067219142943D+03 0.000000000000000D+00 0.000000000000000D+00 -.152067219142943D+03
 0.139735902929600D+03 0.461987417915865D+02 -.165723910439554D+01 -.420006236022253D+02
 0.106811747186404D+03 -.610194391019010D+02 -.349021360540650D+02 0.483031541044063D-01
 0.575867881698819D+02 0.148206973103144D+02 0.365593751584605D+02 0.419523204481209D+02
 0.000000000000000D+00 -.000000000000000D+00 -.000000000000000D+00 0.000000000000000D+00
 0.207377915208640D+03 0.000000000000000D+00 0.000000000000000D+00 0.207377915208640D+03
 0.202173637647795D+03 0.000000000000000D+00 0.000000000000000D+00 -.202173637647795D+03
 0.149989005843215D+03 0.600261318674657D+02 0.387880520765066D+02 -.420006236022253D+02
 0.956494205654752D+02 -.513567920289203D+02 -.663877092873073D+01 0.483031541044063D-01
 0.720299411983427D+02 0.210067759768867D+02 0.546537336429249D+02 0.419523204481209D+02
 0.918831852494017D+02 -.296761158154321D+02 -.868030147907008D+02 0.520427756084453D+01
0.171424676558D-03 0.000000000000D+00 0.000000000000D+00 0.155640424835D-04 0.000000000000D+00  6 3 -4 25 -24 21 21 2 0.12884456D-01 0.42479405D-01 0.19535006D+05 0.19535006D+05 0.19535006D+05 0.12349524D+01  1  2  2  2  6  2       -4 0.133680318234D-01 0.100000000000D+01
0.666787767003D-05 0.904632871580D-05 -.658315895135D-06 0.155640424835D-04 0.000000000000D+00  6 3 -4 25 -24 21 21 4 0.12884456D-01 0.42479405D-01 0.19535006D+05 0.19535006D+05 0.19535006D+05 0.12349524D+01  1  2  3  2  6  2       -4 0.793016409810D-03 0.100000000000D+01
0.478408649242D-05 0.000000000000D+00 0.000000000000D+00 0.155640424835D-04 0.000000000000D+00  6 3 -4 25 -24 21 21 4 0.12884456D-01 0.42479405D-01 0.19535006D+05 0.19535006D+05 0.19535006D+05 0.12349524D+01  1  2 15  2  6  2       -4 0.568975509477D-03 0.100000000000D+01
-.192195810681D-04 0.000000000000D+00 0.000000000000D+00 0.155640424835D-04 0.000000000000D+00  6 3 -4 25 -24 21 21 4 0.12884456D-01 0.42479405D-01 0.19535006D+05 0.19535006D+05 0.19535006D+05 0.12349524D+01  1  2  4  2  6  2       -4 -.228580125955D-02 0.100000000000D+01
  </mgrwgt>
  </event>
  <event>
  6     66 0.42750230E-03 0.52466398E+02 0.75467711E-02 0.11672328E+00
       21 -1    0    0  502  503 0.00000000E+00 0.00000000E+00 0.20983538E+03 0.20983672E+03 0.75000000E+00 0.0000E+00 0.9000E+01
       -4 -1    0    0    0  501 0.00000000E+00 0.00000000E+00 -.78890588E+03 0.78890740E+03 0.15500000E+01 0.0000E+00 0.9000E+01
       25  1    1    2    0    0 -.90834058E+02 0.83855868E+02 -.50028383E+03 0.53027497E+03 0.12500000E+03 0.0000E+00 0.9000E+01
      -24  1    1    2    0    0 0.64015223E+02 -.30803719E+02 -.22909362E+03 0.25297810E+03 0.80419002E+02 0.0000E+00 0.9000E+01
       -3  1    1    2    0  503 0.41628779E+02 -.44589226E+02 0.17508044E+03 0.18540379E+03 0.50000000E+00 0.0000E+00 0.9000E+01
       21  1    1    2  502  501 -.14809944E+02 -.84629236E+01 -.24773485E+02 0.30087266E+02 0.75000000E+00 0.0000E+00 0.9000E+01
#aMCatNLO 2  0  0  1  5 0.83627319D+02 0.00000000D+00  -5  6  0 0.00000000D+00 0.00000000D+00 0.00000000D+00 0.00000000D+00 0.00000000D+00
  <mgrwgt>
 0.1060552576D+00    1    2    0
 0.149212699267522D+03 0.000000000000000D+00 0.000000000000000D+00 0.149212699267522D+03
 0.149212699267522D+03 0.000000000000000D+00 0.000000000000000D+00 -.149212699267522D+03
 0.155764721607301D+03 -.678362936017226D+02 0.592329499949128D+02 -.229639587763300D+02
 0.124067104609603D+03 0.800600727824817D+02 -.479813677908798D+02 0.146151832975067D+02
 0.000000000000000D+00 0.000000000000000D+00 -.000000000000000D+00 0.000000000000000D+00
 0.185935723181392D+02 -.122237791807591D+02 -.112515822040330D+02 0.834877547882333D+01
 0.107984663163952D+04 0.000000000000000D+00 0.000000000000000D+00 0.107984663163952D+04
 0.153301076823420D+03 0.000000000000000D+00 0.000000000000000D+00 -.153301076823420D+03
 0.177298725473879D+03 -.908288754167381D+02 0.838606584908057D+02 -.229639587763300D+02
 0.108295471239758D+03 0.640192385727103D+02 -.307997832203638D+02 0.146151832975067D+02
 0.928551462987571D+03 0.416287785634881D+02 -.445892258533634D+02 0.926545554816096D+03
 0.190020487617293D+02 -.148191417194603D+02 -.847164941707853D+01 0.834877547882333D+01
0.235142221770D-02 0.000000000000D+00 0.000000000000D+00 0.702753143433D-04 0.136003054411D-06  6 21 -4 25 -24 -3 21 4 0.32282573D-01 0.12137030D+00 0.32612930D+05 0.32612930D+05 0.32612930D+05 0.12111102D+01  1  2  1  4  5  1        3 0.106055257568D+00 0.100000000000D+01
  </mgrwgt>
  </event>
  <event>
  5     66 0.42750230E-03 0.40286950E+02 0.75467711E-02 0.12299410E+00
        1 -1    0    0  502    0 0.00000000E+00 0.00000000E+00 0.19100920E+04 0.19100920E+04 0.32000000E+00 0.0000E+00 0.9000E+01
       -2 -1    0    0    0  501 0.00000000E+00 0.00000000E+00 -.91016500E+01 0.91072736E+01 0.32000000E+00 0.0000E+00 0.9000E+01
       25  1    1    2    0    0 -.19339474E+02 0.31740437E+02 0.87385031E+03 0.88352749E+03 0.12500000E+03 0.0000E+00 0.9000E+01
      -24  1    1    2    0    0 0.30075802E+02 0.70849688E+01 0.53571282E+03 0.54259579E+03 0.80419002E+02 0.0000E+00 0.9000E+01
       21  1    1    2  502  501 -.10736328E+02 -.38825405E+02 0.49142720E+03 0.49307600E+03 0.75000000E+00 0.0000E+00 0.9000E+01
#aMCatNLO 1  0  0  5  2 0.78673165D+01 0.00000000D+00  -5  6  0 0.00000000D+00 0.00000000D+00 0.00000000D+00 0.00000000D+00 0.00000000D+00
  <mgrwgt>
 0.2199166062D+00   25    2    0
 0.131872706607664D+03 0.000000000000000D+00 0.000000000000000D+00 0.131872706607664D+03
 0.131872706607664D+03 -.000000000000000D+00 -.000000000000000D+00 -.131872706607664D+03
 0.130749224569703D+03 -.193387638666274D+02 0.317430037602478D+02 -.942091555882068D+01
 0.870713813080207D+02 0.300762743913969D+02 0.708667833164122D+01 -.126256167165585D+02
 0.459248073376040D+02 -.107375105247696D+02 -.388296820918890D+02 0.220465322753792D+02
 0.000000000000000D+00 -.000000000000000D+00 0.000000000000000D+00 0.000000000000000D+00
 0.131872706607664D+03 0.000000000000000D+00 0.000000000000000D+00 0.131872706607664D+03
 0.131872706607664D+03 -.000000000000000D+00 -.000000000000000D+00 -.131872706607664D+03
 0.130465718956386D+03 -.196700646786934D+02 0.305449322724822D+02 -.874068022594491D+01
 0.868694439719556D+02 0.298556639780385D+02 0.628889264406418D+01 -.121726537520825D+02
 0.192393592600273D+02 0.265177874575295D+01 -.144368680400248D+02 0.124377592602077D+02
 0.271708910269590D+02 -.128373780450980D+02 -.223969568765216D+02 0.847557471781980D+01
0.202944085635D-03 0.000000000000D+00 0.000000000000D+00 0.167101747553D-04 0.000000000000D+00  6 1 -2 25 -24 21 21 2 0.29386074D+00 0.14006885D-02 0.16492656D+05 0.16492656D+05 0.16492656D+05 0.12431529D+01  1  2  2  3  6  5       21 0.137118819985D+00 0.100000000000D+01
0.601276543213D-05 0.107096536301D-04 -.779358725243D-06 0.167101747553D-04 0.000000000000D+00  6 1 -2 25 -24 21 21 4 0.29386074D+00 0.14006885D-02 0.16492656D+05 0.16492656D+05 0.16492656D+05 0.12431529D+01  1  2  3  3  6  5       21 0.627832880185D-02 0.100000000000D+01
0.910681833058D-05 0.000000000000D+00 0.000000000000D+00 0.167101747553D-04 0.000000000000D+00  6 1 -2 25 -24 21 21 4 0.29386074D+00 0.14006885D-02 0.16492656D+05 0.16492656D+05 0.16492656D+05 0.12431529D+01  1  2 15  3  6  5       21 0.950903547850D-02 0.100000000000D+01
0.115577908802D-03 0.000000000000D+00 0.000000000000D+00 0.167119065806D-04 0.000000000000D+00  6 1 -2 25 -24 21 21 4 0.29386074D+00 0.14006885D-02 0.16470963D+05 0.16470963D+05 0.16470963D+05 0.12432174D+01  1  2 12  3  6  5       21 0.120705925918D+00 0.100000000000D+01
0.119202107514D-03 0.000000000000D+00 0.000000000000D+00 0.167119065806D-04 0.000000000000D+00  6 1 -2 25 -24 21 21 4 0.29386074D+00 0.14006885D-02 0.16470963D+05 0.16470963D+05 0.16470963D+05 0.12432174D+01  1  2 12  3  6  5       21 0.124490924848D+00 0.100000000000D+01
-.537905033366D-03 0.000000000000D+00 0.000000000000D+00 0.167101747553D-04 0.000000000000D+00  6 1 -2 25 -24 21 21 4 0.29386074D+00 0.14006885D-02 0.16492656D+05 0.16492656D+05 0.16492656D+05 0.12431529D+01  1  2  4  3  6  5       21 -.561662466590D+00 0.100000000000D+01
-.211072924251D-03 0.000000000000D+00 0.000000000000D+00 0.167101747553D-04 0.000000000000D+00  6 1 -2 25 -24 21 21 4 0.29386074D+00 0.14006885D-02 0.16492656D+05 0.16492656D+05 0.16492656D+05 0.12431529D+01  1  2  5  3  6  5       21 -.220395296403D+00 0.100000000000D+01
0.588310325250D-03 0.000000000000D+00 -.000000000000D+00 0.167101747553D-04 0.000000000000D+00  6 1 -2 25 -24 21 21 4 0.29386074D+00 0.14006885D-02 0.16492656D+05 0.16492656D+05 0.16492656D+05 0.12431529D+01  1  2  6  3  6  5       21 0.614293988537D+00 0.100000000000D+01
0.181854696448D-05 0.000000000000D+00 0.000000000000D+00 0.167101747553D-04 0.174508204570D-05  6 1 -2 25 -24 21 21 4 0.29386074D+00 0.14006885D-02 0.16470963D+05 0.16470963D+05 0.16470963D+05 0.12432174D+01  1  2 11  3  6  5       21 0.189923314453D-02 0.100000000000D+01
0.633569983441D-05 0.000000000000D+00 0.000000000000D+00 0.167119065806D-04 0.000000000000D+00  6 1 -2 25 -24 1 -1 4 0.29386074D+00 0.14006885D-02 0.16470963D+05 0.16470963D+05 0.16470963D+05 0.12432174D+01  1  2 12  6  6  5       21 0.661680525954D-02 0.100000000000D+01
0.652611956450D-05 0.000000000000D+00 0.000000000000D+00 0.167119065806D-04 0.000000000000D+00  6 1 -2 25 -24 1 -1 4 0.29386074D+00 0.14006885D-02 0.16470963D+05 0.16470963D+05 0.16470963D+05 0.12432174D+01  1  2 12  6  6  5       21 0.681567362524D-02 0.100000000000D+01
-.159339859154D-04 0.000000000000D+00 0.000000000000D+00 0.167101747553D-04 0.000000000000D+00  6 1 -2 25 -24 1 -1 4 0.29386074D+00 0.14006885D-02 0.16492656D+05 0.16492656D+05 0.16492656D+05 0.12431529D+01  1  2  5  6  6  5       21 -.166377358022D-01 0.100000000000D+01
0.118336465020D-06 0.000000000000D+00 0.000000000000D+00 0.167101747553D-04 0.736040754596D-07  6 1 -2 25 -24 1 -1 4 0.29386074D+00 0.14006885D-02 0.16470963D+05 0.16470963D+05 0.16470963D+05 0.12432174D+01  1  2 11  6  6  5       21 0.123586875105D-03 0.100000000000D+01
0.633569983441D-05 0.000000000000D+00 0.000000000000D+00 0.167119065806D-04 0.000000000000D+00  6 1 -2 25 -24 2 -2 4 0.29386074D+00 0.14006885D-02 0.16470963D+05 0.16470963D+05 0.16470963D+05 0.12432174D+01  1  2 12  7  6  5       21 0.661680525954D-02 0.100000000000D+01
0.652611956450D-05 0.000000000000D+00 0.000000000000D+00 0.167119065806D-04 0.000000000000D+00  6 1 -2 25 -24 2 -2 4 0.29386074D+00 0.14006885D-02 0.16470963D+05 0.16470963D+05 0.16470963D+05 0.12432174D+01  1  2 12  7  6  5       21 0.681567362524D-02 0.100000000000D+01
-.159339859154D-04 0.000000000000D+00 0.000000000000D+00 0.167101747553D-04 0.000000000000D+00  6 1 -2 25 -24 2 -2 4 0.29386074D+00 0.14006885D-02 0.16492656D+05 0.16492656D+05 0.16492656D+05 0.12431529D+01  1  2  5  7  6  5       21 -.166377358022D-01 0.100000000000D+01
0.120102944302D-06 0.000000000000D+00 0.000000000000D+00 0.167101747553D-04 0.711987975844D-07  6 1 -2 25 -24 2 -2 4 0.29386074D+00 0.14006885D-02 0.16470963D+05 0.16470963D+05 0.16470963D+05 0.12432174D+01  1  2 11  7  6  5       21 0.125431730403D-03 0.100000000000D+01
0.633569983441D-05 0.000000000000D+00 0.000000000000D+00 0.167119065806D-04 0.000000000000D+00  6 1 -2 25 -24 3 -3 4 0.29386074D+00 0.14006885D-02 0.16470963D+05 0.16470963D+05 0.16470963D+05 0.12432174D+01  1  2 12  8  6  5       21 0.661680525954D-02 0.100000000000D+01
0.633569983441D-05 0.000000000000D+00 0.000000000000D+00 0.167119065806D-04 0.000000000000D+00  6 1 -2 25 -24 4 -4 4 0.29386074D+00 0.14006885D-02 0.16470963D+05 0.16470963D+05 0.16470963D+05 0.12432174D+01  1  2 12  8  6  5       21 0.661680525954D-02 0.100000000000D+01
0.652611956450D-05 0.000000000000D+00 0.000000000000D+00 0.167119065806D-04 0.000000000000D+00  6 1 -2 25 -24 3 -3 4 0.29386074D+00 0.14006885D-02 0.16470963D+05 0.16470963D+05 0.16470963D+05 0.12432174D+01  1  2 12  8  6  5       21 0.681567362524D-02 0.100000000000D+01
0.652611956450D-05 0.000000000000D+00 0.000000000000D+00 0.167119065806D-04 0.000000000000D+00  6 1 -2 25 -24 4 -4 4 0.29386074D+00 0.14006885D-02 0.16470963D+05 0.16470963D+05 0.16470963D+05 0.12432174D+01  1  2 12  8  6  5       21 0.681567362524D-02 0.100000000000D+01
-.159339859154D-04 0.000000000000D+00 0.000000000000D+00 0.167101747553D-04 0.000000000000D+00  6 1 -2 25 -24 3 -3 4 0.29386074D+00 0.14006885D-02 0.16492656D+05 0.16492656D+05 0.16492656D+05 0.12431529D+01  1  2  5  8  6  5       21 -.166377358022D-01 0.100000000000D+01
-.159339859154D-04 0.000000000000D+00 0.000000000000D+00 0.167101747553D-04 0.000000000000D+00  6 1 -2 25 -24 4 -4 4 0.29386074D+00 0.14006885D-02 0.16492656D+05 0.16492656D+05 0.16492656D+05 0.12431529D+01  1  2  5  8  6  5       21 -.166377358022D-01 0.100000000000D+01
0.119747737694D-06 0.000000000000D+00 0.000000000000D+00 0.167101747553D-04 0.706705632365D-07  6 1 -2 25 -24 3 -3 4 0.29386074D+00 0.14006885D-02 0.16470963D+05 0.16470963D+05 0.16470963D+05 0.12432174D+01  1  2 11  8  6  5       21 0.125060763815D-03 0.100000000000D+01
0.119747737694D-06 0.000000000000D+00 0.000000000000D+00 0.167101747553D-04 0.706705632365D-07  6 1 -2 25 -24 4 -4 4 0.29386074D+00 0.14006885D-02 0.16470963D+05 0.16470963D+05 0.16470963D+05 0.12432174D+01  1  2 11  8  6  5       21 0.125060763815D-03 0.100000000000D+01
  </mgrwgt>
  </event>
  <event>
  5     66 0.42750230E-03 0.49864971E+02 0.75467711E-02 0.11716013E+00
        1 -1    0    0  502    0 0.00000000E+00 0.00000000E+00 0.10101843E+04 0.10101844E+04 0.32000000E+00 0.0000E+00 0.9000E+01
       -2 -1    0    0    0  501 0.00000000E+00 0.00000000E+00 -.32488921E+02 0.32490496E+02 0.32000000E+00 0.0000E+00 0.9000E+01
       25  1    1    2    0    0 0.59053177E+02 -.11183886E+03 0.38144313E+03 0.42085516E+03 0.12500000E+03 0.0000E+00 0.9000E+01
      -24  1    1    2    0    0 -.59644971E+02 0.48674246E+02 0.33395691E+03 0.35202435E+03 0.80419002E+02 0.0000E+00 0.9000E+01
       21  1    1    2  502  501 0.59179443E+00 0.63164611E+02 0.26229538E+03 0.26979538E+03 0.75000000E+00 0.0000E+00 0.9000E+01
#aMCatNLO 1  0  0  5  1 0.42206029D+01 0.00000000D+00  -5  6  0 0.00000000D+00 0.00000000D+00 0.00000000D+00 0.00000000D+00 0.00000000D+00
  <mgrwgt>
 0.3235254233D-01   25    2    0
 0.181164695418243D+03 0.000000000000000D+00 0.000000000000000D+00 0.181164695418243D+03
 0.181164695418243D+03 -.000000000000000D+00 -.000000000000000D+00 -.181164695418243D+03
 0.181824582882729D+03 0.590531592269366D+02 -.111840750060986D+03 -.379414015501895D+02
 0.111883284431156D+03 -.596449823111456D+02 0.486730808295448D+02 0.111382524839476D+02
 0.686215235226013D+02 0.591823084209025D+00 0.631676692314411D+02 0.268031490662418D+02
 0.000000000000000D+00 0.000000000000000D+00 0.000000000000000D+00 0.000000000000000D+00
 0.181164695418243D+03 0.000000000000000D+00 0.000000000000000D+00 0.181164695418243D+03
 0.181164695418243D+03 -.000000000000000D+00 -.000000000000000D+00 -.181164695418243D+03
 0.181547740994012D+03 0.590568653786286D+02 -.111445177514976D+03 -.377735531865216D+02
 0.111998643280506D+03 -.596426988670561D+02 0.489168020442086D+02 0.112416676665358D+02
 0.131514996715590D+02 0.370847593511334D+01 0.105775325942961D+02 0.687931348800919D+01
 0.556315068904096D+02 -.312264244668584D+01 0.519508428764714D+02 0.196525720319766D+02
0.452879838130D-04 0.000000000000D+00 0.000000000000D+00 0.500136980281D-05 0.000000000000D+00  6 1 -2 25 -24 21 21 2 0.15541310D+00 0.49984206D-02 0.31032315D+05 0.31032315D+05 0.31032315D+05 0.12133593D+01  1  2  2  3  6  5       21 0.178927179340D-01 0.100000000000D+01
0.205276770276D-06 0.238991256495D-05 -.173917782442D-06 0.500136980281D-05 0.000000000000D+00  6 1 -2 25 -24 21 21 4 0.15541310D+00 0.49984206D-02 0.31032315D+05 0.31032315D+05 0.31032315D+05 0.12133593D+01  1  2  3  3  6  5       21 0.119402112648D-03 0.100000000000D+01
0.168039082373D-05 0.000000000000D+00 0.000000000000D+00 0.500136980281D-05 0.000000000000D+00  6 1 -2 25 -24 21 21 4 0.15541310D+00 0.49984206D-02 0.31032315D+05 0.31032315D+05 0.31032315D+05 0.12133593D+01  1  2 15  3  6  5       21 0.977422891830D-03 0.100000000000D+01
0.332055086214D-05 0.000000000000D+00 0.000000000000D+00 0.500149473156D-05 0.000000000000D+00  6 1 -2 25 -24 21 21 4 0.15541310D+00 0.49984206D-02 0.31021959D+05 0.31021959D+05 0.31021959D+05 0.12133745D+01  1  2 12  3  6  5       21 0.193153491611D-02 0.100000000000D+01
0.336041586787D-05 0.000000000000D+00 0.000000000000D+00 0.500149473156D-05 0.000000000000D+00  6 1 -2 25 -24 21 21 4 0.15541310D+00 0.49984206D-02 0.31021959D+05 0.31021959D+05 0.31021959D+05 0.12133745D+01  1  2 12  3  6  5       21 0.195472403553D-02 0.100000000000D+01
-.278812610768D-03 0.000000000000D+00 0.000000000000D+00 0.500136980281D-05 0.000000000000D+00  6 1 -2 25 -24 21 21 4 0.15541310D+00 0.49984206D-02 0.31032315D+05 0.31032315D+05 0.31032315D+05 0.12133593D+01  1  2  4  3  6  5       21 -.162175265687D+00 0.100000000000D+01
-.430221737064D-04 0.000000000000D+00 0.000000000000D+00 0.500136980281D-05 0.000000000000D+00  6 1 -2 25 -24 21 21 4 0.15541310D+00 0.49984206D-02 0.31032315D+05 0.31032315D+05 0.31032315D+05 0.12133593D+01  1  2  5  3  6  5       21 -.250244507665D-01 0.100000000000D+01
0.296113876884D-03 0.000000000000D+00 -.000000000000D+00 0.500136980281D-05 0.000000000000D+00  6 1 -2 25 -24 21 21 4 0.15541310D+00 0.49984206D-02 0.31032315D+05 0.31032315D+05 0.31032315D+05 0.12133593D+01  1  2  6  3  6  5       21 0.172238789791D+00 0.100000000000D+01
0.411221794610D-04 0.000000000000D+00 0.000000000000D+00 0.500136980281D-05 0.190161639787D-05  6 1 -2 25 -24 21 21 4 0.15541310D+00 0.49984206D-02 0.31021959D+05 0.31021959D+05 0.31021959D+05 0.12133745D+01  1  2 11  3  6  5       21 0.239204062076D-01 0.100000000000D+01
0.848871653950D-06 0.000000000000D+00 0.000000000000D+00 0.500149473156D-05 0.000000000000D+00  6 1 -2 25 -24 1 -1 4 0.15541310D+00 0.49984206D-02 0.31021959D+05 0.31021959D+05 0.31021959D+05 0.12133745D+01  1  2 12  6  6  5       21 0.493781094455D-03 0.100000000000D+01
0.854631144678D-06 0.000000000000D+00 0.000000000000D+00 0.500149473156D-05 0.000000000000D+00  6 1 -2 25 -24 1 -1 4 0.15541310D+00 0.49984206D-02 0.31021959D+05 0.31021959D+05 0.31021959D+05 0.12133745D+01  1  2 12  6  6  5       21 0.497131339008D-03 0.100000000000D+01
-.136542246468D-04 0.000000000000D+00 0.000000000000D+00 0.500136980281D-05 0.000000000000D+00  6 1 -2 25 -24 1 -1 4 0.15541310D+00 0.49984206D-02 0.31032315D+05 0.31032315D+05 0.31032315D+05 0.12133593D+01  1  2  5  6  6  5       21 -.794217128031D-02 0.100000000000D+01
0.120994135688D-04 0.000000000000D+00 0.000000000000D+00 0.500136980281D-05 0.545937562171D-07  6 1 -2 25 -24 1 -1 4 0.15541310D+00 0.49984206D-02 0.31021959D+05 0.31021959D+05 0.31021959D+05 0.12133745D+01  1  2 11  6  6  5       21 0.703812130664D-02 0.100000000000D+01
0.848871653950D-06 0.000000000000D+00 0.000000000000D+00 0.500149473156D-05 0.000000000000D+00  6 1 -2 25 -24 2 -2 4 0.15541310D+00 0.49984206D-02 0.31021959D+05 0.31021959D+05 0.31021959D+05 0.12133745D+01  1  2 12  7  6  5       21 0.493781094455D-03 0.100000000000D+01
0.854631144678D-06 0.000000000000D+00 0.000000000000D+00 0.500149473156D-05 0.000000000000D+00  6 1 -2 25 -24 2 -2 4 0.15541310D+00 0.49984206D-02 0.31021959D+05 0.31021959D+05 0.31021959D+05 0.12133745D+01  1  2 12  7  6  5       21 0.497131339008D-03 0.100000000000D+01
-.136542246468D-04 0.000000000000D+00 0.000000000000D+00 0.500136980281D-05 0.000000000000D+00  6 1 -2 25 -24 2 -2 4 0.15541310D+00 0.49984206D-02 0.31032315D+05 0.31032315D+05 0.31032315D+05 0.12133593D+01  1  2  5  7  6  5       21 -.794217128031D-02 0.100000000000D+01
0.122100353819D-04 0.000000000000D+00 0.000000000000D+00 0.500136980281D-05 0.544719007518D-07  6 1 -2 25 -24 2 -2 4 0.15541310D+00 0.49984206D-02 0.31021959D+05 0.31021959D+05 0.31021959D+05 0.12133745D+01  1  2 11  7  6  5       21 0.710246903184D-02 0.100000000000D+01
0.848871653950D-06 0.000000000000D+00 0.000000000000D+00 0.500149473156D-05 0.000000000000D+00  6 1 -2 25 -24 3 -3 4 0.15541310D+00 0.49984206D-02 0.31021959D+05 0.31021959D+05 0.31021959D+05 0.12133745D+01  1  2 12  8  6  5       21 0.493781094455D-03 0.100000000000D+01
0.848871653950D-06 0.000000000000D+00 0.000000000000D+00 0.500149473156D-05 0.000000000000D+00  6 1 -2 25 -24 4 -4 4 0.15541310D+00 0.49984206D-02 0.31021959D+05 0.31021959D+05 0.31021959D+05 0.12133745D+01  1  2 12  8  6  5       21 0.493781094455D-03 0.100000000000D+01
0.854631144678D-06 0.000000000000D+00 0.000000000000D+00 0.500149473156D-05 0.000000000000D+00  6 1 -2 25 -24 3 -3 4 0.15541310D+00 0.49984206D-02 0.31021959D+05 0.31021959D+05 0.31021959D+05 0.12133745D+01  1  2 12  8  6  5       21 0.497131339008D-03 0.100000000000D+01
0.854631144678D-06 0.000000000000D+00 0.000000000000D+00 0.500149473156D-05 0.000000000000D+00  6 1 -2 25 -24 4 -4 4 0.15541310D+00 0.49984206D-02 0.31021959D+05 0.31021959D+05 0.31021959D+05 0.12133745D+01  1  2 12  8  6  5       21 0.497131339008D-03 0.100000000000D+01
-.136542246468D-04 0.000000000000D+00 0.000000000000D+00 0.500136980281D-05 0.000000000000D+00  6 1 -2 25 -24 3 -3 4 0.15541310D+00 0.49984206D-02 0.31032315D+05 0.31032315D+05 0.31032315D+05 0.12133593D+01  1  2  5  8  6  5       21 -.794217128031D-02 0.100000000000D+01
-.136542246468D-04 0.000000000000D+00 0.000000000000D+00 0.500136980281D-05 0.000000000000D+00  6 1 -2 25 -24 4 -4 4 0.15541310D+00 0.49984206D-02 0.31032315D+05 0.31032315D+05 0.31032315D+05 0.12133593D+01  1  2  5  8  6  5       21 -.794217128031D-02 0.100000000000D+01
0.121900659156D-04 0.000000000000D+00 0.000000000000D+00 0.500136980281D-05 0.543675357913D-07  6 1 -2 25 -24 3 -3 4 0.15541310D+00 0.49984206D-02 0.31021959D+05 0.31021959D+05 0.31021959D+05 0.12133745D+01  1  2 11  8  6  5       21 0.709085297084D-02 0.100000000000D+01
0.121900659156D-04 0.000000000000D+00 0.000000000000D+00 0.500136980281D-05 0.543675357913D-07  6 1 -2 25 -24 4 -4 4 0.15541310D+00 0.49984206D-02 0.31021959D+05 0.31021959D+05 0.31021959D+05 0.12133745D+01  1  2 11  8  6  5       21 0.709085297084D-02 0.100000000000D+01
  </mgrwgt>
  </event>
  <event>
  5     66 0.42750230E-03 0.39818613E+02 0.75467711E-02 0.11854508E+00
        1 -1    0    0  502    0 0.00000000E+00 0.00000000E+00 0.95894511E+03 0.95894516E+03 0.32000000E+00 0.0000E+00 0.9000E+01
       -2 -1    0    0    0  501 0.00000000E+00 0.00000000E+00 -.30048154E+02 0.30049858E+02 0.32000000E+00 0.0000E+00 0.9000E+01
       25  1    1    2    0    0 0.64885645E+02 -.33376936E+02 0.33420632E+03 0.36420191E+03 0.12500000E+03 0.0000E+00 0.9000E+01
      -24  1    1    2    0    0 -.99782702E+02 0.52546136E+02 0.34199610E+03 0.36897999E+03 0.80419002E+02 0.0000E+00 0.9000E+01
       21  1    1    2  502  501 0.34897057E+02 -.19169200E+02 0.25269453E+03 0.25581312E+03 0.75000000E+00 0.0000E+00 0.9000E+01
#aMCatNLO 1  0  0  5  1 0.14374783D+02 0.00000000D+00  -5  6  0 0.00000000D+00 0.00000000D+00 0.00000000D+00 0.00000000D+00 0.00000000D+00
  <mgrwgt>
 0.8023520739D-01   20    2    0
 0.169750992675755D+03 0.000000000000000D+00 0.000000000000000D+00 0.169750992675755D+03
 0.169750992675755D+03 -.000000000000000D+00 -.000000000000000D+00 -.169750992675755D+03
 0.146539469244991D+03 0.648841821291313D+02 -.333761319227434D+02 -.229105384902447D+02
 0.139147106644527D+03 -.997840915116353D+02 0.525468988814411D+02 -.132913442628691D+02
 0.538154094619922D+02 0.348999093825040D+02 -.191707669586977D+02 0.362018827531138D+02
 0.000000000000000D+00 0.000000000000000D+00 0.000000000000000D+00 0.000000000000000D+00
 0.169750992675755D+03 0.000000000000000D+00 0.000000000000000D+00 0.169750992675755D+03
 0.169750992675755D+03 -.000000000000000D+00 -.000000000000000D+00 -.169750992675755D+03
 0.147594985873625D+03 0.673714834531787D+02 -.347424241247306D+02 -.203304460917821D+02
 0.136785054665572D+03 -.974507149954528D+02 0.512651586646297D+02 -.108709189794713D+02
 0.336224323135506D+02 0.304130747366554D+02 -.391277343992327D+01 0.137914119563494D+02
 0.214995124987636D+02 -.333843194381320D+00 -.126099610999758D+02 0.174099531149040D+02
0.675421651398D-04 0.000000000000D+00 0.000000000000D+00 0.131028120425D-04 0.000000000000D+00  6 1 -2 25 -24 21 21 2 0.14753015D+00 0.46229281D-02 0.26093055D+05 0.26093055D+05 0.26093055D+05 0.12213101D+01  1  2  2  3  6  5       21 0.331297450063D-01 0.100000000000D+01
0.484590356527D-05 0.356429797798D-05 -.259379698397D-06 0.131028120425D-04 0.000000000000D+00  6 1 -2 25 -24 21 21 4 0.14753015D+00 0.46229281D-02 0.26093055D+05 0.26093055D+05 0.26093055D+05 0.12213101D+01  1  2  3  3  6  5       21 0.354543711850D-02 0.100000000000D+01
0.220641482171D-05 0.000000000000D+00 0.000000000000D+00 0.131028120425D-04 0.000000000000D+00  6 1 -2 25 -24 21 21 4 0.14753015D+00 0.46229281D-02 0.26093055D+05 0.26093055D+05 0.26093055D+05 0.12213101D+01  1  2 15  3  6  5       21 0.161429234039D-02 0.100000000000D+01
0.335686390180D-04 0.000000000000D+00 0.000000000000D+00 0.130859722512D-04 0.000000000000D+00  6 1 -2 25 -24 21 21 4 0.14753015D+00 0.46229281D-02 0.26539437D+05 0.26539437D+05 0.26539437D+05 0.12205250D+01  1  2 12  3  6  5       21 0.245026103925D-01 0.100000000000D+01
0.399498709897D-04 0.000000000000D+00 0.000000000000D+00 0.130859722512D-04 0.000000000000D+00  6 1 -2 25 -24 21 21 4 0.14753015D+00 0.46229281D-02 0.26539437D+05 0.26539437D+05 0.26539437D+05 0.12205250D+01  1  2 12  3  6  5       21 0.291604352375D-01 0.100000000000D+01
-.655495977652D-04 0.000000000000D+00 0.000000000000D+00 0.131028120425D-04 0.000000000000D+00  6 1 -2 25 -24 21 21 4 0.14753015D+00 0.46229281D-02 0.26093055D+05 0.26093055D+05 0.26093055D+05 0.12213101D+01  1  2  4  3  6  5       21 -.479584403381D-01 0.100000000000D+01
-.625947259786D-04 0.000000000000D+00 0.000000000000D+00 0.131028120425D-04 0.000000000000D+00  6 1 -2 25 -24 21 21 4 0.14753015D+00 0.46229281D-02 0.26093055D+05 0.26093055D+05 0.26093055D+05 0.12213101D+01  1  2  5  3  6  5       21 -.457965499968D-01 0.100000000000D+01
0.112687347099D-03 0.000000000000D+00 -.000000000000D+00 0.131028120425D-04 0.000000000000D+00  6 1 -2 25 -24 21 21 4 0.14753015D+00 0.46229281D-02 0.26093055D+05 0.26093055D+05 0.26093055D+05 0.12213101D+01  1  2  6  3  6  5       21 0.824461109903D-01 0.100000000000D+01
0.841872845567D-06 0.000000000000D+00 0.000000000000D+00 0.130859722512D-04 0.000000000000D+00  6 1 -2 25 -24 1 -1 4 0.14753015D+00 0.46229281D-02 0.26539437D+05 0.26539437D+05 0.26539437D+05 0.12205250D+01  1  2 12  6  6  5       21 0.614504577440D-03 0.100000000000D+01
0.989455204149D-06 0.000000000000D+00 0.000000000000D+00 0.130859722512D-04 0.000000000000D+00  6 1 -2 25 -24 1 -1 4 0.14753015D+00 0.46229281D-02 0.26539437D+05 0.26539437D+05 0.26539437D+05 0.12205250D+01  1  2 12  6  6  5       21 0.722228725303D-03 0.100000000000D+01
-.196660880132D-05 0.000000000000D+00 0.000000000000D+00 0.131028120425D-04 0.000000000000D+00  6 1 -2 25 -24 1 -1 4 0.14753015D+00 0.46229281D-02 0.26093055D+05 0.26093055D+05 0.26093055D+05 0.12213101D+01  1  2  5  6  6  5       21 -.143884164178D-02 0.100000000000D+01
0.841872845567D-06 0.000000000000D+00 0.000000000000D+00 0.130859722512D-04 0.000000000000D+00  6 1 -2 25 -24 2 -2 4 0.14753015D+00 0.46229281D-02 0.26539437D+05 0.26539437D+05 0.26539437D+05 0.12205250D+01  1  2 12  7  6  5       21 0.614504577440D-03 0.100000000000D+01
0.989455204149D-06 0.000000000000D+00 0.000000000000D+00 0.130859722512D-04 0.000000000000D+00  6 1 -2 25 -24 2 -2 4 0.14753015D+00 0.46229281D-02 0.26539437D+05 0.26539437D+05 0.26539437D+05 0.12205250D+01  1  2 12  7  6  5       21 0.722228725303D-03 0.100000000000D+01
-.196660880132D-05 0.000000000000D+00 0.000000000000D+00 0.131028120425D-04 0.000000000000D+00  6 1 -2 25 -24 2 -2 4 0.14753015D+00 0.46229281D-02 0.26093055D+05 0.26093055D+05 0.26093055D+05 0.12213101D+01  1  2  5  7  6  5       21 -.143884164178D-02 0.100000000000D+01
0.841872845567D-06 0.000000000000D+00 0.000000000000D+00 0.130859722512D-04 0.000000000000D+00  6 1 -2 25 -24 3 -3 4 0.14753015D+00 0.46229281D-02 0.26539437D+05 0.26539437D+05 0.26539437D+05 0.12205250D+01  1  2 12  8  6  5       21 0.614504577440D-03 0.100000000000D+01
0.841872845567D-06 0.000000000000D+00 0.000000000000D+00 0.130859722512D-04 0.000000000000D+00  6 1 -2 25 -24 4 -4 4 0.14753015D+00 0.46229281D-02 0.26539437D+05 0.26539437D+05 0.26539437D+05 0.12205250D+01  1  2 12  8  6  5       21 0.614504577440D-03 0.100000000000D+01
0.989455204149D-06 0.000000000000D+00 0.000000000000D+00 0.130859722512D-04 0.000000000000D+00  6 1 -2 25 -24 3 -3 4 0.14753015D+00 0.46229281D-02 0.26539437D+05 0.26539437D+05 0.26539437D+05 0.12205250D+01  1  2 12  8  6  5       21 0.722228725303D-03 0.100000000000D+01
0.989455204149D-06 0.000000000000D+00 0.000000000000D+00 0.130859722512D-04 0.000000000000D+00  6 1 -2 25 -24 4 -4 4 0.14753015D+00 0.46229281D-02 0.26539437D+05 0.26539437D+05 0.26539437D+05 0.12205250D+01  1  2 12  8  6  5       21 0.722228725303D-03 0.100000000000D+01
-.196660880132D-05 0.000000000000D+00 0.000000000000D+00 0.131028120425D-04 0.000000000000D+00  6 1 -2 25 -24 3 -3 4 0.14753015D+00 0.46229281D-02 0.26093055D+05 0.26093055D+05 0.26093055D+05 0.12213101D+01  1  2  5  8  6  5       21 -.143884164178D-02 0.100000000000D+01
-.196660880132D-05 0.000000000000D+00 0.000000000000D+00 0.131028120425D-04 0.000000000000D+00  6 1 -2 25 -24 4 -4 4 0.14753015D+00 0.46229281D-02 0.26093055D+05 0.26093055D+05 0.26093055D+05 0.12213101D+01  1  2  5  8  6  5       21 -.143884164178D-02 0.100000000000D+01
  </mgrwgt>
  </event>
  <event>
  5     66 0.42750230E-03 0.11610912E+03 0.75467711E-02 0.11423669E+00
        1 -1    0    0  502    0 0.00000000E+00 0.00000000E+00 0.10601844E+04 0.10601844E+04 0.32000000E+00 0.0000E+00 0.9000E+01
       -2 -1    0    0    0  501 0.00000000E+00 0.00000000E+00 -.11327459E+03 0.11327504E+03 0.32000000E+00 0.0000E+00 0.9000E+01
       25  1    1    2    0    0 -.13715504E+00 0.86683510E+02 0.15766773E+03 0.21908483E+03 0.12500000E+03 0.0000E+00 0.9000E+01
      -24  1    1    2    0    0 -.96294535E+02 -.22013590E+02 -.26757656E+02 0.13015538E+03 0.80419002E+02 0.0000E+00 0.9000E+01
       21  1    1    2  502  501 0.96431690E+02 -.64669920E+02 0.81599973E+03 0.82421926E+03 0.75000000E+00 0.0000E+00 0.9000E+01
#aMCatNLO 1  0  0  2  5 0.25968477D+02 0.00000000D+00  -5  6  0 0.00000000D+00 0.00000000D+00 0.00000000D+00 0.00000000D+00 0.00000000D+00
  <mgrwgt>
 0.1336965799D-01    9    4    0
 0.346543274070926D+03 0.000000000000000D+00 0.000000000000000D+00 0.346543274070926D+03
 0.346543274070926D+03 0.000000000000000D+00 0.000000000000000D+00 -.346543274070926D+03
 0.155521846689288D+03 -.137232312959661D+00 0.866835617878136D+02 -.323726131277184D+02
 0.256922295581095D+03 -.962946630525368D+02 -.220135044738058D+02 -.223124614286881D+03
 0.280642405871469D+03 0.964318953654965D+02 -.646700573140078D+02 0.255497227414599D+03
 0.000000000000000D+00 0.000000000000000D+00 -.000000000000000D+00 -.000000000000000D+00
 0.353476700493889D+03 0.000000000000000D+00 0.000000000000000D+00 0.353476700493889D+03
 0.371985799351166D+03 0.000000000000000D+00 0.000000000000000D+00 -.371985799351166D+03
 0.158843617920638D+03 -.101094609853833D+01 0.925056044863585D+02 -.323726131277184D+02
 0.256822355914788D+03 -.977225100485045D+02 -.124989628530541D+02 -.223124614286881D+03
 0.277906895452130D+03 0.948795231127196D+02 -.543257343916936D+02 0.255497227414599D+03
 0.318896305574982D+02 0.385393303432321D+01 -.256809072416108D+02 -.185090988572772D+02
 0.346543274070926D+03 0.000000000000000D+00 0.000000000000000D+00 0.346543274070926D+03
 0.346543274070926D+03 0.000000000000000D+00 0.000000000000000D+00 -.346543274070926D+03
 0.155521846689288D+03 -.137232312959661D+00 0.866835617878136D+02 -.323726131277184D+02
 0.256922295581095D+03 -.962946630525368D+02 -.220135044738058D+02 -.223124614286881D+03
 0.000000000000000D+00 0.000000000000000D+00 -.000000000000000D+00 -.000000000000000D+00
 0.280642405871469D+03 0.964318953654965D+02 -.646700573140078D+02 0.255497227414599D+03
 0.353476700493889D+03 0.000000000000000D+00 0.000000000000000D+00 0.353476700493889D+03
 0.371985799351166D+03 0.000000000000000D+00 0.000000000000000D+00 -.371985799351166D+03
 0.158843617920638D+03 -.101094609853833D+01 0.925056044863585D+02 -.323726131277184D+02
 0.256822355914788D+03 -.977225100485045D+02 -.124989628530541D+02 -.223124614286881D+03
 0.318896305574982D+02 0.385393303432321D+01 -.256809072416108D+02 -.185090988572772D+02
 0.277906895452130D+03 0.948795231127196D+02 -.543257343916936D+02 0.255497227414599D+03
0.337805086197D-03 0.000000000000D+00 0.000000000000D+00 0.261616226080D-05 0.000000000000D+00  6 1 -2 25 -24 21 21 2 0.16310533D+00 0.17426898D-01 0.39124784D+05 0.39124784D+05 0.39124784D+05 0.12029772D+01  1  2  2  2  6  2       -2 0.167404989995D-01 0.100000000000D+01
-.131282272717D-04 0.178264641531D-04 -.129726047712D-05 0.261616226080D-05 0.000000000000D+00  6 1 -2 25 -24 21 21 4 0.16310533D+00 0.17426898D-01 0.39124784D+05 0.39124784D+05 0.39124784D+05 0.12029772D+01  1  2  3  2  6  2       -2 -.941505967620D-03 0.100000000000D+01
0.141470423954D-04 0.000000000000D+00 0.000000000000D+00 0.261616226080D-05 0.000000000000D+00  6 1 -2 25 -24 21 21 4 0.16310533D+00 0.17426898D-01 0.39124784D+05 0.39124784D+05 0.39124784D+05 0.12029772D+01  1  2 15  2  6  2       -2 0.101457146984D-02 0.100000000000D+01
0.187360554668D-02 0.000000000000D+00 0.000000000000D+00 0.259516729540D-05 0.000000000000D+00  6 1 -2 25 -24 21 21 4 0.16310533D+00 0.18923814D-01 0.43677568D+05 0.43677568D+05 0.43677568D+05 0.11981404D+01  1  2 12  2  6  2       -2 0.114871733583D+00 0.100000000000D+01
-.189330077878D-02 0.000000000000D+00 0.000000000000D+00 0.261616226080D-05 0.000000000000D+00  6 1 -2 25 -24 21 21 4 0.16310533D+00 0.17426898D-01 0.39124784D+05 0.39124784D+05 0.39124784D+05 0.12029772D+01  1  2  4  2  6  2       -2 -.135780250054D+00 0.100000000000D+01
-.415399946458D-02 0.000000000000D+00 -.784905299762D-03 0.261616226080D-05 0.000000000000D+00  6 1 -2 25 -24 21 21 4 0.16310533D+00 0.19062734D-01 0.39124784D+05 0.39124784D+05 0.39124784D+05 0.12029772D+01  1  2  5  2  6  2       -2 -.256093751859D+00 0.100000000000D+01
0.421061153997D-02 0.000000000000D+00 0.781756710901D-03 0.261616226080D-05 0.000000000000D+00  6 1 -2 25 -24 21 21 4 0.16310533D+00 0.17426898D-01 0.39124784D+05 0.39124784D+05 0.39124784D+05 0.12029772D+01  1  2  6  2  6  2       -2 0.301968865266D+00 0.100000000000D+01
0.262998486407D-04 0.000000000000D+00 0.000000000000D+00 0.259516729540D-05 0.000000000000D+00  6 1 21 25 -24 2 21 4 0.16310533D+00 0.18923814D-01 0.43677568D+05 0.43677568D+05 0.43677568D+05 0.11981404D+01  3  4 12  5  5  2       -2 0.223721625658D-01 0.100000000000D+01
-.592811108369D-04 0.000000000000D+00 -.116003832115D-04 0.261616226080D-05 0.000000000000D+00  6 1 21 25 -24 2 21 4 0.16310533D+00 0.19062734D-01 0.39124784D+05 0.39124784D+05 0.39124784D+05 0.12029772D+01  3  4  5  5  5  2       -2 -.507826660180D-01 0.100000000000D+01
  </mgrwgt>
  </event>
  <event>
  5     66 -.42750230E-03 0.22475801E+02 0.75467711E-02 0.12317564E+00
        1 -1    0    0  502    0 0.00000000E+00 0.00000000E+00 0.10455878E+04 0.10455879E+04 0.32000000E+00 0.0000E+00 0.9000E+01
       -2 -1    0    0    0  501 0.00000000E+00 0.00000000E+00 -.21455924E+02 0.21458311E+02 0.32000000E+00 0.0000E+00 0.9000E+01
       25  1    1    2    0    0 -.31648303E+02 -.17282780E+02 0.44704444E+03 0.46558999E+03 0.12500000E+03 0.0000E+00 0.9000E+01
      -24  1    1    2    0    0 0.37830796E+02 0.38889977E+02 0.18649553E+03 0.21021750E+03 0.80419002E+02 0.0000E+00 0.9000E+01
       21  1    1    2  502  501 -.61824930E+01 -.21607197E+02 0.39059193E+03 0.39123869E+03 0.75000000E+00 0.0000E+00 0.9000E+01
#aMCatNLO 1  0  0  1  5 0.50109765D+01 0.00000000D+00  -5  6  0 0.00000000D+00 0.00000000D+00 0.00000000D+00 0.00000000D+00 0.00000000D+00
  <mgrwgt>
 -.9284264005D+00   11    4    0
 0.149784353416563D+03 0.000000000000000D+00 0.000000000000000D+00 0.149784353416563D+03
 0.149784353416563D+03 0.000000000000000D+00 0.000000000000000D+00 -.149784353416563D+03
 0.130098711720475D+03 -.316480806600854D+02 -.172820023916917D+02 0.637318753564898D+00
 0.111213528379084D+03 0.378309863987167D+02 0.388906415619771D+02 -.543835214670100D+02
 0.582564667335664D+02 -.618290573863123D+01 -.216086391702854D+02 0.537462027134451D+02
 0.000000000000000D+00 -.000000000000000D+00 -.000000000000000D+00 0.000000000000000D+00
 0.263919927035509D+03 0.000000000000000D+00 0.000000000000000D+00 0.263919927035509D+03
 0.149860317209789D+03 0.000000000000000D+00 0.000000000000000D+00 -.149860317209789D+03
 0.129521208966150D+03 -.299293500629067D+02 -.159552938447186D+02 0.637318753564898D+00
 0.112127522487196D+03 0.393095443487951D+02 0.400319579921286D+02 -.543835214670100D+02
 0.579618825091549D+02 -.541351935152816D+01 -.210147406865033D+02 0.537462027134451D+02
 0.114169630282798D+03 -.396667493436022D+01 -.306192346090674D+01 0.114059609825720D+03
 0.149784353416563D+03 0.000000000000000D+00 0.000000000000000D+00 0.149784353416563D+03
 0.149784353416563D+03 0.000000000000000D+00 0.000000000000000D+00 -.149784353416563D+03
 0.130098711720475D+03 -.316480806600854D+02 -.172820023916917D+02 0.637318753564898D+00
 0.111213528379084D+03 0.378309863987167D+02 0.388906415619771D+02 -.543835214670100D+02
 0.000000000000000D+00 -.000000000000000D+00 -.000000000000000D+00 0.000000000000000D+00
 0.582564667335664D+02 -.618290573863123D+01 -.216086391702854D+02 0.537462027134451D+02
 0.263919927035509D+03 0.000000000000000D+00 0.000000000000000D+00 0.263919927035509D+03
 0.149860317209789D+03 0.000000000000000D+00 0.000000000000000D+00 -.149860317209789D+03
 0.129521208966150D+03 -.299293500629067D+02 -.159552938447186D+02 0.637318753564898D+00
 0.112127522487196D+03 0.393095443487951D+02 0.400319579921286D+02 -.543835214670100D+02
 0.114169630282798D+03 -.396667493436022D+01 -.306192346090674D+01 0.114059609825720D+03
 0.579618825091549D+02 -.541351935152816D+01 -.210147406865033D+02 0.537462027134451D+02
0.873637678463D-05 0.000000000000D+00 0.000000000000D+00 0.485908459300D-04 0.000000000000D+00  6 1 -2 25 -24 21 21 2 0.16085985D+00 0.33010988D-02 0.15572875D+05 0.15572875D+05 0.15572875D+05 0.12459711D+01  1  2  2  1  6  1        1 0.630216958380D-02 0.100000000000D+01
0.107101456690D-05 0.461031269044D-06 -.335499871938D-07 0.485908459300D-04 0.000000000000D+00  6 1 -2 25 -24 21 21 4 0.16085985D+00 0.33010988D-02 0.15572875D+05 0.15572875D+05 0.15572875D+05 0.12459711D+01  1  2  3  1  6  1        1 0.119941664599D-02 0.100000000000D+01
0.265589937135D-06 0.000000000000D+00 0.000000000000D+00 0.485908459300D-04 0.000000000000D+00  6 1 -2 25 -24 21 21 4 0.16085985D+00 0.33010988D-02 0.15572875D+05 0.15572875D+05 0.15572875D+05 0.12459711D+01  1  2 15  1  6  1        1 0.297431054116D-03 0.100000000000D+01
0.134560585413D-02 0.000000000000D+00 0.000000000000D+00 0.484477021702D-04 0.000000000000D+00  6 1 -2 25 -24 21 21 4 0.28681110D+00 0.33010988D-02 0.16165548D+05 0.16165548D+05 0.16165548D+05 0.12441345D+01  1  2 12  1  6  1        1 0.433515999155D+00 0.100000000000D+01
-.390233437643D-02 0.000000000000D+00 0.000000000000D+00 0.485908459300D-04 0.000000000000D+00  6 1 -2 25 -24 21 21 4 0.16085985D+00 0.33010988D-02 0.15572875D+05 0.15572875D+05 0.15572875D+05 0.12459711D+01  1  2  4  1  6  1        1 -.437017847745D+01 0.100000000000D+01
-.346903780193D-02 0.000000000000D+00 -.588605925341D-05 0.485908459300D-04 0.000000000000D+00  6 1 -2 25 -24 21 21 4 0.28347232D+00 0.33010988D-02 0.15572875D+05 0.15572875D+05 0.15572875D+05 0.12459711D+01  1  2  5  1  6  1        1 -.116057605446D+01 0.100000000000D+01
0.298168415057D-02 0.000000000000D+00 0.505307517732D-05 0.485908459300D-04 0.000000000000D+00  6 1 -2 25 -24 21 21 4 0.16085985D+00 0.33010988D-02 0.15572875D+05 0.15572875D+05 0.15572875D+05 0.12459711D+01  1  2  6  1  6  1        1 0.333915309259D+01 0.100000000000D+01
0.247696113700D-02 0.000000000000D+00 0.000000000000D+00 0.485908459300D-04 0.113024243397D-04  6 1 -2 25 -24 21 21 4 0.28343495D+00 0.33027729D-02 0.16165548D+05 0.16165548D+05 0.16165548D+05 0.12441345D+01  1  2 11  1  6  1        1 0.823369022780D+00 0.100000000000D+01
0.855326086346D-04 0.000000000000D+00 0.000000000000D+00 0.484477021702D-04 0.000000000000D+00  6 21 -2 25 -24 -1 21 4 0.28681110D+00 0.33010988D-02 0.16165548D+05 0.16165548D+05 0.16165548D+05 0.12441345D+01  3  4 12  4  5  1        1 0.250517505584D-01 0.100000000000D+01
-.216384824099D-03 0.000000000000D+00 -.367662277034D-06 0.485908459300D-04 0.000000000000D+00  6 21 -2 25 -24 -1 21 4 0.28347232D+00 0.33010988D-02 0.15572875D+05 0.15572875D+05 0.15572875D+05 0.12459711D+01  3  4  5  4  5  1        1 -.667388831470D-01 0.100000000000D+01
0.131415523938D-03 0.000000000000D+00 0.000000000000D+00 0.485908459300D-04 0.119927447089D-05  6 21 -2 25 -24 -1 21 4 0.28343495D+00 0.33027729D-02 0.16165548D+05 0.16165548D+05 0.16165548D+05 0.12441345D+01  3  4 11  4  5  1        1 0.401781322264D-01 0.100000000000D+01
  </mgrwgt>
  </event>
  <event>
  5     66 0.42750230E-03 0.39500266E+02 0.75467711E-02 0.11635514E+00
        1 -1    0    0  502    0 0.00000000E+00 0.00000000E+00 0.15019581E+03 0.15019615E+03 0.32000000E+00 0.0000E+00 0.9000E+01
       -2 -1    0    0    0  501 -.00000000E+00 -.00000000E+00 -.29625760E+03 0.29625777E+03 0.32000000E+00 0.0000E+00 0.9000E+01
       25  1    1    2    0    0 0.11208567E+03 -.84215636E+02 -.14614431E+03 0.23798872E+03 0.12500000E+03 0.0000E+00 0.9000E+01
      -24  1    1    2    0    0 -.77273987E+02 0.64412811E+02 -.55260139E+02 0.14014699E+03 0.80419002E+02 0.0000E+00 0.9000E+01
       21  1    1    2  502  501 -.34811684E+02 0.19802825E+02 0.55342664E+02 0.68318212E+02 0.75000000E+00 0.0000E+00 0.9000E+01
#aMCatNLO 1  0  0  5  2 0.15828236D+02 0.00000000D+00  -5  6  0 0.00000000D+00 0.00000000D+00 0.00000000D+00 0.00000000D+00 0.00000000D+00
  <mgrwgt>
 0.6565343816D-01   15    2    0
 0.210942562321736D+03 0.000000000000000D+00 0.000000000000000D+00 0.210942562321736D+03
 0.210942562321736D+03 -.000000000000000D+00 -.000000000000000D+00 -.210942562321736D+03
 0.201252142760518D+03 0.112086229749771D+03 -.842159539051403D+02 -.722618514434054D+02
 0.129176566612781D+03 -.772736287307141D+02 0.644126073878743D+02 -.995849987593294D+01
 0.914564152701733D+02 -.348126010190570D+02 0.198033465172660D+02 0.822203513193384D+02
 0.000000000000000D+00 0.000000000000000D+00 0.000000000000000D+00 0.000000000000000D+00
 0.210942562321736D+03 0.000000000000000D+00 0.000000000000000D+00 0.210942562321736D+03
 0.210942562321736D+03 -.000000000000000D+00 -.000000000000000D+00 -.210942562321736D+03
 0.198215665332061D+03 0.110215540908778D+03 -.831518018952433D+02 -.678436612130509D+02
 0.130062435862391D+03 -.784876327111503D+02 0.651032004718199D+02 -.709126701045704D+01
 0.746906908942138D+02 -.365816767350014D+02 0.265878189415404D+01 0.650646686946930D+02
 0.189163325548068D+02 0.485376853737384D+01 0.153898195292694D+02 0.987025952881490D+01
0.265914745788D-03 0.000000000000D+00 0.000000000000D+00 0.126793737967D-04 0.000000000000D+00  6 1 -2 25 -24 21 21 2 0.23107087D-01 0.45578132D-01 0.31804204D+05 0.31804204D+05 0.31804204D+05 0.12122454D+01  1  2  2  3  6  5       21 0.333180750952D-01 0.100000000000D+01
0.214652932508D-04 0.140327066621D-04 -.102118264079D-05 0.126793737967D-04 0.000000000000D+00  6 1 -2 25 -24 21 21 4 0.23107087D-01 0.45578132D-01 0.31804204D+05 0.31804204D+05 0.31804204D+05 0.12122454D+01  1  2  3  3  6  5       21 0.395235007337D-02 0.100000000000D+01
0.781750550926D-05 0.000000000000D+00 0.000000000000D+00 0.126793737967D-04 0.000000000000D+00  6 1 -2 25 -24 21 21 4 0.23107087D-01 0.45578132D-01 0.31804204D+05 0.31804204D+05 0.31804204D+05 0.12122454D+01  1  2 15  3  6  5       21 0.143941748720D-02 0.100000000000D+01
0.375395034085D-03 0.000000000000D+00 0.000000000000D+00 0.126157231873D-04 0.000000000000D+00  6 1 -2 25 -24 21 21 4 0.23107087D-01 0.45578132D-01 0.34026941D+05 0.34026941D+05 0.34026941D+05 0.12091988D+01  1  2 12  3  6  5       21 0.684812614995D-01 0.100000000000D+01
-.356809510222D-03 0.000000000000D+00 0.000000000000D+00 0.126793737967D-04 0.000000000000D+00  6 1 -2 25 -24 21 21 4 0.23107087D-01 0.45578132D-01 0.31804204D+05 0.31804204D+05 0.31804204D+05 0.12122454D+01  1  2  4  3  6  5       21 -.656984312967D-01 0.100000000000D+01
-.554730724849D-03 0.000000000000D+00 0.000000000000D+00 0.126793737967D-04 0.000000000000D+00  6 1 -2 25 -24 21 21 4 0.23107087D-01 0.45578132D-01 0.31804204D+05 0.31804204D+05 0.31804204D+05 0.12122454D+01  1  2  5  3  6  5       21 -.102141163199D+00 0.100000000000D+01
0.713166483695D-03 0.000000000000D+00 -.000000000000D+00 0.126793737967D-04 0.000000000000D+00  6 1 -2 25 -24 21 21 4 0.23107087D-01 0.45578132D-01 0.31804204D+05 0.31804204D+05 0.31804204D+05 0.12122454D+01  1  2  6  3  6  5       21 0.131313538148D+00 0.100000000000D+01
0.468695413666D-05 0.000000000000D+00 0.000000000000D+00 0.126157231873D-04 0.000000000000D+00  6 1 -2 25 -24 1 -1 4 0.23107087D-01 0.45578132D-01 0.34026941D+05 0.34026941D+05 0.34026941D+05 0.12091988D+01  1  2 12  6  6  5       21 0.855015391056D-03 0.100000000000D+01
-.114481442608D-04 0.000000000000D+00 0.000000000000D+00 0.126793737967D-04 0.000000000000D+00  6 1 -2 25 -24 1 -1 4 0.23107087D-01 0.45578132D-01 0.31804204D+05 0.31804204D+05 0.31804204D+05 0.12122454D+01  1  2  5  6  6  5       21 -.210791780388D-02 0.100000000000D+01
0.468695413666D-05 0.000000000000D+00 0.000000000000D+00 0.126157231873D-04 0.000000000000D+00  6 1 -2 25 -24 2 -2 4 0.23107087D-01 0.45578132D-01 0.34026941D+05 0.34026941D+05 0.34026941D+05 0.12091988D+01  1  2 12  7  6  5       21 0.855015391056D-03 0.100000000000D+01
-.114481442608D-04 0.000000000000D+00 0.000000000000D+00 0.126793737967D-04 0.000000000000D+00  6 1 -2 25 -24 2 -2 4 0.23107087D-01 0.45578132D-01 0.31804204D+05 0.31804204D+05 0.31804204D+05 0.12122454D+01  1  2  5  7  6  5       21 -.210791780388D-02 0.100000000000D+01
0.468695413666D-05 0.000000000000D+00 0.000000000000D+00 0.126157231873D-04 0.000000000000D+00  6 1 -2 25 -24 3 -3 4 0.23107087D-01 0.45578132D-01 0.34026941D+05 0.34026941D+05 0.34026941D+05 0.12091988D+01  1  2 12  8  6  5       21 0.855015391056D-03 0.100000000000D+01
0.468695413666D-05 0.000000000000D+00 0.000000000000D+00 0.126157231873D-04 0.000000000000D+00  6 1 -2 25 -24 4 -4 4 0.23107087D-01 0.45578132D-01 0.34026941D+05 0.34026941D+05 0.34026941D+05 0.12091988D+01  1  2 12  8  6  5       21 0.855015391056D-03 0.100000000000D+01
-.114481442608D-04 0.000000000000D+00 0.000000000000D+00 0.126793737967D-04 0.000000000000D+00  6 1 -2 25 -24 3 -3 4 0.23107087D-01 0.45578132D-01 0.31804204D+05 0.31804204D+05 0.31804204D+05 0.12122454D+01  1  2  5  8  6  5       21 -.210791780388D-02 0.100000000000D+01
-.114481442608D-04 0.000000000000D+00 0.000000000000D+00 0.126793737967D-04 0.000000000000D+00  6 1 -2 25 -24 4 -4 4 0.23107087D-01 0.45578132D-01 0.31804204D+05 0.31804204D+05 0.31804204D+05 0.12122454D+01  1  2  5  8  6  5       21 -.210791780388D-02 0.100000000000D+01
  </mgrwgt>
  </event>
  <event>
  5     66 0.42750230E-03 0.62281955E+02 0.75467711E-02 0.11344154E+00
        1 -1    0    0  502    0 0.00000000E+00 0.00000000E+00 0.23646389E+04 0.23646389E+04 0.32000000E+00 0.0000E+00 0.9000E+01
       -2 -1    0    0    0  501 0.00000000E+00 0.00000000E+00 -.15875011E+02 0.15878236E+02 0.32000000E+00 0.0000E+00 0.9000E+01
       25  1    1    2    0    0 0.81809609E+02 -.29335535E+02 0.94224444E+03 0.95446476E+03 0.12500000E+03 0.0000E+00 0.9000E+01
      -24  1    1    2    0    0 -.37349367E+02 -.14278677E+02 0.12966453E+04 0.12997520E+04 0.80419002E+02 0.0000E+00 0.9000E+01
       21  1    1    2  502  501 -.44460242E+02 0.43614212E+02 0.10987406E+03 0.12630037E+03 0.75000000E+00 0.0000E+00 0.9000E+01
#aMCatNLO 1  0  0  1  5 0.83835138D-01 0.00000000D+00  -5  6  0 0.00000000D+00 0.00000000D+00 0.00000000D+00 0.00000000D+00 0.00000000D+00
  <mgrwgt>
 0.3554657426D-01    5    4    0
 0.193758954456238D+03 0.000000000000000D+00 0.000000000000000D+00 0.193758954456238D+03
 0.193758954456238D+03 0.000000000000000D+00 0.000000000000000D+00 -.193758954456238D+03
 0.152277177725369D+03 0.818100159108943D+02 -.293359335501169D+02 0.314056609640677D+01
 0.125331751249017D+03 -.373490325830786D+02 -.142790058246242D+02 0.874184858856726D+02
 0.109908979938091D+03 -.444609833278157D+02 0.436149393747412D+02 -.905590519820793D+02
 0.000000000000000D+00 -.000000000000000D+00 -.000000000000000D+00 0.000000000000000D+00
 0.415649768843504D+03 0.000000000000000D+00 0.000000000000000D+00 0.415649768843504D+03
 0.216585178724960D+03 0.000000000000000D+00 0.000000000000000D+00 -.216585178724960D+03
 0.160217483263695D+03 0.995159524945092D+02 0.114609767060637D+02 0.314056609640677D+01
 0.122388436719907D+03 -.233132153797491D+02 0.180614451937248D+02 0.874184858856726D+02
 0.120934290485765D+03 -.313814116834794D+02 0.737520692601534D+02 -.905590519820793D+02
 0.228694737099098D+03 -.448213254312806D+02 -.103274491159942D+03 0.199064590118543D+03
 0.193758954456238D+03 0.000000000000000D+00 0.000000000000000D+00 0.193758954456238D+03
 0.193758954456238D+03 0.000000000000000D+00 0.000000000000000D+00 -.193758954456238D+03
 0.152277177725369D+03 0.818100159108943D+02 -.293359335501169D+02 0.314056609640677D+01
 0.125331751249017D+03 -.373490325830786D+02 -.142790058246242D+02 0.874184858856726D+02
 0.000000000000000D+00 -.000000000000000D+00 -.000000000000000D+00 0.000000000000000D+00
 0.109908979938091D+03 -.444609833278157D+02 0.436149393747412D+02 -.905590519820793D+02
 0.415649768843504D+03 0.000000000000000D+00 0.000000000000000D+00 0.415649768843504D+03
 0.216585178724960D+03 0.000000000000000D+00 0.000000000000000D+00 -.216585178724960D+03
 0.160217483263695D+03 0.995159524945092D+02 0.114609767060637D+02 0.314056609640677D+01
 0.122388436719907D+03 -.233132153797491D+02 0.180614451937248D+02 0.874184858856726D+02
 0.228694737099098D+03 -.448213254312806D+02 -.103274491159942D+03 0.199064590118543D+03
 0.120934290485765D+03 -.313814116834794D+02 0.737520692601534D+02 -.905590519820793D+02
0.230521761993D-03 0.000000000000D+00 0.000000000000D+00 0.650351294955D-05 0.000000000000D+00  6 1 -2 25 -24 21 21 2 0.36379084D+00 0.24425591D-02 0.23155400D+05 0.23155400D+05 0.23155400D+05 0.12268827D+01  1  2  2  1  6  1        1 0.346755680365D-01 0.100000000000D+01
-.566295565423D-05 0.121649675940D-04 -.885264263828D-06 0.650351294955D-05 0.000000000000D+00  6 1 -2 25 -24 21 21 4 0.36379084D+00 0.24425591D-02 0.23155400D+05 0.23155400D+05 0.23155400D+05 0.12268827D+01  1  2  3  1  6  1        1 -.128221508275D-02 0.100000000000D+01
0.112676911430D-04 0.000000000000D+00 0.000000000000D+00 0.650351294955D-05 0.000000000000D+00  6 1 -2 25 -24 21 21 4 0.36379084D+00 0.24425591D-02 0.23155400D+05 0.23155400D+05 0.23155400D+05 0.12268827D+01  1  2 15  1  6  1        1 0.255124786657D-02 0.100000000000D+01
-.353667320738D-03 0.000000000000D+00 -.106729195497D-03 0.650351294955D-05 0.000000000000D+00  6 1 -2 25 -24 21 21 4 0.78749480D+00 0.24425591D-02 0.23155400D+05 0.23155400D+05 0.23155400D+05 0.12268827D+01  1  2  5  1  6  1        1 -.396499583372D-03 0.100000000000D+01
-.228812106423D-04 0.000000000000D+00 -.892482062594D-05 0.650351294955D-05 0.000000000000D+00  6 21 -2 25 -24 -1 21 4 0.78749480D+00 0.24425591D-02 0.23155400D+05 0.23155400D+05 0.23155400D+05 0.12268827D+01  3  4  5  4  5  1        1 -.152697568034D-05 0.100000000000D+01
  </mgrwgt>
  </event>
  <event>
  6     66 0.42750230E-03 0.18949920E+02 0.75467711E-02 0.12098621E+00
        1 -1    0    0  502    0 0.00000000E+00 0.00000000E+00 0.48977790E+03 0.48977801E+03 0.32000000E+00 0.0000E+00 0.9000E+01
       -2 -1    0    0    0  501 0.00000000E+00 0.00000000E+00 -.69387666E+02 0.69388403E+02 0.32000000E+00 0.0000E+00 0.9000E+01
       25  1    1    2    0    0 0.32784301E+02 0.63192695E+02 0.16851387E+03 0.22156275E+03 0.12500000E+03 0.0000E+00 0.9000E+01
      -24  1    1    2    0    0 -.28686300E+02 -.81563645E+02 0.40411336E+02 0.12480314E+03 0.80419002E+02 0.0000E+00 0.9000E+01
        2  1    1    2  502    0 -.19596476E+01 0.20284877E+02 0.19689455E+03 0.19794667E+03 0.32000000E+00 0.0000E+00 0.9000E+01
       -2  1    1    2    0  501 -.21383538E+01 -.19139265E+01 0.14570481E+02 0.14853855E+02 0.32000000E+00 0.0000E+00 0.9000E+01
#aMCatNLO 2  0  0  5  2 0.15828236D+02 0.00000000D+00  -5  6  0 0.00000000D+00 0.00000000D+00 0.00000000D+00 0.00000000D+00 0.00000000D+00
  <mgrwgt>
 0.7717366452D-02    1    2    0
 0.184349615632889D+03 0.000000000000000D+00 0.000000000000000D+00 0.184349615632889D+03
 0.184349615632889D+03 -.000000000000000D+00 -.000000000000000D+00 -.184349615632889D+03
 0.143826313748049D+03 0.328104527839736D+02 0.630754605190881D+02 0.244315262886902D+01
 0.143541285196841D+03 -.286602365070814D+02 -.816804855705546D+02 -.815093474511161D+02
 0.813316323208886D+02 -.415021627689218D+01 0.186050250514665D+02 0.790661948222471D+02
 0.000000000000000D+00 0.000000000000000D+00 0.000000000000000D+00 0.000000000000000D+00
 0.184349615632889D+03 0.000000000000000D+00 0.000000000000000D+00 0.184349615632889D+03
 0.184349615632889D+03 -.000000000000000D+00 -.000000000000000D+00 -.184349615632889D+03
 0.143881331896323D+03 0.327842052382577D+02 0.631931257714519D+02 0.294319730720025D+01
 0.143197289015459D+03 -.286863956444874D+02 -.815632166442403D+02 -.810109870485415D+02
 0.757003320431744D+02 -.194766014994887D+01 0.203019959873697D+02 0.729011375104393D+02
 0.592027831082245D+01 -.215014944382136D+01 -.193190511458135D+01 0.516665223090192D+01
0.140005241098D-04 0.000000000000D+00 0.000000000000D+00 0.592686448517D-04 0.309344590301D-06  6 1 -2 25 -24 2 -2 4 0.75350511D-01 0.10675090D-01 0.20337062D+05 0.20337062D+05 0.20337062D+05 0.12330278D+01  1  2  1  7  6  5       21 0.771736645207D-02 0.100000000000D+01
  </mgrwgt>
  </event>
  <event>
  6     66 0.42750230E-03 0.20595446E+02 0.75467711E-02 0.12132116E+00
        1 -1    0    0  502    0 0.00000000E+00 0.00000000E+00 0.51987268E+03 0.51987278E+03 0.32000000E+00 0.0000E+00 0.9000E+01
       -2 -1    0    0    0  503 0.00000000E+00 0.00000000E+00 -.10451180E+03 0.10451229E+03 0.32000000E+00 0.0000E+00 0.9000E+01
       25  1    1    2    0    0 -.20218947E+01 0.66454318E+02 0.43889317E+03 0.46116426E+03 0.12500000E+03 0.0000E+00 0.9000E+01
      -24  1    1    2    0    0 -.10752460E+02 -.81931938E+02 0.12568627E+02 0.11598985E+03 0.80419002E+02 0.0000E+00 0.9000E+01
       21  1    1    2  502  501 -.26836023E+00 -.16116239E+01 0.24773146E+01 0.30608718E+01 0.75000000E+00 0.0000E+00 0.9000E+01
       21  1    1    2  501  503 0.13042715E+02 0.17089243E+02 -.38578223E+02 0.44170086E+02 0.75000000E+00 0.0000E+00 0.9000E+01
#aMCatNLO 2  0  0  2  5 0.29972546D+02 0.00000000D+00  -5  6  0 0.00000000D+00 0.00000000D+00 0.00000000D+00 0.00000000D+00 0.00000000D+00
  <mgrwgt>
 0.5099609082D+00    1    2    0
 0.180365290895609D+03 0.000000000000000D+00 0.000000000000000D+00 0.180365290895609D+03
 0.180365290895609D+03 0.000000000000000D+00 0.000000000000000D+00 -.180365290895609D+03
 0.192564841238945D+03 0.488382734130082D+01 0.755773883366367D+02 0.125381117733468D+03
 0.166446754390887D+03 -.465641702373507D+01 -.738798906584167D+02 -.125528425584372D+03
 0.171898616138571D+01 -.227410317565748D+00 -.169749767821998D+01 0.147307850904219D+00
 0.000000000000000D+00 0.000000000000000D+00 0.000000000000000D+00 -.000000000000000D+00
 0.181661124751587D+03 0.000000000000000D+00 0.000000000000000D+00 0.181661124751587D+03
 0.299086058935304D+03 0.000000000000000D+00 0.000000000000000D+00 -.299086058935304D+03
 0.189149509489690D+03 -.201076238173399D+01 0.665437381782901D+02 0.125381117733468D+03
 0.170410410427118D+03 -.107407886022507D+02 -.818519508507821D+02 -.125528425584372D+03
 0.181067556914936D+01 -.291163669900245D+00 -.178103063732957D+01 0.147307850904219D+00
 0.119376588200933D+03 0.130427146538850D+02 0.170892433098215D+02 -.117424934183717D+03
0.192671058821D-02 0.000000000000D+00 0.000000000000D+00 0.306150263656D-02 0.275557925919D-04  6 1 -2 25 -24 21 21 4 0.79979941D-01 0.16078679D-01 0.19624444D+05 0.19624444D+05 0.19624444D+05 0.12347334D+01  1  2  1  2  6  2       -2 0.509960908232D+00 0.100000000000D+01
  </mgrwgt>
  </event>
  <event>
  6     66 -.42750230E-03 0.16823371E+02 0.75467711E-02 0.12135750E+00
        1 -1    0    0  502    0 0.00000000E+00 0.00000000E+00 0.93811045E+03 0.93811050E+03 0.32000000E+00 0.0000E+00 0.9000E+01
       -2 -1    0    0    0  503 0.00000000E+00 0.00000000E+00 -.22521441E+02 0.22523715E+02 0.32000000E+00 0.0000E+00 0.9000E+01
       25  1    1    2    0    0 -.41015958E+02 0.66133974E+02 0.44736314E+03 0.47097218E+03 0.12500000E+03 0.0000E+00 0.9000E+01
      -24  1    1    2    0    0 0.42448808E+02 -.44394736E+02 0.31811972E+03 0.33382655E+03 0.80419002E+02 0.0000E+00 0.9000E+01
       21  1    1    2  502  501 0.80026015E+01 -.20069954E+02 0.14082370E+03 0.14247359E+03 0.75000000E+00 0.0000E+00 0.9000E+01
       21  1    1    2  501  503 -.94354510E+01 -.16692833E+01 0.92824420E+01 0.13361904E+02 0.75000000E+00 0.0000E+00 0.9000E+01
#aMCatNLO 2  0  0  2  5 0.95819749D+01 0.00000000D+00  -5  6  0 0.00000000D+00 0.00000000D+00 0.00000000D+00 0.00000000D+00 0.00000000D+00
  <mgrwgt>
 -.1339844642D+00    2    2    0
 0.137696616385660D+03 0.000000000000000D+00 0.000000000000000D+00 0.137696616385660D+03
 0.137696616385660D+03 0.000000000000000D+00 0.000000000000000D+00 -.137696616385660D+03
 0.148762154044271D+03 -.460939832353369D+02 0.652402505692534D+02 -.111459809372260D+02
 0.100161476232919D+03 0.389977982872714D+02 -.450021364016390D+02 -.436861703754067D+01
 0.264696024941286D+02 0.709618494806553D+01 -.202381141676143D+02 0.155145979747667D+02
 0.000000000000000D+00 -.000000000000000D+00 -.000000000000000D+00 -.000000000000000D+00
 0.139454085738345D+03 0.000000000000000D+00 0.000000000000000D+00 0.139454085738345D+03
 0.151490546085708D+03 0.000000000000000D+00 0.000000000000000D+00 -.151490546085708D+03
 0.147668363877913D+03 -.410174067165853D+02 0.661383787643230D+02 -.111459809372260D+02
 0.101285440047205D+03 0.424477152935598D+02 -.443917904879012D+02 -.436861703754067D+01
 0.266060750465371D+02 0.800514243398305D+01 -.200773049405286D+02 0.155145979747667D+02
 0.153847528523962D+02 -.943545101095759D+01 -.166928333589322D+01 -.120364603473630D+02
-.389575909430D-03 0.000000000000D+00 0.000000000000D+00 0.486670633189D-04 0.000000000000D+00  6 1 -2 25 -24 21 21 4 0.14249676D+00 0.35957446D-02 0.19548882D+05 0.19548882D+05 0.19548882D+05 0.12349183D+01  1  2 13  2  6  2       -2 -.456416463518D+00 0.100000000000D+01
0.265932425344D-03 0.000000000000D+00 0.000000000000D+00 0.489375994202D-04 0.197679890732D-05  6 1 -2 25 -24 21 21 4 0.14431550D+00 0.34647914D-02 0.19548882D+05 0.19548882D+05 0.19548882D+05 0.12349183D+01  1  2  1  2  6  2       -2 0.322431999282D+00 0.100000000000D+01
  </mgrwgt>
  </event>
  <event>
  5     66 -.42750230E-03 0.25553224E+02 0.75467711E-02 0.11938145E+00
        1 -1    0    0  502    0 0.00000000E+00 0.00000000E+00 0.42722032E+02 0.42723230E+02 0.32000000E+00 0.0000E+00 0.9000E+01
       -2 -1    0    0    0  501 -.00000000E+00 -.00000000E+00 -.60558270E+03 0.60558278E+03 0.32000000E+00 0.0000E+00 0.9000E+01
       25  1    1    2    0    0 -.35305393E+02 -.10384394E+03 -.28390194E+03 0.32902181E+03 0.12500000E+03 0.0000E+00 0.9000E+01
      -24  1    1    2    0    0 0.39543381E+02 0.78650420E+02 -.26398274E+03 0.28966130E+03 0.80419002E+02 0.0000E+00 0.9000E+01
       21  1    1    2  502  501 -.42379877E+01 0.25193520E+02 -.14975983E+02 0.29622906E+02 0.75000000E+00 0.0000E+00 0.9000E+01
#aMCatNLO 1  0  0  5  1 0.52296651D+00 0.00000000D+00  -5  6  0 0.00000000D+00 0.00000000D+00 0.00000000D+00 0.00000000D+00 0.00000000D+00
  <mgrwgt>
 -.3188097298D-01   25    2    0
 0.160848186889939D+03 0.000000000000000D+00 0.000000000000000D+00 0.160848186889939D+03
 0.160848186889939D+03 -.000000000000000D+00 -.000000000000000D+00 -.160848186889939D+03
 0.166337519197968D+03 -.353048435826245D+02 -.103847206015203D+03 0.353498449455831D+01
 0.121864430365184D+03 0.395437834155895D+02 0.786480262037925D+02 -.251892953710251D+02
 0.334944242167253D+02 -.423893983296501D+01 0.251991798114104D+02 0.216543108764668D+02
 0.000000000000000D+00 0.000000000000000D+00 0.000000000000000D+00 0.000000000000000D+00
 0.160848186889939D+03 0.000000000000000D+00 0.000000000000000D+00 0.160848186889939D+03
 0.160848186889939D+03 -.000000000000000D+00 -.000000000000000D+00 -.160848186889939D+03
 0.166330316989252D+03 -.353069679847596D+02 -.103834577104790D+03 0.354583684587117D+01
 0.121868253831419D+03 0.395422269494139D+02 0.786572789114443D+02 -.251813442785911D+02
 0.285422699064163D+02 -.315195927346865D+01 0.216723635952076D+02 0.183039607830172D+02
 0.495553305279008D+01 -.108329969118567D+01 0.350493459813822D+01 0.333154664970275D+01
0.640053310332D-04 0.000000000000D+00 0.000000000000D+00 0.304752978767D-04 0.000000000000D+00  6 1 -2 25 -24 21 21 2 0.65727190D-02 0.93166667D-01 0.24193607D+05 0.24193607D+05 0.24193607D+05 0.12248272D+01  1  2  2  3  6  5       21 0.948687759187D-02 0.100000000000D+01
0.114089603715D-04 0.337765411443D-05 -.245797324158D-06 0.304752978767D-04 0.000000000000D+00  6 1 -2 25 -24 21 21 4 0.65727190D-02 0.93166667D-01 0.24193607D+05 0.24193607D+05 0.24193607D+05 0.12248272D+01  1  2  3  3  6  5       21 0.253689731117D-02 0.100000000000D+01
0.237040625839D-05 0.000000000000D+00 0.000000000000D+00 0.304752978767D-04 0.000000000000D+00  6 1 -2 25 -24 21 21 4 0.65727190D-02 0.93166667D-01 0.24193607D+05 0.24193607D+05 0.24193607D+05 0.12248272D+01  1  2 15  3  6  5       21 0.527083719066D-03 0.100000000000D+01
0.478984742393D-13 0.000000000000D+00 0.000000000000D+00 0.304750911175D-04 0.000000000000D+00  6 1 -2 25 -24 21 21 4 0.65727190D-02 0.93166667D-01 0.24195758D+05 0.24195758D+05 0.24195758D+05 0.12248231D+01  1  2 12  3  6  5       21 0.106505854186D-10 0.100000000000D+01
0.479759820885D-13 0.000000000000D+00 0.000000000000D+00 0.304750911175D-04 0.000000000000D+00  6 1 -2 25 -24 21 21 4 0.65727190D-02 0.93166667D-01 0.24195758D+05 0.24195758D+05 0.24195758D+05 0.12248231D+01  1  2 12  3  6  5       21 0.106678198709D-10 0.100000000000D+01
-.227686941082D-01 0.000000000000D+00 0.000000000000D+00 0.304752978767D-04 0.000000000000D+00  6 1 -2 25 -24 21 21 4 0.65727190D-02 0.93166667D-01 0.24193607D+05 0.24193607D+05 0.24193607D+05 0.12248272D+01  1  2  4  3  6  5       21 -.506284858401D+01 0.100000000000D+01
-.167514351542D-01 0.000000000000D+00 0.000000000000D+00 0.304752978767D-04 0.000000000000D+00  6 1 -2 25 -24 21 21 4 0.65727190D-02 0.93166667D-01 0.24193607D+05 0.24193607D+05 0.24193607D+05 0.12248272D+01  1  2  5  3  6  5       21 -.372485041732D+01 0.100000000000D+01
0.220039276390D-01 0.000000000000D+00 -.000000000000D+00 0.304752978767D-04 0.000000000000D+00  6 1 -2 25 -24 21 21 4 0.65727190D-02 0.93166667D-01 0.24193607D+05 0.24193607D+05 0.24193607D+05 0.12248272D+01  1  2  6  3  6  5       21 0.489279505275D+01 0.100000000000D+01
0.173060792164D-01 0.000000000000D+00 0.000000000000D+00 0.304752978767D-04 0.778212777416D-03  6 1 -2 25 -24 21 21 4 0.65727190D-02 0.93166667D-01 0.24195758D+05 0.24195758D+05 0.24195758D+05 0.12248231D+01  1  2 11  3  6  5       21 0.384813666579D+01 0.100000000000D+01
0.382037960429D-14 0.000000000000D+00 0.000000000000D+00 0.304750911175D-04 0.000000000000D+00  6 1 -2 25 -24 1 -1 4 0.65727190D-02 0.93166667D-01 0.24195758D+05 0.24195758D+05 0.24195758D+05 0.12248231D+01  1  2 12  6  6  5       21 0.849490092392D-12 0.100000000000D+01
0.382237906545D-14 0.000000000000D+00 0.000000000000D+00 0.304750911175D-04 0.000000000000D+00  6 1 -2 25 -24 1 -1 4 0.65727190D-02 0.93166667D-01 0.24195758D+05 0.24195758D+05 0.24195758D+05 0.12248231D+01  1  2 12  6  6  5       21 0.849934687594D-12 0.100000000000D+01
-.222978820145D-03 0.000000000000D+00 0.000000000000D+00 0.304752978767D-04 0.000000000000D+00  6 1 -2 25 -24 1 -1 4 0.65727190D-02 0.93166667D-01 0.24193607D+05 0.24193607D+05 0.24193607D+05 0.12248272D+01  1  2  5  6  6  5       21 -.495815877043D-01 0.100000000000D+01
0.225539323442D-03 0.000000000000D+00 0.000000000000D+00 0.304752978767D-04 0.197480766500D-04  6 1 -2 25 -24 1 -1 4 0.65727190D-02 0.93166667D-01 0.24195758D+05 0.24195758D+05 0.24195758D+05 0.12248231D+01  1  2 11  6  6  5       21 0.501503621508D-01 0.100000000000D+01
0.382037960429D-14 0.000000000000D+00 0.000000000000D+00 0.304750911175D-04 0.000000000000D+00  6 1 -2 25 -24 2 -2 4 0.65727190D-02 0.93166667D-01 0.24195758D+05 0.24195758D+05 0.24195758D+05 0.12248231D+01  1  2 12  7  6  5       21 0.849490092392D-12 0.100000000000D+01
0.382237906545D-14 0.000000000000D+00 0.000000000000D+00 0.304750911175D-04 0.000000000000D+00  6 1 -2 25 -24 2 -2 4 0.65727190D-02 0.93166667D-01 0.24195758D+05 0.24195758D+05 0.24195758D+05 0.12248231D+01  1  2 12  7  6  5       21 0.849934687594D-12 0.100000000000D+01
-.222978820145D-03 0.000000000000D+00 0.000000000000D+00 0.304752978767D-04 0.000000000000D+00  6 1 -2 25 -24 2 -2 4 0.65727190D-02 0.93166667D-01 0.24193607D+05 0.24193607D+05 0.24193607D+05 0.12248272D+01  1  2  5  7  6  5       21 -.495815877043D-01 0.100000000000D+01
0.225725727007D-03 0.000000000000D+00 0.000000000000D+00 0.304752978767D-04 0.197645231017D-04  6 1 -2 25 -24 2 -2 4 0.65727190D-02 0.93166667D-01 0.24195758D+05 0.24195758D+05 0.24195758D+05 0.12248231D+01  1  2 11  7  6  5       21 0.501918103831D-01 0.100000000000D+01
0.382037960429D-14 0.000000000000D+00 0.000000000000D+00 0.304750911175D-04 0.000000000000D+00  6 1 -2 25 -24 3 -3 4 0.65727190D-02 0.93166667D-01 0.24195758D+05 0.24195758D+05 0.24195758D+05 0.12248231D+01  1  2 12  8  6  5       21 0.849490092392D-12 0.100000000000D+01
0.382037960429D-14 0.000000000000D+00 0.000000000000D+00 0.304750911175D-04 0.000000000000D+00  6 1 -2 25 -24 4 -4 4 0.65727190D-02 0.93166667D-01 0.24195758D+05 0.24195758D+05 0.24195758D+05 0.12248231D+01  1  2 12  8  6  5       21 0.849490092392D-12 0.100000000000D+01
0.382237906545D-14 0.000000000000D+00 0.000000000000D+00 0.304750911175D-04 0.000000000000D+00  6 1 -2 25 -24 3 -3 4 0.65727190D-02 0.93166667D-01 0.24195758D+05 0.24195758D+05 0.24195758D+05 0.12248231D+01  1  2 12  8  6  5       21 0.849934687594D-12 0.100000000000D+01
0.382237906545D-14 0.000000000000D+00 0.000000000000D+00 0.304750911175D-04 0.000000000000D+00  6 1 -2 25 -24 4 -4 4 0.65727190D-02 0.93166667D-01 0.24195758D+05 0.24195758D+05 0.24195758D+05 0.12248231D+01  1  2 12  8  6  5       21 0.849934687594D-12 0.100000000000D+01
-.222978820145D-03 0.000000000000D+00 0.000000000000D+00 0.304752978767D-04 0.000000000000D+00  6 1 -2 25 -24 3 -3 4 0.65727190D-02 0.93166667D-01 0.24193607D+05 0.24193607D+05 0.24193607D+05 0.12248272D+01  1  2  5  8  6  5       21 -.495815877043D-01 0.100000000000D+01
-.222978820145D-03 0.000000000000D+00 0.000000000000D+00 0.304752978767D-04 0.000000000000D+00  6 1 -2 25 -24 4 -4 4 0.65727190D-02 0.93166667D-01 0.24193607D+05 0.24193607D+05 0.24193607D+05 0.12248272D+01  1  2  5  8  6  5       21 -.495815877043D-01 0.100000000000D+01
0.225581834133D-03 0.000000000000D+00 0.000000000000D+00 0.304752978767D-04 0.197514639435D-04  6 1 -2 25 -24 3 -3 4 0.65727190D-02 0.93166667D-01 0.24195758D+05 0.24195758D+05 0.24195758D+05 0.12248231D+01  1  2 11  8  6  5       21 0.501598147221D-01 0.100000000000D+01
0.225581834133D-03 0.000000000000D+00 0.000000000000D+00 0.304752978767D-04 0.197514639435D-04  6 1 -2 25 -24 4 -4 4 0.65727190D-02 0.93166667D-01 0.24195758D+05 0.24195758D+05 0.24195758D+05 0.12248231D+01  1  2 11  8  6  5       21 0.501598147221D-01 0.100000000000D+01
  </mgrwgt>
  </event>
  <event>
  6     66 -.42750230E-03 0.88761211E+01 0.75467711E-02 0.10978839E+00
        3 -1    0    0  502    0 0.00000000E+00 0.00000000E+00 0.15902090E+04 0.15902091E+04 0.50000000E+00 0.0000E+00 0.9000E+01
       -4 -1    0    0    0  501 0.00000000E+00 0.00000000E+00 -.52993945E+02 0.53016608E+02 0.15500000E+01 0.0000E+00 0.9000E+01
       25  1    1    2    0    0 0.23534437E+03 -.45263458E+02 0.58134278E+03 0.64110856E+03 0.12500000E+03 0.0000E+00 0.9000E+01
      -24  1    1    2    0    0 -.23972732E+03 0.63908734E+02 0.73942064E+03 0.78406863E+03 0.80419002E+02 0.0000E+00 0.9000E+01
       21  1    1    2  502  503 0.48267418E+00 -.72907288E+01 0.16675744E+03 0.16691913E+03 0.75000000E+00 0.0000E+00 0.9000E+01
       21  1    1    2  503  501 0.39002751E+01 -.11354548E+02 0.49694219E+02 0.51129403E+02 0.75000000E+00 0.0000E+00 0.9000E+01
#aMCatNLO 2  0  0  5  1 0.82357654D+01 0.00000000D+00  -5  6  0 0.00000000D+00 0.00000000D+00 0.00000000D+00 0.00000000D+00 0.00000000D+00
  <mgrwgt>
 -.1420187250D-01    3    2    0
 0.290327631919440D+03 0.000000000000000D+00 0.000000000000000D+00 0.290327631919440D+03
 0.290327631919440D+03 -.000000000000000D+00 -.000000000000000D+00 -.290327631919440D+03
 0.275270308778448D+03 0.235142713527309D+03 -.444056030443734D+02 -.537102372761608D+02
 0.261629733559943D+03 -.239918879046198D+03 0.647236402835773D+02 0.152539632205610D+02
 0.437552215004894D+02 0.477616551888888D+01 -.203180372392039D+02 0.384562740555997D+02
 0.000000000000000D+00 0.000000000000000D+00 0.000000000000000D+00 0.000000000000000D+00
 0.290327631919440D+03 0.000000000000000D+00 0.000000000000000D+00 0.290327631919440D+03
 0.290327631919440D+03 -.000000000000000D+00 -.000000000000000D+00 -.290327631919440D+03
 0.275270408928980D+03 0.235346415266721D+03 -.452721600157933D+02 -.520700910363745D+02
 0.261345337442795D+03 -.239725376679878D+03 0.639004719345704D+02 0.168119871207350D+02
 0.304878457946543D+02 0.376006266286276D+00 -.694246132138858D+01 0.296845008596634D+02
 0.135516716724519D+02 0.400295514687116D+01 -.116858505973885D+02 0.557360305597615D+01
-.716732068529D-03 0.000000000000D+00 0.000000000000D+00 0.343366147907D-04 0.000000000000D+00  6 3 -4 25 -24 21 21 4 0.24464929D+00 0.81546639D-02 0.75737757D+05 0.75737757D+05 0.75737757D+05 0.11748239D+01  1  2 13  3  6  5       21 -.277080320086D-02 0.100000000000D+01
-.857212081337D-03 0.000000000000D+00 0.000000000000D+00 0.343366147907D-04 0.000000000000D+00  6 3 -4 25 -24 21 21 4 0.24464929D+00 0.81546639D-02 0.75737757D+05 0.75737757D+05 0.75737757D+05 0.11748239D+01  1  2 13  3  6  5       21 -.331388266700D-02 0.100000000000D+01
-.210113661701D-02 0.000000000000D+00 0.000000000000D+00 0.343224464611D-04 0.000000000000D+00  6 3 -4 25 -24 21 21 4 0.24464929D+00 0.81546639D-02 0.76185957D+05 0.76185957D+05 0.76185957D+05 0.11745814D+01  1  2  8  3  6  5       21 -.811718662758D-02 0.100000000000D+01
  </mgrwgt>
  </event>
  <event>
  5     66 0.42750230E-03 0.65509963E+02 0.75467711E-02 0.11094892E+00
        1 -1    0    0  502    0 0.00000000E+00 0.00000000E+00 0.19161651E+04 0.19161651E+04 0.32000000E+00 0.0000E+00 0.9000E+01
       -2 -1    0    0    0  501 0.00000000E+00 0.00000000E+00 -.31434198E+02 0.31435827E+02 0.32000000E+00 0.0000E+00 0.9000E+01
       25  1    1    2    0    0 -.56705184E+02 0.95847051E+02 0.33765820E+03 0.37688221E+03 0.12500000E+03 0.0000E+00 0.9000E+01
      -24  1    1    2    0    0 0.12083233E+03 -.10923012E+03 0.78090693E+03 0.80175714E+03 0.80419002E+02 0.0000E+00 0.9000E+01
       21  1    1    2  502  501 -.64127151E+02 0.13383066E+02 0.76616576E+03 0.76896159E+03 0.75000000E+00 0.0000E+00 0.9000E+01
#aMCatNLO 1  0  0  1  2 0.31712291D+00 0.00000000D+00  -5  6  0 0.00000000D+00 0.00000000D+00 0.00000000D+00 0.00000000D+00 0.00000000D+00
  <mgrwgt>
 0.4669586346D-01    7    4    0
 0.245427637431733D+03 0.000000000000000D+00 0.000000000000000D+00 0.245427637431733D+03
 0.245427637431733D+03 0.000000000000000D+00 0.000000000000000D+00 -.245427637431733D+03
 0.198880206839808D+03 -.567045713861650D+02 0.958469229087762D+02 -.107360586927769D+03
 0.182749864224785D+03 0.120832897334167D+03 -.109230233784893D+03 0.199615597821237D+02
 0.109225203798873D+03 -.641283259480016D+02 0.133833108761171D+02 0.873990271456457D+02
 0.000000000000000D+00 0.000000000000000D+00 -.000000000000000D+00 0.000000000000000D+00
 0.336235933410720D+03 0.000000000000000D+00 0.000000000000000D+00 0.336235933410720D+03
 0.268186928252601D+03 0.000000000000000D+00 0.000000000000000D+00 -.268186928252601D+03
 0.220282031235893D+03 -.759338713739075D+02 0.124927678430789D+03 -.107360586927769D+03
 0.158870197900999D+03 0.105160887645017D+03 -.855292211323635D+02 0.199615597821237D+02
 0.118541742765418D+03 -.745772608589413D+02 0.291853900887854D+02 0.873990271456457D+02
 0.106728889761011D+03 0.453502445878315D+02 -.685838473872113D+02 0.680490051581190D+02
 0.245427637431733D+03 0.000000000000000D+00 0.000000000000000D+00 0.245427637431733D+03
 0.245427637431733D+03 0.000000000000000D+00 0.000000000000000D+00 -.245427637431733D+03
 0.198880206839808D+03 -.567045713861650D+02 0.958469229087762D+02 -.107360586927769D+03
 0.182749864224785D+03 0.120832897334167D+03 -.109230233784893D+03 0.199615597821237D+02
 0.000000000000000D+00 0.000000000000000D+00 -.000000000000000D+00 0.000000000000000D+00
 0.109225203798873D+03 -.641283259480016D+02 0.133833108761171D+02 0.873990271456457D+02
 0.336235933410720D+03 0.000000000000000D+00 0.000000000000000D+00 0.336235933410720D+03
 0.268186928252601D+03 0.000000000000000D+00 0.000000000000000D+00 -.268186928252601D+03
 0.220282031235893D+03 -.759338713739075D+02 0.124927678430789D+03 -.107360586927769D+03
 0.158870197900999D+03 0.105160887645017D+03 -.855292211323635D+02 0.199615597821237D+02
 0.106728889761011D+03 0.453502445878315D+02 -.685838473872113D+02 0.680490051581190D+02
 0.118541742765418D+03 -.745772608589413D+02 0.291853900887854D+02 0.873990271456457D+02
0.153059980377D-03 0.000000000000D+00 0.000000000000D+00 0.413607516824D-05 0.000000000000D+00  6 1 -2 25 -24 21 21 2 0.29479476D+00 0.48361578D-02 0.42968968D+05 0.42968968D+05 0.42968968D+05 0.11988553D+01  1  2  2  1  6  1        1 0.153566174630D-01 0.100000000000D+01
0.195355637624D-05 0.807719707293D-05 -.587790626265D-06 0.413607516824D-05 0.000000000000D+00  6 1 -2 25 -24 21 21 4 0.29479476D+00 0.48361578D-02 0.42968968D+05 0.42968968D+05 0.42968968D+05 0.11988553D+01  1  2  3  1  6  1        1 0.281704264765D-03 0.100000000000D+01
0.339711542909D-05 0.000000000000D+00 0.000000000000D+00 0.413607516824D-05 0.000000000000D+00  6 1 -2 25 -24 21 21 4 0.29479476D+00 0.48361578D-02 0.42968968D+05 0.42968968D+05 0.42968968D+05 0.11988553D+01  1  2 15  1  6  1        1 0.489866540794D-03 0.100000000000D+01
-.800988558639D-04 0.000000000000D+00 0.000000000000D+00 0.413607516824D-05 0.000000000000D+00  6 1 -2 25 -24 21 21 4 0.29479476D+00 0.48361578D-02 0.42968968D+05 0.42968968D+05 0.42968968D+05 0.11988553D+01  1  2  4  1  6  1        1 -.115503138656D-01 0.100000000000D+01
-.392338092628D-03 0.000000000000D+00 -.117341819741D-03 0.413607516824D-05 0.000000000000D+00  6 1 -2 25 -24 21 21 4 0.41553339D+00 0.48361578D-02 0.42968968D+05 0.42968968D+05 0.42968968D+05 0.11988553D+01  1  2  5  1  6  1        1 -.173547169673D-01 0.100000000000D+01
0.414543198680D-03 0.000000000000D+00 0.110751787283D-03 0.413607516824D-05 0.000000000000D+00  6 1 -2 25 -24 21 21 4 0.29479476D+00 0.48361578D-02 0.42968968D+05 0.42968968D+05 0.42968968D+05 0.11988553D+01  1  2  6  1  6  1        1 0.597774338216D-01 0.100000000000D+01
-.134876253021D-04 0.000000000000D+00 -.499867233389D-05 0.413607516824D-05 0.000000000000D+00  6 21 -2 25 -24 -1 21 4 0.41553339D+00 0.48361578D-02 0.42968968D+05 0.42968968D+05 0.42968968D+05 0.11988553D+01  3  4  5  4  5  1        1 -.304727798839D-03 0.100000000000D+01
  </mgrwgt>
  </event>
  <event>
  6     66 0.42750230E-03 0.11288654E+02 0.75467711E-02 0.12326545E+00
        1 -1    0    0  502    0 0.00000000E+00 0.00000000E+00 0.17149026E+03 0.17149055E+03 0.32000000E+00 0.0000E+00 0.9000E+01
       -2 -1    0    0    0  503 0.00000000E+00 0.00000000E+00 -.14295003E+03 0.14295039E+03 0.32000000E+00 0.0000E+00 0.9000E+01
       25  1    1    2    0    0 0.21660480E+01 -.49089412E+01 -.53606227E+02 0.13611545E+03 0.12500000E+03 0.0000E+00 0.9000E+01
      -24  1    1    2    0    0 -.35181721E+00 -.35236580E+02 0.93819196E+02 0.12849513E+03 0.80419002E+02 0.0000E+00 0.9000E+01
       21  1    1    2  502  501 -.93262212E+00 0.20892977E+02 0.78837667E+01 0.22362973E+02 0.75000000E+00 0.0000E+00 0.9000E+01
       21  1    1    2  501  503 -.88160866E+00 0.19252544E+02 -.19556508E+02 0.27467385E+02 0.75000000E+00 0.0000E+00 0.9000E+01
#aMCatNLO 2  0  0  2  5 0.19272719D+02 0.00000000D+00  -5  6  0 0.00000000D+00 0.00000000D+00 0.00000000D+00 0.00000000D+00 0.00000000D+00
  <mgrwgt>
 0.1206826000D+00    1    2    0
 0.141128565588172D+03 0.000000000000000D+00 0.000000000000000D+00 0.141128565588172D+03
 0.141128565588172D+03 0.000000000000000D+00 0.000000000000000D+00 -.141128565588172D+03
 0.147183229864514D+03 0.170715220158068D+01 0.511226336057443D+01 -.775167952642726D+02
 0.112253637046893D+03 -.705140033340020D+00 -.275208398135872D+02 0.733196374061774D+02
 0.228202642649377D+02 -.100201216824066D+01 0.224085764530128D+02 0.419715785809517D+01
 0.000000000000000D+00 -.000000000000000D+00 0.000000000000000D+00 -.000000000000000D+00
 0.144792489657649D+03 0.000000000000000D+00 0.000000000000000D+00 0.144792489657649D+03
 0.169298423482536D+03 0.000000000000000D+00 0.000000000000000D+00 -.169298423482536D+03
 0.147182562408841D+03 0.216633219191882D+01 -.491529592429942D+01 -.775167952642726D+02
 0.114389983470761D+03 -.351599580572823D+00 -.352414459469547D+02 0.733196374061774D+02
 0.213417976900654D+02 -.933123949180955D+00 0.209041975271326D+02 0.419715785809517D+01
 0.311765695705174D+02 -.881608662165038D+00 0.192525443441215D+02 -.245059338248870D+02
0.187053167075D-03 0.000000000000D+00 0.000000000000D+00 0.310710299356D-04 0.672957829121D-06  6 1 -2 25 -24 21 21 4 0.26382360D-01 0.21991690D-01 0.16016890D+05 0.16016890D+05 0.16016890D+05 0.12445880D+01  1  2  1  2  6  2       -2 0.120682599977D+00 0.100000000000D+01
  </mgrwgt>
  </event>
  <event>
  5     66 0.42750230E-03 0.27772729E+02 0.75467711E-02 0.12285080E+00
        1 -1    0    0  502    0 0.00000000E+00 0.00000000E+00 0.40317941E+03 0.40317953E+03 0.32000000E+00 0.0000E+00 0.9000E+01
       -2 -1    0    0    0  501 0.00000000E+00 0.00000000E+00 -.11629672E+03 0.11629716E+03 0.32000000E+00 0.0000E+00 0.9000E+01
       25  1    1    2    0    0 -.10672527E+02 -.62383790E+02 0.32126772E+03 0.35049049E+03 0.12500000E+03 0.0000E+00 0.9000E+01
      -24  1    1    2    0    0 -.73061779E+01 0.40944647E+02 0.32727184E+02 0.96271122E+02 0.80419002E+02 0.0000E+00 0.9000E+01
       21  1    1    2  502  501 0.17978705E+02 0.21439143E+02 -.67112210E+02 0.72715073E+02 0.75000000E+00 0.0000E+00 0.9000E+01
#aMCatNLO 1  0  0  5  2 0.37692845D+01 0.00000000D+00  -5  6  0 0.00000000D+00 0.00000000D+00 0.00000000D+00 0.00000000D+00 0.00000000D+00
  <mgrwgt>
 0.2118371334D+00   25    2    0
 0.216537728348224D+03 0.000000000000000D+00 0.000000000000000D+00 0.216537728348224D+03
 0.216537728348224D+03 -.000000000000000D+00 -.000000000000000D+00 -.216537728348224D+03
 0.207598553058819D+03 -.106726663801187D+02 -.623839569889552D+02 0.153187778020487D+03
 0.937981522932131D+02 -.730624107957843D+01 0.409445717332816D+02 -.245160826013356D+02
 0.131678751344416D+03 0.179789074596971D+02 0.214393852556736D+02 -.128671695419152D+03
 0.000000000000000D+00 0.000000000000000D+00 0.000000000000000D+00 0.000000000000000D+00
 0.216537728348224D+03 0.000000000000000D+00 0.000000000000000D+00 0.216537728348224D+03
 0.216537728348224D+03 -.000000000000000D+00 -.000000000000000D+00 -.216537728348224D+03
 0.207487711358271D+03 -.106531855900717D+02 -.623607266472985D+02 0.153048357630841D+03
 0.938185406696215D+02 -.729743587035270D+01 0.409550717190717D+02 -.245790998454109D+02
 0.100333529695051D+03 0.116286700489018D+02 0.132705534992801D+02 -.987698517959007D+02
 0.314356749735038D+02 0.632195141152259D+01 0.813510142894684D+01 -.296994059895290D+02
0.265038526008D-04 0.000000000000D+00 0.000000000000D+00 0.287605826243D-04 0.000000000000D+00  6 1 -2 25 -24 21 21 2 0.62027644D-01 0.17891846D-01 0.16722007D+05 0.16722007D+05 0.16722007D+05 0.12424776D+01  1  2  2  3  6  5       21 0.540220624084D-02 0.100000000000D+01
0.324867992137D-05 0.139864672739D-05 -.101781772612D-06 0.287605826243D-04 0.000000000000D+00  6 1 -2 25 -24 21 21 4 0.62027644D-01 0.17891846D-01 0.16722007D+05 0.16722007D+05 0.16722007D+05 0.12424776D+01  1  2  3  3  6  5       21 0.102222439976D-02 0.100000000000D+01
0.143296329421D-05 0.000000000000D+00 0.000000000000D+00 0.287605826243D-04 0.000000000000D+00  6 1 -2 25 -24 21 21 4 0.62027644D-01 0.17891846D-01 0.16722007D+05 0.16722007D+05 0.16722007D+05 0.12424776D+01  1  2 15  3  6  5       21 0.450893925764D-03 0.100000000000D+01
0.909922124906D-04 0.000000000000D+00 0.000000000000D+00 0.287612913894D-04 0.000000000000D+00  6 1 -2 25 -24 21 21 4 0.62027644D-01 0.17891846D-01 0.16716768D+05 0.16716768D+05 0.16716768D+05 0.12424930D+01  1  2 12  3  6  5       21 0.286327572278D-01 0.100000000000D+01
0.803937520360D-04 0.000000000000D+00 0.000000000000D+00 0.287612913894D-04 0.000000000000D+00  6 1 -2 25 -24 21 21 4 0.62027644D-01 0.17891846D-01 0.16716768D+05 0.16716768D+05 0.16716768D+05 0.12424930D+01  1  2 12  3  6  5       21 0.252977119873D-01 0.100000000000D+01
-.199435752055D-02 0.000000000000D+00 0.000000000000D+00 0.287605826243D-04 0.000000000000D+00  6 1 -2 25 -24 21 21 4 0.62027644D-01 0.17891846D-01 0.16722007D+05 0.16722007D+05 0.16722007D+05 0.12424776D+01  1  2  4  3  6  5       21 -.627541330230D+00 0.100000000000D+01
-.257317170089D-02 0.000000000000D+00 0.000000000000D+00 0.287605826243D-04 0.000000000000D+00  6 1 -2 25 -24 21 21 4 0.62027644D-01 0.17891846D-01 0.16722007D+05 0.16722007D+05 0.16722007D+05 0.12424776D+01  1  2  5  3  6  5       21 -.809670069405D+00 0.100000000000D+01
0.309302951647D-02 0.000000000000D+00 -.000000000000D+00 0.287605826243D-04 0.000000000000D+00  6 1 -2 25 -24 21 21 4 0.62027644D-01 0.17891846D-01 0.16722007D+05 0.16722007D+05 0.16722007D+05 0.12424776D+01  1  2  6  3  6  5       21 0.973247693655D+00 0.100000000000D+01
0.198433379306D-02 0.000000000000D+00 0.000000000000D+00 0.287605826243D-04 0.115157293186D-04  6 1 -2 25 -24 21 21 4 0.62027644D-01 0.17891846D-01 0.16716768D+05 0.16716768D+05 0.16716768D+05 0.12424930D+01  1  2 11  3  6  5       21 0.624415498871D+00 0.100000000000D+01
0.854444734619D-06 0.000000000000D+00 0.000000000000D+00 0.287612913894D-04 0.000000000000D+00  6 1 -2 25 -24 1 -1 4 0.62027644D-01 0.17891846D-01 0.16716768D+05 0.16716768D+05 0.16716768D+05 0.12424930D+01  1  2 12  6  6  5       21 0.268870356938D-03 0.100000000000D+01
0.746314548393D-06 0.000000000000D+00 0.000000000000D+00 0.287612913894D-04 0.000000000000D+00  6 1 -2 25 -24 1 -1 4 0.62027644D-01 0.17891846D-01 0.16716768D+05 0.16716768D+05 0.16716768D+05 0.12424930D+01  1  2 12  6  6  5       21 0.234844748741D-03 0.100000000000D+01
-.239495055955D-04 0.000000000000D+00 0.000000000000D+00 0.287605826243D-04 0.000000000000D+00  6 1 -2 25 -24 1 -1 4 0.62027644D-01 0.17891846D-01 0.16722007D+05 0.16722007D+05 0.16722007D+05 0.12424776D+01  1  2  5  6  6  5       21 -.753591291675D-02 0.100000000000D+01
0.146684058078D-04 0.000000000000D+00 0.000000000000D+00 0.287605826243D-04 0.145211891191D-06  6 1 -2 25 -24 1 -1 4 0.62027644D-01 0.17891846D-01 0.16716768D+05 0.16716768D+05 0.16716768D+05 0.12424930D+01  1  2 11  6  6  5       21 0.461574557777D-02 0.100000000000D+01
0.854444734619D-06 0.000000000000D+00 0.000000000000D+00 0.287612913894D-04 0.000000000000D+00  6 1 -2 25 -24 2 -2 4 0.62027644D-01 0.17891846D-01 0.16716768D+05 0.16716768D+05 0.16716768D+05 0.12424930D+01  1  2 12  7  6  5       21 0.268870356938D-03 0.100000000000D+01
0.746314548393D-06 0.000000000000D+00 0.000000000000D+00 0.287612913894D-04 0.000000000000D+00  6 1 -2 25 -24 2 -2 4 0.62027644D-01 0.17891846D-01 0.16716768D+05 0.16716768D+05 0.16716768D+05 0.12424930D+01  1  2 12  7  6  5       21 0.234844748741D-03 0.100000000000D+01
-.239495055955D-04 0.000000000000D+00 0.000000000000D+00 0.287605826243D-04 0.000000000000D+00  6 1 -2 25 -24 2 -2 4 0.62027644D-01 0.17891846D-01 0.16722007D+05 0.16722007D+05 0.16722007D+05 0.12424776D+01  1  2  5  7  6  5       21 -.753591291675D-02 0.100000000000D+01
0.154500960258D-04 0.000000000000D+00 0.000000000000D+00 0.287605826243D-04 0.158090079025D-06  6 1 -2 25 -24 2 -2 4 0.62027644D-01 0.17891846D-01 0.16716768D+05 0.16716768D+05 0.16716768D+05 0.12424930D+01  1  2 11  7  6  5       21 0.486172208088D-02 0.100000000000D+01
0.854444734619D-06 0.000000000000D+00 0.000000000000D+00 0.287612913894D-04 0.000000000000D+00  6 1 -2 25 -24 3 -3 4 0.62027644D-01 0.17891846D-01 0.16716768D+05 0.16716768D+05 0.16716768D+05 0.12424930D+01  1  2 12  8  6  5       21 0.268870356938D-03 0.100000000000D+01
0.854444734619D-06 0.000000000000D+00 0.000000000000D+00 0.287612913894D-04 0.000000000000D+00  6 1 -2 25 -24 4 -4 4 0.62027644D-01 0.17891846D-01 0.16716768D+05 0.16716768D+05 0.16716768D+05 0.12424930D+01  1  2 12  8  6  5       21 0.268870356938D-03 0.100000000000D+01
0.746314548393D-06 0.000000000000D+00 0.000000000000D+00 0.287612913894D-04 0.000000000000D+00  6 1 -2 25 -24 3 -3 4 0.62027644D-01 0.17891846D-01 0.16716768D+05 0.16716768D+05 0.16716768D+05 0.12424930D+01  1  2 12  8  6  5       21 0.234844748741D-03 0.100000000000D+01
0.746314548393D-06 0.000000000000D+00 0.000000000000D+00 0.287612913894D-04 0.000000000000D+00  6 1 -2 25 -24 4 -4 4 0.62027644D-01 0.17891846D-01 0.16716768D+05 0.16716768D+05 0.16716768D+05 0.12424930D+01  1  2 12  8  6  5       21 0.234844748741D-03 0.100000000000D+01
-.239495055955D-04 0.000000000000D+00 0.000000000000D+00 0.287605826243D-04 0.000000000000D+00  6 1 -2 25 -24 3 -3 4 0.62027644D-01 0.17891846D-01 0.16722007D+05 0.16722007D+05 0.16722007D+05 0.12424776D+01  1  2  5  8  6  5       21 -.753591291675D-02 0.100000000000D+01
-.239495055955D-04 0.000000000000D+00 0.000000000000D+00 0.287605826243D-04 0.000000000000D+00  6 1 -2 25 -24 4 -4 4 0.62027644D-01 0.17891846D-01 0.16722007D+05 0.16722007D+05 0.16722007D+05 0.12424776D+01  1  2  5  8  6  5       21 -.753591291675D-02 0.100000000000D+01
0.146674193954D-04 0.000000000000D+00 0.000000000000D+00 0.287605826243D-04 0.145198149347D-06  6 1 -2 25 -24 3 -3 4 0.62027644D-01 0.17891846D-01 0.16716768D+05 0.16716768D+05 0.16716768D+05 0.12424930D+01  1  2 11  8  6  5       21 0.461543518079D-02 0.100000000000D+01
0.146674193954D-04 0.000000000000D+00 0.000000000000D+00 0.287605826243D-04 0.145198149347D-06  6 1 -2 25 -24 4 -4 4 0.62027644D-01 0.17891846D-01 0.16716768D+05 0.16716768D+05 0.16716768D+05 0.12424930D+01  1  2 11  8  6  5       21 0.461543518079D-02 0.100000000000D+01
  </mgrwgt>
  </event>
  <event>
  5     66 -.42750230E-03 0.22191225E+02 0.75467711E-02 0.12397510E+00
        1 -1    0    0  502    0 0.00000000E+00 0.00000000E+00 0.20006102E+03 0.20006128E+03 0.32000000E+00 0.0000E+00 0.9000E+01
       -2 -1    0    0    0  501 0.00000000E+00 0.00000000E+00 -.76881930E+02 0.76882596E+02 0.32000000E+00 0.0000E+00 0.9000E+01
       25  1    1    2    0    0 -.27238837E+02 0.21885127E+01 0.57163625E+02 0.14014073E+03 0.12500000E+03 0.0000E+00 0.9000E+01
      -24  1    1    2    0    0 0.47032039E+02 -.12203721E+02 0.38723398E+02 0.10162510E+03 0.80419002E+02 0.0000E+00 0.9000E+01
       21  1    1    2  502  501 -.19793202E+02 0.10015208E+02 0.27292067E+02 0.35178043E+02 0.75000000E+00 0.0000E+00 0.9000E+01
#aMCatNLO 1  0  0  5  1 0.40560819D+01 0.00000000D+00  -5  6  0 0.00000000D+00 0.00000000D+00 0.00000000D+00 0.00000000D+00 0.00000000D+00
  <mgrwgt>
 -.6586090821D+00   20    2    0
 0.124020985703558D+03 0.000000000000000D+00 0.000000000000000D+00 0.124020985703558D+03
 0.124020985703558D+03 -.000000000000000D+00 -.000000000000000D+00 -.124020985703558D+03
 0.128081331301299D+03 -.272344895545655D+02 0.218631317431039D+01 -.577321758806168D+01
 0.942381787463557D+02 0.470352369894014D+02 -.122053393693254D+02 -.723426231830042D+01
 0.257224613594612D+02 -.198007474348359D+02 0.100190261950150D+02 0.130074799063621D+02
 0.000000000000000D+00 -.000000000000000D+00 0.000000000000000D+00 0.000000000000000D+00
 0.124020985703558D+03 0.000000000000000D+00 0.000000000000000D+00 0.124020985703558D+03
 0.124020985703558D+03 -.000000000000000D+00 -.000000000000000D+00 -.124020985703558D+03
 0.128227181043695D+03 -.279769520770645D+02 0.256199351093481D+01 -.528548012388688D+01
 0.939050318422642D+02 0.464902325279942D+02 -.119295712957610D+02 -.687623873338458D+01
 0.194500293744157D+02 -.121969409331406D+02 0.102619846886804D+02 0.111458487693133D+02
 0.645972914674092D+01 -.631633951778907D+01 -.894406903854190D+00 0.101587008795819D+01
0.301703750962D-03 0.000000000000D+00 0.000000000000D+00 0.514195728396D-04 0.000000000000D+00  6 1 -2 25 -24 21 21 2 0.30778689D-01 0.11828060D-01 0.14896505D+05 0.14896505D+05 0.14896505D+05 0.12481655D+01  1  2  2  3  6  5       21 0.289005556060D+00 0.100000000000D+01
0.497610067151D-04 0.159213443525D-04 -.115862184412D-05 0.514195728396D-04 0.000000000000D+00  6 1 -2 25 -24 21 21 4 0.30778689D-01 0.11828060D-01 0.14896505D+05 0.14896505D+05 0.14896505D+05 0.12481655D+01  1  2  3  3  6  5       21 0.742606875868D-01 0.100000000000D+01
0.112534667410D-04 0.000000000000D+00 0.000000000000D+00 0.514195728396D-04 0.000000000000D+00  6 1 -2 25 -24 21 21 4 0.30778689D-01 0.11828060D-01 0.14896505D+05 0.14896505D+05 0.14896505D+05 0.12481655D+01  1  2 15  3  6  5       21 0.167940769910D-01 0.100000000000D+01
0.304381836343D-04 0.000000000000D+00 0.000000000000D+00 0.514199842124D-04 0.000000000000D+00  6 1 -2 25 -24 21 21 4 0.30778689D-01 0.11828060D-01 0.14895004D+05 0.14895004D+05 0.14895004D+05 0.12481705D+01  1  2 12  3  6  5       21 0.454248950078D-01 0.100000000000D+01
0.317972752830D-04 0.000000000000D+00 0.000000000000D+00 0.514199842124D-04 0.000000000000D+00  6 1 -2 25 -24 21 21 4 0.30778689D-01 0.11828060D-01 0.14895004D+05 0.14895004D+05 0.14895004D+05 0.12481705D+01  1  2 12  3  6  5       21 0.474531564899D-01 0.100000000000D+01
-.119269369634D-02 0.000000000000D+00 0.000000000000D+00 0.514195728396D-04 0.000000000000D+00  6 1 -2 25 -24 21 21 4 0.30778689D-01 0.11828060D-01 0.14896505D+05 0.14896505D+05 0.14896505D+05 0.12481655D+01  1  2  4  3  6  5       21 -.177991282367D+01 0.100000000000D+01
-.865152890436D-03 0.000000000000D+00 0.000000000000D+00 0.514195728396D-04 0.000000000000D+00  6 1 -2 25 -24 21 21 4 0.30778689D-01 0.11828060D-01 0.14896505D+05 0.14896505D+05 0.14896505D+05 0.12481655D+01  1  2  5  3  6  5       21 -.129110829448D+01 0.100000000000D+01
0.137267364738D-02 0.000000000000D+00 -.000000000000D+00 0.514195728396D-04 0.000000000000D+00  6 1 -2 25 -24 21 21 4 0.30778689D-01 0.11828060D-01 0.14896505D+05 0.14896505D+05 0.14896505D+05 0.12481655D+01  1  2  6  3  6  5       21 0.204850535822D+01 0.100000000000D+01
0.891939143787D-06 0.000000000000D+00 0.000000000000D+00 0.514199842124D-04 0.000000000000D+00  6 1 -2 25 -24 1 -1 4 0.30778689D-01 0.11828060D-01 0.14895004D+05 0.14895004D+05 0.14895004D+05 0.12481705D+01  1  2 12  6  6  5       21 0.133109920246D-02 0.100000000000D+01
0.918750241261D-06 0.000000000000D+00 0.000000000000D+00 0.514199842124D-04 0.000000000000D+00  6 1 -2 25 -24 1 -1 4 0.30778689D-01 0.11828060D-01 0.14895004D+05 0.14895004D+05 0.14895004D+05 0.12481705D+01  1  2 12  6  6  5       21 0.137111115923D-02 0.100000000000D+01
-.200758500229D-04 0.000000000000D+00 0.000000000000D+00 0.514195728396D-04 0.000000000000D+00  6 1 -2 25 -24 1 -1 4 0.30778689D-01 0.11828060D-01 0.14896505D+05 0.14896505D+05 0.14896505D+05 0.12481655D+01  1  2  5  6  6  5       21 -.299601339483D-01 0.100000000000D+01
0.891939143787D-06 0.000000000000D+00 0.000000000000D+00 0.514199842124D-04 0.000000000000D+00  6 1 -2 25 -24 2 -2 4 0.30778689D-01 0.11828060D-01 0.14895004D+05 0.14895004D+05 0.14895004D+05 0.12481705D+01  1  2 12  7  6  5       21 0.133109920246D-02 0.100000000000D+01
0.918750241261D-06 0.000000000000D+00 0.000000000000D+00 0.514199842124D-04 0.000000000000D+00  6 1 -2 25 -24 2 -2 4 0.30778689D-01 0.11828060D-01 0.14895004D+05 0.14895004D+05 0.14895004D+05 0.12481705D+01  1  2 12  7  6  5       21 0.137111115923D-02 0.100000000000D+01
-.200758500229D-04 0.000000000000D+00 0.000000000000D+00 0.514195728396D-04 0.000000000000D+00  6 1 -2 25 -24 2 -2 4 0.30778689D-01 0.11828060D-01 0.14896505D+05 0.14896505D+05 0.14896505D+05 0.12481655D+01  1  2  5  7  6  5       21 -.299601339483D-01 0.100000000000D+01
0.891939143787D-06 0.000000000000D+00 0.000000000000D+00 0.514199842124D-04 0.000000000000D+00  6 1 -2 25 -24 3 -3 4 0.30778689D-01 0.11828060D-01 0.14895004D+05 0.14895004D+05 0.14895004D+05 0.12481705D+01  1  2 12  8  6  5       21 0.133109920246D-02 0.100000000000D+01
0.891939143787D-06 0.000000000000D+00 0.000000000000D+00 0.514199842124D-04 0.000000000000D+00  6 1 -2 25 -24 4 -4 4 0.30778689D-01 0.11828060D-01 0.14895004D+05 0.14895004D+05 0.14895004D+05 0.12481705D+01  1  2 12  8  6  5       21 0.133109920246D-02 0.100000000000D+01
0.918750241261D-06 0.000000000000D+00 0.000000000000D+00 0.514199842124D-04 0.000000000000D+00  6 1 -2 25 -24 3 -3 4 0.30778689D-01 0.11828060D-01 0.14895004D+05 0.14895004D+05 0.14895004D+05 0.12481705D+01  1  2 12  8  6  5       21 0.137111115923D-02 0.100000000000D+01
0.918750241261D-06 0.000000000000D+00 0.000000000000D+00 0.514199842124D-04 0.000000000000D+00  6 1 -2 25 -24 4 -4 4 0.30778689D-01 0.11828060D-01 0.14895004D+05 0.14895004D+05 0.14895004D+05 0.12481705D+01  1  2 12  8  6  5       21 0.137111115923D-02 0.100000000000D+01
-.200758500229D-04 0.000000000000D+00 0.000000000000D+00 0.514195728396D-04 0.000000000000D+00  6 1 -2 25 -24 3 -3 4 0.30778689D-01 0.11828060D-01 0.14896505D+05 0.14896505D+05 0.14896505D+05 0.12481655D+01  1  2  5  8  6  5       21 -.299601339483D-01 0.100000000000D+01
-.200758500229D-04 0.000000000000D+00 0.000000000000D+00 0.514195728396D-04 0.000000000000D+00  6 1 -2 25 -24 4 -4 4 0.30778689D-01 0.11828060D-01 0.14896505D+05 0.14896505D+05 0.14896505D+05 0.12481655D+01  1  2  5  8  6  5       21 -.299601339483D-01 0.100000000000D+01
  </mgrwgt>
  </event>
  <event>
  5     66 -.42750230E-03 0.72359800E+02 0.75467711E-02 0.11658002E+00
        1 -1    0    0  502    0 0.00000000E+00 0.00000000E+00 0.83761623E+03 0.83761629E+03 0.32000000E+00 0.0000E+00 0.9000E+01
       -2 -1    0    0    0  501 0.00000000E+00 0.00000000E+00 -.55683571E+02 0.55684490E+02 0.32000000E+00 0.0000E+00 0.9000E+01
       25  1    1    2    0    0 0.11770564E+03 -.94506956E+01 0.30791023E+03 0.35267215E+03 0.12500000E+03 0.0000E+00 0.9000E+01
      -24  1    1    2    0    0 -.73062601E+02 -.47972420E+02 0.44783796E+03 0.46332013E+03 0.80419002E+02 0.0000E+00 0.9000E+01
       21  1    1    2  502  501 -.44643034E+02 0.57423116E+02 0.26184468E+02 0.77308496E+02 0.75000000E+00 0.0000E+00 0.9000E+01
#aMCatNLO 1  0  0  2  5 0.69189575D+00 0.00000000D+00  -5  6  0 0.00000000D+00 0.00000000D+00 0.00000000D+00 0.00000000D+00 0.00000000D+00
  <mgrwgt>
 -.4650572608D-01   11    4    0
 0.215967359880066D+03 0.000000000000000D+00 0.000000000000000D+00 0.215967359880066D+03
 0.215967359880066D+03 0.000000000000000D+00 0.000000000000000D+00 -.215967359880066D+03
 0.171964327482973D+03 0.117706030524889D+03 -.945120380311641D+01 -.164166117612928D+01
 0.147488190736077D+03 -.730622621171473D+02 -.479728560772657D+02 0.874417599682561D+02
 0.112482201541081D+03 -.446437684077412D+02 0.574240598803821D+02 -.858000987921268D+02
 0.000000000000000D+00 0.000000000000000D+00 0.000000000000000D+00 -.000000000000000D+00
 0.215983655275804D+03 0.000000000000000D+00 0.000000000000000D+00 0.215983655275804D+03
 0.223439079288453D+03 0.000000000000000D+00 0.000000000000000D+00 -.223439079288453D+03
 0.171868098088815D+03 0.117547101972684D+03 -.967609978621633D+01 -.164166117612928D+01
 0.147618679458098D+03 -.731986684131729D+02 -.481658813557324D+02 0.874417599682561D+02
 0.112448496370366D+03 -.447477373981763D+02 0.572769358552061D+02 -.858000987921268D+02
 0.748746064697764D+01 0.399303838665571D+00 0.565045286742587D+00 -.745542401264984D+01
 0.215967359880066D+03 0.000000000000000D+00 0.000000000000000D+00 0.215967359880066D+03
 0.215967359880066D+03 0.000000000000000D+00 0.000000000000000D+00 -.215967359880066D+03
 0.171964327482973D+03 0.117706030524889D+03 -.945120380311641D+01 -.164166117612928D+01
 0.147488190736077D+03 -.730622621171473D+02 -.479728560772657D+02 0.874417599682561D+02
 0.000000000000000D+00 0.000000000000000D+00 0.000000000000000D+00 -.000000000000000D+00
 0.112482201541081D+03 -.446437684077412D+02 0.574240598803821D+02 -.858000987921268D+02
 0.215983655275804D+03 0.000000000000000D+00 0.000000000000000D+00 0.215983655275804D+03
 0.223439079288453D+03 0.000000000000000D+00 0.000000000000000D+00 -.223439079288453D+03
 0.171868098088815D+03 0.117547101972684D+03 -.967609978621633D+01 -.164166117612928D+01
 0.147618679458098D+03 -.731986684131729D+02 -.481658813557324D+02 0.874417599682561D+02
 0.748746064697764D+01 0.399303838665571D+00 0.565045286742587D+00 -.745542401264984D+01
 0.112448496370366D+03 -.447477373981763D+02 0.572769358552061D+02 -.858000987921268D+02
0.939200232794D-05 0.000000000000D+00 0.000000000000D+00 0.401202212290D-05 0.000000000000D+00  6 1 -2 25 -24 21 21 2 0.12886411D+00 0.85667786D-02 0.33026624D+05 0.33026624D+05 0.33026624D+05 0.12105416D+01  1  2  2  2  6  2       -2 0.219273036543D-02 0.100000000000D+01
-.218349954401D-06 0.495629579499D-06 -.360677619103D-07 0.401202212290D-05 0.000000000000D+00  6 1 -2 25 -24 21 21 4 0.12886411D+00 0.85667786D-02 0.33026624D+05 0.33026624D+05 0.33026624D+05 0.12105416D+01  1  2  3  2  6  2       -2 -.747032629101D-04 0.100000000000D+01
0.423557923590D-06 0.000000000000D+00 0.000000000000D+00 0.401202212290D-05 0.000000000000D+00  6 1 -2 25 -24 21 21 4 0.12886411D+00 0.85667786D-02 0.33026624D+05 0.33026624D+05 0.33026624D+05 0.12105416D+01  1  2 15  2  6  2       -2 0.144910306990D-03 0.100000000000D+01
0.457633079940D-09 0.000000000000D+00 0.000000000000D+00 0.401086359386D-05 0.000000000000D+00  6 1 -2 25 -24 21 21 4 0.12886411D+00 0.88684657D-02 0.33154966D+05 0.33154966D+05 0.33154966D+05 0.12103668D+01  1  2 12  2  6  2       -2 0.148231865091D-06 0.100000000000D+01
-.137596960019D-01 0.000000000000D+00 0.000000000000D+00 0.401202212290D-05 0.000000000000D+00  6 1 -2 25 -24 21 21 4 0.12886411D+00 0.85667786D-02 0.33026624D+05 0.33026624D+05 0.33026624D+05 0.12105416D+01  1  2  4  2  6  2       -2 -.470755393934D+01 0.100000000000D+01
-.130303600678D-01 0.000000000000D+00 -.562490602797D-04 0.401202212290D-05 0.000000000000D+00  6 1 -2 25 -24 21 21 4 0.12886411D+00 0.88635069D-02 0.33026624D+05 0.33026624D+05 0.33026624D+05 0.12105416D+01  1  2  5  2  6  2       -2 -.422671648670D+01 0.100000000000D+01
0.130247564647D-01 0.000000000000D+00 0.562164669921D-04 0.401202212290D-05 0.000000000000D+00  6 1 -2 25 -24 21 21 4 0.12886411D+00 0.85667786D-02 0.33026624D+05 0.33026624D+05 0.33026624D+05 0.12105416D+01  1  2  6  2  6  2       -2 0.445611179168D+01 0.100000000000D+01
0.136968053949D-01 0.000000000000D+00 0.000000000000D+00 0.401202212290D-05 0.354858914417D-04  6 1 -2 25 -24 21 21 4 0.12887383D+00 0.88631594D-02 0.33154966D+05 0.33154966D+05 0.33154966D+05 0.12103668D+01  1  2 11  2  6  2       -2 0.444017171026D+01 0.100000000000D+01
0.139269720730D-10 0.000000000000D+00 0.000000000000D+00 0.401086359386D-05 0.000000000000D+00  6 1 21 25 -24 2 21 4 0.12886411D+00 0.88684657D-02 0.33154966D+05 0.33154966D+05 0.33154966D+05 0.12103668D+01  3  4 12  5  5  2       -2 0.719920399201D-07 0.100000000000D+01
-.790793968271D-04 0.000000000000D+00 -.341468612974D-06 0.401202212290D-05 0.000000000000D+00  6 1 21 25 -24 2 21 4 0.12886411D+00 0.88635069D-02 0.33026624D+05 0.33026624D+05 0.33026624D+05 0.12105416D+01  3  4  5  5  5  2       -2 -.409440552357D+00 0.100000000000D+01
0.770494507678D-04 0.000000000000D+00 0.000000000000D+00 0.401202212290D-05 0.399200386210D-06  6 1 21 25 -24 2 21 4 0.12887383D+00 0.88631594D-02 0.33154966D+05 0.33154966D+05 0.33154966D+05 0.12103668D+01  3  4 11  5  5  2       -2 0.398658592735D+00 0.100000000000D+01
  </mgrwgt>
  </event>
  <event>
  5     66 0.42750230E-03 0.20425182E+02 0.75467711E-02 0.11201711E+00
        1 -1    0    0  502    0 0.00000000E+00 0.00000000E+00 0.81860866E+03 0.81860872E+03 0.32000000E+00 0.0000E+00 0.9000E+01
       -2 -1    0    0    0  501 0.00000000E+00 0.00000000E+00 -.17312327E+02 0.17315284E+02 0.32000000E+00 0.0000E+00 0.9000E+01
       25  1    1    2    0    0 -.15849909E+02 0.15727735E+02 0.40130172E+03 0.42091169E+03 0.12500000E+03 0.0000E+00 0.9000E+01
      -24  1    1    2    0    0 0.36226250E+02 -.14490301E+02 0.30400245E+03 0.31687066E+03 0.80419002E+02 0.0000E+00 0.9000E+01
       21  1    1    2  502  501 -.20376341E+02 -.12374335E+01 0.95992155E+02 0.98141647E+02 0.75000000E+00 0.0000E+00 0.9000E+01
#aMCatNLO 1  0  0  1  1 0.18144880D+03 0.00000000D+00  -5  6  0 0.00000000D+00 0.00000000D+00 0.00000000D+00 0.00000000D+00 0.00000000D+00
  <mgrwgt>
 0.2997809895D+00    5    4    0
 0.119051596800268D+03 0.000000000000000D+00 0.000000000000000D+00 0.119051596800268D+03
 0.119051596800268D+03 0.000000000000000D+00 0.000000000000000D+00 -.119051596800268D+03
 0.127207184965029D+03 -.158432836620191D+02 0.157281372961014D+02 -.763439367120514D+01
 0.893905622905268D+02 0.362309058654562D+02 -.144900186538707D+02 0.904152545177337D+00
 0.215054463449796D+02 -.203876222034371D+02 -.123811864223070D+01 0.673024112602781D+01
 0.000000000000000D+00 -.000000000000000D+00 -.000000000000000D+00 0.000000000000000D+00
 0.364507258744589D+03 0.000000000000000D+00 0.000000000000000D+00 0.364507258744589D+03
 0.187994499868469D+03 0.000000000000000D+00 0.000000000000000D+00 -.187994499868469D+03
 0.156949048443570D+03 0.626399236103720D+02 0.708940040532483D+02 -.763439367120514D+01
 0.128626684671986D+03 0.964466983436414D+02 0.278356775042696D+02 0.904152545177337D+00
 0.137849158510900D+02 -.106405166139242D+02 0.561312440588648D+01 0.673024112602781D+01
 0.253141109646412D+03 -.148446105340089D+03 -.104342805963404D+03 0.176512758876120D+03
 0.119051596800268D+03 0.000000000000000D+00 0.000000000000000D+00 0.119051596800268D+03
 0.119051596800268D+03 0.000000000000000D+00 0.000000000000000D+00 -.119051596800268D+03
 0.127207184965029D+03 -.158432836620191D+02 0.157281372961014D+02 -.763439367120514D+01
 0.893905622905268D+02 0.362309058654562D+02 -.144900186538707D+02 0.904152545177337D+00
 0.000000000000000D+00 -.000000000000000D+00 -.000000000000000D+00 0.000000000000000D+00
 0.215054463449796D+02 -.203876222034371D+02 -.123811864223070D+01 0.673024112602781D+01
 0.364507258744589D+03 0.000000000000000D+00 0.000000000000000D+00 0.364507258744589D+03
 0.187994499868469D+03 0.000000000000000D+00 0.000000000000000D+00 -.187994499868469D+03
 0.156949048443570D+03 0.626399236103720D+02 0.708940040532483D+02 -.763439367120514D+01
 0.128626684671986D+03 0.964466983436414D+02 0.278356775042696D+02 0.904152545177337D+00
 0.253141109646412D+03 -.148446105340089D+03 -.104342805963404D+03 0.176512758876120D+03
 0.137849158510900D+02 -.106405166139242D+02 0.561312440588648D+01 0.673024112602781D+01
0.152984098822D-03 0.000000000000D+00 0.000000000000D+00 0.621408535000D-04 0.000000000000D+00  6 1 -2 25 -24 21 21 2 0.12594003D+00 0.26636672D-02 0.14017265D+05 0.14017265D+05 0.14017265D+05 0.12511914D+01  1  2  2  1  6  1        1 0.225442307953D+00 0.100000000000D+01
0.298162732963D-04 0.807319269331D-05 -.587499221117D-06 0.621408535000D-04 0.000000000000D+00  6 1 -2 25 -24 21 21 4 0.12594003D+00 0.26636672D-02 0.14017265D+05 0.14017265D+05 0.14017265D+05 0.12511914D+01  1  2  3  1  6  1        1 0.687844031816D-01 0.100000000000D+01
0.287453482956D-05 0.000000000000D+00 0.000000000000D+00 0.621408535000D-04 0.000000000000D+00  6 1 -2 25 -24 21 21 4 0.12594003D+00 0.26636672D-02 0.14017265D+05 0.14017265D+05 0.14017265D+05 0.12511914D+01  1  2 15  1  6  1        1 0.663138416768D-02 0.100000000000D+01
-.127180477159D-04 0.000000000000D+00 -.107225467924D-03 0.621408535000D-04 0.000000000000D+00  6 1 -2 25 -24 21 21 4 0.45518263D+00 0.26636672D-02 0.14017265D+05 0.14017265D+05 0.14017265D+05 0.12511914D+01  1  2  5  1  6  1        1 -.111928114059D-02 0.100000000000D+01
0.101722931003D-05 0.000000000000D+00 -.162028010264D-04 0.621408535000D-04 0.000000000000D+00  6 21 -2 25 -24 -1 21 4 0.45518263D+00 0.26636672D-02 0.14017265D+05 0.14017265D+05 0.14017265D+05 0.12511914D+01  3  4  5  4  5  1        1 0.421753381671D-04 0.100000000000D+01
  </mgrwgt>
  </event>
  <event>
  5     66 0.42750230E-03 0.48928935E+02 0.75467711E-02 0.11022068E+00
        1 -1    0    0  502    0 0.00000000E+00 0.00000000E+00 0.15659059E+04 0.15659059E+04 0.32000000E+00 0.0000E+00 0.9000E+01
       -2 -1    0    0    0  501 0.00000000E+00 0.00000000E+00 -.20555441E+02 0.20557932E+02 0.32000000E+00 0.0000E+00 0.9000E+01
       25  1    1    2    0    0 0.34802612E+02 -.38856768E+02 0.32212659E+03 0.34944472E+03 0.12500000E+03 0.0000E+00 0.9000E+01
      -24  1    1    2    0    0 -.62059770E+02 0.79484373E+02 0.10128740E+04 0.10210535E+04 0.80419002E+02 0.0000E+00 0.9000E+01
       21  1    1    2  502  501 0.27257158E+02 -.40627605E+02 0.21034982E+03 0.21596566E+03 0.75000000E+00 0.0000E+00 0.9000E+01
#aMCatNLO 1  0  0  1  1 0.18144880D+03 0.00000000D+00  -5  6  0 0.00000000D+00 0.00000000D+00 0.00000000D+00 0.00000000D+00 0.00000000D+00
  <mgrwgt>
 0.7483704771D-01    5    4    0
 0.179415405727021D+03 0.000000000000000D+00 0.000000000000000D+00 0.179415405727021D+03
 0.179415405727021D+03 0.000000000000000D+00 0.000000000000000D+00 -.179415405727021D+03
 0.157686134439739D+03 0.348012046063088D+02 -.388546703807224D+02 -.807409917086887D+02
 0.152215669113213D+03 -.620611284160489D+02 0.794863977213762D+02 0.808252614361290D+02
 0.489290079010910D+02 0.272599238097401D+02 -.406317273406537D+02 -.842697274402874D-01
 0.000000000000000D+00 0.000000000000000D+00 0.000000000000000D+00 0.000000000000000D+00
 0.315409413826652D+03 0.000000000000000D+00 0.000000000000000D+00 0.315409413826652D+03
 0.269385108447004D+03 0.000000000000000D+00 0.000000000000000D+00 -.269385108447004D+03
 0.184626482288765D+03 -.400681820104575D+01 -.109209778079277D+03 -.807409917086887D+02
 0.150279889980502D+03 -.963550865781083D+02 0.173148428375189D+02 0.808252614361290D+02
 0.657693608261482D+02 0.142565558589075D+02 -.642055475573175D+02 -.842697274402874D-01
 0.184118789178240D+03 0.861053489202466D+02 0.156100482799076D+03 0.460243053796489D+02
 0.179415405727021D+03 0.000000000000000D+00 0.000000000000000D+00 0.179415405727021D+03
 0.179415405727021D+03 0.000000000000000D+00 0.000000000000000D+00 -.179415405727021D+03
 0.157686134439739D+03 0.348012046063088D+02 -.388546703807224D+02 -.807409917086887D+02
 0.152215669113213D+03 -.620611284160489D+02 0.794863977213762D+02 0.808252614361290D+02
 0.000000000000000D+00 0.000000000000000D+00 0.000000000000000D+00 0.000000000000000D+00
 0.489290079010910D+02 0.272599238097401D+02 -.406317273406537D+02 -.842697274402874D-01
 0.315409413826652D+03 0.000000000000000D+00 0.000000000000000D+00 0.315409413826652D+03
 0.269385108447004D+03 0.000000000000000D+00 0.000000000000000D+00 -.269385108447004D+03
 0.184626482288765D+03 -.400681820104575D+01 -.109209778079277D+03 -.807409917086887D+02
 0.150279889980502D+03 -.963550865781083D+02 0.173148428375189D+02 0.808252614361290D+02
 0.184118789178240D+03 0.861053489202466D+02 0.156100482799076D+03 0.460243053796489D+02
 0.657693608261482D+02 0.142565558589075D+02 -.642055475573175D+02 -.842697274402874D-01
0.212214759456D-03 0.000000000000D+00 0.000000000000D+00 0.608407290539D-05 0.000000000000D+00  6 1 -2 25 -24 21 21 2 0.24090879D+00 0.31625697D-02 0.24548575D+05 0.24548575D+05 0.24548575D+05 0.12241470D+01  1  2  2  1  6  1        1 0.706701702336D-01 0.100000000000D+01
0.733279192295D-05 0.111988805283D-04 -.814960553739D-06 0.608407290539D-05 0.000000000000D+00  6 1 -2 25 -24 21 21 4 0.24090879D+00 0.31625697D-02 0.24548575D+05 0.24548575D+05 0.24548575D+05 0.12241470D+01  1  2  3  1  6  1        1 0.365929195410D-02 0.100000000000D+01
0.750456191296D-05 0.000000000000D+00 0.000000000000D+00 0.608407290539D-05 0.000000000000D+00  6 1 -2 25 -24 21 21 4 0.24090879D+00 0.31625697D-02 0.24548575D+05 0.24548575D+05 0.24548575D+05 0.12241470D+01  1  2 15  1  6  1        1 0.374501053837D-02 0.100000000000D+01
-.785423742370D-04 0.000000000000D+00 -.119027847751D-03 0.608407290539D-05 0.000000000000D+00  6 1 -2 25 -24 21 21 4 0.49328392D+00 0.31625697D-02 0.24548575D+05 0.24548575D+05 0.24548575D+05 0.12241470D+01  1  2  5  1  6  1        1 -.325525945729D-02 0.100000000000D+01
0.117799985174D-05 0.000000000000D+00 -.922430417360D-05 0.608407290539D-05 0.000000000000D+00  6 21 -2 25 -24 -1 21 4 0.49328392D+00 0.31625697D-02 0.24548575D+05 0.24548575D+05 0.24548575D+05 0.12241470D+01  3  4  5  4  5  1        1 0.178344376803D-04 0.100000000000D+01
  </mgrwgt>
  </event>
  <event>
  6     66 0.42750230E-03 0.18853151E+02 0.75467711E-02 0.12168941E+00
        1 -1    0    0  502    0 0.00000000E+00 0.00000000E+00 0.36795805E+03 0.36795819E+03 0.32000000E+00 0.0000E+00 0.9000E+01
       -2 -1    0    0    0  501 0.00000000E+00 0.00000000E+00 -.79815630E+02 0.79816272E+02 0.32000000E+00 0.0000E+00 0.9000E+01
       25  1    1    2    0    0 0.15214597E+02 0.63866766E+02 0.23298694E+03 0.27243047E+03 0.12500000E+03 0.0000E+00 0.9000E+01
      -24  1    1    2    0    0 -.28693137E+02 -.58755571E+02 -.42932068E+00 0.10364803E+03 0.80419002E+02 0.0000E+00 0.9000E+01
       21  1    1    2  502  503 -.47019227E+01 0.61246230E+01 -.37561320E+01 0.86191712E+01 0.75000000E+00 0.0000E+00 0.9000E+01
       21  1    1    2  503  501 0.18180463E+02 -.11235818E+02 0.59340935E+02 0.63076794E+02 0.75000000E+00 0.0000E+00 0.9000E+01
#aMCatNLO 2  0  0  5  1 0.55857453D+01 0.00000000D+00  -5  6  0 0.00000000D+00 0.00000000D+00 0.00000000D+00 0.00000000D+00 0.00000000D+00
  <mgrwgt>
 0.2112323293D-01    1    2    0
 0.171373798379307D+03 0.000000000000000D+00 0.000000000000000D+00 0.171373798379307D+03
 0.171373798379307D+03 -.000000000000000D+00 -.000000000000000D+00 -.171373798379307D+03
 0.156991058479954D+03 0.564075323287655D+01 0.674972617182418D+02 0.665844877292098D+02
 0.141508643098727D+03 -.370664516427656D+02 -.555803275049490D+02 -.953644874905203D+02
 0.442478951799325D+02 0.314256984098892D+02 -.119169342132929D+02 0.287799997613105D+02
 0.000000000000000D+00 -.000000000000000D+00 0.000000000000000D+00 0.000000000000000D+00
 0.171373798379307D+03 0.000000000000000D+00 0.000000000000000D+00 0.171373798379307D+03
 0.171373798379307D+03 -.000000000000000D+00 -.000000000000000D+00 -.171373798379307D+03
 0.159778155034372D+03 0.145032798144390D+02 0.641365043896854D+02 0.747008869122972D+02
 0.136157870139360D+03 -.292979351664288D+02 -.585262254314134D+02 -.882499947776279D+02
 0.133668722831701D+02 -.474159472394205D+01 0.558210907790398D+01 -.111817088296399D+02
 0.334446993017119D+02 0.195362500759319D+02 -.111923880361760D+02 0.247308166949706D+02
0.329358769044D-04 0.000000000000D+00 0.000000000000D+00 0.130229522335D-04 0.192334087703D-05  6 1 -2 25 -24 21 21 4 0.56608991D-01 0.12279388D-01 0.18874122D+05 0.18874122D+05 0.18874122D+05 0.12366060D+01  1  2  1  3  6  5       21 0.211232329294D-01 0.100000000000D+01
  </mgrwgt>
  </event>
  <event>
  5     66 0.42750230E-03 0.20136738E+02 0.75467711E-02 0.12381061E+00
        3 -1    0    0  502    0 0.00000000E+00 0.00000000E+00 0.25401136E+03 0.25401185E+03 0.50000000E+00 0.0000E+00 0.9000E+01
       -4 -1    0    0    0  501 0.00000000E+00 0.00000000E+00 -.61955647E+02 0.61975033E+02 0.15500000E+01 0.0000E+00 0.9000E+01
       25  1    1    2    0    0 -.18279038E+02 -.49698063E+02 0.78482986E+02 0.15680752E+03 0.12500000E+03 0.0000E+00 0.9000E+01
      -24  1    1    2    0    0 0.50497551E-01 0.41165878E+02 0.83735132E+02 0.12318044E+03 0.80419002E+02 0.0000E+00 0.9000E+01
       21  1    1    2  502  501 0.18228540E+02 0.85321850E+01 0.29837595E+02 0.35998923E+02 0.75000000E+00 0.0000E+00 0.9000E+01
#aMCatNLO 1  0  0  5  1 0.94819977D+00 0.00000000D+00  -5  6  0 0.00000000D+00 0.00000000D+00 0.00000000D+00 0.00000000D+00 0.00000000D+00
  <mgrwgt>
 0.5316937721D-01   25    2    0
 0.125461463186024D+03 0.000000000000000D+00 0.000000000000000D+00 0.125461463186024D+03
 0.125461463186024D+03 -.000000000000000D+00 -.000000000000000D+00 -.125461463186024D+03
 0.137398982937125D+03 -.182845896355363D+02 -.497006619294525D+02 -.211895846535699D+02
 0.910292845721709D+02 0.468191542018587D-01 0.411641564395228D+02 0.111635445956934D+02
 0.224946588627518D+02 0.182377704813344D+02 0.853650548992973D+01 0.100260400578766D+02
 0.000000000000000D+00 0.000000000000000D+00 0.000000000000000D+00 0.000000000000000D+00
 0.125461463186024D+03 0.000000000000000D+00 0.000000000000000D+00 0.125461463186024D+03
 0.125461463186024D+03 -.000000000000000D+00 -.000000000000000D+00 -.125461463186024D+03
 0.137373220196844D+03 -.182179911145914D+02 -.496694893340824D+02 -.211529727530379D+02
 0.910416385569124D+02 0.909489972105979D-01 0.411848121796254D+02 0.111878045552211D+02
 0.188816941459684D+02 0.147442489301939D+02 0.750861086080035D+01 0.909649714161699D+01
 0.362637347232326D+01 0.338279318718687D+01 0.976066293656652D+00 0.868671056199794D+00
0.888033680081D-04 0.000000000000D+00 0.000000000000D+00 0.594653783133D-04 0.000000000000D+00  6 3 -4 25 -24 21 21 2 0.39080200D-01 0.95331671D-02 0.15157811D+05 0.15157811D+05 0.15157811D+05 0.12473047D+01  1  2  2  3  6  5       21 0.141745526837D-01 0.100000000000D+01
0.179035611839D-04 0.468628247813D-05 -.341028315615D-06 0.594653783133D-04 0.000000000000D+00  6 3 -4 25 -24 21 21 4 0.39080200D-01 0.95331671D-02 0.15157811D+05 0.15157811D+05 0.15157811D+05 0.12473047D+01  1  2  3  3  6  5       21 0.444594894258D-02 0.100000000000D+01
0.291237932953D-05 0.000000000000D+00 0.000000000000D+00 0.594653783133D-04 0.000000000000D+00  6 3 -4 25 -24 21 21 4 0.39080200D-01 0.95331671D-02 0.15157811D+05 0.15157811D+05 0.15157811D+05 0.12473047D+01  1  2 15  3  6  5       21 0.723224260663D-03 0.100000000000D+01
0.145363420167D-08 0.000000000000D+00 0.000000000000D+00 0.594684731688D-04 0.000000000000D+00  6 3 -4 25 -24 21 21 4 0.39080200D-01 0.95331671D-02 0.15147865D+05 0.15147865D+05 0.15147865D+05 0.12473372D+01  1  2 12  3  6  5       21 0.360992460738D-06 0.100000000000D+01
0.145994374652D-08 0.000000000000D+00 0.000000000000D+00 0.594684731688D-04 0.000000000000D+00  6 3 -4 25 -24 21 21 4 0.39080200D-01 0.95331671D-02 0.15147865D+05 0.15147865D+05 0.15147865D+05 0.12473372D+01  1  2 12  3  6  5       21 0.362559359838D-06 0.100000000000D+01
-.425629594759D-02 0.000000000000D+00 0.000000000000D+00 0.594653783133D-04 0.000000000000D+00  6 3 -4 25 -24 21 21 4 0.39080200D-01 0.95331671D-02 0.15157811D+05 0.15157811D+05 0.15157811D+05 0.12473047D+01  1  2  4  3  6  5       21 -.105695589124D+01 0.100000000000D+01
-.337400434256D-02 0.000000000000D+00 0.000000000000D+00 0.594653783133D-04 0.000000000000D+00  6 3 -4 25 -24 21 21 4 0.39080200D-01 0.95331671D-02 0.15157811D+05 0.15157811D+05 0.15157811D+05 0.12473047D+01  1  2  5  3  6  5       21 -.837858506749D+00 0.100000000000D+01
0.452034379714D-02 0.000000000000D+00 -.000000000000D+00 0.594653783133D-04 0.000000000000D+00  6 3 -4 25 -24 21 21 4 0.39080200D-01 0.95331671D-02 0.15157811D+05 0.15157811D+05 0.15157811D+05 0.12473047D+01  1  2  6  3  6  5       21 0.112252626829D+01 0.100000000000D+01
0.325414602143D-02 0.000000000000D+00 0.000000000000D+00 0.594653783133D-04 0.443970198757D-03  6 3 -4 25 -24 21 21 4 0.39080200D-01 0.95331671D-02 0.15147865D+05 0.15147865D+05 0.15147865D+05 0.12473372D+01  1  2 11  3  6  5       21 0.808127779689D+00 0.100000000000D+01
0.109689323619D-09 0.000000000000D+00 0.000000000000D+00 0.594684731688D-04 0.000000000000D+00  6 3 -4 25 -24 3 -3 4 0.39080200D-01 0.95331671D-02 0.15147865D+05 0.15147865D+05 0.15147865D+05 0.12473372D+01  1  2 12  6  6  5       21 0.272400159575D-07 0.100000000000D+01
0.109945174711D-09 0.000000000000D+00 0.000000000000D+00 0.594684731688D-04 0.000000000000D+00  6 3 -4 25 -24 3 -3 4 0.39080200D-01 0.95331671D-02 0.15147865D+05 0.15147865D+05 0.15147865D+05 0.12473372D+01  1  2 12  6  6  5       21 0.273035534796D-07 0.100000000000D+01
-.333693094346D-04 0.000000000000D+00 0.000000000000D+00 0.594653783133D-04 0.000000000000D+00  6 3 -4 25 -24 3 -3 4 0.39080200D-01 0.95331671D-02 0.15157811D+05 0.15157811D+05 0.15157811D+05 0.12473047D+01  1  2  5  6  6  5       21 -.828652157362D-02 0.100000000000D+01
0.314472031618D-04 0.000000000000D+00 0.000000000000D+00 0.594653783133D-04 0.829277509683D-05  6 3 -4 25 -24 3 -3 4 0.39080200D-01 0.95331671D-02 0.15147865D+05 0.15147865D+05 0.15147865D+05 0.12473372D+01  1  2 11  6  6  5       21 0.780953230164D-02 0.100000000000D+01
0.109689323619D-09 0.000000000000D+00 0.000000000000D+00 0.594684731688D-04 0.000000000000D+00  6 3 -4 25 -24 4 -4 4 0.39080200D-01 0.95331671D-02 0.15147865D+05 0.15147865D+05 0.15147865D+05 0.12473372D+01  1  2 12  7  6  5       21 0.272400159575D-07 0.100000000000D+01
0.109945174711D-09 0.000000000000D+00 0.000000000000D+00 0.594684731688D-04 0.000000000000D+00  6 3 -4 25 -24 4 -4 4 0.39080200D-01 0.95331671D-02 0.15147865D+05 0.15147865D+05 0.15147865D+05 0.12473372D+01  1  2 12  7  6  5       21 0.273035534796D-07 0.100000000000D+01
-.333693094346D-04 0.000000000000D+00 0.000000000000D+00 0.594653783133D-04 0.000000000000D+00  6 3 -4 25 -24 4 -4 4 0.39080200D-01 0.95331671D-02 0.15157811D+05 0.15157811D+05 0.15157811D+05 0.12473047D+01  1  2  5  7  6  5       21 -.828652157362D-02 0.100000000000D+01
0.311998639036D-04 0.000000000000D+00 0.000000000000D+00 0.594653783133D-04 0.823016113843D-05  6 3 -4 25 -24 4 -4 4 0.39080200D-01 0.95331671D-02 0.15147865D+05 0.15147865D+05 0.15147865D+05 0.12473372D+01  1  2 11  7  6  5       21 0.774810859040D-02 0.100000000000D+01
0.109689323619D-09 0.000000000000D+00 0.000000000000D+00 0.594684731688D-04 0.000000000000D+00  6 3 -4 25 -24 1 -1 4 0.39080200D-01 0.95331671D-02 0.15147865D+05 0.15147865D+05 0.15147865D+05 0.12473372D+01  1  2 12  8  6  5       21 0.272400159575D-07 0.100000000000D+01
0.109689323619D-09 0.000000000000D+00 0.000000000000D+00 0.594684731688D-04 0.000000000000D+00  6 3 -4 25 -24 2 -2 4 0.39080200D-01 0.95331671D-02 0.15147865D+05 0.15147865D+05 0.15147865D+05 0.12473372D+01  1  2 12  8  6  5       21 0.272400159575D-07 0.100000000000D+01
0.109945174711D-09 0.000000000000D+00 0.000000000000D+00 0.594684731688D-04 0.000000000000D+00  6 3 -4 25 -24 1 -1 4 0.39080200D-01 0.95331671D-02 0.15147865D+05 0.15147865D+05 0.15147865D+05 0.12473372D+01  1  2 12  8  6  5       21 0.273035534796D-07 0.100000000000D+01
0.109945174711D-09 0.000000000000D+00 0.000000000000D+00 0.594684731688D-04 0.000000000000D+00  6 3 -4 25 -24 2 -2 4 0.39080200D-01 0.95331671D-02 0.15147865D+05 0.15147865D+05 0.15147865D+05 0.12473372D+01  1  2 12  8  6  5       21 0.273035534796D-07 0.100000000000D+01
-.333693094346D-04 0.000000000000D+00 0.000000000000D+00 0.594653783133D-04 0.000000000000D+00  6 3 -4 25 -24 1 -1 4 0.39080200D-01 0.95331671D-02 0.15157811D+05 0.15157811D+05 0.15157811D+05 0.12473047D+01  1  2  5  8  6  5       21 -.828652157362D-02 0.100000000000D+01
-.333693094346D-04 0.000000000000D+00 0.000000000000D+00 0.594653783133D-04 0.000000000000D+00  6 3 -4 25 -24 2 -2 4 0.39080200D-01 0.95331671D-02 0.15157811D+05 0.15157811D+05 0.15157811D+05 0.12473047D+01  1  2  5  8  6  5       21 -.828652157362D-02 0.100000000000D+01
0.313554741085D-04 0.000000000000D+00 0.000000000000D+00 0.594653783133D-04 0.826739955760D-05  6 3 -4 25 -24 1 -1 4 0.39080200D-01 0.95331671D-02 0.15147865D+05 0.15147865D+05 0.15147865D+05 0.12473372D+01  1  2 11  8  6  5       21 0.778675250143D-02 0.100000000000D+01
0.313554741085D-04 0.000000000000D+00 0.000000000000D+00 0.594653783133D-04 0.826739955760D-05  6 3 -4 25 -24 2 -2 4 0.39080200D-01 0.95331671D-02 0.15147865D+05 0.15147865D+05 0.15147865D+05 0.12473372D+01  1  2 11  8  6  5       21 0.778675250143D-02 0.100000000000D+01
  </mgrwgt>
  </event>
  <event>
  5     66 0.42750230E-03 0.79938120E+02 0.75467711E-02 0.11340014E+00
        3 -1    0    0  502    0 0.00000000E+00 0.00000000E+00 0.10119122E+03 0.10119246E+03 0.50000000E+00 0.0000E+00 0.9000E+01
       -4 -1    0    0    0  501 -.00000000E+00 -.00000000E+00 -.64297047E+03 0.64297234E+03 0.15500000E+01 0.0000E+00 0.9000E+01
       25  1    1    2    0    0 0.79938987E+01 0.11893186E+03 -.40865797E+03 0.44366093E+03 0.12500000E+03 0.0000E+00 0.9000E+01
      -24  1    1    2    0    0 0.71592966E+02 -.12640672E+03 -.14404669E+03 0.21982010E+03 0.80419002E+02 0.0000E+00 0.9000E+01
       21  1    1    2  502  501 -.79586865E+02 0.74748561E+01 0.10925404E+02 0.80683762E+02 0.75000000E+00 0.0000E+00 0.9000E+01
#aMCatNLO 1  0  0  5  2 0.48333737D+02 0.00000000D+00  -5  6  0 0.00000000D+00 0.00000000D+00 0.00000000D+00 0.00000000D+00 0.00000000D+00
  <mgrwgt>
 0.4093441246D-02   15    2    0
 0.255076696933795D+03 0.000000000000000D+00 0.000000000000000D+00 0.255076696933795D+03
 0.255076696933795D+03 -.000000000000000D+00 -.000000000000000D+00 -.255076696933795D+03
 0.213180293563013D+03 0.799445824896341D+01 0.118931811581110D+03 -.124948591008276D+03
 0.167676908703693D+03 0.715934058687789D+02 -.126406761560072D+03 0.233247642230166D+02
 0.129296191600884D+03 -.795878641177423D+02 0.747494997896264D+01 0.101623826785259D+03
 0.000000000000000D+00 0.000000000000000D+00 0.000000000000000D+00 0.000000000000000D+00
 0.255076696933795D+03 0.000000000000000D+00 0.000000000000000D+00 0.255076696933795D+03
 0.255076696933795D+03 -.000000000000000D+00 -.000000000000000D+00 -.255076696933795D+03
 0.206135082444634D+03 -.235579768187977D+01 0.119903915132451D+03 -.111732598500385D+03
 0.165562592957590D+03 0.633678211995489D+02 -.125634208676140D+03 0.338278151705412D+02
 0.687343153503868D+02 -.946432961674801D+01 -.365258315435570D+02 0.574516858033223D+02
 0.697214031149791D+02 -.515476939009211D+02 0.422561250872456D+02 0.204530975265216D+02
0.401352447025D-03 0.000000000000D+00 0.000000000000D+00 0.284846864210D-05 0.000000000000D+00  6 3 -4 25 -24 21 21 2 0.15568119D-01 0.98918773D-01 0.43829330D+05 0.43829330D+05 0.43829330D+05 0.11979890D+01  1  2  2  3  6  5       21 0.367281784250D-02 0.100000000000D+01
-.705317483079D-05 0.211799505158D-04 -.154129907510D-05 0.284846864210D-05 0.000000000000D+00  6 3 -4 25 -24 21 21 4 0.15568119D-01 0.98918773D-01 0.43829330D+05 0.43829330D+05 0.43829330D+05 0.11979890D+01  1  2  3  3  6  5       21 -.926325874688D-04 0.100000000000D+01
0.458331963429D-05 0.000000000000D+00 0.000000000000D+00 0.284846864210D-05 0.000000000000D+00  6 3 -4 25 -24 21 21 4 0.15568119D-01 0.98918773D-01 0.43829330D+05 0.43829330D+05 0.43829330D+05 0.11979890D+01  1  2 15  3  6  5       21 0.601948437557D-04 0.100000000000D+01
0.105936091677D-03 0.000000000000D+00 0.000000000000D+00 0.282832443085D-05 0.000000000000D+00  6 3 -4 25 -24 21 21 4 0.15568119D-01 0.98918773D-01 0.48330202D+05 0.48330202D+05 0.48330202D+05 0.11937454D+01  1  2 12  3  6  5       21 0.137842268696D-02 0.100000000000D+01
-.189925472355D-03 0.000000000000D+00 0.000000000000D+00 0.284846864210D-05 0.000000000000D+00  6 3 -4 25 -24 21 21 4 0.15568119D-01 0.98918773D-01 0.43829330D+05 0.43829330D+05 0.43829330D+05 0.11979890D+01  1  2  4  3  6  5       21 -.249437853911D-02 0.100000000000D+01
-.135392415756D-03 0.000000000000D+00 0.000000000000D+00 0.284846864210D-05 0.000000000000D+00  6 3 -4 25 -24 21 21 4 0.15568119D-01 0.98918773D-01 0.43829330D+05 0.43829330D+05 0.43829330D+05 0.11979890D+01  1  2  5  3  6  5       21 -.177817083739D-02 0.100000000000D+01
0.264127005998D-03 0.000000000000D+00 -.000000000000D+00 0.284846864210D-05 0.000000000000D+00  6 3 -4 25 -24 21 21 4 0.15568119D-01 0.98918773D-01 0.43829330D+05 0.43829330D+05 0.43829330D+05 0.11979890D+01  1  2  6  3  6  5       21 0.346890139163D-02 0.100000000000D+01
0.398126309698D-05 0.000000000000D+00 0.000000000000D+00 0.282832443085D-05 0.000000000000D+00  6 3 -4 25 -24 3 -3 4 0.15568119D-01 0.98918773D-01 0.48330202D+05 0.48330202D+05 0.48330202D+05 0.11937454D+01  1  2 12  6  6  5       21 0.518035287949D-04 0.100000000000D+01
-.626125326417D-05 0.000000000000D+00 0.000000000000D+00 0.284846864210D-05 0.000000000000D+00  6 3 -4 25 -24 3 -3 4 0.15568119D-01 0.98918773D-01 0.43829330D+05 0.43829330D+05 0.43829330D+05 0.11979890D+01  1  2  5  6  6  5       21 -.822319174799D-04 0.100000000000D+01
0.398126309698D-05 0.000000000000D+00 0.000000000000D+00 0.282832443085D-05 0.000000000000D+00  6 3 -4 25 -24 4 -4 4 0.15568119D-01 0.98918773D-01 0.48330202D+05 0.48330202D+05 0.48330202D+05 0.11937454D+01  1  2 12  7  6  5       21 0.518035287949D-04 0.100000000000D+01
-.626125326417D-05 0.000000000000D+00 0.000000000000D+00 0.284846864210D-05 0.000000000000D+00  6 3 -4 25 -24 4 -4 4 0.15568119D-01 0.98918773D-01 0.43829330D+05 0.43829330D+05 0.43829330D+05 0.11979890D+01  1  2  5  7  6  5       21 -.822319174799D-04 0.100000000000D+01
0.398126309698D-05 0.000000000000D+00 0.000000000000D+00 0.282832443085D-05 0.000000000000D+00  6 3 -4 25 -24 1 -1 4 0.15568119D-01 0.98918773D-01 0.48330202D+05 0.48330202D+05 0.48330202D+05 0.11937454D+01  1  2 12  8  6  5       21 0.518035287949D-04 0.100000000000D+01
0.398126309698D-05 0.000000000000D+00 0.000000000000D+00 0.282832443085D-05 0.000000000000D+00  6 3 -4 25 -24 2 -2 4 0.15568119D-01 0.98918773D-01 0.48330202D+05 0.48330202D+05 0.48330202D+05 0.11937454D+01  1  2 12  8  6  5       21 0.518035287949D-04 0.100000000000D+01
-.626125326417D-05 0.000000000000D+00 0.000000000000D+00 0.284846864210D-05 0.000000000000D+00  6 3 -4 25 -24 1 -1 4 0.15568119D-01 0.98918773D-01 0.43829330D+05 0.43829330D+05 0.43829330D+05 0.11979890D+01  1  2  5  8  6  5       21 -.822319174799D-04 0.100000000000D+01
-.626125326417D-05 0.000000000000D+00 0.000000000000D+00 0.284846864210D-05 0.000000000000D+00  6 3 -4 25 -24 2 -2 4 0.15568119D-01 0.98918773D-01 0.43829330D+05 0.43829330D+05 0.43829330D+05 0.11979890D+01  1  2  5  8  6  5       21 -.822319174799D-04 0.100000000000D+01
  </mgrwgt>
  </event>
  <event>
  6     66 -.42750230E-03 0.98659563E+01 0.75467711E-02 0.11855226E+00
        1 -1    0    0  502    0 0.00000000E+00 0.00000000E+00 0.98928314E+03 0.98928319E+03 0.32000000E+00 0.0000E+00 0.9000E+01
       -2 -1    0    0    0  501 0.00000000E+00 0.00000000E+00 -.32228274E+02 0.32229862E+02 0.32000000E+00 0.0000E+00 0.9000E+01
       25  1    1    2    0    0 -.96399338E+02 0.52999651E+02 0.28745261E+03 0.33219843E+03 0.12500000E+03 0.0000E+00 0.9000E+01
      -24  1    1    2    0    0 0.10131347E+03 -.41840356E+02 0.61413679E+03 0.62900417E+03 0.80419002E+02 0.0000E+00 0.9000E+01
       21  1    1    2  502  503 0.69289039E+01 -.55851796E+01 0.12318362E+02 0.15215403E+02 0.75000000E+00 0.0000E+00 0.9000E+01
       21  1    1    2  503  501 -.11843034E+02 -.55741150E+01 0.43147104E+02 0.45095047E+02 0.75000000E+00 0.0000E+00 0.9000E+01
#aMCatNLO 2  0  0  5  2 0.94115666D+01 0.00000000D+00  -5  6  0 0.00000000D+00 0.00000000D+00 0.00000000D+00 0.00000000D+00 0.00000000D+00
  <mgrwgt>
 -.1331680730D+00    3    2    0
 0.178560145327167D+03 0.000000000000000D+00 0.000000000000000D+00 0.178560145327167D+03
 0.178560145327167D+03 -.000000000000000D+00 -.000000000000000D+00 -.178560145327167D+03
 0.179751611632471D+03 -.941318364841349D+02 0.581488261456970D+02 -.666599824667878D+02
 0.154075992080771D+03 0.103251993802039D+03 -.374382396152621D+02 0.721775544869541D+02
 0.232926869410910D+02 -.912015731790402D+01 -.207105865304349D+02 -.551757202016627D+01
 0.000000000000000D+00 0.000000000000000D+00 0.000000000000000D+00 0.000000000000000D+00
 0.178560145327167D+03 0.000000000000000D+00 0.000000000000000D+00 0.178560145327167D+03
 0.178560145327167D+03 -.000000000000000D+00 -.000000000000000D+00 -.178560145327167D+03
 0.179867663348059D+03 -.963183538278281D+02 0.531835547070172D+02 -.679827959333369D+02
 0.153397400428144D+03 0.101382528085883D+03 -.416835316788234D+02 0.710465529736499D+02
 0.970458248317622D+01 0.702094896536012D+01 -.440985010814834D+01 -.504365133829090D+01
 0.141506443949538D+02 -.120851232234150D+02 -.709017292004551D+01 0.197989429797797D+01
-.101072417625D-03 0.000000000000D+00 0.000000000000D+00 0.300619854042D-04 0.000000000000D+00  6 1 -2 25 -24 21 21 4 0.15219753D+00 0.49583221D-02 0.26370611D+05 0.26370611D+05 0.26370611D+05 0.12208202D+01  1  2 13  3  6  5       21 -.630809853291D-01 0.100000000000D+01
-.973900170590D-04 0.000000000000D+00 0.000000000000D+00 0.300619854042D-04 0.000000000000D+00  6 1 -2 25 -24 21 21 4 0.15219753D+00 0.49583221D-02 0.26370611D+05 0.26370611D+05 0.26370611D+05 0.12208202D+01  1  2 13  3  6  5       21 -.607827375821D-01 0.100000000000D+01
-.149196991595D-04 0.000000000000D+00 0.000000000000D+00 0.300492700203D-04 0.000000000000D+00  6 1 -2 25 -24 21 21 4 0.15219753D+00 0.49583221D-02 0.26518231D+05 0.26518231D+05 0.26518231D+05 0.12205620D+01  1  2  8  3  6  5       21 -.930435012625D-02 0.100000000000D+01
  </mgrwgt>
  </event>
  <event>
  6     66 0.42750230E-03 0.17133410E+02 0.75467711E-02 0.11757665E+00
        1 -1    0    0  502    0 0.00000000E+00 0.00000000E+00 0.26230279E+03 0.26230298E+03 0.32000000E+00 0.0000E+00 0.9000E+01
       -2 -1    0    0    0  503 0.00000000E+00 0.00000000E+00 -.14061565E+03 0.14061602E+03 0.32000000E+00 0.0000E+00 0.9000E+01
       25  1    1    2    0    0 -.69616575E+02 -.82928584E+02 -.62135672E+01 0.16549086E+03 0.12500000E+03 0.0000E+00 0.9000E+01
      -24  1    1    2    0    0 0.59819707E+02 0.11052054E+03 0.13514261E+03 0.20130556E+03 0.80419002E+02 0.0000E+00 0.9000E+01
       21  1    1    2  502  501 0.14977691E+01 -.80427767E+01 0.67889110E+01 0.10657457E+02 0.75000000E+00 0.0000E+00 0.9000E+01
       21  1    1    2  501  503 0.82990992E+01 -.19549182E+02 -.14030826E+02 0.25465116E+02 0.75000000E+00 0.0000E+00 0.9000E+01
#aMCatNLO 2  0  0  2  5 0.19410417D+02 0.00000000D+00  -5  6  0 0.00000000D+00 0.00000000D+00 0.00000000D+00 0.00000000D+00 0.00000000D+00
  <mgrwgt>
 0.1145915163D+00    1    2    0
 0.175784686827433D+03 0.000000000000000D+00 0.000000000000000D+00 0.175784686827433D+03
 0.175784686827433D+03 0.000000000000000D+00 0.000000000000000D+00 -.175784686827433D+03
 0.183037535803875D+03 -.653414207790201D+02 -.929913719022422D+02 -.704332520580505D+02
 0.159228695780387D+03 0.636246642426133D+02 0.101564341647991D+03 0.672543545889588D+02
 0.930314207060280D+01 0.171675653640671D+01 -.857296974574897D+01 0.317889746909169D+01
 0.000000000000000D+00 0.000000000000000D+00 -.000000000000000D+00 -.000000000000000D+00
 0.180024804969301D+03 0.000000000000000D+00 0.000000000000000D+00 0.180024804969301D+03
 0.204873193429960D+03 0.000000000000000D+00 0.000000000000000D+00 -.204873193429960D+03
 0.179742813795371D+03 -.696193935053028D+02 -.829142699633688D+02 -.704332520580505D+02
 0.163664578629118D+03 0.598170472563298D+02 0.110533483568703D+03 0.672543545889588D+02
 0.880287157056078D+01 0.150324708744078D+01 -.807003141027905D+01 0.317889746909169D+01
 0.326877344042111D+02 0.829909916153222D+01 -.195491821950555D+02 -.248483884606594D+02
0.318067568169D-03 0.000000000000D+00 0.000000000000D+00 0.200143506660D-03 0.316560782241D-05  6 1 -2 25 -24 21 21 4 0.40353369D-01 0.21632712D-01 0.29587886D+05 0.29587886D+05 0.29587886D+05 0.12155294D+01  1  2  1  2  6  2       -2 0.114591516257D+00 0.100000000000D+01
  </mgrwgt>
  </event>
  <event>
  5     66 0.42750230E-03 0.26326782E+02 0.75467711E-02 0.11641445E+00
        1 -1    0    0  502    0 0.00000000E+00 0.00000000E+00 0.36062840E+03 0.36062854E+03 0.32000000E+00 0.0000E+00 0.9000E+01
       -2 -1    0    0    0  501 0.00000000E+00 0.00000000E+00 -.10931535E+03 0.10931582E+03 0.32000000E+00 0.0000E+00 0.9000E+01
       25  1    1    2    0    0 -.11922924E+03 0.74662106E+02 0.10461372E+03 0.21531157E+03 0.12500000E+03 0.0000E+00 0.9000E+01
      -24  1    1    2    0    0 0.12101708E+03 -.48398487E+02 0.60782354E+02 0.16477032E+03 0.80419002E+02 0.0000E+00 0.9000E+01
       21  1    1    2  502  501 -.17878406E+01 -.26263618E+02 0.85916984E+02 0.89862477E+02 0.75000000E+00 0.0000E+00 0.9000E+01
#aMCatNLO 1  0  0  5  2 0.62089523D+01 0.00000000D+00  -5  6  0 0.00000000D+00 0.00000000D+00 0.00000000D+00 0.00000000D+00 0.00000000D+00
  <mgrwgt>
 0.1383730004D+00   20    2    0
 0.198550656244177D+03 0.000000000000000D+00 0.000000000000000D+00 0.198550656244177D+03
 0.198550656244177D+03 -.000000000000000D+00 -.000000000000000D+00 -.198550656244177D+03
 0.188601504478838D+03 -.119229151005528D+03 0.746634045562949D+02 -.124624661381869D+02
 0.156528125647329D+03 0.121017153375161D+03 -.483974092359257D+02 -.323477593121786D+02
 0.519716823621868D+02 -.178800236963300D+01 -.262659953203691D+02 0.448102254503654D+02
 0.000000000000000D+00 -.000000000000000D+00 0.000000000000000D+00 0.000000000000000D+00
 0.198550656244177D+03 0.000000000000000D+00 0.000000000000000D+00 0.198550656244177D+03
 0.198550656244177D+03 -.000000000000000D+00 -.000000000000000D+00 -.198550656244177D+03
 0.188429001447899D+03 -.119254573185006D+03 0.742899493201249D+02 -.118253452857583D+02
 0.156499560249513D+03 0.120996046738197D+03 -.487074685720450D+02 -.318187929210318D+02
 0.307769415287502D+02 0.510654330864464D+01 -.145881781119776D+02 0.266144397775768D+02
 0.213958092621928D+02 -.684801686183549D+01 -.109943026361023D+02 0.170296984292132D+02
0.152240734828D-03 0.000000000000D+00 0.000000000000D+00 0.265574062247D-04 0.000000000000D+00  6 1 -2 25 -24 21 21 2 0.55481340D-01 0.16817793D-01 0.33794440D+05 0.33794440D+05 0.33794440D+05 0.12095070D+01  1  2  2  3  6  5       21 0.378643482908D-01 0.100000000000D+01
0.275919773792D-04 0.803396429755D-05 -.584644507644D-06 0.265574062247D-04 0.000000000000D+00  6 1 -2 25 -24 21 21 4 0.55481340D-01 0.16817793D-01 0.33794440D+05 0.33794440D+05 0.33794440D+05 0.12095070D+01  1  2  3  3  6  5       21 0.100392019173D-01 0.100000000000D+01
0.421332898793D-05 0.000000000000D+00 0.000000000000D+00 0.265574062247D-04 0.000000000000D+00  6 1 -2 25 -24 21 21 4 0.55481340D-01 0.16817793D-01 0.33794440D+05 0.33794440D+05 0.33794440D+05 0.12095070D+01  1  2 15  3  6  5       21 0.153299851882D-02 0.100000000000D+01
0.284116264036D-03 0.000000000000D+00 0.000000000000D+00 0.265356631600D-04 0.000000000000D+00  6 1 -2 25 -24 21 21 4 0.55481340D-01 0.16817793D-01 0.34168986D+05 0.34168986D+05 0.34168986D+05 0.12090117D+01  1  2 12  3  6  5       21 0.103220551232D+00 0.100000000000D+01
0.302119310882D-03 0.000000000000D+00 0.000000000000D+00 0.265356631600D-04 0.000000000000D+00  6 1 -2 25 -24 21 21 4 0.55481340D-01 0.16817793D-01 0.34168986D+05 0.34168986D+05 0.34168986D+05 0.12090117D+01  1  2 12  3  6  5       21 0.109761128646D+00 0.100000000000D+01
-.971193623211D-03 0.000000000000D+00 0.000000000000D+00 0.265574062247D-04 0.000000000000D+00  6 1 -2 25 -24 21 21 4 0.55481340D-01 0.16817793D-01 0.33794440D+05 0.33794440D+05 0.33794440D+05 0.12095070D+01  1  2  4  3  6  5       21 -.353363905391D+00 0.100000000000D+01
-.631655614139D-03 0.000000000000D+00 0.000000000000D+00 0.265574062247D-04 0.000000000000D+00  6 1 -2 25 -24 21 21 4 0.55481340D-01 0.16817793D-01 0.33794440D+05 0.33794440D+05 0.33794440D+05 0.12095070D+01  1  2  5  3  6  5       21 -.229824711921D+00 0.100000000000D+01
0.133648421595D-02 0.000000000000D+00 -.000000000000D+00 0.265574062247D-04 0.000000000000D+00  6 1 -2 25 -24 21 21 4 0.55481340D-01 0.16817793D-01 0.33794440D+05 0.33794440D+05 0.33794440D+05 0.12095070D+01  1  2  6  3  6  5       21 0.486273046646D+00 0.100000000000D+01
0.760333734289D-05 0.000000000000D+00 0.000000000000D+00 0.265356631600D-04 0.000000000000D+00  6 1 -2 25 -24 1 -1 4 0.55481340D-01 0.16817793D-01 0.34168986D+05 0.34168986D+05 0.34168986D+05 0.12090117D+01  1  2 12  6  6  5       21 0.276232222890D-02 0.100000000000D+01
0.806423657031D-05 0.000000000000D+00 0.000000000000D+00 0.265356631600D-04 0.000000000000D+00  6 1 -2 25 -24 1 -1 4 0.55481340D-01 0.16817793D-01 0.34168986D+05 0.34168986D+05 0.34168986D+05 0.12090117D+01  1  2 12  6  6  5       21 0.292976872296D-02 0.100000000000D+01
-.342852222389D-04 0.000000000000D+00 0.000000000000D+00 0.265574062247D-04 0.000000000000D+00  6 1 -2 25 -24 1 -1 4 0.55481340D-01 0.16817793D-01 0.33794440D+05 0.33794440D+05 0.33794440D+05 0.12095070D+01  1  2  5  6  6  5       21 -.124745053283D-01 0.100000000000D+01
0.760333734289D-05 0.000000000000D+00 0.000000000000D+00 0.265356631600D-04 0.000000000000D+00  6 1 -2 25 -24 2 -2 4 0.55481340D-01 0.16817793D-01 0.34168986D+05 0.34168986D+05 0.34168986D+05 0.12090117D+01  1  2 12  7  6  5       21 0.276232222890D-02 0.100000000000D+01
0.806423657031D-05 0.000000000000D+00 0.000000000000D+00 0.265356631600D-04 0.000000000000D+00  6 1 -2 25 -24 2 -2 4 0.55481340D-01 0.16817793D-01 0.34168986D+05 0.34168986D+05 0.34168986D+05 0.12090117D+01  1  2 12  7  6  5       21 0.292976872296D-02 0.100000000000D+01
-.342852222389D-04 0.000000000000D+00 0.000000000000D+00 0.265574062247D-04 0.000000000000D+00  6 1 -2 25 -24 2 -2 4 0.55481340D-01 0.16817793D-01 0.33794440D+05 0.33794440D+05 0.33794440D+05 0.12095070D+01  1  2  5  7  6  5       21 -.124745053283D-01 0.100000000000D+01
0.760333734289D-05 0.000000000000D+00 0.000000000000D+00 0.265356631600D-04 0.000000000000D+00  6 1 -2 25 -24 3 -3 4 0.55481340D-01 0.16817793D-01 0.34168986D+05 0.34168986D+05 0.34168986D+05 0.12090117D+01  1  2 12  8  6  5       21 0.276232222890D-02 0.100000000000D+01
0.760333734289D-05 0.000000000000D+00 0.000000000000D+00 0.265356631600D-04 0.000000000000D+00  6 1 -2 25 -24 4 -4 4 0.55481340D-01 0.16817793D-01 0.34168986D+05 0.34168986D+05 0.34168986D+05 0.12090117D+01  1  2 12  8  6  5       21 0.276232222890D-02 0.100000000000D+01
0.806423657031D-05 0.000000000000D+00 0.000000000000D+00 0.265356631600D-04 0.000000000000D+00  6 1 -2 25 -24 3 -3 4 0.55481340D-01 0.16817793D-01 0.34168986D+05 0.34168986D+05 0.34168986D+05 0.12090117D+01  1  2 12  8  6  5       21 0.292976872296D-02 0.100000000000D+01
0.806423657031D-05 0.000000000000D+00 0.000000000000D+00 0.265356631600D-04 0.000000000000D+00  6 1 -2 25 -24 4 -4 4 0.55481340D-01 0.16817793D-01 0.34168986D+05 0.34168986D+05 0.34168986D+05 0.12090117D+01  1  2 12  8  6  5       21 0.292976872296D-02 0.100000000000D+01
-.342852222389D-04 0.000000000000D+00 0.000000000000D+00 0.265574062247D-04 0.000000000000D+00  6 1 -2 25 -24 3 -3 4 0.55481340D-01 0.16817793D-01 0.33794440D+05 0.33794440D+05 0.33794440D+05 0.12095070D+01  1  2  5  8  6  5       21 -.124745053283D-01 0.100000000000D+01
-.342852222389D-04 0.000000000000D+00 0.000000000000D+00 0.265574062247D-04 0.000000000000D+00  6 1 -2 25 -24 4 -4 4 0.55481340D-01 0.16817793D-01 0.33794440D+05 0.33794440D+05 0.33794440D+05 0.12095070D+01  1  2  5  8  6  5       21 -.124745053283D-01 0.100000000000D+01
  </mgrwgt>
  </event>
  <event>
  6     66 -.42750230E-03 0.13980867E+03 0.75467711E-02 0.11128519E+00
        1 -1    0    0  502    0 0.00000000E+00 0.00000000E+00 0.12668565E+04 0.12668566E+04 0.32000000E+00 0.0000E+00 0.9000E+01
       -2 -1    0    0    0  501 0.00000000E+00 0.00000000E+00 -.90415068E+02 0.90415635E+02 0.32000000E+00 0.0000E+00 0.9000E+01
       25  1    1    2    0    0 0.71345104E+02 0.14068462E+03 0.27017877E+03 0.33690333E+03 0.12500000E+03 0.0000E+00 0.9000E+01
      -24  1    1    2    0    0 -.91278391E+02 0.23218738E+02 0.80998220E+03 0.81939565E+03 0.80419002E+02 0.0000E+00 0.9000E+01
       21  1    1    2  503  501 -.17225952E+02 -.10681714E+03 0.55936144E+02 0.12180332E+03 0.75000000E+00 0.0000E+00 0.9000E+01
       21  1    1    2  502  503 0.37159239E+02 -.57086217E+02 0.40344355E+02 0.79169910E+02 0.75000000E+00 0.0000E+00 0.9000E+01
#aMCatNLO 2  0  0  5  2 0.30056943D+02 0.00000000D+00  -5  6  0 0.00000000D+00 0.00000000D+00 0.00000000D+00 0.00000000D+00 0.00000000D+00
  <mgrwgt>
 -.1324815651D-01    3    2    0
 0.338442510219848D+03 0.000000000000000D+00 0.000000000000000D+00 0.338442510219848D+03
 0.338442510219848D+03 -.000000000000000D+00 -.000000000000000D+00 -.338442510219848D+03
 0.206795198201736D+03 0.711208774581746D+02 0.142528341971277D+03 -.420326839946421D+02
 0.237291521845813D+03 -.915350949901292D+02 0.253295130535430D+02 0.202039086661838D+03
 0.232798300392147D+03 0.204142175319546D+02 -.167857855024820D+03 -.160006402667196D+03
 0.000000000000000D+00 0.000000000000000D+00 0.000000000000000D+00 0.000000000000000D+00
 0.338442510219848D+03 0.000000000000000D+00 0.000000000000000D+00 0.338442510219848D+03
 0.338442510219848D+03 -.000000000000000D+00 -.000000000000000D+00 -.338442510219848D+03
 0.205972311692556D+03 0.713452867460961D+02 0.140683115150352D+03 -.437916014172285D+02
 0.235261801521960D+03 -.912781819524993D+02 0.232170210436499D+02 0.200025405222169D+03
 0.146632752960800D+03 -.173103406296730D+02 -.106531919772171D+03 -.992595910620399D+02
 0.890181542643802D+02 0.372432358360762D+02 -.573682164218317D+02 -.569742127429005D+02
-.466103678716D-03 0.000000000000D+00 0.000000000000D+00 0.635044757007D-06 0.000000000000D+00  6 1 -2 25 -24 21 21 4 0.19490105D+00 0.13910057D-01 0.62859518D+05 0.62859518D+05 0.62859518D+05 0.11825612D+01  1  2 13  3  6  5       21 -.322001529114D-01 0.100000000000D+01
-.428299149131D-03 0.000000000000D+00 0.000000000000D+00 0.635044757007D-06 0.000000000000D+00  6 1 -2 25 -24 21 21 4 0.19490105D+00 0.13910057D-01 0.62859518D+05 0.62859518D+05 0.62859518D+05 0.11825612D+01  1  2 13  3  6  5       21 -.295884772500D-01 0.100000000000D+01
0.702633102262D-03 0.000000000000D+00 0.000000000000D+00 0.636024265884D-06 0.295902092559D-08  6 1 -2 25 -24 21 21 4 0.19490105D+00 0.13910057D-01 0.62859518D+05 0.62859518D+05 0.62859518D+05 0.11825612D+01  1  2  1  3  6  5       21 0.485404736469D-01 0.100000000000D+01
  </mgrwgt>
  </event>
  <event>
  6     66 0.42750230E-03 0.55240856E+02 0.75467711E-02 0.11850306E+00
        1 -1    0    0  503    0 0.00000000E+00 0.00000000E+00 0.10423042E+03 0.10423091E+03 0.32000000E+00 0.0000E+00 0.9000E+01
       -2 -1    0    0    0  501 0.00000000E+00 0.00000000E+00 -.36826698E+03 0.36826712E+03 0.32000000E+00 0.0000E+00 0.9000E+01
       25  1    1    2    0    0 0.43561737E+02 0.85700998E+02 -.16835270E+03 0.23067275E+03 0.12500000E+03 0.0000E+00 0.9000E+01
      -24  1    1    2    0    0 -.49564558E+02 -.19246215E+02 -.12886351E+03 0.16093502E+03 0.80419002E+02 0.0000E+00 0.9000E+01
       21  1    1    2  502  501 0.17338599E+02 -.44770243E+02 0.14693346E+02 0.50214127E+02 0.75000000E+00 0.0000E+00 0.9000E+01
       21  1    1    2  503  502 -.11335778E+02 -.21684540E+02 0.18486299E+02 0.30676129E+02 0.75000000E+00 0.0000E+00 0.9000E+01
#aMCatNLO 2  0  0  1  2 0.24468738D+02 0.00000000D+00  -5  6  0 0.00000000D+00 0.00000000D+00 0.00000000D+00 0.00000000D+00 0.00000000D+00
  <mgrwgt>
 0.5316773274D-01    1    2    0
 0.169402409742117D+03 0.000000000000000D+00 0.000000000000000D+00 0.169402409742117D+03
 0.169402409742117D+03 0.000000000000000D+00 0.000000000000000D+00 -.169402409742117D+03
 0.153483078975610D+03 0.383238569503203D+02 0.756828546186976D+02 -.271190530264199D+02
 0.105302507378913D+03 -.530306642723057D+02 -.258755659889406D+02 -.337580484848485D+02
 0.800192331297121D+02 0.147068073219854D+02 -.498072886297571D+02 0.608771015112685D+02
 0.000000000000000D+00 -.000000000000000D+00 -.000000000000000D+00 0.000000000000000D+00
 0.222257064225065D+03 0.000000000000000D+00 0.000000000000000D+00 0.222257064225065D+03
 0.172699374688932D+03 0.000000000000000D+00 0.000000000000000D+00 -.172699374688932D+03
 0.160009007685661D+03 0.435614666300418D+02 0.857020310642637D+02 -.271190530264199D+02
 0.102146348366561D+03 -.495647517943501D+02 -.192455208376240D+02 -.337580484848485D+02
 0.775318895729073D+02 0.173390628730158D+02 -.447719701489426D+02 0.608771015112685D+02
 0.552691932888671D+02 -.113357777087076D+02 -.216845400776971D+02 0.495576895361323D+02
0.272132802953D-03 0.000000000000D+00 0.000000000000D+00 0.944434790248D-05 0.148202023670D-06  6 1 -2 25 -24 21 21 4 0.16035265D-01 0.56655685D-01 0.26663931D+05 0.26663931D+05 0.26663931D+05 0.12203087D+01  1  2  1  1  6  1        1 0.531677327449D-01 0.100000000000D+01
  </mgrwgt>
  </event>
  <event>
  5     66 0.42750230E-03 0.91969721E+02 0.75467711E-02 0.11693423E+00
        1 -1    0    0  502    0 0.00000000E+00 0.00000000E+00 0.11762158E+04 0.11762158E+04 0.32000000E+00 0.0000E+00 0.9000E+01
       -2 -1    0    0    0  501 0.00000000E+00 0.00000000E+00 -.40442002E+02 0.40443268E+02 0.32000000E+00 0.0000E+00 0.9000E+01
       25  1    1    2    0    0 -.84152492E+02 -.86259735E+01 0.17511996E+03 0.23118834E+03 0.12500000E+03 0.0000E+00 0.9000E+01
      -24  1    1    2    0    0 -.70765208E+01 -.30181633E+01 0.15694528E+03 0.17651692E+03 0.80419002E+02 0.0000E+00 0.9000E+01
       21  1    1    2  502  501 0.91229012E+02 0.11644137E+02 0.80370854E+03 0.80895383E+03 0.75000000E+00 0.0000E+00 0.9000E+01
#aMCatNLO 1  0  0  1  1 0.34285385D+02 0.00000000D+00  -5  6  0 0.00000000D+00 0.00000000D+00 0.00000000D+00 0.00000000D+00 0.00000000D+00
  <mgrwgt>
 0.2585866518D-01    7    4    0
 0.218103914399807D+03 0.000000000000000D+00 0.000000000000000D+00 0.218103914399807D+03
 0.218103914399807D+03 0.000000000000000D+00 0.000000000000000D+00 -.218103914399807D+03
 0.188857188078582D+03 -.841529063132403D+02 -.862602639685462D+01 -.113516155310971D+03
 0.836908887748293D+02 -.707670464063084D+01 -.301818672129208D+01 -.218577151114888D+02
 0.163659751946202D+03 0.912296109538712D+02 0.116442131181467D+02 0.135373870422460D+03
 0.000000000000000D+00 0.000000000000000D+00 0.000000000000000D+00 0.000000000000000D+00
 0.249646012295463D+03 0.000000000000000D+00 0.000000000000000D+00 0.249646012295463D+03
 0.228296407384194D+03 0.000000000000000D+00 0.000000000000000D+00 -.228296407384194D+03
 0.193878828087064D+03 -.929873955081158D+02 -.207708146312528D+02 -.113516155310971D+03
 0.844680397937342D+02 -.109582265636104D+02 -.835412191142223D+01 -.218577151114888D+02
 0.159206280347586D+03 0.837770683312367D+02 0.139918932976257D+01 0.135373870422460D+03
 0.403892714512729D+02 0.201685537404895D+02 0.277257472129124D+02 0.213496049112689D+02
 0.218103914399807D+03 0.000000000000000D+00 0.000000000000000D+00 0.218103914399807D+03
 0.218103914399807D+03 0.000000000000000D+00 0.000000000000000D+00 -.218103914399807D+03
 0.188857188078582D+03 -.841529063132403D+02 -.862602639685462D+01 -.113516155310971D+03
 0.836908887748293D+02 -.707670464063084D+01 -.301818672129208D+01 -.218577151114888D+02
 0.000000000000000D+00 0.000000000000000D+00 0.000000000000000D+00 0.000000000000000D+00
 0.163659751946202D+03 0.912296109538712D+02 0.116442131181467D+02 0.135373870422460D+03
 0.249646012295463D+03 0.000000000000000D+00 0.000000000000000D+00 0.249646012295463D+03
 0.228296407384194D+03 0.000000000000000D+00 0.000000000000000D+00 -.228296407384194D+03
 0.193878828087064D+03 -.929873955081158D+02 -.207708146312528D+02 -.113516155310971D+03
 0.844680397937342D+02 -.109582265636104D+02 -.835412191142223D+01 -.218577151114888D+02
 0.403892714512729D+02 0.201685537404895D+02 0.277257472129124D+02 0.213496049112689D+02
 0.159206280347586D+03 0.837770683312367D+02 0.139918932976257D+01 0.135373870422460D+03
0.111026216421D-03 0.000000000000D+00 0.000000000000D+00 0.521809045971D-05 0.000000000000D+00  6 1 -2 25 -24 21 21 2 0.18095638D+00 0.62219472D-02 0.26193812D+05 0.26193812D+05 0.26193812D+05 0.12211316D+01  1  2  2  1  6  1        1 0.242378792577D-01 0.100000000000D+01
-.608177636994D-05 0.585901440784D-05 -.426369904929D-06 0.521809045971D-05 0.000000000000D+00  6 1 -2 25 -24 21 21 4 0.18095638D+00 0.62219472D-02 0.26193812D+05 0.26193812D+05 0.26193812D+05 0.12211316D+01  1  2  3  1  6  1        1 -.197981434105D-02 0.100000000000D+01
0.574218180030D-05 0.000000000000D+00 0.000000000000D+00 0.521809045971D-05 0.000000000000D+00  6 1 -2 25 -24 21 21 4 0.18095638D+00 0.62219472D-02 0.26193812D+05 0.26193812D+05 0.26193812D+05 0.12211316D+01  1  2 15  1  6  1        1 0.186926535697D-02 0.100000000000D+01
-.220894697602D-03 0.000000000000D+00 0.000000000000D+00 0.521809045971D-05 0.000000000000D+00  6 1 -2 25 -24 21 21 4 0.18095638D+00 0.62219472D-02 0.26193812D+05 0.26193812D+05 0.26193812D+05 0.12211316D+01  1  2  4  1  6  1        1 -.719083477543D-01 0.100000000000D+01
-.811184729867D-03 0.000000000000D+00 -.186407761800D-03 0.521809045971D-05 0.000000000000D+00  6 1 -2 25 -24 21 21 4 0.21221318D+00 0.62219472D-02 0.26193812D+05 0.26193812D+05 0.26193812D+05 0.12211316D+01  1  2  5  1  6  1        1 -.192416278236D+00 0.100000000000D+01
0.832635780522D-03 0.000000000000D+00 0.184066300000D-03 0.521809045971D-05 0.000000000000D+00  6 1 -2 25 -24 21 21 4 0.18095638D+00 0.62219472D-02 0.26193812D+05 0.26193812D+05 0.26193812D+05 0.12211316D+01  1  2  6  1  6  1        1 0.271049798427D+00 0.100000000000D+01
-.179841710398D-04 0.000000000000D+00 -.446392979112D-05 0.521809045971D-05 0.000000000000D+00  6 21 -2 25 -24 -1 21 4 0.21221318D+00 0.62219472D-02 0.26193812D+05 0.26193812D+05 0.26193812D+05 0.12211316D+01  3  4  5  4  5  1        1 -.499383753441D-02 0.100000000000D+01
  </mgrwgt>
  </event>
  <event>
  6     66 0.42750230E-03 0.16339004E+03 0.75467711E-02 0.11188989E+00
        3 -1    0    0  502    0 0.00000000E+00 0.00000000E+00 0.21374632E+04 0.21374633E+04 0.50000000E+00 0.0000E+00 0.9000E+01
       -4 -1    0    0    0  501 0.00000000E+00 0.00000000E+00 -.31869214E+02 0.31906885E+02 0.15500000E+01 0.0000E+00 0.9000E+01
       25  1    1    2    0    0 -.95660792E+02 -.12920427E+03 0.64046978E+03 0.67206493E+03 0.12500000E+03 0.0000E+00 0.9000E+01
      -24  1    1    2    0    0 0.14951470E+02 -.38166284E+02 0.23379668E+03 0.25061587E+03 0.80419002E+02 0.0000E+00 0.9000E+01
       21  1    1    2  502  503 0.37297106E+02 0.11427184E+03 0.62162971E+03 0.63314547E+03 0.75000000E+00 0.0000E+00 0.9000E+01
       21  1    1    2  503  501 0.43412216E+02 0.53098712E+02 0.60969781E+03 0.61354387E+03 0.75000000E+00 0.0000E+00 0.9000E+01
#aMCatNLO 2  0  0  5  2 0.29376547D+02 0.00000000D+00  -5  6  0 0.00000000D+00 0.00000000D+00 0.00000000D+00 0.00000000D+00 0.00000000D+00
  <mgrwgt>
 0.5885122173D-04    3    2    0
 0.261075077011211D+03 0.000000000000000D+00 0.000000000000000D+00 0.261075077011211D+03
 0.261075077011211D+03 -.000000000000000D+00 -.000000000000000D+00 -.261075077011211D+03
 0.212188180134763D+03 -.970063828524025D+02 -.131994679979929D+03 -.506556011887323D+02
 0.991321384216536D+02 0.143210348673121D+02 -.394736444957409D+02 -.399587820664300D+02
 0.210829835466005D+03 0.826853479850903D+02 0.171468324475670D+03 0.906143832551623D+02
 0.000000000000000D+00 0.000000000000000D+00 0.000000000000000D+00 0.000000000000000D+00
 0.261075077011211D+03 0.000000000000000D+00 0.000000000000000D+00 0.261075077011211D+03
 0.261075077011211D+03 -.000000000000000D+00 -.000000000000000D+00 -.261075077011211D+03
 0.209495527142417D+03 -.956606453582372D+02 -.129203963620482D+03 -.491808154373424D+02
 0.984346495809765D+02 0.149515383219836D+02 -.381661411280568D+02 -.392678170638324D+02
 0.123369239540920D+03 0.371228110287711D+02 0.113948150830313D+03 0.292862610891051D+02
 0.908507377581083D+02 0.435862960074825D+02 0.534219539182254D+02 0.591623714120696D+02
-.679985445552D-04 0.000000000000D+00 0.000000000000D+00 0.116765589027D-05 0.000000000000D+00  6 3 -4 25 -24 21 21 4 0.32884339D+00 0.49058582D-02 0.58248274D+05 0.58248274D+05 0.58248274D+05 0.11857697D+01  1  2 13  3  6  5       21 -.222908959982D-03 0.100000000000D+01
-.707511788250D-04 0.000000000000D+00 0.000000000000D+00 0.116765589027D-05 0.000000000000D+00  6 3 -4 25 -24 21 21 4 0.32884339D+00 0.49058582D-02 0.58248274D+05 0.58248274D+05 0.58248274D+05 0.11857697D+01  1  2 13  3  6  5       21 -.231932489033D-03 0.100000000000D+01
0.156702332478D-03 0.000000000000D+00 0.000000000000D+00 0.116613105048D-05 0.821146111871D-08  6 3 -4 25 -24 21 21 4 0.32884339D+00 0.49058582D-02 0.58248274D+05 0.58248274D+05 0.58248274D+05 0.11857697D+01  1  2  1  3  6  5       21 0.513692670744D-03 0.100000000000D+01
  </mgrwgt>
  </event>
  <event>
  5     66 0.42750230E-03 0.27288164E+02 0.75467711E-02 0.11171027E+00
        1 -1    0    0  502    0 0.00000000E+00 0.00000000E+00 0.14533817E+03 0.14533852E+03 0.32000000E+00 0.0000E+00 0.9000E+01
       -2 -1    0    0    0  501 0.00000000E+00 0.00000000E+00 -.26305611E+03 0.26305630E+03 0.32000000E+00 0.0000E+00 0.9000E+01
       25  1    1    2    0    0 0.13788119E+02 0.46926357E+02 -.16468672E+03 0.21245920E+03 0.12500000E+03 0.0000E+00 0.9000E+01
      -24  1    1    2    0    0 -.36885575E+02 -.32395950E+02 -.41791982E+02 0.10307196E+03 0.80419002E+02 0.0000E+00 0.9000E+01
       21  1    1    2  502  501 0.23097455E+02 -.14530407E+02 0.88760766E+02 0.92863670E+02 0.75000000E+00 0.0000E+00 0.9000E+01
#aMCatNLO 1  0  0  1  2 0.99817651D+02 0.00000000D+00  -5  6  0 0.00000000D+00 0.00000000D+00 0.00000000D+00 0.00000000D+00 0.00000000D+00
  <mgrwgt>
 0.1695155424D+00    3    2    0
 0.195530575181409D+03 0.000000000000000D+00 0.000000000000000D+00 0.195530575181409D+03
 0.195530575181409D+03 0.000000000000000D+00 0.000000000000000D+00 -.195530575181409D+03
 0.172302728956561D+03 0.137879322010747D+02 0.469264742074350D+02 -.108032538385227D+03
 0.950603872358827D+02 -.368856777924133D+02 -.323958847207692D+02 -.126180305126563D+02
 0.123698034170374D+03 0.230977455913387D+02 -.145305894866657D+02 0.120650568897883D+03
 0.000000000000000D+00 0.000000000000000D+00 0.000000000000000D+00 -.000000000000000D+00
 0.291190776469412D+03 0.000000000000000D+00 0.000000000000000D+00 0.291190776469412D+03
 0.308047430676929D+03 0.000000000000000D+00 0.000000000000000D+00 -.308047430676929D+03
 0.166743074769056D+03 -.141501399105133D+01 -.224771299077197D+02 -.108032538385227D+03
 0.121124909477310D+03 -.465795108891335D+02 -.766496067362824D+02 -.126180305126563D+02
 0.139116726786094D+03 0.113130291152392D+02 -.683294904746965D+02 0.120650568897883D+03
 0.172253496113881D+03 0.366814957649456D+02 0.167456227118698D+03 -.168566542075174D+02
0.781594770687D-03 0.000000000000D+00 0.000000000000D+00 0.444229021680D-04 0.000000000000D+00  6 1 -2 25 -24 21 21 2 0.22359761D-01 0.40470213D-01 0.16350169D+05 0.16350169D+05 0.16350169D+05 0.12435778D+01  1  2  2  1  6  1        1 0.133762206311D+00 0.100000000000D+01
0.105711902024D-03 0.412458892160D-04 -.300152971807D-05 0.444229021680D-04 0.000000000000D+00  6 1 -2 25 -24 21 21 4 0.22359761D-01 0.40470213D-01 0.16350169D+05 0.16350169D+05 0.16350169D+05 0.12435778D+01  1  2  3  1  6  1        1 0.279783174973D-01 0.100000000000D+01
0.293767486121D-04 0.000000000000D+00 0.000000000000D+00 0.444229021680D-04 0.000000000000D+00  6 1 -2 25 -24 21 21 4 0.22359761D-01 0.40470213D-01 0.16350169D+05 0.16350169D+05 0.16350169D+05 0.12435778D+01  1  2 15  1  6  1        1 0.777501855487D-02 0.100000000000D+01
  </mgrwgt>
  </event>
  <event>
  5     66 0.42750230E-03 0.22519363E+02 0.75467711E-02 0.11167642E+00
        1 -1    0    0  502    0 0.00000000E+00 0.00000000E+00 0.70857552E+03 0.70857559E+03 0.32000000E+00 0.0000E+00 0.9000E+01
       -2 -1    0    0    0  501 0.00000000E+00 0.00000000E+00 -.13397881E+03 0.13397919E+03 0.32000000E+00 0.0000E+00 0.9000E+01
       25  1    1    2    0    0 -.16450202E+03 0.11068869E+03 0.53616552E+03 0.58515927E+03 0.12500000E+03 0.0000E+00 0.9000E+01
      -24  1    1    2    0    0 0.14660375E+03 -.97032317E+02 -.20399515E+02 0.19439981E+03 0.80419002E+02 0.0000E+00 0.9000E+01
       21  1    1    2  502  501 0.17898275E+02 -.13656377E+02 0.58830701E+02 0.62995704E+02 0.75000000E+00 0.0000E+00 0.9000E+01
#aMCatNLO 1  0  0  1  2 0.38396084D+02 0.00000000D+00  -5  6  0 0.00000000D+00 0.00000000D+00 0.00000000D+00 0.00000000D+00 0.00000000D+00
  <mgrwgt>
 0.4038077164D+00    7    4    0
 0.308114095381048D+03 0.000000000000000D+00 0.000000000000000D+00 0.308114095381048D+03
 0.308114095381048D+03 0.000000000000000D+00 0.000000000000000D+00 -.308114095381048D+03
 0.300132175591562D+03 -.164504530667505D+03 0.110690607338167D+03 0.187457119529496D+03
 0.284820062897277D+03 0.146601368867604D+03 -.970305013393526D+02 -.209161116679025D+03
 0.312759522732575D+02 0.179031617999020D+02 -.136601059988148D+02 0.217039971495289D+02
 0.000000000000000D+00 0.000000000000000D+00 0.000000000000000D+00 0.000000000000000D+00
 0.405948095921214D+03 0.000000000000000D+00 0.000000000000000D+00 0.405948095921214D+03
 0.312502010431842D+03 0.000000000000000D+00 0.000000000000000D+00 -.312502010431842D+03
 0.305947806894278D+03 -.180673632760552D+03 0.100974884531888D+03 0.187457119529496D+03
 0.280656609874203D+03 0.131515488591906D+03 -.106095335626621D+03 -.209161116679025D+03
 0.308188111427602D+02 0.162465874233665D+02 -.146555117645639D+02 0.217039971495289D+02
 0.101026878441814D+03 0.329115567452790D+02 0.197759628592969D+02 0.934460854893723D+02
 0.308114095381048D+03 0.000000000000000D+00 0.000000000000000D+00 0.308114095381048D+03
 0.308114095381048D+03 0.000000000000000D+00 0.000000000000000D+00 -.308114095381048D+03
 0.300132175591562D+03 -.164504530667505D+03 0.110690607338167D+03 0.187457119529496D+03
 0.284820062897277D+03 0.146601368867604D+03 -.970305013393526D+02 -.209161116679025D+03
 0.000000000000000D+00 0.000000000000000D+00 0.000000000000000D+00 0.000000000000000D+00
 0.312759522732575D+02 0.179031617999020D+02 -.136601059988148D+02 0.217039971495289D+02
 0.405948095921214D+03 0.000000000000000D+00 0.000000000000000D+00 0.405948095921214D+03
 0.312502010431842D+03 0.000000000000000D+00 0.000000000000000D+00 -.312502010431842D+03
 0.305947806894278D+03 -.180673632760552D+03 0.100974884531888D+03 0.187457119529496D+03
 0.280656609874203D+03 0.131515488591906D+03 -.106095335626621D+03 -.209161116679025D+03
 0.101026878441814D+03 0.329115567452790D+02 0.197759628592969D+02 0.934460854893723D+02
 0.308188111427602D+02 0.162465874233665D+02 -.146555117645639D+02 0.217039971495289D+02
0.146718989665D-02 0.000000000000D+00 0.000000000000D+00 0.166241102723D-04 0.000000000000D+00  6 1 -2 25 -24 21 21 2 0.10901165D+00 0.20612160D-01 0.50677708D+05 0.50677708D+05 0.50677708D+05 0.11917031D+01  1  2  2  1  6  1        1 0.101891534554D+00 0.100000000000D+01
0.449634958539D-03 0.774257379980D-04 -.563439552309D-05 0.166241102723D-04 0.000000000000D+00  6 1 -2 25 -24 21 21 4 0.10901165D+00 0.20612160D-01 0.50677708D+05 0.50677708D+05 0.50677708D+05 0.11917031D+01  1  2  3  1  6  1        1 0.443453419354D-01 0.100000000000D+01
0.115273957809D-04 0.000000000000D+00 0.000000000000D+00 0.166241102723D-04 0.000000000000D+00  6 1 -2 25 -24 21 21 4 0.10901165D+00 0.20612160D-01 0.50677708D+05 0.50677708D+05 0.50677708D+05 0.11917031D+01  1  2 15  1  6  1        1 0.113689182262D-02 0.100000000000D+01
-.322019506995D-02 0.000000000000D+00 0.000000000000D+00 0.166241102723D-04 0.000000000000D+00  6 1 -2 25 -24 21 21 4 0.10901165D+00 0.20612160D-01 0.50677708D+05 0.50677708D+05 0.50677708D+05 0.11917031D+01  1  2  4  1  6  1        1 -.317592413053D+00 0.100000000000D+01
-.190512394008D-01 0.000000000000D+00 -.165065715237D-02 0.166241102723D-04 0.000000000000D+00  6 1 -2 25 -24 21 21 4 0.14449058D+00 0.20612160D-01 0.50677708D+05 0.50677708D+05 0.50677708D+05 0.11917031D+01  1  2  5  1  6  1        1 -.121324549039D+01 0.100000000000D+01
0.188274515226D-01 0.000000000000D+00 0.158723517301D-02 0.166241102723D-04 0.000000000000D+00  6 1 -2 25 -24 21 21 4 0.10901165D+00 0.20612160D-01 0.50677708D+05 0.50677708D+05 0.50677708D+05 0.11917031D+01  1  2  6  1  6  1        1 0.185686134872D+01 0.100000000000D+01
-.670173817853D-03 0.000000000000D+00 -.609722529787D-04 0.166241102723D-04 0.000000000000D+00  6 21 -2 25 -24 -1 21 4 0.14449058D+00 0.20612160D-01 0.50677708D+05 0.50677708D+05 0.50677708D+05 0.11917031D+01  3  4  5  4  5  1        1 -.695894972109D-01 0.100000000000D+01
  </mgrwgt>
  </event>
  <event>
  5     66 0.42750230E-03 0.53256991E+02 0.75467711E-02 0.11175372E+00
        3 -1    0    0  502    0 0.00000000E+00 0.00000000E+00 0.43263264E+03 0.43263293E+03 0.50000000E+00 0.0000E+00 0.9000E+01
       -4 -1    0    0    0  501 0.00000000E+00 0.00000000E+00 -.10015877E+03 0.10017076E+03 0.15500000E+01 0.0000E+00 0.9000E+01
       25  1    1    2    0    0 0.91474243E+02 -.73489421E+02 0.16972149E+03 0.24124389E+03 0.12500000E+03 0.0000E+00 0.9000E+01
      -24  1    1    2    0    0 -.10480001E+03 0.12504878E+03 0.15240018E+03 0.23730417E+03 0.80419002E+02 0.0000E+00 0.9000E+01
       21  1    1    2  502  501 0.13325771E+02 -.51559355E+02 0.10352207E+02 0.54255635E+02 0.75000000E+00 0.0000E+00 0.9000E+01
#aMCatNLO 1  0  0  1  2 0.38396084D+02 0.00000000D+00  -5  6  0 0.00000000D+00 0.00000000D+00 0.00000000D+00 0.00000000D+00 0.00000000D+00
  <mgrwgt>
 0.1293407057D-01    4    2    0
 0.208171146218788D+03 0.000000000000000D+00 0.000000000000000D+00 0.208171146218788D+03
 0.208171146218788D+03 0.000000000000000D+00 0.000000000000000D+00 -.208171146218788D+03
 0.173192485608248D+03 0.914738259601772D+02 -.734878082621397D+02 0.245503212239117D+02
 0.181985029865166D+03 -.104800451323277D+03 0.125050470488875D+03 0.552995240514188D+01
 0.611647769641614D+02 0.133266253631003D+02 -.515626622267358D+02 -.300802736290536D+02
 0.000000000000000D+00 -.000000000000000D+00 -.000000000000000D+00 -.000000000000000D+00
 0.225873981761028D+03 0.000000000000000D+00 0.000000000000000D+00 0.225873981761028D+03
 0.304376743035599D+03 0.000000000000000D+00 0.000000000000000D+00 -.304376743035599D+03
 0.189532176490093D+03 0.122739884842137D+03 -.680415191027758D+02 0.245503212239117D+02
 0.170370609400868D+03 -.744281791404295D+02 0.130341069389082D+03 0.552995240514188D+01
 0.628633048708670D+02 0.240175700792309D+02 -.497003879781442D+02 -.300802736290536D+02
 0.107484634034799D+03 -.723292757809381D+02 -.125991623081622D+02 -.785027612745710D+02
0.532054375149D-03 0.000000000000D+00 0.000000000000D+00 0.627611102473D-05 0.000000000000D+00  6 3 -4 25 -24 21 21 2 0.66559813D-01 0.15409987D-01 0.41331218D+05 0.41331218D+05 0.41331218D+05 0.12005591D+01  1  2  2  1  6  1        3 0.127732498919D-01 0.100000000000D+01
0.369477820217D-04 0.280772807563D-04 -.204322889371D-05 0.627611102473D-05 0.000000000000D+00  6 3 -4 25 -24 21 21 4 0.66559813D-01 0.15409987D-01 0.41331218D+05 0.41331218D+05 0.41331218D+05 0.12005591D+01  1  2  3  1  6  1        3 0.127850030562D-02 0.100000000000D+01
0.966819012240D-05 0.000000000000D+00 0.000000000000D+00 0.627611102473D-05 0.000000000000D+00  6 3 -4 25 -24 21 21 4 0.66559813D-01 0.15409987D-01 0.41331218D+05 0.41331218D+05 0.41331218D+05 0.12005591D+01  1  2 15  1  6  1        3 0.334547389583D-03 0.100000000000D+01
-.419683647891D-04 0.000000000000D+00 0.000000000000D+00 0.627611102473D-05 0.000000000000D+00  6 3 -4 25 -24 21 21 4 0.66559813D-01 0.15409987D-01 0.41331218D+05 0.41331218D+05 0.41331218D+05 0.12005591D+01  1  2  4  1  6  1        3 -.145222701535D-02 0.100000000000D+01
  </mgrwgt>
  </event>
  <event>
  5     66 0.42750230E-03 0.36303364E+02 0.75467711E-02 0.12390684E+00
        1 -1    0    0  502    0 0.00000000E+00 0.00000000E+00 0.41511790E+03 0.41511802E+03 0.32000000E+00 0.0000E+00 0.9000E+01
       -2 -1    0    0    0  501 0.00000000E+00 0.00000000E+00 -.57873270E+02 0.57874154E+02 0.32000000E+00 0.0000E+00 0.9000E+01
       25  1    1    2    0    0 0.69686423E+01 -.18682677E+02 0.86306290E+02 0.15320372E+03 0.12500000E+03 0.0000E+00 0.9000E+01
      -24  1    1    2    0    0 0.55650458E+01 -.15387400E+02 0.50457037E+02 0.96337274E+02 0.80419002E+02 0.0000E+00 0.9000E+01
       21  1    1    2  502  501 -.12533688E+02 0.34070077E+02 0.22048130E+03 0.22345118E+03 0.75000000E+00 0.0000E+00 0.9000E+01
#aMCatNLO 1  0  0  2  2 0.50396315D+03 0.00000000D+00  -5  6  0 0.00000000D+00 0.00000000D+00 0.00000000D+00 0.00000000D+00 0.00000000D+00
  <mgrwgt>
 0.9393210156D-03    1    2    0
 0.154998284971488D+03 0.000000000000000D+00 0.000000000000000D+00 0.154998284971488D+03
 0.154998284971488D+03 0.000000000000000D+00 0.000000000000000D+00 -.154998284971488D+03
 0.134297813885184D+03 0.696884477996285D+01 -.186832278031707D+02 -.448695332673201D+02
 0.888441879609403D+02 0.556517972483327D+01 -.153877636267140D+02 -.340340900461147D+02
 0.868545680968509D+02 -.125340245047961D+02 0.340709914298847D+02 0.789036233134347D+02
 0.000000000000000D+00 0.000000000000000D+00 -.000000000000000D+00 0.000000000000000D+00
 0.161755088608983D+03 0.000000000000000D+00 0.000000000000000D+00 0.161755088608983D+03
 0.161674880442914D+03 0.000000000000000D+00 0.000000000000000D+00 -.161674880442914D+03
 0.133599888724278D+03 0.370466058557201D+01 -.140332013973290D+02 -.448695332673201D+02
 0.882540340177992D+02 0.340733659513521D+01 -.123137865055691D+02 -.340340900461147D+02
 0.884216098752580D+02 -.146696670437836D+02 0.371133424763716D+02 0.789036233134347D+02
 0.131544364345612D+02 0.755766986307642D+01 -.107663545734734D+02 0.802081660689345D-01
0.995860535098D-06 0.000000000000D+00 0.000000000000D+00 0.270603652612D-04 0.000000000000D+00  6 1 -2 25 -24 21 21 4 0.63864369D-01 0.89036575D-02 0.15000217D+05 0.15000217D+05 0.15000217D+05 0.12478218D+01  1  2 14  2  6  2       -2 0.939321015558D-03 0.100000000000D+01
  </mgrwgt>
  </event>
  <event>
  6     66 0.42750230E-03 0.55132785E+02 0.75467711E-02 0.11753305E+00
        1 -1    0    0  502    0 0.00000000E+00 0.00000000E+00 0.20334555E+04 0.20334555E+04 0.32000000E+00 0.0000E+00 0.9000E+01
       21 -1    0    0  503  501 0.00000000E+00 0.00000000E+00 -.20468493E+02 0.20482229E+02 0.75000000E+00 0.0000E+00 0.9000E+01
       25  1    1    2    0    0 -.46176919E+02 -.86878271E+02 0.14272229E+04 0.14360607E+04 0.12500000E+03 0.0000E+00 0.9000E+01
      -24  1    1    2    0    0 0.81348896E+02 0.43639885E+02 0.42608579E+03 0.44332652E+03 0.80419002E+02 0.0000E+00 0.9000E+01
        2  1    1    2  503    0 -.27883394E+01 -.47276650E+01 0.92493206E+00 0.55752625E+01 0.32000000E+00 0.0000E+00 0.9000E+01
       21  1    1    2  502  501 -.32383638E+02 0.47966052E+02 0.15875333E+03 0.16897522E+03 0.75000000E+00 0.0000E+00 0.9000E+01
#aMCatNLO 2  0  0  2  5 0.54886841D+01 0.00000000D+00  -5  6  0 0.00000000D+00 0.00000000D+00 0.00000000D+00 0.00000000D+00 0.00000000D+00
  <mgrwgt>
 0.2698374560D-02    2    2    0
 0.191940733436314D+03 0.000000000000000D+00 0.000000000000000D+00 0.191940733436314D+03
 0.191940733436314D+03 0.000000000000000D+00 0.000000000000000D+00 -.191940733436314D+03
 0.183524514567771D+03 -.475037874657818D+02 -.891308827121714D+02 0.886302621607935D+02
 0.131158008014678D+03 0.803928832765873D+02 0.420168877983995D+02 -.500676798965319D+02
 0.000000000000000D+00 -.000000000000000D+00 -.000000000000000D+00 -.000000000000000D+00
 0.691989442901784D+02 -.328890958108054D+02 0.471139949137719D+02 -.385625822642616D+02
 0.192266627684982D+03 0.000000000000000D+00 0.000000000000000D+00 0.192266627684982D+03
 0.216550622197123D+03 0.000000000000000D+00 0.000000000000000D+00 -.216550622197123D+03
 0.182100541612521D+03 -.461759887352884D+02 -.868795830399805D+02 0.886302621607935D+02
 0.132272806704383D+03 0.813495548597961D+02 0.436389366618383D+02 -.500676798965319D+02
 0.248965467922688D+02 -.278833939117009D+01 -.472766497898760D+01 -.242839945121418D+02
 0.695473547729328D+02 -.323852267333377D+02 0.479683113571298D+02 -.385625822642616D+02
-.290786475706D-04 0.000000000000D+00 0.000000000000D+00 0.502847990549D-05 0.000000000000D+00  6 1 21 25 -24 2 21 4 0.31230843D+00 0.31809015D-02 0.29734355D+05 0.29734355D+05 0.29734355D+05 0.12153040D+01  1  2 13  5  5  2       -2 -.135394941493D+00 0.100000000000D+01
0.293323505183D-04 0.000000000000D+00 0.000000000000D+00 0.504061669141D-05 0.261898969353D-07  6 1 21 25 -24 2 21 4 0.31283869D+00 0.31500407D-02 0.29734355D+05 0.29734355D+05 0.29734355D+05 0.12153040D+01  1  2  1  5  5  2       -2 0.138093316053D+00 0.100000000000D+01
  </mgrwgt>
  </event>
  <event>
  5     66 -.42750230E-03 0.31949011E+02 0.75467711E-02 0.11883093E+00
        3 -1    0    0  502    0 0.00000000E+00 0.00000000E+00 0.21128385E+02 0.21134300E+02 0.50000000E+00 0.0000E+00 0.9000E+01
       -4 -1    0    0    0  501 0.00000000E+00 0.00000000E+00 -.16542038E+04 0.16542046E+04 0.15500000E+01 0.0000E+00 0.9000E+01
       25  1    1    2    0    0 -.90681869E+02 0.26722834E+02 -.66574981E+03 0.68394818E+03 0.12500000E+03 0.0000E+00 0.9000E+01
      -24  1    1    2    0    0 0.10214395E+03 0.30977438E+01 -.94112501E+03 0.95006657E+03 0.80419002E+02 0.0000E+00 0.9000E+01
       21  1    1    2  502  501 -.11462085E+02 -.29820577E+02 -.26200626E+02 0.41324103E+02 0.75000000E+00 0.0000E+00 0.9000E+01
#aMCatNLO 1  0  0  1  2 0.18632652D+01 0.00000000D+00  -5  6  0 0.00000000D+00 0.00000000D+00 0.00000000D+00 0.00000000D+00 0.00000000D+00
  <mgrwgt>
 -.3961868498D-01    9    4    0
 0.186965822561665D+03 0.000000000000000D+00 0.000000000000000D+00 0.186965822561665D+03
 0.186965822561665D+03 0.000000000000000D+00 0.000000000000000D+00 -.186965822561665D+03
 0.156780728122695D+03 -.906815991019689D+02 0.267235368859558D+02 0.423046939440894D+01
 0.146432119417790D+03 0.102144206716542D+03 0.309840051841396D+01 -.673209520973315D+02
 0.707187975828462D+02 -.114626076145726D+02 -.298219374043697D+02 0.630904827029226D+02
 0.000000000000000D+00 0.000000000000000D+00 0.000000000000000D+00 0.000000000000000D+00
 0.191509500533233D+03 0.000000000000000D+00 0.000000000000000D+00 0.191509500533233D+03
 0.187159262610421D+03 0.000000000000000D+00 0.000000000000000D+00 -.187159262610421D+03
 0.157074941312488D+03 -.913203125579695D+02 0.262724348193938D+02 0.423046939440894D+01
 0.146009289970486D+03 0.101549072451151D+03 0.267807698447640D+01 -.673209520973315D+02
 0.708520560468114D+02 -.117507120459932D+02 -.300254159802138D+02 0.630904827029226D+02
 0.473247581386766D+01 0.152195215281201D+01 0.107490417634360D+01 0.435023792281208D+01
 0.186965822561665D+03 0.000000000000000D+00 0.000000000000000D+00 0.186965822561665D+03
 0.186965822561665D+03 0.000000000000000D+00 0.000000000000000D+00 -.186965822561665D+03
 0.156780728122695D+03 -.906815991019689D+02 0.267235368859558D+02 0.423046939440894D+01
 0.146432119417790D+03 0.102144206716542D+03 0.309840051841396D+01 -.673209520973315D+02
 0.000000000000000D+00 0.000000000000000D+00 0.000000000000000D+00 0.000000000000000D+00
 0.707187975828462D+02 -.114626076145726D+02 -.298219374043697D+02 0.630904827029226D+02
 0.191509500533233D+03 0.000000000000000D+00 0.000000000000000D+00 0.191509500533233D+03
 0.187159262610421D+03 0.000000000000000D+00 0.000000000000000D+00 -.187159262610421D+03
 0.157074941312488D+03 -.913203125579695D+02 0.262724348193938D+02 0.423046939440894D+01
 0.146009289970486D+03 0.101549072451151D+03 0.267807698447640D+01 -.673209520973315D+02
 0.473247581386766D+01 0.152195215281201D+01 0.107490417634360D+01 0.435023792281208D+01
 0.708520560468114D+02 -.117507120459932D+02 -.300254159802138D+02 0.630904827029226D+02
0.522365673546D-03 0.000000000000D+00 0.000000000000D+00 0.196355401425D-04 0.000000000000D+00  6 3 -4 25 -24 21 21 2 0.32510317D-02 0.25449341D+00 0.25394349D+05 0.25394349D+05 0.25394349D+05 0.12225696D+01  1  2  2  1  6  1        3 0.488518809269D-02 0.100000000000D+01
0.517138977035D-04 0.275659939259D-04 -.200602172846D-05 0.196355401425D-04 0.000000000000D+00  6 3 -4 25 -24 21 21 4 0.32510317D-02 0.25449341D+00 0.25394349D+05 0.25394349D+05 0.25394349D+05 0.12225696D+01  1  2  3  1  6  1        3 0.722871503198D-03 0.100000000000D+01
0.180832175473D-04 0.000000000000D+00 0.000000000000D+00 0.196355401425D-04 0.000000000000D+00  6 3 -4 25 -24 21 21 4 0.32510317D-02 0.25449341D+00 0.25394349D+05 0.25394349D+05 0.25394349D+05 0.12225696D+01  1  2 15  1  6  1        3 0.252772334547D-03 0.100000000000D+01
-.252419250306D-01 0.000000000000D+00 0.000000000000D+00 0.196355401425D-04 0.000000000000D+00  6 3 -4 25 -24 21 21 4 0.32510317D-02 0.25449341D+00 0.25394349D+05 0.25394349D+05 0.25394349D+05 0.12225696D+01  1  2  4  1  6  1        3 -.352838774503D+00 0.100000000000D+01
-.115995994390D+00 0.000000000000D+00 -.627945841906D-02 0.196355401425D-04 0.000000000000D+00  6 3 -4 25 -24 21 21 4 0.33334614D-02 0.25449341D+00 0.25394349D+05 0.25394349D+05 0.25394349D+05 0.12225696D+01  1  2  5  1  6  1        3 -.155943789229D+01 0.100000000000D+01
0.116118790760D+00 0.000000000000D+00 0.627749050211D-02 0.196355401425D-04 0.000000000000D+00  6 3 -4 25 -24 21 21 4 0.32510317D-02 0.25449341D+00 0.25394349D+05 0.25394349D+05 0.25394349D+05 0.12225696D+01  1  2  6  1  6  1        3 0.162314133248D+01 0.100000000000D+01
0.248824332775D-01 0.000000000000D+00 0.000000000000D+00 0.196355401425D-04 0.109907932814D-04  6 3 -4 25 -24 21 21 4 0.33300388D-02 0.25475671D+00 0.25710078D+05 0.25710078D+05 0.25710078D+05 0.12219957D+01  1  2 11  1  6  1        3 0.333426736934D+00 0.100000000000D+01
-.523268042652D-03 0.000000000000D+00 -.284040621486D-04 0.196355401425D-04 0.000000000000D+00  6 21 -4 25 -24 -3 21 4 0.33334614D-02 0.25449341D+00 0.25394349D+05 0.25394349D+05 0.25394349D+05 0.12225696D+01  3  4  5  4  5  1        3 -.178225522761D+00 0.100000000000D+01
0.260641677771D-03 0.000000000000D+00 0.000000000000D+00 0.196355401425D-04 0.228932775096D-06  6 21 -4 25 -24 -3 21 4 0.33300388D-02 0.25475671D+00 0.25710078D+05 0.25710078D+05 0.25710078D+05 0.12219957D+01  3  4 11  4  5  1        3 0.884546032343D-01 0.100000000000D+01
  </mgrwgt>
  </event>
  <event>
  6     66 0.42750230E-03 0.28638324E+02 0.75467711E-02 0.11440310E+00
        1 -1    0    0  502    0 0.00000000E+00 0.00000000E+00 0.72361887E+03 0.72361895E+03 0.32000000E+00 0.0000E+00 0.9000E+01
       -2 -1    0    0    0  503 0.00000000E+00 0.00000000E+00 -.76721627E+02 0.76722295E+02 0.32000000E+00 0.0000E+00 0.9000E+01
       25  1    1    2    0    0 -.15067351E+03 0.20023999E+02 0.45346478E+03 0.49432659E+03 0.12500000E+03 0.0000E+00 0.9000E+01
      -24  1    1    2    0    0 0.13833612E+03 0.76272039E+01 0.18628373E+03 0.24569066E+03 0.80419002E+02 0.0000E+00 0.9000E+01
       21  1    1    2  502  501 0.15763775E+02 0.10234355E+02 0.11471378E+02 0.22031651E+02 0.75000000E+00 0.0000E+00 0.9000E+01
       21  1    1    2  501  503 -.34263895E+01 -.37885558E+02 -.43226412E+01 0.38292341E+02 0.75000000E+00 0.0000E+00 0.9000E+01
#aMCatNLO 2  0  0  2  5 0.54886841D+01 0.00000000D+00  -5  6  0 0.00000000D+00 0.00000000D+00 0.00000000D+00 0.00000000D+00 0.00000000D+00
  <mgrwgt>
 0.1652070144D-01    1    2    0
 0.196967082469321D+03 0.000000000000000D+00 0.000000000000000D+00 0.196967082469321D+03
 0.196967082469321D+03 0.000000000000000D+00 0.000000000000000D+00 -.196967082469321D+03
 0.206012028780988D+03 -.152464208690215D+03 0.271809118237827D+00 0.597540558517037D+02
 0.165388479613828D+03 0.136892236586095D+03 -.829966088903357D+01 -.455825013155989D+02
 0.225336565438269D+02 0.155719721041200D+02 0.802785177079574D+01 -.141715545361048D+02
 0.000000000000000D+00 -.000000000000000D+00 -.000000000000000D+00 -.000000000000000D+00
 0.202637958020685D+03 0.000000000000000D+00 0.000000000000000D+00 0.202637958020685D+03
 0.273969299099728D+03 0.000000000000000D+00 0.000000000000000D+00 -.273969299099728D+03
 0.205670333111975D+03 -.150677982504532D+03 0.200220957950525D+02 0.597540558517037D+02
 0.166550268596783D+03 0.138332467548069D+03 0.762495974848382D+01 -.455825013155989D+02
 0.235459733796103D+02 0.157719045015572D+02 0.102385024694672D+02 -.141715545361048D+02
 0.808406820320447D+02 -.342638954509454D+01 -.378855580130036D+02 -.713313410790429D+02
0.667897111894D-04 0.000000000000D+00 0.000000000000D+00 0.533138192566D-04 0.802384650916D-07  6 1 -2 25 -24 21 21 4 0.11132510D+00 0.11803285D-01 0.42814615D+05 0.42814615D+05 0.42814615D+05 0.11990128D+01  1  2  1  2  6  2       -2 0.165207014414D-01 0.100000000000D+01
  </mgrwgt>
  </event>
  <event>
  5     66 0.42750230E-03 0.37268061E+02 0.75467711E-02 0.12242383E+00
        1 -1    0    0  502    0 0.00000000E+00 0.00000000E+00 0.88485252E+03 0.88485258E+03 0.32000000E+00 0.0000E+00 0.9000E+01
       -2 -1    0    0    0  501 0.00000000E+00 0.00000000E+00 -.29331922E+02 0.29333667E+02 0.32000000E+00 0.0000E+00 0.9000E+01
       25  1    1    2    0    0 -.41774968E+02 0.13562389E+02 0.18616119E+03 0.22849524E+03 0.12500000E+03 0.0000E+00 0.9000E+01
      -24  1    1    2    0    0 0.26904450E+02 0.20609032E+02 0.25224568E+03 0.26691512E+03 0.80419002E+02 0.0000E+00 0.9000E+01
       21  1    1    2  502  501 0.14870518E+02 -.34171421E+02 0.41711373E+03 0.41877589E+03 0.75000000E+00 0.0000E+00 0.9000E+01
#aMCatNLO 1  0  0  5  2 0.10050140D+02 0.00000000D+00  -5  6  0 0.00000000D+00 0.00000000D+00 0.00000000D+00 0.00000000D+00 0.00000000D+00
  <mgrwgt>
 0.1995209891D+00    9    2    0
 0.161106329502338D+03 0.000000000000000D+00 0.000000000000000D+00 0.161106329502338D+03
 0.161106329502338D+03 -.000000000000000D+00 -.000000000000000D+00 -.161106329502338D+03
 0.154006248689832D+03 -.417752751423176D+02 0.135630952319796D+02 -.785098304037541D+02
 0.875469850164769D+02 0.269042749048052D+02 0.206094334028565D+02 0.697637998997913D+01
 0.806594252983666D+02 0.148710002375124D+02 -.341725286348361D+02 0.715334504137750D+02
 0.000000000000000D+00 -.000000000000000D+00 0.000000000000000D+00 0.000000000000000D+00
 0.161106329502338D+03 0.000000000000000D+00 0.000000000000000D+00 0.161106329502338D+03
 0.161106329502338D+03 -.000000000000000D+00 -.000000000000000D+00 -.161106329502338D+03
 0.150143766053879D+03 -.404109291255926D+02 0.104279225751497D+02 -.719469646532419D+02
 0.877683254013430D+02 0.276906984913403D+02 0.188022864658138D+02 0.107592857618267D+02
 0.735370606785306D+02 0.227021298364302D+02 -.269846406417774D+02 0.645301616576457D+02
 0.107635068709232D+02 -.998189920217788D+01 -.224556839918608D+01 -.334248276623049D+01
0.143174440927D-03 0.000000000000D+00 0.000000000000D+00 0.195021553604D-04 0.000000000000D+00  6 1 -2 25 -24 21 21 2 0.13613130D+00 0.45127421D-02 0.16515931D+05 0.16515931D+05 0.16515931D+05 0.12430839D+01  1  2  2  3  6  5       21 0.852518827973D-01 0.100000000000D+01
0.466228850387D-05 0.755552282397D-05 -.549827551854D-06 0.195021553604D-04 0.000000000000D+00  6 1 -2 25 -24 21 21 4 0.13613130D+00 0.45127421D-02 0.16515931D+05 0.16515931D+05 0.16515931D+05 0.12430839D+01  1  2  3  3  6  5       21 0.428981472939D-02 0.100000000000D+01
0.482805230495D-05 0.000000000000D+00 0.000000000000D+00 0.195021553604D-04 0.000000000000D+00  6 1 -2 25 -24 21 21 4 0.13613130D+00 0.45127421D-02 0.16515931D+05 0.16515931D+05 0.16515931D+05 0.12430839D+01  1  2 15  3  6  5       21 0.444233553433D-02 0.100000000000D+01
0.215064257990D-03 0.000000000000D+00 0.000000000000D+00 0.194158998905D-04 0.000000000000D+00  6 1 -2 25 -24 21 21 4 0.13613130D+00 0.45127421D-02 0.17474848D+05 0.17474848D+05 0.17474848D+05 0.12403319D+01  1  2 12  3  6  5       21 0.196347715570D+00 0.100000000000D+01
-.104347981633D-03 0.000000000000D+00 0.000000000000D+00 0.195021553604D-04 0.000000000000D+00  6 1 -2 25 -24 21 21 4 0.13613130D+00 0.45127421D-02 0.16515931D+05 0.16515931D+05 0.16515931D+05 0.12430839D+01  1  2  4  3  6  5       21 -.960115420182D-01 0.100000000000D+01
0.142413475141D-05 0.000000000000D+00 0.000000000000D+00 0.194158998905D-04 0.000000000000D+00  6 1 -2 25 -24 1 -1 4 0.13613130D+00 0.45127421D-02 0.17474848D+05 0.17474848D+05 0.17474848D+05 0.12403319D+01  1  2 12  6  6  5       21 0.130019561463D-02 0.100000000000D+01
0.142413475141D-05 0.000000000000D+00 0.000000000000D+00 0.194158998905D-04 0.000000000000D+00  6 1 -2 25 -24 2 -2 4 0.13613130D+00 0.45127421D-02 0.17474848D+05 0.17474848D+05 0.17474848D+05 0.12403319D+01  1  2 12  7  6  5       21 0.130019561463D-02 0.100000000000D+01
0.142413475141D-05 0.000000000000D+00 0.000000000000D+00 0.194158998905D-04 0.000000000000D+00  6 1 -2 25 -24 3 -3 4 0.13613130D+00 0.45127421D-02 0.17474848D+05 0.17474848D+05 0.17474848D+05 0.12403319D+01  1  2 12  8  6  5       21 0.130019561463D-02 0.100000000000D+01
0.142413475141D-05 0.000000000000D+00 0.000000000000D+00 0.194158998905D-04 0.000000000000D+00  6 1 -2 25 -24 4 -4 4 0.13613130D+00 0.45127421D-02 0.17474848D+05 0.17474848D+05 0.17474848D+05 0.12403319D+01  1  2 12  8  6  5       21 0.130019561463D-02 0.100000000000D+01
  </mgrwgt>
  </event>
  <event>
  5     66 0.42750230E-03 0.13469224E+03 0.75467711E-02 0.10787232E+00
        1 -1    0    0  502    0 0.00000000E+00 0.00000000E+00 0.11539728E+04 0.11539728E+04 0.32000000E+00 0.0000E+00 0.9000E+01
       -2 -1    0    0    0  501 0.00000000E+00 0.00000000E+00 -.65384620E+02 0.65385403E+02 0.32000000E+00 0.0000E+00 0.9000E+01
       25  1    1    2    0    0 0.10331361E+03 0.29096020E+02 0.52082726E+03 0.54626579E+03 0.12500000E+03 0.0000E+00 0.9000E+01
      -24  1    1    2    0    0 -.20248712E+03 0.62042348E+02 0.34269108E+03 0.41079761E+03 0.80419002E+02 0.0000E+00 0.9000E+01
       21  1    1    2  502  501 0.99173507E+02 -.91138368E+02 0.22506980E+03 0.26229480E+03 0.75000000E+00 0.0000E+00 0.9000E+01
#aMCatNLO 1  0  0  2  2 0.93642499D+02 0.00000000D+00  -5  6  0 0.00000000D+00 0.00000000D+00 0.00000000D+00 0.00000000D+00 0.00000000D+00
  <mgrwgt>
 0.3790525702D-01    7    4    0
 0.274686319293065D+03 0.000000000000000D+00 0.000000000000000D+00 0.274686319293065D+03
 0.274686319293065D+03 0.000000000000000D+00 0.000000000000000D+00 -.274686319293065D+03
 0.180437098113576D+03 0.103313114632029D+03 0.290964740685698D+02 0.735686204672515D+02
 0.232738868595181D+03 -.202487752209345D+03 0.620429336581106D+02 -.533811726069820D+02
 0.136196671877374D+03 0.991746375773156D+02 -.911394077266804D+02 -.201874478602695D+02
 0.000000000000000D+00 0.000000000000000D+00 0.000000000000000D+00 -.000000000000000D+00
 0.323994844521850D+03 0.000000000000000D+00 0.000000000000000D+00 0.323994844521850D+03
 0.326991947369965D+03 0.000000000000000D+00 0.000000000000000D+00 -.326991947369965D+03
 0.169357320336824D+03 0.873330764909965D+02 0.418255721215541D+01 0.735686204672515D+02
 0.245828377610224D+03 -.224350659231390D+03 0.279572423112224D+02 -.533811726069820D+02
 0.142110644817910D+03 0.864604223093273D+02 -.110961694712833D+03 -.201874478602695D+02
 0.936904491268569D+02 0.505571604310662D+02 0.788218951894549D+02 -.299710284811490D+01
 0.274686319293065D+03 0.000000000000000D+00 0.000000000000000D+00 0.274686319293065D+03
 0.274686319293065D+03 0.000000000000000D+00 0.000000000000000D+00 -.274686319293065D+03
 0.180437098113576D+03 0.103313114632029D+03 0.290964740685698D+02 0.735686204672515D+02
 0.232738868595181D+03 -.202487752209345D+03 0.620429336581106D+02 -.533811726069820D+02
 0.000000000000000D+00 0.000000000000000D+00 0.000000000000000D+00 -.000000000000000D+00
 0.136196671877374D+03 0.991746375773156D+02 -.911394077266804D+02 -.201874478602695D+02
 0.323994844521850D+03 0.000000000000000D+00 0.000000000000000D+00 0.323994844521850D+03
 0.326991947369965D+03 0.000000000000000D+00 0.000000000000000D+00 -.326991947369965D+03
 0.169357320336824D+03 0.873330764909965D+02 0.418255721215541D+01 0.735686204672515D+02
 0.245828377610224D+03 -.224350659231390D+03 0.279572423112224D+02 -.533811726069820D+02
 0.936904491268569D+02 0.505571604310662D+02 0.788218951894549D+02 -.299710284811490D+01
 0.142110644817910D+03 0.864604223093273D+02 -.110961694712833D+03 -.201874478602695D+02
0.305500456163D-03 0.000000000000D+00 0.000000000000D+00 0.879809441834D-06 0.000000000000D+00  6 1 -2 25 -24 21 21 2 0.17753433D+00 0.10059236D-01 0.69164964D+05 0.69164964D+05 0.69164964D+05 0.11785731D+01  1  2  2  2  6  2       -2 0.303330859647D-01 0.100000000000D+01
-.173710841284D-04 0.161217019905D-04 -.117320219178D-05 0.879809441834D-06 0.000000000000D+00  6 1 -2 25 -24 21 21 4 0.17753433D+00 0.10059236D-01 0.69164964D+05 0.69164964D+05 0.69164964D+05 0.11785731D+01  1  2  3  2  6  2       -2 -.239576771037D-02 0.100000000000D+01
0.115556204285D-04 0.000000000000D+00 0.000000000000D+00 0.879809441834D-06 0.000000000000D+00  6 1 -2 25 -24 21 21 4 0.17753433D+00 0.10059236D-01 0.69164964D+05 0.69164964D+05 0.69164964D+05 0.11785731D+01  1  2 15  2  6  2       -2 0.159371643654D-02 0.100000000000D+01
-.848617916840D-04 0.000000000000D+00 0.000000000000D+00 0.879809441834D-06 0.000000000000D+00  6 1 -2 25 -24 21 21 4 0.17753433D+00 0.10059236D-01 0.69164964D+05 0.69164964D+05 0.69164964D+05 0.11785731D+01  1  2  4  2  6  2       -2 -.117038832383D-01 0.100000000000D+01
-.506382980477D-03 0.000000000000D+00 -.220827105822D-03 0.879809441834D-06 0.000000000000D+00  6 1 -2 25 -24 21 21 4 0.17753433D+00 0.14242184D-01 0.69164964D+05 0.69164964D+05 0.69164964D+05 0.11785731D+01  1  2  5  2  6  2       -2 -.397445025629D-01 0.100000000000D+01
0.561583909372D-03 0.000000000000D+00 0.208118327971D-03 0.879809441834D-06 0.000000000000D+00  6 1 -2 25 -24 21 21 4 0.17753433D+00 0.10059236D-01 0.69164964D+05 0.69164964D+05 0.69164964D+05 0.11785731D+01  1  2  6  2  6  2       -2 0.774519648165D-01 0.100000000000D+01
-.155863322893D-04 0.000000000000D+00 -.949451534070D-05 0.879809441834D-06 0.000000000000D+00  6 1 21 25 -24 2 21 4 0.17753433D+00 0.14242184D-01 0.69164964D+05 0.69164964D+05 0.69164964D+05 0.11785731D+01  3  4  5  5  5  2       -2 -.176293566815D-01 0.100000000000D+01
  </mgrwgt>
  </event>
  <event>
  5     66 -.42750230E-03 0.32925474E+02 0.75467711E-02 0.12080453E+00
        1 -1    0    0  502    0 0.00000000E+00 0.00000000E+00 0.10917837E+04 0.10917838E+04 0.32000000E+00 0.0000E+00 0.9000E+01
       -2 -1    0    0    0  501 0.00000000E+00 0.00000000E+00 -.19809073E+02 0.19811658E+02 0.32000000E+00 0.0000E+00 0.9000E+01
       25  1    1    2    0    0 -.50876935E+02 -.67350932E+02 0.66009752E+03 0.67711029E+03 0.12500000E+03 0.0000E+00 0.9000E+01
      -24  1    1    2    0    0 0.18219764E+02 0.63204507E+02 0.33788018E+03 0.35349257E+03 0.80419002E+02 0.0000E+00 0.9000E+01
       21  1    1    2  502  501 0.32657172E+02 0.41464245E+01 0.73996945E+02 0.80992556E+02 0.75000000E+00 0.0000E+00 0.9000E+01
#aMCatNLO 1  0  0  1  5 0.35371101D+00 0.00000000D+00  -5  6  0 0.00000000D+00 0.00000000D+00 0.00000000D+00 0.00000000D+00 0.00000000D+00
  <mgrwgt>
 -.5215277164D-01    9    4    0
 0.147066945046551D+03 0.000000000000000D+00 0.000000000000000D+00 0.147066945046551D+03
 0.147066945046551D+03 0.000000000000000D+00 0.000000000000000D+00 -.147066945046551D+03
 0.153213887532664D+03 -.508805461960921D+02 -.673513902546627D+02 0.269157125564850D+02
 0.104515411373576D+03 0.182173002391574D+02 0.632041944950408D+02 -.113848597025482D+02
 0.364045911868610D+02 0.326632459569347D+02 0.414719575962187D+01 -.155308528539369D+02
 0.000000000000000D+00 0.000000000000000D+00 -.000000000000000D+00 0.000000000000000D+00
 0.149556469633205D+03 0.000000000000000D+00 0.000000000000000D+00 0.149556469633205D+03
 0.147079615713970D+03 0.000000000000000D+00 0.000000000000000D+00 -.147079615713970D+03
 0.153254511074897D+03 -.510596916376892D+02 -.673082273741212D+02 0.269157125564850D+02
 0.104511992480929D+03 0.180951137209404D+02 0.632336338268071D+02 -.113848597025482D+02
 0.363675992149613D+02 0.326207071299472D+02 0.415744496435335D+01 -.155308528539369D+02
 0.250198257638871D+01 0.343870786801576D+00 -.828514170392267D-01 0.247685391923539D+01
 0.147066945046551D+03 0.000000000000000D+00 0.000000000000000D+00 0.147066945046551D+03
 0.147066945046551D+03 0.000000000000000D+00 0.000000000000000D+00 -.147066945046551D+03
 0.153213887532664D+03 -.508805461960921D+02 -.673513902546627D+02 0.269157125564850D+02
 0.104515411373576D+03 0.182173002391574D+02 0.632041944950408D+02 -.113848597025482D+02
 0.000000000000000D+00 0.000000000000000D+00 -.000000000000000D+00 0.000000000000000D+00
 0.364045911868610D+02 0.326632459569347D+02 0.414719575962187D+01 -.155308528539369D+02
 0.149556469633205D+03 0.000000000000000D+00 0.000000000000000D+00 0.149556469633205D+03
 0.147079615713970D+03 0.000000000000000D+00 0.000000000000000D+00 -.147079615713970D+03
 0.153254511074897D+03 -.510596916376892D+02 -.673082273741212D+02 0.269157125564850D+02
 0.104511992480929D+03 0.180951137209404D+02 0.632336338268071D+02 -.113848597025482D+02
 0.250198257638871D+01 0.343870786801576D+00 -.828514170392267D-01 0.247685391923539D+01
 0.363675992149613D+02 0.326207071299472D+02 0.415744496435335D+01 -.155308528539369D+02
0.303482051367D-05 0.000000000000D+00 0.000000000000D+00 0.199238734195D-04 0.000000000000D+00  6 1 -2 25 -24 21 21 2 0.16796693D+00 0.30477522D-02 0.20685648D+05 0.20685648D+05 0.20685648D+05 0.12322177D+01  1  2  2  1  6  1        1 0.224473381035D-02 0.100000000000D+01
0.322816454483D-06 0.160151878431D-06 -.116545098591D-07 0.199238734195D-04 0.000000000000D+00  6 1 -2 25 -24 21 21 4 0.16796693D+00 0.30477522D-02 0.20685648D+05 0.20685648D+05 0.20685648D+05 0.12322177D+01  1  2  3  1  6  1        1 0.362545361350D-03 0.100000000000D+01
0.120676031260D-06 0.000000000000D+00 0.000000000000D+00 0.199238734195D-04 0.000000000000D+00  6 1 -2 25 -24 21 21 4 0.16796693D+00 0.30477522D-02 0.20685648D+05 0.20685648D+05 0.20685648D+05 0.12322177D+01  1  2 15  1  6  1        1 0.135527587742D-03 0.100000000000D+01
-.487548497380D-02 0.000000000000D+00 0.000000000000D+00 0.199238734195D-04 0.000000000000D+00  6 1 -2 25 -24 21 21 4 0.16796693D+00 0.30477522D-02 0.20685648D+05 0.20685648D+05 0.20685648D+05 0.12322177D+01  1  2  4  1  6  1        1 -.547550918498D+01 0.100000000000D+01
-.475546142891D-02 0.000000000000D+00 -.451360077744D-04 0.199238734195D-04 0.000000000000D+00  6 1 -2 25 -24 21 21 4 0.17081634D+00 0.30477522D-02 0.20685648D+05 0.20685648D+05 0.20685648D+05 0.12322177D+01  1  2  5  1  6  1        1 -.518233396222D+01 0.100000000000D+01
0.475555421938D-02 0.000000000000D+00 0.451296223629D-04 0.199238734195D-04 0.000000000000D+00  6 1 -2 25 -24 21 21 4 0.16796693D+00 0.30477522D-02 0.20685648D+05 0.20685648D+05 0.20685648D+05 0.12322177D+01  1  2  6  1  6  1        1 0.534081859503D+01 0.100000000000D+01
0.483219859796D-02 0.000000000000D+00 0.000000000000D+00 0.199238734195D-04 0.705411869073D-03  6 1 -2 25 -24 21 21 4 0.17081024D+00 0.30480148D-02 0.20736109D+05 0.20736109D+05 0.20736109D+05 0.12321016D+01  1  2 11  1  6  1        1 0.526387508425D+01 0.100000000000D+01
-.146230628513D-04 0.000000000000D+00 -.138837914066D-06 0.199238734195D-04 0.000000000000D+00  6 21 -2 25 -24 -1 21 4 0.17081634D+00 0.30477522D-02 0.20685648D+05 0.20685648D+05 0.20685648D+05 0.12322177D+01  3  4  5  4  5  1        1 -.229952330671D-01 0.100000000000D+01
0.135188779224D-04 0.000000000000D+00 0.000000000000D+00 0.199238734195D-04 0.394557126598D-05  6 21 -2 25 -24 -1 21 4 0.17081024D+00 0.30480148D-02 0.20736109D+05 0.20736109D+05 0.20736109D+05 0.12321016D+01  3  4 11  4  5  1        1 0.212491225912D-01 0.100000000000D+01
  </mgrwgt>
  </event>
  <event>
  5     66 0.42750230E-03 0.38415687E+02 0.75467711E-02 0.11497739E+00
        1 -1    0    0  502    0 0.00000000E+00 0.00000000E+00 0.20547052E+03 0.20547077E+03 0.32000000E+00 0.0000E+00 0.9000E+01
       -2 -1    0    0    0  501 0.00000000E+00 0.00000000E+00 -.84747080E+02 0.84747684E+02 0.32000000E+00 0.0000E+00 0.9000E+01
       25  1    1    2    0    0 -.37465293E+01 0.30226148E+02 0.57712155E+02 0.14100833E+03 0.12500000E+03 0.0000E+00 0.9000E+01
      -24  1    1    2    0    0 0.42045612E+02 -.33136191E+02 0.48946196E+02 0.10829952E+03 0.80419002E+02 0.0000E+00 0.9000E+01
       21  1    1    2  502  501 -.38299083E+02 0.29100432E+01 0.14065094E+02 0.40910603E+02 0.75000000E+00 0.0000E+00 0.9000E+01
#aMCatNLO 1  0  0  1  2 0.12010264D+03 0.00000000D+00  -5  6  0 0.00000000D+00 0.00000000D+00 0.00000000D+00 0.00000000D+00 0.00000000D+00
  <mgrwgt>
 0.9042371299D-01    3    2    0
 0.131958897693051D+03 0.000000000000000D+00 0.000000000000000D+00 0.131958897693051D+03
 0.131958897693051D+03 0.000000000000000D+00 0.000000000000000D+00 -.131958897693051D+03
 0.128661144364941D+03 -.374299538137061D+01 0.302258790729680D+02 -.103744355878759D+01
 0.967039481017760D+02 0.420482683520582D+02 -.331363925747851D+02 0.428488504203791D+01
 0.385527029193841D+02 -.383052729706876D+02 0.291051350181712D+01 -.324744148325032D+01
 0.000000000000000D+00 0.000000000000000D+00 -.000000000000000D+00 -.000000000000000D+00
 0.156486494652679D+03 0.000000000000000D+00 0.000000000000000D+00 0.156486494652679D+03
 0.390390713912139D+03 0.000000000000000D+00 0.000000000000000D+00 -.390390713912139D+03
 0.143085102703013D+03 -.590896320085708D+02 0.368196376338200D+02 -.103744355878759D+01
 0.856391505967507D+02 0.491039677504477D+01 -.287119474130640D+02 0.428488504203791D+01
 0.583750216963631D+02 -.580465706382413D+02 0.526240619901107D+01 -.324744148325032D+01
 0.259777933568691D+03 0.112225805871767D+03 -.133700964197671D+02 -.233904219259460D+03
0.101973276678D-03 0.000000000000D+00 0.000000000000D+00 0.170648789277D-04 0.000000000000D+00  6 1 -2 25 -24 21 21 2 0.31610916D-01 0.13038078D-01 0.17381999D+05 0.17381999D+05 0.17381999D+05 0.12405909D+01  1  2  2  1  6  1        1 0.803178251410D-01 0.100000000000D+01
0.574880679743D-05 0.538127765255D-05 -.391604232624D-06 0.170648789277D-04 0.000000000000D+00  6 1 -2 25 -24 21 21 4 0.31610916D-01 0.13038078D-01 0.17381999D+05 0.17381999D+05 0.17381999D+05 0.12405909D+01  1  2  3  1  6  1        1 0.696883911617D-02 0.100000000000D+01
0.258784666321D-05 0.000000000000D+00 0.000000000000D+00 0.170648789277D-04 0.000000000000D+00  6 1 -2 25 -24 21 21 4 0.31610916D-01 0.13038078D-01 0.17381999D+05 0.17381999D+05 0.17381999D+05 0.12405909D+01  1  2 15  1  6  1        1 0.313704872832D-02 0.100000000000D+01
  </mgrwgt>
  </event>
  <event>
  6     66 0.42750230E-03 0.20363444E+02 0.75467711E-02 0.12371158E+00
        1 -1    0    0  503    0 0.00000000E+00 0.00000000E+00 0.56608605E+03 0.56608605E+03 0.00000000E+00 0.0000E+00 0.9000E+01
       -2 -1    0    0    0  501 0.00000000E+00 0.00000000E+00 -.10334337E+03 0.10334337E+03 0.00000000E+00 0.0000E+00 0.9000E+01
       25  1    1    2    0    0 0.13996210E+02 0.36063823E+02 -.14286200E+02 0.13162670E+03 0.12500000E+03 0.0000E+00 0.9000E+01
      -24  1    1    2    0    0 -.34155656E+02 -.39850548E+02 0.46393131E+02 0.10664996E+03 0.80419002E+02 0.0000E+00 0.9000E+01
       21  1    1    2  502  501 0.88005604E-01 0.55144920E-01 0.14585410E+00 0.17905130E+00 0.00000000E+00 0.0000E+00 0.9000E+01
       21  1    1    2  503  502 0.20071440E+02 0.37315805E+01 0.43048990E+03 0.43097371E+03 0.00000000E+00 0.0000E+00 0.9000E+01
#aMCatNLO 2  0  0  1  5 0.19402528D+02 0.00000000D+00  -5  6  0 0.00000000D+00 0.00000000D+00 0.00000000D+00 0.00000000D+00 0.00000000D+00
  <mgrwgt>
 0.5704830352D+00    1    2    0
 0.117690374428853D+03 0.000000000000000D+00 0.000000000000000D+00 0.117690374428853D+03
 0.117690374428853D+03 0.000000000000000D+00 0.000000000000000D+00 -.117690374428853D+03
 0.137069016971148D+03 0.255658331811789D+02 0.382147888067746D+02 -.323872429151159D+02
 0.981419483325904D+02 -.256679072256485D+02 -.382725492598830D+02 0.322644786096357D+02
 0.169783553967108D+00 0.102074044469533D+00 0.577604531083698D-01 0.122764305480255D+00
 0.000000000000000D+00 0.000000000000000D+00 0.000000000000000D+00 0.000000000000000D+00
 0.494059121091101D+03 0.000000000000000D+00 0.000000000000000D+00 0.494059121091101D+03
 0.118409391836076D+03 0.000000000000000D+00 0.000000000000000D+00 -.118409391836076D+03
 0.134797725247393D+03 0.139962099496710D+02 0.360638230817744D+02 -.323872429151159D+02
 0.101305910884579D+03 -.341556559169487D+02 -.398505484870042D+02 0.322644786096357D+02
 0.160801191910432D+00 0.880056044511789D-01 0.551449200284946D-01 0.122764305480255D+00
 0.376204075603295D+03 0.200714403628265D+02 0.373158048520128D+01 0.375649729255025D+03
0.228254498070D-02 0.000000000000D+00 0.000000000000D+00 0.160363341058D+01 0.533789326787D-01  6 1 -2 25 -24 21 21 4 0.87090162D-01 0.15898980D-01 0.15301570D+05 0.15301570D+05 0.15301570D+05 0.12468382D+01  1  2  1  1  6  1        1 0.570483035224D+00 0.100000000000D+01
  </mgrwgt>
  </event>
  <event>
  5     66 0.42750230E-03 0.11710582E+03 0.75467711E-02 0.11393525E+00
        1 -1    0    0  502    0 0.00000000E+00 0.00000000E+00 0.96088324E+03 0.96088329E+03 0.32000000E+00 0.0000E+00 0.9000E+01
       -2 -1    0    0    0  501 0.00000000E+00 0.00000000E+00 -.73469733E+02 0.73470430E+02 0.32000000E+00 0.0000E+00 0.9000E+01
       25  1    1    2    0    0 0.84988765E+02 0.41101054E+02 0.63188383E+03 0.65101042E+03 0.12500000E+03 0.0000E+00 0.9000E+01
      -24  1    1    2    0    0 0.11070188E+02 -.12046136E+03 0.19935223E+03 0.24666175E+03 0.80419002E+02 0.0000E+00 0.9000E+01
       21  1    1    2  502  501 -.96058953E+02 0.79360306E+02 0.56177439E+02 0.13668156E+03 0.75000000E+00 0.0000E+00 0.9000E+01
#aMCatNLO 1  0  0  5  1 0.70381963D+01 0.00000000D+00  -5  6  0 0.00000000D+00 0.00000000D+00 0.00000000D+00 0.00000000D+00 0.00000000D+00
  <mgrwgt>
 0.3486760231D-01   25    2    0
 0.265699497233108D+03 0.000000000000000D+00 0.000000000000000D+00 0.265699497233108D+03
 0.265699497233108D+03 -.000000000000000D+00 -.000000000000000D+00 -.265699497233108D+03
 0.211955631487735D+03 0.849891279016668D+02 0.411007537887189D+02 0.142785734216964D+03
 0.147210863985673D+03 0.110704404070103D+02 -.120461568448587D+03 -.238805024473711D+02
 0.172232498992809D+03 -.960595683086771D+02 0.793608146598681D+02 -.118905231769593D+03
 0.000000000000000D+00 0.000000000000000D+00 0.000000000000000D+00 0.000000000000000D+00
 0.265699497233108D+03 0.000000000000000D+00 0.000000000000000D+00 0.265699497233108D+03
 0.265699497233108D+03 -.000000000000000D+00 -.000000000000000D+00 -.265699497233108D+03
 0.211637989749681D+03 0.846931533678438D+02 0.413452768543160D+02 0.142419368625678D+03
 0.147098089039724D+03 0.108648000224427D+02 -.120291676071038D+03 -.241350498914073D+02
 0.150829069899407D+03 -.810157019607019D+02 0.655332561622357D+02 -.109047038929582D+03
 0.218338457774045D+02 -.145422514295846D+02 0.134131430544867D+02 -.923727980468837D+01
0.306698607721D-04 0.000000000000D+00 0.000000000000D+00 0.139630682686D-05 0.000000000000D+00  6 1 -2 25 -24 21 21 2 0.14782825D+00 0.11303094D-01 0.45477044D+05 0.45477044D+05 0.45477044D+05 0.11963815D+01  1  2  2  3  6  5       21 0.361436333681D-02 0.100000000000D+01
-.225886121543D-05 0.161849301853D-05 -.117780340925D-06 0.139630682686D-05 0.000000000000D+00  6 1 -2 25 -24 21 21 4 0.14782825D+00 0.11303094D-01 0.45477044D+05 0.45477044D+05 0.45477044D+05 0.11963815D+01  1  2  3  3  6  5       21 -.381021009246D-03 0.100000000000D+01
0.986227035707D-06 0.000000000000D+00 0.000000000000D+00 0.139630682686D-05 0.000000000000D+00  6 1 -2 25 -24 21 21 4 0.14782825D+00 0.11303094D-01 0.45477044D+05 0.45477044D+05 0.45477044D+05 0.11963815D+01  1  2 15  3  6  5       21 0.166355160699D-03 0.100000000000D+01
0.503524313653D-03 0.000000000000D+00 0.000000000000D+00 0.139672038883D-05 0.000000000000D+00  6 1 -2 25 -24 21 21 4 0.14782825D+00 0.11303094D-01 0.45292119D+05 0.45292119D+05 0.45292119D+05 0.11965587D+01  1  2 12  3  6  5       21 0.849854340990D-01 0.100000000000D+01
0.476390597944D-03 0.000000000000D+00 0.000000000000D+00 0.139672038883D-05 0.000000000000D+00  6 1 -2 25 -24 21 21 4 0.14782825D+00 0.11303094D-01 0.45292119D+05 0.45292119D+05 0.45292119D+05 0.11965587D+01  1  2 12  3  6  5       21 0.804057732052D-01 0.100000000000D+01
-.959467616337D-03 0.000000000000D+00 0.000000000000D+00 0.139630682686D-05 0.000000000000D+00  6 1 -2 25 -24 21 21 4 0.14782825D+00 0.11303094D-01 0.45477044D+05 0.45477044D+05 0.45477044D+05 0.11963815D+01  1  2  4  3  6  5       21 -.161841425679D+00 0.100000000000D+01
-.107564898290D-02 0.000000000000D+00 0.000000000000D+00 0.139630682686D-05 0.000000000000D+00  6 1 -2 25 -24 21 21 4 0.14782825D+00 0.11303094D-01 0.45477044D+05 0.45477044D+05 0.45477044D+05 0.11963815D+01  1  2  5  3  6  5       21 -.181438708257D+00 0.100000000000D+01
0.119689880957D-02 0.000000000000D+00 -.000000000000D+00 0.139630682686D-05 0.000000000000D+00  6 1 -2 25 -24 21 21 4 0.14782825D+00 0.11303094D-01 0.45477044D+05 0.45477044D+05 0.45477044D+05 0.11963815D+01  1  2  6  3  6  5       21 0.201890930383D+00 0.100000000000D+01
0.382457457541D-04 0.000000000000D+00 0.000000000000D+00 0.139630682686D-05 0.169179699318D-06  6 1 -2 25 -24 21 21 4 0.14782825D+00 0.11303094D-01 0.45292119D+05 0.45292119D+05 0.45292119D+05 0.11965587D+01  1  2 11  3  6  5       21 0.645516257550D-02 0.100000000000D+01
0.465369794402D-05 0.000000000000D+00 0.000000000000D+00 0.139672038883D-05 0.000000000000D+00  6 1 -2 25 -24 1 -1 4 0.14782825D+00 0.11303094D-01 0.45292119D+05 0.45292119D+05 0.45292119D+05 0.11965587D+01  1  2 12  6  6  5       21 0.785456688414D-03 0.100000000000D+01
0.454131122182D-05 0.000000000000D+00 0.000000000000D+00 0.139672038883D-05 0.000000000000D+00  6 1 -2 25 -24 1 -1 4 0.14782825D+00 0.11303094D-01 0.45292119D+05 0.45292119D+05 0.45292119D+05 0.11965587D+01  1  2 12  6  6  5       21 0.766487923423D-03 0.100000000000D+01
-.801090219838D-05 0.000000000000D+00 0.000000000000D+00 0.139630682686D-05 0.000000000000D+00  6 1 -2 25 -24 1 -1 4 0.14782825D+00 0.11303094D-01 0.45477044D+05 0.45477044D+05 0.45477044D+05 0.11963815D+01  1  2  5  6  6  5       21 -.135126585899D-02 0.100000000000D+01
0.304937167692D-06 0.000000000000D+00 0.000000000000D+00 0.139630682686D-05 0.258388315570D-08  6 1 -2 25 -24 1 -1 4 0.14782825D+00 0.11303094D-01 0.45292119D+05 0.45292119D+05 0.45292119D+05 0.11965587D+01  1  2 11  6  6  5       21 0.514676587932D-04 0.100000000000D+01
0.465369794402D-05 0.000000000000D+00 0.000000000000D+00 0.139672038883D-05 0.000000000000D+00  6 1 -2 25 -24 2 -2 4 0.14782825D+00 0.11303094D-01 0.45292119D+05 0.45292119D+05 0.45292119D+05 0.11965587D+01  1  2 12  7  6  5       21 0.785456688414D-03 0.100000000000D+01
0.454131122182D-05 0.000000000000D+00 0.000000000000D+00 0.139672038883D-05 0.000000000000D+00  6 1 -2 25 -24 2 -2 4 0.14782825D+00 0.11303094D-01 0.45292119D+05 0.45292119D+05 0.45292119D+05 0.11965587D+01  1  2 12  7  6  5       21 0.766487923423D-03 0.100000000000D+01
-.801090219838D-05 0.000000000000D+00 0.000000000000D+00 0.139630682686D-05 0.000000000000D+00  6 1 -2 25 -24 2 -2 4 0.14782825D+00 0.11303094D-01 0.45477044D+05 0.45477044D+05 0.45477044D+05 0.11963815D+01  1  2  5  7  6  5       21 -.135126585899D-02 0.100000000000D+01
0.317108899357D-06 0.000000000000D+00 0.000000000000D+00 0.139630682686D-05 0.273450224920D-08  6 1 -2 25 -24 2 -2 4 0.14782825D+00 0.11303094D-01 0.45292119D+05 0.45292119D+05 0.45292119D+05 0.11965587D+01  1  2 11  7  6  5       21 0.535220181781D-04 0.100000000000D+01
0.465369794402D-05 0.000000000000D+00 0.000000000000D+00 0.139672038883D-05 0.000000000000D+00  6 1 -2 25 -24 3 -3 4 0.14782825D+00 0.11303094D-01 0.45292119D+05 0.45292119D+05 0.45292119D+05 0.11965587D+01  1  2 12  8  6  5       21 0.785456688414D-03 0.100000000000D+01
0.465369794402D-05 0.000000000000D+00 0.000000000000D+00 0.139672038883D-05 0.000000000000D+00  6 1 -2 25 -24 4 -4 4 0.14782825D+00 0.11303094D-01 0.45292119D+05 0.45292119D+05 0.45292119D+05 0.11965587D+01  1  2 12  8  6  5       21 0.785456688414D-03 0.100000000000D+01
0.454131122182D-05 0.000000000000D+00 0.000000000000D+00 0.139672038883D-05 0.000000000000D+00  6 1 -2 25 -24 3 -3 4 0.14782825D+00 0.11303094D-01 0.45292119D+05 0.45292119D+05 0.45292119D+05 0.11965587D+01  1  2 12  8  6  5       21 0.766487923423D-03 0.100000000000D+01
0.454131122182D-05 0.000000000000D+00 0.000000000000D+00 0.139672038883D-05 0.000000000000D+00  6 1 -2 25 -24 4 -4 4 0.14782825D+00 0.11303094D-01 0.45292119D+05 0.45292119D+05 0.45292119D+05 0.11965587D+01  1  2 12  8  6  5       21 0.766487923423D-03 0.100000000000D+01
-.801090219838D-05 0.000000000000D+00 0.000000000000D+00 0.139630682686D-05 0.000000000000D+00  6 1 -2 25 -24 3 -3 4 0.14782825D+00 0.11303094D-01 0.45477044D+05 0.45477044D+05 0.45477044D+05 0.11963815D+01  1  2  5  8  6  5       21 -.135126585899D-02 0.100000000000D+01
-.801090219838D-05 0.000000000000D+00 0.000000000000D+00 0.139630682686D-05 0.000000000000D+00  6 1 -2 25 -24 4 -4 4 0.14782825D+00 0.11303094D-01 0.45477044D+05 0.45477044D+05 0.45477044D+05 0.11963815D+01  1  2  5  8  6  5       21 -.135126585899D-02 0.100000000000D+01
0.305228944837D-06 0.000000000000D+00 0.000000000000D+00 0.139630682686D-05 0.258586254154D-08  6 1 -2 25 -24 3 -3 4 0.14782825D+00 0.11303094D-01 0.45292119D+05 0.45292119D+05 0.45292119D+05 0.11965587D+01  1  2 11  8  6  5       21 0.515169052877D-04 0.100000000000D+01
0.305228944837D-06 0.000000000000D+00 0.000000000000D+00 0.139630682686D-05 0.258586254154D-08  6 1 -2 25 -24 4 -4 4 0.14782825D+00 0.11303094D-01 0.45292119D+05 0.45292119D+05 0.45292119D+05 0.11965587D+01  1  2 11  8  6  5       21 0.515169052877D-04 0.100000000000D+01
  </mgrwgt>
  </event>
  <event>
  5     66 0.42750230E-03 0.24904287E+02 0.75467711E-02 0.11187621E+00
        1 -1    0    0  502    0 0.00000000E+00 0.00000000E+00 0.86685172E+03 0.86685178E+03 0.32000000E+00 0.0000E+00 0.9000E+01
       -2 -1    0    0    0  501 0.00000000E+00 0.00000000E+00 -.77543064E+02 0.77543725E+02 0.32000000E+00 0.0000E+00 0.9000E+01
       25  1    1    2    0    0 -.20580547E+03 0.62285460E+02 0.45265434E+03 0.51648458E+03 0.12500000E+03 0.0000E+00 0.9000E+01
      -24  1    1    2    0    0 0.18148218E+03 -.67624439E+02 0.34315924E+03 0.40216206E+03 0.80419002E+02 0.0000E+00 0.9000E+01
       21  1    1    2  502  501 0.24323292E+02 0.53389790E+01 -.65049233E+01 0.25748859E+02 0.75000000E+00 0.0000E+00 0.9000E+01
#aMCatNLO 1  0  0  5  1 0.13216820D+02 0.00000000D+00  -5  6  0 0.00000000D+00 0.00000000D+00 0.00000000D+00 0.00000000D+00 0.00000000D+00
  <mgrwgt>
 0.3746930182D+00   20    2    0
 0.259265652269965D+03 0.000000000000000D+00 0.000000000000000D+00 0.259265652269965D+03
 0.259265652269965D+03 -.000000000000000D+00 -.000000000000000D+00 -.259265652269965D+03
 0.251638240393146D+03 -.205806500840765D+03 0.622852340490723D+02 0.382235249459168D+02
 0.210095687514422D+03 0.181481320588690D+03 -.676246275385155D+02 0.128227136538792D+02
 0.567973766323622D+02 0.243251802520760D+02 0.533939348944319D+01 -.510462385997961D+02
 0.000000000000000D+00 0.000000000000000D+00 0.000000000000000D+00 -.000000000000000D+00
 0.259265652269965D+03 0.000000000000000D+00 0.000000000000000D+00 0.259265652269965D+03
 0.259265652269965D+03 -.000000000000000D+00 -.000000000000000D+00 -.259265652269965D+03
 0.250184690562056D+03 -.204448906252833D+03 0.625832269777575D+02 0.353746211951837D+02
 0.210868510915289D+03 0.182620165950765D+03 -.673746502126032D+02 0.104328537852838D+02
 0.261620919578206D+02 0.216126234635938D+02 0.164830375943171D+01 -.146503466630323D+02
 0.313160111047644D+02 0.216116838473958D+00 0.314311947541399D+01 -.311571283174353D+02
0.957759314549D-03 0.000000000000D+00 0.000000000000D+00 0.259210576528D-04 0.000000000000D+00  6 1 -2 25 -24 21 21 2 0.13336186D+00 0.11929758D-01 0.58401139D+05 0.58401139D+05 0.58401139D+05 0.11856589D+01  1  2  2  3  6  5       21 0.120163632302D+00 0.100000000000D+01
0.251839741508D-03 0.505423476013D-04 -.367804795169D-05 0.259210576528D-04 0.000000000000D+00  6 1 -2 25 -24 21 21 4 0.13336186D+00 0.11929758D-01 0.58401139D+05 0.58401139D+05 0.58401139D+05 0.11856589D+01  1  2  3  3  6  5       21 0.444181470701D-01 0.100000000000D+01
0.166797843697D-05 0.000000000000D+00 0.000000000000D+00 0.259210576528D-04 0.000000000000D+00  6 1 -2 25 -24 21 21 4 0.13336186D+00 0.11929758D-01 0.58401139D+05 0.58401139D+05 0.58401139D+05 0.11856589D+01  1  2 15  3  6  5       21 0.294189118362D-03 0.100000000000D+01
0.406779078280D-03 0.000000000000D+00 0.000000000000D+00 0.259227346805D-04 0.000000000000D+00  6 1 -2 25 -24 21 21 4 0.13336186D+00 0.11929758D-01 0.58348185D+05 0.58348185D+05 0.58348185D+05 0.11856972D+01  1  2 12  3  6  5       21 0.717549994499D-01 0.100000000000D+01
0.296688062417D-03 0.000000000000D+00 0.000000000000D+00 0.259227346805D-04 0.000000000000D+00  6 1 -2 25 -24 21 21 4 0.13336186D+00 0.11929758D-01 0.58348185D+05 0.58348185D+05 0.58348185D+05 0.11856972D+01  1  2 12  3  6  5       21 0.523351688723D-01 0.100000000000D+01
-.887713733984D-03 0.000000000000D+00 0.000000000000D+00 0.259210576528D-04 0.000000000000D+00  6 1 -2 25 -24 21 21 4 0.13336186D+00 0.11929758D-01 0.58401139D+05 0.58401139D+05 0.58401139D+05 0.11856589D+01  1  2  4  3  6  5       21 -.156570201971D+00 0.100000000000D+01
-.763938162051D-03 0.000000000000D+00 0.000000000000D+00 0.259210576528D-04 0.000000000000D+00  6 1 -2 25 -24 21 21 4 0.13336186D+00 0.11929758D-01 0.58401139D+05 0.58401139D+05 0.58401139D+05 0.11856589D+01  1  2  5  3  6  5       21 -.134739328397D+00 0.100000000000D+01
0.202988826543D-02 0.000000000000D+00 -.000000000000D+00 0.259210576528D-04 0.000000000000D+00  6 1 -2 25 -24 21 21 4 0.13336186D+00 0.11929758D-01 0.58401139D+05 0.58401139D+05 0.58401139D+05 0.11856589D+01  1  2  6  3  6  5       21 0.358020838847D+00 0.100000000000D+01
0.182826492310D-04 0.000000000000D+00 0.000000000000D+00 0.259227346805D-04 0.000000000000D+00  6 1 -2 25 -24 1 -1 4 0.13336186D+00 0.11929758D-01 0.58348185D+05 0.58348185D+05 0.58348185D+05 0.11856972D+01  1  2 12  6  6  5       21 0.322502202192D-02 0.100000000000D+01
0.133762593760D-04 0.000000000000D+00 0.000000000000D+00 0.259227346805D-04 0.000000000000D+00  6 1 -2 25 -24 1 -1 4 0.13336186D+00 0.11929758D-01 0.58348185D+05 0.58348185D+05 0.58348185D+05 0.11856972D+01  1  2 12  6  6  5       21 0.235954486210D-02 0.100000000000D+01
-.470971101356D-05 0.000000000000D+00 0.000000000000D+00 0.259210576528D-04 0.000000000000D+00  6 1 -2 25 -24 1 -1 4 0.13336186D+00 0.11929758D-01 0.58401139D+05 0.58401139D+05 0.58401139D+05 0.11856589D+01  1  2  5  6  6  5       21 -.830673646683D-03 0.100000000000D+01
0.182826492310D-04 0.000000000000D+00 0.000000000000D+00 0.259227346805D-04 0.000000000000D+00  6 1 -2 25 -24 2 -2 4 0.13336186D+00 0.11929758D-01 0.58348185D+05 0.58348185D+05 0.58348185D+05 0.11856972D+01  1  2 12  7  6  5       21 0.322502202192D-02 0.100000000000D+01
0.133762593760D-04 0.000000000000D+00 0.000000000000D+00 0.259227346805D-04 0.000000000000D+00  6 1 -2 25 -24 2 -2 4 0.13336186D+00 0.11929758D-01 0.58348185D+05 0.58348185D+05 0.58348185D+05 0.11856972D+01  1  2 12  7  6  5       21 0.235954486210D-02 0.100000000000D+01
-.470971101356D-05 0.000000000000D+00 0.000000000000D+00 0.259210576528D-04 0.000000000000D+00  6 1 -2 25 -24 2 -2 4 0.13336186D+00 0.11929758D-01 0.58401139D+05 0.58401139D+05 0.58401139D+05 0.11856589D+01  1  2  5  7  6  5       21 -.830673646683D-03 0.100000000000D+01
0.182826492310D-04 0.000000000000D+00 0.000000000000D+00 0.259227346805D-04 0.000000000000D+00  6 1 -2 25 -24 3 -3 4 0.13336186D+00 0.11929758D-01 0.58348185D+05 0.58348185D+05 0.58348185D+05 0.11856972D+01  1  2 12  8  6  5       21 0.322502202192D-02 0.100000000000D+01
0.182826492310D-04 0.000000000000D+00 0.000000000000D+00 0.259227346805D-04 0.000000000000D+00  6 1 -2 25 -24 4 -4 4 0.13336186D+00 0.11929758D-01 0.58348185D+05 0.58348185D+05 0.58348185D+05 0.11856972D+01  1  2 12  8  6  5       21 0.322502202192D-02 0.100000000000D+01
0.133762593760D-04 0.000000000000D+00 0.000000000000D+00 0.259227346805D-04 0.000000000000D+00  6 1 -2 25 -24 3 -3 4 0.13336186D+00 0.11929758D-01 0.58348185D+05 0.58348185D+05 0.58348185D+05 0.11856972D+01  1  2 12  8  6  5       21 0.235954486210D-02 0.100000000000D+01
0.133762593760D-04 0.000000000000D+00 0.000000000000D+00 0.259227346805D-04 0.000000000000D+00  6 1 -2 25 -24 4 -4 4 0.13336186D+00 0.11929758D-01 0.58348185D+05 0.58348185D+05 0.58348185D+05 0.11856972D+01  1  2 12  8  6  5       21 0.235954486210D-02 0.100000000000D+01
-.470971101356D-05 0.000000000000D+00 0.000000000000D+00 0.259210576528D-04 0.000000000000D+00  6 1 -2 25 -24 3 -3 4 0.13336186D+00 0.11929758D-01 0.58401139D+05 0.58401139D+05 0.58401139D+05 0.11856589D+01  1  2  5  8  6  5       21 -.830673646683D-03 0.100000000000D+01
-.470971101356D-05 0.000000000000D+00 0.000000000000D+00 0.259210576528D-04 0.000000000000D+00  6 1 -2 25 -24 4 -4 4 0.13336186D+00 0.11929758D-01 0.58401139D+05 0.58401139D+05 0.58401139D+05 0.11856589D+01  1  2  5  8  6  5       21 -.830673646683D-03 0.100000000000D+01
  </mgrwgt>
  </event>
  <event>
  5     66 0.42750230E-03 0.97135012E+02 0.75467711E-02 0.11459944E+00
        1 -1    0    0  502    0 0.00000000E+00 0.00000000E+00 0.36911758E+03 0.36911772E+03 0.32000000E+00 0.0000E+00 0.9000E+01
       -2 -1    0    0    0  501 0.00000000E+00 0.00000000E+00 -.25099214E+03 0.25099235E+03 0.32000000E+00 0.0000E+00 0.9000E+01
       25  1    1    2    0    0 -.67562825E+02 0.43117199E+02 -.14049935E+03 0.20442332E+03 0.12500000E+03 0.0000E+00 0.9000E+01
      -24  1    1    2    0    0 -.63438354E+02 -.68048246E+02 -.19311529E+01 0.12298754E+03 0.80419002E+02 0.0000E+00 0.9000E+01
       21  1    1    2  502  501 0.13100118E+03 0.24931047E+02 0.26055594E+03 0.29269921E+03 0.75000000E+00 0.0000E+00 0.9000E+01
#aMCatNLO 1  0  0  5  2 0.21177307D+02 0.00000000D+00  -5  6  0 0.00000000D+00 0.00000000D+00 0.00000000D+00 0.00000000D+00 0.00000000D+00
  <mgrwgt>
 0.6964619711D-02   18    2    0
 0.304377592979740D+03 0.000000000000000D+00 0.000000000000000D+00 0.304377592979740D+03
 0.304377592979740D+03 -.000000000000000D+00 -.000000000000000D+00 -.304377592979740D+03
 0.235499789938409D+03 -.675630570538402D+02 0.431171545029622D+02 -.182787568970491D+03
 0.125656421145078D+03 -.634384783364334D+02 -.680482698539366D+02 -.258323954921405D+02
 0.247598974875993D+03 0.131001535390274D+03 0.249311153509745D+02 0.208619964462632D+03
 0.000000000000000D+00 0.000000000000000D+00 0.000000000000000D+00 0.000000000000000D+00
 0.304377592979740D+03 0.000000000000000D+00 0.000000000000000D+00 0.304377592979740D+03
 0.304377592979740D+03 -.000000000000000D+00 -.000000000000000D+00 -.304377592979740D+03
 0.233285407862823D+03 -.660706383212562D+02 0.434011791402548D+02 -.180410891918368D+03
 0.124917178700957D+03 -.626407553365281D+02 -.678964538918602D+02 -.245620214969389D+02
 0.391686843603938D+02 0.222489694422861D+02 0.232201700062824D+02 0.223605209724574D+02
 0.211383915035306D+03 0.106462424215498D+03 0.127510474532297D+01 0.182612392442849D+03
0.142106599556D-03 0.000000000000D+00 0.000000000000D+00 0.253424790451D-05 0.000000000000D+00  6 1 -2 25 -24 21 21 2 0.56787347D-01 0.38614202D-01 0.40968553D+05 0.40968553D+05 0.40968553D+05 0.12009465D+01  1  2  2  3  6  5       21 0.777680303229D-02 0.100000000000D+01
-.927040960032D-05 0.749917128668D-05 -.545726759823D-06 0.253424790451D-05 0.000000000000D+00  6 1 -2 25 -24 21 21 4 0.56787347D-01 0.38614202D-01 0.40968553D+05 0.40968553D+05 0.40968553D+05 0.12009465D+01  1  2  3  3  6  5       21 -.731700101224D-03 0.100000000000D+01
0.447228246221D-05 0.000000000000D+00 0.000000000000D+00 0.253424790451D-05 0.000000000000D+00  6 1 -2 25 -24 21 21 4 0.56787347D-01 0.38614202D-01 0.40968553D+05 0.40968553D+05 0.40968553D+05 0.12009465D+01  1  2 15  3  6  5       21 0.352990824719D-03 0.100000000000D+01
0.133997448904D-04 0.000000000000D+00 0.000000000000D+00 0.253042879327D-05 0.000000000000D+00  6 1 -2 25 -24 21 21 4 0.56787347D-01 0.38614202D-01 0.41821502D+05 0.41821502D+05 0.41821502D+05 0.12000413D+01  1  2 12  3  6  5       21 0.105436784080D-02 0.100000000000D+01
0.218474481848D-04 0.000000000000D+00 0.000000000000D+00 0.253042879327D-05 0.000000000000D+00  6 1 -2 25 -24 21 21 4 0.56787347D-01 0.38614202D-01 0.41821502D+05 0.41821502D+05 0.41821502D+05 0.12000413D+01  1  2 12  3  6  5       21 0.171908099429D-02 0.100000000000D+01
-.352039234074D-04 0.000000000000D+00 0.000000000000D+00 0.253424790451D-05 0.000000000000D+00  6 1 -2 25 -24 21 21 4 0.56787347D-01 0.38614202D-01 0.40968553D+05 0.40968553D+05 0.40968553D+05 0.12009465D+01  1  2  5  3  6  5       21 -.277859506012D-02 0.100000000000D+01
0.584874394739D-05 0.000000000000D+00 0.000000000000D+00 0.253042879327D-05 0.000000000000D+00  6 1 -2 25 -24 1 -1 4 0.56787347D-01 0.38614202D-01 0.41821502D+05 0.41821502D+05 0.41821502D+05 0.12000413D+01  1  2 12  6  6  5       21 0.460212308339D-03 0.100000000000D+01
0.762674826059D-05 0.000000000000D+00 0.000000000000D+00 0.253042879327D-05 0.000000000000D+00  6 1 -2 25 -24 1 -1 4 0.56787347D-01 0.38614202D-01 0.41821502D+05 0.41821502D+05 0.41821502D+05 0.12000413D+01  1  2 12  6  6  5       21 0.600115760529D-03 0.100000000000D+01
-.147907169534D-04 0.000000000000D+00 0.000000000000D+00 0.253424790451D-05 0.000000000000D+00  6 1 -2 25 -24 1 -1 4 0.56787347D-01 0.38614202D-01 0.40968553D+05 0.40968553D+05 0.40968553D+05 0.12009465D+01  1  2  5  6  6  5       21 -.116741002378D-02 0.100000000000D+01
0.584874394739D-05 0.000000000000D+00 0.000000000000D+00 0.253042879327D-05 0.000000000000D+00  6 1 -2 25 -24 2 -2 4 0.56787347D-01 0.38614202D-01 0.41821502D+05 0.41821502D+05 0.41821502D+05 0.12000413D+01  1  2 12  7  6  5       21 0.460212308339D-03 0.100000000000D+01
0.762674826059D-05 0.000000000000D+00 0.000000000000D+00 0.253042879327D-05 0.000000000000D+00  6 1 -2 25 -24 2 -2 4 0.56787347D-01 0.38614202D-01 0.41821502D+05 0.41821502D+05 0.41821502D+05 0.12000413D+01  1  2 12  7  6  5       21 0.600115760529D-03 0.100000000000D+01
-.147907169534D-04 0.000000000000D+00 0.000000000000D+00 0.253424790451D-05 0.000000000000D+00  6 1 -2 25 -24 2 -2 4 0.56787347D-01 0.38614202D-01 0.40968553D+05 0.40968553D+05 0.40968553D+05 0.12009465D+01  1  2  5  7  6  5       21 -.116741002378D-02 0.100000000000D+01
0.584874394739D-05 0.000000000000D+00 0.000000000000D+00 0.253042879327D-05 0.000000000000D+00  6 1 -2 25 -24 3 -3 4 0.56787347D-01 0.38614202D-01 0.41821502D+05 0.41821502D+05 0.41821502D+05 0.12000413D+01  1  2 12  8  6  5       21 0.460212308339D-03 0.100000000000D+01
0.584874394739D-05 0.000000000000D+00 0.000000000000D+00 0.253042879327D-05 0.000000000000D+00  6 1 -2 25 -24 4 -4 4 0.56787347D-01 0.38614202D-01 0.41821502D+05 0.41821502D+05 0.41821502D+05 0.12000413D+01  1  2 12  8  6  5       21 0.460212308339D-03 0.100000000000D+01
0.762674826059D-05 0.000000000000D+00 0.000000000000D+00 0.253042879327D-05 0.000000000000D+00  6 1 -2 25 -24 3 -3 4 0.56787347D-01 0.38614202D-01 0.41821502D+05 0.41821502D+05 0.41821502D+05 0.12000413D+01  1  2 12  8  6  5       21 0.600115760529D-03 0.100000000000D+01
0.762674826059D-05 0.000000000000D+00 0.000000000000D+00 0.253042879327D-05 0.000000000000D+00  6 1 -2 25 -24 4 -4 4 0.56787347D-01 0.38614202D-01 0.41821502D+05 0.41821502D+05 0.41821502D+05 0.12000413D+01  1  2 12  8  6  5       21 0.600115760529D-03 0.100000000000D+01
-.147907169534D-04 0.000000000000D+00 0.000000000000D+00 0.253424790451D-05 0.000000000000D+00  6 1 -2 25 -24 3 -3 4 0.56787347D-01 0.38614202D-01 0.40968553D+05 0.40968553D+05 0.40968553D+05 0.12009465D+01  1  2  5  8  6  5       21 -.116741002378D-02 0.100000000000D+01
-.147907169534D-04 0.000000000000D+00 0.000000000000D+00 0.253424790451D-05 0.000000000000D+00  6 1 -2 25 -24 4 -4 4 0.56787347D-01 0.38614202D-01 0.40968553D+05 0.40968553D+05 0.40968553D+05 0.12009465D+01  1  2  5  8  6  5       21 -.116741002378D-02 0.100000000000D+01
  </mgrwgt>
  </event>
  <event>
  5     66 0.42750230E-03 0.39985378E+02 0.75467711E-02 0.12033488E+00
        1 -1    0    0  502    0 0.00000000E+00 0.00000000E+00 0.87502432E+03 0.87502438E+03 0.32000000E+00 0.0000E+00 0.9000E+01
       -2 -1    0    0    0  501 0.00000000E+00 0.00000000E+00 -.31820552E+02 0.31822161E+02 0.32000000E+00 0.0000E+00 0.9000E+01
       25  1    1    2    0    0 0.72948266E+02 -.11337649E+02 0.60872513E+03 0.62579652E+03 0.12500000E+03 0.0000E+00 0.9000E+01
      -24  1    1    2    0    0 -.69750747E+02 -.28516682E+02 0.19952318E+03 0.22793658E+03 0.80419002E+02 0.0000E+00 0.9000E+01
       21  1    1    2  502  501 -.31975193E+01 0.39854331E+02 0.34955456E+02 0.53113447E+02 0.75000000E+00 0.0000E+00 0.9000E+01
#aMCatNLO 1  0  0  5  1 0.44162561D+01 0.00000000D+00  -5  6  0 0.00000000D+00 0.00000000D+00 0.00000000D+00 0.00000000D+00 0.00000000D+00
  <mgrwgt>
 0.7220998716D-01   25    2    0
 0.166866751655488D+03 0.000000000000000D+00 0.000000000000000D+00 0.166866751655488D+03
 0.166866751655488D+03 -.000000000000000D+00 -.000000000000000D+00 -.166866751655488D+03
 0.162472140890283D+03 0.729484058345895D+02 -.113393887708497D+02 0.729530322465604D+02
 0.115255920479947D+03 -.697506479268594D+02 -.285179167623164D+02 -.337385060225002D+02
 0.560054419407445D+02 -.319775790773009D+01 0.398573055331660D+02 -.392145262240602D+02
 0.000000000000000D+00 0.000000000000000D+00 0.000000000000000D+00 0.000000000000000D+00
 0.166866751655488D+03 0.000000000000000D+00 0.000000000000000D+00 0.166866751655488D+03
 0.166866751655488D+03 -.000000000000000D+00 -.000000000000000D+00 -.166866751655488D+03
 0.162334447743287D+03 0.729281838139506D+02 -.110873386537496D+02 0.727050469451312D+02
 0.115272137647401D+03 -.697650002931981D+02 -.283390268441953D+02 -.339145109804757D+02
 0.334516392576545D+02 -.485469937660551D+01 0.211827488730059D+02 -.254309892290921D+02
 0.226752786626329D+02 0.169151585585297D+01 0.182436166249390D+02 -.133595467355634D+02
0.245619493772D-04 0.000000000000D+00 0.000000000000D+00 0.120115165143D-04 0.000000000000D+00  6 1 -2 25 -24 21 21 2 0.13461925D+00 0.48955978D-02 0.21810140D+05 0.21810140D+05 0.21810140D+05 0.12297049D+01  1  2  2  3  6  5       21 0.129572008060D-01 0.100000000000D+01
0.108627866106D-05 0.129616967888D-05 -.943243529181D-07 0.120115165143D-04 0.000000000000D+00  6 1 -2 25 -24 21 21 4 0.13461925D+00 0.48955978D-02 0.21810140D+05 0.21810140D+05 0.21810140D+05 0.12297049D+01  1  2  3  3  6  5       21 0.866545535021D-03 0.100000000000D+01
0.975223350396D-06 0.000000000000D+00 0.000000000000D+00 0.120115165143D-04 0.000000000000D+00  6 1 -2 25 -24 21 21 4 0.13461925D+00 0.48955978D-02 0.21810140D+05 0.21810140D+05 0.21810140D+05 0.12297049D+01  1  2 15  3  6  5       21 0.777954561965D-03 0.100000000000D+01
0.259620114877D-04 0.000000000000D+00 0.000000000000D+00 0.120115057294D-04 0.000000000000D+00  6 1 -2 25 -24 21 21 4 0.13461925D+00 0.48955978D-02 0.21810394D+05 0.21810394D+05 0.21810394D+05 0.12297043D+01  1  2 12  3  6  5       21 0.207103663861D-01 0.100000000000D+01
0.256101006160D-04 0.000000000000D+00 0.000000000000D+00 0.120115057294D-04 0.000000000000D+00  6 1 -2 25 -24 21 21 4 0.13461925D+00 0.48955978D-02 0.21810394D+05 0.21810394D+05 0.21810394D+05 0.12297043D+01  1  2 12  3  6  5       21 0.204296407154D-01 0.100000000000D+01
-.388600854278D-03 0.000000000000D+00 0.000000000000D+00 0.120115165143D-04 0.000000000000D+00  6 1 -2 25 -24 21 21 4 0.13461925D+00 0.48955978D-02 0.21810140D+05 0.21810140D+05 0.21810140D+05 0.12297049D+01  1  2  4  3  6  5       21 -.309994430759D+00 0.100000000000D+01
-.262364379685D-03 0.000000000000D+00 0.000000000000D+00 0.120115165143D-04 0.000000000000D+00  6 1 -2 25 -24 21 21 4 0.13461925D+00 0.48955978D-02 0.21810140D+05 0.21810140D+05 0.21810140D+05 0.12297049D+01  1  2  5  3  6  5       21 -.209293149093D+00 0.100000000000D+01
0.456139079280D-03 0.000000000000D+00 -.000000000000D+00 0.120115165143D-04 0.000000000000D+00  6 1 -2 25 -24 21 21 4 0.13461925D+00 0.48955978D-02 0.21810140D+05 0.21810140D+05 0.21810140D+05 0.12297049D+01  1  2  6  3  6  5       21 0.363870981424D+00 0.100000000000D+01
0.216660620312D-03 0.000000000000D+00 0.000000000000D+00 0.120115165143D-04 0.332458421973D-05  6 1 -2 25 -24 21 21 4 0.13461925D+00 0.48955978D-02 0.21810394D+05 0.21810394D+05 0.21810394D+05 0.12297043D+01  1  2 11  3  6  5       21 0.172834097629D+00 0.100000000000D+01
0.657974521095D-06 0.000000000000D+00 0.000000000000D+00 0.120115057294D-04 0.000000000000D+00  6 1 -2 25 -24 1 -1 4 0.13461925D+00 0.48955978D-02 0.21810394D+05 0.21810394D+05 0.21810394D+05 0.12297043D+01  1  2 12  6  6  5       21 0.524878182535D-03 0.100000000000D+01
0.649444533665D-06 0.000000000000D+00 0.000000000000D+00 0.120115057294D-04 0.000000000000D+00  6 1 -2 25 -24 1 -1 4 0.13461925D+00 0.48955978D-02 0.21810394D+05 0.21810394D+05 0.21810394D+05 0.12297043D+01  1  2 12  6  6  5       21 0.518073657198D-03 0.100000000000D+01
-.659582056793D-05 0.000000000000D+00 0.000000000000D+00 0.120115165143D-04 0.000000000000D+00  6 1 -2 25 -24 1 -1 4 0.13461925D+00 0.48955978D-02 0.21810140D+05 0.21810140D+05 0.21810140D+05 0.12297049D+01  1  2  5  6  6  5       21 -.526161386378D-02 0.100000000000D+01
0.498896028147D-05 0.000000000000D+00 0.000000000000D+00 0.120115165143D-04 0.104394157746D-06  6 1 -2 25 -24 1 -1 4 0.13461925D+00 0.48955978D-02 0.21810394D+05 0.21810394D+05 0.21810394D+05 0.12297043D+01  1  2 11  6  6  5       21 0.397978389941D-02 0.100000000000D+01
0.657974521095D-06 0.000000000000D+00 0.000000000000D+00 0.120115057294D-04 0.000000000000D+00  6 1 -2 25 -24 2 -2 4 0.13461925D+00 0.48955978D-02 0.21810394D+05 0.21810394D+05 0.21810394D+05 0.12297043D+01  1  2 12  7  6  5       21 0.524878182535D-03 0.100000000000D+01
0.649444533665D-06 0.000000000000D+00 0.000000000000D+00 0.120115057294D-04 0.000000000000D+00  6 1 -2 25 -24 2 -2 4 0.13461925D+00 0.48955978D-02 0.21810394D+05 0.21810394D+05 0.21810394D+05 0.12297043D+01  1  2 12  7  6  5       21 0.518073657198D-03 0.100000000000D+01
-.659582056793D-05 0.000000000000D+00 0.000000000000D+00 0.120115165143D-04 0.000000000000D+00  6 1 -2 25 -24 2 -2 4 0.13461925D+00 0.48955978D-02 0.21810140D+05 0.21810140D+05 0.21810140D+05 0.12297049D+01  1  2  5  7  6  5       21 -.526161386378D-02 0.100000000000D+01
0.500312281358D-05 0.000000000000D+00 0.000000000000D+00 0.120115165143D-04 0.105103575976D-06  6 1 -2 25 -24 2 -2 4 0.13461925D+00 0.48955978D-02 0.21810394D+05 0.21810394D+05 0.21810394D+05 0.12297043D+01  1  2 11  7  6  5       21 0.399108160756D-02 0.100000000000D+01
0.657974521095D-06 0.000000000000D+00 0.000000000000D+00 0.120115057294D-04 0.000000000000D+00  6 1 -2 25 -24 3 -3 4 0.13461925D+00 0.48955978D-02 0.21810394D+05 0.21810394D+05 0.21810394D+05 0.12297043D+01  1  2 12  8  6  5       21 0.524878182535D-03 0.100000000000D+01
0.657974521095D-06 0.000000000000D+00 0.000000000000D+00 0.120115057294D-04 0.000000000000D+00  6 1 -2 25 -24 4 -4 4 0.13461925D+00 0.48955978D-02 0.21810394D+05 0.21810394D+05 0.21810394D+05 0.12297043D+01  1  2 12  8  6  5       21 0.524878182535D-03 0.100000000000D+01
0.649444533665D-06 0.000000000000D+00 0.000000000000D+00 0.120115057294D-04 0.000000000000D+00  6 1 -2 25 -24 3 -3 4 0.13461925D+00 0.48955978D-02 0.21810394D+05 0.21810394D+05 0.21810394D+05 0.12297043D+01  1  2 12  8  6  5       21 0.518073657198D-03 0.100000000000D+01
0.649444533665D-06 0.000000000000D+00 0.000000000000D+00 0.120115057294D-04 0.000000000000D+00  6 1 -2 25 -24 4 -4 4 0.13461925D+00 0.48955978D-02 0.21810394D+05 0.21810394D+05 0.21810394D+05 0.12297043D+01  1  2 12  8  6  5       21 0.518073657198D-03 0.100000000000D+01
-.659582056793D-05 0.000000000000D+00 0.000000000000D+00 0.120115165143D-04 0.000000000000D+00  6 1 -2 25 -24 3 -3 4 0.13461925D+00 0.48955978D-02 0.21810140D+05 0.21810140D+05 0.21810140D+05 0.12297049D+01  1  2  5  8  6  5       21 -.526161386378D-02 0.100000000000D+01
-.659582056793D-05 0.000000000000D+00 0.000000000000D+00 0.120115165143D-04 0.000000000000D+00  6 1 -2 25 -24 4 -4 4 0.13461925D+00 0.48955978D-02 0.21810140D+05 0.21810140D+05 0.21810140D+05 0.12297049D+01  1  2  5  8  6  5       21 -.526161386378D-02 0.100000000000D+01
0.498582304673D-05 0.000000000000D+00 0.000000000000D+00 0.120115165143D-04 0.104300867842D-06  6 1 -2 25 -24 3 -3 4 0.13461925D+00 0.48955978D-02 0.21810394D+05 0.21810394D+05 0.21810394D+05 0.12297043D+01  1  2 11  8  6  5       21 0.397728127048D-02 0.100000000000D+01
0.498582304673D-05 0.000000000000D+00 0.000000000000D+00 0.120115165143D-04 0.104300867842D-06  6 1 -2 25 -24 4 -4 4 0.13461925D+00 0.48955978D-02 0.21810394D+05 0.21810394D+05 0.21810394D+05 0.12297043D+01  1  2 11  8  6  5       21 0.397728127048D-02 0.100000000000D+01
  </mgrwgt>
  </event>
  <event>
  6     66 0.42750230E-03 0.31231213E+02 0.75467711E-02 0.11821489E+00
        1 -1    0    0  503    0 0.00000000E+00 0.00000000E+00 0.94711610E+03 0.94711615E+03 0.32000000E+00 0.0000E+00 0.9000E+01
       -2 -1    0    0    0  501 0.00000000E+00 0.00000000E+00 -.82399307E+02 0.82399928E+02 0.32000000E+00 0.0000E+00 0.9000E+01
       25  1    1    2    0    0 -.26527707E+02 0.34746044E+02 0.53538838E+02 0.14283702E+03 0.12500000E+03 0.0000E+00 0.9000E+01
      -24  1    1    2    0    0 0.64206629E+02 -.85350766E+02 0.10435892E+03 0.16960320E+03 0.80419002E+02 0.0000E+00 0.9000E+01
       21  1    1    2  502  501 -.56487024E+01 0.22305813E+02 0.25258821E+02 0.34176419E+02 0.75000000E+00 0.0000E+00 0.9000E+01
       21  1    1    2  503  502 -.32030219E+02 0.28298909E+02 0.68156022E+03 0.68289945E+03 0.75000000E+00 0.0000E+00 0.9000E+01
#aMCatNLO 2  0  0  1  2 0.42740650D+02 0.00000000D+00  -5  6  0 0.00000000D+00 0.00000000D+00 0.00000000D+00 0.00000000D+00 0.00000000D+00
  <mgrwgt>
 0.1856608465D+00    1    2    0
 0.145576437652681D+03 0.000000000000000D+00 0.000000000000000D+00 0.145576437652681D+03
 0.145576437652681D+03 0.000000000000000D+00 0.000000000000000D+00 -.145576437652681D+03
 0.142661025582926D+03 -.417135191713779D+02 0.481596711471568D+02 -.258417610411730D+02
 0.120906085689307D+03 0.502167484079677D+02 -.729932734513229D+02 0.173587387943582D+02
 0.275857640331284D+02 -.850322923658979D+01 0.248336023041662D+02 0.848302224681484D+01
 0.000000000000000D+00 -.000000000000000D+00 0.000000000000000D+00 0.000000000000000D+00
 0.526093733060583D+03 0.000000000000000D+00 0.000000000000000D+00 0.526093733060583D+03
 0.148341762520767D+03 0.000000000000000D+00 0.000000000000000D+00 -.148341762520767D+03
 0.134920075103038D+03 -.265263199604814D+02 0.347416810395604D+02 -.258417610411730D+02
 0.134820970427615D+03 0.642082548011123D+02 -.853548611125218D+02 0.173587387943582D+02
 0.245322288243505D+02 -.565171543380361D+01 0.223142711578408D+02 0.848302224681484D+01
 0.380162221226347D+03 -.320302194068273D+02 0.282989089151206D+02 0.377751970539816D+03
0.119708802189D-02 0.000000000000D+00 0.000000000000D+00 0.302585290595D-04 0.178196556283D-06  6 1 -2 25 -24 21 21 4 0.14570986D+00 0.12676837D-01 0.27536165D+05 0.27536165D+05 0.27536165D+05 0.12188241D+01  1  2  1  1  6  1        1 0.185660846494D+00 0.100000000000D+01
  </mgrwgt>
  </event>
  <event>
  5     66 0.42750230E-03 0.57601225E+02 0.75467711E-02 0.11858792E+00
        3 -1    0    0  502    0 0.00000000E+00 0.00000000E+00 0.10055976E+04 0.10055977E+04 0.50000000E+00 0.0000E+00 0.9000E+01
       -4 -1    0    0    0  501 0.00000000E+00 0.00000000E+00 -.40285512E+02 0.40315319E+02 0.15500000E+01 0.0000E+00 0.9000E+01
       25  1    1    2    0    0 -.44149511E+01 0.92581141E+02 0.55894990E+03 0.58020750E+03 0.12500000E+03 0.0000E+00 0.9000E+01
      -24  1    1    2    0    0 -.18885602E+02 -.39905029E+02 0.49536455E+02 0.10426003E+03 0.80419002E+02 0.0000E+00 0.9000E+01
       21  1    1    2  502  501 0.23300553E+02 -.52676112E+02 0.35682569E+03 0.36144546E+03 0.75000000E+00 0.0000E+00 0.9000E+01
#aMCatNLO 1  0  0  5  2 0.31800682D+02 0.00000000D+00  -5  6  0 0.00000000D+00 0.00000000D+00 0.00000000D+00 0.00000000D+00 0.00000000D+00
  <mgrwgt>
 0.3368767275D-02    9    2    0
 0.201312355831169D+03 0.000000000000000D+00 0.000000000000000D+00 0.201312355831169D+03
 0.201312355831169D+03 -.000000000000000D+00 -.000000000000000D+00 -.201312355831169D+03
 0.167117299761215D+03 -.441534182537012D+01 0.925820241240367D+02 0.609283632238819D+02
 0.152074647717423D+03 -.188859577523845D+02 -.399042247008395D+02 -.121286668578240D+03
 0.834327641836993D+02 0.233012995777547D+02 -.526777994231972D+02 0.603583053543579D+02
 0.000000000000000D+00 -.000000000000000D+00 0.000000000000000D+00 0.000000000000000D+00
 0.201312355831169D+03 0.000000000000000D+00 0.000000000000000D+00 0.201312355831169D+03
 0.201312355831169D+03 -.000000000000000D+00 -.000000000000000D+00 -.201312355831169D+03
 0.166386995556547D+03 -.146682702814578D+00 0.829317654200692D+02 0.719856448108217D+02
 0.146485123326814D+03 -.150645680186128D+02 -.485433309121374D+02 -.111387967106275D+03
 0.572102983853700D+02 0.416784405275230D+02 -.334053790418950D+02 0.204940598126413D+02
 0.325422943936062D+02 -.264671898060956D+02 -.983055466036797D+00 0.189082624828125D+02
0.156645089432D-03 0.000000000000D+00 0.000000000000D+00 0.441365034132D-05 0.000000000000D+00  6 3 -4 25 -24 21 21 2 0.15470962D+00 0.62000734D-02 0.23249537D+05 0.23249537D+05 0.23249537D+05 0.12266921D+01  1  2  2  3  6  5       21 0.255763892579D-02 0.100000000000D+01
-.406842146413D-05 0.826638847555D-05 -.601558389020D-06 0.441365034132D-05 0.000000000000D+00  6 3 -4 25 -24 21 21 4 0.15470962D+00 0.62000734D-02 0.23249537D+05 0.23249537D+05 0.23249537D+05 0.12266921D+01  1  2  3  3  6  5       21 -.999584506069D-04 0.100000000000D+01
0.619538536002D-05 0.000000000000D+00 0.000000000000D+00 0.441365034132D-05 0.000000000000D+00  6 3 -4 25 -24 21 21 4 0.15470962D+00 0.62000734D-02 0.23249537D+05 0.23249537D+05 0.23249537D+05 0.12266921D+01  1  2 15  3  6  5       21 0.152216560393D-03 0.100000000000D+01
0.698760501522D-04 0.000000000000D+00 0.000000000000D+00 0.437096273185D-05 0.000000000000D+00  6 3 -4 25 -24 21 21 4 0.15470962D+00 0.62000734D-02 0.26413195D+05 0.26413195D+05 0.26413195D+05 0.12207456D+01  1  2 12  3  6  5       21 0.169683489429D-02 0.100000000000D+01
-.440360144318D-04 0.000000000000D+00 0.000000000000D+00 0.441365034132D-05 0.000000000000D+00  6 3 -4 25 -24 21 21 4 0.15470962D+00 0.62000734D-02 0.23249537D+05 0.23249537D+05 0.23249537D+05 0.12266921D+01  1  2  4  3  6  5       21 -.108193603153D-02 0.100000000000D+01
0.148219357687D-05 0.000000000000D+00 0.000000000000D+00 0.437096273185D-05 0.000000000000D+00  6 3 -4 25 -24 3 -3 4 0.15470962D+00 0.62000734D-02 0.26413195D+05 0.26413195D+05 0.26413195D+05 0.12207456D+01  1  2 12  6  6  5       21 0.359928441268D-04 0.100000000000D+01
0.148219357687D-05 0.000000000000D+00 0.000000000000D+00 0.437096273185D-05 0.000000000000D+00  6 3 -4 25 -24 4 -4 4 0.15470962D+00 0.62000734D-02 0.26413195D+05 0.26413195D+05 0.26413195D+05 0.12207456D+01  1  2 12  7  6  5       21 0.359928441268D-04 0.100000000000D+01
0.148219357687D-05 0.000000000000D+00 0.000000000000D+00 0.437096273185D-05 0.000000000000D+00  6 3 -4 25 -24 1 -1 4 0.15470962D+00 0.62000734D-02 0.26413195D+05 0.26413195D+05 0.26413195D+05 0.12207456D+01  1  2 12  8  6  5       21 0.359928441268D-04 0.100000000000D+01
0.148219357687D-05 0.000000000000D+00 0.000000000000D+00 0.437096273185D-05 0.000000000000D+00  6 3 -4 25 -24 2 -2 4 0.15470962D+00 0.62000734D-02 0.26413195D+05 0.26413195D+05 0.26413195D+05 0.12207456D+01  1  2 12  8  6  5       21 0.359928441268D-04 0.100000000000D+01
  </mgrwgt>
  </event>
  <event>
  6     66 0.42750230E-03 0.27626594E+02 0.75467711E-02 0.11904860E+00
        1 -1    0    0  502    0 0.00000000E+00 0.00000000E+00 0.22863849E+03 0.22863872E+03 0.32000000E+00 0.0000E+00 0.9000E+01
       -2 -1    0    0    0  503 0.00000000E+00 0.00000000E+00 -.13338041E+03 0.13338080E+03 0.32000000E+00 0.0000E+00 0.9000E+01
       25  1    1    2    0    0 -.14903827E+02 0.79286030E+02 0.51514224E+02 0.15743924E+03 0.12500000E+03 0.0000E+00 0.9000E+01
      -24  1    1    2    0    0 0.57548976E+02 -.60736518E+02 0.80041936E+02 0.14097779E+03 0.80419002E+02 0.0000E+00 0.9000E+01
       21  1    1    2  502  501 -.35541237E+02 -.39169065E+01 -.22446446E+02 0.42224722E+02 0.75000000E+00 0.0000E+00 0.9000E+01
       21  1    1    2  501  503 -.71039118E+01 -.14632606E+02 -.13851632E+02 0.21377767E+02 0.75000000E+00 0.0000E+00 0.9000E+01
#aMCatNLO 2  0  0  2  5 0.16265876D+02 0.00000000D+00  -5  6  0 0.00000000D+00 0.00000000D+00 0.00000000D+00 0.00000000D+00 0.00000000D+00
  <mgrwgt>
 0.4494455029D-01    1    2    0
 0.161142245034463D+03 0.000000000000000D+00 0.000000000000000D+00 0.161142245034463D+03
 0.161142245034463D+03 0.000000000000000D+00 0.000000000000000D+00 -.161142245034463D+03
 0.145695417164106D+03 -.181455524628053D+02 0.726056246204009D+02 0.114751118679519D+01
 0.123399595713916D+03 0.548502129548042D+02 -.662980558659633D+02 0.368275195362590D+02
 0.531894771909048D+02 -.367046604919989D+02 -.630756875443764D+01 -.379750307230542D+02
 0.000000000000000D+00 -.000000000000000D+00 -.000000000000000D+00 -.000000000000000D+00
 0.164042241458170D+03 0.000000000000000D+00 0.000000000000000D+00 0.164042241458170D+03
 0.185891832586606D+03 0.000000000000000D+00 0.000000000000000D+00 -.185891832586606D+03
 0.148777387357184D+03 -.149021783458273D+02 0.792863121065354D+02 0.114751118679519D+01
 0.121755575730588D+03 0.575503941786663D+02 -.607362346692897D+02 0.368275195362590D+02
 0.521617397652927D+02 -.355443040685141D+02 -.391747178805574D+01 -.379750307230542D+02
 0.272393711917110D+02 -.710391176432490D+01 -.146326056491899D+02 -.218495911284352D+02
0.939619934444D-04 0.000000000000D+00 0.000000000000D+00 0.156229589871D-04 0.390422091164D-06  6 1 -2 25 -24 21 21 4 0.35174107D-01 0.20519473D-01 0.25098599D+05 0.25098599D+05 0.25098599D+05 0.12231144D+01  1  2  1  2  6  2       -2 0.449445502882D-01 0.100000000000D+01
  </mgrwgt>
  </event>
  <event>
  5     66 0.42750230E-03 0.26380784E+02 0.75467711E-02 0.11975445E+00
        1 -1    0    0  502    0 0.00000000E+00 0.00000000E+00 0.49408095E+03 0.49408106E+03 0.32000000E+00 0.0000E+00 0.9000E+01
       -2 -1    0    0    0  501 0.00000000E+00 0.00000000E+00 -.44025930E+02 0.44027093E+02 0.32000000E+00 0.0000E+00 0.9000E+01
       25  1    1    2    0    0 -.51771079E+02 0.70737693E+02 0.28015857E+03 0.31905782E+03 0.12500000E+03 0.0000E+00 0.9000E+01
      -24  1    1    2    0    0 0.53592857E+02 -.44428197E+02 0.10712799E+03 0.15096251E+03 0.80419002E+02 0.0000E+00 0.9000E+01
       21  1    1    2  502  501 -.18217778E+01 -.26309496E+02 0.62768467E+02 0.68087821E+02 0.75000000E+00 0.0000E+00 0.9000E+01
#aMCatNLO 1  0  0  1  5 0.18558390D+02 0.00000000D+00  -5  6  0 0.00000000D+00 0.00000000D+00 0.00000000D+00 0.00000000D+00 0.00000000D+00
  <mgrwgt>
 0.1605942643D+00    9    4    0
 0.147488014609466D+03 0.000000000000000D+00 0.000000000000000D+00 0.147488014609466D+03
 0.147488014609466D+03 0.000000000000000D+00 0.000000000000000D+00 -.147488014609466D+03
 0.154593459063171D+03 -.517707469304796D+02 0.707424897200181D+02 0.242781279259695D+02
 0.111942745863955D+03 0.535930973995779D+02 -.444247233386303D+02 -.349025251894028D+02
 0.284398242918056D+02 -.182235046909829D+01 -.263177663813878D+02 0.106243972634332D+02
 0.000000000000000D+00 -.000000000000000D+00 0.000000000000000D+00 0.000000000000000D+00
 0.260369285625323D+03 0.000000000000000D+00 0.000000000000000D+00 0.260369285625323D+03
 0.148544380782266D+03 0.000000000000000D+00 0.000000000000000D+00 -.148544380782266D+03
 0.149423693970033D+03 -.470943051760985D+02 0.624110506564397D+02 0.242781279259695D+02
 0.116251745394805D+03 0.571032225237536D+02 -.506782800198844D+02 -.349025251894028D+02
 0.298838129940364D+02 -.925206706157052D+00 -.279160966899417D+02 0.106243972634332D+02
 0.113354414048714D+03 -.908371064149804D+01 0.161833260533864D+02 0.111824904843057D+03
 0.147488014609466D+03 0.000000000000000D+00 0.000000000000000D+00 0.147488014609466D+03
 0.147488014609466D+03 0.000000000000000D+00 0.000000000000000D+00 -.147488014609466D+03
 0.154593459063171D+03 -.517707469304796D+02 0.707424897200181D+02 0.242781279259695D+02
 0.111942745863955D+03 0.535930973995779D+02 -.444247233386303D+02 -.349025251894028D+02
 0.000000000000000D+00 -.000000000000000D+00 0.000000000000000D+00 0.000000000000000D+00
 0.284398242918056D+02 -.182235046909829D+01 -.263177663813878D+02 0.106243972634332D+02
 0.260369285625323D+03 0.000000000000000D+00 0.000000000000000D+00 0.260369285625323D+03
 0.148544380782266D+03 0.000000000000000D+00 0.000000000000000D+00 -.148544380782266D+03
 0.149423693970033D+03 -.470943051760985D+02 0.624110506564397D+02 0.242781279259695D+02
 0.116251745394805D+03 0.571032225237536D+02 -.506782800198844D+02 -.349025251894028D+02
 0.113354414048714D+03 -.908371064149804D+01 0.161833260533864D+02 0.111824904843057D+03
 0.298838129940364D+02 -.925206706157052D+00 -.279160966899417D+02 0.106243972634332D+02
0.236502794028D-04 0.000000000000D+00 0.000000000000D+00 0.291160435366D-04 0.000000000000D+00  6 1 -2 25 -24 21 21 2 0.76012552D-01 0.67733175D-02 0.20365932D+05 0.20365932D+05 0.20365932D+05 0.12329601D+01  1  2  2  1  6  1        1 0.171886820813D-01 0.100000000000D+01
0.398878671731D-05 0.124805953259D-05 -.908233001683D-07 0.291160435366D-04 0.000000000000D+00  6 1 -2 25 -24 21 21 4 0.76012552D-01 0.67733175D-02 0.20365932D+05 0.20365932D+05 0.20365932D+05 0.12329601D+01  1  2  3  1  6  1        1 0.440702141039D-02 0.100000000000D+01
0.868353641324D-06 0.000000000000D+00 0.000000000000D+00 0.291160435366D-04 0.000000000000D+00  6 1 -2 25 -24 21 21 4 0.76012552D-01 0.67733175D-02 0.20365932D+05 0.20365932D+05 0.20365932D+05 0.12329601D+01  1  2 15  1  6  1        1 0.959402785939D-03 0.100000000000D+01
0.672183999780D-03 0.000000000000D+00 0.000000000000D+00 0.288227793319D-04 0.000000000000D+00  6 1 -2 25 -24 21 21 4 0.13945644D+00 0.67733175D-02 0.23228287D+05 0.23228287D+05 0.23228287D+05 0.12267350D+01  1  2 12  1  6  1        1 0.307079466765D+00 0.100000000000D+01
-.464971456405D-03 0.000000000000D+00 0.000000000000D+00 0.291160435366D-04 0.000000000000D+00  6 1 -2 25 -24 21 21 4 0.76012552D-01 0.67733175D-02 0.20365932D+05 0.20365932D+05 0.20365932D+05 0.12329601D+01  1  2  4  1  6  1        1 -.513724926606D+00 0.100000000000D+01
-.746524139525D-03 0.000000000000D+00 -.174876417831D-04 0.291160435366D-04 0.000000000000D+00  6 1 -2 25 -24 21 21 4 0.13451024D+00 0.67733175D-02 0.20365932D+05 0.20365932D+05 0.20365932D+05 0.12329601D+01  1  2  5  1  6  1        1 -.368088466495D+00 0.100000000000D+01
0.650204950209D-03 0.000000000000D+00 0.149807269366D-04 0.291160435366D-04 0.000000000000D+00  6 1 -2 25 -24 21 21 4 0.76012552D-01 0.67733175D-02 0.20365932D+05 0.20365932D+05 0.20365932D+05 0.12329601D+01  1  2  6  1  6  1        1 0.718380635464D+00 0.100000000000D+01
0.445638494641D-04 0.000000000000D+00 0.000000000000D+00 0.288227793319D-04 0.000000000000D+00  6 21 -2 25 -24 -1 21 4 0.13945644D+00 0.67733175D-02 0.23228287D+05 0.23228287D+05 0.23228287D+05 0.12267350D+01  3  4 12  4  5  1        1 0.353778083338D-01 0.100000000000D+01
-.460165700744D-04 0.000000000000D+00 -.109915602149D-05 0.291160435366D-04 0.000000000000D+00  6 21 -2 25 -24 -1 21 4 0.13451024D+00 0.67733175D-02 0.20365932D+05 0.20365932D+05 0.20365932D+05 0.12329601D+01  3  4  5  4  5  1        1 -.409853594757D-01 0.100000000000D+01
  </mgrwgt>
  </event>
  <event>
  5     66 0.42750230E-03 0.11665004E+03 0.75467711E-02 0.10979489E+00
        1 -1    0    0  502    0 0.00000000E+00 0.00000000E+00 0.39657809E+03 0.39657821E+03 0.32000000E+00 0.0000E+00 0.9000E+01
       -2 -1    0    0    0  501 0.00000000E+00 0.00000000E+00 -.15569130E+03 0.15569163E+03 0.32000000E+00 0.0000E+00 0.9000E+01
       25  1    1    2    0    0 0.23691021E+02 0.61862148E+02 0.17999927E+03 0.22893870E+03 0.12500000E+03 0.0000E+00 0.9000E+01
      -24  1    1    2    0    0 -.53673033E+02 -.17459144E+03 0.24142263E+02 0.20102992E+03 0.80419002E+02 0.0000E+00 0.9000E+01
       21  1    1    2  502  501 0.29982012E+02 0.11272929E+03 0.36745250E+02 0.12230123E+03 0.75000000E+00 0.0000E+00 0.9000E+01
#aMCatNLO 1  0  0  2  2 0.86171827D+02 0.00000000D+00  -5  6  0 0.00000000D+00 0.00000000D+00 0.00000000D+00 0.00000000D+00 0.00000000D+00
  <mgrwgt>
 0.3107805510D-01    4    2    0
 0.248483167634241D+03 0.000000000000000D+00 0.000000000000000D+00 0.248483167634241D+03
 0.248483167634241D+03 0.000000000000000D+00 0.000000000000000D+00 -.248483167634241D+03
 0.167167000551411D+03 0.236908177130067D+02 0.618613830063863D+02 0.890602072868789D+02
 0.211699680622870D+03 -.536732906347552D+02 -.174592405774212D+03 -.706130904285088D+02
 0.118099654094200D+03 0.299824729217485D+02 0.112731022767826D+03 -.184471168583700D+02
 0.000000000000000D+00 -.000000000000000D+00 -.000000000000000D+00 0.000000000000000D+00
 0.394467475077037D+03 0.000000000000000D+00 0.000000000000000D+00 0.394467475077037D+03
 0.265238763700053D+03 0.000000000000000D+00 0.000000000000000D+00 -.265238763700053D+03
 0.181062604476262D+03 0.377271591131043D+02 0.883380307851607D+02 0.890602072868789D+02
 0.183752068399605D+03 -.377335322787588D+02 -.144525356559553D+03 -.706130904285088D+02
 0.139567248129663D+03 0.403684382587057D+02 0.132321992966603D+03 -.184471168583700D+02
 0.155324317771559D+03 -.403620650930513D+02 -.761346671922106D+02 0.129228711376984D+03
0.302995835224D-03 0.000000000000D+00 0.000000000000D+00 0.110583499068D-05 0.000000000000D+00  6 1 -2 25 -24 21 21 2 0.61012048D-01 0.23952543D-01 0.52370851D+05 0.52370851D+05 0.52370851D+05 0.11902943D+01  1  2  2  2  6  2       -2 0.354710246778D-01 0.100000000000D+01
-.175527351733D-04 0.159895295123D-04 -.116358378790D-05 0.110583499068D-05 0.000000000000D+00  6 1 -2 25 -24 21 21 4 0.61012048D-01 0.23952543D-01 0.52370851D+05 0.52370851D+05 0.52370851D+05 0.11902943D+01  1  2  3  2  6  2       -2 -.291132438321D-02 0.100000000000D+01
0.827684679380D-05 0.000000000000D+00 0.000000000000D+00 0.110583499068D-05 0.000000000000D+00  6 1 -2 25 -24 21 21 4 0.61012048D-01 0.23952543D-01 0.52370851D+05 0.52370851D+05 0.52370851D+05 0.11902943D+01  1  2 15  2  6  2       -2 0.137281088383D-02 0.100000000000D+01
-.172098691339D-04 0.000000000000D+00 0.000000000000D+00 0.110583499068D-05 0.000000000000D+00  6 1 -2 25 -24 21 21 4 0.61012048D-01 0.23952543D-01 0.52370851D+05 0.52370851D+05 0.52370851D+05 0.11902943D+01  1  2  4  2  6  2       -2 -.285445608030D-02 0.100000000000D+01
  </mgrwgt>
  </event>
  <event>
  5     66 0.42750230E-03 0.35902347E+03 0.75467711E-02 0.95667861E-01
        1 -1    0    0  502    0 0.00000000E+00 0.00000000E+00 0.98515106E+02 0.98515626E+02 0.32000000E+00 0.0000E+00 0.9000E+01
       -2 -1    0    0    0  501 0.00000000E+00 0.00000000E+00 -.24851463E+04 0.24851463E+04 0.32000000E+00 0.0000E+00 0.9000E+01
       25  1    1    2    0    0 -.14654673E+03 -.12522578E+03 -.70646461E+03 0.74288268E+03 0.12500000E+03 0.0000E+00 0.9000E+01
      -24  1    1    2    0    0 -.21018445E+03 0.84722638E+02 -.12832171E+04 0.13055530E+04 0.80419002E+02 0.0000E+00 0.9000E+01
       21  1    1    2  502  501 0.35673119E+03 0.40503137E+02 -.39694951E+03 0.53522623E+03 0.75000000E+00 0.0000E+00 0.9000E+01
#aMCatNLO 1  0  0  2  1 0.61625875D+03 0.00000000D+00  -5  6  0 0.00000000D+00 0.00000000D+00 0.00000000D+00 0.00000000D+00 0.00000000D+00
  <mgrwgt>
 0.5054736950D-02    5    4    0
 0.494798088006006D+03 0.000000000000000D+00 0.000000000000000D+00 0.494798088006006D+03
 0.494798088006006D+03 0.000000000000000D+00 0.000000000000000D+00 -.494798088006006D+03
 0.235739949839777D+03 -.146546856842515D+03 -.125225789497712D+03 -.528284425732472D+02
 0.313806742990698D+03 -.210184618578048D+03 0.847226194224946D+02 -.201623311805583D+03
 0.440049483181537D+03 0.356731475420563D+03 0.405031700752169D+02 0.254451754378830D+03
 0.000000000000000D+00 0.000000000000000D+00 0.000000000000000D+00 -.000000000000000D+00
 0.829565285790024D+03 0.000000000000000D+00 0.000000000000000D+00 0.829565285790024D+03
 0.967801299553204D+03 0.000000000000000D+00 0.000000000000000D+00 -.967801299553204D+03
 0.370873071950600D+03 -.319933757347733D+03 -.129512092341688D+03 -.528284425732472D+02
 0.499226082838857D+03 -.442572049470191D+03 0.789777626712924D+02 -.201623311805583D+03
 0.295694755133646D+03 0.146435275926638D+03 0.353044313277001D+02 0.254451754378830D+03
 0.631572675420124D+03 0.616070530891286D+03 0.152298983426958D+02 -.138236013763180D+03
 0.494798088006006D+03 0.000000000000000D+00 0.000000000000000D+00 0.494798088006006D+03
 0.494798088006006D+03 0.000000000000000D+00 0.000000000000000D+00 -.494798088006006D+03
 0.235739949839777D+03 -.146546856842515D+03 -.125225789497712D+03 -.528284425732472D+02
 0.313806742990698D+03 -.210184618578048D+03 0.847226194224946D+02 -.201623311805583D+03
 0.000000000000000D+00 0.000000000000000D+00 0.000000000000000D+00 -.000000000000000D+00
 0.440049483181537D+03 0.356731475420563D+03 0.405031700752169D+02 0.254451754378830D+03
 0.829565285790024D+03 0.000000000000000D+00 0.000000000000000D+00 0.829565285790024D+03
 0.967801299553204D+03 0.000000000000000D+00 0.000000000000000D+00 -.967801299553204D+03
 0.370873071950600D+03 -.319933757347733D+03 -.129512092341688D+03 -.528284425732472D+02
 0.499226082838857D+03 -.442572049470191D+03 0.789777626712924D+02 -.201623311805583D+03
 0.631572675420124D+03 0.616070530891286D+03 0.152298983426958D+02 -.138236013763180D+03
 0.295694755133646D+03 0.146435275926638D+03 0.353044313277001D+02 0.254451754378830D+03
0.121969070064D-01 0.000000000000D+00 0.000000000000D+00 0.374711233929D-06 0.000000000000D+00  6 1 -2 25 -24 21 21 2 0.15156212D-01 0.38233024D+00 0.17190617D+06 0.17190617D+06 0.17190617D+06 0.11425568D+01  1  2  2  2  6  2       -2 0.574513329320D-02 0.100000000000D+01
-.129869191869D-02 0.643648465971D-03 -.468393344240D-04 0.374711233929D-06 0.000000000000D+00  6 1 -2 25 -24 21 21 4 0.15156212D-01 0.38233024D+00 0.17190617D+06 0.17190617D+06 0.17190617D+06 0.11425568D+01  1  2  3  2  6  2       -2 -.798568481623D-03 0.100000000000D+01
0.191138932540D-03 0.000000000000D+00 0.000000000000D+00 0.374711233929D-06 0.000000000000D+00  6 1 -2 25 -24 21 21 4 0.15156212D-01 0.38233024D+00 0.17190617D+06 0.17190617D+06 0.17190617D+06 0.11425568D+01  1  2 15  2  6  2       -2 0.117531744782D-03 0.100000000000D+01
-.171010651120D-02 0.000000000000D+00 -.374649945674D-02 0.374711233929D-06 0.000000000000D+00  6 1 -2 25 -24 21 21 4 0.15156212D-01 0.80125234D+00 0.17190617D+06 0.17190617D+06 0.17190617D+06 0.11425568D+01  1  2  5  2  6  2       -2 -.955986473222D-05 0.100000000000D+01
0.949486958389D-04 0.000000000000D+00 -.299783681102D-03 0.374711233929D-06 0.000000000000D+00  6 1 21 25 -24 2 21 4 0.15156212D-01 0.80125234D+00 0.17190617D+06 0.17190617D+06 0.17190617D+06 0.11425568D+01  3  4  5  5  5  2       -2 0.200258581184D-06 0.100000000000D+01
  </mgrwgt>
  </event>
  <event>
  5     66 0.42750230E-03 0.48995486E+02 0.75467711E-02 0.10588194E+00
        1 -1    0    0  502    0 0.00000000E+00 0.00000000E+00 0.73183724E+02 0.73184424E+02 0.32000000E+00 0.0000E+00 0.9000E+01
       -2 -1    0    0    0  501 0.00000000E+00 0.00000000E+00 -.48602977E+03 0.48602988E+03 0.32000000E+00 0.0000E+00 0.9000E+01
       25  1    1    2    0    0 -.39294005E+02 0.44252180E+02 -.12738708E+03 0.18802857E+03 0.12500000E+03 0.0000E+00 0.9000E+01
      -24  1    1    2    0    0 0.51620253E+02 -.91670540E+02 -.69135851E+02 0.14938246E+03 0.80419002E+02 0.0000E+00 0.9000E+01
       21  1    1    2  502  501 -.12326249E+02 0.47418360E+02 -.21632312E+03 0.22180327E+03 0.75000000E+00 0.0000E+00 0.9000E+01
#aMCatNLO 1  0  0  2  1 0.61625875D+03 0.00000000D+00  -5  6  0 0.00000000D+00 0.00000000D+00 0.00000000D+00 0.00000000D+00 0.00000000D+00
  <mgrwgt>
 0.5019254599D-01    5    4    0
 0.188599295038872D+03 0.000000000000000D+00 0.000000000000000D+00 0.188599295038872D+03
 0.188599295038872D+03 0.000000000000000D+00 0.000000000000000D+00 -.188599295038872D+03
 0.139335011851091D+03 -.392938534387951D+02 0.442515984738258D+02 0.169420967411209D+02
 0.145797655711882D+03 0.516204115024591D+02 -.916711477368261D+02 0.610038871354903D+02
 0.920659225147716D+02 -.123265580636640D+02 0.474195492630003D+02 -.779459838766112D+02
 0.000000000000000D+00 0.000000000000000D+00 -.000000000000000D+00 -.000000000000000D+00
 0.282251625328752D+03 0.000000000000000D+00 0.000000000000000D+00 0.282251625328752D+03
 0.688686115414977D+03 0.000000000000000D+00 0.000000000000000D+00 -.688686115414977D+03
 0.207575782582135D+03 -.155680139384980D+03 0.542159116281683D+02 0.169420967411209D+02
 0.138081340796433D+03 -.436191215184492D+02 -.835172958978520D+02 0.610038871354903D+02
 0.128013761698451D+03 -.861618421447894D+02 0.537408944837281D+02 -.779459838766112D+02
 0.497266855666711D+03 0.285461103048218D+03 -.244395102140443D+02 -.406434490086224D+03
 0.188599295038872D+03 0.000000000000000D+00 0.000000000000000D+00 0.188599295038872D+03
 0.188599295038872D+03 0.000000000000000D+00 0.000000000000000D+00 -.188599295038872D+03
 0.139335011851091D+03 -.392938534387951D+02 0.442515984738258D+02 0.169420967411209D+02
 0.145797655711882D+03 0.516204115024591D+02 -.916711477368261D+02 0.610038871354903D+02
 0.000000000000000D+00 0.000000000000000D+00 -.000000000000000D+00 -.000000000000000D+00
 0.920659225147716D+02 -.123265580636640D+02 0.474195492630003D+02 -.779459838766112D+02
 0.282251625328752D+03 0.000000000000000D+00 0.000000000000000D+00 0.282251625328752D+03
 0.688686115414977D+03 0.000000000000000D+00 0.000000000000000D+00 -.688686115414977D+03
 0.207575782582135D+03 -.155680139384980D+03 0.542159116281683D+02 0.169420967411209D+02
 0.138081340796433D+03 -.436191215184492D+02 -.835172958978520D+02 0.610038871354903D+02
 0.497266855666711D+03 0.285461103048218D+03 -.244395102140443D+02 -.406434490086224D+03
 0.128013761698451D+03 -.861618421447894D+02 0.537408944837281D+02 -.779459838766112D+02
0.398941329357D-03 0.000000000000D+00 0.000000000000D+00 0.969630641721D-05 0.000000000000D+00  6 1 -2 25 -24 21 21 2 0.11259096D-01 0.74773873D-01 0.25554941D+05 0.25554941D+05 0.25554941D+05 0.12222767D+01  1  2  2  2  6  2       -2 0.465945059142D-01 0.100000000000D+01
0.925995976435D-05 0.210527123408D-04 -.153203974839D-05 0.969630641721D-05 0.000000000000D+00  6 1 -2 25 -24 21 21 4 0.11259096D-01 0.74773873D-01 0.25554941D+05 0.25554941D+05 0.25554941D+05 0.12222767D+01  1  2  3  2  6  2       -2 0.161574882959D-02 0.100000000000D+01
0.113813147078D-04 0.000000000000D+00 0.000000000000D+00 0.969630641721D-05 0.000000000000D+00  6 1 -2 25 -24 21 21 4 0.11259096D-01 0.74773873D-01 0.25554941D+05 0.25554941D+05 0.25554941D+05 0.12222767D+01  1  2 15  2  6  2       -2 0.198589911687D-02 0.100000000000D+01
0.319129103299D-05 0.000000000000D+00 -.223063044520D-03 0.969630641721D-05 0.000000000000D+00  6 1 -2 25 -24 21 21 4 0.11259096D-01 0.32826539D+00 0.25554941D+05 0.25554941D+05 0.25554941D+05 0.12222767D+01  1  2  5  2  6  2       -2 0.886246706519D-05 0.100000000000D+01
-.392752561239D-06 0.000000000000D+00 -.398051333955D-04 0.969630641721D-05 0.000000000000D+00  6 1 21 25 -24 2 21 4 0.11259096D-01 0.32826539D+00 0.25554941D+05 0.25554941D+05 0.25554941D+05 0.12222767D+01  3  4  5  5  5  2       -2 -.124703419601D-04 0.100000000000D+01
  </mgrwgt>
  </event>
  <event>
  6     66 0.42750230E-03 0.17448080E+02 0.75467711E-02 0.11961138E+00
        1 -1    0    0  503    0 0.00000000E+00 0.00000000E+00 0.50139512E+03 0.50139522E+03 0.32000000E+00 0.0000E+00 0.9000E+01
       -2 -1    0    0    0  501 0.00000000E+00 0.00000000E+00 -.60038414E+02 0.60039266E+02 0.32000000E+00 0.0000E+00 0.9000E+01
       25  1    1    2    0    0 -.68999722E+02 0.38093734E+02 0.13100216E+03 0.19748078E+03 0.12500000E+03 0.0000E+00 0.9000E+01
      -24  1    1    2    0    0 0.60187793E+02 0.59759919E+01 0.12283326E+03 0.15878762E+03 0.80419002E+02 0.0000E+00 0.9000E+01
       21  1    1    2  502  501 -.14591208E+02 -.23384880E+02 0.18321287E+02 0.33105710E+02 0.75000000E+00 0.0000E+00 0.9000E+01
       21  1    1    2  503  502 0.23403136E+02 -.20684845E+02 0.16920000E+03 0.17206037E+03 0.75000000E+00 0.0000E+00 0.9000E+01
#aMCatNLO 2  0  0  1  1 0.31234110D+02 0.00000000D+00  -5  6  0 0.00000000D+00 0.00000000D+00 0.00000000D+00 0.00000000D+00 0.00000000D+00
  <mgrwgt>
 0.5606171569D-01    1    2    0
 0.138354037683417D+03 0.000000000000000D+00 0.000000000000000D+00 0.138354037683417D+03
 0.138354037683417D+03 0.000000000000000D+00 0.000000000000000D+00 -.138354037683417D+03
 0.140357292841591D+03 -.568378384971821D+02 0.273505862798017D+02 -.982726813206450D+01
 0.107272495699296D+03 0.690102818785291D+02 -.181707789371125D+01 0.165665808831857D+02
 0.290782868259475D+02 -.121724433813470D+02 -.255335083860905D+02 -.673931275112116D+01
 0.000000000000000D+00 0.000000000000000D+00 -.000000000000000D+00 0.000000000000000D+00
 0.211055151432807D+03 0.000000000000000D+00 0.000000000000000D+00 0.211055151432807D+03
 0.142628420942172D+03 0.000000000000000D+00 0.000000000000000D+00 -.142628420942172D+03
 0.148100351880287D+03 -.689976678432954D+02 0.380980427359675D+02 -.982726813206450D+01
 0.101981214898257D+03 0.601892661853567D+02 0.597937050725478D+01 0.165665808831857D+02
 0.283837427251017D+02 -.145947347853268D+02 -.233925678640313D+02 -.673931275112116D+01
 0.752182628713337D+02 0.234031364432655D+02 -.206848453791910D+02 0.684267304906345D+02
0.852037314107D-04 0.000000000000D+00 0.000000000000D+00 0.279322469806D-04 0.129744882879D-06  6 1 -2 25 -24 21 21 4 0.77136794D-01 0.92366340D-02 0.23593995D+05 0.23593995D+05 0.23593995D+05 0.12260020D+01  1  2  1  1  6  1        1 0.560617156887D-01 0.100000000000D+01
  </mgrwgt>
  </event>
  <event>
  5     66 0.42750230E-03 0.21359170E+02 0.75467711E-02 0.11036013E+00
        1 -1    0    0  502    0 0.00000000E+00 0.00000000E+00 0.12872001E+04 0.12872001E+04 0.32000000E+00 0.0000E+00 0.9000E+01
       -2 -1    0    0    0  501 0.00000000E+00 0.00000000E+00 -.53987300E+02 0.53988248E+02 0.32000000E+00 0.0000E+00 0.9000E+01
       25  1    1    2    0    0 -.77771077E+02 0.21040031E+03 0.69167937E+03 0.73780891E+03 0.12500000E+03 0.0000E+00 0.9000E+01
      -24  1    1    2    0    0 0.98987277E+02 -.20803003E+03 0.50888907E+03 0.56436715E+03 0.80419002E+02 0.0000E+00 0.9000E+01
       21  1    1    2  502  501 -.21216200E+02 -.23702755E+01 0.32644343E+02 0.39012318E+02 0.75000000E+00 0.0000E+00 0.9000E+01
#aMCatNLO 1  0  0  2  2 0.96831276D+01 0.00000000D+00  -5  6  0 0.00000000D+00 0.00000000D+00 0.00000000D+00 0.00000000D+00 0.00000000D+00
  <mgrwgt>
 0.8941961541D+00    6    4    0
 0.263615476948565D+03 0.000000000000000D+00 0.000000000000000D+00 0.263615476948565D+03
 0.263615476948565D+03 0.000000000000000D+00 0.000000000000000D+00 -.263615476948565D+03
 0.258999234273248D+03 -.777654751141517D+02 0.210400933655259D+03 0.337576858121876D+02
 0.245347696060789D+03 0.989925838297139D+02 -.208029439518445D+03 -.255440139431061D+02
 0.228840235630928D+02 -.212271087155622D+02 -.237149413681485D+01 -.821367186908153D+01
 0.000000000000000D+00 0.000000000000000D+00 0.000000000000000D+00 0.000000000000000D+00
 0.296089502436138D+03 0.000000000000000D+00 0.000000000000000D+00 0.296089502436138D+03
 0.264382753258421D+03 0.000000000000000D+00 0.000000000000000D+00 -.264382753258421D+03
 0.259986333549483D+03 -.824949274627614D+02 0.209816346417581D+03 0.337576858121876D+02
 0.244053394590356D+03 0.945327312228245D+02 -.208580702693066D+03 -.255440139431061D+02
 0.232801384561416D+02 -.216477971084966D+02 -.242349361739347D+01 -.821367186908153D+01
 0.331523890985788D+02 0.960999334843350D+01 0.118784989287898D+01 0.317067491777163D+02
 0.263615476948565D+03 0.000000000000000D+00 0.000000000000000D+00 0.263615476948565D+03
 0.263615476948565D+03 0.000000000000000D+00 0.000000000000000D+00 -.263615476948565D+03
 0.258999234273248D+03 -.777654751141517D+02 0.210400933655259D+03 0.337576858121876D+02
 0.245347696060789D+03 0.989925838297139D+02 -.208029439518445D+03 -.255440139431061D+02
 0.000000000000000D+00 0.000000000000000D+00 0.000000000000000D+00 0.000000000000000D+00
 0.228840235630928D+02 -.212271087155622D+02 -.237149413681485D+01 -.821367186908153D+01
 0.296089502436138D+03 0.000000000000000D+00 0.000000000000000D+00 0.296089502436138D+03
 0.264382753258421D+03 0.000000000000000D+00 0.000000000000000D+00 -.264382753258421D+03
 0.259986333549483D+03 -.824949274627614D+02 0.209816346417581D+03 0.337576858121876D+02
 0.244053394590356D+03 0.945327312228245D+02 -.208580702693066D+03 -.255440139431061D+02
 0.331523890985788D+02 0.960999334843350D+01 0.118784989287898D+01 0.317067491777163D+02
 0.232801384561416D+02 -.216477971084966D+02 -.242349361739347D+01 -.821367186908153D+01
0.533699434747D-02 0.000000000000D+00 0.000000000000D+00 0.331026134205D-04 0.000000000000D+00  6 1 -2 25 -24 21 21 2 0.19803086D+00 0.83058145D-02 0.68163639D+05 0.68163639D+05 0.68163639D+05 0.11791788D+01  1  2  2  2  6  2       -2 0.580201802836D+00 0.100000000000D+01
0.248254179110D-02 0.281640929364D-03 -.204954635572D-04 0.331026134205D-04 0.000000000000D+00  6 1 -2 25 -24 21 21 4 0.19803086D+00 0.83058145D-02 0.68163639D+05 0.68163639D+05 0.68163639D+05 0.11791788D+01  1  2  3  2  6  2       -2 0.375265157498D+00 0.100000000000D+01
0.257216120082D-04 0.000000000000D+00 0.000000000000D+00 0.331026134205D-04 0.000000000000D+00  6 1 -2 25 -24 21 21 4 0.19803086D+00 0.83058145D-02 0.68163639D+05 0.68163639D+05 0.68163639D+05 0.11791788D+01  1  2 15  2  6  2       -2 0.388812176938D-02 0.100000000000D+01
-.431055112059D-03 0.000000000000D+00 0.000000000000D+00 0.331026134205D-04 0.000000000000D+00  6 1 -2 25 -24 21 21 4 0.19803086D+00 0.83058145D-02 0.68163639D+05 0.68163639D+05 0.68163639D+05 0.11791788D+01  1  2  4  2  6  2       -2 -.651590096476D-01 0.100000000000D+01
0.632917721652D-09 0.000000000000D+00 0.000000000000D+00 0.331026134205D-04 0.112106401498D-05  6 1 -2 25 -24 21 21 4 0.22242570D+00 0.83299893D-02 0.70746552D+05 0.70746552D+05 0.70746552D+05 0.11776359D+01  1  2 11  2  6  2       -2 0.739766221509D-07 0.100000000000D+01
0.414906502372D-11 0.000000000000D+00 0.000000000000D+00 0.330160422524D-04 0.294948976545D-08  6 1 21 25 -24 2 21 4 0.22242570D+00 0.83299893D-02 0.70746552D+05 0.70746552D+05 0.70746552D+05 0.11776359D+01  3  4 11  5  5  2       -2 0.770187023069D-08 0.100000000000D+01
  </mgrwgt>
  </event>
  <event>
  5     66 0.42750230E-03 0.25508755E+02 0.75467711E-02 0.12199093E+00
        1 -1    0    0  502    0 0.00000000E+00 0.00000000E+00 0.36662971E+02 0.36664368E+02 0.32000000E+00 0.0000E+00 0.9000E+01
       -2 -1    0    0    0  501 0.00000000E+00 0.00000000E+00 -.52978024E+03 0.52978033E+03 0.32000000E+00 0.0000E+00 0.9000E+01
       25  1    1    2    0    0 0.36267102E+02 -.66276645E+02 -.28716443E+03 0.32217434E+03 0.12500000E+03 0.0000E+00 0.9000E+01
      -24  1    1    2    0    0 -.16705900E+02 0.49912054E+02 -.19310973E+03 0.21570555E+03 0.80419002E+02 0.0000E+00 0.9000E+01
       21  1    1    2  502  501 -.19561202E+02 0.16364590E+02 -.12843103E+02 0.28564808E+02 0.75000000E+00 0.0000E+00 0.9000E+01
#aMCatNLO 1  0  0  1  2 0.27163839D+01 0.00000000D+00  -5  6  0 0.00000000D+00 0.00000000D+00 0.00000000D+00 0.00000000D+00 0.00000000D+00
  <mgrwgt>
 0.1173189224D+00    6    4    0
 0.139369079777832D+03 0.000000000000000D+00 0.000000000000000D+00 0.139369079777832D+03
 0.139369079777832D+03 0.000000000000000D+00 0.000000000000000D+00 -.139369079777832D+03
 0.146692111981165D+03 0.362694231435240D+02 -.662785862545274D+02 -.136107922778898D+02
 0.967191768307730D+02 -.167043702540952D+02 0.499107743520945D+02 -.108287501790467D+02
 0.353268707437267D+02 -.195650528894288D+02 0.163678119024330D+02 0.244395424569364D+02
 0.000000000000000D+00 -.000000000000000D+00 -.000000000000000D+00 -.000000000000000D+00
 0.140375100323176D+03 0.000000000000000D+00 0.000000000000000D+00 0.140375100323176D+03
 0.141221485428714D+03 0.000000000000000D+00 0.000000000000000D+00 -.141221485428714D+03
 0.146226492074781D+03 0.367897698360116D+02 -.649495662300947D+02 -.136107922778898D+02
 0.971173376592392D+02 -.163600350435568D+02 0.507902425922690D+02 -.108287501790467D+02
 0.354075654802950D+02 -.194393987676882D+02 0.166887457074457D+02 0.244395424569364D+02
 0.284519053757513D+01 -.990336024766581D+00 -.252942206962001D+01 -.846385105537549D+00
 0.139369079777832D+03 0.000000000000000D+00 0.000000000000000D+00 0.139369079777832D+03
 0.139369079777832D+03 0.000000000000000D+00 0.000000000000000D+00 -.139369079777832D+03
 0.146692111981165D+03 0.362694231435240D+02 -.662785862545274D+02 -.136107922778898D+02
 0.967191768307730D+02 -.167043702540952D+02 0.499107743520945D+02 -.108287501790467D+02
 0.000000000000000D+00 -.000000000000000D+00 -.000000000000000D+00 -.000000000000000D+00
 0.353268707437267D+02 -.195650528894288D+02 0.163678119024330D+02 0.244395424569364D+02
 0.140375100323176D+03 0.000000000000000D+00 0.000000000000000D+00 0.140375100323176D+03
 0.141221485428714D+03 0.000000000000000D+00 0.000000000000000D+00 -.141221485428714D+03
 0.146226492074781D+03 0.367897698360116D+02 -.649495662300947D+02 -.136107922778898D+02
 0.971173376592392D+02 -.163600350435568D+02 0.507902425922690D+02 -.108287501790467D+02
 0.284519053757513D+01 -.990336024766581D+00 -.252942206962001D+01 -.846385105537549D+00
 0.354075654802950D+02 -.194393987676882D+02 0.166887457074457D+02 0.244395424569364D+02
0.426313595150D-03 0.000000000000D+00 0.000000000000D+00 0.359695471964D-04 0.000000000000D+00  6 1 -2 25 -24 21 21 2 0.56405720D-02 0.81504767D-01 0.17913029D+05 0.17913029D+05 0.17913029D+05 0.12391302D+01  1  2  2  1  6  1        1 0.106467594030D+00 0.100000000000D+01
0.564001664340D-04 0.224971864914D-04 -.163715645632D-05 0.359695471964D-04 0.000000000000D+00  6 1 -2 25 -24 21 21 4 0.56405720D-02 0.81504767D-01 0.17913029D+05 0.17913029D+05 0.17913029D+05 0.12391302D+01  1  2  3  1  6  1        1 0.216273101198D-01 0.100000000000D+01
0.131118241149D-04 0.000000000000D+00 0.000000000000D+00 0.359695471964D-04 0.000000000000D+00  6 1 -2 25 -24 21 21 4 0.56405720D-02 0.81504767D-01 0.17913029D+05 0.17913029D+05 0.17913029D+05 0.12391302D+01  1  2 15  1  6  1        1 0.502788385742D-02 0.100000000000D+01
-.108598459480D-02 0.000000000000D+00 0.000000000000D+00 0.359695471964D-04 0.000000000000D+00  6 1 -2 25 -24 21 21 4 0.56405720D-02 0.81504767D-01 0.17913029D+05 0.17913029D+05 0.17913029D+05 0.12391302D+01  1  2  4  1  6  1        1 -.416433622487D+00 0.100000000000D+01
0.103645997728D-02 0.000000000000D+00 0.000000000000D+00 0.359695471964D-04 0.160260250573D-04  6 1 -2 25 -24 21 21 4 0.56812878D-02 0.82588076D-01 0.18284473D+05 0.18284473D+05 0.18284473D+05 0.12381370D+01  1  2 11  1  6  1        1 0.381303304857D+00 0.100000000000D+01
0.352747094604D-05 0.000000000000D+00 0.000000000000D+00 0.359119112142D-04 0.832362843793D-07  6 21 -2 25 -24 -1 21 4 0.56812878D-02 0.82588076D-01 0.18284473D+05 0.18284473D+05 0.18284473D+05 0.12381370D+01  3  4 11  4  5  1        1 0.193264519782D-01 0.100000000000D+01
  </mgrwgt>
  </event>
  <event>
  5     66 0.42750230E-03 0.21049842E+02 0.75467711E-02 0.11868701E+00
        1 -1    0    0  502    0 0.00000000E+00 0.00000000E+00 0.17766328E+03 0.17766357E+03 0.32000000E+00 0.0000E+00 0.9000E+01
       -2 -1    0    0    0  501 -.00000000E+00 -.00000000E+00 -.18095551E+03 0.18095579E+03 0.32000000E+00 0.0000E+00 0.9000E+01
       25  1    1    2    0    0 0.70630404E+01 -.10491431E+03 0.18081936E+02 0.16434371E+03 0.12500000E+03 0.0000E+00 0.9000E+01
      -24  1    1    2    0    0 0.12567718E+02 0.11250473E+03 -.59222118E+02 0.15096270E+03 0.80419002E+02 0.0000E+00 0.9000E+01
       21  1    1    2  502  501 -.19630758E+02 -.75904113E+01 0.37847953E+02 0.43312944E+02 0.75000000E+00 0.0000E+00 0.9000E+01
#aMCatNLO 1  0  0  5  2 0.48221507D+01 0.00000000D+00  -5  6  0 0.00000000D+00 0.00000000D+00 0.00000000D+00 0.00000000D+00 0.00000000D+00
  <mgrwgt>
 0.1531119956D+00    9    2    0
 0.179302121268968D+03 0.000000000000000D+00 0.000000000000000D+00 0.179302121268968D+03
 0.179302121268968D+03 -.000000000000000D+00 -.000000000000000D+00 -.179302121268968D+03
 0.164516064825710D+03 0.706436937458059D+01 -.104913800164766D+03 0.195888949679197D+02
 0.150426723368657D+03 0.125689331975327D+02 0.112505195146670D+03 -.578410419368951D+02
 0.436614543435684D+02 -.196333025721133D+02 -.759139498190334D+01 0.382521469689754D+02
 0.000000000000000D+00 0.000000000000000D+00 0.000000000000000D+00 0.000000000000000D+00
 0.179302121268968D+03 0.000000000000000D+00 0.000000000000000D+00 0.179302121268968D+03
 0.179302121268968D+03 -.000000000000000D+00 -.000000000000000D+00 -.179302121268968D+03
 0.164946908842439D+03 0.610575339244469D+01 -.105284457751773D+03 0.214565949792034D+02
 0.149457199615849D+03 0.116963813652041D+02 0.112167815045840D+03 -.561410232667968D+02
 0.485203876284412D+01 -.113896006206942D+01 -.463172907182915D+01 -.890020189841328D+00
 0.393480953168033D+02 -.166631746955794D+02 -.225162822223795D+01 0.355744484774348D+02
0.705453791097D-03 0.000000000000D+00 0.000000000000D+00 0.411879066008D-04 0.000000000000D+00  6 1 -2 25 -24 21 21 2 0.27332856D-01 0.27839353D-01 0.26123832D+05 0.26123832D+05 0.26123832D+05 0.12212555D+01  1  2  2  3  6  5       21 0.181258748786D+00 0.100000000000D+01
0.140679351607D-03 0.372278193328D-04 -.270912830806D-05 0.411879066008D-04 0.000000000000D+00  6 1 -2 25 -24 21 21 4 0.27332856D-01 0.27839353D-01 0.26123832D+05 0.26123832D+05 0.26123832D+05 0.12212555D+01  1  2  3  3  6  5       21 0.539105585623D-01 0.100000000000D+01
0.501766661136D-05 0.000000000000D+00 0.000000000000D+00 0.411879066008D-04 0.000000000000D+00  6 1 -2 25 -24 21 21 4 0.27332856D-01 0.27839353D-01 0.26123832D+05 0.26123832D+05 0.26123832D+05 0.12212555D+01  1  2 15  3  6  5       21 0.192284942038D-02 0.100000000000D+01
0.820827986991D-05 0.000000000000D+00 0.000000000000D+00 0.411804777434D-04 0.000000000000D+00  6 1 -2 25 -24 21 21 4 0.27332856D-01 0.27839353D-01 0.26186030D+05 0.26186030D+05 0.26186030D+05 0.12211454D+01  1  2 12  3  6  5       21 0.314453980610D-02 0.100000000000D+01
-.241337317755D-03 0.000000000000D+00 0.000000000000D+00 0.411879066008D-04 0.000000000000D+00  6 1 -2 25 -24 21 21 4 0.27332856D-01 0.27839353D-01 0.26123832D+05 0.26123832D+05 0.26123832D+05 0.12212555D+01  1  2  4  3  6  5       21 -.924842875194D-01 0.100000000000D+01
0.349756954060D-05 0.000000000000D+00 0.000000000000D+00 0.411804777434D-04 0.000000000000D+00  6 1 -2 25 -24 1 -1 4 0.27332856D-01 0.27839353D-01 0.26186030D+05 0.26186030D+05 0.26186030D+05 0.12211454D+01  1  2 12  6  6  5       21 0.133989664331D-02 0.100000000000D+01
0.349756954060D-05 0.000000000000D+00 0.000000000000D+00 0.411804777434D-04 0.000000000000D+00  6 1 -2 25 -24 2 -2 4 0.27332856D-01 0.27839353D-01 0.26186030D+05 0.26186030D+05 0.26186030D+05 0.12211454D+01  1  2 12  7  6  5       21 0.133989664331D-02 0.100000000000D+01
0.349756954060D-05 0.000000000000D+00 0.000000000000D+00 0.411804777434D-04 0.000000000000D+00  6 1 -2 25 -24 3 -3 4 0.27332856D-01 0.27839353D-01 0.26186030D+05 0.26186030D+05 0.26186030D+05 0.12211454D+01  1  2 12  8  6  5       21 0.133989664331D-02 0.100000000000D+01
0.349756954060D-05 0.000000000000D+00 0.000000000000D+00 0.411804777434D-04 0.000000000000D+00  6 1 -2 25 -24 4 -4 4 0.27332856D-01 0.27839353D-01 0.26186030D+05 0.26186030D+05 0.26186030D+05 0.12211454D+01  1  2 12  8  6  5       21 0.133989664331D-02 0.100000000000D+01
  </mgrwgt>
  </event>
  <event>
  5     66 0.42750230E-03 0.30708250E+02 0.75467711E-02 0.12232890E+00
        3 -1    0    0  502    0 0.00000000E+00 0.00000000E+00 0.35411911E+03 0.35411946E+03 0.50000000E+00 0.0000E+00 0.9000E+01
       -4 -1    0    0    0  501 0.00000000E+00 0.00000000E+00 -.55917879E+02 0.55939357E+02 0.15500000E+01 0.0000E+00 0.9000E+01
       25  1    1    2    0    0 -.39407552E+02 -.18809904E+02 0.85841753E+02 0.15779916E+03 0.12500000E+03 0.0000E+00 0.9000E+01
      -24  1    1    2    0    0 0.40059454E+02 0.49506083E+02 0.13919556E+03 0.17291105E+03 0.80419002E+02 0.0000E+00 0.9000E+01
       21  1    1    2  502  501 -.65190254E+00 -.30696179E+02 0.73163922E+02 0.79348613E+02 0.75000000E+00 0.0000E+00 0.9000E+01
#aMCatNLO 1  0  0  5  2 0.70842608D+01 0.00000000D+00  -5  6  0 0.00000000D+00 0.00000000D+00 0.00000000D+00 0.00000000D+00 0.00000000D+00
  <mgrwgt>
 0.1248244043D-01   20    2    0
 0.140734023555082D+03 0.000000000000000D+00 0.000000000000000D+00 0.140734023555082D+03
 0.140734023555082D+03 -.000000000000000D+00 -.000000000000000D+00 -.140734023555082D+03
 0.138946098617553D+03 -.394074890942217D+02 -.188069648897952D+02 -.421232263242217D+02
 0.104436823544776D+03 0.400595009660439D+02 0.495082920660496D+02 0.195959066339484D+02
 0.380851249478348D+02 -.652011871822155D+00 -.307013271762544D+02 0.225273196902733D+02
 0.000000000000000D+00 0.000000000000000D+00 -.000000000000000D+00 0.000000000000000D+00
 0.140734023555082D+03 0.000000000000000D+00 0.000000000000000D+00 0.140734023555082D+03
 0.140734023555082D+03 -.000000000000000D+00 -.000000000000000D+00 -.140734023555082D+03
 0.138857905390575D+03 -.394326156743858D+02 -.199901018720718D+02 -.412550910516285D+02
 0.104136171937696D+03 0.400406361332286D+02 0.486200024053566D+02 0.202476955631081D+02
 0.243500604885011D+02 -.429168658640589D+01 -.152250576071325D+02 0.185122795165054D+02
 0.141239092933925D+02 0.368366612756309D+01 -.134048429261524D+02 0.249511597201502D+01
0.859910957050D-04 0.000000000000D+00 0.000000000000D+00 0.237558818045D-04 0.000000000000D+00  6 3 -4 25 -24 21 21 2 0.54481543D-01 0.86044299D-02 0.17648766D+05 0.17648766D+05 0.17648766D+05 0.12398509D+01  1  2  2  3  6  5       21 0.849063285150D-02 0.100000000000D+01
0.783362853686D-05 0.453787479142D-05 -.330228449483D-06 0.237558818045D-04 0.000000000000D+00  6 3 -4 25 -24 21 21 4 0.54481543D-01 0.86044299D-02 0.17648766D+05 0.17648766D+05 0.17648766D+05 0.12398509D+01  1  2  3  3  6  5       21 0.118901816289D-02 0.100000000000D+01
0.235789686762D-05 0.000000000000D+00 0.000000000000D+00 0.237558818045D-04 0.000000000000D+00  6 3 -4 25 -24 21 21 4 0.54481543D-01 0.86044299D-02 0.17648766D+05 0.17648766D+05 0.17648766D+05 0.12398509D+01  1  2 15  3  6  5       21 0.357890623563D-03 0.100000000000D+01
0.894597489484D-04 0.000000000000D+00 0.000000000000D+00 0.237733043713D-04 0.000000000000D+00  6 3 -4 25 -24 21 21 4 0.54481543D-01 0.86044299D-02 0.17484345D+05 0.17484345D+05 0.17484345D+05 0.12403055D+01  1  2 12  3  6  5       21 0.135873485930D-01 0.100000000000D+01
0.940795277902D-04 0.000000000000D+00 0.000000000000D+00 0.237733043713D-04 0.000000000000D+00  6 3 -4 25 -24 21 21 4 0.54481543D-01 0.86044299D-02 0.17484345D+05 0.17484345D+05 0.17484345D+05 0.12403055D+01  1  2 12  3  6  5       21 0.142890110309D-01 0.100000000000D+01
-.301093234987D-03 0.000000000000D+00 0.000000000000D+00 0.237558818045D-04 0.000000000000D+00  6 3 -4 25 -24 21 21 4 0.54481543D-01 0.86044299D-02 0.17648766D+05 0.17648766D+05 0.17648766D+05 0.12398509D+01  1  2  4  3  6  5       21 -.457010851916D-01 0.100000000000D+01
-.181411324903D-03 0.000000000000D+00 0.000000000000D+00 0.237558818045D-04 0.000000000000D+00  6 3 -4 25 -24 21 21 4 0.54481543D-01 0.86044299D-02 0.17648766D+05 0.17648766D+05 0.17648766D+05 0.12398509D+01  1  2  5  3  6  5       21 -.275353061800D-01 0.100000000000D+01
0.309517346097D-03 0.000000000000D+00 -.000000000000D+00 0.237558818045D-04 0.000000000000D+00  6 3 -4 25 -24 21 21 4 0.54481543D-01 0.86044299D-02 0.17648766D+05 0.17648766D+05 0.17648766D+05 0.12398509D+01  1  2  6  3  6  5       21 0.469797290626D-01 0.100000000000D+01
0.208393909262D-05 0.000000000000D+00 0.000000000000D+00 0.237733043713D-04 0.000000000000D+00  6 3 -4 25 -24 3 -3 4 0.54481543D-01 0.86044299D-02 0.17484345D+05 0.17484345D+05 0.17484345D+05 0.12403055D+01  1  2 12  6  6  5       21 0.316513373118D-03 0.100000000000D+01
0.218069726442D-05 0.000000000000D+00 0.000000000000D+00 0.237733043713D-04 0.000000000000D+00  6 3 -4 25 -24 3 -3 4 0.54481543D-01 0.86044299D-02 0.17484345D+05 0.17484345D+05 0.17484345D+05 0.12403055D+01  1  2 12  6  6  5       21 0.331209222647D-03 0.100000000000D+01
-.290822953995D-05 0.000000000000D+00 0.000000000000D+00 0.237558818045D-04 0.000000000000D+00  6 3 -4 25 -24 3 -3 4 0.54481543D-01 0.86044299D-02 0.17648766D+05 0.17648766D+05 0.17648766D+05 0.12398509D+01  1  2  5  6  6  5       21 -.441422225803D-03 0.100000000000D+01
0.208393909262D-05 0.000000000000D+00 0.000000000000D+00 0.237733043713D-04 0.000000000000D+00  6 3 -4 25 -24 4 -4 4 0.54481543D-01 0.86044299D-02 0.17484345D+05 0.17484345D+05 0.17484345D+05 0.12403055D+01  1  2 12  7  6  5       21 0.316513373118D-03 0.100000000000D+01
0.218069726442D-05 0.000000000000D+00 0.000000000000D+00 0.237733043713D-04 0.000000000000D+00  6 3 -4 25 -24 4 -4 4 0.54481543D-01 0.86044299D-02 0.17484345D+05 0.17484345D+05 0.17484345D+05 0.12403055D+01  1  2 12  7  6  5       21 0.331209222647D-03 0.100000000000D+01
-.290822953995D-05 0.000000000000D+00 0.000000000000D+00 0.237558818045D-04 0.000000000000D+00  6 3 -4 25 -24 4 -4 4 0.54481543D-01 0.86044299D-02 0.17648766D+05 0.17648766D+05 0.17648766D+05 0.12398509D+01  1  2  5  7  6  5       21 -.441422225803D-03 0.100000000000D+01
0.208393909262D-05 0.000000000000D+00 0.000000000000D+00 0.237733043713D-04 0.000000000000D+00  6 3 -4 25 -24 1 -1 4 0.54481543D-01 0.86044299D-02 0.17484345D+05 0.17484345D+05 0.17484345D+05 0.12403055D+01  1  2 12  8  6  5       21 0.316513373118D-03 0.100000000000D+01
0.208393909262D-05 0.000000000000D+00 0.000000000000D+00 0.237733043713D-04 0.000000000000D+00  6 3 -4 25 -24 2 -2 4 0.54481543D-01 0.86044299D-02 0.17484345D+05 0.17484345D+05 0.17484345D+05 0.12403055D+01  1  2 12  8  6  5       21 0.316513373118D-03 0.100000000000D+01
0.218069726442D-05 0.000000000000D+00 0.000000000000D+00 0.237733043713D-04 0.000000000000D+00  6 3 -4 25 -24 1 -1 4 0.54481543D-01 0.86044299D-02 0.17484345D+05 0.17484345D+05 0.17484345D+05 0.12403055D+01  1  2 12  8  6  5       21 0.331209222647D-03 0.100000000000D+01
0.218069726442D-05 0.000000000000D+00 0.000000000000D+00 0.237733043713D-04 0.000000000000D+00  6 3 -4 25 -24 2 -2 4 0.54481543D-01 0.86044299D-02 0.17484345D+05 0.17484345D+05 0.17484345D+05 0.12403055D+01  1  2 12  8  6  5       21 0.331209222647D-03 0.100000000000D+01
-.290822953995D-05 0.000000000000D+00 0.000000000000D+00 0.237558818045D-04 0.000000000000D+00  6 3 -4 25 -24 1 -1 4 0.54481543D-01 0.86044299D-02 0.17648766D+05 0.17648766D+05 0.17648766D+05 0.12398509D+01  1  2  5  8  6  5       21 -.441422225803D-03 0.100000000000D+01
-.290822953995D-05 0.000000000000D+00 0.000000000000D+00 0.237558818045D-04 0.000000000000D+00  6 3 -4 25 -24 2 -2 4 0.54481543D-01 0.86044299D-02 0.17648766D+05 0.17648766D+05 0.17648766D+05 0.12398509D+01  1  2  5  8  6  5       21 -.441422225803D-03 0.100000000000D+01
  </mgrwgt>
  </event>
  <event>
  5     66 -.42750230E-03 0.40860016E+02 0.75467711E-02 0.12010377E+00
        1 -1    0    0  502    0 0.00000000E+00 0.00000000E+00 0.99785603E+03 0.99785608E+03 0.32000000E+00 0.0000E+00 0.9000E+01
       -2 -1    0    0    0  501 0.00000000E+00 0.00000000E+00 -.41261177E+02 0.41262418E+02 0.32000000E+00 0.0000E+00 0.9000E+01
       25  1    1    2    0    0 0.35958587E+02 0.57341858E+02 0.74580860E+03 0.75923420E+03 0.12500000E+03 0.0000E+00 0.9000E+01
      -24  1    1    2    0    0 -.66731140E+02 -.30468687E+02 0.61323708E+02 0.12493678E+03 0.80419002E+02 0.0000E+00 0.9000E+01
       21  1    1    2  502  501 0.30772554E+02 -.26873171E+02 0.14946255E+03 0.15494752E+03 0.75000000E+00 0.0000E+00 0.9000E+01
#aMCatNLO 1  0  0  1  5 0.69011478D+01 0.00000000D+00  -5  6  0 0.00000000D+00 0.00000000D+00 0.00000000D+00 0.00000000D+00 0.00000000D+00
  <mgrwgt>
 -.2277012074D+00   11    4    0
 0.202912260417118D+03 0.000000000000000D+00 0.000000000000000D+00 0.202912260417118D+03
 0.202912260417118D+03 0.000000000000000D+00 0.000000000000000D+00 -.202912260417118D+03
 0.186034597216177D+03 0.359565770705746D+02 0.573436131879085D+02 0.120011274275830D+03
 0.175353361992523D+03 -.667330345369798D+02 -.304670325542405D+02 -.137477444100970D+03
 0.444365616255370D+02 0.307764574664052D+02 -.268765806336681D+02 0.174661698251401D+02
 0.000000000000000D+00 0.000000000000000D+00 -.000000000000000D+00 0.000000000000000D+00
 0.250253647343781D+03 0.000000000000000D+00 0.000000000000000D+00 0.250253647343781D+03
 0.203193255326025D+03 0.000000000000000D+00 0.000000000000000D+00 -.203193255326025D+03
 0.186448869576201D+03 0.339962812850333D+02 0.598308271021188D+02 0.120011274275830D+03
 0.175674257360777D+03 -.685804130763619D+02 -.281230875017362D+02 -.137477444100970D+03
 0.437600675308354D+02 0.303122986624641D+02 -.262876581638650D+02 0.174661698251401D+02
 0.475637082019917D+02 0.427183312886446D+01 -.542008143651759D+01 0.470603920177559D+02
 0.202912260417118D+03 0.000000000000000D+00 0.000000000000000D+00 0.202912260417118D+03
 0.202912260417118D+03 0.000000000000000D+00 0.000000000000000D+00 -.202912260417118D+03
 0.186034597216177D+03 0.359565770705746D+02 0.573436131879085D+02 0.120011274275830D+03
 0.175353361992523D+03 -.667330345369798D+02 -.304670325542405D+02 -.137477444100970D+03
 0.000000000000000D+00 0.000000000000000D+00 -.000000000000000D+00 0.000000000000000D+00
 0.444365616255370D+02 0.307764574664052D+02 -.268765806336681D+02 0.174661698251401D+02
 0.250253647343781D+03 0.000000000000000D+00 0.000000000000000D+00 0.250253647343781D+03
 0.203193255326025D+03 0.000000000000000D+00 0.000000000000000D+00 -.203193255326025D+03
 0.186448869576201D+03 0.339962812850333D+02 0.598308271021188D+02 0.120011274275830D+03
 0.175674257360777D+03 -.685804130763619D+02 -.281230875017362D+02 -.137477444100970D+03
 0.475637082019917D+02 0.427183312886446D+01 -.542008143651759D+01 0.470603920177559D+02
 0.437600675308354D+02 0.303122986624641D+02 -.262876581638650D+02 0.174661698251401D+02
0.157240469957D-04 0.000000000000D+00 0.000000000000D+00 0.570352870151D-05 0.000000000000D+00  6 1 -2 25 -24 21 21 2 0.15351641D+00 0.63479728D-02 0.21295622D+05 0.21295622D+05 0.21295622D+05 0.12308362D+01  1  2  2  1  6  1        1 0.452691379996D-02 0.100000000000D+01
0.710446664905D-06 0.829780756904D-06 -.603844807003D-07 0.570352870151D-05 0.000000000000D+00  6 1 -2 25 -24 21 21 4 0.15351641D+00 0.63479728D-02 0.21295622D+05 0.21295622D+05 0.21295622D+05 0.12308362D+01  1  2  3  1  6  1        1 0.309863104102D-03 0.100000000000D+01
0.556194091940D-06 0.000000000000D+00 0.000000000000D+00 0.570352870151D-05 0.000000000000D+00  6 1 -2 25 -24 21 21 4 0.15351641D+00 0.63479728D-02 0.21295622D+05 0.21295622D+05 0.21295622D+05 0.12308362D+01  1  2 15  1  6  1        1 0.242585455496D-03 0.100000000000D+01
0.148426337337D-02 0.000000000000D+00 0.000000000000D+00 0.568210998385D-05 0.000000000000D+00  6 1 -2 25 -24 21 21 4 0.19105637D+00 0.63479728D-02 0.22362619D+05 0.22362619D+05 0.22362619D+05 0.12285229D+01  1  2 12  1  6  1        1 0.432727212473D+00 0.100000000000D+01
-.208950364974D-02 0.000000000000D+00 0.000000000000D+00 0.570352870151D-05 0.000000000000D+00  6 1 -2 25 -24 21 21 4 0.15351641D+00 0.63479728D-02 0.21295622D+05 0.21295622D+05 0.21295622D+05 0.12308362D+01  1  2  4  1  6  1        1 -.911342284964D+00 0.100000000000D+01
-.168091735904D-02 0.000000000000D+00 -.213951788297D-04 0.570352870151D-05 0.000000000000D+00  6 1 -2 25 -24 21 21 4 0.18942962D+00 0.63479728D-02 0.21295622D+05 0.21295622D+05 0.21295622D+05 0.12308362D+01  1  2  5  1  6  1        1 -.502002340734D+00 0.100000000000D+01
0.164930464550D-02 0.000000000000D+00 0.209310204554D-04 0.570352870151D-05 0.000000000000D+00  6 1 -2 25 -24 21 21 4 0.15351641D+00 0.63479728D-02 0.21295622D+05 0.21295622D+05 0.21295622D+05 0.12308362D+01  1  2  6  1  6  1        1 0.719348379419D+00 0.100000000000D+01
0.100599270919D-03 0.000000000000D+00 0.000000000000D+00 0.570352870151D-05 0.601745211150D-06  6 1 -2 25 -24 21 21 4 0.18933327D+00 0.63567635D-02 0.22362619D+05 0.22362619D+05 0.22362619D+05 0.12285229D+01  1  2 11  1  6  1        1 0.297852153238D-01 0.100000000000D+01
0.454726561815D-04 0.000000000000D+00 0.000000000000D+00 0.568210998385D-05 0.000000000000D+00  6 21 -2 25 -24 -1 21 4 0.19105637D+00 0.63479728D-02 0.22362619D+05 0.22362619D+05 0.22362619D+05 0.12285229D+01  3  4 12  4  5  1        1 0.172041201298D-01 0.100000000000D+01
-.496977593831D-04 0.000000000000D+00 -.635982049921D-06 0.570352870151D-05 0.000000000000D+00  6 21 -2 25 -24 -1 21 4 0.18942962D+00 0.63479728D-02 0.21295622D+05 0.21295622D+05 0.21295622D+05 0.12308362D+01  3  4  5  4  5  1        1 -.194520128273D-01 0.100000000000D+01
0.245513526646D-05 0.000000000000D+00 0.000000000000D+00 0.570352870151D-05 0.293564686454D-07  6 21 -2 25 -24 -1 21 4 0.18933327D+00 0.63567635D-02 0.22362619D+05 0.22362619D+05 0.22362619D+05 0.12285229D+01  3  4 11  4  5  1        1 0.951141444304D-03 0.100000000000D+01
  </mgrwgt>
  </event>
  <event>
  5     66 0.42750230E-03 0.22990938E+02 0.75467711E-02 0.11816246E+00
        1 -1    0    0  502    0 0.00000000E+00 0.00000000E+00 0.35223234E+02 0.35224688E+02 0.32000000E+00 0.0000E+00 0.9000E+01
       -2 -1    0    0    0  501 -.00000000E+00 -.00000000E+00 -.84439490E+03 0.84439496E+03 0.32000000E+00 0.0000E+00 0.9000E+01
       25  1    1    2    0    0 -.78966941E+02 0.98936770E+02 -.46936074E+03 0.50194498E+03 0.12500000E+03 0.0000E+00 0.9000E+01
      -24  1    1    2    0    0 0.60330092E+02 -.85482491E+02 -.32378381E+03 0.34964289E+03 0.80419002E+02 0.0000E+00 0.9000E+01
       21  1    1    2  502  501 0.18636849E+02 -.13454279E+02 -.16027118E+02 0.28031781E+02 0.75000000E+00 0.0000E+00 0.9000E+01
#aMCatNLO 1  0  0  5  1 0.11189706D+02 0.00000000D+00  -5  6  0 0.00000000D+00 0.00000000D+00 0.00000000D+00 0.00000000D+00 0.00000000D+00
  <mgrwgt>
 0.3223030919D+00   20    2    0
 0.172461547938871D+03 0.000000000000000D+00 0.000000000000000D+00 0.172461547938871D+03
 0.172461547938871D+03 -.000000000000000D+00 -.000000000000000D+00 -.172461547938871D+03
 0.178961815599987D+03 -.789693102408681D+02 0.989384801050346D+02 -.194256695490988D+02
 0.132074496040859D+03 0.603283438843917D+02 -.854812290155450D+02 -.546872565000357D+01
 0.338867842368961D+02 0.186409663564764D+02 -.134572510894897D+02 0.248943951991024D+02
 0.000000000000000D+00 0.000000000000000D+00 0.000000000000000D+00 0.000000000000000D+00
 0.172461547938871D+03 0.000000000000000D+00 0.000000000000000D+00 0.172461547938871D+03
 0.172461547938871D+03 -.000000000000000D+00 -.000000000000000D+00 -.172461547938871D+03
 0.176662750377254D+03 -.765983372848851D+02 0.972268318039278D+02 -.162593134362292D+02
 0.133643425934257D+03 0.620999031837100D+02 -.867601497460984D+02 -.310286668794650D+01
 0.163183937569763D+02 0.460448751578692D+01 -.149527212966116D+02 0.463732631486525D+01
 0.182985258092551D+02 0.989394658538821D+01 0.448603923878224D+01 0.147248538093105D+02
0.169707302999D-02 0.000000000000D+00 0.000000000000D+00 0.360854672556D-04 0.000000000000D+00  6 1 -2 25 -24 21 21 2 0.54190756D-02 0.12990702D+00 0.27698373D+05 0.27698373D+05 0.27698373D+05 0.12185537D+01  1  2  2  3  6  5       21 0.148109662569D+00 0.100000000000D+01
0.366043510002D-03 0.895570042324D-04 -.651720728476D-05 0.360854672556D-04 0.000000000000D+00  6 1 -2 25 -24 21 21 4 0.54190756D-02 0.12990702D+00 0.27698373D+05 0.27698373D+05 0.27698373D+05 0.12185537D+01  1  2  3  3  6  5       21 0.474356603966D-01 0.100000000000D+01
0.299830436884D-05 0.000000000000D+00 0.000000000000D+00 0.360854672556D-04 0.000000000000D+00  6 1 -2 25 -24 21 21 4 0.54190756D-02 0.12990702D+00 0.27698373D+05 0.27698373D+05 0.27698373D+05 0.12185537D+01  1  2 15  3  6  5       21 0.388550934301D-03 0.100000000000D+01
0.385201706282D-03 0.000000000000D+00 0.000000000000D+00 0.360338427884D-04 0.000000000000D+00  6 1 -2 25 -24 21 21 4 0.54190756D-02 0.12990702D+00 0.28228941D+05 0.28228941D+05 0.28228941D+05 0.12176818D+01  1  2 12  3  6  5       21 0.497921493707D-01 0.100000000000D+01
0.458168739341D-03 0.000000000000D+00 0.000000000000D+00 0.360338427884D-04 0.000000000000D+00  6 1 -2 25 -24 21 21 4 0.54190756D-02 0.12990702D+00 0.28228941D+05 0.28228941D+05 0.28228941D+05 0.12176818D+01  1  2 12  3  6  5       21 0.592240530979D-01 0.100000000000D+01
-.114850809894D-02 0.000000000000D+00 0.000000000000D+00 0.360854672556D-04 0.000000000000D+00  6 1 -2 25 -24 21 21 4 0.54190756D-02 0.12990702D+00 0.27698373D+05 0.27698373D+05 0.27698373D+05 0.12185537D+01  1  2  4  3  6  5       21 -.148835421625D+00 0.100000000000D+01
-.633290902674D-03 0.000000000000D+00 0.000000000000D+00 0.360854672556D-04 0.000000000000D+00  6 1 -2 25 -24 21 21 4 0.54190756D-02 0.12990702D+00 0.27698373D+05 0.27698373D+05 0.27698373D+05 0.12185537D+01  1  2  5  3  6  5       21 -.820683098338D-01 0.100000000000D+01
0.193969495042D-02 0.000000000000D+00 -.000000000000D+00 0.360854672556D-04 0.000000000000D+00  6 1 -2 25 -24 21 21 4 0.54190756D-02 0.12990702D+00 0.27698373D+05 0.27698373D+05 0.27698373D+05 0.12185537D+01  1  2  6  3  6  5       21 0.251365502807D+00 0.100000000000D+01
0.161038836606D-04 0.000000000000D+00 0.000000000000D+00 0.360338427884D-04 0.000000000000D+00  6 1 -2 25 -24 1 -1 4 0.54190756D-02 0.12990702D+00 0.28228941D+05 0.28228941D+05 0.28228941D+05 0.12176818D+01  1  2 12  6  6  5       21 0.208162883913D-02 0.100000000000D+01
0.191343099984D-04 0.000000000000D+00 0.000000000000D+00 0.360338427884D-04 0.000000000000D+00  6 1 -2 25 -24 1 -1 4 0.54190756D-02 0.12990702D+00 0.28228941D+05 0.28228941D+05 0.28228941D+05 0.12176818D+01  1  2 12  6  6  5       21 0.247334943228D-02 0.100000000000D+01
-.411463693448D-04 0.000000000000D+00 0.000000000000D+00 0.360854672556D-04 0.000000000000D+00  6 1 -2 25 -24 1 -1 4 0.54190756D-02 0.12990702D+00 0.27698373D+05 0.27698373D+05 0.27698373D+05 0.12185537D+01  1  2  5  6  6  5       21 -.533216721363D-02 0.100000000000D+01
0.161038836606D-04 0.000000000000D+00 0.000000000000D+00 0.360338427884D-04 0.000000000000D+00  6 1 -2 25 -24 2 -2 4 0.54190756D-02 0.12990702D+00 0.28228941D+05 0.28228941D+05 0.28228941D+05 0.12176818D+01  1  2 12  7  6  5       21 0.208162883913D-02 0.100000000000D+01
0.191343099984D-04 0.000000000000D+00 0.000000000000D+00 0.360338427884D-04 0.000000000000D+00  6 1 -2 25 -24 2 -2 4 0.54190756D-02 0.12990702D+00 0.28228941D+05 0.28228941D+05 0.28228941D+05 0.12176818D+01  1  2 12  7  6  5       21 0.247334943228D-02 0.100000000000D+01
-.411463693448D-04 0.000000000000D+00 0.000000000000D+00 0.360854672556D-04 0.000000000000D+00  6 1 -2 25 -24 2 -2 4 0.54190756D-02 0.12990702D+00 0.27698373D+05 0.27698373D+05 0.27698373D+05 0.12185537D+01  1  2  5  7  6  5       21 -.533216721363D-02 0.100000000000D+01
0.161038836606D-04 0.000000000000D+00 0.000000000000D+00 0.360338427884D-04 0.000000000000D+00  6 1 -2 25 -24 3 -3 4 0.54190756D-02 0.12990702D+00 0.28228941D+05 0.28228941D+05 0.28228941D+05 0.12176818D+01  1  2 12  8  6  5       21 0.208162883913D-02 0.100000000000D+01
0.161038836606D-04 0.000000000000D+00 0.000000000000D+00 0.360338427884D-04 0.000000000000D+00  6 1 -2 25 -24 4 -4 4 0.54190756D-02 0.12990702D+00 0.28228941D+05 0.28228941D+05 0.28228941D+05 0.12176818D+01  1  2 12  8  6  5       21 0.208162883913D-02 0.100000000000D+01
0.191343099984D-04 0.000000000000D+00 0.000000000000D+00 0.360338427884D-04 0.000000000000D+00  6 1 -2 25 -24 3 -3 4 0.54190756D-02 0.12990702D+00 0.28228941D+05 0.28228941D+05 0.28228941D+05 0.12176818D+01  1  2 12  8  6  5       21 0.247334943228D-02 0.100000000000D+01
0.191343099984D-04 0.000000000000D+00 0.000000000000D+00 0.360338427884D-04 0.000000000000D+00  6 1 -2 25 -24 4 -4 4 0.54190756D-02 0.12990702D+00 0.28228941D+05 0.28228941D+05 0.28228941D+05 0.12176818D+01  1  2 12  8  6  5       21 0.247334943228D-02 0.100000000000D+01
-.411463693448D-04 0.000000000000D+00 0.000000000000D+00 0.360854672556D-04 0.000000000000D+00  6 1 -2 25 -24 3 -3 4 0.54190756D-02 0.12990702D+00 0.27698373D+05 0.27698373D+05 0.27698373D+05 0.12185537D+01  1  2  5  8  6  5       21 -.533216721363D-02 0.100000000000D+01
-.411463693448D-04 0.000000000000D+00 0.000000000000D+00 0.360854672556D-04 0.000000000000D+00  6 1 -2 25 -24 4 -4 4 0.54190756D-02 0.12990702D+00 0.27698373D+05 0.27698373D+05 0.27698373D+05 0.12185537D+01  1  2  5  8  6  5       21 -.533216721363D-02 0.100000000000D+01
  </mgrwgt>
  </event>
  <event>
  5     66 0.42750230E-03 0.48685730E+02 0.75467711E-02 0.11057043E+00
        1 -1    0    0  502    0 0.00000000E+00 0.00000000E+00 0.10132423E+04 0.10132424E+04 0.32000000E+00 0.0000E+00 0.9000E+01
       -2 -1    0    0    0  501 0.00000000E+00 0.00000000E+00 -.51441410E+02 0.51442405E+02 0.32000000E+00 0.0000E+00 0.9000E+01
       25  1    1    2    0    0 0.97236754E+02 0.77987996E+02 0.64083846E+03 0.66470749E+03 0.12500000E+03 0.0000E+00 0.9000E+01
      -24  1    1    2    0    0 -.14285288E+03 -.94987984E+02 0.24425798E+03 0.30912593E+03 0.80419002E+02 0.0000E+00 0.9000E+01
       21  1    1    2  502  501 0.45616128E+02 0.16999988E+02 0.76704462E+02 0.90851350E+02 0.75000000E+00 0.0000E+00 0.9000E+01
#aMCatNLO 1  0  0  2  2 0.99505554D+02 0.00000000D+00  -5  6  0 0.00000000D+00 0.00000000D+00 0.00000000D+00 0.00000000D+00 0.00000000D+00
  <mgrwgt>
 0.6791957471D-01    7    4    0
 0.228304992302545D+03 0.000000000000000D+00 0.000000000000000D+00 0.228304992302545D+03
 0.228304992302545D+03 0.000000000000000D+00 0.000000000000000D+00 -.228304992302545D+03
 0.200049104924085D+03 0.972345289064373D+02 0.779871664841873D+02 0.941174406422021D+02
 0.206291838730982D+03 -.142855175773795D+03 -.949888388727770D+02 -.816004045141846D+02
 0.502690409500239D+02 0.456206468673577D+02 0.170016723885897D+02 -.125170361280175D+02
 0.000000000000000D+00 0.000000000000000D+00 -.000000000000000D+00 -.000000000000000D+00
 0.247611725984883D+03 0.000000000000000D+00 0.000000000000000D+00 0.247611725984883D+03
 0.411126104324860D+03 0.000000000000000D+00 0.000000000000000D+00 -.411126104324860D+03
 0.183964454169910D+03 0.558889458033198D+02 0.789699531593380D+02 0.941174406422021D+02
 0.241764090991619D+03 -.191096008000909D+03 -.938421517649245D+02 -.816004045141846D+02
 0.415979289448981D+02 0.357296069593309D+02 0.172367829250827D+02 -.125170361280175D+02
 0.191411356203317D+03 0.994774552382584D+02 -.236458431949620D+01 -.163514378339977D+03
 0.228304992302545D+03 0.000000000000000D+00 0.000000000000000D+00 0.228304992302545D+03
 0.228304992302545D+03 0.000000000000000D+00 0.000000000000000D+00 -.228304992302545D+03
 0.200049104924085D+03 0.972345289064373D+02 0.779871664841873D+02 0.941174406422021D+02
 0.206291838730982D+03 -.142855175773795D+03 -.949888388727770D+02 -.816004045141846D+02
 0.000000000000000D+00 0.000000000000000D+00 -.000000000000000D+00 -.000000000000000D+00
 0.502690409500239D+02 0.456206468673577D+02 0.170016723885897D+02 -.125170361280175D+02
 0.247611725984883D+03 0.000000000000000D+00 0.000000000000000D+00 0.247611725984883D+03
 0.411126104324860D+03 0.000000000000000D+00 0.000000000000000D+00 -.411126104324860D+03
 0.183964454169910D+03 0.558889458033198D+02 0.789699531593380D+02 0.941174406422021D+02
 0.241764090991619D+03 -.191096008000909D+03 -.938421517649245D+02 -.816004045141846D+02
 0.191411356203317D+03 0.994774552382584D+02 -.236458431949620D+01 -.163514378339977D+03
 0.415979289448981D+02 0.357296069593309D+02 0.172367829250827D+02 -.125170361280175D+02
0.307234142551D-03 0.000000000000D+00 0.000000000000D+00 0.580974067133D-05 0.000000000000D+00  6 1 -2 25 -24 21 21 2 0.15588351D+00 0.79141435D-02 0.42989659D+05 0.42989659D+05 0.42989659D+05 0.11988343D+01  1  2  2  2  6  2       -2 0.583610698578D-01 0.100000000000D+01
0.317920163441D-04 0.162131911347D-04 -.117986000400D-05 0.580974067133D-05 0.000000000000D+00  6 1 -2 25 -24 21 21 4 0.15588351D+00 0.79141435D-02 0.42989659D+05 0.42989659D+05 0.42989659D+05 0.11988343D+01  1  2  3  2  6  2       -2 0.867940879144D-02 0.100000000000D+01
0.133104555460D-05 0.000000000000D+00 0.000000000000D+00 0.580974067133D-05 0.000000000000D+00  6 1 -2 25 -24 21 21 4 0.15588351D+00 0.79141435D-02 0.42989659D+05 0.42989659D+05 0.42989659D+05 0.11988343D+01  1  2 15  2  6  2       -2 0.363383321251D-03 0.100000000000D+01
-.221757329370D-03 0.000000000000D+00 0.000000000000D+00 0.580974067133D-05 0.000000000000D+00  6 1 -2 25 -24 21 21 4 0.15588351D+00 0.79141435D-02 0.42989659D+05 0.42989659D+05 0.42989659D+05 0.11988343D+01  1  2  4  2  6  2       -2 -.605410645637D-01 0.100000000000D+01
-.629683847437D-03 0.000000000000D+00 -.155926585363D-03 0.580974067133D-05 0.000000000000D+00  6 1 -2 25 -24 21 21 4 0.15588351D+00 0.15388148D-01 0.42989659D+05 0.42989659D+05 0.42989659D+05 0.11988343D+01  1  2  5  2  6  2       -2 -.592306402662D-01 0.100000000000D+01
0.620213909358D-03 0.000000000000D+00 0.126837281854D-03 0.580974067133D-05 0.000000000000D+00  6 1 -2 25 -24 21 21 4 0.15588351D+00 0.79141435D-02 0.42989659D+05 0.42989659D+05 0.42989659D+05 0.11988343D+01  1  2  6  2  6  2       -2 0.169322071277D+00 0.100000000000D+01
-.362625376178D-04 0.000000000000D+00 -.112388729421D-04 0.580974067133D-05 0.000000000000D+00  6 1 21 25 -24 2 21 4 0.15588351D+00 0.15388148D-01 0.42989659D+05 0.42989659D+05 0.42989659D+05 0.11988343D+01  3  4  5  5  5  2       -2 -.490346537036D-01 0.100000000000D+01
  </mgrwgt>
  </event>
  <event>
  5     66 0.42750230E-03 0.27982997E+02 0.75467711E-02 0.10866336E+00
        1 -1    0    0  502    0 0.00000000E+00 0.00000000E+00 0.11765123E+04 0.11765123E+04 0.32000000E+00 0.0000E+00 0.9000E+01
       -2 -1    0    0    0  501 0.00000000E+00 0.00000000E+00 -.47897163E+02 0.47898232E+02 0.32000000E+00 0.0000E+00 0.9000E+01
       25  1    1    2    0    0 -.15300276E+02 0.83591664E+02 0.34962053E+03 0.38089523E+03 0.12500000E+03 0.0000E+00 0.9000E+01
      -24  1    1    2    0    0 0.10014958E+02 -.11107066E+03 0.79794980E+03 0.80970865E+03 0.80419002E+02 0.0000E+00 0.9000E+01
       21  1    1    2  502  501 0.52853179E+01 0.27478998E+02 -.18955202E+02 0.33806687E+02 0.75000000E+00 0.0000E+00 0.9000E+01
#aMCatNLO 1  0  0  2  2 0.99505554D+02 0.00000000D+00  -5  6  0 0.00000000D+00 0.00000000D+00 0.00000000D+00 0.00000000D+00 0.00000000D+00
  <mgrwgt>
 0.5392015773D+00    3    2    0
 0.237386357018205D+03 0.000000000000000D+00 0.000000000000000D+00 0.237386357018205D+03
 0.237386357018205D+03 0.000000000000000D+00 0.000000000000000D+00 -.237386357018205D+03
 0.151198847906962D+03 -.153003031574104D+02 0.835915228055036D+02 -.380126909611261D+01
 0.191329300664106D+03 0.100149239076487D+02 -.111070840103041D+03 0.133051325119948D+03
 0.132244565465342D+03 0.528537924976178D+01 0.274793172975372D+02 -.129250056023835D+03
 0.000000000000000D+00 -.000000000000000D+00 0.000000000000000D+00 0.000000000000000D+00
 0.371132279393506D+03 0.000000000000000D+00 0.000000000000000D+00 0.371132279393506D+03
 0.350641790454672D+03 0.000000000000000D+00 0.000000000000000D+00 -.350641790454672D+03
 0.144470206989231D+03 0.406893050584160D+02 0.598044439371641D+02 -.380126909611261D+01
 0.230866279641354D+03 0.899643292996179D+02 -.145037193362824D+03 0.133051325119948D+03
 0.141409063620794D+03 0.571060186628081D+02 0.546341691876868D+01 -.129250056023835D+03
 0.205028519596798D+03 -.187759653020842D+03 0.797693325068912D+02 0.204904889388339D+02
0.247883219406D-02 0.000000000000D+00 0.000000000000D+00 0.261332578492D-04 0.000000000000D+00  6 1 -2 25 -24 21 21 2 0.18100198D+00 0.73688800D-02 0.25063127D+05 0.25063127D+05 0.25063127D+05 0.12231802D+01  1  2  2  2  6  2       -2 0.418674818831D+00 0.100000000000D+01
0.400618720449D-03 0.130811568726D-03 -.951936831671D-05 0.261332578492D-04 0.000000000000D+00  6 1 -2 25 -24 21 21 4 0.18100198D+00 0.73688800D-02 0.25063127D+05 0.25063127D+05 0.25063127D+05 0.12231802D+01  1  2  3  2  6  2       -2 0.101237605087D+00 0.100000000000D+01
0.763312796132D-04 0.000000000000D+00 0.000000000000D+00 0.261332578492D-04 0.000000000000D+00  6 1 -2 25 -24 21 21 4 0.18100198D+00 0.73688800D-02 0.25063127D+05 0.25063127D+05 0.25063127D+05 0.12231802D+01  1  2 15  2  6  2       -2 0.192891533691D-01 0.100000000000D+01
  </mgrwgt>
  </event>
  <event>
  5     66 0.42750230E-03 0.27488167E+02 0.75467711E-02 0.11039769E+00
        1 -1    0    0  502    0 0.00000000E+00 0.00000000E+00 0.20504977E+04 0.20504977E+04 0.32000000E+00 0.0000E+00 0.9000E+01
       -2 -1    0    0    0  501 0.00000000E+00 0.00000000E+00 -.33621177E+02 0.33622700E+02 0.32000000E+00 0.0000E+00 0.9000E+01
       25  1    1    2    0    0 0.20233766E+03 -.54125046E+02 0.10076597E+04 0.10367609E+04 0.12500000E+03 0.0000E+00 0.9000E+01
      -24  1    1    2    0    0 -.22199391E+03 0.73329805E+02 0.82979346E+03 0.86584234E+03 0.80419002E+02 0.0000E+00 0.9000E+01
       21  1    1    2  502  501 0.19656251E+02 -.19204759E+02 0.17942335E+03 0.18151720E+03 0.75000000E+00 0.0000E+00 0.9000E+01
#aMCatNLO 1  0  0  2  2 0.11957602D+02 0.00000000D+00  -5  6  0 0.00000000D+00 0.00000000D+00 0.00000000D+00 0.00000000D+00 0.00000000D+00
  <mgrwgt>
 0.2403581781D+00    4    2    0
 0.262567629435371D+03 0.000000000000000D+00 0.000000000000000D+00 0.262567629435371D+03
 0.262567629435371D+03 0.000000000000000D+00 0.000000000000000D+00 -.262567629435371D+03
 0.244523316705971D+03 0.202335025959726D+03 -.541224747445134D+02 0.172611532145133D+02
 0.249327298226546D+03 -.221996590587767D+03 0.733324259441712D+02 -.321986763567757D+02
 0.312846439382246D+02 0.196615646280411D+02 -.192099511996578D+02 0.149375231422624D+02
 0.000000000000000D+00 0.000000000000000D+00 -.000000000000000D+00 0.000000000000000D+00
 0.282949004784178D+03 0.000000000000000D+00 0.000000000000000D+00 0.282949004784178D+03
 0.264395426543411D+03 0.000000000000000D+00 0.000000000000000D+00 -.264395426543411D+03
 0.240173031261101D+03 0.197942373525171D+03 -.507834057352672D+02 0.172611532145133D+02
 0.254426725175867D+03 -.226561956814678D+03 0.768027831170301D+02 -.321986763567757D+02
 0.306716251995788D+02 0.191000742070680D+02 -.187831349897271D+02 0.149375231422624D+02
 0.220730496910422D+02 0.951950908243913D+01 -.723624239203579D+01 0.185535782407675D+02
0.231840721359D-02 0.000000000000D+00 0.000000000000D+00 0.201591506189D-04 0.000000000000D+00  6 1 -2 25 -24 21 21 2 0.31546131D+00 0.51726079D-02 0.67247105D+05 0.67247105D+05 0.67247105D+05 0.11797420D+01  1  2  2  2  6  2       -2 0.165205234255D+00 0.100000000000D+01
0.805284552458D-03 0.122345709919D-03 -.890329415081D-05 0.201591506189D-04 0.000000000000D+00  6 1 -2 25 -24 21 21 4 0.31546131D+00 0.51726079D-02 0.67247105D+05 0.67247105D+05 0.67247105D+05 0.11797420D+01  1  2  3  2  6  2       -2 0.798651865907D-01 0.100000000000D+01
0.480755907264D-04 0.000000000000D+00 0.000000000000D+00 0.201591506189D-04 0.000000000000D+00  6 1 -2 25 -24 21 21 4 0.31546131D+00 0.51726079D-02 0.67247105D+05 0.67247105D+05 0.67247105D+05 0.11797420D+01  1  2 15  2  6  2       -2 0.476796184913D-02 0.100000000000D+01
-.955893625818D-04 0.000000000000D+00 0.000000000000D+00 0.201591506189D-04 0.000000000000D+00  6 1 -2 25 -24 21 21 4 0.31546131D+00 0.51726079D-02 0.67247105D+05 0.67247105D+05 0.67247105D+05 0.11797420D+01  1  2  4  2  6  2       -2 -.948020455053D-02 0.100000000000D+01
  </mgrwgt>
  </event>
  <event>
  5     66 0.42750230E-03 0.21158649E+02 0.75467711E-02 0.11847168E+00
        1 -1    0    0  502    0 0.00000000E+00 0.00000000E+00 0.48457013E+03 0.48457024E+03 0.32000000E+00 0.0000E+00 0.9000E+01
       -2 -1    0    0    0  501 0.00000000E+00 0.00000000E+00 -.35521326E+02 0.35522767E+02 0.32000000E+00 0.0000E+00 0.9000E+01
       25  1    1    2    0    0 -.64100416E+02 -.32805491E+02 0.27464004E+03 0.31022123E+03 0.12500000E+03 0.0000E+00 0.9000E+01
      -24  1    1    2    0    0 0.43861090E+02 0.26678422E+02 0.13822135E+03 0.16795205E+03 0.80419002E+02 0.0000E+00 0.9000E+01
       21  1    1    2  502  501 0.20239326E+02 0.61270698E+01 0.36187422E+02 0.41919725E+02 0.75000000E+00 0.0000E+00 0.9000E+01
#aMCatNLO 1  0  0  2  5 0.59644571D+02 0.00000000D+00  -5  6  0 0.00000000D+00 0.00000000D+00 0.00000000D+00 0.00000000D+00 0.00000000D+00
  <mgrwgt>
 0.1946328134D+00    3    2    0
 0.131198231135701D+03 0.000000000000000D+00 0.000000000000000D+00 0.131198231135701D+03
 0.131198231135701D+03 0.000000000000000D+00 0.000000000000000D+00 -.131198231135701D+03
 0.144887833226725D+03 -.641074427088607D+02 -.328076186179316D+02 0.134677454343951D+02
 0.963499765057421D+02 0.438564172756831D+02 0.266770069528983D+02 -.134556301250703D+02
 0.211586525389346D+02 0.202510254331775D+02 0.613061166503330D+01 -.121153093248328D-01
 0.000000000000000D+00 0.000000000000000D+00 0.000000000000000D+00 0.000000000000000D+00
 0.271216492561472D+03 0.000000000000000D+00 0.000000000000000D+00 0.271216492561472D+03
 0.141052297715195D+03 0.000000000000000D+00 0.000000000000000D+00 -.141052297715195D+03
 0.160644977073107D+03 -.760361961218510D+02 -.649532552767982D+02 0.134677454343951D+02
 0.896544904138640D+02 0.365943447754456D+02 0.710715452148129D+01 -.134556301250703D+02
 0.187904399492151D+02 0.186913144715422D+02 0.192749838657626D+01 -.121153093248328D-01
 0.143178882840480D+03 0.207505368748632D+02 0.559186023687407D+02 0.130164194846277D+03
0.132828050444D-03 0.000000000000D+00 0.000000000000D+00 0.508253066059D-04 0.000000000000D+00  6 1 -2 25 -24 21 21 2 0.74549370D-01 0.54649384D-02 0.17007417D+05 0.17007417D+05 0.17007417D+05 0.12416516D+01  1  2  2  2  6  2       -2 0.138364884431D+00 0.100000000000D+01
0.296427416659D-04 0.700952879785D-05 -.510094688133D-06 0.508253066059D-04 0.000000000000D+00  6 1 -2 25 -24 21 21 4 0.74549370D-01 0.54649384D-02 0.17007417D+05 0.17007417D+05 0.17007417D+05 0.12416516D+01  1  2  3  2  6  2       -2 0.476051561726D-01 0.100000000000D+01
0.539412862451D-05 0.000000000000D+00 0.000000000000D+00 0.508253066059D-04 0.000000000000D+00  6 1 -2 25 -24 21 21 4 0.74549370D-01 0.54649384D-02 0.17007417D+05 0.17007417D+05 0.17007417D+05 0.12416516D+01  1  2 15  2  6  2       -2 0.866277277854D-02 0.100000000000D+01
  </mgrwgt>
  </event>
  <event>
  5     66 -.42750230E-03 0.23095537E+02 0.75467711E-02 0.12470974E+00
        1 -1    0    0  502    0 0.00000000E+00 0.00000000E+00 0.24607559E+04 0.24607559E+04 0.32000000E+00 0.0000E+00 0.9000E+01
       -2 -1    0    0    0  501 0.00000000E+00 0.00000000E+00 -.15193938E+02 0.15197308E+02 0.32000000E+00 0.0000E+00 0.9000E+01
       25  1    1    2    0    0 0.36315840E+01 -.29545124E+02 0.33276091E+03 0.35670846E+03 0.12500000E+03 0.0000E+00 0.9000E+01
      -24  1    1    2    0    0 0.15618243E+02 0.16784457E+02 0.55429304E+03 0.56056546E+03 0.80419002E+02 0.0000E+00 0.9000E+01
       21  1    1    2  502  501 -.19249827E+02 0.12760667E+02 0.15585080E+04 0.15586793E+04 0.75000000E+00 0.0000E+00 0.9000E+01
#aMCatNLO 1  0  0  5  2 0.31779583D+01 0.00000000D+00  -5  6  0 0.00000000D+00 0.00000000D+00 0.00000000D+00 0.00000000D+00 0.00000000D+00
  <mgrwgt>
 -.1019032201D+01   20    2    0
 0.193372101014447D+03 0.000000000000000D+00 0.000000000000000D+00 0.193372101014447D+03
 0.193372101014447D+03 -.000000000000000D+00 -.000000000000000D+00 -.193372101014447D+03
 0.179463140603464D+03 0.363174855242418D+01 -.295452333784916D+02 -.125283312625111D+03
 0.837139499048123D+02 0.156183195104322D+02 0.167844065438310D+02 0.389374459053839D+01
 0.123567111520618D+03 -.192500680628563D+02 0.127608268346607D+02 0.121389568034572D+03
 0.000000000000000D+00 0.000000000000000D+00 0.000000000000000D+00 0.000000000000000D+00
 0.193372101014447D+03 0.000000000000000D+00 0.000000000000000D+00 0.193372101014447D+03
 0.193372101014447D+03 -.000000000000000D+00 -.000000000000000D+00 -.193372101014447D+03
 0.179340212248989D+03 0.360461192553537D+01 -.295272445695444D+02 -.125112190974777D+03
 0.837170239366717D+02 0.156056565522110D+02 0.167928007903628D+02 0.397359630968460D+01
 0.108156749451436D+03 -.151478564709841D+02 0.853178369977785D+01 0.106750332847890D+03
 0.155302163917978D+02 -.406241200676233D+01 0.420266007940373D+01 0.143882618172024D+02
0.998136923916D-04 0.000000000000D+00 0.000000000000D+00 0.595065902205D-04 0.000000000000D+00  6 1 -2 25 -24 21 21 2 0.37857808D+00 0.23377897D-02 0.13831459D+05 0.13831459D+05 0.13831459D+05 0.12518581D+01  1  2  2  3  6  5       21 0.145245026676D-01 0.100000000000D+01
0.160775746382D-04 0.526731325877D-05 -.383310860333D-06 0.595065902205D-04 0.000000000000D+00  6 1 -2 25 -24 21 21 4 0.37857808D+00 0.23377897D-02 0.13831459D+05 0.13831459D+05 0.13831459D+05 0.12518581D+01  1  2  3  3  6  5       21 0.366641743338D-02 0.100000000000D+01
0.515154468770D-05 0.000000000000D+00 0.000000000000D+00 0.595065902205D-04 0.000000000000D+00  6 1 -2 25 -24 21 21 4 0.37857808D+00 0.23377897D-02 0.13831459D+05 0.13831459D+05 0.13831459D+05 0.12518581D+01  1  2 15  3  6  5       21 0.117478622721D-02 0.100000000000D+01
0.635792818982D-04 0.000000000000D+00 0.000000000000D+00 0.595013644301D-04 0.000000000000D+00  6 1 -2 25 -24 21 21 4 0.37857808D+00 0.23377897D-02 0.13846673D+05 0.13846673D+05 0.13846673D+05 0.12518032D+01  1  2 12  3  6  5       21 0.144962398268D-01 0.100000000000D+01
0.984928026069D-04 0.000000000000D+00 0.000000000000D+00 0.595013644301D-04 0.000000000000D+00  6 1 -2 25 -24 21 21 4 0.37857808D+00 0.23377897D-02 0.13846673D+05 0.13846673D+05 0.13846673D+05 0.12518032D+01  1  2 12  3  6  5       21 0.224566123614D-01 0.100000000000D+01
-.546892977558D-02 0.000000000000D+00 0.000000000000D+00 0.595065902205D-04 0.000000000000D+00  6 1 -2 25 -24 21 21 4 0.37857808D+00 0.23377897D-02 0.13831459D+05 0.13831459D+05 0.13831459D+05 0.12518581D+01  1  2  4  3  6  5       21 -.124716444628D+01 0.100000000000D+01
-.891341401280D-02 0.000000000000D+00 0.000000000000D+00 0.595065902205D-04 0.000000000000D+00  6 1 -2 25 -24 21 21 4 0.37857808D+00 0.23377897D-02 0.13831459D+05 0.13831459D+05 0.13831459D+05 0.12518581D+01  1  2  5  3  6  5       21 -.203266333778D+01 0.100000000000D+01
0.994653149190D-02 0.000000000000D+00 -.000000000000D+00 0.595065902205D-04 0.000000000000D+00  6 1 -2 25 -24 21 21 4 0.37857808D+00 0.23377897D-02 0.13831459D+05 0.13831459D+05 0.13831459D+05 0.12518581D+01  1  2  6  3  6  5       21 0.226826105830D+01 0.100000000000D+01
0.658672077860D-06 0.000000000000D+00 0.000000000000D+00 0.595013644301D-04 0.000000000000D+00  6 1 -2 25 -24 1 -1 4 0.37857808D+00 0.23377897D-02 0.13846673D+05 0.13846673D+05 0.13846673D+05 0.12518032D+01  1  2 12  6  6  5       21 0.150178928148D-03 0.100000000000D+01
0.847823802777D-06 0.000000000000D+00 0.000000000000D+00 0.595013644301D-04 0.000000000000D+00  6 1 -2 25 -24 1 -1 4 0.37857808D+00 0.23377897D-02 0.13846673D+05 0.13846673D+05 0.13846673D+05 0.12518032D+01  1  2 12  6  6  5       21 0.193306008011D-03 0.100000000000D+01
-.714309135769D-04 0.000000000000D+00 0.000000000000D+00 0.595065902205D-04 0.000000000000D+00  6 1 -2 25 -24 1 -1 4 0.37857808D+00 0.23377897D-02 0.13831459D+05 0.13831459D+05 0.13831459D+05 0.12518581D+01  1  2  5  6  6  5       21 -.162894934538D-01 0.100000000000D+01
0.658672077860D-06 0.000000000000D+00 0.000000000000D+00 0.595013644301D-04 0.000000000000D+00  6 1 -2 25 -24 2 -2 4 0.37857808D+00 0.23377897D-02 0.13846673D+05 0.13846673D+05 0.13846673D+05 0.12518032D+01  1  2 12  7  6  5       21 0.150178928148D-03 0.100000000000D+01
0.847823802777D-06 0.000000000000D+00 0.000000000000D+00 0.595013644301D-04 0.000000000000D+00  6 1 -2 25 -24 2 -2 4 0.37857808D+00 0.23377897D-02 0.13846673D+05 0.13846673D+05 0.13846673D+05 0.12518032D+01  1  2 12  7  6  5       21 0.193306008011D-03 0.100000000000D+01
-.714309135769D-04 0.000000000000D+00 0.000000000000D+00 0.595065902205D-04 0.000000000000D+00  6 1 -2 25 -24 2 -2 4 0.37857808D+00 0.23377897D-02 0.13831459D+05 0.13831459D+05 0.13831459D+05 0.12518581D+01  1  2  5  7  6  5       21 -.162894934538D-01 0.100000000000D+01
0.658672077860D-06 0.000000000000D+00 0.000000000000D+00 0.595013644301D-04 0.000000000000D+00  6 1 -2 25 -24 3 -3 4 0.37857808D+00 0.23377897D-02 0.13846673D+05 0.13846673D+05 0.13846673D+05 0.12518032D+01  1  2 12  8  6  5       21 0.150178928148D-03 0.100000000000D+01
0.658672077860D-06 0.000000000000D+00 0.000000000000D+00 0.595013644301D-04 0.000000000000D+00  6 1 -2 25 -24 4 -4 4 0.37857808D+00 0.23377897D-02 0.13846673D+05 0.13846673D+05 0.13846673D+05 0.12518032D+01  1  2 12  8  6  5       21 0.150178928148D-03 0.100000000000D+01
0.847823802777D-06 0.000000000000D+00 0.000000000000D+00 0.595013644301D-04 0.000000000000D+00  6 1 -2 25 -24 3 -3 4 0.37857808D+00 0.23377897D-02 0.13846673D+05 0.13846673D+05 0.13846673D+05 0.12518032D+01  1  2 12  8  6  5       21 0.193306008011D-03 0.100000000000D+01
0.847823802777D-06 0.000000000000D+00 0.000000000000D+00 0.595013644301D-04 0.000000000000D+00  6 1 -2 25 -24 4 -4 4 0.37857808D+00 0.23377897D-02 0.13846673D+05 0.13846673D+05 0.13846673D+05 0.12518032D+01  1  2 12  8  6  5       21 0.193306008011D-03 0.100000000000D+01
-.714309135769D-04 0.000000000000D+00 0.000000000000D+00 0.595065902205D-04 0.000000000000D+00  6 1 -2 25 -24 3 -3 4 0.37857808D+00 0.23377897D-02 0.13831459D+05 0.13831459D+05 0.13831459D+05 0.12518581D+01  1  2  5  8  6  5       21 -.162894934538D-01 0.100000000000D+01
-.714309135769D-04 0.000000000000D+00 0.000000000000D+00 0.595065902205D-04 0.000000000000D+00  6 1 -2 25 -24 4 -4 4 0.37857808D+00 0.23377897D-02 0.13831459D+05 0.13831459D+05 0.13831459D+05 0.12518581D+01  1  2  5  8  6  5       21 -.162894934538D-01 0.100000000000D+01
  </mgrwgt>
  </event>
  <event>
  6     66 -.42750230E-03 0.65539438E+01 0.75467711E-02 0.12311676E+00
        1 -1    0    0  502    0 0.00000000E+00 0.00000000E+00 0.60567154E+03 0.60567163E+03 0.32000000E+00 0.0000E+00 0.9000E+01
       -2 -1    0    0    0  501 0.00000000E+00 0.00000000E+00 -.39368114E+02 0.39369414E+02 0.32000000E+00 0.0000E+00 0.9000E+01
       25  1    1    2    0    0 0.49880652E+01 -.60272165E+02 0.22210389E+03 0.26194036E+03 0.12500000E+03 0.0000E+00 0.9000E+01
      -24  1    1    2    0    0 -.19811898E+02 0.44619666E+02 0.99452242E+02 0.13689920E+03 0.80419002E+02 0.0000E+00 0.9000E+01
       21  1    1    2  502  503 0.36870626E+01 0.10968922E+02 0.17713363E+03 0.17751281E+03 0.75000000E+00 0.0000E+00 0.9000E+01
       21  1    1    2  503  501 0.11136770E+02 0.46835768E+01 0.67613668E+02 0.68688676E+02 0.75000000E+00 0.0000E+00 0.9000E+01
#aMCatNLO 2  0  0  5  2 0.72093430D+01 0.00000000D+00  -5  6  0 0.00000000D+00 0.00000000D+00 0.00000000D+00 0.00000000D+00 0.00000000D+00
  <mgrwgt>
 -.3376190859D+00    2    2    0
 0.154416944690298D+03 0.000000000000000D+00 0.000000000000000D+00 0.154416944690298D+03
 0.154416944690298D+03 -.000000000000000D+00 -.000000000000000D+00 -.154416944690298D+03
 0.140015166223644D+03 0.478303309865719D+01 -.604886583166746D+02 -.172479442850573D+02
 0.103786237533390D+03 -.199638188168819D+02 0.444592517548314D+02 -.439225229081162D+02
 0.650324856235607D+02 0.151807857182247D+02 0.160294065618431D+02 0.611704671931735D+02
 0.000000000000000D+00 0.000000000000000D+00 0.000000000000000D+00 0.000000000000000D+00
 0.154416944690298D+03 0.000000000000000D+00 0.000000000000000D+00 0.154416944690298D+03
 0.154416944690298D+03 -.000000000000000D+00 -.000000000000000D+00 -.154416944690298D+03
 0.139829858625305D+03 0.498766441887823D+01 -.602725879045106D+02 -.164233892394479D+02
 0.103568897709948D+03 -.198121943415054D+02 0.446193521874210D+02 -.433115571670236D+02
 0.455792426493374D+02 0.352574741257419D+01 0.108721426750388D+02 0.441229303120668D+02
 0.198558903960054D+02 0.112987825100530D+02 0.478109304205081D+01 0.156120160944048D+02
-.133323166045D-03 0.000000000000D+00 0.000000000000D+00 0.538131573596D-04 0.000000000000D+00  6 1 -2 25 -24 21 21 4 0.93180344D-01 0.60567394D-02 0.16465771D+05 0.16465771D+05 0.16465771D+05 0.12432328D+01  1  2 13  3  6  5       21 -.136956524994D+00 0.100000000000D+01
-.195339126272D-03 0.000000000000D+00 0.000000000000D+00 0.538131573596D-04 0.000000000000D+00  6 1 -2 25 -24 21 21 4 0.93180344D-01 0.60567394D-02 0.16465771D+05 0.16465771D+05 0.16465771D+05 0.12432328D+01  1  2 13  3  6  5       21 -.200662560928D+00 0.100000000000D+01
  </mgrwgt>
  </event>
  <event>
  5     66 0.42750230E-03 0.28362572E+02 0.75467711E-02 0.12110666E+00
        1 -1    0    0  502    0 0.00000000E+00 0.00000000E+00 0.12512006E+03 0.12512047E+03 0.32000000E+00 0.0000E+00 0.9000E+01
       -2 -1    0    0    0  501 -.00000000E+00 -.00000000E+00 -.20794123E+03 0.20794148E+03 0.32000000E+00 0.0000E+00 0.9000E+01
       25  1    1    2    0    0 -.33310269E+02 -.81430777E+02 -.78321113E+02 0.17175489E+03 0.12500000E+03 0.0000E+00 0.9000E+01
      -24  1    1    2    0    0 0.16511783E+02 0.58580095E+02 -.46150913E+02 0.11091163E+03 0.80419002E+02 0.0000E+00 0.9000E+01
       21  1    1    2  502  501 0.16798486E+02 0.22850682E+02 0.41650856E+02 0.50395428E+02 0.75000000E+00 0.0000E+00 0.9000E+01
#aMCatNLO 1  0  0  5  1 0.43134784D+01 0.00000000D+00  -5  6  0 0.00000000D+00 0.00000000D+00 0.00000000D+00 0.00000000D+00 0.00000000D+00
  <mgrwgt>
 0.2135017823D+00   25    2    0
 0.161300119104494D+03 0.000000000000000D+00 0.000000000000000D+00 0.161300119104494D+03
 0.161300119104494D+03 -.000000000000000D+00 -.000000000000000D+00 -.161300119104494D+03
 0.157218395488376D+03 -.333108546802278D+02 -.814315736823738D+02 -.367683239762745D+02
 0.102659971581039D+03 0.165114012686247D+02 0.585795752812522D+02 -.191744830090367D+02
 0.627218711395736D+02 0.167994534116031D+02 0.228519984011215D+02 0.559428069853112D+02
 0.000000000000000D+00 0.000000000000000D+00 0.000000000000000D+00 0.000000000000000D+00
 0.161300119104494D+03 0.000000000000000D+00 0.000000000000000D+00 0.161300119104494D+03
 0.161300119104494D+03 -.000000000000000D+00 -.000000000000000D+00 -.161300119104494D+03
 0.156952386286061D+03 -.331534225986371D+02 -.812174216151220D+02 -.362440692676279D+02
 0.102693106172724D+03 0.166143044167444D+02 0.587195526078168D+02 -.188318116844170D+02
 0.534108807497017D+02 0.179850197267518D+02 0.207727162971616D+02 0.458012609599872D+02
 0.954386500050248D+01 -.144590154485905D+01 0.172515271014356D+01 0.927461999205762D+01
0.957407097619D-04 0.000000000000D+00 0.000000000000D+00 0.299021235366D-04 0.000000000000D+00  6 1 -2 25 -24 21 21 2 0.19249290D-01 0.31991009D-01 0.19891499D+05 0.19891499D+05 0.19891499D+05 0.12340862D+01  1  2  2  3  6  5       21 0.303008336893D-01 0.100000000000D+01
0.979821994747D-05 0.505237606033D-05 -.367669534593D-06 0.299021235366D-04 0.000000000000D+00  6 1 -2 25 -24 21 21 4 0.19249290D-01 0.31991009D-01 0.19891499D+05 0.19891499D+05 0.19891499D+05 0.12340862D+01  1  2  3  3  6  5       21 0.472276269313D-02 0.100000000000D+01
0.274682260279D-05 0.000000000000D+00 0.000000000000D+00 0.299021235366D-04 0.000000000000D+00  6 1 -2 25 -24 21 21 4 0.19249290D-01 0.31991009D-01 0.19891499D+05 0.19891499D+05 0.19891499D+05 0.12340862D+01  1  2 15  3  6  5       21 0.132397429152D-02 0.100000000000D+01
0.616488611180D-04 0.000000000000D+00 0.000000000000D+00 0.298805715723D-04 0.000000000000D+00  6 1 -2 25 -24 21 21 4 0.19249290D-01 0.31991009D-01 0.20077404D+05 0.20077404D+05 0.20077404D+05 0.12336414D+01  1  2 12  3  6  5       21 0.296784205057D-01 0.100000000000D+01
0.776482023660D-04 0.000000000000D+00 0.000000000000D+00 0.298805715723D-04 0.000000000000D+00  6 1 -2 25 -24 21 21 4 0.19249290D-01 0.31991009D-01 0.20077404D+05 0.20077404D+05 0.20077404D+05 0.12336414D+01  1  2 12  3  6  5       21 0.373806743472D-01 0.100000000000D+01
-.843806560648D-03 0.000000000000D+00 0.000000000000D+00 0.299021235366D-04 0.000000000000D+00  6 1 -2 25 -24 21 21 4 0.19249290D-01 0.31991009D-01 0.19891499D+05 0.19891499D+05 0.19891499D+05 0.12340862D+01  1  2  4  3  6  5       21 -.406716543027D+00 0.100000000000D+01
-.129724026133D-02 0.000000000000D+00 0.000000000000D+00 0.299021235366D-04 0.000000000000D+00  6 1 -2 25 -24 21 21 4 0.19249290D-01 0.31991009D-01 0.19891499D+05 0.19891499D+05 0.19891499D+05 0.12340862D+01  1  2  5  3  6  5       21 -.625272543696D+00 0.100000000000D+01
0.153378295756D-02 0.000000000000D+00 -.000000000000D+00 0.299021235366D-04 0.000000000000D+00  6 1 -2 25 -24 21 21 4 0.19249290D-01 0.31991009D-01 0.19891499D+05 0.19891499D+05 0.19891499D+05 0.12340862D+01  1  2  6  3  6  5       21 0.739286622482D+00 0.100000000000D+01
0.825759833477D-03 0.000000000000D+00 0.000000000000D+00 0.299021235366D-04 0.270577227316D-04  6 1 -2 25 -24 21 21 4 0.19249290D-01 0.31991009D-01 0.20077404D+05 0.20077404D+05 0.20077404D+05 0.12336414D+01  1  2 11  3  6  5       21 0.397529607688D+00 0.100000000000D+01
0.107141561687D-05 0.000000000000D+00 0.000000000000D+00 0.298805715723D-04 0.000000000000D+00  6 1 -2 25 -24 1 -1 4 0.19249290D-01 0.31991009D-01 0.20077404D+05 0.20077404D+05 0.20077404D+05 0.12336414D+01  1  2 12  6  6  5       21 0.515790926828D-03 0.100000000000D+01
0.120140705770D-05 0.000000000000D+00 0.000000000000D+00 0.298805715723D-04 0.000000000000D+00  6 1 -2 25 -24 1 -1 4 0.19249290D-01 0.31991009D-01 0.20077404D+05 0.20077404D+05 0.20077404D+05 0.12336414D+01  1  2 12  6  6  5       21 0.578370195494D-03 0.100000000000D+01
-.117720286299D-04 0.000000000000D+00 0.000000000000D+00 0.299021235366D-04 0.000000000000D+00  6 1 -2 25 -24 1 -1 4 0.19249290D-01 0.31991009D-01 0.19891499D+05 0.19891499D+05 0.19891499D+05 0.12340862D+01  1  2  5  6  6  5       21 -.567414264364D-02 0.100000000000D+01
0.122786861172D-04 0.000000000000D+00 0.000000000000D+00 0.299021235366D-04 0.241070149869D-06  6 1 -2 25 -24 1 -1 4 0.19249290D-01 0.31991009D-01 0.20077404D+05 0.20077404D+05 0.20077404D+05 0.12336414D+01  1  2 11  6  6  5       21 0.591109070361D-02 0.100000000000D+01
0.107141561687D-05 0.000000000000D+00 0.000000000000D+00 0.298805715723D-04 0.000000000000D+00  6 1 -2 25 -24 2 -2 4 0.19249290D-01 0.31991009D-01 0.20077404D+05 0.20077404D+05 0.20077404D+05 0.12336414D+01  1  2 12  7  6  5       21 0.515790926828D-03 0.100000000000D+01
0.120140705770D-05 0.000000000000D+00 0.000000000000D+00 0.298805715723D-04 0.000000000000D+00  6 1 -2 25 -24 2 -2 4 0.19249290D-01 0.31991009D-01 0.20077404D+05 0.20077404D+05 0.20077404D+05 0.12336414D+01  1  2 12  7  6  5       21 0.578370195494D-03 0.100000000000D+01
-.117720286299D-04 0.000000000000D+00 0.000000000000D+00 0.299021235366D-04 0.000000000000D+00  6 1 -2 25 -24 2 -2 4 0.19249290D-01 0.31991009D-01 0.19891499D+05 0.19891499D+05 0.19891499D+05 0.12340862D+01  1  2  5  7  6  5       21 -.567414264364D-02 0.100000000000D+01
0.122907124663D-04 0.000000000000D+00 0.000000000000D+00 0.299021235366D-04 0.238632438887D-06  6 1 -2 25 -24 2 -2 4 0.19249290D-01 0.31991009D-01 0.20077404D+05 0.20077404D+05 0.20077404D+05 0.12336414D+01  1  2 11  7  6  5       21 0.591688031657D-02 0.100000000000D+01
0.107141561687D-05 0.000000000000D+00 0.000000000000D+00 0.298805715723D-04 0.000000000000D+00  6 1 -2 25 -24 3 -3 4 0.19249290D-01 0.31991009D-01 0.20077404D+05 0.20077404D+05 0.20077404D+05 0.12336414D+01  1  2 12  8  6  5       21 0.515790926828D-03 0.100000000000D+01
0.107141561687D-05 0.000000000000D+00 0.000000000000D+00 0.298805715723D-04 0.000000000000D+00  6 1 -2 25 -24 4 -4 4 0.19249290D-01 0.31991009D-01 0.20077404D+05 0.20077404D+05 0.20077404D+05 0.12336414D+01  1  2 12  8  6  5       21 0.515790926828D-03 0.100000000000D+01
0.120140705770D-05 0.000000000000D+00 0.000000000000D+00 0.298805715723D-04 0.000000000000D+00  6 1 -2 25 -24 3 -3 4 0.19249290D-01 0.31991009D-01 0.20077404D+05 0.20077404D+05 0.20077404D+05 0.12336414D+01  1  2 12  8  6  5       21 0.578370195494D-03 0.100000000000D+01
0.120140705770D-05 0.000000000000D+00 0.000000000000D+00 0.298805715723D-04 0.000000000000D+00  6 1 -2 25 -24 4 -4 4 0.19249290D-01 0.31991009D-01 0.20077404D+05 0.20077404D+05 0.20077404D+05 0.12336414D+01  1  2 12  8  6  5       21 0.578370195494D-03 0.100000000000D+01
-.117720286299D-04 0.000000000000D+00 0.000000000000D+00 0.299021235366D-04 0.000000000000D+00  6 1 -2 25 -24 3 -3 4 0.19249290D-01 0.31991009D-01 0.19891499D+05 0.19891499D+05 0.19891499D+05 0.12340862D+01  1  2  5  8  6  5       21 -.567414264364D-02 0.100000000000D+01
-.117720286299D-04 0.000000000000D+00 0.000000000000D+00 0.299021235366D-04 0.000000000000D+00  6 1 -2 25 -24 4 -4 4 0.19249290D-01 0.31991009D-01 0.19891499D+05 0.19891499D+05 0.19891499D+05 0.12340862D+01  1  2  5  8  6  5       21 -.567414264364D-02 0.100000000000D+01
0.122140292271D-04 0.000000000000D+00 0.000000000000D+00 0.299021235366D-04 0.236223821453D-06  6 1 -2 25 -24 3 -3 4 0.19249290D-01 0.31991009D-01 0.20077404D+05 0.20077404D+05 0.20077404D+05 0.12336414D+01  1  2 11  8  6  5       21 0.587996418580D-02 0.100000000000D+01
0.122140292271D-04 0.000000000000D+00 0.000000000000D+00 0.299021235366D-04 0.236223821453D-06  6 1 -2 25 -24 4 -4 4 0.19249290D-01 0.31991009D-01 0.20077404D+05 0.20077404D+05 0.20077404D+05 0.12336414D+01  1  2 11  8  6  5       21 0.587996418580D-02 0.100000000000D+01
  </mgrwgt>
  </event>
  <event>
  5     66 0.42750230E-03 0.29686796E+02 0.75467711E-02 0.11977319E+00
        1 -1    0    0  502    0 0.00000000E+00 0.00000000E+00 0.38105738E+03 0.38105751E+03 0.32000000E+00 0.0000E+00 0.9000E+01
       -2 -1    0    0    0  501 0.00000000E+00 0.00000000E+00 -.12699824E+03 0.12699865E+03 0.32000000E+00 0.0000E+00 0.9000E+01
       25  1    1    2    0    0 0.74321095E+02 0.15306741E+02 0.30758538E+03 0.34057552E+03 0.12500000E+03 0.0000E+00 0.9000E+01
      -24  1    1    2    0    0 -.10071108E+03 -.17203778E+01 -.45961889E+02 0.13684075E+03 0.80419002E+02 0.0000E+00 0.9000E+01
       21  1    1    2  502  501 0.26389983E+02 -.13586363E+02 -.75643520E+01 0.30639882E+02 0.75000000E+00 0.0000E+00 0.9000E+01
#aMCatNLO 1  0  0  5  2 0.28569928D+01 0.00000000D+00  -5  6  0 0.00000000D+00 0.00000000D+00 0.00000000D+00 0.00000000D+00 0.00000000D+00
  <mgrwgt>
 0.2119233345D+00   25    2    0
 0.219985803281923D+03 0.000000000000000D+00 0.000000000000000D+00 0.219985803281923D+03
 0.219985803281923D+03 -.000000000000000D+00 -.000000000000000D+00 -.219985803281923D+03
 0.215666301816500D+03 0.743187915410542D+02 0.153079265393675D+02 0.158522359142640D+03
 0.184556621399457D+03 -.100713048379220D+03 -.171936302267596D+01 -.132090333578855D+03
 0.397486833478900D+02 0.263942568381660D+02 -.135885635166916D+02 -.264320255637852D+02
 0.000000000000000D+00 0.000000000000000D+00 0.000000000000000D+00 0.000000000000000D+00
 0.219985803281923D+03 0.000000000000000D+00 0.000000000000000D+00 0.219985803281923D+03
 0.219985803281923D+03 -.000000000000000D+00 -.000000000000000D+00 -.219985803281923D+03
 0.215608563278258D+03 0.744538917420421D+02 0.152383728605692D+02 0.158387065620717D+03
 0.184577034906569D+03 -.100597414394505D+03 -.177889490325222D+01 -.132206133029424D+03
 0.183789871568010D+02 0.102236137904131D+02 -.564423468443966D+01 -.141918111881924D+02
 0.214070212222185D+02 0.159199088620499D+02 -.781524327287730D+01 -.119891214031006D+02
0.137134787190D-03 0.000000000000D+00 0.000000000000D+00 0.101134880377D-04 0.000000000000D+00  6 1 -2 25 -24 21 21 2 0.58624253D-01 0.19538232D-01 0.23226873D+05 0.23226873D+05 0.23226873D+05 0.12267379D+01  1  2  2  3  6  5       21 0.253331783583D-01 0.100000000000D+01
0.146218752646D-04 0.723680153990D-05 -.526633691228D-06 0.101134880377D-04 0.000000000000D+00  6 1 -2 25 -24 21 21 4 0.58624253D-01 0.19538232D-01 0.23226873D+05 0.23226873D+05 0.23226873D+05 0.12267379D+01  1  2  3  3  6  5       21 0.406488891443D-02 0.100000000000D+01
0.366184952464D-05 0.000000000000D+00 0.000000000000D+00 0.101134880377D-04 0.000000000000D+00  6 1 -2 25 -24 21 21 4 0.58624253D-01 0.19538232D-01 0.23226873D+05 0.23226873D+05 0.23226873D+05 0.12267379D+01  1  2 15  3  6  5       21 0.101799606888D-02 0.100000000000D+01
0.690306216335D-05 0.000000000000D+00 0.000000000000D+00 0.101150233520D-04 0.000000000000D+00  6 1 -2 25 -24 21 21 4 0.58624253D-01 0.19538232D-01 0.23180878D+05 0.23180878D+05 0.23180878D+05 0.12268310D+01  1  2 12  3  6  5       21 0.191959535503D-02 0.100000000000D+01
0.687146606035D-05 0.000000000000D+00 0.000000000000D+00 0.101150233520D-04 0.000000000000D+00  6 1 -2 25 -24 21 21 4 0.58624253D-01 0.19538232D-01 0.23180878D+05 0.23180878D+05 0.23180878D+05 0.12268310D+01  1  2 12  3  6  5       21 0.191080914810D-02 0.100000000000D+01
-.283743597009D-02 0.000000000000D+00 0.000000000000D+00 0.101134880377D-04 0.000000000000D+00  6 1 -2 25 -24 21 21 4 0.58624253D-01 0.19538232D-01 0.23226873D+05 0.23226873D+05 0.23226873D+05 0.12267379D+01  1  2  4  3  6  5       21 -.788808672725D+00 0.100000000000D+01
-.120302755618D-02 0.000000000000D+00 0.000000000000D+00 0.101134880377D-04 0.000000000000D+00  6 1 -2 25 -24 21 21 4 0.58624253D-01 0.19538232D-01 0.23226873D+05 0.23226873D+05 0.23226873D+05 0.12267379D+01  1  2  5  3  6  5       21 -.334442285163D+00 0.100000000000D+01
0.326801888258D-02 0.000000000000D+00 -.000000000000D+00 0.101134880377D-04 0.000000000000D+00  6 1 -2 25 -24 21 21 4 0.58624253D-01 0.19538232D-01 0.23226873D+05 0.23226873D+05 0.23226873D+05 0.12267379D+01  1  2  6  3  6  5       21 0.908510945934D+00 0.100000000000D+01
0.140054376903D-02 0.000000000000D+00 0.000000000000D+00 0.101134880377D-04 0.821022431040D-05  6 1 -2 25 -24 21 21 4 0.58624253D-01 0.19538232D-01 0.23180878D+05 0.23180878D+05 0.23180878D+05 0.12268310D+01  1  2 11  3  6  5       21 0.389461553427D+00 0.100000000000D+01
0.107486400073D-06 0.000000000000D+00 0.000000000000D+00 0.101150233520D-04 0.000000000000D+00  6 1 -2 25 -24 1 -1 4 0.58624253D-01 0.19538232D-01 0.23180878D+05 0.23180878D+05 0.23180878D+05 0.12268310D+01  1  2 12  6  6  5       21 0.298896908973D-04 0.100000000000D+01
0.106978874317D-06 0.000000000000D+00 0.000000000000D+00 0.101150233520D-04 0.000000000000D+00  6 1 -2 25 -24 1 -1 4 0.58624253D-01 0.19538232D-01 0.23180878D+05 0.23180878D+05 0.23180878D+05 0.12268310D+01  1  2 12  6  6  5       21 0.297485587360D-04 0.100000000000D+01
-.285407057033D-05 0.000000000000D+00 0.000000000000D+00 0.101134880377D-04 0.000000000000D+00  6 1 -2 25 -24 1 -1 4 0.58624253D-01 0.19538232D-01 0.23226873D+05 0.23226873D+05 0.23226873D+05 0.12267379D+01  1  2  5  6  6  5       21 -.793433100229D-03 0.100000000000D+01
0.537134247712D-05 0.000000000000D+00 0.000000000000D+00 0.101134880377D-04 0.265415804920D-07  6 1 -2 25 -24 1 -1 4 0.58624253D-01 0.19538232D-01 0.23180878D+05 0.23180878D+05 0.23180878D+05 0.12268310D+01  1  2 11  6  6  5       21 0.149365655782D-02 0.100000000000D+01
0.107486400073D-06 0.000000000000D+00 0.000000000000D+00 0.101150233520D-04 0.000000000000D+00  6 1 -2 25 -24 2 -2 4 0.58624253D-01 0.19538232D-01 0.23180878D+05 0.23180878D+05 0.23180878D+05 0.12268310D+01  1  2 12  7  6  5       21 0.298896908973D-04 0.100000000000D+01
0.106978874317D-06 0.000000000000D+00 0.000000000000D+00 0.101150233520D-04 0.000000000000D+00  6 1 -2 25 -24 2 -2 4 0.58624253D-01 0.19538232D-01 0.23180878D+05 0.23180878D+05 0.23180878D+05 0.12268310D+01  1  2 12  7  6  5       21 0.297485587360D-04 0.100000000000D+01
-.285407057033D-05 0.000000000000D+00 0.000000000000D+00 0.101134880377D-04 0.000000000000D+00  6 1 -2 25 -24 2 -2 4 0.58624253D-01 0.19538232D-01 0.23226873D+05 0.23226873D+05 0.23226873D+05 0.12267379D+01  1  2  5  7  6  5       21 -.793433100229D-03 0.100000000000D+01
0.518727872658D-05 0.000000000000D+00 0.000000000000D+00 0.101134880377D-04 0.256473347585D-07  6 1 -2 25 -24 2 -2 4 0.58624253D-01 0.19538232D-01 0.23180878D+05 0.23180878D+05 0.23180878D+05 0.12268310D+01  1  2 11  7  6  5       21 0.144247232795D-02 0.100000000000D+01
0.107486400073D-06 0.000000000000D+00 0.000000000000D+00 0.101150233520D-04 0.000000000000D+00  6 1 -2 25 -24 3 -3 4 0.58624253D-01 0.19538232D-01 0.23180878D+05 0.23180878D+05 0.23180878D+05 0.12268310D+01  1  2 12  8  6  5       21 0.298896908973D-04 0.100000000000D+01
0.107486400073D-06 0.000000000000D+00 0.000000000000D+00 0.101150233520D-04 0.000000000000D+00  6 1 -2 25 -24 4 -4 4 0.58624253D-01 0.19538232D-01 0.23180878D+05 0.23180878D+05 0.23180878D+05 0.12268310D+01  1  2 12  8  6  5       21 0.298896908973D-04 0.100000000000D+01
0.106978874317D-06 0.000000000000D+00 0.000000000000D+00 0.101150233520D-04 0.000000000000D+00  6 1 -2 25 -24 3 -3 4 0.58624253D-01 0.19538232D-01 0.23180878D+05 0.23180878D+05 0.23180878D+05 0.12268310D+01  1  2 12  8  6  5       21 0.297485587360D-04 0.100000000000D+01
0.106978874317D-06 0.000000000000D+00 0.000000000000D+00 0.101150233520D-04 0.000000000000D+00  6 1 -2 25 -24 4 -4 4 0.58624253D-01 0.19538232D-01 0.23180878D+05 0.23180878D+05 0.23180878D+05 0.12268310D+01  1  2 12  8  6  5       21 0.297485587360D-04 0.100000000000D+01
-.285407057033D-05 0.000000000000D+00 0.000000000000D+00 0.101134880377D-04 0.000000000000D+00  6 1 -2 25 -24 3 -3 4 0.58624253D-01 0.19538232D-01 0.23226873D+05 0.23226873D+05 0.23226873D+05 0.12267379D+01  1  2  5  8  6  5       21 -.793433100229D-03 0.100000000000D+01
-.285407057033D-05 0.000000000000D+00 0.000000000000D+00 0.101134880377D-04 0.000000000000D+00  6 1 -2 25 -24 4 -4 4 0.58624253D-01 0.19538232D-01 0.23226873D+05 0.23226873D+05 0.23226873D+05 0.12267379D+01  1  2  5  8  6  5       21 -.793433100229D-03 0.100000000000D+01
0.531211923332D-05 0.000000000000D+00 0.000000000000D+00 0.101134880377D-04 0.262460590188D-07  6 1 -2 25 -24 3 -3 4 0.58624253D-01 0.19538232D-01 0.23180878D+05 0.23180878D+05 0.23180878D+05 0.12268310D+01  1  2 11  8  6  5       21 0.147718782829D-02 0.100000000000D+01
0.531211923332D-05 0.000000000000D+00 0.000000000000D+00 0.101134880377D-04 0.262460590188D-07  6 1 -2 25 -24 4 -4 4 0.58624253D-01 0.19538232D-01 0.23180878D+05 0.23180878D+05 0.23180878D+05 0.12268310D+01  1  2 11  8  6  5       21 0.147718782829D-02 0.100000000000D+01
  </mgrwgt>
  </event>
  <event>
  5     66 0.42750230E-03 0.26301569E+02 0.75467711E-02 0.11225925E+00
        1 -1    0    0  502    0 0.00000000E+00 0.00000000E+00 0.22059009E+03 0.22059032E+03 0.32000000E+00 0.0000E+00 0.9000E+01
       -2 -1    0    0    0  501 -.00000000E+00 -.00000000E+00 -.52058495E+03 0.52058505E+03 0.32000000E+00 0.0000E+00 0.9000E+01
       25  1    1    2    0    0 0.16775393E+03 0.10903197E+03 -.31383979E+03 0.39261911E+03 0.12500000E+03 0.0000E+00 0.9000E+01
      -24  1    1    2    0    0 -.14847089E+03 -.91145397E+02 -.11052301E+03 0.22143541E+03 0.80419002E+02 0.0000E+00 0.9000E+01
       21  1    1    2  502  501 -.19283043E+02 -.17886571E+02 0.12436794E+03 0.12712086E+03 0.75000000E+00 0.0000E+00 0.9000E+01
#aMCatNLO 1  0  0  5  2 0.13642831D+02 0.00000000D+00  -5  6  0 0.00000000D+00 0.00000000D+00 0.00000000D+00 0.00000000D+00 0.00000000D+00
  <mgrwgt>
 0.5447869565D+00    9    2    0
 0.338874611984983D+03 0.000000000000000D+00 0.000000000000000D+00 0.338874611984983D+03
 0.338874611984983D+03 -.000000000000000D+00 -.000000000000000D+00 -.338874611984983D+03
 0.290446027948470D+03 0.167753990133533D+03 0.109032025738228D+03 -.169424057644539D+03
 0.193236861311888D+03 -.148470844419010D+03 -.911453589341814D+02 -.228517071039462D+02
 0.194066334709608D+03 -.192831457145227D+02 -.178866668040462D+02 0.192275764748485D+03
 0.000000000000000D+00 0.000000000000000D+00 0.000000000000000D+00 0.000000000000000D+00
 0.338874611984983D+03 0.000000000000000D+00 0.000000000000000D+00 0.338874611984983D+03
 0.338874611984983D+03 -.000000000000000D+00 -.000000000000000D+00 -.338874611984983D+03
 0.285872111857358D+03 0.167068789946550D+03 0.108396447517740D+03 -.162591801543360D+03
 0.193304465277336D+03 -.148930413832086D+03 -.915716464853267D+02 -.182692566229724D+02
 0.184815942233437D+03 -.108824109426200D+02 -.284243182958037D+02 0.182292522515675D+03
 0.137567046018345D+02 -.725596517184363D+01 0.115995172633903D+02 -.143146434934221D+01
0.109194488500D-01 0.000000000000D+00 0.000000000000D+00 0.290872009877D-04 0.000000000000D+00  6 1 -2 25 -24 21 21 2 0.33936962D-01 0.80090018D-01 0.51550407D+05 0.51550407D+05 0.51550407D+05 0.11909706D+01  1  2  2  3  6  5       21 0.252684802709D+00 0.100000000000D+01
0.330800358207D-02 0.576235146984D-03 -.419335587411D-04 0.290872009877D-04 0.000000000000D+00  6 1 -2 25 -24 21 21 4 0.33936962D-01 0.80090018D-01 0.51550407D+05 0.51550407D+05 0.51550407D+05 0.11909706D+01  1  2  3  3  6  5       21 0.108579148508D+00 0.100000000000D+01
0.997857857665D-04 0.000000000000D+00 0.000000000000D+00 0.290872009877D-04 0.000000000000D+00  6 1 -2 25 -24 21 21 4 0.33936962D-01 0.80090018D-01 0.51550407D+05 0.51550407D+05 0.51550407D+05 0.11909706D+01  1  2 15  3  6  5       21 0.327528534443D-02 0.100000000000D+01
0.119895565263D-01 0.000000000000D+00 0.000000000000D+00 0.289288960741D-04 0.000000000000D+00  6 1 -2 25 -24 21 21 4 0.33936962D-01 0.80090018D-01 0.55622613D+05 0.55622613D+05 0.55622613D+05 0.11877253D+01  1  2 12  3  6  5       21 0.389053408030D+00 0.100000000000D+01
-.686803301290D-02 0.000000000000D+00 0.000000000000D+00 0.290872009877D-04 0.000000000000D+00  6 1 -2 25 -24 21 21 4 0.33936962D-01 0.80090018D-01 0.51550407D+05 0.51550407D+05 0.51550407D+05 0.11909706D+01  1  2  4  3  6  5       21 -.225430583118D+00 0.100000000000D+01
0.128083390459D-03 0.000000000000D+00 0.000000000000D+00 0.289288960741D-04 0.000000000000D+00  6 1 -2 25 -24 1 -1 4 0.33936962D-01 0.80090018D-01 0.55622613D+05 0.55622613D+05 0.55622613D+05 0.11877253D+01  1  2 12  6  6  5       21 0.415622374865D-02 0.100000000000D+01
0.128083390459D-03 0.000000000000D+00 0.000000000000D+00 0.289288960741D-04 0.000000000000D+00  6 1 -2 25 -24 2 -2 4 0.33936962D-01 0.80090018D-01 0.55622613D+05 0.55622613D+05 0.55622613D+05 0.11877253D+01  1  2 12  7  6  5       21 0.415622374865D-02 0.100000000000D+01
0.128083390459D-03 0.000000000000D+00 0.000000000000D+00 0.289288960741D-04 0.000000000000D+00  6 1 -2 25 -24 3 -3 4 0.33936962D-01 0.80090018D-01 0.55622613D+05 0.55622613D+05 0.55622613D+05 0.11877253D+01  1  2 12  8  6  5       21 0.415622374865D-02 0.100000000000D+01
0.128083390459D-03 0.000000000000D+00 0.000000000000D+00 0.289288960741D-04 0.000000000000D+00  6 1 -2 25 -24 4 -4 4 0.33936962D-01 0.80090018D-01 0.55622613D+05 0.55622613D+05 0.55622613D+05 0.11877253D+01  1  2 12  8  6  5       21 0.415622374865D-02 0.100000000000D+01
  </mgrwgt>
  </event>
  <event>
  5     66 0.42750230E-03 0.99543651E+02 0.75467711E-02 0.11518952E+00
        1 -1    0    0  502    0 0.00000000E+00 0.00000000E+00 0.15616942E+03 0.15616975E+03 0.32000000E+00 0.0000E+00 0.9000E+01
       -2 -1    0    0    0  501 -.00000000E+00 -.00000000E+00 -.50751228E+03 0.50751239E+03 0.32000000E+00 0.0000E+00 0.9000E+01
       25  1    1    2    0    0 -.31629768E+02 0.86598188E+02 0.73036069E+02 0.17163611E+03 0.12500000E+03 0.0000E+00 0.9000E+01
      -24  1    1    2    0    0 0.10954502E+03 -.17460341E+02 -.30000478E+03 0.32981064E+03 0.80419002E+02 0.0000E+00 0.9000E+01
       21  1    1    2  502  501 -.77915249E+02 -.69137847E+02 -.12437415E+03 0.16223538E+03 0.75000000E+00 0.0000E+00 0.9000E+01
#aMCatNLO 1  0  0  5  1 0.11856348D+02 0.00000000D+00  -5  6  0 0.00000000D+00 0.00000000D+00 0.00000000D+00 0.00000000D+00 0.00000000D+00
  <mgrwgt>
 0.4009536839D-01   20    2    0
 0.281528050617810D+03 0.000000000000000D+00 0.000000000000000D+00 0.281528050617810D+03
 0.281528050617810D+03 -.000000000000000D+00 -.000000000000000D+00 -.281528050617810D+03
 0.247884343696542D+03 -.316290208464737D+02 0.865988511977352D+02 0.193188746725556D+03
 0.201551685322911D+03 0.109545624464777D+03 -.174598015810117D+02 -.147820084533560D+03
 0.113620072216167D+03 -.779166036183034D+02 -.691390496167235D+02 -.453686621919963D+02
 0.000000000000000D+00 0.000000000000000D+00 -.000000000000000D+00 0.000000000000000D+00
 0.281528050617810D+03 0.000000000000000D+00 0.000000000000000D+00 0.281528050617810D+03
 0.281528050617810D+03 -.000000000000000D+00 -.000000000000000D+00 -.281528050617810D+03
 0.246257176321931D+03 -.342236720562015D+02 0.842964957253860D+02 0.191677953790884D+03
 0.201491498974152D+03 0.107429314777484D+03 -.193377022296451D+02 -.149052352559086D+03
 0.102440578136003D+03 -.756293075699311D+02 -.525269837621009D+02 -.448909329618719D+02
 0.128668478035332D+02 0.242366484864882D+01 -.124318097336401D+02 0.226533173007436D+01
0.423928665014D-03 0.000000000000D+00 0.000000000000D+00 0.743889480206D-06 0.000000000000D+00  6 1 -2 25 -24 21 21 2 0.24026098D-01 0.78078846D-01 0.39303586D+05 0.39303586D+05 0.39303586D+05 0.12027756D+01  1  2  2  3  6  5       21 0.163845988464D-01 0.100000000000D+01
-.306246317167D-04 0.223713302704D-04 -.162799769664D-05 0.743889480206D-06 0.000000000000D+00  6 1 -2 25 -24 21 21 4 0.24026098D-01 0.78078846D-01 0.39303586D+05 0.39303586D+05 0.39303586D+05 0.12027756D+01  1  2  3  3  6  5       21 -.171231297172D-02 0.100000000000D+01
0.495682943984D-05 0.000000000000D+00 0.000000000000D+00 0.743889480206D-06 0.000000000000D+00  6 1 -2 25 -24 21 21 4 0.24026098D-01 0.78078846D-01 0.39303586D+05 0.39303586D+05 0.39303586D+05 0.12027756D+01  1  2 15  3  6  5       21 0.277150870807D-03 0.100000000000D+01
0.456767184814D-03 0.000000000000D+00 0.000000000000D+00 0.744323942327D-06 0.000000000000D+00  6 1 -2 25 -24 21 21 4 0.24026098D-01 0.78078846D-01 0.38992614D+05 0.38992614D+05 0.38992614D+05 0.12031268D+01  1  2 12  3  6  5       21 0.255690921464D-01 0.100000000000D+01
0.386437539341D-03 0.000000000000D+00 0.000000000000D+00 0.744323942327D-06 0.000000000000D+00  6 1 -2 25 -24 21 21 4 0.24026098D-01 0.78078846D-01 0.38992614D+05 0.38992614D+05 0.38992614D+05 0.12031268D+01  1  2 12  3  6  5       21 0.216321517410D-01 0.100000000000D+01
-.626973091313D-03 0.000000000000D+00 0.000000000000D+00 0.743889480206D-06 0.000000000000D+00  6 1 -2 25 -24 21 21 4 0.24026098D-01 0.78078846D-01 0.39303586D+05 0.39303586D+05 0.39303586D+05 0.12027756D+01  1  2  4  3  6  5       21 -.350559042507D-01 0.100000000000D+01
-.160209804415D-02 0.000000000000D+00 0.000000000000D+00 0.743889480206D-06 0.000000000000D+00  6 1 -2 25 -24 21 21 4 0.24026098D-01 0.78078846D-01 0.39303586D+05 0.39303586D+05 0.39303586D+05 0.12027756D+01  1  2  5  3  6  5       21 -.895780000994D-01 0.100000000000D+01
0.184065988763D-02 0.000000000000D+00 -.000000000000D+00 0.743889480206D-06 0.000000000000D+00  6 1 -2 25 -24 21 21 4 0.24026098D-01 0.78078846D-01 0.39303586D+05 0.39303586D+05 0.39303586D+05 0.12027756D+01  1  2  6  3  6  5       21 0.102916692396D+00 0.100000000000D+01
0.751662562338D-05 0.000000000000D+00 0.000000000000D+00 0.744323942327D-06 0.000000000000D+00  6 1 -2 25 -24 1 -1 4 0.24026098D-01 0.78078846D-01 0.38992614D+05 0.38992614D+05 0.38992614D+05 0.12031268D+01  1  2 12  6  6  5       21 0.420768609445D-03 0.100000000000D+01
0.711867450110D-05 0.000000000000D+00 0.000000000000D+00 0.744323942327D-06 0.000000000000D+00  6 1 -2 25 -24 1 -1 4 0.24026098D-01 0.78078846D-01 0.38992614D+05 0.38992614D+05 0.38992614D+05 0.12031268D+01  1  2 12  6  6  5       21 0.398491945854D-03 0.100000000000D+01
-.161641606850D-04 0.000000000000D+00 0.000000000000D+00 0.743889480206D-06 0.000000000000D+00  6 1 -2 25 -24 1 -1 4 0.24026098D-01 0.78078846D-01 0.39303586D+05 0.39303586D+05 0.39303586D+05 0.12027756D+01  1  2  5  6  6  5       21 -.903785628308D-03 0.100000000000D+01
0.751662562338D-05 0.000000000000D+00 0.000000000000D+00 0.744323942327D-06 0.000000000000D+00  6 1 -2 25 -24 2 -2 4 0.24026098D-01 0.78078846D-01 0.38992614D+05 0.38992614D+05 0.38992614D+05 0.12031268D+01  1  2 12  7  6  5       21 0.420768609445D-03 0.100000000000D+01
0.711867450110D-05 0.000000000000D+00 0.000000000000D+00 0.744323942327D-06 0.000000000000D+00  6 1 -2 25 -24 2 -2 4 0.24026098D-01 0.78078846D-01 0.38992614D+05 0.38992614D+05 0.38992614D+05 0.12031268D+01  1  2 12  7  6  5       21 0.398491945854D-03 0.100000000000D+01
-.161641606850D-04 0.000000000000D+00 0.000000000000D+00 0.743889480206D-06 0.000000000000D+00  6 1 -2 25 -24 2 -2 4 0.24026098D-01 0.78078846D-01 0.39303586D+05 0.39303586D+05 0.39303586D+05 0.12027756D+01  1  2  5  7  6  5       21 -.903785628308D-03 0.100000000000D+01
0.751662562338D-05 0.000000000000D+00 0.000000000000D+00 0.744323942327D-06 0.000000000000D+00  6 1 -2 25 -24 3 -3 4 0.24026098D-01 0.78078846D-01 0.38992614D+05 0.38992614D+05 0.38992614D+05 0.12031268D+01  1  2 12  8  6  5       21 0.420768609445D-03 0.100000000000D+01
0.751662562338D-05 0.000000000000D+00 0.000000000000D+00 0.744323942327D-06 0.000000000000D+00  6 1 -2 25 -24 4 -4 4 0.24026098D-01 0.78078846D-01 0.38992614D+05 0.38992614D+05 0.38992614D+05 0.12031268D+01  1  2 12  8  6  5       21 0.420768609445D-03 0.100000000000D+01
0.711867450110D-05 0.000000000000D+00 0.000000000000D+00 0.744323942327D-06 0.000000000000D+00  6 1 -2 25 -24 3 -3 4 0.24026098D-01 0.78078846D-01 0.38992614D+05 0.38992614D+05 0.38992614D+05 0.12031268D+01  1  2 12  8  6  5       21 0.398491945854D-03 0.100000000000D+01
0.711867450110D-05 0.000000000000D+00 0.000000000000D+00 0.744323942327D-06 0.000000000000D+00  6 1 -2 25 -24 4 -4 4 0.24026098D-01 0.78078846D-01 0.38992614D+05 0.38992614D+05 0.38992614D+05 0.12031268D+01  1  2 12  8  6  5       21 0.398491945854D-03 0.100000000000D+01
-.161641606850D-04 0.000000000000D+00 0.000000000000D+00 0.743889480206D-06 0.000000000000D+00  6 1 -2 25 -24 3 -3 4 0.24026098D-01 0.78078846D-01 0.39303586D+05 0.39303586D+05 0.39303586D+05 0.12027756D+01  1  2  5  8  6  5       21 -.903785628308D-03 0.100000000000D+01
-.161641606850D-04 0.000000000000D+00 0.000000000000D+00 0.743889480206D-06 0.000000000000D+00  6 1 -2 25 -24 4 -4 4 0.24026098D-01 0.78078846D-01 0.39303586D+05 0.39303586D+05 0.39303586D+05 0.12027756D+01  1  2  5  8  6  5       21 -.903785628308D-03 0.100000000000D+01
  </mgrwgt>
  </event>
  <event>
  5     66 0.42750230E-03 0.62349583E+02 0.75467711E-02 0.12151857E+00
        1 -1    0    0  502    0 0.00000000E+00 0.00000000E+00 0.87722053E+02 0.87722636E+02 0.32000000E+00 0.0000E+00 0.9000E+01
       -2 -1    0    0    0  501 -.00000000E+00 -.00000000E+00 -.34279239E+03 0.34279254E+03 0.32000000E+00 0.0000E+00 0.9000E+01
       25  1    1    2    0    0 -.45805968E+02 -.29399112E+02 -.31976903E+02 0.14003577E+03 0.12500000E+03 0.0000E+00 0.9000E+01
      -24  1    1    2    0    0 0.34495421E+02 -.31914777E+02 -.48350488E+02 0.10494509E+03 0.80419002E+02 0.0000E+00 0.9000E+01
       21  1    1    2  502  501 0.11310546E+02 0.61313888E+02 -.17474295E+03 0.18553431E+03 0.75000000E+00 0.0000E+00 0.9000E+01
#aMCatNLO 1  0  0  5  1 0.32558037D+02 0.00000000D+00  -5  6  0 0.00000000D+00 0.00000000D+00 0.00000000D+00 0.00000000D+00 0.00000000D+00
  <mgrwgt>
 0.1486927419D-01   15    2    0
 0.173408794219389D+03 0.000000000000000D+00 0.000000000000000D+00 0.173408794219389D+03
 0.173408794219389D+03 -.000000000000000D+00 -.000000000000000D+00 -.173408794219389D+03
 0.150313500573867D+03 -.458061008174389D+02 -.293998332350108D+02 0.632977044483134D+02
 0.947119214761225D+02 0.344953374967942D+02 -.319152310128181D+02 0.171645517188589D+02
 0.101792166388788D+03 0.113107633206447D+02 0.613150642478289D+02 -.804622561671723D+02
 0.000000000000000D+00 0.000000000000000D+00 0.000000000000000D+00 0.000000000000000D+00
 0.173408794219389D+03 0.000000000000000D+00 0.000000000000000D+00 0.173408794219389D+03
 0.173408794219389D+03 -.000000000000000D+00 -.000000000000000D+00 -.173408794219389D+03
 0.144904616629188D+03 -.444792709785654D+02 -.222071571520471D+02 0.538589318951979D+02
 0.926758257337377D+02 0.353375339608625D+02 -.273497274442489D+02 0.111733532723962D+02
 0.720189667656151D+02 -.921547398111073D-01 0.139436869148462D+02 -.706561864008486D+02
 0.372181793102365D+02 0.923389175751401D+01 0.356131976814499D+02 0.562390123325448D+01
0.711979281987D-04 0.000000000000D+00 0.000000000000D+00 0.816018957741D-05 0.000000000000D+00  6 1 -2 25 -24 21 21 2 0.13495757D-01 0.52737347D-01 0.21291088D+05 0.21291088D+05 0.21291088D+05 0.12308463D+01  1  2  2  3  6  5       21 0.136897063880D-01 0.100000000000D+01
-.196708023050D-05 0.375721789478D-05 -.273418791128D-06 0.816018957741D-05 0.000000000000D+00  6 1 -2 25 -24 21 21 4 0.13495757D-01 0.52737347D-01 0.21291088D+05 0.21291088D+05 0.21291088D+05 0.12308463D+01  1  2  3  3  6  5       21 -.573002446681D-03 0.100000000000D+01
0.144272955701D-05 0.000000000000D+00 0.000000000000D+00 0.816018957741D-05 0.000000000000D+00  6 1 -2 25 -24 21 21 4 0.13495757D-01 0.52737347D-01 0.21291088D+05 0.21291088D+05 0.21291088D+05 0.12308463D+01  1  2 15  3  6  5       21 0.420261234518D-03 0.100000000000D+01
0.364618430407D-04 0.000000000000D+00 0.000000000000D+00 0.822517449411D-05 0.000000000000D+00  6 1 -2 25 -24 21 21 4 0.13495757D-01 0.52737347D-01 0.19218012D+05 0.19218012D+05 0.19218012D+05 0.12357376D+01  1  2 12  3  6  5       21 0.107687459972D-01 0.100000000000D+01
-.513307824887D-04 0.000000000000D+00 0.000000000000D+00 0.816018957741D-05 0.000000000000D+00  6 1 -2 25 -24 21 21 4 0.13495757D-01 0.52737347D-01 0.21291088D+05 0.21291088D+05 0.21291088D+05 0.12308463D+01  1  2  4  3  6  5       21 -.149524475413D-01 0.100000000000D+01
-.524213728425D-04 0.000000000000D+00 0.000000000000D+00 0.816018957741D-05 0.000000000000D+00  6 1 -2 25 -24 21 21 4 0.13495757D-01 0.52737347D-01 0.21291088D+05 0.21291088D+05 0.21291088D+05 0.12308463D+01  1  2  5  3  6  5       21 -.152701320624D-01 0.100000000000D+01
0.699463954373D-04 0.000000000000D+00 -.000000000000D+00 0.816018957741D-05 0.000000000000D+00  6 1 -2 25 -24 21 21 4 0.13495757D-01 0.52737347D-01 0.21291088D+05 0.21291088D+05 0.21291088D+05 0.12308463D+01  1  2  6  3  6  5       21 0.203750996531D-01 0.100000000000D+01
0.754193586513D-06 0.000000000000D+00 0.000000000000D+00 0.822517449411D-05 0.000000000000D+00  6 1 -2 25 -24 1 -1 4 0.13495757D-01 0.52737347D-01 0.19218012D+05 0.19218012D+05 0.19218012D+05 0.12357376D+01  1  2 12  6  6  5       21 0.222745711368D-03 0.100000000000D+01
-.411900617010D-06 0.000000000000D+00 0.000000000000D+00 0.816018957741D-05 0.000000000000D+00  6 1 -2 25 -24 1 -1 4 0.13495757D-01 0.52737347D-01 0.21291088D+05 0.21291088D+05 0.21291088D+05 0.12308463D+01  1  2  5  6  6  5       21 -.119984969436D-03 0.100000000000D+01
0.754193586513D-06 0.000000000000D+00 0.000000000000D+00 0.822517449411D-05 0.000000000000D+00  6 1 -2 25 -24 2 -2 4 0.13495757D-01 0.52737347D-01 0.19218012D+05 0.19218012D+05 0.19218012D+05 0.12357376D+01  1  2 12  7  6  5       21 0.222745711368D-03 0.100000000000D+01
-.411900617010D-06 0.000000000000D+00 0.000000000000D+00 0.816018957741D-05 0.000000000000D+00  6 1 -2 25 -24 2 -2 4 0.13495757D-01 0.52737347D-01 0.21291088D+05 0.21291088D+05 0.21291088D+05 0.12308463D+01  1  2  5  7  6  5       21 -.119984969436D-03 0.100000000000D+01
0.754193586513D-06 0.000000000000D+00 0.000000000000D+00 0.822517449411D-05 0.000000000000D+00  6 1 -2 25 -24 3 -3 4 0.13495757D-01 0.52737347D-01 0.19218012D+05 0.19218012D+05 0.19218012D+05 0.12357376D+01  1  2 12  8  6  5       21 0.222745711368D-03 0.100000000000D+01
0.754193586513D-06 0.000000000000D+00 0.000000000000D+00 0.822517449411D-05 0.000000000000D+00  6 1 -2 25 -24 4 -4 4 0.13495757D-01 0.52737347D-01 0.19218012D+05 0.19218012D+05 0.19218012D+05 0.12357376D+01  1  2 12  8  6  5       21 0.222745711368D-03 0.100000000000D+01
-.411900617010D-06 0.000000000000D+00 0.000000000000D+00 0.816018957741D-05 0.000000000000D+00  6 1 -2 25 -24 3 -3 4 0.13495757D-01 0.52737347D-01 0.21291088D+05 0.21291088D+05 0.21291088D+05 0.12308463D+01  1  2  5  8  6  5       21 -.119984969436D-03 0.100000000000D+01
-.411900617010D-06 0.000000000000D+00 0.000000000000D+00 0.816018957741D-05 0.000000000000D+00  6 1 -2 25 -24 4 -4 4 0.13495757D-01 0.52737347D-01 0.21291088D+05 0.21291088D+05 0.21291088D+05 0.12308463D+01  1  2  5  8  6  5       21 -.119984969436D-03 0.100000000000D+01
  </mgrwgt>
  </event>
  <event>
  5     66 0.42750230E-03 0.43095247E+02 0.75467711E-02 0.12267371E+00
        1 -1    0    0  502    0 0.00000000E+00 0.00000000E+00 0.23312451E+04 0.23312451E+04 0.32000000E+00 0.0000E+00 0.9000E+01
       -2 -1    0    0    0  501 0.00000000E+00 0.00000000E+00 -.22794774E+02 0.22797020E+02 0.32000000E+00 0.0000E+00 0.9000E+01
       25  1    1    2    0    0 0.33457334E+02 -.33618522E+02 0.18713267E+04 0.18760965E+04 0.12500000E+03 0.0000E+00 0.9000E+01
      -24  1    1    2    0    0 -.23455119E+02 -.82996395E+01 0.42487999E+03 0.43313883E+03 0.80419002E+02 0.0000E+00 0.9000E+01
       21  1    1    2  502  501 -.10002215E+02 0.41918161E+02 0.12243620E+02 0.44806755E+02 0.75000000E+00 0.0000E+00 0.9000E+01
#aMCatNLO 1  0  0  5  1 0.32558037D+02 0.00000000D+00  -5  6  0 0.00000000D+00 0.00000000D+00 0.00000000D+00 0.00000000D+00 0.00000000D+00
  <mgrwgt>
 0.7281303831D-02    1    2    0
 0.230527381033167D+03 0.000000000000000D+00 0.000000000000000D+00 0.230527381033167D+03
 0.230527381033167D+03 -.000000000000000D+00 -.000000000000000D+00 -.230527381033167D+03
 0.209402148419715D+03 0.334573792571062D+02 -.336187129386018D+02 0.161166515369633D+03
 0.841824426662757D+02 -.234551007411166D+02 -.829971621811549D+01 0.663821371373279D+00
 0.167470170980344D+03 -.100022785159896D+02 0.419184291567172D+02 -.161830336741007D+03
 0.000000000000000D+00 0.000000000000000D+00 0.000000000000000D+00 0.000000000000000D+00
 0.230527381033167D+03 0.000000000000000D+00 0.000000000000000D+00 0.230527381033167D+03
 0.230527381033167D+03 -.000000000000000D+00 -.000000000000000D+00 -.230527381033167D+03
 0.193903290768828D+03 0.322619065776775D+02 -.286086208139608D+02 0.141824547840199D+03
 0.844670200468805D+02 -.239550092607725D+02 -.620465559442500D+01 -.742437212836636D+01
 0.133300021698459D+03 -.545871260495868D+02 0.300351677016267D+02 -.117843243996384D+03
 0.493844295521675D+02 0.462802287326818D+02 0.477810870675907D+01 -.165569317154491D+02
0.494433687698D-04 0.000000000000D+00 0.000000000000D+00 0.192497858580D-04 0.000000000000D+00  6 1 -2 25 -24 21 21 4 0.35865327D+00 0.35070627D-02 0.17026472D+05 0.17026472D+05 0.17026472D+05 0.12415971D+01  1  2 14  3  6  5       21 0.728130383080D-02 0.100000000000D+01
  </mgrwgt>
  </event>
  <event>
  5     66 0.42750230E-03 0.30892218E+02 0.75467711E-02 0.12348424E+00
        1 -1    0    0  502    0 0.00000000E+00 0.00000000E+00 0.11015665E+04 0.11015666E+04 0.32000000E+00 0.0000E+00 0.9000E+01
       -2 -1    0    0    0  501 0.00000000E+00 0.00000000E+00 -.28374779E+02 0.28376583E+02 0.32000000E+00 0.0000E+00 0.9000E+01
       25  1    1    2    0    0 0.19428601E+02 0.36100298E+02 0.15154543E+03 0.20067815E+03 0.12500000E+03 0.0000E+00 0.9000E+01
      -24  1    1    2    0    0 -.34196425E+02 -.89707407E+01 0.67798240E+03 0.68364993E+03 0.80419002E+02 0.0000E+00 0.9000E+01
       21  1    1    2  502  501 0.14767823E+02 -.27129558E+02 0.24366393E+03 0.24561510E+03 0.75000000E+00 0.0000E+00 0.9000E+01
#aMCatNLO 1  0  0  5  2 0.25702898D-01 0.00000000D+00  -5  6  0 0.00000000D+00 0.00000000D+00 0.00000000D+00 0.00000000D+00 0.00000000D+00
  <mgrwgt>
 0.1450561300D+00   15    2    0
 0.176798621216271D+03 0.000000000000000D+00 0.000000000000000D+00 0.176798621216271D+03
 0.176798621216271D+03 -.000000000000000D+00 -.000000000000000D+00 -.176798621216271D+03
 0.181331327776723D+03 0.194275651027086D+02 0.361022018708948D+02 -.124800846020861D+03
 0.126924228489454D+03 -.341971499827797D+02 -.896940824909679D+01 0.916113992469760D+02
 0.453416861663660D+02 0.147695848800711D+02 -.271327936217980D+02 0.331894467738846D+02
 0.000000000000000D+00 0.000000000000000D+00 0.000000000000000D+00 0.000000000000000D+00
 0.176798621216271D+03 0.000000000000000D+00 0.000000000000000D+00 0.176798621216271D+03
 0.176798621216271D+03 -.000000000000000D+00 -.000000000000000D+00 -.176798621216271D+03
 0.181331135558599D+03 0.194276715825723D+02 0.361020062596985D+02 -.124800606744821D+03
 0.126924338970471D+03 -.341970754513252D+02 -.896954516875899D+01 0.916115667302033D+02
 0.524581772969889D+00 0.153972164993414D+00 -.302721748473788D+00 0.399797638738427D+00
 0.448171861305023D+02 0.146154317037594D+02 -.268297393424656D+02 0.327892423758797D+02
0.981144596961D-05 0.000000000000D+00 0.000000000000D+00 0.120290412882D-04 0.000000000000D+00  6 1 -2 25 -24 21 21 2 0.16947192D+00 0.43654929D-02 0.15661373D+05 0.15661373D+05 0.15661373D+05 0.12456920D+01  1  2  2  3  6  5       21 0.427021628821D-02 0.100000000000D+01
0.430248930494D-06 0.517764228585D-06 -.376785359364D-07 0.120290412882D-04 0.000000000000D+00  6 1 -2 25 -24 21 21 4 0.16947192D+00 0.43654929D-02 0.15661373D+05 0.15661373D+05 0.15661373D+05 0.12456920D+01  1  2  3  3  6  5       21 0.290574820378D-03 0.100000000000D+01
0.417517220319D-06 0.000000000000D+00 0.000000000000D+00 0.120290412882D-04 0.000000000000D+00  6 1 -2 25 -24 21 21 4 0.16947192D+00 0.43654929D-02 0.15661373D+05 0.15661373D+05 0.15661373D+05 0.12456920D+01  1  2 15  3  6  5       21 0.281976276291D-03 0.100000000000D+01
-.443105789508D-02 0.000000000000D+00 0.000000000000D+00 0.120290412882D-04 0.000000000000D+00  6 1 -2 25 -24 21 21 4 0.16947192D+00 0.43654929D-02 0.15661373D+05 0.15661373D+05 0.15661373D+05 0.12456920D+01  1  2  4  3  6  5       21 -.299257885538D+01 0.100000000000D+01
-.606036276213D-06 0.000000000000D+00 0.000000000000D+00 0.120290412882D-04 0.000000000000D+00  6 1 -2 25 -24 21 21 4 0.16947192D+00 0.43654929D-02 0.15661373D+05 0.15661373D+05 0.15661373D+05 0.12456920D+01  1  2  5  3  6  5       21 -.409295339563D-03 0.100000000000D+01
0.463770144297D-02 0.000000000000D+00 -.000000000000D+00 0.120290412882D-04 0.000000000000D+00  6 1 -2 25 -24 21 21 4 0.16947192D+00 0.43654929D-02 0.15661373D+05 0.15661373D+05 0.15661373D+05 0.12456920D+01  1  2  6  3  6  5       21 0.313213855572D+01 0.100000000000D+01
0.640820514172D-06 0.000000000000D+00 0.000000000000D+00 0.120290412882D-04 0.174706106138D+00  6 1 -2 25 -24 21 21 4 0.16947192D+00 0.43654929D-02 0.15661336D+05 0.15661336D+05 0.15661336D+05 0.12456921D+01  1  2 11  3  6  5       21 0.432787525947D-03 0.100000000000D+01
-.221040428607D-03 0.000000000000D+00 0.000000000000D+00 0.120290412882D-04 0.000000000000D+00  6 1 -2 25 -24 1 -1 4 0.16947192D+00 0.43654929D-02 0.15661373D+05 0.15661373D+05 0.15661373D+05 0.12456920D+01  1  2  5  6  6  5       21 -.149282841366D+00 0.100000000000D+01
0.220591980990D-03 0.000000000000D+00 0.000000000000D+00 0.120290412882D-04 0.309495416332D-03  6 1 -2 25 -24 1 -1 4 0.16947192D+00 0.43654929D-02 0.15661336D+05 0.15661336D+05 0.15661336D+05 0.12456921D+01  1  2 11  6  6  5       21 0.148980027301D+00 0.100000000000D+01
-.221040428607D-03 0.000000000000D+00 0.000000000000D+00 0.120290412882D-04 0.000000000000D+00  6 1 -2 25 -24 2 -2 4 0.16947192D+00 0.43654929D-02 0.15661373D+05 0.15661373D+05 0.15661373D+05 0.12456920D+01  1  2  5  7  6  5       21 -.149282841366D+00 0.100000000000D+01
0.221502155320D-03 0.000000000000D+00 0.000000000000D+00 0.120290412882D-04 0.310757676726D-03  6 1 -2 25 -24 2 -2 4 0.16947192D+00 0.43654929D-02 0.15661336D+05 0.15661336D+05 0.15661336D+05 0.12456921D+01  1  2 11  7  6  5       21 0.149594726874D+00 0.100000000000D+01
-.221040428607D-03 0.000000000000D+00 0.000000000000D+00 0.120290412882D-04 0.000000000000D+00  6 1 -2 25 -24 3 -3 4 0.16947192D+00 0.43654929D-02 0.15661373D+05 0.15661373D+05 0.15661373D+05 0.12456920D+01  1  2  5  8  6  5       21 -.149282841366D+00 0.100000000000D+01
-.221040428607D-03 0.000000000000D+00 0.000000000000D+00 0.120290412882D-04 0.000000000000D+00  6 1 -2 25 -24 4 -4 4 0.16947192D+00 0.43654929D-02 0.15661373D+05 0.15661373D+05 0.15661373D+05 0.12456920D+01  1  2  5  8  6  5       21 -.149282841366D+00 0.100000000000D+01
0.221500176825D-03 0.000000000000D+00 0.000000000000D+00 0.120290412882D-04 0.310754900036D-03  6 1 -2 25 -24 3 -3 4 0.16947192D+00 0.43654929D-02 0.15661336D+05 0.15661336D+05 0.15661336D+05 0.12456921D+01  1  2 11  8  6  5       21 0.149593390668D+00 0.100000000000D+01
0.221500176825D-03 0.000000000000D+00 0.000000000000D+00 0.120290412882D-04 0.310754900036D-03  6 1 -2 25 -24 4 -4 4 0.16947192D+00 0.43654929D-02 0.15661336D+05 0.15661336D+05 0.15661336D+05 0.12456921D+01  1  2 11  8  6  5       21 0.149593390668D+00 0.100000000000D+01
  </mgrwgt>
  </event>
</LesHouchesEvents>
