<event>
 5    0  0.2349231E+000  0.7550437E+03  0.7546771E-02  0.9627471E-01
         21   -1    0    0  503  501  0.00000000000E+00  0.00000000000E+00  0.76464737155E+02  0.76464737155E+02  0.00000000000E+00 0.  1.
         21   -1    0    0  504  502 -0.00000000000E+00 -0.00000000000E+00 -0.22284392226E+04  0.22284392226E+04  0.00000000000E+00 0. -1.
         25    1    1    2    0    0 -0.23736765789E+03  0.50749055846E+01 -0.19507923928E+04  0.19691584800E+04  0.12500000000E+03 0.  0.
         21    1    1    2  503  502  0.18620534140E+03 -0.43219638182E+02 -0.98995193771E+02  0.21526823891E+03  0.00000000000E+00 0.  1.
         21    1    1    2  504  501  0.51162316483E+02  0.38144732597E+02 -0.10218689886E+03  0.12047724081E+03  0.00000000000E+00 0.  1.
<mgrwt>
<rscale>  4 0.75504367E+03</rscale>
<asrwt>0</asrwt>
<pdfrwt beam="1">  1       21 0.11763804E-01 0.75504367E+03</pdfrwt>
<pdfrwt beam="2">  1       21 0.34283686E+00 0.75504367E+03</pdfrwt>
<totfact> 0.81848323E+02</totfact>
</mgrwt>
</event>
<event>
 5    0  0.2349231E+000  0.6326777E+03  0.7546771E-02  0.9839837E-01
         21   -1    0    0  502  501  0.00000000000E+00  0.00000000000E+00  0.29037767020E+03  0.29037767020E+03  0.00000000000E+00 0. -1.
         21   -1    0    0  504  502 -0.00000000000E+00 -0.00000000000E+00 -0.62478606266E+03  0.62478606266E+03  0.00000000000E+00 0. -1.
         25    1    1    2    0    0 -0.10275608119E+02 -0.22028894260E+03  0.10848791424E+02  0.25372327964E+03  0.12500000000E+03 0.  0.
         21    1    1    2  503  501 -0.16870277495E+02 -0.15971332047E+02  0.12890548414E+03  0.13098211157E+03  0.00000000000E+00 0. -1.
         21    1    1    2  504  503  0.27145885614E+02  0.23626027465E+03 -0.47416266803E+03  0.53045834166E+03  0.00000000000E+00 0. -1.
<mgrwt>
<rscale>  4 0.63267770E+03</rscale>
<asrwt>0</asrwt>
<pdfrwt beam="1">  1       21 0.44673488E-01 0.63267770E+03</pdfrwt>
<pdfrwt beam="2">  1       21 0.96120933E-01 0.63267770E+03</pdfrwt>
<totfact> 0.35940243E+03</totfact>
</mgrwt>
</event>
<event>
 5    0  0.2349231E+000  0.4830304E+03  0.7546771E-02  0.1018306E+00
         21   -1    0    0  503  501  0.00000000000E+00  0.00000000000E+00  0.46769279683E+03  0.46769279683E+03  0.00000000000E+00 0.  1.
         21   -1    0    0  504  502 -0.00000000000E+00 -0.00000000000E+00 -0.17765617319E+03  0.17765617319E+03  0.00000000000E+00 0.  1.
         25    1    1    2    0    0  0.20607170091E+03 -0.44205538144E+01  0.22314974333E+03  0.32849032734E+03  0.12500000000E+03 0.  0.
         21    1    1    2  503  502 -0.17227787010E+03 -0.51909850111E+02 -0.46479930228E+02  0.18583509082E+03  0.00000000000E+00 0.  1.
         21    1    1    2  504  501 -0.33793830808E+02  0.56330403925E+02  0.11336681054E+03  0.13102355185E+03  0.00000000000E+00 0.  1.
<mgrwt>
<rscale>  4 0.48303045E+03</rscale>
<asrwt>0</asrwt>
<pdfrwt beam="1">  1       21 0.71952737E-01 0.48303045E+03</pdfrwt>
<pdfrwt beam="2">  1       21 0.27331719E-01 0.48303045E+03</pdfrwt>
<totfact> 0.19955589E+04</totfact>
</mgrwt>
</event>
<event>
 5    0  0.2349231E+000  0.6650138E+03  0.7546771E-02  0.9779008E-01
         21   -1    0    0  502  501  0.00000000000E+00  0.00000000000E+00  0.14638162157E+04  0.14638162157E+04  0.00000000000E+00 0.  1.
         21   -1    0    0  504  502 -0.00000000000E+00 -0.00000000000E+00 -0.13319443197E+04  0.13319443197E+04  0.00000000000E+00 0.  1.
         25    1    1    2    0    0 -0.22504921787E+03  0.86808067426E+02 -0.23606921950E+03  0.35991174950E+03  0.12500000000E+03 0.  0.
         21    1    1    2  503  501 -0.44747043878E+02  0.33672462063E+02  0.13802058879E+04  0.13813415311E+04  0.00000000000E+00 0.  1.
         21    1    1    2  504  503  0.26979626174E+03 -0.12048052949E+03 -0.10122647724E+04  0.10545072548E+04  0.00000000000E+00 0.  1.
<mgrwt>
<rscale>  4 0.66501381E+03</rscale>
<asrwt>0</asrwt>
<pdfrwt beam="1">  1       21 0.22520250E+00 0.66501381E+03</pdfrwt>
<pdfrwt beam="2">  1       21 0.20491451E+00 0.66501381E+03</pdfrwt>
<totfact> 0.75468220E+00</totfact>
</mgrwt>
</event>
