<LesHouchesEvents version="3.0">
  <!--
  <scalesfunctionalform>
    muR  H_T/2 := sum_i mT(i)/2, i=final state
    muF1 H_T/2 := sum_i mT(i)/2, i=final state
    muF2 H_T/2 := sum_i mT(i)/2, i=final state
    QES  H_T/2 := sum_i mT(i)/2, i=final state
  </scalesfunctionalform>
HERWIG6   
  -->
  <header>
      421
  </header>
  <init>
   2212   2212 0.65000000D+04 0.65000000D+04 -1 -1   244800   244800 -4   1
 0.36423009D-03 0.15590764D-04 0.18337608D-05     66
  </init>
  <event>
  5     66 -.18337608E-05 0.39676395E+02 0.75467711E-02 0.91390373E-01
        2 -1    0    0  501    0 0.00000000E+00 0.00000000E+00 0.34013770E+04 0.34013771E+04 0.32000000E+00 0.0000E+00 0.9000E+01
        1 -1    0    0  502    0 0.00000000E+00 0.00000000E+00 -.68689652E+03 0.68689659E+03 0.32000000E+00 0.0000E+00 0.9000E+01
       25  1    1    2    0    0 0.12757559E+03 -.60933145E+03 0.42867317E+03 0.76612403E+03 0.12500000E+03 0.0000E+00 0.9000E+01
        2  1    1    2  501    0 0.30499095E+02 -.25381039E+02 0.25973446E+04 0.25976477E+04 0.32000000E+00 0.0000E+00 0.9000E+01
        1  1    1    2  502    0 -.15807469E+03 0.63471249E+03 -.31153722E+03 0.72450196E+03 0.32000000E+00 0.0000E+00 0.9000E+01
#aMCatNLO 1  0  0  5  1 0.12602273D+03 0.00000000D+00  -5  6  0 0.00000000D+00 0.00000000D+00 0.00000000D+00 0.00000000D+00 0.00000000D+00
  <mgrwgt>
 -.9370247391D-02    4    2    0
 0.152852681419050D+04 0.000000000000000D+00 0.000000000000000D+00 0.152852681419050D+04
 0.152852681419050D+04 -.000000000000000D+00 -.000000000000000D+00 -.152852681419050D+04
 0.643971385946641D+03 0.127590622906192D+03 -.609390030845086D+03 -.106951246701813D+03
 0.116754707034361D+04 0.304973942625337D+02 -.253796232592022D+02 0.116687272019460D+04
 0.124553517209076D+04 -.158088017168726D+03 0.634769654104289D+03 -.105992147349279D+04
 0.000000000000000D+00 0.000000000000000D+00 0.000000000000000D+00 -.000000000000000D+00
 0.152852681419050D+04 0.000000000000000D+00 0.000000000000000D+00 0.152852681419050D+04
 0.152852681419050D+04 -.000000000000000D+00 -.000000000000000D+00 -.152852681419050D+04
 0.641716524216622D+03 0.126799767196120D+03 -.606214513721651D+03 -.112253640675454D+03
 0.115781403780083D+04 0.290670120556082D+02 -.196362200905866D+02 0.115728253844918D+04
 0.404603997276114D+03 -.162594958191721D+03 0.233207444228040D+03 -.287891580528274D+03
 0.852919069087440D+03 0.672817893999310D+01 0.392643289584198D+03 -.757137317245449D+03
0.165436352718D-01 0.000000000000D+00 0.000000000000D+00 0.530191152972D-04 0.000000000000D+00  6 2 1 25 2 1 21 0 0.52328878D+00 0.10567639D+00 0.44146966D+06 0.44146966D+06 0.44146966D+06 0.10723528D+01  1  2  2  4  6  5        1 0.632995323313D-02 0.100000000000D+01
0.109343514449D-01 0.000000000000D+00 -.635319154831D-04 0.530191152972D-04 0.000000000000D+00  6 2 1 25 2 1 21 2 0.52328878D+00 0.10567639D+00 0.44146966D+06 0.44146966D+06 0.44146966D+06 0.10723528D+01  1  2  3  4  6  5        1 0.481102905081D-02 0.100000000000D+01
-.106805293185D-01 0.000000000000D+00 0.000000000000D+00 0.530191152972D-04 0.000000000000D+00  6 2 1 25 2 1 21 2 0.52328878D+00 0.10567639D+00 0.44146966D+06 0.44146966D+06 0.44146966D+06 0.10723528D+01  1  2 15  4  6  5        1 -.469934930194D-02 0.100000000000D+01
-.359367310355D-01 0.000000000000D+00 0.000000000000D+00 0.530191152972D-04 0.000000000000D+00  6 2 1 25 2 1 21 2 0.52328878D+00 0.10567639D+00 0.44146966D+06 0.44146966D+06 0.44146966D+06 0.10723528D+01  1  2  5  4  6  5        1 -.158118803731D-01 0.100000000000D+01
  </mgrwgt>
  </event>
  <event>
  6     66 0.18337608E-05 0.19501021E+02 0.75467711E-02 0.93290542E-01
        2 -1    0    0  501    0 0.00000000E+00 0.00000000E+00 0.62472078E+03 0.62472086E+03 0.32000000E+00 0.0000E+00 0.9000E+01
        1 -1    0    0  503    0 0.00000000E+00 0.00000000E+00 -.97128923E+03 0.97128928E+03 0.32000000E+00 0.0000E+00 0.9000E+01
       25  1    1    2    0    0 0.20666777E+03 -.51195128E+03 0.76461075E+02 0.57120660E+03 0.12500000E+03 0.0000E+00 0.9000E+01
        2  1    1    2  501    0 -.13781852E+01 0.12197140E+02 0.19023834E+03 0.19063420E+03 0.32000000E+00 0.0000E+00 0.9000E+01
        1  1    1    2  502    0 -.21545142E+03 0.47622185E+03 -.51944649E+03 0.73690659E+03 0.32000000E+00 0.0000E+00 0.9000E+01
       21  1    1    2  503  502 0.10161838E+02 0.23532287E+02 -.93821370E+02 0.97262755E+02 0.75000000E+00 0.0000E+00 0.9000E+01
#aMCatNLO 2  0  0  2  2 0.25632626D+02 0.00000000D+00  -5  6  0 0.00000000D+00 0.00000000D+00 0.00000000D+00 0.00000000D+00 0.00000000D+00
  <mgrwgt>
 0.1467412812D-01    1    2    0
 0.738529893159317D+03 0.000000000000000D+00 0.000000000000000D+00 0.738529893159317D+03
 0.738529893159317D+03 0.000000000000000D+00 0.000000000000000D+00 -.738529893159317D+03
 0.586089119211469D+03 0.210766351662675D+03 -.502657029340275D+03 0.175467693663792D+03
 0.225957702208345D+03 0.176782134097762D+00 0.157835773915437D+02 0.225405702279418D+03
 0.665012964898820D+03 -.210943133796773D+03 0.486873451948731D+03 -.400873395943210D+03
 0.000000000000000D+00 0.000000000000000D+00 0.000000000000000D+00 -.000000000000000D+00
 0.740679479549529D+03 0.000000000000000D+00 0.000000000000000D+00 0.740679479549529D+03
 0.819223302718338D+03 0.000000000000000D+00 0.000000000000000D+00 -.819223302718338D+03
 0.592735593219676D+03 0.206711632767319D+03 -.512046748674826D+03 0.175467693663792D+03
 0.225739046062975D+03 -.137688680486568D+01 0.121856669932711D+02 0.225405702279418D+03
 0.658807542247966D+03 -.215496584337624D+03 0.476328794307652D+03 -.400873395943210D+03
 0.826206007372499D+02 0.101618383751711D+02 0.235322873739029D+02 -.785438231688082D+02
0.117411762614D-02 0.000000000000D+00 0.000000000000D+00 0.287622691385D-05 0.443092301900D-07  6 2 1 25 2 1 21 2 0.96110679D-01 0.14942878D+00 0.31746005D+06 0.31746005D+06 0.31746005D+06 0.10827389D+01  1  2  1  2  6  2        1 0.146741281214D-01 0.100000000000D+01
  </mgrwgt>
  </event>
  <event>
  5     66 -.18337608E-05 0.16267301E+03 0.75467711E-02 0.95313481E-01
        2 -1    0    0  501    0 0.00000000E+00 0.00000000E+00 0.41828919E+03 0.41828931E+03 0.32000000E+00 0.0000E+00 0.9000E+01
        1 -1    0    0  502    0 0.00000000E+00 0.00000000E+00 -.16699419E+04 0.16699419E+04 0.32000000E+00 0.0000E+00 0.9000E+01
       25  1    1    2    0    0 0.20915471E+03 -.39846009E+03 -.33540672E+03 0.57501200E+03 0.12500000E+03 0.0000E+00 0.9000E+01
        2  1    1    2  501    0 -.13083674E+03 0.96706735E+02 0.25428764E+03 0.30188202E+03 0.32000000E+00 0.0000E+00 0.9000E+01
        1  1    1    2  502    0 -.78317972E+02 0.30175335E+03 -.11705336E+04 0.12113372E+04 0.32000000E+00 0.0000E+00 0.9000E+01
#aMCatNLO 1  0  0  1  4 0.25702403D+01 0.00000000D+00  -5  6  0 0.00000000D+00 0.00000000D+00 0.00000000D+00 0.00000000D+00 0.00000000D+00
  <mgrwgt>
 -.8104409469D-01   11    2    0
 0.835774364871113D+03 0.000000000000000D+00 0.000000000000000D+00 0.835774364871113D+03
 0.835774364871113D+03 0.000000000000000D+00 0.000000000000000D+00 -.835774364871113D+03
 0.467234563832447D+03 0.209153865090913D+03 -.398499565881395D+03 0.116573731847619D+02
 0.567459905865130D+03 -.130817123937089D+03 0.966922378222343D+02 0.543643482435151D+03
 0.636854260044650D+03 -.783367411538240D+02 0.301807328059160D+03 -.555300855619913D+03
 0.000000000000000D+00 0.000000000000000D+00 -.000000000000000D+00 0.000000000000000D+00
 0.111705754799832D+04 0.000000000000000D+00 0.000000000000000D+00 0.111705754799832D+04
 0.835781224344864D+03 0.000000000000000D+00 0.000000000000000D+00 -.835781224344864D+03
 0.466543461956080D+03 0.208799776721787D+03 -.397875056751900D+03 0.116573731847619D+02
 0.567689123670513D+03 -.131247572135144D+03 0.974514235309398D+02 0.543643482435151D+03
 0.637318120166742D+03 -.788199069680050D+02 0.302659492344478D+03 -.555300855619913D+03
 0.281288066549845D+03 0.126770238136125D+01 -.223585912351831D+01 0.281276323653454D+03
0.996192217653D-06 0.000000000000D+00 0.000000000000D+00 0.271417899525D-05 0.000000000000D+00  6 2 1 25 2 1 21 0 0.64352195D-01 0.25691414D+00 0.22163864D+06 0.22163864D+06 0.22163864D+06 0.10944152D+01  1  2  2  1  6  1        2 0.553178180725D-05 0.100000000000D+01
0.113323839818D-06 0.000000000000D+00 -.382564041922D-08 0.271417899525D-05 0.000000000000D+00  6 2 1 25 2 1 21 2 0.64352195D-01 0.25691414D+00 0.22163864D+06 0.22163864D+06 0.22163864D+06 0.10944152D+01  1  2  3  1  6  1        2 0.753715370628D-06 0.100000000000D+01
-.569080756914D-06 0.000000000000D+00 0.000000000000D+00 0.271417899525D-05 0.000000000000D+00  6 2 1 25 2 1 21 2 0.64352195D-01 0.25691414D+00 0.22163864D+06 0.22163864D+06 0.22163864D+06 0.10944152D+01  1  2 15  1  6  1        2 -.378494864189D-05 0.100000000000D+01
0.104213197781D-03 0.000000000000D+00 0.000000000000D+00 0.271417899525D-05 0.000000000000D+00  6 2 1 25 2 1 21 2 0.86031279D-01 0.25691414D+00 0.22334759D+06 0.22334759D+06 0.22334759D+06 0.10941615D+01  1  2 12  1  6  1        2 0.499280582867D-03 0.100000000000D+01
0.120842304916D-08 0.000000000000D+00 0.000000000000D+00 0.271417899525D-05 0.000000000000D+00  6 2 1 25 2 1 21 2 0.86010504D-01 0.25691414D+00 0.22334759D+06 0.22334759D+06 0.22334759D+06 0.10941615D+01  1  2 12  1  6  1        2 0.579110872790D-08 0.100000000000D+01
-.156296933323D-01 0.000000000000D+00 0.000000000000D+00 0.271417899525D-05 0.000000000000D+00  6 2 1 25 2 1 21 2 0.64352195D-01 0.25691414D+00 0.22163864D+06 0.22163864D+06 0.22163864D+06 0.10944152D+01  1  2  4  1  6  1        2 -.103952885127D+00 0.100000000000D+01
-.173885970976D-01 0.000000000000D+00 -.970184079711D-06 0.271417899525D-05 0.000000000000D+00  6 2 1 25 2 1 21 2 0.86010458D-01 0.25691414D+00 0.22163864D+06 0.22163864D+06 0.22163864D+06 0.10944152D+01  1  2  5  1  6  1        2 -.834045892298D-01 0.100000000000D+01
0.166820285547D-01 0.000000000000D+00 0.930744427825D-06 0.271417899525D-05 0.000000000000D+00  6 2 1 25 2 1 21 2 0.64352195D-01 0.25691414D+00 0.22163864D+06 0.22163864D+06 0.22163864D+06 0.10944152D+01  1  2  6  1  6  1        2 0.110951952873D+00 0.100000000000D+01
0.393179856757D-05 0.000000000000D+00 0.000000000000D+00 0.271417899525D-05 0.000000000000D+00  6 21 1 25 2 1 -2 2 0.86031279D-01 0.25691414D+00 0.22334759D+06 0.22334759D+06 0.22334759D+06 0.10941615D+01  1  2 12  5  6  1        2 0.309388125131D-04 0.100000000000D+01
0.455918838965D-10 0.000000000000D+00 0.000000000000D+00 0.271417899525D-05 0.000000000000D+00  6 21 1 25 2 1 -2 2 0.86010504D-01 0.25691414D+00 0.22334759D+06 0.22334759D+06 0.22334759D+06 0.10941615D+01  1  2 12  5  6  1        2 0.358970717181D-09 0.100000000000D+01
-.656015344612D-03 0.000000000000D+00 -.366030489760D-07 0.271417899525D-05 0.000000000000D+00  6 21 1 25 2 1 -2 2 0.86010458D-01 0.25691414D+00 0.22163864D+06 0.22163864D+06 0.22163864D+06 0.10944152D+01  1  2  5  5  6  1        2 -.517129930454D-02 0.100000000000D+01
  </mgrwgt>
  </event>
  <event>
  5     66 0.18337608E-05 0.15862682E+03 0.75467711E-02 0.93119949E-01
        2 -1    0    0  501    0 0.00000000E+00 0.00000000E+00 0.23406567E+04 0.23406567E+04 0.32000000E+00 0.0000E+00 0.9000E+01
        1 -1    0    0  502    0 0.00000000E+00 0.00000000E+00 -.24464029E+03 0.24464050E+03 0.32000000E+00 0.0000E+00 0.9000E+01
       25  1    1    2    0    0 -.22942340E+03 -.46373090E+03 0.57658632E+03 0.78470264E+03 0.12500000E+03 0.0000E+00 0.9000E+01
        2  1    1    2  501    0 0.25976479E+03 0.17760694E+03 0.14765250E+04 0.15096848E+04 0.32000000E+00 0.0000E+00 0.9000E+01
        1  1    1    2  502    0 -.30341397E+02 0.28612396E+03 0.42905010E+02 0.29090972E+03 0.32000000E+00 0.0000E+00 0.9000E+01
#aMCatNLO 1  0  0  1  5 0.84832347D+01 0.00000000D+00  -5  6  0 0.00000000D+00 0.00000000D+00 0.00000000D+00 0.00000000D+00 0.00000000D+00
  <mgrwgt>
 0.1261084993D-02   11    2    0
 0.756716074856089D+03 0.000000000000000D+00 0.000000000000000D+00 0.756716074856089D+03
 0.756716074856089D+03 0.000000000000000D+00 0.000000000000000D+00 -.756716074856089D+03
 0.541917183650287D+03 -.229397815286206D+03 -.463766751791026D+03 -.101716646673860D+03
 0.533919828521132D+03 0.259728895233385D+03 0.177582399332422D+03 0.431365014478713D+03
 0.437595137540760D+03 -.303310799471789D+02 0.286184352458604D+03 -.329648367804853D+03
 0.000000000000000D+00 0.000000000000000D+00 -.000000000000000D+00 0.000000000000000D+00
 0.764640400992807D+03 0.000000000000000D+00 0.000000000000000D+00 0.764640400992807D+03
 0.759001764455426D+03 0.000000000000000D+00 0.000000000000000D+00 -.759001764455426D+03
 0.539632192243754D+03 -.229997959177176D+03 -.460795578830309D+03 -.101716646673860D+03
 0.534615667406327D+03 0.259135972649861D+03 0.180517821277853D+03 0.431365014478713D+03
 0.439208065394972D+03 -.308176116743034D+02 0.288593057993920D+03 -.329648367804853D+03
 0.101862404031803D+02 0.167959820161831D+01 -.831530044146393D+01 0.563863653738142D+01
0.281087042300D-04 0.000000000000D+00 0.000000000000D+00 0.725124397158D-07 0.000000000000D+00  6 2 1 25 2 1 21 0 0.36010104D+00 0.37636985D-01 0.32188991D+06 0.32188991D+06 0.32188991D+06 0.10822962D+01  1  2  2  1  6  1        2 0.210616854066D-03 0.100000000000D+01
0.134238688550D-05 0.000000000000D+00 -.107944825435D-06 0.725124397158D-07 0.000000000000D+00  6 2 1 25 2 1 21 2 0.36010104D+00 0.37636985D-01 0.32188991D+06 0.32188991D+06 0.32188991D+06 0.10822962D+01  1  2  3  1  6  1        2 0.117820880302D-04 0.100000000000D+01
-.182362926498D-04 0.000000000000D+00 0.000000000000D+00 0.725124397158D-07 0.000000000000D+00  6 2 1 25 2 1 21 2 0.36010104D+00 0.37636985D-01 0.32188991D+06 0.32188991D+06 0.32188991D+06 0.10822962D+01  1  2 15  1  6  1        2 -.160059374585D-03 0.100000000000D+01
0.179606908994D-07 0.000000000000D+00 0.000000000000D+00 0.725124397158D-07 0.000000000000D+00  6 2 1 25 2 1 21 2 0.36494149D+00 0.37636985D-01 0.32746411D+06 0.32746411D+06 0.32746411D+06 0.10817485D+01  1  2 12  1  6  1        2 0.150984921736D-06 0.100000000000D+01
-.291001330008D-05 0.000000000000D+00 0.000000000000D+00 0.725124397158D-07 0.000000000000D+00  6 2 1 25 2 1 21 2 0.36010104D+00 0.37636985D-01 0.32188991D+06 0.32188991D+06 0.32188991D+06 0.10822962D+01  1  2  4  1  6  1        2 -.255410964164D-04 0.100000000000D+01
-.389726617591D-02 0.000000000000D+00 -.394360565859D-03 0.725124397158D-07 0.000000000000D+00  6 2 1 25 2 1 21 2 0.36427905D+00 0.37636985D-01 0.32188991D+06 0.32188991D+06 0.32188991D+06 0.10822962D+01  1  2  5  1  6  1        2 -.330117814227D-01 0.100000000000D+01
0.390158197805D-02 0.000000000000D+00 0.394334328857D-03 0.725124397158D-07 0.000000000000D+00  6 2 1 25 2 1 21 2 0.36010104D+00 0.37636985D-01 0.32188991D+06 0.32188991D+06 0.32188991D+06 0.10822962D+01  1  2  6  1  6  1        2 0.342440639275D-01 0.100000000000D+01
0.143662931578D-06 0.000000000000D+00 0.000000000000D+00 0.725124397158D-07 0.134364076831D-08  6 2 1 25 2 1 21 2 0.36387202D+00 0.37750669D-01 0.32746411D+06 0.32746411D+06 0.32746411D+06 0.10817485D+01  1  2 11  1  6  1        2 0.121390231204D-05 0.100000000000D+01
0.190306277047D-08 0.000000000000D+00 0.000000000000D+00 0.725124397158D-07 0.000000000000D+00  6 21 1 25 2 1 -2 2 0.36494149D+00 0.37636985D-01 0.32746411D+06 0.32746411D+06 0.32746411D+06 0.10817485D+01  1  2 12  5  6  1        2 0.212858130682D-08 0.100000000000D+01
-.826605164433D-05 0.000000000000D+00 -.838396400415D-06 0.725124397158D-07 0.000000000000D+00  6 21 1 25 2 1 -2 2 0.36427905D+00 0.37636985D-01 0.32188991D+06 0.32188991D+06 0.32188991D+06 0.10822962D+01  1  2  5  5  6  1        2 -.936704363697D-05 0.100000000000D+01
0.357154083309D-08 0.000000000000D+00 0.000000000000D+00 0.725124397158D-07 0.153876238039D-10  6 21 1 25 2 1 -2 2 0.36387202D+00 0.37750669D-01 0.32746411D+06 0.32746411D+06 0.32746411D+06 0.10817485D+01  1  2 11  5  6  1        2 0.404491884079D-08 0.100000000000D+01
  </mgrwgt>
  </event>
  <event>
  6     66 -.18337608E-05 0.40953986E+02 0.75467711E-02 0.93147341E-01
        2 -1    0    0  501    0 0.00000000E+00 0.00000000E+00 0.11381402E+04 0.11381402E+04 0.32000000E+00 0.0000E+00 0.9000E+01
        1 -1    0    0  503    0 0.00000000E+00 0.00000000E+00 -.12381345E+04 0.12381346E+04 0.32000000E+00 0.0000E+00 0.9000E+01
       25  1    1    2    0    0 -.46561290E+03 0.19975307E+03 0.16411458E+03 0.54704228E+03 0.12500000E+03 0.0000E+00 0.9000E+01
        2  1    1    2  501    0 -.24374501E+02 0.45617738E+02 0.70049244E+03 0.70239935E+03 0.32000000E+00 0.0000E+00 0.9000E+01
        1  1    1    2  502    0 0.49780388E+03 -.22532150E+03 -.96029683E+03 0.11048749E+04 0.32000000E+00 0.0000E+00 0.9000E+01
       21  1    1    2  503  502 -.78164721E+01 -.20049315E+02 -.43045467E+01 0.21958230E+02 0.75000000E+00 0.0000E+00 0.9000E+01
#aMCatNLO 2  0  0  2  4 0.21519114D+02 0.00000000D+00  -5  6  0 0.00000000D+00 0.00000000D+00 0.00000000D+00 0.00000000D+00 0.00000000D+00
  <mgrwgt>
 -.1495797239D-02    3    2    0
 0.117613634535691D+04 0.000000000000000D+00 0.000000000000000D+00 0.117613634535691D+04
 0.117613634535691D+04 0.000000000000000D+00 0.000000000000000D+00 -.117613634535691D+04
 0.554133948047133D+03 -.467518888875786D+03 0.195063813958134D+03 0.186589467566525D+03
 0.731087754039677D+03 -.268006134868917D+02 0.393784941334689D+02 0.729534348350566D+03
 0.106705098862702D+04 0.494319502362678D+03 -.234442308091603D+03 -.916123815917091D+03
 0.000000000000000D+00 -.000000000000000D+00 -.000000000000000D+00 -.000000000000000D+00
 0.118537231553915D+04 0.000000000000000D+00 0.000000000000000D+00 0.118537231553915D+04
 0.118878718609059D+04 0.000000000000000D+00 0.000000000000000D+00 -.118878718609059D+04
 0.554266198948141D+03 -.465677351210871D+03 0.199787373121748D+03 0.186589467566525D+03
 0.731364926681777D+03 -.243708396349076D+02 0.456108839252788D+02 0.729534348350566D+03
 0.106673999384383D+04 0.497864662902333D+03 -.225348942328516D+03 -.916123815917091D+03
 0.217883821560003D+02 -.781647205655491D+01 -.200493147185110D+02 -.341487055144244D+01
-.942610459207D-09 0.000000000000D+00 0.000000000000D+00 0.320887630480D-04 0.000000000000D+00  6 2 1 25 2 1 21 2 0.17373325D+00 0.19166385D+00 0.32583423D+06 0.32583423D+06 0.32583423D+06 0.10819076D+01  1  2 13  2  6  2        1 -.335676220628D-08 0.100000000000D+01
-.297968640406D-02 0.000000000000D+00 0.000000000000D+00 0.320887630480D-04 0.000000000000D+00  6 2 1 25 2 1 21 2 0.17373325D+00 0.18845414D+00 0.31164580D+06 0.31164580D+06 0.31164580D+06 0.10833303D+01  1  2  8  2  6  2        1 -.110347083341D-01 0.100000000000D+01
0.267761557917D-02 0.000000000000D+00 0.000000000000D+00 0.320887630480D-04 0.366802865095D-07  6 2 1 25 2 1 21 2 0.17509754D+00 0.19048121D+00 0.32583423D+06 0.32583423D+06 0.32583423D+06 0.10819076D+01  1  2  1  2  6  2        1 0.953891445194D-02 0.100000000000D+01
  </mgrwgt>
  </event>
  <event>
  5     66 0.18337608E-05 0.19205053E+02 0.75467711E-02 0.89244178E-01
        2 -1    0    0  501    0 0.00000000E+00 0.00000000E+00 0.22394239E+04 0.22394239E+04 0.32000000E+00 0.0000E+00 0.9000E+01
        1 -1    0    0  502    0 0.00000000E+00 0.00000000E+00 -.91395354E+03 0.91395360E+03 0.32000000E+00 0.0000E+00 0.9000E+01
       25  1    1    2    0    0 0.46411098E+03 0.14531304E+03 0.29584193E+03 0.58280556E+03 0.12500000E+03 0.0000E+00 0.9000E+01
        2  1    1    2  501    0 0.11547885E+02 -.15346744E+02 0.17211470E+04 0.17212542E+04 0.32000000E+00 0.0000E+00 0.9000E+01
        1  1    1    2  502    0 -.47565886E+03 -.12996629E+03 -.69151859E+03 0.84931776E+03 0.32000000E+00 0.0000E+00 0.9000E+01
#aMCatNLO 1  0  0  5  2 0.23283335D+01 0.00000000D+00  -5  6  0 0.00000000D+00 0.00000000D+00 0.00000000D+00 0.00000000D+00 0.00000000D+00
  <mgrwgt>
 0.1236858213D+00    4    2    0
 0.143063956053087D+04 0.000000000000000D+00 0.000000000000000D+00 0.143063956053087D+04
 0.143063956053087D+04 -.000000000000000D+00 -.000000000000000D+00 -.143063956053087D+04
 0.505307242900565D+03 0.464157265775549D+03 0.145325057376867D+03 0.561165755721734D+02
 0.109959747081257D+04 0.115472256413846D+02 -.153458676277614D+02 0.109942974479688D+04
 0.125637440734860D+04 -.475704491416933D+03 -.129979189749106D+03 -.115554632036906D+04
 0.000000000000000D+00 0.000000000000000D+00 0.000000000000000D+00 0.000000000000000D+00
 0.143063956053087D+04 0.000000000000000D+00 0.000000000000000D+00 0.143063956053087D+04
 0.143063956053087D+04 -.000000000000000D+00 -.000000000000000D+00 -.143063956053087D+04
 0.470774993828152D+03 0.432303917971207D+03 0.136621602998977D+03 -.212592312803259D+02
 0.939960758649332D+03 -.550114670646624D+02 -.335320422483185D+02 0.937750269759854D+03
 0.798294202319132D+03 -.397301656313867D+03 0.430677908737028D+03 -.542163781778622D+03
 0.652249166265121D+03 0.200092054073232D+02 -.533767469487686D+03 -.374327256700906D+03
0.704364847019D-01 0.000000000000D+00 0.000000000000D+00 0.238432615094D-03 0.000000000000D+00  6 2 1 25 2 1 21 0 0.34452676D+00 0.14060824D+00 0.25731725D+06 0.25731725D+06 0.25731725D+06 0.10895178D+01  1  2  2  4  6  5        1 0.931988842257D-01 0.100000000000D+01
0.622038923405D-01 0.000000000000D+00 -.270494647608D-03 0.238432615094D-03 0.000000000000D+00  6 2 1 25 2 1 21 2 0.34452676D+00 0.14060824D+00 0.25731725D+06 0.25731725D+06 0.25731725D+06 0.10895178D+01  1  2  3  4  6  5        1 0.977010590631D-01 0.100000000000D+01
-.421295501767D-01 0.000000000000D+00 0.000000000000D+00 0.238432615094D-03 0.000000000000D+00  6 2 1 25 2 1 21 2 0.34452676D+00 0.14060824D+00 0.25731725D+06 0.25731725D+06 0.25731725D+06 0.10895178D+01  1  2 15  4  6  5        1 -.661711271633D-01 0.100000000000D+01
-.664049456006D-03 0.000000000000D+00 0.000000000000D+00 0.238432615094D-03 0.000000000000D+00  6 2 1 25 2 1 21 2 0.34452676D+00 0.14060824D+00 0.25731725D+06 0.25731725D+06 0.25731725D+06 0.10895178D+01  1  2  4  4  6  5        1 -.104299478185D-02 0.100000000000D+01
  </mgrwgt>
  </event>
  <event>
  5     66 0.18337608E-05 0.45179328E+02 0.75467711E-02 0.87682271E-01
        2 -1    0    0  501    0 0.00000000E+00 0.00000000E+00 0.16194280E+04 0.16194280E+04 0.32000000E+00 0.0000E+00 0.9000E+01
        1 -1    0    0  502    0 0.00000000E+00 0.00000000E+00 -.15424053E+04 0.15424054E+04 0.32000000E+00 0.0000E+00 0.9000E+01
       25  1    1    2    0    0 0.74890858E+03 0.53341701E+03 0.10581209E+04 0.14073530E+04 0.12500000E+03 0.0000E+00 0.9000E+01
        2  1    1    2  501    0 0.40136099E+02 0.20869247E+02 0.21408277E+03 0.21881034E+03 0.32000000E+00 0.0000E+00 0.9000E+01
        1  1    1    2  502    0 -.78904468E+03 -.55428625E+03 -.11951810E+04 0.15356700E+04 0.32000000E+00 0.0000E+00 0.9000E+01
#aMCatNLO 1  0  0  4  1 0.67503928D+01 0.00000000D+00  -5  6  0 0.00000000D+00 0.00000000D+00 0.00000000D+00 0.00000000D+00 0.00000000D+00
  <mgrwgt>
 0.4278704479D-02    9    2    0
 0.158044755456549D+04 0.000000000000000D+00 0.000000000000000D+00 0.158044755456549D+04
 0.158044755456549D+04 -.000000000000000D+00 -.000000000000000D+00 -.158044755456549D+04
 0.138224676205155D+04 0.749033112657857D+03 0.533496300043472D+03 0.102435941211276D+04
 0.213383645641698D+03 0.400844817441815D+02 0.208424083362881D+02 0.208545938741049D+03
 0.156526470143773D+04 -.789117594402038D+03 -.554338708379760D+03 -.123290535085380D+04
 0.000000000000000D+00 0.000000000000000D+00 0.000000000000000D+00 0.000000000000000D+00
 0.158044755456549D+04 0.000000000000000D+00 0.000000000000000D+00 0.158044755456549D+04
 0.158044755456549D+04 -.000000000000000D+00 -.000000000000000D+00 -.158044755456549D+04
 0.138255856172832D+04 0.749100919365014D+03 0.533531556956297D+03 0.102471218737095D+04
 0.329464920596478D+02 0.614240795320249D+00 -.581396316053849D+00 0.329356345863488D+02
 0.156489728570544D+04 -.789040827341663D+03 -.554298792423522D+03 -.123250595792233D+04
 0.180492769637569D+03 0.393256671813292D+02 0.213486317832789D+02 0.174858135965032D+03
0.202263360826D-03 0.000000000000D+00 0.000000000000D+00 0.747965106199D-06 0.000000000000D+00  6 2 1 25 2 1 21 0 0.24914278D+00 0.23729313D+00 0.93857593D+06 0.93857593D+06 0.93857593D+06 0.10497015D+01  1  2  2  3  6  4        2 0.188176925722D-03 0.100000000000D+01
0.610479915905D-04 0.000000000000D+00 -.776744562737D-06 0.747965106199D-06 0.000000000000D+00  6 2 1 25 2 1 21 2 0.24914278D+00 0.23729313D+00 0.93857593D+06 0.93857593D+06 0.93857593D+06 0.10497015D+01  1  2  3  3  6  4        2 0.625823938701D-04 0.100000000000D+01
-.134084169343D-03 0.000000000000D+00 0.000000000000D+00 0.747965106199D-06 0.000000000000D+00  6 2 1 25 2 1 21 2 0.24914278D+00 0.23729313D+00 0.93857593D+06 0.93857593D+06 0.93857593D+06 0.10497015D+01  1  2 15  3  6  4        2 -.137454289305D-03 0.100000000000D+01
0.118497261173D-02 0.000000000000D+00 0.000000000000D+00 0.747965106199D-06 0.000000000000D+00  6 2 1 25 2 1 21 2 0.24914278D+00 0.23729313D+00 0.93896584D+06 0.93896584D+06 0.93896584D+06 0.10496894D+01  1  2 12  3  6  4        2 0.121469071056D-02 0.100000000000D+01
0.180903448468D-07 0.000000000000D+00 0.000000000000D+00 0.747965106199D-06 0.000000000000D+00  6 2 1 25 2 1 21 2 0.24914278D+00 0.23729313D+00 0.93896584D+06 0.93896584D+06 0.93896584D+06 0.10496894D+01  1  2 12  3  6  4        2 0.185440352110D-07 0.100000000000D+01
-.116846356465D-02 0.000000000000D+00 0.000000000000D+00 0.747965106199D-06 0.000000000000D+00  6 2 1 25 2 1 21 2 0.24914278D+00 0.23729313D+00 0.93857593D+06 0.93857593D+06 0.93857593D+06 0.10497015D+01  1  2  4  3  6  4        2 -.119783215010D-02 0.100000000000D+01
-.128158491594D-02 0.000000000000D+00 0.000000000000D+00 0.747965106199D-06 0.000000000000D+00  6 2 1 25 2 1 21 2 0.24914278D+00 0.23729313D+00 0.93857593D+06 0.93857593D+06 0.93857593D+06 0.10497015D+01  1  2  5  3  6  4        2 -.131379673431D-02 0.100000000000D+01
0.527631800057D-02 0.000000000000D+00 -.000000000000D+00 0.747965106199D-06 0.000000000000D+00  6 2 1 25 2 1 21 2 0.24914278D+00 0.23729313D+00 0.93857593D+06 0.93857593D+06 0.93857593D+06 0.10497015D+01  1  2  6  3  6  4        2 0.540893488373D-02 0.100000000000D+01
0.520781201920D-04 0.000000000000D+00 0.000000000000D+00 0.747965106199D-06 0.452005034801D-08  6 2 1 25 2 1 21 2 0.24914278D+00 0.23729313D+00 0.93896584D+06 0.93896584D+06 0.93896584D+06 0.10496894D+01  1  2 11  3  6  4        2 0.533841948700D-04 0.100000000000D+01
  </mgrwgt>
  </event>
  <event>
  6     66 -.18337608E-05 0.18067214E+02 0.75467711E-02 0.94209051E-01
        2 -1    0    0  501    0 0.00000000E+00 0.00000000E+00 0.60013632E+03 0.60013640E+03 0.32000000E+00 0.0000E+00 0.9000E+01
        1 -1    0    0  502    0 -.00000000E+00 -.00000000E+00 -.78162400E+03 0.78162407E+03 0.32000000E+00 0.0000E+00 0.9000E+01
       25  1    1    2    0    0 0.29318744E+03 0.38590610E+03 -.49844960E+03 0.70637058E+03 0.12500000E+03 0.0000E+00 0.9000E+01
        2  1    1    2  501    0 -.29737016E+03 -.39231401E+03 0.35561057E+03 0.60728764E+03 0.32000000E+00 0.0000E+00 0.9000E+01
        1  1    1    2  503    0 0.21920135E+02 0.12989075E+02 -.41754136E+02 0.48915424E+02 0.32000000E+00 0.0000E+00 0.9000E+01
       21  1    1    2  502  503 -.17737415E+02 -.65811627E+01 0.31054848E+01 0.19186821E+02 0.75000000E+00 0.0000E+00 0.9000E+01
#aMCatNLO 2  0  0  5  1 0.17627147D+02 0.00000000D+00  -5  6  0 0.00000000D+00 0.00000000D+00 0.00000000D+00 0.00000000D+00 0.00000000D+00
  <mgrwgt>
 -.1748193429D-01    2    2    0
 0.684894922529335D+03 0.000000000000000D+00 0.000000000000000D+00 0.684894922529335D+03
 0.684894922529335D+03 -.000000000000000D+00 -.000000000000000D+00 -.684894922529335D+03
 0.634972870152896D+03 0.291246683958543D+03 0.382921783585392D+03 -.395109886701334D+03
 0.673192085153754D+03 -.299586002236741D+03 -.395699797330909D+03 0.454815876118836D+03
 0.616248897520200D+02 0.833931827819862D+01 0.127780137455165D+02 -.597059894175025D+02
 0.000000000000000D+00 -.000000000000000D+00 0.000000000000000D+00 0.000000000000000D+00
 0.684894922529335D+03 0.000000000000000D+00 0.000000000000000D+00 0.684894922529335D+03
 0.684894922529335D+03 -.000000000000000D+00 -.000000000000000D+00 -.684894922529335D+03
 0.647261424617703D+03 0.293339803723742D+03 0.386128989766820D+03 -.410095738347900D+03
 0.659797330476522D+03 -.297410029792363D+03 -.392365639204720D+03 0.439236834355137D+03
 0.429159596551228D+02 0.219503497963075D+02 0.128248855984201D+02 -.345757725340636D+02
 0.198151303093223D+02 -.178801237276871D+02 -.658823616052063D+01 0.543467652682609D+01
-.100470836103D-02 0.000000000000D+00 0.000000000000D+00 0.915271995062D-06 0.000000000000D+00  6 2 1 25 2 1 21 2 0.92328676D-01 0.12024986D+00 0.25434127D+06 0.25434127D+06 0.25434127D+06 0.10898971D+01  1  2  8  4  6  5        1 -.192681427428D-01 0.100000000000D+01
0.936348497472D-04 0.000000000000D+00 0.000000000000D+00 0.915271995062D-06 0.320464287042D-08  6 2 1 25 2 1 21 2 0.92328676D-01 0.12024986D+00 0.26914866D+06 0.26914866D+06 0.26914866D+06 0.10880560D+01  1  2  1  4  6  5        1 0.178620845764D-02 0.100000000000D+01
  </mgrwgt>
  </event>
  <event>
  5     66 0.18337608E-05 0.71846338E+02 0.75467711E-02 0.88897160E-01
        2 -1    0    0  501    0 0.00000000E+00 0.00000000E+00 0.16553162E+04 0.16553162E+04 0.32000000E+00 0.0000E+00 0.9000E+01
        1 -1    0    0  502    0 0.00000000E+00 0.00000000E+00 -.14351525E+04 0.14351525E+04 0.32000000E+00 0.0000E+00 0.9000E+01
       25  1    1    2    0    0 -.57058546E+03 -.41834955E+03 -.51436540E+03 0.88361806E+03 0.12500000E+03 0.0000E+00 0.9000E+01
        2  1    1    2  501    0 0.63002128E+03 0.37798748E+03 0.13768019E+04 0.15605720E+04 0.32000000E+00 0.0000E+00 0.9000E+01
        1  1    1    2  502    0 -.59435828E+02 0.40362067E+02 -.64227281E+03 0.64627871E+03 0.32000000E+00 0.0000E+00 0.9000E+01
#aMCatNLO 1  0  0  5  1 0.21221142D+03 0.00000000D+00  -5  6  0 0.00000000D+00 0.00000000D+00 0.00000000D+00 0.00000000D+00 0.00000000D+00
  <mgrwgt>
 0.5856350573D-03    4    2    0
 0.154130830707914D+04 0.000000000000000D+00 0.000000000000000D+00 0.154130830707914D+04
 0.154130830707914D+04 -.000000000000000D+00 -.000000000000000D+00 -.154130830707914D+04
 0.922593754000240D+03 -.570583415785334D+03 -.418349809267084D+03 -.578767861613955D+03
 0.146621179158672D+04 0.630020126728560D+03 0.377986786335491D+03 0.126884894572231D+04
 0.693811068571330D+03 -.594367109432258D+02 0.403630229315926D+02 -.690081084108358D+03
 0.000000000000000D+00 0.000000000000000D+00 0.000000000000000D+00 0.000000000000000D+00
 0.154130830707914D+04 0.000000000000000D+00 0.000000000000000D+00 0.154130830707914D+04
 0.154130830707914D+04 -.000000000000000D+00 -.000000000000000D+00 -.154130830707914D+04
 0.101068768390559D+04 -.581564994318686D+03 -.410892301960023D+03 -.706267844356197D+03
 0.130680095644667D+04 0.614268639816493D+03 0.388683502512228D+03 0.108596865184164D+04
 0.547544428144240D+03 0.920647712211713D+02 -.634984608126378D+02 -.536000862094663D+03
 0.217583545661788D+03 -.124768416718978D+03 0.857072602604323D+02 0.156300054609222D+03
0.126683812749D-02 0.000000000000D+00 0.000000000000D+00 0.909530964790D-05 0.000000000000D+00  6 2 1 25 2 1 21 0 0.25466404D+00 0.22079270D+00 0.58143081D+06 0.58143081D+06 0.58143081D+06 0.10639098D+01  1  2  2  4  6  5        1 0.138165738271D-02 0.100000000000D+01
0.410116129335D-03 0.000000000000D+00 -.486499197571D-05 0.909530964790D-05 0.000000000000D+00  6 2 1 25 2 1 21 2 0.25466404D+00 0.22079270D+00 0.58143081D+06 0.58143081D+06 0.58143081D+06 0.10639098D+01  1  2  3  4  6  5        1 0.506285766743D-03 0.100000000000D+01
-.882649244310D-03 0.000000000000D+00 0.000000000000D+00 0.909530964790D-05 0.000000000000D+00  6 2 1 25 2 1 21 2 0.25466404D+00 0.22079270D+00 0.58143081D+06 0.58143081D+06 0.58143081D+06 0.10639098D+01  1  2 15  4  6  5        1 -.108962490733D-02 0.100000000000D+01
-.172283738323D-03 0.000000000000D+00 0.000000000000D+00 0.909530964790D-05 0.000000000000D+00  6 2 1 25 2 1 21 2 0.25466404D+00 0.22079270D+00 0.58143081D+06 0.58143081D+06 0.58143081D+06 0.10639098D+01  1  2  4  4  6  5        1 -.212683184871D-03 0.100000000000D+01
  </mgrwgt>
  </event>
  <event>
  5     66 0.18337608E-05 0.71104235E+02 0.75467711E-02 0.91185614E-01
        2 -1    0    0  501    0 0.00000000E+00 0.00000000E+00 0.24072455E+04 0.24072456E+04 0.32000000E+00 0.0000E+00 0.9000E+01
        1 -1    0    0  502    0 0.00000000E+00 0.00000000E+00 -.14944481E+04 0.14944481E+04 0.32000000E+00 0.0000E+00 0.9000E+01
       25  1    1    2    0    0 0.43903793E+03 0.30205092E+03 0.41765131E+03 0.68851048E+03 0.12500000E+03 0.0000E+00 0.9000E+01
        2  1    1    2  501    0 0.23795004E+02 0.67008499E+02 0.17889630E+04 0.17903757E+04 0.32000000E+00 0.0000E+00 0.9000E+01
        1  1    1    2  502    0 -.46283294E+03 -.36905942E+03 -.12938168E+04 0.14228075E+04 0.32000000E+00 0.0000E+00 0.9000E+01
#aMCatNLO 1  0  0  5  1 0.32090810D+03 0.00000000D+00  -5  6  0 0.00000000D+00 0.00000000D+00 0.00000000D+00 0.00000000D+00 0.00000000D+00
  <mgrwgt>
 0.1772551691D-01    6    2    0
 0.189670859961939D+04 0.000000000000000D+00 0.000000000000000D+00 0.189670859961939D+04
 0.189670859961939D+04 -.000000000000000D+00 -.000000000000000D+00 -.189670859961939D+04
 0.607733802059810D+03 0.439074347316738D+03 0.302081826604789D+03 0.263961477737884D+03
 0.141093267612342D+04 0.237937591412708D+02 0.670049939972877D+02 0.140913988104735D+04
 0.177475072105555D+04 -.462868106458009D+03 -.369086820602076D+03 -.167310135878524D+04
 0.000000000000000D+00 -.000000000000000D+00 0.000000000000000D+00 0.000000000000000D+00
 0.189670859961939D+04 0.000000000000000D+00 0.000000000000000D+00 0.189670859961939D+04
 0.189670859961939D+04 -.000000000000000D+00 -.000000000000000D+00 -.189670859961939D+04
 0.594638220709989D+03 0.434147204505429D+03 0.298152967714954D+03 0.246151632519529D+03
 0.136924103997555D+04 0.124010182257664D+02 0.579205259516843D+02 0.136795922928053D+04
 0.995903711200149D+03 0.629545206887076D+02 -.238718405701122D+03 -.964818352378623D+03
 0.833634227353089D+03 -.509502743419903D+03 -.117355087965517D+03 -.649292509421432D+03
0.304193084144D-01 0.000000000000D+00 0.000000000000D+00 0.148475892747D-03 0.000000000000D+00  6 2 1 25 2 1 21 0 0.37034547D+00 0.22991509D+00 0.36634412D+06 0.36634412D+06 0.36634412D+06 0.10781902D+01  1  2  2  4  6  5        1 0.119916316535D-01 0.100000000000D+01
0.120535659659D-01 0.000000000000D+00 -.116818153899D-03 0.148475892747D-03 0.000000000000D+00  6 2 1 25 2 1 21 2 0.37034547D+00 0.22991509D+00 0.36634412D+06 0.36634412D+06 0.36634412D+06 0.10781902D+01  1  2  3  4  6  5        1 0.552376548272D-02 0.100000000000D+01
-.200480396345D-01 0.000000000000D+00 0.000000000000D+00 0.148475892747D-03 0.000000000000D+00  6 2 1 25 2 1 21 2 0.37034547D+00 0.22991509D+00 0.36634412D+06 0.36634412D+06 0.36634412D+06 0.10781902D+01  1  2 15  4  6  5        1 -.918737821172D-02 0.100000000000D+01
-.621304802362D-02 0.000000000000D+00 0.000000000000D+00 0.148475892747D-03 0.000000000000D+00  6 2 1 25 2 1 21 2 0.37034547D+00 0.22991509D+00 0.36634412D+06 0.36634412D+06 0.36634412D+06 0.10781902D+01  1  2  4  4  6  5        1 -.284724207859D-02 0.100000000000D+01
-.476251934144D-01 0.000000000000D+00 0.000000000000D+00 0.148475892747D-03 0.000000000000D+00  6 2 1 25 2 1 21 2 0.37034547D+00 0.22991509D+00 0.36634412D+06 0.36634412D+06 0.36634412D+06 0.10781902D+01  1  2  5  4  6  5        1 -.218251097006D-01 0.100000000000D+01
0.743447894211D-01 0.000000000000D+00 -.000000000000D+00 0.148475892747D-03 0.000000000000D+00  6 2 1 25 2 1 21 2 0.37034547D+00 0.22991509D+00 0.36634412D+06 0.36634412D+06 0.36634412D+06 0.10781902D+01  1  2  6  4  6  5        1 0.340698497677D-01 0.100000000000D+01
  </mgrwgt>
  </event>
  <event>
  6     66 0.18337608E-05 0.89464026E+02 0.75467711E-02 0.94099627E-01
        2 -1    0    0  503    0 0.00000000E+00 0.00000000E+00 0.18636924E+04 0.18636924E+04 0.32000000E+00 0.0000E+00 0.9000E+01
        1 -1    0    0  502    0 0.00000000E+00 0.00000000E+00 -.76113460E+03 0.76113467E+03 0.32000000E+00 0.0000E+00 0.9000E+01
       25  1    1    2    0    0 0.17964988E+03 -.45246991E+03 -.10691300E+03 0.51386622E+03 0.12500000E+03 0.0000E+00 0.9000E+01
        2  1    1    2  501    0 -.11275456E+03 0.33704404E+03 0.15117870E+04 0.15530011E+04 0.32000000E+00 0.0000E+00 0.9000E+01
        1  1    1    2  502    0 -.46866404E+00 0.12287577E+03 -.41176684E+03 0.42971002E+03 0.32000000E+00 0.0000E+00 0.9000E+01
       21  1    1    2  503  501 -.66426664E+02 -.74498980E+01 0.10945061E+03 0.12824976E+03 0.75000000E+00 0.0000E+00 0.9000E+01
#aMCatNLO 2  0  0  1  5 0.66843120D+02 0.00000000D+00  -5  6  0 0.00000000D+00 0.00000000D+00 0.00000000D+00 0.00000000D+00 0.00000000D+00
  <mgrwgt>
 0.1354668058D-02    3    2    0
 0.114478912589879D+04 0.000000000000000D+00 0.000000000000000D+00 0.114478912589879D+04
 0.114478912589879D+04 0.000000000000000D+00 0.000000000000000D+00 -.114478912589879D+04
 0.602936606533471D+03 0.162109695424167D+03 -.454441880128674D+03 -.339279495007725D+03
 0.103982950587672D+04 -.142877006329789D+03 0.333661538707155D+03 0.974423696315741D+03
 0.646812139387394D+03 -.192326890943785D+02 0.120780341421519D+03 -.635144201308017D+03
 0.000000000000000D+00 -.000000000000000D+00 -.000000000000000D+00 0.000000000000000D+00
 0.122328599575872D+04 0.000000000000000D+00 0.000000000000000D+00 0.122328599575872D+04
 0.115959573413652D+04 0.000000000000000D+00 0.000000000000000D+00 -.115959573413652D+04
 0.606418049620661D+03 0.179649232614763D+03 -.452474782053051D+03 -.339279495007725D+03
 0.103721298653892D+04 -.112753201160821D+03 0.337039990403708D+03 0.974423696315741D+03
 0.646922733965521D+03 -.469367011421692D+00 0.122884689692548D+03 -.635144201308017D+03
 0.923279597701406D+02 -.664266644425195D+02 -.744989804320445D+01 0.636902616221936D+02
-.343294331045D-08 0.000000000000D+00 0.000000000000D+00 0.160545594338D-04 0.000000000000D+00  6 2 1 25 2 1 21 2 0.28976697D+00 0.11560230D+00 0.27444722D+06 0.27444722D+06 0.27444722D+06 0.10874239D+01  1  2 13  1  6  1        2 -.115257674730D-07 0.100000000000D+01
-.497500174461D-04 0.000000000000D+00 0.000000000000D+00 0.160545594338D-04 0.000000000000D+00  6 2 1 25 2 1 21 2 0.26832295D+00 0.11560230D+00 0.24190997D+06 0.24190997D+06 0.24190997D+06 0.10915355D+01  1  2  8  1  6  1        2 -.201973413473D-03 0.100000000000D+01
0.461456050507D-03 0.000000000000D+00 0.000000000000D+00 0.160545594338D-04 0.342292987089D-08  6 2 1 25 2 1 21 2 0.28672154D+00 0.11709749D+00 0.27444722D+06 0.27444722D+06 0.27444722D+06 0.10874239D+01  1  2  1  1  6  1        2 0.155665299754D-02 0.100000000000D+01
  </mgrwgt>
  </event>
  <event>
  5     66 0.18337608E-05 0.91634884E+02 0.75467711E-02 0.94227690E-01
        2 -1    0    0  501    0 0.00000000E+00 0.00000000E+00 0.21913196E+04 0.21913196E+04 0.32000000E+00 0.0000E+00 0.9000E+01
        1 -1    0    0  502    0 0.00000000E+00 0.00000000E+00 -.56774592E+03 0.56774601E+03 0.32000000E+00 0.0000E+00 0.9000E+01
       25  1    1    2    0    0 0.11241302E+03 -.43954702E+03 0.12621345E+04 0.13470140E+04 0.12500000E+03 0.0000E+00 0.9000E+01
        2  1    1    2  501    0 -.85580852E+02 -.32880585E+02 0.77693991E+03 0.78233046E+03 0.32000000E+00 0.0000E+00 0.9000E+01
        1  1    1    2  502    0 -.26832166E+02 0.47242761E+03 -.41550072E+03 0.62972117E+03 0.32000000E+00 0.0000E+00 0.9000E+01
#aMCatNLO 1  0  0  4  1 0.23705246D+01 0.00000000D+00  -5  6  0 0.00000000D+00 0.00000000D+00 0.00000000D+00 0.00000000D+00 0.00000000D+00
  <mgrwgt>
 0.1611272136D-01    9    2    0
 0.111539809671818D+04 0.000000000000000D+00 0.000000000000000D+00 0.111539809671818D+04
 0.111539809671818D+04 -.000000000000000D+00 -.000000000000000D+00 -.111539809671818D+04
 0.747597031046520D+03 0.112378795274163D+03 -.439627783234087D+03 0.580839684776257D+03
 0.401937455503566D+03 -.855387749736778D+02 -.328644183832135D+02 0.391352483213045D+03
 0.108126170688628D+04 -.268400203004847D+02 0.472492201617300D+03 -.972192167989302D+03
 0.000000000000000D+00 0.000000000000000D+00 -.000000000000000D+00 0.000000000000000D+00
 0.111539809671818D+04 0.000000000000000D+00 0.000000000000000D+00 0.111539809671818D+04
 0.111539809671818D+04 -.000000000000000D+00 -.000000000000000D+00 -.111539809671818D+04
 0.747641469679579D+03 0.112366554275892D+03 -.439632486285875D+03 0.580895689144707D+03
 0.171809906531765D+02 -.218662851729758D+01 0.436892830394727D+00 0.170356749266540D+02
 0.108118635004839D+04 -.268577235116534D+02 0.472485399956431D+03 -.972111173193038D+03
 0.384787383055221D+03 -.833222022469406D+02 -.332898065009504D+02 0.374179809121676D+03
0.195019620659D-03 0.000000000000D+00 0.000000000000D+00 0.475853249142D-05 0.000000000000D+00  6 2 1 25 2 1 21 0 0.33712610D+00 0.87345535D-01 0.26809349D+06 0.26809349D+06 0.26809349D+06 0.10881835D+01  1  2  2  3  6  4        2 0.570911966141D-03 0.100000000000D+01
0.241576312057D-04 0.000000000000D+00 -.748926693175D-06 0.475853249142D-05 0.000000000000D+00  6 2 1 25 2 1 21 2 0.33712610D+00 0.87345535D-01 0.26809349D+06 0.26809349D+06 0.26809349D+06 0.10881835D+01  1  2  3  3  6  4        2 0.837431800922D-04 0.100000000000D+01
-.124535602351D-03 0.000000000000D+00 0.000000000000D+00 0.475853249142D-05 0.000000000000D+00  6 2 1 25 2 1 21 2 0.33712610D+00 0.87345535D-01 0.26809349D+06 0.26809349D+06 0.26809349D+06 0.10881835D+01  1  2 15  3  6  4        2 -.431706539715D-03 0.100000000000D+01
0.108898633855D-04 0.000000000000D+00 0.000000000000D+00 0.475853249142D-05 0.000000000000D+00  6 2 1 25 2 1 21 2 0.33712610D+00 0.87345535D-01 0.26825760D+06 0.26825760D+06 0.26825760D+06 0.10881636D+01  1  2 12  3  6  4        2 0.377471407729D-04 0.100000000000D+01
0.357624538522D-10 0.000000000000D+00 0.000000000000D+00 0.475853249142D-05 0.000000000000D+00  6 2 1 25 2 1 21 2 0.33712610D+00 0.87345535D-01 0.26825760D+06 0.26825760D+06 0.26825760D+06 0.10881636D+01  1  2 12  3  6  4        2 0.123962104221D-09 0.100000000000D+01
-.317939881481D-02 0.000000000000D+00 0.000000000000D+00 0.475853249142D-05 0.000000000000D+00  6 2 1 25 2 1 21 2 0.33712610D+00 0.87345535D-01 0.26809349D+06 0.26809349D+06 0.26809349D+06 0.10881835D+01  1  2  4  3  6  4        2 -.110214848991D-01 0.100000000000D+01
-.302742339871D-02 0.000000000000D+00 0.000000000000D+00 0.475853249142D-05 0.000000000000D+00  6 2 1 25 2 1 21 2 0.33712610D+00 0.87345535D-01 0.26809349D+06 0.26809349D+06 0.26809349D+06 0.10881835D+01  1  2  5  3  6  4        2 -.104946573915D-01 0.100000000000D+01
0.793887876418D-02 0.000000000000D+00 -.000000000000D+00 0.475853249142D-05 0.000000000000D+00  6 2 1 25 2 1 21 2 0.33712610D+00 0.87345535D-01 0.26809349D+06 0.26809349D+06 0.26809349D+06 0.10881835D+01  1  2  6  3  6  4        2 0.275203702059D-01 0.100000000000D+01
0.284104088552D-02 0.000000000000D+00 0.000000000000D+00 0.475853249142D-05 0.107210158792D-06  6 2 1 25 2 1 21 2 0.33712610D+00 0.87345535D-01 0.26825760D+06 0.26825760D+06 0.26825760D+06 0.10881636D+01  1  2 11  3  6  4        2 0.984779757570D-02 0.100000000000D+01
  </mgrwgt>
  </event>
  <event>
  5     66 0.18337608E-05 0.95543436E+02 0.75467711E-02 0.91154114E-01
        2 -1    0    0  501    0 0.00000000E+00 0.00000000E+00 0.19632974E+04 0.19632974E+04 0.32000000E+00 0.0000E+00 0.9000E+01
        1 -1    0    0  502    0 0.00000000E+00 0.00000000E+00 -.72976584E+03 0.72976591E+03 0.32000000E+00 0.0000E+00 0.9000E+01
       25  1    1    2    0    0 -.16212139E+03 0.57403292E+03 0.36139439E+02 0.61051470E+03 0.12500000E+03 0.0000E+00 0.9000E+01
        2  1    1    2  501    0 -.81977066E+02 0.49092261E+02 0.13843900E+04 0.13876837E+04 0.32000000E+00 0.0000E+00 0.9000E+01
        1  1    1    2  502    0 0.24409846E+03 -.62312518E+03 -.18699782E+03 0.69486498E+03 0.32000000E+00 0.0000E+00 0.9000E+01
#aMCatNLO 1  0  0  1  5 0.16465648D+03 0.00000000D+00  -5  6  0 0.00000000D+00 0.00000000D+00 0.00000000D+00 0.00000000D+00 0.00000000D+00
  <mgrwgt>
 0.2740692460D-01    3    2    0
 0.119697431749155D+04 0.000000000000000D+00 0.000000000000000D+00 0.119697431749155D+04
 0.119697431749155D+04 0.000000000000000D+00 0.000000000000000D+00 -.119697431749155D+04
 0.668231492227148D+03 -.162150404391624D+03 0.574106592776185D+03 -.273892668194448D+03
 0.847652949177386D+03 -.819692480431604D+02 0.490875798025723D+02 0.842251134836567D+03
 0.878064193578569D+03 0.244119652434785D+03 -.623194172578757D+03 -.568358466642119D+03
 0.000000000000000D+00 -.000000000000000D+00 0.000000000000000D+00 -.000000000000000D+00
 0.189967647975779D+04 0.000000000000000D+00 0.000000000000000D+00 0.189967647975779D+04
 0.211738128666300D+04 0.000000000000000D+00 0.000000000000000D+00 -.211738128666300D+04
 0.540451995152939D+03 0.107850065320315D+03 0.435677092333901D+03 -.273892668194448D+03
 0.910587378631010D+03 0.310793389430893D+03 -.152282202094229D+03 0.842251134836567D+03
 0.126492204020779D+04 0.722828343129906D+03 -.868628578604070D+03 -.568358466642119D+03
 0.130109635242905D+04 -.114147179788111D+04 0.585233688364398D+03 -.217704806905216D+03
0.156965793465D-01 0.000000000000D+00 0.000000000000D+00 0.213408175181D-05 0.000000000000D+00  6 2 1 25 2 1 21 0 0.30204576D+00 0.11227167D+00 0.47222105D+06 0.47222105D+06 0.47222105D+06 0.10702693D+01  1  2  2  1  6  1        2 0.407104047864D-01 0.100000000000D+01
0.486845670268D-02 0.000000000000D+00 -.602789976947D-04 0.213408175181D-05 0.000000000000D+00  6 2 1 25 2 1 21 2 0.30204576D+00 0.11227167D+00 0.47222105D+06 0.47222105D+06 0.47222105D+06 0.10702693D+01  1  2  3  1  6  1        2 0.144636482756D-01 0.100000000000D+01
-.934640141173D-02 0.000000000000D+00 0.000000000000D+00 0.213408175181D-05 0.000000000000D+00  6 2 1 25 2 1 21 2 0.30204576D+00 0.11227167D+00 0.47222105D+06 0.47222105D+06 0.47222105D+06 0.10702693D+01  1  2 15  1  6  1        2 -.277671284594D-01 0.100000000000D+01
  </mgrwgt>
  </event>
  <event>
  5     66 0.18337608E-05 0.56397691E+02 0.75467711E-02 0.91162453E-01
        2 -1    0    0  501    0 0.00000000E+00 0.00000000E+00 0.11028897E+04 0.11028898E+04 0.32000000E+00 0.0000E+00 0.9000E+01
        1 -1    0    0  502    0 0.00000000E+00 0.00000000E+00 -.84906034E+03 0.84906040E+03 0.32000000E+00 0.0000E+00 0.9000E+01
       25  1    1    2    0    0 0.48367072E+03 -.30477180E+03 -.71806777E+02 0.58957987E+03 0.12500000E+03 0.0000E+00 0.9000E+01
        2  1    1    2  501    0 -.53996684E+03 0.30809692E+03 0.72728486E+03 0.95678172E+03 0.32000000E+00 0.0000E+00 0.9000E+01
        1  1    1    2  502    0 0.56296127E+02 -.33251156E+01 -.40164870E+03 0.40558857E+03 0.32000000E+00 0.0000E+00 0.9000E+01
#aMCatNLO 1  0  0  2  2 0.14781280D+03 0.00000000D+00  -5  6  0 0.00000000D+00 0.00000000D+00 0.00000000D+00 0.00000000D+00 0.00000000D+00
  <mgrwgt>
 0.2266805689D-01    7    2    0
 0.967687977223877D+03 0.000000000000000D+00 0.000000000000000D+00 0.967687977223877D+03
 0.967687977223877D+03 0.000000000000000D+00 0.000000000000000D+00 -.967687977223877D+03
 0.604024626587657D+03 0.483659476192248D+03 -.304767398241187D+03 -.149703351943425D+03
 0.869577616580943D+03 -.539959062685749D+03 0.308092476837964D+03 0.608020121046967D+03
 0.461773711279154D+03 0.562995864935011D+02 -.332507859677747D+01 -.458316769103542D+03
 0.000000000000000D+00 0.000000000000000D+00 -.000000000000000D+00 -.000000000000000D+00
 0.100937694610734D+04 0.000000000000000D+00 0.000000000000000D+00 0.100937694610734D+04
 0.102934610944771D+04 0.000000000000000D+00 0.000000000000000D+00 -.102934610944771D+04
 0.588401859307006D+03 0.482604392492458D+03 -.274360446857469D+03 -.149703351943425D+03
 0.887389755424421D+03 -.541513663876844D+03 0.352895256795726D+03 0.608020121046967D+03
 0.462105980847218D+03 0.554821185696836D+02 0.202339124313473D+02 -.458316769103542D+03
 0.100825459976406D+03 0.342715281470268D+01 -.987687223696042D+02 -.199691633403760D+02
0.153564288259D-02 0.000000000000D+00 0.000000000000D+00 0.331326989858D-05 0.000000000000D+00  6 2 1 25 2 1 21 0 0.16967535D+00 0.13062468D+00 0.39894977D+06 0.39894977D+06 0.39894977D+06 0.10755099D+01  1  2  2  2  6  2        1 0.958010778827D-02 0.100000000000D+01
0.547862779922D-03 0.000000000000D+00 -.589727301321D-05 0.331326989858D-05 0.000000000000D+00  6 2 1 25 2 1 21 2 0.16967535D+00 0.13062468D+00 0.39894977D+06 0.39894977D+06 0.39894977D+06 0.10755099D+01  1  2  3  2  6  2        1 0.395349159078D-02 0.100000000000D+01
-.951473976572D-03 0.000000000000D+00 0.000000000000D+00 0.331326989858D-05 0.000000000000D+00  6 2 1 25 2 1 21 2 0.16967535D+00 0.13062468D+00 0.39894977D+06 0.39894977D+06 0.39894977D+06 0.10755099D+01  1  2 15  2  6  2        1 -.686603380095D-02 0.100000000000D+01
-.129722717209D-03 0.000000000000D+00 0.000000000000D+00 0.331326989858D-05 0.000000000000D+00  6 2 1 25 2 1 21 2 0.16967535D+00 0.13062468D+00 0.39894977D+06 0.39894977D+06 0.39894977D+06 0.10755099D+01  1  2  4  2  6  2        1 -.936106065999D-03 0.100000000000D+01
-.164725497095D-01 0.000000000000D+00 -.370100745672D-02 0.331326989858D-05 0.000000000000D+00  6 2 1 25 2 1 21 2 0.16967535D+00 0.14322730D+00 0.39894977D+06 0.39894977D+06 0.39894977D+06 0.10755099D+01  1  2  5  2  6  2        1 -.101875333662D+00 0.100000000000D+01
0.167579416089D-01 0.000000000000D+00 0.368536441233D-02 0.331326989858D-05 0.000000000000D+00  6 2 1 25 2 1 21 2 0.16967535D+00 0.13062468D+00 0.39894977D+06 0.39894977D+06 0.39894977D+06 0.10755099D+01  1  2  6  2  6  2        1 0.120928786655D+00 0.100000000000D+01
-.238640768424D-03 0.000000000000D+00 -.559680428198D-04 0.331326989858D-05 0.000000000000D+00  6 2 21 25 2 1 -1 2 0.16967535D+00 0.14322730D+00 0.39894977D+06 0.39894977D+06 0.39894977D+06 0.10755099D+01  1  2  5  6  6  2        1 -.211685561453D-02 0.100000000000D+01
  </mgrwgt>
  </event>
  <event>
  6     66 0.18337608E-05 0.90140686E+02 0.75467711E-02 0.91751978E-01
        2 -1    0    0  501    0 0.00000000E+00 0.00000000E+00 0.12451067E+04 0.12451067E+04 0.32000000E+00 0.0000E+00 0.9000E+01
        1 -1    0    0  503    0 0.00000000E+00 0.00000000E+00 -.22563628E+04 0.22563628E+04 0.32000000E+00 0.0000E+00 0.9000E+01
       25  1    1    2    0    0 -.21404765E+03 -.58909084E+03 -.64829241E+03 0.91035843E+03 0.12500000E+03 0.0000E+00 0.9000E+01
        2  1    1    2  501    0 -.34631201E+02 0.47067348E+02 0.10343632E+04 0.10360125E+04 0.32000000E+00 0.0000E+00 0.9000E+01
        1  1    1    2  502    0 0.17300083E+03 0.44972515E+03 -.71371861E+03 0.86114828E+03 0.32000000E+00 0.0000E+00 0.9000E+01
       21  1    1    2  503  502 0.75678020E+02 0.92298345E+02 -.68360829E+03 0.69395029E+03 0.75000000E+00 0.0000E+00 0.9000E+01
#aMCatNLO 2  0  0  2  5 0.11935723D+03 0.00000000D+00  -5  6  0 0.00000000D+00 0.00000000D+00 0.00000000D+00 0.00000000D+00 0.00000000D+00
  <mgrwgt>
 0.1604235323D-01    1    2    0
 0.139288954054477D+04 0.000000000000000D+00 0.000000000000000D+00 0.139288954054477D+04
 0.139288954054477D+04 0.000000000000000D+00 0.000000000000000D+00 -.139288954054477D+04
 0.815891806532351D+03 -.191577567250523D+03 -.561708619531136D+03 -.545743440123122D+03
 0.116633279494380D+04 -.298305538399615D+01 0.856630059860070D+02 0.116317889395717D+04
 0.803554479613390D+03 0.194560622634519D+03 0.476045613545129D+03 -.617435453834047D+03
 0.000000000000000D+00 0.000000000000000D+00 0.000000000000000D+00 -.000000000000000D+00
 0.139998140249878D+04 0.000000000000000D+00 0.000000000000000D+00 0.139998140249878D+04
 0.200674922545736D+04 0.000000000000000D+00 0.000000000000000D+00 -.200674922545736D+04
 0.840455210796132D+03 -.214065278242169D+03 -.589135057154176D+03 -.545743440123122D+03
 0.116464568168820D+04 -.346300289721710D+02 0.470657584761774D+02 0.116317889395717D+04
 0.783233957534397D+03 0.173017286965030D+03 0.449770953925439D+03 -.617435453834047D+03
 0.618395777937408D+03 0.756780202493095D+02 0.922983447525591D+02 -.606767822958580D+03
0.261462494620D-01 0.000000000000D+00 0.000000000000D+00 0.115963841437D-04 0.201243746282D-07  6 2 1 25 2 1 21 2 0.19155485D+00 0.34713269D+00 0.42175570D+06 0.42175570D+06 0.42175570D+06 0.10737734D+01  1  2  1  2  6  2        1 0.160423532257D-01 0.100000000000D+01
  </mgrwgt>
  </event>
  <event>
  5     66 0.18337608E-05 0.10485836E+02 0.75467711E-02 0.94405054E-01
        2 -1    0    0  501    0 0.00000000E+00 0.00000000E+00 0.10727664E+04 0.10727665E+04 0.32000000E+00 0.0000E+00 0.9000E+01
        1 -1    0    0  502    0 0.00000000E+00 0.00000000E+00 -.10645212E+04 0.10645212E+04 0.32000000E+00 0.0000E+00 0.9000E+01
       25  1    1    2    0    0 0.25435843E+03 -.42204611E+03 -.59637720E+03 0.78365292E+03 0.12500000E+03 0.0000E+00 0.9000E+01
        2  1    1    2  501    0 -.25268025E+03 0.43239957E+03 0.91499331E+03 0.10430866E+04 0.32000000E+00 0.0000E+00 0.9000E+01
        1  1    1    2  502    0 -.16781840E+01 -.10353467E+02 -.31037086E+03 0.31054820E+03 0.32000000E+00 0.0000E+00 0.9000E+01
#aMCatNLO 1  0  0  2  1 0.52170611D+03 0.00000000D+00  -5  6  0 0.00000000D+00 0.00000000D+00 0.00000000D+00 0.00000000D+00 0.00000000D+00
  <mgrwgt>
 0.1783758982D-01    5    2    0
 0.106863588425290D+04 0.000000000000000D+00 0.000000000000000D+00 0.106863588425290D+04
 0.106863588425290D+04 0.000000000000000D+00 0.000000000000000D+00 -.106863588425290D+04
 0.786042648303614D+03 0.254360828652718D+03 -.422053310615237D+03 -.599507812124229D+03
 0.103957505659314D+04 -.252682846923375D+03 0.432404017920686D+03 0.910985423839139D+03
 0.311654063609046D+03 -.167798172934280D+01 -.103507073054489D+02 -.311477611714910D+03
 0.000000000000000D+00 -.000000000000000D+00 -.000000000000000D+00 -.000000000000000D+00
 0.177805655118055D+04 0.000000000000000D+00 0.000000000000000D+00 0.177805655118055D+04
 0.244998986858604D+04 0.000000000000000D+00 0.000000000000000D+00 -.244998986858604D+04
 0.707723423591361D+03 0.353041281022963D+03 0.346364171871502D+02 -.599507812124229D+03
 0.152111346379181D+04 -.835198793575623D+02 0.121528439347893D+04 0.910985423839139D+03
 0.371987532885082D+03 0.434844190444112D+02 0.198659324781586D+03 -.311477611714910D+03
 0.162722199949834D+04 -.313005820709812D+03 -.144858013544767D+04 -.671933317405497D+03
0.365083663424D-02 0.000000000000D+00 0.000000000000D+00 0.344348431796D-04 0.000000000000D+00  6 2 1 25 2 1 21 0 0.16504099D+00 0.16377249D+00 0.25994201D+06 0.25994201D+06 0.25994201D+06 0.10891873D+01  1  2  2  2  6  2        1 0.164358517980D-01 0.100000000000D+01
0.275766727500D-02 0.000000000000D+00 -.140201739628D-04 0.344348431796D-04 0.000000000000D+00  6 2 1 25 2 1 21 2 0.16504099D+00 0.16377249D+00 0.25994201D+06 0.25994201D+06 0.25994201D+06 0.10891873D+01  1  2  3  2  6  2        1 0.147281023468D-01 0.100000000000D+01
-.261115217833D-02 0.000000000000D+00 0.000000000000D+00 0.344348431796D-04 0.000000000000D+00  6 2 1 25 2 1 21 2 0.16504099D+00 0.16377249D+00 0.25994201D+06 0.25994201D+06 0.25994201D+06 0.10891873D+01  1  2 15  2  6  2        1 -.139455970175D-01 0.100000000000D+01
0.243313831503D-02 0.000000000000D+00 -.182425842938D-02 0.344348431796D-04 0.000000000000D+00  6 2 1 25 2 1 21 2 0.16504099D+00 0.46236793D+00 0.25994201D+06 0.25994201D+06 0.25994201D+06 0.10891873D+01  1  2  5  2  6  2        1 0.598259934691D-03 0.100000000000D+01
0.384703631137D-03 0.000000000000D+00 -.212957564964D-03 0.344348431796D-04 0.000000000000D+00  6 2 21 25 2 1 -1 2 0.16504099D+00 0.46236793D+00 0.25994201D+06 0.25994201D+06 0.25994201D+06 0.10891873D+01  1  2  5  6  6  2        1 0.209727530667D-04 0.100000000000D+01
  </mgrwgt>
  </event>
  <event>
  5     66 0.18337608E-05 0.48927155E+02 0.75467711E-02 0.91336654E-01
        2 -1    0    0  501    0 0.00000000E+00 0.00000000E+00 0.27239182E+04 0.27239182E+04 0.32000000E+00 0.0000E+00 0.9000E+01
        1 -1    0    0  502    0 0.00000000E+00 0.00000000E+00 -.41087600E+03 0.41087613E+03 0.32000000E+00 0.0000E+00 0.9000E+01
       25  1    1    2    0    0 -.36149882E+03 0.27593976E+03 -.21837860E+02 0.47215044E+03 0.12500000E+03 0.0000E+00 0.9000E+01
        2  1    1    2  501    0 -.35656303E+02 -.33507808E+02 0.21676518E+04 0.21682040E+04 0.32000000E+00 0.0000E+00 0.9000E+01
        1  1    1    2  502    0 0.39715512E+03 -.24243195E+03 0.16722826E+03 0.49443992E+03 0.32000000E+00 0.0000E+00 0.9000E+01
#aMCatNLO 1  0  0  1  4 0.33955507D+02 0.00000000D+00  -5  6  0 0.00000000D+00 0.00000000D+00 0.00000000D+00 0.00000000D+00 0.00000000D+00
  <mgrwgt>
 0.3424253673D-02    7    2    0
 0.105791911342426D+04 0.000000000000000D+00 0.000000000000000D+00 0.105791911342426D+04
 0.105791911342426D+04 0.000000000000000D+00 0.000000000000000D+00 -.105791911342426D+04
 0.723424097406339D+03 -.361544151664050D+03 0.275969884761701D+03 -.548492364404749D+03
 0.842644588953950D+03 -.356542277147011D+02 -.335058576125640D+02 0.841222941226097D+03
 0.549769540488233D+03 0.397198379378751D+03 -.242464027149137D+03 -.292730576821348D+03
 0.000000000000000D+00 0.000000000000000D+00 -.000000000000000D+00 0.000000000000000D+00
 0.126388709598346D+04 0.000000000000000D+00 0.000000000000000D+00 0.126388709598346D+04
 0.115281017491088D+04 0.000000000000000D+00 0.000000000000000D+00 -.115281017491088D+04
 0.785058355907026D+03 -.440456001500921D+03 0.325340220555267D+03 -.548492364404749D+03
 0.850629180709391D+03 -.124232895070687D+03 0.219124168361024D+02 0.841222941226097D+03
 0.496325260984252D+03 0.342474987861926D+03 -.208226935754960D+03 -.292730576821348D+03
 0.284684473293669D+03 0.222213908709682D+03 -.139025701636409D+03 0.111076921072576D+03
0.685422428093D-03 0.000000000000D+00 0.000000000000D+00 0.611225147894D-05 0.000000000000D+00  6 2 1 25 2 1 21 0 0.41906435D+00 0.63211704D-01 0.24303902D+06 0.24303902D+06 0.24303902D+06 0.10913829D+01  1  2  2  1  6  1        2 0.156546794796D-02 0.100000000000D+01
0.308275769676D-03 0.000000000000D+00 -.263220259975D-05 0.611225147894D-05 0.000000000000D+00  6 2 1 25 2 1 21 2 0.41906435D+00 0.63211704D-01 0.24303902D+06 0.24303902D+06 0.24303902D+06 0.10913829D+01  1  2  3  1  6  1        2 0.838647716746D-03 0.100000000000D+01
-.481212277658D-03 0.000000000000D+00 0.000000000000D+00 0.611225147894D-05 0.000000000000D+00  6 2 1 25 2 1 21 2 0.41906435D+00 0.63211704D-01 0.24303902D+06 0.24303902D+06 0.24303902D+06 0.10913829D+01  1  2 15  1  6  1        2 -.130911222232D-02 0.100000000000D+01
-.577574626181D-04 0.000000000000D+00 0.000000000000D+00 0.611225147894D-05 0.000000000000D+00  6 2 1 25 2 1 21 2 0.41906435D+00 0.63211704D-01 0.24303902D+06 0.24303902D+06 0.24303902D+06 0.10913829D+01  1  2  4  1  6  1        2 -.157126082924D-03 0.100000000000D+01
-.138737354298D-02 0.000000000000D+00 -.557318297484D-03 0.611225147894D-05 0.000000000000D+00  6 2 1 25 2 1 21 2 0.51314979D+00 0.63211704D-01 0.24303902D+06 0.24303902D+06 0.24303902D+06 0.10913829D+01  1  2  5  1  6  1        2 -.154098179720D-02 0.100000000000D+01
0.148101173416D-02 0.000000000000D+00 0.546078841421D-03 0.611225147894D-05 0.000000000000D+00  6 2 1 25 2 1 21 2 0.41906435D+00 0.63211704D-01 0.24303902D+06 0.24303902D+06 0.24303902D+06 0.10913829D+01  1  2  6  1  6  1        2 0.402901308344D-02 0.100000000000D+01
-.335291367129D-04 0.000000000000D+00 -.161038117959D-04 0.611225147894D-05 0.000000000000D+00  6 21 1 25 2 1 -2 2 0.51314979D+00 0.63211704D-01 0.24303902D+06 0.24303902D+06 0.24303902D+06 0.10913829D+01  1  2  5  5  6  1        2 -.165497313541D-05 0.100000000000D+01
  </mgrwgt>
  </event>
  <event>
  5     66 0.18337608E-05 0.16944448E+03 0.75467711E-02 0.91514442E-01
        2 -1    0    0  501    0 0.00000000E+00 0.00000000E+00 0.14161554E+04 0.14161554E+04 0.32000000E+00 0.0000E+00 0.9000E+01
        1 -1    0    0  502    0 0.00000000E+00 0.00000000E+00 -.63899115E+03 0.63899123E+03 0.32000000E+00 0.0000E+00 0.9000E+01
       25  1    1    2    0    0 -.36912311E+03 -.37554492E+03 0.19244507E+03 0.57440923E+03 0.12500000E+03 0.0000E+00 0.9000E+01
        2  1    1    2  501    0 0.76007699E+02 0.15146525E+03 0.94795510E+03 0.96298384E+03 0.32000000E+00 0.0000E+00 0.9000E+01
        1  1    1    2  502    0 0.29311541E+03 0.22407966E+03 -.36323593E+03 0.51775359E+03 0.32000000E+00 0.0000E+00 0.9000E+01
#aMCatNLO 1  0  0  1  5 0.77540136D+01 0.00000000D+00  -5  6  0 0.00000000D+00 0.00000000D+00 0.00000000D+00 0.00000000D+00 0.00000000D+00
  <mgrwgt>
 0.3763247131D-02    7    2    0
 0.951268039046751D+03 0.000000000000000D+00 0.000000000000000D+00 0.951268039046751D+03
 0.951268039046751D+03 0.000000000000000D+00 0.000000000000000D+00 -.951268039046751D+03
 0.541907031736983D+03 -.369159613268025D+03 -.375564961999857D+03 -.266527727607323D+02
 0.652915160686547D+03 0.759978242770662D+02 0.151445575286556D+03 0.630544824327039D+03
 0.707713885669971D+03 0.293161788990959D+03 0.224119386713301D+03 -.603892051566307D+03
 0.000000000000000D+00 0.000000000000000D+00 -.000000000000000D+00 0.000000000000000D+00
 0.145180409975193D+04 0.000000000000000D+00 0.000000000000000D+00 0.145180409975193D+04
 0.983124266845534D+03 0.000000000000000D+00 0.000000000000000D+00 -.983124266845534D+03
 0.555550040888719D+03 -.421622564343932D+03 -.338430038370813D+03 -.266527727607323D+02
 0.660403079989409D+03 0.132158236628361D+02 0.195884646102736D+03 0.630544824327039D+03
 0.699680008438782D+03 0.225882586138403D+03 0.271741718444846D+03 -.603892051566307D+03
 0.519295237280556D+03 0.182524154542692D+03 -.129196326176769D+03 0.468679832906399D+03
0.190611771564D-03 0.000000000000D+00 0.000000000000D+00 0.196190739405D-05 0.000000000000D+00  6 2 1 25 2 1 21 0 0.21787007D+00 0.98306340D-01 0.29144471D+06 0.29144471D+06 0.29144471D+06 0.10854827D+01  1  2  2  1  6  1        2 0.124236969085D-02 0.100000000000D+01
0.244542320152D-04 0.000000000000D+00 -.731999392039D-06 0.196190739405D-05 0.000000000000D+00  6 2 1 25 2 1 21 2 0.21787007D+00 0.98306340D-01 0.29144471D+06 0.29144471D+06 0.29144471D+06 0.10854827D+01  1  2  3  1  6  1        2 0.187802331435D-03 0.100000000000D+01
-.111620174428D-03 0.000000000000D+00 0.000000000000D+00 0.196190739405D-05 0.000000000000D+00  6 2 1 25 2 1 21 2 0.21787007D+00 0.98306340D-01 0.29144471D+06 0.29144471D+06 0.29144471D+06 0.10854827D+01  1  2 15  1  6  1        2 -.857214774919D-03 0.100000000000D+01
-.650787460022D-04 0.000000000000D+00 0.000000000000D+00 0.196190739405D-05 0.000000000000D+00  6 2 1 25 2 1 21 2 0.21787007D+00 0.98306340D-01 0.29144471D+06 0.29144471D+06 0.29144471D+06 0.10854827D+01  1  2  4  1  6  1        2 -.499788348229D-03 0.100000000000D+01
-.801514095965D-03 0.000000000000D+00 -.116897062041D-03 0.196190739405D-05 0.000000000000D+00  6 2 1 25 2 1 21 2 0.33577950D+00 0.98306340D-01 0.29144471D+06 0.29144471D+06 0.29144471D+06 0.10854827D+01  1  2  5  1  6  1        2 -.233979005354D-02 0.100000000000D+01
0.787403204014D-03 0.000000000000D+00 0.106753351054D-03 0.196190739405D-05 0.000000000000D+00  6 2 1 25 2 1 21 2 0.21787007D+00 0.98306340D-01 0.29144471D+06 0.29144471D+06 0.29144471D+06 0.10854827D+01  1  2  6  1  6  1        2 0.604705792442D-02 0.100000000000D+01
-.360039900568D-04 0.000000000000D+00 -.589632669521D-05 0.196190739405D-05 0.000000000000D+00  6 21 1 25 2 1 -2 2 0.33577950D+00 0.98306340D-01 0.29144471D+06 0.29144471D+06 0.29144471D+06 0.10854827D+01  1  2  5  5  6  1        2 -.171896392934D-04 0.100000000000D+01
  </mgrwgt>
  </event>
  <event>
  5     66 -.18337608E-05 0.65307791E+02 0.75467711E-02 0.94077081E-01
        2 -1    0    0  501    0 0.00000000E+00 0.00000000E+00 0.14755783E+04 0.14755783E+04 0.32000000E+00 0.0000E+00 0.9000E+01
        1 -1    0    0  502    0 0.00000000E+00 0.00000000E+00 -.57338801E+03 0.57338810E+03 0.32000000E+00 0.0000E+00 0.9000E+01
       25  1    1    2    0    0 0.43890602E+03 0.16806920E+03 0.22917741E+03 0.53761793E+03 0.12500000E+03 0.0000E+00 0.9000E+01
        2  1    1    2  501    0 0.21705171E+02 -.61606522E+02 0.95741497E+03 0.95964056E+03 0.32000000E+00 0.0000E+00 0.9000E+01
        1  1    1    2  502    0 -.46061119E+03 -.10646268E+03 -.28440211E+03 0.55170793E+03 0.32000000E+00 0.0000E+00 0.9000E+01
#aMCatNLO 1  0  0  4  2 0.50472693D+02 0.00000000D+00  -5  6  0 0.00000000D+00 0.00000000D+00 0.00000000D+00 0.00000000D+00 0.00000000D+00
  <mgrwgt>
 -.1927027806D-01    5    2    0
 0.919825542307550D+03 0.000000000000000D+00 0.000000000000000D+00 0.919825542307550D+03
 0.919825542307550D+03 -.000000000000000D+00 -.000000000000000D+00 -.919825542307550D+03
 0.486464727455187D+03 0.438978865166836D+03 0.168080692560885D+03 -.832873238494432D+01
 0.599202525654367D+03 0.217016847664242D+02 -.615966268017785D+02 0.595632906407557D+03
 0.753983831505546D+03 -.460680549933260D+03 -.106484065759106D+03 -.587304174022612D+03
 0.000000000000000D+00 0.000000000000000D+00 0.000000000000000D+00 0.000000000000000D+00
 0.919825542307550D+03 0.000000000000000D+00 0.000000000000000D+00 0.919825542307550D+03
 0.919825542307550D+03 -.000000000000000D+00 -.000000000000000D+00 -.919825542307550D+03
 0.486402159294561D+03 0.439122463518687D+03 0.167673112495855D+03 -.438747599912436D+01
 0.109290873547523D+03 0.444430500181330D+02 -.391491639086465D+02 0.918512564482399D+02
 0.749203478134540D+03 -.460458674542979D+03 -.107113822193167D+03 -.581214495502465D+03
 0.494754573638476D+03 -.231068389938410D+02 -.214101263940417D+02 0.493750715053349D+03
0.388635643692D-02 0.000000000000D+00 0.000000000000D+00 0.925966140773D-05 0.000000000000D+00  6 2 1 25 2 1 21 0 0.22701205D+00 0.88213550D-01 0.26241454D+06 0.26241454D+06 0.26241454D+06 0.10888792D+01  1  2  2  3  6  4        2 0.276574176890D-01 0.100000000000D+01
0.126969215659D-02 0.000000000000D+00 -.149246320189D-04 0.925966140773D-05 0.000000000000D+00  6 2 1 25 2 1 21 2 0.22701205D+00 0.88213550D-01 0.26241454D+06 0.26241454D+06 0.26241454D+06 0.10888792D+01  1  2  3  3  6  4        2 0.107133882849D-01 0.100000000000D+01
-.227589191733D-02 0.000000000000D+00 0.000000000000D+00 0.925966140773D-05 0.000000000000D+00  6 2 1 25 2 1 21 2 0.22701205D+00 0.88213550D-01 0.26241454D+06 0.26241454D+06 0.26241454D+06 0.10888792D+01  1  2 15  3  6  4        2 -.192034846228D-01 0.100000000000D+01
0.119617384796D-07 0.000000000000D+00 0.000000000000D+00 0.925966140773D-05 0.000000000000D+00  6 2 1 25 2 1 21 2 0.22701205D+00 0.88213550D-01 0.27555344D+06 0.27555344D+06 0.27555344D+06 0.10872936D+01  1  2 12  3  6  4        2 0.100387896013D-06 0.100000000000D+01
-.455542585173D-02 0.000000000000D+00 0.000000000000D+00 0.925966140773D-05 0.000000000000D+00  6 2 1 25 2 1 21 2 0.22701205D+00 0.88213550D-01 0.26241454D+06 0.26241454D+06 0.26241454D+06 0.10888792D+01  1  2  5  3  6  4        2 -.384376997994D-01 0.100000000000D+01
  </mgrwgt>
  </event>
  <event>
  5     66 0.18337608E-05 0.17522292E+03 0.75467711E-02 0.92922410E-01
        2 -1    0    0  501    0 0.00000000E+00 0.00000000E+00 0.67476242E+03 0.67476250E+03 0.32000000E+00 0.0000E+00 0.9000E+01
        1 -1    0    0  502    0 0.00000000E+00 0.00000000E+00 -.87238376E+03 0.87238382E+03 0.32000000E+00 0.0000E+00 0.9000E+01
       25  1    1    2    0    0 -.31242873E+03 0.36092293E+03 -.50991242E+01 0.49348564E+03 0.12500000E+03 0.0000E+00 0.9000E+01
        2  1    1    2  501    0 0.14049344E+03 0.10481764E+03 0.30438049E+03 0.35124455E+03 0.32000000E+00 0.0000E+00 0.9000E+01
        1  1    1    2  502    0 0.17193529E+03 -.46574057E+03 -.49690271E+03 0.70241614E+03 0.32000000E+00 0.0000E+00 0.9000E+01
#aMCatNLO 1  0  0  2  1 0.51395873D+03 0.00000000D+00  -5  6  0 0.00000000D+00 0.00000000D+00 0.00000000D+00 0.00000000D+00 0.00000000D+00
  <mgrwgt>
 0.3569076104D-03    1    2    0
 0.767236525172655D+03 0.000000000000000D+00 0.000000000000000D+00 0.767236525172655D+03
 0.767236525172655D+03 0.000000000000000D+00 0.000000000000000D+00 -.767236525172655D+03
 0.496999885606912D+03 -.312434510350301D+03 0.361034106463973D+03 0.585058715447606D+02
 0.393204512190557D+03 0.140442964868084D+03 0.104779982436748D+03 0.352003859789393D+03
 0.644268652547840D+03 0.171991545482217D+03 -.465814088900722D+03 -.410509731334154D+03
 0.000000000000000D+00 0.000000000000000D+00 0.000000000000000D+00 0.000000000000000D+00
 0.110645649299017D+04 0.000000000000000D+00 0.000000000000000D+00 0.110645649299017D+04
 0.794823536269724D+03 0.000000000000000D+00 0.000000000000000D+00 -.794823536269724D+03
 0.474232132589182D+03 -.331663743074411D+03 0.309592215833575D+03 0.585058715447606D+02
 0.379012884123599D+03 0.125153983708968D+03 0.638790214924567D+02 0.352003859789393D+03
 0.691071996512812D+03 0.145553397206954D+03 -.536541213147396D+03 -.410509731334154D+03
 0.356963016034303D+03 0.609563621584887D+02 0.163069975821365D+03 0.311632956720448D+03
0.262768205151D-04 0.000000000000D+00 0.000000000000D+00 0.105062552646D-06 0.000000000000D+00  6 2 1 25 2 1 21 2 0.10380961D+00 0.13421290D+00 0.33949219D+06 0.33949219D+06 0.33949219D+06 0.10806005D+01  1  2 14  2  6  2        1 0.356907610410D-03 0.100000000000D+01
  </mgrwgt>
  </event>
  <event>
  6     66 0.18337608E-05 0.41002619E+02 0.75467711E-02 0.86484815E-01
        2 -1    0    0  501    0 0.00000000E+00 0.00000000E+00 0.42212290E+04 0.42212290E+04 0.32000000E+00 0.0000E+00 0.9000E+01
        1 -1    0    0  502    0 0.00000000E+00 0.00000000E+00 -.91095753E+03 0.91095758E+03 0.32000000E+00 0.0000E+00 0.9000E+01
       25  1    1    2    0    0 0.10430767E+04 -.31489467E+03 0.93355854E+02 0.11006852E+04 0.12500000E+03 0.0000E+00 0.9000E+01
        2  1    1    2  503    0 -.18334895E+03 0.11271236E+01 0.64938987E+03 0.67477805E+03 0.32000000E+00 0.0000E+00 0.9000E+01
        1  1    1    2  502    0 -.36109645E+02 0.22337571E+02 -.32878393E+03 0.33151448E+03 0.32000000E+00 0.0000E+00 0.9000E+01
       21  1    1    2  501  503 -.82361810E+03 0.29142997E+03 0.28963096E+04 0.30252088E+04 0.75000000E+00 0.0000E+00 0.9000E+01
#aMCatNLO 2  0  0  4  2 0.12859836D+03 0.00000000D+00  -5  6  0 0.00000000D+00 0.00000000D+00 0.00000000D+00 0.00000000D+00 0.00000000D+00
  <mgrwgt>
 0.2062740213D-03    1    2    0
 0.196095906724657D+04 0.000000000000000D+00 0.000000000000000D+00 0.196095906724657D+04
 0.196095906724657D+04 -.000000000000000D+00 -.000000000000000D+00 -.196095906724657D+04
 0.136300307366643D+04 0.104400037624715D+04 -.315165802519210D+03 -.808013681902963D+03
 0.184665238152819D+04 -.100837419250598D+04 0.292965915747220D+03 0.151903833997106D+04
 0.712262679298518D+03 -.356261837411649D+02 0.221998867719903D+02 -.711024658068098D+03
 0.000000000000000D+00 0.000000000000000D+00 0.000000000000000D+00 0.000000000000000D+00
 0.196095906724657D+04 0.000000000000000D+00 0.000000000000000D+00 0.196095906724657D+04
 0.196095906724657D+04 -.000000000000000D+00 -.000000000000000D+00 -.196095906724657D+04
 0.136137826502500D+04 0.104305902690786D+04 -.314892309530921D+03 -.806595611360984D+03
 0.334493673800312D+03 -.183129356370223D+03 0.112406802036573D+01 0.279907829684959D+03
 0.711552133873536D+03 -.361181512622355D+02 0.223428195407973D+02 -.710283546750414D+03
 0.151449406179429D+04 -.823811519275400D+03 0.291425421969758D+03 0.123697132842644D+04
0.384540608036D-02 0.000000000000D+00 0.000000000000D+00 0.935687241776D-05 0.176669735201D-08  6 2 1 25 2 1 21 2 0.64941984D+00 0.14014732D+00 0.12057614D+07 0.12057614D+07 0.12057614D+07 0.10424971D+01  1  2  1  3  6  4        2 0.206274021316D-03 0.100000000000D+01
  </mgrwgt>
  </event>
  <event>
  5     66 0.18337608E-05 0.30730910E+02 0.75467711E-02 0.94290241E-01
        2 -1    0    0  501    0 0.00000000E+00 0.00000000E+00 0.19853601E+03 0.19853627E+03 0.32000000E+00 0.0000E+00 0.9000E+01
        1 -1    0    0  502    0 0.00000000E+00 0.00000000E+00 -.20045837E+04 0.20045838E+04 0.32000000E+00 0.0000E+00 0.9000E+01
       25  1    1    2    0    0 0.47674413E+03 -.65415741E+02 -.72694122E+03 0.88070014E+03 0.12500000E+03 0.0000E+00 0.9000E+01
        2  1    1    2  501    0 -.49394673E+03 0.90878119E+02 -.39852011E+03 0.64114007E+03 0.32000000E+00 0.0000E+00 0.9000E+01
        1  1    1    2  502    0 0.17202599E+02 -.25462378E+02 -.68058640E+03 0.68127984E+03 0.32000000E+00 0.0000E+00 0.9000E+01
#aMCatNLO 1  0  0  2  5 0.18347797D+03 0.00000000D+00  -5  6  0 0.00000000D+00 0.00000000D+00 0.00000000D+00 0.00000000D+00 0.00000000D+00
  <mgrwgt>
 0.3362666465D-01    7    2    0
 0.630858439001373D+03 0.000000000000000D+00 0.000000000000000D+00 0.630858439001373D+03
 0.630858439001373D+03 0.000000000000000D+00 0.000000000000000D+00 -.630858439001373D+03
 0.497245927873369D+03 0.476733555840308D+03 -.654120632206582D+02 -.865398796624316D+01
 0.549052234808610D+03 -.493937035050882D+03 0.908763349039505D+02 0.221869451948432D+03
 0.215418715320766D+03 0.172034792105733D+02 -.254642716832923D+02 -.213215463982189D+03
 0.000000000000000D+00 0.000000000000000D+00 0.000000000000000D+00 -.000000000000000D+00
 0.653737880369179D+03 0.000000000000000D+00 0.000000000000000D+00 0.653737880369179D+03
 0.904249419568428D+03 0.000000000000000D+00 0.000000000000000D+00 -.904249419568428D+03
 0.460012356635718D+03 0.432145234419254D+03 -.957181963816442D+02 -.865398796624316D+01
 0.592934757923573D+03 -.547129871210789D+03 0.547218190016889D+02 0.221869451948432D+03
 0.216799396176175D+03 -.292889299376860D+01 -.391479972290406D+02 -.213215463982189D+03
 0.288240789202142D+03 0.117913529785304D+03 0.801443746089960D+02 -.250511539199249D+03
0.110255677545D-02 0.000000000000D+00 0.000000000000D+00 0.942362412635D-06 0.000000000000D+00  6 2 1 25 2 1 21 0 0.30544023D-01 0.30839752D+00 0.26529137D+06 0.26529137D+06 0.26529137D+06 0.10885247D+01  1  2  2  2  6  2        1 0.836146052105D-02 0.100000000000D+01
0.442770909003D-03 0.000000000000D+00 -.423410832760D-05 0.942362412635D-06 0.000000000000D+00  6 2 1 25 2 1 21 2 0.30544023D-01 0.30839752D+00 0.26529137D+06 0.26529137D+06 0.26529137D+06 0.10885247D+01  1  2  3  2  6  2        1 0.397866036797D-02 0.100000000000D+01
-.717724331017D-03 0.000000000000D+00 0.000000000000D+00 0.942362412635D-06 0.000000000000D+00  6 2 1 25 2 1 21 2 0.30544023D-01 0.30839752D+00 0.26529137D+06 0.26529137D+06 0.26529137D+06 0.10885247D+01  1  2 15  2  6  2        1 -.644934274787D-02 0.100000000000D+01
-.534603927579D-04 0.000000000000D+00 0.000000000000D+00 0.942362412635D-06 0.000000000000D+00  6 2 1 25 2 1 21 2 0.30544023D-01 0.30839752D+00 0.26529137D+06 0.26529137D+06 0.26529137D+06 0.10885247D+01  1  2  4  2  6  2        1 -.480385548366D-03 0.100000000000D+01
-.415787720133D-02 0.000000000000D+00 -.641539090566D-03 0.942362412635D-06 0.000000000000D+00  6 2 1 25 2 1 21 2 0.30544023D-01 0.44603785D+00 0.26529137D+06 0.26529137D+06 0.26529137D+06 0.10885247D+01  1  2  5  2  6  2        1 -.898813962578D-02 0.100000000000D+01
0.415015801735D-02 0.000000000000D+00 0.600207666835D-03 0.942362412635D-06 0.000000000000D+00  6 2 1 25 2 1 21 2 0.30544023D-01 0.30839752D+00 0.26529137D+06 0.26529137D+06 0.26529137D+06 0.10885247D+01  1  2  6  2  6  2        1 0.372925792745D-01 0.100000000000D+01
-.167039891098D-03 0.000000000000D+00 -.287941536538D-04 0.942362412635D-06 0.000000000000D+00  6 2 21 25 2 1 -1 2 0.30544023D-01 0.44603785D+00 0.26529137D+06 0.26529137D+06 0.26529137D+06 0.10885247D+01  1  2  5  6  6  2        1 -.881675899884D-04 0.100000000000D+01
  </mgrwgt>
  </event>
  <event>
  5     66 0.18337608E-05 0.30712149E+02 0.75467711E-02 0.91437547E-01
        2 -1    0    0  501    0 0.00000000E+00 0.00000000E+00 0.14634820E+04 0.14634821E+04 0.32000000E+00 0.0000E+00 0.9000E+01
        1 -1    0    0  502    0 0.00000000E+00 0.00000000E+00 -.86223374E+03 0.86223380E+03 0.32000000E+00 0.0000E+00 0.9000E+01
       25  1    1    2    0    0 -.54356169E+03 -.33689738E+03 0.60779762E+03 0.89106796E+03 0.12500000E+03 0.0000E+00 0.9000E+01
        2  1    1    2  501    0 -.20447243E+02 0.22933754E+02 0.56899141E+03 0.56982048E+03 0.32000000E+00 0.0000E+00 0.9000E+01
        1  1    1    2  502    0 0.56400894E+03 0.31396362E+03 -.57554075E+03 0.86482743E+03 0.32000000E+00 0.0000E+00 0.9000E+01
#aMCatNLO 1  0  0  4  2 0.13206801D+02 0.00000000D+00  -5  6  0 0.00000000D+00 0.00000000D+00 0.00000000D+00 0.00000000D+00 0.00000000D+00
  <mgrwgt>
 0.4817737853D-02    7    2    0
 0.112332706694269D+04 0.000000000000000D+00 0.000000000000000D+00 0.112332706694269D+04
 0.112332706694269D+04 -.000000000000000D+00 -.000000000000000D+00 -.112332706694269D+04
 0.759924429565141D+03 -.543646729850377D+03 -.336933123981618D+03 0.390876504457461D+03
 0.437411752311555D+03 -.204384612699667D+02 0.229239042320992D+02 0.436332218585723D+03
 0.104931795200869D+04 0.564085191120343D+03 0.314009219749519D+03 -.827208723043184D+03
 0.000000000000000D+00 0.000000000000000D+00 0.000000000000000D+00 0.000000000000000D+00
 0.112332706694269D+04 0.000000000000000D+00 0.000000000000000D+00 0.112332706694269D+04
 0.112332706694269D+04 -.000000000000000D+00 -.000000000000000D+00 -.112332706694269D+04
 0.760068399531797D+03 -.543659582221890D+03 -.336918708682451D+03 0.391150884397437D+03
 0.189117657113275D+03 -.179616604267784D+02 0.360540973643790D+00 0.188262415253108D+03
 0.104901579196042D+04 0.564067448559773D+03 0.314029119914897D+03 -.826829944488643D+03
 0.248452285279893D+03 -.244620591110514D+01 0.225290477939105D+02 0.247416644838098D+03
0.471343093863D-04 0.000000000000D+00 0.000000000000D+00 0.104611129452D-04 0.000000000000D+00  6 2 1 25 2 1 21 0 0.22515109D+00 0.13265135D+00 0.44089504D+06 0.44089504D+06 0.44089504D+06 0.10723932D+01  1  2  2  3  6  4        2 0.177016405254D-03 0.100000000000D+01
0.249766520620D-04 0.000000000000D+00 -.181008158792D-06 0.104611129452D-04 0.000000000000D+00  6 2 1 25 2 1 21 2 0.22515109D+00 0.13265135D+00 0.44089504D+06 0.44089504D+06 0.44089504D+06 0.10723932D+01  1  2  3  3  6  4        2 0.107874483625D-03 0.100000000000D+01
-.296406010211D-04 0.000000000000D+00 0.000000000000D+00 0.104611129452D-04 0.000000000000D+00  6 2 1 25 2 1 21 2 0.22515109D+00 0.13265135D+00 0.44089504D+06 0.44089504D+06 0.44089504D+06 0.10723932D+01  1  2 15  3  6  4        2 -.128018139562D-03 0.100000000000D+01
0.291554874739D-08 0.000000000000D+00 0.000000000000D+00 0.104611129452D-04 0.000000000000D+00  6 2 1 25 2 1 21 2 0.22515109D+00 0.13265135D+00 0.44750119D+06 0.44750119D+06 0.44750119D+06 0.10719319D+01  1  2 12  3  6  4        2 0.125707652658D-07 0.100000000000D+01
-.784173074262D-03 0.000000000000D+00 0.000000000000D+00 0.104611129452D-04 0.000000000000D+00  6 2 1 25 2 1 21 2 0.22515109D+00 0.13265135D+00 0.44089504D+06 0.44089504D+06 0.44089504D+06 0.10723932D+01  1  2  4  3  6  4        2 -.338685366030D-02 0.100000000000D+01
-.201478158514D-02 0.000000000000D+00 0.000000000000D+00 0.104611129452D-04 0.000000000000D+00  6 2 1 25 2 1 21 2 0.22515109D+00 0.13265135D+00 0.44089504D+06 0.44089504D+06 0.44089504D+06 0.10723932D+01  1  2  5  3  6  4        2 -.870186775128D-02 0.100000000000D+01
0.387810227731D-02 0.000000000000D+00 -.000000000000D+00 0.104611129452D-04 0.000000000000D+00  6 2 1 25 2 1 21 2 0.22515109D+00 0.13265135D+00 0.44089504D+06 0.44089504D+06 0.44089504D+06 0.10723932D+01  1  2  6  3  6  4        2 0.167495739449D-01 0.100000000000D+01
  </mgrwgt>
  </event>
  <event>
  6     66 0.18337608E-05 0.17875606E+03 0.75467711E-02 0.92900803E-01
        2 -1    0    0  501    0 0.00000000E+00 0.00000000E+00 0.13059137E+04 0.13059137E+04 0.32000000E+00 0.0000E+00 0.9000E+01
        1 -1    0    0  503    0 0.00000000E+00 0.00000000E+00 -.11549262E+04 0.11549263E+04 0.32000000E+00 0.0000E+00 0.9000E+01
       25  1    1    2    0    0 -.17956269E+03 -.53329455E+03 -.43862453E+03 0.72433577E+03 0.12500000E+03 0.0000E+00 0.9000E+01
        2  1    1    2  501    0 -.34086800E+01 -.12544376E+02 0.95434250E+03 0.95443108E+03 0.32000000E+00 0.0000E+00 0.9000E+01
        1  1    1    2  502    0 0.14782334E+03 0.36394863E+03 -.23169166E+02 0.39350636E+03 0.32000000E+00 0.0000E+00 0.9000E+01
       21  1    1    2  503  502 0.35148026E+02 0.18189029E+03 -.34156134E+03 0.38856682E+03 0.75000000E+00 0.0000E+00 0.9000E+01
#aMCatNLO 2  0  0  2  1 0.18525513D+03 0.00000000D+00  -5  6  0 0.00000000D+00 0.00000000D+00 0.00000000D+00 0.00000000D+00 0.00000000D+00
  <mgrwgt>
 0.4000035628D-01    1    2    0
 0.100217170302793D+04 0.000000000000000D+00 0.000000000000000D+00 0.100217170302793D+04
 0.100217170302793D+04 0.000000000000000D+00 0.000000000000000D+00 -.100217170302793D+04
 0.805138445298884D+03 -.165075900881655D+03 -.458273068688704D+03 -.628775522393368D+03
 0.750994769181929D+03 0.971554848905462D+01 0.553727947475474D+02 0.748887578384113D+03
 0.448210191575042D+03 0.155360352392600D+03 0.402900273941157D+03 -.120112055990745D+03
 0.000000000000000D+00 0.000000000000000D+00 0.000000000000000D+00 -.000000000000000D+00
 0.102488803067153D+04 0.000000000000000D+00 0.000000000000000D+00 0.102488803067153D+04
 0.147160785050437D+04 0.000000000000000D+00 0.000000000000000D+00 -.147160785050437D+04
 0.853052323741188D+03 -.179583940870603D+03 -.533351870401307D+03 -.628775522393368D+03
 0.749000371483904D+03 -.340838748400993D+01 -.125432978025949D+02 0.748887578384113D+03
 0.410833777466068D+03 0.147844302678773D+03 0.364004874799970D+03 -.120112055990745D+03
 0.483609408484740D+03 0.351480256758399D+02 0.181890293403931D+03 -.446719819832837D+03
0.123125092954D-01 0.000000000000D+00 0.000000000000D+00 0.174815060115D-05 0.165568775326D-08  6 2 1 25 2 1 21 2 0.20090975D+00 0.17768092D+00 0.34083753D+06 0.34083753D+06 0.34083753D+06 0.10804749D+01  1  2  1  2  6  2        1 0.400003562801D-01 0.100000000000D+01
  </mgrwgt>
  </event>
  <event>
  6     66 0.18337608E-05 0.12143490E+03 0.75467711E-02 0.94732809E-01
        2 -1    0    0  501    0 0.00000000E+00 0.00000000E+00 0.11348069E+04 0.11348069E+04 0.32000000E+00 0.0000E+00 0.9000E+01
        1 -1    0    0  503    0 0.00000000E+00 0.00000000E+00 -.82424043E+03 0.82424049E+03 0.32000000E+00 0.0000E+00 0.9000E+01
       25  1    1    2    0    0 0.32645548E+03 0.35567496E+03 -.25365040E+03 0.55950101E+03 0.12500000E+03 0.0000E+00 0.9000E+01
        2  1    1    2  501    0 -.82077395E+02 -.10700692E+03 0.87570344E+03 0.88602697E+03 0.32000000E+00 0.0000E+00 0.9000E+01
        1  1    1    2  502    0 -.21754984E+03 -.24829893E+03 -.17348318E+03 0.37293002E+03 0.32000000E+00 0.0000E+00 0.9000E+01
       21  1    1    2  503  502 -.26828246E+02 -.36911448E+00 -.13800339E+03 0.14058943E+03 0.75000000E+00 0.0000E+00 0.9000E+01
#aMCatNLO 2  0  0  2  5 0.26830785D+02 0.00000000D+00  -5  6  0 0.00000000D+00 0.00000000D+00 0.00000000D+00 0.00000000D+00 0.00000000D+00
  <mgrwgt>
 0.1419045656D-01    3    2    0
 0.881029894408864D+03 0.000000000000000D+00 0.000000000000000D+00 0.881029894408864D+03
 0.881029894408864D+03 0.000000000000000D+00 0.000000000000000D+00 -.881029894408864D+03
 0.636934189046649D+03 0.316752239807023D+03 0.355576219792033D+03 -.404096191113148D+03
 0.692679935615814D+03 -.926070718195635D+02 -.107144284303264D+03 0.678048321135651D+03
 0.432445664155266D+03 -.224145167987460D+03 -.248431935488769D+03 -.273952130022503D+03
 0.000000000000000D+00 -.000000000000000D+00 -.000000000000000D+00 -.000000000000000D+00
 0.882136371921713D+03 0.000000000000000D+00 0.000000000000000D+00 0.882136371921713D+03
 0.106032605480055D+04 0.000000000000000D+00 0.000000000000000D+00 -.106032605480055D+04
 0.641905222279599D+03 0.326487161943411D+03 0.355710157015236D+03 -.404096191113148D+03
 0.691327799593524D+03 -.820715757916068D+02 -.106999332441988D+03 0.678048321135651D+03
 0.429031030529717D+03 -.217587340264294D+03 -.248341710089616D+03 -.273952130022503D+03
 0.180198374319428D+03 -.268282458875102D+02 -.369114483632516D+00 -.178189682878841D+03
-.383972400409D-02 0.000000000000D+00 0.000000000000D+00 0.107314832482D-05 0.000000000000D+00  6 2 1 25 2 1 21 2 0.17436655D+00 0.12758994D+00 0.24532536D+06 0.24532536D+06 0.24532536D+06 0.10910763D+01  1  2 13  2  6  2        1 -.291137399305D-01 0.100000000000D+01
-.137627145709D-06 0.000000000000D+00 0.000000000000D+00 0.107314832482D-05 0.000000000000D+00  6 2 1 25 2 1 21 2 0.17436655D+00 0.12688426D+00 0.24532536D+06 0.24532536D+06 0.24532536D+06 0.10910763D+01  1  2 13  2  6  2        1 -.105290277291D-05 0.100000000000D+01
0.566582925429D-02 0.000000000000D+00 0.000000000000D+00 0.107314832482D-05 0.140394707959D-07  6 2 1 25 2 1 21 2 0.17458553D+00 0.12680612D+00 0.24532536D+06 0.24532536D+06 0.24532536D+06 0.10910763D+01  1  2  1  2  6  2        1 0.433052493976D-01 0.100000000000D+01
  </mgrwgt>
  </event>
  <event>
  5     66 0.18337608E-05 0.34634906E+02 0.75467711E-02 0.90406472E-01
        2 -1    0    0  501    0 0.00000000E+00 0.00000000E+00 0.19231005E+04 0.19231005E+04 0.32000000E+00 0.0000E+00 0.9000E+01
        1 -1    0    0  502    0 0.00000000E+00 0.00000000E+00 -.11669678E+04 0.11669678E+04 0.32000000E+00 0.0000E+00 0.9000E+01
       25  1    1    2    0    0 0.32319972E+03 0.63103091E+03 0.31356945E+03 0.78524446E+03 0.12500000E+03 0.0000E+00 0.9000E+01
        2  1    1    2  501    0 -.23328434E+02 0.25605168E+02 0.12335049E+04 0.12339912E+04 0.32000000E+00 0.0000E+00 0.9000E+01
        1  1    1    2  502    0 -.29987129E+03 -.65663607E+03 -.79094165E+03 0.10708326E+04 0.32000000E+00 0.0000E+00 0.9000E+01
#aMCatNLO 1  0  0  4  1 0.42334250D+01 0.00000000D+00  -5  6  0 0.00000000D+00 0.00000000D+00 0.00000000D+00 0.00000000D+00 0.00000000D+00
  <mgrwgt>
 0.2780524928D-01    9    2    0
 0.149806420912476D+04 0.000000000000000D+00 0.000000000000000D+00 0.149806420912476D+04
 0.149806420912476D+04 -.000000000000000D+00 -.000000000000000D+00 -.149806420912476D+04
 0.730814041654156D+03 0.323227973424860D+03 0.631097952662176D+03 0.125312468733761D+03
 0.961276215037892D+03 -.233258698006184D+02 0.256023536288374D+02 0.960652062343222D+03
 0.130403816155748D+04 -.299902103624243D+03 -.656700306291012D+03 -.108596453107698D+04
 0.000000000000000D+00 0.000000000000000D+00 0.000000000000000D+00 0.000000000000000D+00
 0.149806420912476D+04 0.000000000000000D+00 0.000000000000000D+00 0.149806420912476D+04
 0.149806420912476D+04 -.000000000000000D+00 -.000000000000000D+00 -.149806420912476D+04
 0.730817289308843D+03 0.323227544285626D+03 0.631098423683172D+03 0.125330142393698D+03
 0.815600168047977D+03 -.173640532431658D+02 0.182565652260271D+02 0.815210906208329D+03
 0.130401165239850D+04 -.299902869355297D+03 -.656699465828581D+03 -.108593299522760D+04
 0.145699308494205D+03 -.596062168716357D+01 0.734447691938263D+01 0.145391946625571D+03
0.307655871458D-04 0.000000000000D+00 0.000000000000D+00 0.340560062054D-04 0.000000000000D+00  6 2 1 25 2 1 21 0 0.29586162D+00 0.17953351D+00 0.54506075D+06 0.54506075D+06 0.54506075D+06 0.10658719D+01  1  2  2  3  6  4        2 0.370335123175D-04 0.100000000000D+01
0.215512922808D-04 0.000000000000D+00 -.118147955405D-06 0.340560062054D-04 0.000000000000D+00  6 2 1 25 2 1 21 2 0.29586162D+00 0.17953351D+00 0.54506075D+06 0.54506075D+06 0.54506075D+06 0.10658719D+01  1  2  3  3  6  4        2 0.294722332089D-04 0.100000000000D+01
-.200536189459D-04 0.000000000000D+00 0.000000000000D+00 0.340560062054D-04 0.000000000000D+00  6 2 1 25 2 1 21 2 0.29586162D+00 0.17953351D+00 0.54506075D+06 0.54506075D+06 0.54506075D+06 0.10658719D+01  1  2 15  3  6  4        2 -.274241064783D-04 0.100000000000D+01
0.104892001412D-01 0.000000000000D+00 0.000000000000D+00 0.340560062054D-04 0.000000000000D+00  6 2 1 25 2 1 21 2 0.29586162D+00 0.17953351D+00 0.54507495D+06 0.54507495D+06 0.54507495D+06 0.10658711D+01  1  2 12  3  6  4        2 0.143443411527D-01 0.100000000000D+01
0.123085990840D-08 0.000000000000D+00 0.000000000000D+00 0.340560062054D-04 0.000000000000D+00  6 2 1 25 2 1 21 2 0.29586162D+00 0.17953351D+00 0.54507495D+06 0.54507495D+06 0.54507495D+06 0.10658711D+01  1  2 12  3  6  4        2 0.168324316436D-08 0.100000000000D+01
-.266865398340D-01 0.000000000000D+00 0.000000000000D+00 0.340560062054D-04 0.000000000000D+00  6 2 1 25 2 1 21 2 0.29586162D+00 0.17953351D+00 0.54506075D+06 0.54506075D+06 0.54506075D+06 0.10658719D+01  1  2  4  3  6  4        2 -.364948846351D-01 0.100000000000D+01
-.921086307429D-01 0.000000000000D+00 0.000000000000D+00 0.340560062054D-04 0.000000000000D+00  6 2 1 25 2 1 21 2 0.29586162D+00 0.17953351D+00 0.54506075D+06 0.54506075D+06 0.54506075D+06 0.10658719D+01  1  2  5  3  6  4        2 -.125962146976D+00 0.100000000000D+01
0.107113284082D+00 0.000000000000D+00 -.000000000000D+00 0.340560062054D-04 0.000000000000D+00  6 2 1 25 2 1 21 2 0.29586162D+00 0.17953351D+00 0.54506075D+06 0.54506075D+06 0.54506075D+06 0.10658719D+01  1  2  6  3  6  4        2 0.146481595958D+00 0.100000000000D+01
0.214965431524D-01 0.000000000000D+00 0.000000000000D+00 0.340560062054D-04 0.243990065762D-05  6 2 1 25 2 1 21 2 0.29586162D+00 0.17953351D+00 0.54507495D+06 0.54507495D+06 0.54507495D+06 0.10658711D+01  1  2 11  3  6  4        2 0.293972604614D-01 0.100000000000D+01
  </mgrwgt>
  </event>
  <event>
  5     66 0.18337608E-05 0.11423591E+03 0.75467711E-02 0.93912317E-01
        2 -1    0    0  501    0 0.00000000E+00 0.00000000E+00 0.61568422E+03 0.61568430E+03 0.32000000E+00 0.0000E+00 0.9000E+01
        1 -1    0    0  502    0 0.00000000E+00 0.00000000E+00 -.16610922E+04 0.16610923E+04 0.32000000E+00 0.0000E+00 0.9000E+01
       25  1    1    2    0    0 -.40455375E+03 -.27452187E+03 -.35127363E+03 0.61485295E+03 0.12500000E+03 0.0000E+00 0.9000E+01
        2  1    1    2  501    0 0.29146253E+03 0.25849026E+03 0.40203381E+03 0.55982042E+03 0.32000000E+00 0.0000E+00 0.9000E+01
        1  1    1    2  502    0 0.11309123E+03 0.16031607E+02 -.10961682E+04 0.11021032E+04 0.32000000E+00 0.0000E+00 0.9000E+01
#aMCatNLO 1  0  0  2  4 0.95397642D+02 0.00000000D+00  -5  6  0 0.00000000D+00 0.00000000D+00 0.00000000D+00 0.00000000D+00 0.00000000D+00
  <mgrwgt>
 0.6887396097D-02    9    2    0
 0.101129046592232D+04 0.000000000000000D+00 0.000000000000000D+00 0.101129046592232D+04
 0.101129046592232D+04 0.000000000000000D+00 0.000000000000000D+00 -.101129046592232D+04
 0.510547576717727D+03 -.404554553089574D+03 -.274513066792381D+03 -.775372028582447D+02
 0.837939158409436D+03 0.291449544124703D+03 0.258478744861387D+03 0.741881348249367D+03
 0.674094196717485D+03 0.113105008964871D+03 0.160343219309945D+02 -.664344145391123D+03
 0.000000000000000D+00 0.000000000000000D+00 -.000000000000000D+00 -.000000000000000D+00
 0.101585326166440D+04 0.000000000000000D+00 0.000000000000000D+00 0.101585326166440D+04
 0.167408582345103D+04 0.000000000000000D+00 0.000000000000000D+00 -.167408582345103D+04
 0.529365965246162D+03 -.429019164691588D+03 -.273008907659169D+03 -.775372028582447D+02
 0.825898176659951D+03 0.252306737988599D+03 0.260885364279956D+03 0.741881348249367D+03
 0.669565316570186D+03 0.814945848368666D+02 0.179778274699470D+02 -.664344145391123D+03
 0.665109626639131D+03 0.952178418661223D+02 -.585428409073373D+01 -.658232561786628D+03
0.846039961259D-04 0.000000000000D+00 0.000000000000D+00 0.973327731337D-05 0.000000000000D+00  6 2 1 25 2 1 21 0 0.94720658D-01 0.25555266D+00 0.25422652D+06 0.25422652D+06 0.25422652D+06 0.10899118D+01  1  2  2  2  6  2        1 0.304617977775D-03 0.100000000000D+01
0.161076845911D-04 0.000000000000D+00 -.324901621867D-06 0.973327731337D-05 0.000000000000D+00  6 2 1 25 2 1 21 2 0.94720658D-01 0.25555266D+00 0.25422652D+06 0.25422652D+06 0.25422652D+06 0.10899118D+01  1  2  3  2  6  2        1 0.688938533470D-04 0.100000000000D+01
-.542079113438D-04 0.000000000000D+00 0.000000000000D+00 0.973327731337D-05 0.000000000000D+00  6 2 1 25 2 1 21 2 0.94720658D-01 0.25555266D+00 0.25422652D+06 0.25422652D+06 0.25422652D+06 0.10899118D+01  1  2 15  2  6  2        1 -.231851565831D-03 0.100000000000D+01
0.362291086551D-08 0.000000000000D+00 0.000000000000D+00 0.973327731337D-05 0.000000000000D+00  6 2 1 25 2 1 21 2 0.94720658D-01 0.42348975D+00 0.28379093D+06 0.28379093D+06 0.28379093D+06 0.10863411D+01  1  2 12  2  6  2        1 0.277545829513D-08 0.100000000000D+01
-.218087624179D-03 0.000000000000D+00 0.000000000000D+00 0.973327731337D-05 0.000000000000D+00  6 2 1 25 2 1 21 2 0.94720658D-01 0.25555266D+00 0.25422652D+06 0.25422652D+06 0.25422652D+06 0.10899118D+01  1  2  4  2  6  2        1 -.932778184969D-03 0.100000000000D+01
-.253049579650D-02 0.000000000000D+00 -.436078293476D-04 0.973327731337D-05 0.000000000000D+00  6 2 1 25 2 1 21 2 0.94720658D-01 0.42346011D+00 0.25422652D+06 0.25422652D+06 0.25422652D+06 0.10899118D+01  1  2  5  2  6  2        1 -.196893677738D-02 0.100000000000D+01
0.226278981918D-02 0.000000000000D+00 0.385820611475D-04 0.973327731337D-05 0.000000000000D+00  6 2 1 25 2 1 21 2 0.94720658D-01 0.25555266D+00 0.25422652D+06 0.25422652D+06 0.25422652D+06 0.10899118D+01  1  2  6  2  6  2        1 0.967813276176D-02 0.100000000000D+01
0.205922736900D-09 0.000000000000D+00 0.000000000000D+00 0.973327731337D-05 0.000000000000D+00  6 2 21 25 2 1 -1 2 0.94720658D-01 0.42348975D+00 0.28379093D+06 0.28379093D+06 0.28379093D+06 0.10863411D+01  1  2 12  6  6  2        1 0.436021543325D-10 0.100000000000D+01
-.141825944129D-03 0.000000000000D+00 -.247835320984D-05 0.973327731337D-05 0.000000000000D+00  6 2 21 25 2 1 -1 2 0.94720658D-01 0.42346011D+00 0.25422652D+06 0.25422652D+06 0.25422652D+06 0.10899118D+01  1  2  5  6  6  2        1 -.306847864849D-04 0.100000000000D+01
  </mgrwgt>
  </event>
  <event>
  5     66 0.18337608E-05 0.51299250E+02 0.75467711E-02 0.90878824E-01
        2 -1    0    0  501    0 0.00000000E+00 0.00000000E+00 0.50768428E+03 0.50768438E+03 0.32000000E+00 0.0000E+00 0.9000E+01
        1 -1    0    0  502    0 -.00000000E+00 -.00000000E+00 -.21483731E+04 0.21483732E+04 0.32000000E+00 0.0000E+00 0.9000E+01
       25  1    1    2    0    0 -.50531325E+03 -.48348078E+03 -.55820495E+03 0.90350037E+03 0.12500000E+03 0.0000E+00 0.9000E+01
        2  1    1    2  501    0 0.48783292E+02 0.15913358E+02 0.25705133E+03 0.26212313E+03 0.32000000E+00 0.0000E+00 0.9000E+01
        1  1    1    2  502    0 0.45652996E+03 0.46756743E+03 -.13395352E+04 0.14904340E+04 0.32000000E+00 0.0000E+00 0.9000E+01
#aMCatNLO 1  0  0  5  1 0.55233758D+02 0.00000000D+00  -5  6  0 0.00000000D+00 0.00000000D+00 0.00000000D+00 0.00000000D+00 0.00000000D+00
  <mgrwgt>
 0.6642544904D-03    4    2    0
 0.104436365245830D+04 0.000000000000000D+00 0.000000000000000D+00 0.104436365245830D+04
 0.104436365245830D+04 -.000000000000000D+00 -.000000000000000D+00 -.104436365245830D+04
 0.710523264833882D+03 -.505372400863823D+03 -.483546322711856D+03 -.103525746147852D-01
 0.535087190427956D+03 0.487700293102398D+02 0.159090315682704D+02 0.532622463209844D+03
 0.843116849654768D+03 0.456602371553583D+03 0.467637291143586D+03 -.532612110635229D+03
 0.000000000000000D+00 0.000000000000000D+00 0.000000000000000D+00 0.000000000000000D+00
 0.104436365245830D+04 0.000000000000000D+00 0.000000000000000D+00 0.104436365245830D+04
 0.104436365245830D+04 -.000000000000000D+00 -.000000000000000D+00 -.104436365245830D+04
 0.694804801972496D+03 -.494118356181094D+03 -.472020296353443D+03 -.131378369353664D+02
 0.526410675692700D+03 0.572706383125859D+02 0.246150786993931D+02 0.522706773794961D+03
 0.812158378953111D+03 0.453539202123731D+03 0.403801520702401D+03 -.539303028472067D+03
 0.553534482982998D+02 -.166914842552229D+02 0.436036969516491D+02 0.297340916124729D+02
0.437881283228D-03 0.000000000000D+00 0.000000000000D+00 0.295815334951D-05 0.000000000000D+00  6 2 1 25 2 1 21 0 0.78105284D-01 0.33051895D+00 0.50084299D+06 0.50084299D+06 0.50084299D+06 0.10684587D+01  1  2  2  4  6  5        1 0.896372099105D-03 0.100000000000D+01
0.195114406109D-03 0.000000000000D+00 -.168157942438D-05 0.295815334951D-05 0.000000000000D+00  6 2 1 25 2 1 21 2 0.78105284D-01 0.33051895D+00 0.50084299D+06 0.50084299D+06 0.50084299D+06 0.10684587D+01  1  2  3  4  6  5        1 0.455970514024D-03 0.100000000000D+01
-.275302193451D-03 0.000000000000D+00 0.000000000000D+00 0.295815334951D-05 0.000000000000D+00  6 2 1 25 2 1 21 2 0.78105284D-01 0.33051895D+00 0.50084299D+06 0.50084299D+06 0.50084299D+06 0.10684587D+01  1  2 15  4  6  5        1 -.643364501695D-03 0.100000000000D+01
-.191376909038D-04 0.000000000000D+00 0.000000000000D+00 0.295815334951D-05 0.000000000000D+00  6 2 1 25 2 1 21 2 0.78105284D-01 0.33051895D+00 0.50084299D+06 0.50084299D+06 0.50084299D+06 0.10684587D+01  1  2  4  4  6  5        1 -.447236210419D-04 0.100000000000D+01
  </mgrwgt>
  </event>
  <event>
  5     66 0.18337608E-05 0.33594981E+02 0.75467711E-02 0.93299924E-01
        2 -1    0    0  501    0 0.00000000E+00 0.00000000E+00 0.19027766E+04 0.19027766E+04 0.32000000E+00 0.0000E+00 0.9000E+01
        1 -1    0    0  502    0 0.00000000E+00 0.00000000E+00 -.56035350E+03 0.56035359E+03 0.32000000E+00 0.0000E+00 0.9000E+01
       25  1    1    2    0    0 -.36327663E+02 0.55040582E+03 -.25673460E+03 0.62113116E+03 0.12500000E+03 0.0000E+00 0.9000E+01
        2  1    1    2  501    0 0.46565469E+02 -.51839796E+03 0.16776927E+04 0.17565756E+04 0.32000000E+00 0.0000E+00 0.9000E+01
        1  1    1    2  502    0 -.10237806E+02 -.32007864E+02 -.78535028E+02 0.85423469E+02 0.32000000E+00 0.0000E+00 0.9000E+01
#aMCatNLO 1  0  0  5  2 0.92142910D+01 0.00000000D+00  -5  6  0 0.00000000D+00 0.00000000D+00 0.00000000D+00 0.00000000D+00 0.00000000D+00
  <mgrwgt>
 0.1043574277D-01    9    2    0
 0.103258300376110D+04 0.000000000000000D+00 0.000000000000000D+00 0.103258300376110D+04
 0.103258300376110D+04 -.000000000000000D+00 -.000000000000000D+00 -.103258300376110D+04
 0.907772733894517D+03 -.363307654291659D+02 0.550401702893985D+03 -.710045334705509D+03
 0.100453152943598D+04 0.465659980455926D+02 -.518403847204610D+03 0.859169746127306D+03
 0.152861744191698D+03 -.102352326164269D+02 -.319978556893756D+02 -.149124411421798D+03
 0.000000000000000D+00 0.000000000000000D+00 0.000000000000000D+00 -.000000000000000D+00
 0.103258300376110D+04 0.000000000000000D+00 0.000000000000000D+00 0.103258300376110D+04
 0.103258300376110D+04 -.000000000000000D+00 -.000000000000000D+00 -.103258300376110D+04
 0.908377703915405D+03 -.363941441576972D+02 0.550203565393323D+03 -.710968744650655D+03
 0.100376825944721D+04 0.464959138254316D+02 -.518622947722093D+03 0.858148639087228D+03
 0.242160366549320D+02 0.704838272804194D+01 -.812495732804273D+01 -.216961240918633D+02
 0.128804007504648D+03 -.171501523957765D+02 -.234556603431873D+02 -.125483770344710D+03
0.367584985553D-03 0.000000000000D+00 0.000000000000D+00 0.348989095726D-05 0.000000000000D+00  6 2 1 25 2 1 21 0 0.29273487D+00 0.86208240D-01 0.31341609D+06 0.31341609D+06 0.31341609D+06 0.10831490D+01  1  2  2  4  6  5        1 0.156532522842D-02 0.100000000000D+01
0.904212059456D-04 0.000000000000D+00 -.141162313187D-05 0.348989095726D-05 0.000000000000D+00  6 2 1 25 2 1 21 2 0.29273487D+00 0.86208240D-01 0.31341609D+06 0.31341609D+06 0.31341609D+06 0.10831490D+01  1  2  3  4  6  5        1 0.451745135826D-03 0.100000000000D+01
-.234170286216D-03 0.000000000000D+00 0.000000000000D+00 0.348989095726D-05 0.000000000000D+00  6 2 1 25 2 1 21 2 0.29273487D+00 0.86208240D-01 0.31341609D+06 0.31341609D+06 0.31341609D+06 0.10831490D+01  1  2 15  4  6  5        1 -.116991679824D-02 0.100000000000D+01
0.593507286253D-03 0.000000000000D+00 0.000000000000D+00 0.348989095726D-05 0.000000000000D+00  6 2 1 25 2 1 21 2 0.29273487D+00 0.86208240D-01 0.31691985D+06 0.31691985D+06 0.31691985D+06 0.10827933D+01  1  2 12  4  6  5        1 0.296129007764D-02 0.100000000000D+01
0.856087879078D-08 0.000000000000D+00 0.000000000000D+00 0.348989095726D-05 0.000000000000D+00  6 2 1 25 2 1 21 2 0.29273487D+00 0.86208240D-01 0.31691985D+06 0.31691985D+06 0.31691985D+06 0.10827933D+01  1  2 12  4  6  5        1 0.427142951843D-07 0.100000000000D+01
-.483502451329D-03 0.000000000000D+00 0.000000000000D+00 0.348989095726D-05 0.000000000000D+00  6 2 1 25 2 1 21 2 0.29273487D+00 0.86208240D-01 0.31341609D+06 0.31341609D+06 0.31341609D+06 0.10831490D+01  1  2  4  4  6  5        1 -.241558247608D-02 0.100000000000D+01
-.612881133485D-03 0.000000000000D+00 0.000000000000D+00 0.348989095726D-05 0.000000000000D+00  6 2 1 25 2 1 21 2 0.29273487D+00 0.86208240D-01 0.31341609D+06 0.31341609D+06 0.31341609D+06 0.10831490D+01  1  2  5  4  6  5        1 -.306195950381D-02 0.100000000000D+01
0.242286909485D-02 0.000000000000D+00 -.000000000000D+00 0.348989095726D-05 0.000000000000D+00  6 2 1 25 2 1 21 2 0.29273487D+00 0.86208240D-01 0.31341609D+06 0.31341609D+06 0.31341609D+06 0.10831490D+01  1  2  6  4  6  5        1 0.121046751909D-01 0.100000000000D+01
0.246929287112D-07 0.000000000000D+00 0.000000000000D+00 0.348989095726D-05 0.126562333951D-07  6 2 1 25 2 1 21 2 0.29273487D+00 0.86208240D-01 0.31691985D+06 0.31691985D+06 0.31691985D+06 0.10827933D+01  1  2 11  4  6  5        1 0.123204763403D-06 0.100000000000D+01
  </mgrwgt>
  </event>
  <event>
  6     66 0.18337608E-05 0.35963949E+02 0.75467711E-02 0.95491860E-01
        2 -1    0    0  501    0 0.00000000E+00 0.00000000E+00 0.41740001E+03 0.41740013E+03 0.32000000E+00 0.0000E+00 0.9000E+01
        1 -1    0    0  502    0 -.00000000E+00 -.00000000E+00 -.29553814E+04 0.29553814E+04 0.32000000E+00 0.0000E+00 0.9000E+01
       25  1    1    2    0    0 -.39278820E+03 0.22295350E+03 -.18344682E+03 0.50325796E+03 0.12500000E+03 0.0000E+00 0.9000E+01
        2  1    1    2  501    0 0.36287896E+02 -.10471668E+02 0.23900586E+03 0.24197183E+03 0.32000000E+00 0.0000E+00 0.9000E+01
        1  1    1    2  503    0 0.14344051E+03 -.47261453E+02 -.10079548E+04 0.10192064E+04 0.32000000E+00 0.0000E+00 0.9000E+01
       21  1    1    2  502  503 0.21305979E+03 -.16522038E+03 -.15855857E+04 0.16083453E+04 0.75000000E+00 0.0000E+00 0.9000E+01
#aMCatNLO 2  0  0  5  2 0.92142910D+01 0.00000000D+00  -5  6  0 0.00000000D+00 0.00000000D+00 0.00000000D+00 0.00000000D+00 0.00000000D+00
  <mgrwgt>
 0.4778357434D-01    1    2    0
 0.111066487128769D+04 0.000000000000000D+00 0.000000000000000D+00 0.111066487128769D+04
 0.111066487128769D+04 -.000000000000000D+00 -.000000000000000D+00 -.111066487128769D+04
 0.555147219787141D+03 -.393048619903611D+03 0.223110165178693D+03 0.297149915401629D+03
 0.641045355001155D+03 0.360207490883494D+02 -.103141769601038D+02 0.639949428124838D+03
 0.102513716778709D+04 0.357027870815262D+03 -.212795988218589D+03 -.937099343526467D+03
 0.000000000000000D+00 0.000000000000000D+00 -.000000000000000D+00 0.000000000000000D+00
 0.111066487128769D+04 0.000000000000000D+00 0.000000000000000D+00 0.111066487128769D+04
 0.111066487128769D+04 -.000000000000000D+00 -.000000000000000D+00 -.111066487128769D+04
 0.554614869930676D+03 -.392822271990054D+03 0.222975257145220D+03 0.296555814776604D+03
 0.640377814076448D+03 0.362821091252359D+02 -.104699529425309D+02 0.639263430366649D+03
 0.395616908535374D+03 0.143357989037795D+03 -.472292810001240D+02 -.365691974637587D+03
 0.630720150032890D+03 0.213182173827024D+03 -.165276023202566D+03 -.570127270505666D+03
0.541418967450D-01 0.000000000000D+00 0.000000000000D+00 0.955753286151D-04 0.943883528575D-07  6 2 1 25 2 1 21 2 0.64215396D-01 0.45467407D+00 0.21488631D+06 0.21488631D+06 0.21488631D+06 0.10954388D+01  1  2  1  4  6  5        1 0.477835743389D-01 0.100000000000D+01
  </mgrwgt>
  </event>
  <event>
  5     66 0.18337608E-05 0.30521747E+02 0.75467711E-02 0.92781168E-01
        2 -1    0    0  501    0 0.00000000E+00 0.00000000E+00 0.10711312E+04 0.10711312E+04 0.32000000E+00 0.0000E+00 0.9000E+01
        1 -1    0    0  502    0 -.00000000E+00 -.00000000E+00 -.11262272E+04 0.11262273E+04 0.32000000E+00 0.0000E+00 0.9000E+01
       25  1    1    2    0    0 -.14730563E+03 0.45851910E+03 0.36863460E+03 0.61923758E+03 0.12500000E+03 0.0000E+00 0.9000E+01
        2  1    1    2  501    0 -.30156917E+02 -.47627391E+01 0.51742635E+03 0.51832640E+03 0.32000000E+00 0.0000E+00 0.9000E+01
        1  1    1    2  502    0 0.17746255E+03 -.45375636E+03 -.94115701E+03 0.10597945E+04 0.32000000E+00 0.0000E+00 0.9000E+01
#aMCatNLO 1  0  0  4  2 0.52878801D+02 0.00000000D+00  -5  6  0 0.00000000D+00 0.00000000D+00 0.00000000D+00 0.00000000D+00 0.00000000D+00
  <mgrwgt>
 0.1126557630D-01    6    2    0
 0.109833382396650D+04 0.000000000000000D+00 0.000000000000000D+00 0.109833382396650D+04
 0.109833382396650D+04 -.000000000000000D+00 -.000000000000000D+00 -.109833382396650D+04
 0.628816426774966D+03 -.147337783499035D+03 0.458581097420438D+03 0.384421712737840D+03
 0.531311458345579D+03 -.301480788336031D+02 -.476134320325452D+01 0.530434056903259D+03
 0.103653976281246D+04 0.177485862332638D+03 -.453819754217184D+03 -.914855769641098D+03
 0.000000000000000D+00 0.000000000000000D+00 0.000000000000000D+00 0.000000000000000D+00
 0.109833382396650D+04 0.000000000000000D+00 0.000000000000000D+00 0.109833382396650D+04
 0.109833382396650D+04 -.000000000000000D+00 -.000000000000000D+00 -.109833382396650D+04
 0.635905900234476D+03 -.147983869402825D+03 0.458479059849696D+03 0.395789135814674D+03
 0.226332005762355D+03 -.749515535283172D+02 -.783569103522889D+02 0.198667148910297D+03
 0.102015276389840D+04 0.176435196884927D+03 -.453985687801740D+03 -.896370056539655D+03
 0.314276978037772D+03 0.465002260462155D+02 0.738635383043334D+02 0.301913771814685D+03
0.161400933377D-02 0.000000000000D+00 0.000000000000D+00 0.470098615148D-04 0.000000000000D+00  6 2 1 25 2 1 21 0 0.16478942D+00 0.17326573D+00 0.25777871D+06 0.25777871D+06 0.25777871D+06 0.10894594D+01  1  2  2  3  6  4        2 0.656419397932D-02 0.100000000000D+01
0.800778667147D-03 0.000000000000D+00 -.619822082010D-05 0.470098615148D-04 0.000000000000D+00  6 2 1 25 2 1 21 2 0.16478942D+00 0.17326573D+00 0.25777871D+06 0.25777871D+06 0.25777871D+06 0.10894594D+01  1  2  3  3  6  4        2 0.386553835828D-02 0.100000000000D+01
-.107421669779D-02 0.000000000000D+00 0.000000000000D+00 0.470098615148D-04 0.000000000000D+00  6 2 1 25 2 1 21 2 0.16478942D+00 0.17326573D+00 0.25777871D+06 0.25777871D+06 0.25777871D+06 0.10894594D+01  1  2 15  3  6  4        2 -.518548510441D-02 0.100000000000D+01
-.354885790803D-04 0.000000000000D+00 0.000000000000D+00 0.470098615148D-04 0.000000000000D+00  6 2 1 25 2 1 21 2 0.16478942D+00 0.17326573D+00 0.25777871D+06 0.25777871D+06 0.25777871D+06 0.10894594D+01  1  2  4  3  6  4        2 -.171311336508D-03 0.100000000000D+01
-.171617504547D-02 0.000000000000D+00 0.000000000000D+00 0.470098615148D-04 0.000000000000D+00  6 2 1 25 2 1 21 2 0.16478942D+00 0.17326573D+00 0.25777871D+06 0.25777871D+06 0.25777871D+06 0.10894594D+01  1  2  5  3  6  4        2 -.828436213397D-02 0.100000000000D+01
0.299903240480D-02 0.000000000000D+00 -.000000000000D+00 0.470098615148D-04 0.000000000000D+00  6 2 1 25 2 1 21 2 0.16478942D+00 0.17326573D+00 0.25777871D+06 0.25777871D+06 0.25777871D+06 0.10894594D+01  1  2  6  3  6  4        2 0.144770025403D-01 0.100000000000D+01
  </mgrwgt>
  </event>
  <event>
  6     66 0.18337608E-05 0.24816356E+03 0.75467711E-02 0.92899861E-01
        2 -1    0    0  501    0 0.00000000E+00 0.00000000E+00 0.80357621E+03 0.80357627E+03 0.32000000E+00 0.0000E+00 0.9000E+01
       21 -1    0    0  502  503 0.00000000E+00 0.00000000E+00 -.94342231E+03 0.94342260E+03 0.75000000E+00 0.0000E+00 0.9000E+01
       25  1    1    2    0    0 0.39157968E+03 0.38596717E+03 0.17910573E+03 0.59161572E+03 0.12500000E+03 0.0000E+00 0.9000E+01
        2  1    1    2  501    0 -.23664679E+03 -.97064553E+02 0.32543349E+03 0.41392063E+03 0.32000000E+00 0.0000E+00 0.9000E+01
        1  1    1    2  502    0 -.14471147E+03 -.29997216E+03 -.64549339E+03 0.72635152E+03 0.32000000E+00 0.0000E+00 0.9000E+01
       -1  1    1    2    0  503 -.10221430E+02 0.11069541E+02 0.11080772E+01 0.15111009E+02 0.32000000E+00 0.0000E+00 0.9000E+01
#aMCatNLO 2  0  0  2  4 0.15066929D+02 0.00000000D+00  -5  6  0 0.00000000D+00 0.00000000D+00 0.00000000D+00 0.00000000D+00 0.00000000D+00
  <mgrwgt>
 0.5173243798D-04    1    2    0
 0.863038308830867D+03 0.000000000000000D+00 0.000000000000000D+00 0.863038308830867D+03
 0.863038308830867D+03 0.000000000000000D+00 0.000000000000000D+00 -.863038308830867D+03
 0.608447171458936D+03 0.387937213666798D+03 0.389893558215109D+03 0.228190034776242D+03
 0.442525380835998D+03 -.239188471767721D+03 -.941978331414094D+02 0.360200438490753D+03
 0.675104065366799D+03 -.148748741899077D+03 -.295695725073700D+03 -.588390473266996D+03
 0.000000000000000D+00 -.000000000000000D+00 0.000000000000000D+00 0.000000000000000D+00
 0.871868255704324D+03 0.000000000000000D+00 0.000000000000000D+00 0.871868255704324D+03
 0.869522552574090D+03 0.000000000000000D+00 0.000000000000000D+00 -.869522552574090D+03
 0.608267191429278D+03 0.391539696658653D+03 0.385992163312326D+03 0.228190034776242D+03
 0.441729922757763D+03 -.236570343151163D+03 -.970331979890886D+02 0.360200438490753D+03
 0.676145261864474D+03 -.144747923903018D+03 -.300028506372620D+03 -.588390473266996D+03
 0.152484322268987D+02 -.102214296044718D+02 0.110695410493824D+02 0.234570313023385D+01
0.381080681903D-05 0.000000000000D+00 0.000000000000D+00 0.179075846461D-06 0.109955116559D-10  6 2 21 25 2 1 -1 2 0.12362690D+00 0.14514164D+00 0.34089634D+06 0.34089634D+06 0.34089634D+06 0.10804694D+01  1  2  1  6  6  2        1 0.517324379802D-04 0.100000000000D+01
  </mgrwgt>
  </event>
  <event>
  5     66 0.18337608E-05 0.91891385E+02 0.75467711E-02 0.86049367E-01
        2 -1    0    0  501    0 0.00000000E+00 0.00000000E+00 0.20977780E+04 0.20977780E+04 0.32000000E+00 0.0000E+00 0.9000E+01
        1 -1    0    0  502    0 0.00000000E+00 0.00000000E+00 -.96356313E+03 0.96356318E+03 0.32000000E+00 0.0000E+00 0.9000E+01
       25  1    1    2    0    0 0.28818610E+03 0.51200834E+03 -.18577083E+03 0.62876034E+03 0.12500000E+03 0.0000E+00 0.9000E+01
        2  1    1    2  501    0 -.21723583E+03 -.45362030E+03 0.18384656E+04 0.19060217E+04 0.32000000E+00 0.0000E+00 0.9000E+01
        1  1    1    2  502    0 -.70950276E+02 -.58388041E+02 -.51847988E+03 0.52655920E+03 0.32000000E+00 0.0000E+00 0.9000E+01
#aMCatNLO 1  0  0  2  5 0.72519516D+02 0.00000000D+00  -5  6  0 0.00000000D+00 0.00000000D+00 0.00000000D+00 0.00000000D+00 0.00000000D+00
  <mgrwgt>
 0.2171985375D-02    4    2    0
 0.142173895862470D+04 0.000000000000000D+00 0.000000000000000D+00 0.142173895862470D+04
 0.142173895862470D+04 0.000000000000000D+00 0.000000000000000D+00 -.142173895862470D+04
 0.751011067210735D+03 0.288188257362518D+03 0.512008443526832D+03 -.450763247335664D+03
 0.131871625471734D+04 -.217234262320469D+03 -.453617029994338D+03 0.121903790992279D+04
 0.773750595321330D+03 -.709539950420483D+02 -.583914135324944D+02 -.768274662587127D+03
 0.000000000000000D+00 -.000000000000000D+00 0.000000000000000D+00 0.000000000000000D+00
 0.217055647800122D+04 0.000000000000000D+00 0.000000000000000D+00 0.217055647800122D+04
 0.171276146368296D+04 0.000000000000000D+00 0.000000000000000D+00 -.171276146368296D+04
 0.776234712142664D+03 0.470512262810176D+03 0.402921870505758D+03 -.450763247335664D+03
 0.138395650267934D+04 0.105413296575685D+03 -.646660817109366D+03 0.121903790992279D+04
 0.795522040142732D+03 0.116387215131959D+03 -.170479838495110D+03 -.768274662587127D+03
 0.927604686719444D+03 -.692312774517820D+03 0.414218785098718D+03 0.457795014318263D+03
0.301351542528D-02 0.000000000000D+00 0.000000000000D+00 0.239333861459D-04 0.000000000000D+00  6 2 1 25 2 1 21 0 0.32273508D+00 0.14824049D+00 0.35732490D+06 0.35732490D+06 0.35732490D+06 0.10789777D+01  1  2  2  2  6  2        1 0.425966805399D-02 0.100000000000D+01
0.720278231917D-03 0.000000000000D+00 -.115726927099D-04 0.239333861459D-04 0.000000000000D+00  6 2 1 25 2 1 21 2 0.32273508D+00 0.14824049D+00 0.35732490D+06 0.35732490D+06 0.35732490D+06 0.10789777D+01  1  2  3  2  6  2        1 0.118529795500D-02 0.100000000000D+01
-.196498239659D-02 0.000000000000D+00 0.000000000000D+00 0.239333861459D-04 0.000000000000D+00  6 2 1 25 2 1 21 2 0.32273508D+00 0.14824049D+00 0.35732490D+06 0.35732490D+06 0.35732490D+06 0.10789777D+01  1  2 15  2  6  2        1 -.323359711996D-02 0.100000000000D+01
-.239324533307D-04 0.000000000000D+00 0.000000000000D+00 0.239333861459D-04 0.000000000000D+00  6 2 1 25 2 1 21 2 0.32273508D+00 0.14824049D+00 0.35732490D+06 0.35732490D+06 0.35732490D+06 0.10789777D+01  1  2  4  2  6  2        1 -.393835142230D-04 0.100000000000D+01
  </mgrwgt>
  </event>
  <event>
  5     66 0.18337608E-05 0.28028406E+03 0.75467711E-02 0.89276942E-01
        2 -1    0    0  501    0 0.00000000E+00 0.00000000E+00 0.80604167E+03 0.80604174E+03 0.32000000E+00 0.0000E+00 0.9000E+01
        1 -1    0    0  502    0 0.00000000E+00 0.00000000E+00 -.90853152E+03 0.90853157E+03 0.32000000E+00 0.0000E+00 0.9000E+01
       25  1    1    2    0    0 -.14191157E+03 0.66186017E+03 -.16443421E+03 0.70771561E+03 0.12500000E+03 0.0000E+00 0.9000E+01
        2  1    1    2  501    0 -.13830440E+03 -.66663076E+03 0.17770220E+03 0.70363546E+03 0.32000000E+00 0.0000E+00 0.9000E+01
        1  1    1    2  502    0 0.28021597E+03 0.47705913E+01 -.11575784E+03 0.30322224E+03 0.32000000E+00 0.0000E+00 0.9000E+01
#aMCatNLO 1  0  0  2  4 0.40431715D-01 0.00000000D+00  -5  6  0 0.00000000D+00 0.00000000D+00 0.00000000D+00 0.00000000D+00 0.00000000D+00
  <mgrwgt>
 0.6744777899D-04    3    2    0
 0.855753683423757D+03 0.000000000000000D+00 0.000000000000000D+00 0.855753683423757D+03
 0.855753683423757D+03 0.000000000000000D+00 0.000000000000000D+00 -.855753683423757D+03
 0.699135372034465D+03 -.141945550360287D+03 0.661857181984240D+03 -.122318436135219D+03
 0.715505869380896D+03 -.138298351804651D+03 -.666601609976575D+03 0.220146561597648D+03
 0.296866125432153D+03 0.280243902164938D+03 0.474442799233509D+01 -.978281254624283D+02
 0.000000000000000D+00 -.000000000000000D+00 0.000000000000000D+00 0.000000000000000D+00
 0.221205075210428D+04 0.000000000000000D+00 0.000000000000000D+00 0.221205075210428D+04
 0.130836054048745D+04 0.000000000000000D+00 0.000000000000000D+00 -.130836054048745D+04
 0.388127060841175D+03 -.805858676860289D+02 0.336989218622693D+03 -.122318436135219D+03
 0.128304157309607D+04 -.255102767531675D+02 -.126375646209605D+04 0.220146561597648D+03
 0.389087388950552D+03 0.318955705956865D+03 -.200214664164299D+03 -.978281254624283D+02
 0.146015526970393D+04 -.212859561517669D+03 0.112698190763766D+04 0.903690211616823D+03
0.240384095130D-04 0.000000000000D+00 0.000000000000D+00 0.603101856227D-09 0.000000000000D+00  6 2 1 25 2 1 21 0 0.12400642D+00 0.13977409D+00 0.68015710D+06 0.68015710D+06 0.68015710D+06 0.10591917D+01  1  2  2  2  6  2        1 0.203046562050D-03 0.100000000000D+01
-.282488778013D-06 0.000000000000D+00 -.923138219887D-07 0.603101856227D-09 0.000000000000D+00  6 2 1 25 2 1 21 2 0.12400642D+00 0.13977409D+00 0.68015710D+06 0.68015710D+06 0.68015710D+06 0.10591917D+01  1  2  3  2  6  2        1 -.267695014042D-05 0.100000000000D+01
-.140267558917D-04 0.000000000000D+00 0.000000000000D+00 0.603101856227D-09 0.000000000000D+00  6 2 1 25 2 1 21 2 0.12400642D+00 0.13977409D+00 0.68015710D+06 0.68015710D+06 0.68015710D+06 0.10591917D+01  1  2 15  2  6  2        1 -.132921832924D-03 0.100000000000D+01
  </mgrwgt>
  </event>
  <event>
  5     66 0.18337608E-05 0.97095993E+02 0.75467711E-02 0.80682073E-01
        2 -1    0    0  501    0 0.00000000E+00 0.00000000E+00 0.29901314E+04 0.29901315E+04 0.32000000E+00 0.0000E+00 0.9000E+01
        1 -1    0    0  502    0 0.00000000E+00 0.00000000E+00 -.65583568E+03 0.65583576E+03 0.32000000E+00 0.0000E+00 0.9000E+01
       25  1    1    2    0    0 0.50279701E+03 0.17715922E+03 0.66816828E+03 0.86386577E+03 0.12500000E+03 0.0000E+00 0.9000E+01
        2  1    1    2  501    0 -.43235272E+03 -.11035109E+03 0.21972897E+04 0.22421393E+04 0.32000000E+00 0.0000E+00 0.9000E+01
        1  1    1    2  502    0 -.70444295E+02 -.66808128E+02 -.53116224E+03 0.53996218E+03 0.32000000E+00 0.0000E+00 0.9000E+01
#aMCatNLO 1  0  0  2  2 0.89829929D+03 0.00000000D+00  -5  6  0 0.00000000D+00 0.00000000D+00 0.00000000D+00 0.00000000D+00 0.00000000D+00
  <mgrwgt>
 0.9425116595D-02    3    2    0
 0.140036961426979D+04 0.000000000000000D+00 0.000000000000000D+00 0.140036961426979D+04
 0.140036961426979D+04 0.000000000000000D+00 0.000000000000000D+00 -.140036961426979D+04
 0.567692422864999D+03 0.502780473747650D+03 0.177159753913157D+03 0.149919657783266D+03
 0.108738232942534D+04 -.432328914371904D+03 -.110345012422396D+03 0.991622921466620D+03
 0.114566447624924D+04 -.704515593757468D+02 -.668147414907609D+02 -.114154257924989D+04
 0.000000000000000D+00 -.000000000000000D+00 -.000000000000000D+00 0.000000000000000D+00
 0.287835465283142D+04 0.000000000000000D+00 0.000000000000000D+00 0.287835465283142D+04
 0.261513374720699D+04 0.000000000000000D+00 0.000000000000000D+00 -.261513374720699D+04
 0.975523773451035D+03 0.723556567406651D+03 0.624509105250677D+03 0.149919657783266D+03
 0.113158610100807D+04 -.114878136449012D+03 0.532892202403683D+03 0.991622921466620D+03
 0.134727712144444D+04 0.286194456245855D+03 0.655842141785108D+03 -.114154257924989D+04
 0.203910140413487D+04 -.894872887203494D+03 -.181324344943947D+04 0.263220905624424D+03
0.207218403918D-01 0.000000000000D+00 0.000000000000D+00 0.456467963858D-04 0.000000000000D+00  6 2 1 25 2 1 21 0 0.46002023D+00 0.10089780D+00 0.29747397D+06 0.29747397D+06 0.29747397D+06 0.10848237D+01  1  2  2  2  6  2        1 0.164896969276D-01 0.100000000000D+01
0.607518577432D-02 0.000000000000D+00 -.795773232904D-04 0.456467963858D-04 0.000000000000D+00  6 2 1 25 2 1 21 2 0.46002023D+00 0.10089780D+00 0.29747397D+06 0.29747397D+06 0.29747397D+06 0.10848237D+01  1  2  3  2  6  2        1 0.568934422984D-02 0.100000000000D+01
-.136188737995D-01 0.000000000000D+00 0.000000000000D+00 0.456467963858D-04 0.000000000000D+00  6 2 1 25 2 1 21 2 0.46002023D+00 0.10089780D+00 0.29747397D+06 0.29747397D+06 0.29747397D+06 0.10848237D+01  1  2 15  2  6  2        1 -.127539245624D-01 0.100000000000D+01
  </mgrwgt>
  </event>
  <event>
  6     66 0.18337608E-05 0.19207994E+02 0.75467711E-02 0.94130147E-01
        2 -1    0    0  501    0 0.00000000E+00 0.00000000E+00 0.95254175E+03 0.95254180E+03 0.32000000E+00 0.0000E+00 0.9000E+01
        1 -1    0    0  502    0 -.00000000E+00 -.00000000E+00 -.19644229E+04 0.19644229E+04 0.32000000E+00 0.0000E+00 0.9000E+01
       25  1    1    2    0    0 0.23743520E+03 0.43007599E+03 -.31303247E+03 0.59578113E+03 0.12500000E+03 0.0000E+00 0.9000E+01
        2  1    1    2  503    0 -.24346375E+03 -.43212232E+03 0.68508230E+03 0.84577902E+03 0.32000000E+00 0.0000E+00 0.9000E+01
        1  1    1    2  502    0 0.17432904E+02 0.16272974E+02 -.14277439E+04 0.14279431E+04 0.32000000E+00 0.0000E+00 0.9000E+01
       21  1    1    2  501  503 -.11404347E+02 -.14226644E+02 0.43812933E+02 0.47461481E+02 0.75000000E+00 0.0000E+00 0.9000E+01
#aMCatNLO 2  0  0  4  1 0.11097116D+02 0.00000000D+00  -5  6  0 0.00000000D+00 0.00000000D+00 0.00000000D+00 0.00000000D+00 0.00000000D+00
  <mgrwgt>
 0.1493321557D+00    6    2    0
 0.136791627406619D+04 0.000000000000000D+00 0.000000000000000D+00 0.136791627406619D+04
 0.136791627406619D+04 -.000000000000000D+00 -.000000000000000D+00 -.136791627406619D+04
 0.519445794680866D+03 0.237447424732930D+03 0.430102441933702D+03 -.113267574980675D+03
 0.122143135351491D+04 -.254961094386882D+03 -.446511822931968D+03 0.110793347439289D+04
 0.994955399936598D+03 0.175136696539523D+02 0.164093809982664D+02 -.994665899412210D+03
 0.000000000000000D+00 0.000000000000000D+00 0.000000000000000D+00 0.000000000000000D+00
 0.136791627406619D+04 0.000000000000000D+00 0.000000000000000D+00 0.136791627406619D+04
 0.136791627406619D+04 -.000000000000000D+00 -.000000000000000D+00 -.136791627406619D+04
 0.519334429494133D+03 0.237408406636816D+03 0.430034109777907D+03 -.113098021838084D+03
 0.115527726657044D+04 -.243489212788768D+03 -.432170267655004D+03 0.104336351559031D+04
 0.994627284512065D+03 0.174389380344990D+02 0.162785039649959D+02 -.994341153148523D+03
 0.665935675557392D+02 -.113581318825472D+02 -.141423460878989D+02 0.640756593962915D+02
-.946398056049D-01 0.000000000000D+00 0.000000000000D+00 0.154442650269D-03 0.000000000000D+00  6 2 1 25 2 1 21 2 0.14654489D+00 0.30221891D+00 0.27295768D+06 0.27295768D+06 0.27295768D+06 0.10876003D+01  1  2 13  3  6  4        2 -.145119579155D+00 0.100000000000D+01
-.238067003132D-08 0.000000000000D+00 0.000000000000D+00 0.154442650269D-03 0.000000000000D+00  6 2 1 25 2 1 21 2 0.14654489D+00 0.30221891D+00 0.27295768D+06 0.27295768D+06 0.27295768D+06 0.10876003D+01  1  2 13  3  6  4        2 -.365049178667D-08 0.100000000000D+01
-.248823812992D+00 0.000000000000D+00 0.000000000000D+00 0.154442650269D-03 0.000000000000D+00  6 2 1 25 2 1 21 2 0.14654489D+00 0.30221891D+00 0.27307055D+06 0.27307055D+06 0.27307055D+06 0.10875869D+01  1  2  8  3  6  4        2 -.381522697799D+00 0.100000000000D+01
-.108517717188D+00 0.000000000000D+00 0.000000000000D+00 0.154442650269D-03 0.000000000000D+00  6 2 1 25 2 1 21 2 0.14654489D+00 0.30221891D+00 0.27307055D+06 0.27307055D+06 0.27307055D+06 0.10875869D+01  1  2  9  3  6  4        2 -.166390715272D+00 0.100000000000D+01
0.114595236554D+00 0.000000000000D+00 0.000000000000D+00 0.154442650269D-03 0.000000000000D+00  6 2 1 25 2 1 21 2 0.14654489D+00 0.30221891D+00 0.27307055D+06 0.27307055D+06 0.27307055D+06 0.10875869D+01  1  2 10  3  6  4        2 0.175709403691D+00 0.100000000000D+01
0.434759876979D+00 0.000000000000D+00 0.000000000000D+00 0.154442650269D-03 0.173206109304D-04  6 2 1 25 2 1 21 2 0.14654489D+00 0.30221891D+00 0.27295768D+06 0.27295768D+06 0.27295768D+06 0.10876003D+01  1  2  1  3  6  4        2 0.666655747839D+00 0.100000000000D+01
  </mgrwgt>
  </event>
  <event>
  5     66 -.18337608E-05 0.62094010E+02 0.75467711E-02 0.95372448E-01
        2 -1    0    0  501    0 0.00000000E+00 0.00000000E+00 0.29666067E+03 0.29666084E+03 0.32000000E+00 0.0000E+00 0.9000E+01
        1 -1    0    0  502    0 0.00000000E+00 0.00000000E+00 -.42028288E+04 0.42028288E+04 0.32000000E+00 0.0000E+00 0.9000E+01
       25  1    1    2    0    0 0.70699867E+02 0.45432230E+03 -.80876431E+03 0.93868628E+03 0.12500000E+03 0.0000E+00 0.9000E+01
        2  1    1    2  501    0 -.68551284E+02 -.39227252E+03 0.60066988E+02 0.40272218E+03 0.32000000E+00 0.0000E+00 0.9000E+01
        1  1    1    2  502    0 -.21485831E+01 -.62049783E+02 -.31574708E+04 0.31580812E+04 0.32000000E+00 0.0000E+00 0.9000E+01
#aMCatNLO 1  0  0  2  2 0.89829929D+03 0.00000000D+00  -5  6  0 0.00000000D+00 0.00000000D+00 0.00000000D+00 0.00000000D+00 0.00000000D+00
  <mgrwgt>
 -.7083946725D-04    1    2    0
 0.111660843990153D+04 0.000000000000000D+00 0.000000000000000D+00 0.111660843990153D+04
 0.111660843990153D+04 0.000000000000000D+00 0.000000000000000D+00 -.111660843990153D+04
 0.476631241129927D+03 0.706970336685165D+02 0.454311471451357D+03 0.124642031125153D+02
 0.916428092351475D+03 -.685481620566879D+02 -.392254655014651D+03 0.825395592155029D+03
 0.840157546321662D+03 -.214887161182857D+01 -.620568164367064D+02 -.837859795267545D+03
 0.000000000000000D+00 -.000000000000000D+00 -.000000000000000D+00 -.000000000000000D+00
 0.116883800916328D+04 0.000000000000000D+00 0.000000000000000D+00 0.116883800916328D+04
 0.119225588898917D+04 0.000000000000000D+00 0.000000000000000D+00 -.119225588898917D+04
 0.486478867547039D+03 0.964341449502055D+02 0.459980203811362D+03 0.124642031125153D+02
 0.909514154043239D+03 -.197536593658639D+02 -.381507412506880D+03 0.825395592155029D+03
 0.840570640553539D+03 0.427650878515408D+02 -.521642837185113D+02 -.837859795267545D+03
 0.124530236008641D+03 -.119445573435882D+03 -.263085075859707D+02 -.234178798258924D+02
-.620443215017D-03 0.000000000000D+00 0.000000000000D+00 0.663796827218D-04 0.000000000000D+00  6 2 1 25 2 1 21 2 0.45640117D-01 0.64658906D+00 0.21938048D+06 0.21938048D+06 0.21938048D+06 0.10947536D+01  1  2 14  2  6  2        1 -.708394672454D-04 0.100000000000D+01
  </mgrwgt>
  </event>
  <event>
  5     66 0.18337608E-05 0.28744601E+02 0.75467711E-02 0.92877167E-01
        2 -1    0    0  501    0 0.00000000E+00 0.00000000E+00 0.95981738E+03 0.95981743E+03 0.32000000E+00 0.0000E+00 0.9000E+01
        1 -1    0    0  502    0 0.00000000E+00 0.00000000E+00 -.17529220E+04 0.17529220E+04 0.32000000E+00 0.0000E+00 0.9000E+01
       25  1    1    2    0    0 -.31580055E+03 0.42313514E+03 0.29679359E+03 0.61845353E+03 0.12500000E+03 0.0000E+00 0.9000E+01
        2  1    1    2  501    0 0.26257206E+02 0.11714709E+02 0.45887464E+03 0.45977463E+03 0.32000000E+00 0.0000E+00 0.9000E+01
        1  1    1    2  502    0 0.28954334E+03 -.43484985E+03 -.15487728E+04 0.16345113E+04 0.32000000E+00 0.0000E+00 0.9000E+01
#aMCatNLO 1  0  0  1  4 0.96464369D+02 0.00000000D+00  -5  6  0 0.00000000D+00 0.00000000D+00 0.00000000D+00 0.00000000D+00 0.00000000D+00
  <mgrwgt>
 0.4699653153D-02    7    2    0
 0.129710641919436D+04 0.000000000000000D+00 0.000000000000000D+00 0.129710641919436D+04
 0.129710641919436D+04 0.000000000000000D+00 0.000000000000000D+00 -.129710641919436D+04
 0.737589050929122D+03 -.315829038719853D+03 0.423189381026160D+03 0.499575193678100D+03
 0.620909617245881D+03 0.262504841398132D+02 0.117117102483386D+02 0.620243904213423D+03
 0.123571417021373D+04 0.289578554580040D+03 -.434901091274499D+03 -.111981909789152D+04
 0.000000000000000D+00 0.000000000000000D+00 -.000000000000000D+00 0.000000000000000D+00
 0.155870116410105D+04 0.000000000000000D+00 0.000000000000000D+00 0.155870116410105D+04
 0.130692636165102D+04 0.000000000000000D+00 0.000000000000000D+00 -.130692636165102D+04
 0.756127888827365D+03 -.339888502787393D+03 0.437040977251516D+03 0.499575193678100D+03
 0.620710084526123D+03 0.625157818564797D+01 0.232255481895460D+02 0.620243904213423D+03
 0.121916773261406D+04 0.250037500074245D+03 -.412136381312485D+03 -.111981909789152D+04
 0.269621819784527D+03 0.835994245274998D+02 -.481301441285774D+02 0.251774802450033D+03
0.488396217143D-03 0.000000000000D+00 0.000000000000D+00 0.762893105841D-04 0.000000000000D+00  6 2 1 25 2 1 21 0 0.14766422D+00 0.26968031D+00 0.29914188D+06 0.29914188D+06 0.29914188D+06 0.10846439D+01  1  2  2  1  6  1        2 0.859902339044D-03 0.100000000000D+01
0.264574225602D-03 0.000000000000D+00 -.187557007151D-05 0.762893105841D-04 0.000000000000D+00  6 2 1 25 2 1 21 2 0.14766422D+00 0.26968031D+00 0.29914188D+06 0.29914188D+06 0.29914188D+06 0.10846439D+01  1  2  3  1  6  1        2 0.548022945168D-03 0.100000000000D+01
-.324571771804D-03 0.000000000000D+00 0.000000000000D+00 0.762893105841D-04 0.000000000000D+00  6 2 1 25 2 1 21 2 0.14766422D+00 0.26968031D+00 0.29914188D+06 0.29914188D+06 0.29914188D+06 0.10846439D+01  1  2 15  1  6  1        2 -.672298210068D-03 0.100000000000D+01
-.297924035023D-04 0.000000000000D+00 0.000000000000D+00 0.762893105841D-04 0.000000000000D+00  6 2 1 25 2 1 21 2 0.14766422D+00 0.26968031D+00 0.29914188D+06 0.29914188D+06 0.29914188D+06 0.10846439D+01  1  2  4  1  6  1        2 -.617101710259D-04 0.100000000000D+01
-.854186518690D-02 0.000000000000D+00 -.625165759008D-03 0.762893105841D-04 0.000000000000D+00  6 2 1 25 2 1 21 2 0.17798572D+00 0.26968031D+00 0.29914188D+06 0.29914188D+06 0.29914188D+06 0.10846439D+01  1  2  5  1  6  1        2 -.134279304892D-01 0.100000000000D+01
0.852034131044D-02 0.000000000000D+00 0.614419042676D-03 0.762893105841D-04 0.000000000000D+00  6 2 1 25 2 1 21 2 0.14766422D+00 0.26968031D+00 0.29914188D+06 0.29914188D+06 0.29914188D+06 0.10846439D+01  1  2  6  1  6  1        2 0.176485163215D-01 0.100000000000D+01
-.225459310741D-03 0.000000000000D+00 -.169690716711D-04 0.762893105841D-04 0.000000000000D+00  6 21 1 25 2 1 -2 2 0.17798572D+00 0.26968031D+00 0.29914188D+06 0.29914188D+06 0.29914188D+06 0.10846439D+01  1  2  5  5  6  1        2 -.194849582238D-03 0.100000000000D+01
  </mgrwgt>
  </event>
  <event>
  5     66 0.18337608E-05 0.93404509E+02 0.75467711E-02 0.79956802E-01
        2 -1    0    0  501    0 0.00000000E+00 0.00000000E+00 0.12863040E+04 0.12863040E+04 0.32000000E+00 0.0000E+00 0.9000E+01
        1 -1    0    0  502    0 0.00000000E+00 0.00000000E+00 -.13666040E+04 0.13666041E+04 0.32000000E+00 0.0000E+00 0.9000E+01
       25  1    1    2    0    0 0.34843332E+03 -.37618819E+03 -.31360189E+03 0.61391733E+03 0.12500000E+03 0.0000E+00 0.9000E+01
        2  1    1    2  501    0 -.31897854E+03 0.28755619E+03 0.10929426E+04 0.11742911E+04 0.32000000E+00 0.0000E+00 0.9000E+01
        1  1    1    2  502    0 -.29454773E+02 0.88631999E+02 -.85964075E+03 0.86469968E+03 0.32000000E+00 0.0000E+00 0.9000E+01
#aMCatNLO 1  0  0  1  5 0.13605831D+03 0.00000000D+00  -5  6  0 0.00000000D+00 0.00000000D+00 0.00000000D+00 0.00000000D+00 0.00000000D+00
  <mgrwgt>
 0.1938614321D-01    5    2    0
 0.132584625572425D+04 0.000000000000000D+00 0.000000000000000D+00 0.132584625572425D+04
 0.132584625572425D+04 0.000000000000000D+00 0.000000000000000D+00 -.132584625572425D+04
 0.604678187901699D+03 0.348431895592016D+03 -.376190803041866D+03 -.295104057520314D+03
 0.120791244027219D+04 -.318974847734686D+03 0.287552862015744D+03 0.112899108119750D+04
 0.839101883274621D+03 -.294570478573304D+02 0.886379410261225D+02 -.833887023677186D+03
 0.000000000000000D+00 -.000000000000000D+00 0.000000000000000D+00 0.000000000000000D+00
 0.322333432130057D+04 0.000000000000000D+00 0.000000000000000D+00 0.322333432130057D+04
 0.265867061466120D+04 0.000000000000000D+00 0.000000000000000D+00 -.265867061466120D+04
 0.121565809486177D+04 0.959879991243579D+03 -.673604929649580D+03 -.295104057520314D+03
 0.124139568111403D+04 0.503743899711227D+03 -.112625304300528D+03 0.112899108119750D+04
 0.105455583589206D+04 0.606619603014326D+03 -.220755747366944D+03 -.833887023677186D+03
 0.237039532409392D+04 -.207024349396913D+04 0.100698598131705D+04 0.564663706639375D+03
0.153077176291D-01 0.000000000000D+00 0.000000000000D+00 0.436298457032D-04 0.000000000000D+00  6 2 1 25 2 1 21 0 0.19789293D+00 0.21024678D+00 0.27595964D+06 0.27595964D+06 0.27595964D+06 0.10872459D+01  1  2  2  1  6  1        2 0.314768310561D-01 0.100000000000D+01
0.365494873326D-02 0.000000000000D+00 -.587856663105D-04 0.436298457032D-04 0.000000000000D+00  6 2 1 25 2 1 21 2 0.19789293D+00 0.21024678D+00 0.27595964D+06 0.27595964D+06 0.27595964D+06 0.10872459D+01  1  2  3  1  6  1        2 0.888418193264D-02 0.100000000000D+01
-.901736466681D-02 0.000000000000D+00 0.000000000000D+00 0.436298457032D-04 0.000000000000D+00  6 2 1 25 2 1 21 2 0.19789293D+00 0.21024678D+00 0.27595964D+06 0.27595964D+06 0.27595964D+06 0.10872459D+01  1  2 15  1  6  1        2 -.219187501931D-01 0.100000000000D+01
0.162930625194D-01 0.000000000000D+00 -.775585555546D-02 0.436298457032D-04 0.000000000000D+00  6 2 1 25 2 1 21 2 0.60305247D+00 0.21024678D+00 0.27595964D+06 0.27595964D+06 0.27595964D+06 0.10872459D+01  1  2  5  1  6  1        2 0.940924172263D-03 0.100000000000D+01
0.244776862650D-02 0.000000000000D+00 -.986227753211D-03 0.436298457032D-04 0.000000000000D+00  6 21 1 25 2 1 -2 2 0.60305247D+00 0.21024678D+00 0.27595964D+06 0.27595964D+06 0.27595964D+06 0.10872459D+01  1  2  5  5  6  1        2 0.295623984698D-05 0.100000000000D+01
  </mgrwgt>
  </event>
  <event>
  6     66 0.18337608E-05 0.56767483E+02 0.75467711E-02 0.94012444E-01
        2 -1    0    0  503    0 0.00000000E+00 0.00000000E+00 0.17271765E+04 0.17271765E+04 0.32000000E+00 0.0000E+00 0.9000E+01
        1 -1    0    0  502    0 0.00000000E+00 0.00000000E+00 -.20115425E+04 0.20115425E+04 0.32000000E+00 0.0000E+00 0.9000E+01
       25  1    1    2    0    0 -.48536343E+03 -.17425966E+03 -.29715423E+03 0.60816916E+03 0.12500000E+03 0.0000E+00 0.9000E+01
        2  1    1    2  501    0 0.44669142E+03 0.12877310E+03 0.11666745E+04 0.12558842E+04 0.32000000E+00 0.0000E+00 0.9000E+01
        1  1    1    2  502    0 0.24362329E+01 0.21112676E+00 -.15119417E+04 0.15119437E+04 0.32000000E+00 0.0000E+00 0.9000E+01
       21  1    1    2  503  501 0.36235778E+02 0.45275434E+02 0.35805552E+03 0.36272196E+03 0.75000000E+00 0.0000E+00 0.9000E+01
#aMCatNLO 2  0  0  1  1 0.57990487D+02 0.00000000D+00  -5  6  0 0.00000000D+00 0.00000000D+00 0.00000000D+00 0.00000000D+00 0.00000000D+00
  <mgrwgt>
 0.4595517199D-01    1    2    0
 0.165690132959148D+04 0.000000000000000D+00 0.000000000000000D+00 0.165690132959148D+04
 0.165690132959148D+04 0.000000000000000D+00 0.000000000000000D+00 -.165690132959148D+04
 0.554266714469681D+03 -.479257279208006D+03 -.166634657783248D+03 -.184748320481172D+03
 0.151225661327592D+04 0.463183941126399D+03 0.149384639934989D+03 0.143180478083811D+04
 0.124727933143735D+04 0.160733380816069D+02 0.172500178482587D+02 -.124705646035693D+04
 0.000000000000000D+00 0.000000000000000D+00 0.000000000000000D+00 0.000000000000000D+00
 0.209410612794655D+04 0.000000000000000D+00 0.000000000000000D+00 0.209410612794655D+04
 0.165907908304117D+04 0.000000000000000D+00 0.000000000000000D+00 -.165907908304117D+04
 0.561868837239433D+03 -.485359173141319D+03 -.174258777075228D+03 -.184748320481172D+03
 0.150538233140901D+04 0.446686560730887D+03 0.128771696230100D+03 0.143180478083811D+04
 0.124705885918504D+04 0.243683394043689D+01 0.211646576303263D+00 -.124705646035693D+04
 0.438875183154236D+03 0.362357784699949D+02 0.452754342688249D+02 0.435027044905379D+03
0.893727228837D-01 0.000000000000D+00 0.000000000000D+00 0.485473675497D-03 0.227370284923D-05  6 2 1 25 2 1 21 2 0.26571942D+00 0.30946802D+00 0.27875263D+06 0.27875263D+06 0.27875263D+06 0.10869201D+01  1  2  1  1  6  1        2 0.459551719942D-01 0.100000000000D+01
  </mgrwgt>
  </event>
  <event>
  5     66 -.18337608E-05 0.11775859E+02 0.75467711E-02 0.88256878E-01
        2 -1    0    0  501    0 0.00000000E+00 0.00000000E+00 0.11002173E+04 0.11002173E+04 0.32000000E+00 0.0000E+00 0.9000E+01
        1 -1    0    0  502    0 0.00000000E+00 0.00000000E+00 -.88844880E+03 0.88844885E+03 0.32000000E+00 0.0000E+00 0.9000E+01
       25  1    1    2    0    0 -.71548273E+03 -.56133356E+03 0.63683821E+00 0.91795224E+03 0.12500000E+03 0.0000E+00 0.9000E+01
        2  1    1    2  501    0 0.70667700E+03 0.55351562E+03 0.32617298E+03 0.95507112E+03 0.32000000E+00 0.0000E+00 0.9000E+01
        1  1    1    2  502    0 0.88057335E+01 0.78179330E+01 -.11504132E+03 0.11564285E+03 0.32000000E+00 0.0000E+00 0.9000E+01
#aMCatNLO 1  0  0  1  1 0.57990487D+02 0.00000000D+00  -5  6  0 0.00000000D+00 0.00000000D+00 0.00000000D+00 0.00000000D+00 0.00000000D+00
  <mgrwgt>
 -.5781589523D-04    1    2    0
 0.988679340296182D+03 0.000000000000000D+00 0.000000000000000D+00 0.988679340296182D+03
 0.988679340296182D+03 0.000000000000000D+00 0.000000000000000D+00 -.988679340296182D+03
 0.923133574535323D+03 -.715482950361935D+03 -.561333728649832D+03 -.976687731868284D+02
 0.925600453265392D+03 0.706676888521065D+03 0.553515536611877D+03 0.225753239278094D+03
 0.128624652791648D+03 0.880606184087014D+01 0.781819203795510D+01 -.128084466091265D+03
 0.000000000000000D+00 0.000000000000000D+00 0.000000000000000D+00 0.000000000000000D+00
 0.116761077923274D+04 0.000000000000000D+00 0.000000000000000D+00 0.116761077923274D+04
 0.108466786098100D+04 0.000000000000000D+00 0.000000000000000D+00 -.108466786098100D+04
 0.103710559908870D+04 -.781036204824091D+03 -.663631133355943D+03 -.976687731868284D+02
 0.827298276574775D+03 0.648057400639306D+03 0.462038438720922D+03 0.225753239278094D+03
 0.128206349583146D+03 0.217258862650194D+00 -.558483823739525D+01 -.128084466091265D+03
 0.259668414967123D+03 0.132761545322135D+03 0.207177532872416D+03 0.829429182517437D+02
-.931029284918D-05 0.000000000000D+00 0.000000000000D+00 0.235647992925D-06 0.000000000000D+00  6 2 1 25 2 1 21 2 0.16926421D+00 0.13668444D+00 0.83482577D+06 0.83482577D+06 0.83482577D+06 0.10531233D+01  1  2 14  1  6  1        2 -.578158952254D-04 0.100000000000D+01
  </mgrwgt>
  </event>
  <event>
  5     66 0.18337608E-05 0.24422364E+02 0.75467711E-02 0.94172285E-01
        2 -1    0    0  501    0 0.00000000E+00 0.00000000E+00 0.86862860E+03 0.86862866E+03 0.32000000E+00 0.0000E+00 0.9000E+01
        1 -1    0    0  502    0 0.00000000E+00 0.00000000E+00 -.34821701E+03 0.34821715E+03 0.32000000E+00 0.0000E+00 0.9000E+01
       25  1    1    2    0    0 -.11108731E+03 0.49319481E+03 0.24878149E+03 0.57714707E+03 0.12500000E+03 0.0000E+00 0.9000E+01
        2  1    1    2  501    0 -.19271311E+02 -.15139434E+02 0.11858573E+03 0.12109196E+03 0.32000000E+00 0.0000E+00 0.9000E+01
        1  1    1    2  502    0 0.13035862E+03 -.47805538E+03 0.15304438E+03 0.51860678E+03 0.32000000E+00 0.0000E+00 0.9000E+01
#aMCatNLO 1  0  0  5  2 0.82083616D+02 0.00000000D+00  -5  6  0 0.00000000D+00 0.00000000D+00 0.00000000D+00 0.00000000D+00 0.00000000D+00
  <mgrwgt>
 0.1128662951D-01    3    2    0
 0.549973978470370D+03 0.000000000000000D+00 0.000000000000000D+00 0.549973978470370D+03
 0.549973978470370D+03 -.000000000000000D+00 -.000000000000000D+00 -.549973978470370D+03
 0.520903069480123D+03 -.111159768553647D+03 0.493308350877582D+03 0.232047481204656D+01
 0.775863061191309D+02 -.192048709485322D+02 -.150872389657675D+02 0.736422640163347D+02
 0.501458581341485D+03 0.130364639502179D+03 -.478221111911815D+03 -.759627388283813D+02
 0.000000000000000D+00 -.000000000000000D+00 0.000000000000000D+00 0.000000000000000D+00
 0.549973978470370D+03 0.000000000000000D+00 0.000000000000000D+00 0.549973978470370D+03
 0.549973978470370D+03 -.000000000000000D+00 -.000000000000000D+00 -.549973978470370D+03
 0.318751413894564D+03 -.547656463240334D+02 0.286435843570984D+03 -.305400615630212D+02
 0.877094293595342D+02 -.810303311500751D+01 -.558124943209521D+02 0.671732858403242D+02
 0.413090153149450D+03 0.205058149154539D+03 -.301287082679492D+03 0.194475509781648D+03
 0.280396960537191D+03 -.142189469715498D+03 0.706637334294602D+02 -.231108734058951D+03
0.527507231464D-03 0.000000000000D+00 0.000000000000D+00 0.957609953642D-07 0.000000000000D+00  6 2 1 25 2 1 21 0 0.13363519D+00 0.53571863D-01 0.27091603D+06 0.27091603D+06 0.27091603D+06 0.10878437D+01  1  2  2  4  6  5        1 0.170440923021D-01 0.100000000000D+01
0.171274954974D-03 0.000000000000D+00 -.202576666467D-05 0.957609953642D-07 0.000000000000D+00  6 2 1 25 2 1 21 2 0.13363519D+00 0.53571863D-01 0.27091603D+06 0.27091603D+06 0.27091603D+06 0.10878437D+01  1  2  3  4  6  5        1 0.654895934652D-02 0.100000000000D+01
-.321849897898D-03 0.000000000000D+00 0.000000000000D+00 0.957609953642D-07 0.000000000000D+00  6 2 1 25 2 1 21 2 0.13363519D+00 0.53571863D-01 0.27091603D+06 0.27091603D+06 0.27091603D+06 0.10878437D+01  1  2 15  4  6  5        1 -.123064221348D-01 0.100000000000D+01
  </mgrwgt>
  </event>
  <event>
  5     66 -.18337608E-05 0.35662378E+02 0.75467711E-02 0.92347676E-01
        2 -1    0    0  501    0 0.00000000E+00 0.00000000E+00 0.30465040E+04 0.30465040E+04 0.32000000E+00 0.0000E+00 0.9000E+01
        1 -1    0    0  502    0 0.00000000E+00 0.00000000E+00 -.61740466E+03 0.61740474E+03 0.32000000E+00 0.0000E+00 0.9000E+01
       25  1    1    2    0    0 -.50194051E+03 -.28350269E+03 0.15659446E+04 0.16733575E+04 0.12500000E+03 0.0000E+00 0.9000E+01
        2  1    1    2  501    0 -.10626670E+02 -.34054144E+02 0.12652875E+04 0.12657904E+04 0.32000000E+00 0.0000E+00 0.9000E+01
        1  1    1    2  502    0 0.51256718E+03 0.31755684E+03 -.40213275E+03 0.72476086E+03 0.32000000E+00 0.0000E+00 0.9000E+01
#aMCatNLO 1  0  0  4  1 0.38752197D+00 0.00000000D+00  -5  6  0 0.00000000D+00 0.00000000D+00 0.00000000D+00 0.00000000D+00 0.00000000D+00
  <mgrwgt>
 -.1902025756D-01    7    2    0
 0.137146853340697D+04 0.000000000000000D+00 0.000000000000000D+00 0.137146853340697D+04
 0.137146853340697D+04 -.000000000000000D+00 -.000000000000000D+00 -.137146853340697D+04
 0.848598649035797D+03 -.502001652277208D+03 -.283548204092615D+03 0.609991331259868D+03
 0.570095414524066D+03 -.106233053560669D+02 -.340433630003659D+02 0.568978889309879D+03
 0.132424300325407D+04 0.512624957633275D+03 0.317591567092981D+03 -.117897022056975D+04
 0.000000000000000D+00 0.000000000000000D+00 0.000000000000000D+00 0.000000000000000D+00
 0.137146853340697D+04 0.000000000000000D+00 0.000000000000000D+00 0.137146853340697D+04
 0.137146853340697D+04 -.000000000000000D+00 -.000000000000000D+00 -.137146853340697D+04
 0.848598932918568D+03 -.502001659345635D+03 -.283548226744043D+03 0.609991709841266D+03
 0.697826676244860D+02 -.101259393413383D+01 -.442640438318420D+01 0.696347779385463D+02
 0.132424246453844D+04 0.512624946602958D+03 0.317591531745313D+03 -.117896962979155D+04
 0.500313001732443D+03 -.961069332318952D+01 -.296169006180868D+02 0.499343142011737D+03
0.135217541930D-04 0.000000000000D+00 0.000000000000D+00 0.377916823144D-04 0.000000000000D+00  6 2 1 25 2 1 21 0 0.46869293D+00 0.94985340D-01 0.37738674D+06 0.37738674D+06 0.37738674D+06 0.10772543D+01  1  2  2  3  6  4        2 0.106210490616D-04 0.100000000000D+01
0.617347385299D-05 0.000000000000D+00 -.519270964608D-07 0.377916823144D-04 0.000000000000D+00  6 2 1 25 2 1 21 2 0.46869293D+00 0.94985340D-01 0.37738674D+06 0.37738674D+06 0.37738674D+06 0.10772543D+01  1  2  3  3  6  4        2 0.562730519113D-05 0.100000000000D+01
-.981433016805D-05 0.000000000000D+00 0.000000000000D+00 0.377916823144D-04 0.000000000000D+00  6 2 1 25 2 1 21 2 0.46869293D+00 0.94985340D-01 0.37738674D+06 0.37738674D+06 0.37738674D+06 0.10772543D+01  1  2 15  3  6  4        2 -.894605410459D-05 0.100000000000D+01
-.298976531711D+00 0.000000000000D+00 0.000000000000D+00 0.377916823144D-04 0.000000000000D+00  6 2 1 25 2 1 21 2 0.46869293D+00 0.94985340D-01 0.37738674D+06 0.37738674D+06 0.37738674D+06 0.10772543D+01  1  2  4  3  6  4        2 -.272526008693D+00 0.100000000000D+01
-.120889337246D+00 0.000000000000D+00 0.000000000000D+00 0.377916823144D-04 0.000000000000D+00  6 2 1 25 2 1 21 2 0.46869293D+00 0.94985340D-01 0.37738674D+06 0.37738674D+06 0.37738674D+06 0.10772543D+01  1  2  5  3  6  4        2 -.110194229576D+00 0.100000000000D+01
0.276818592588D+00 0.000000000000D+00 -.000000000000D+00 0.377916823144D-04 0.000000000000D+00  6 2 1 25 2 1 21 2 0.46869293D+00 0.94985340D-01 0.37738674D+06 0.37738674D+06 0.37738674D+06 0.10772543D+01  1  2  6  3  6  4        2 0.252328387577D+00 0.100000000000D+01
0.122173403595D+00 0.000000000000D+00 0.000000000000D+00 0.377916823144D-04 0.977814200807D-04  6 2 1 25 2 1 21 2 0.46869293D+00 0.94985340D-01 0.37739631D+06 0.37739631D+06 0.37739631D+06 0.10772535D+01  1  2 11  3  6  4        2 0.111364290830D+00 0.100000000000D+01
  </mgrwgt>
  </event>
  <event>
  5     66 -.18337608E-05 0.24904117E+03 0.75467711E-02 0.94425069E-01
        2 -1    0    0  501    0 0.00000000E+00 0.00000000E+00 0.35042563E+04 0.35042563E+04 0.32000000E+00 0.0000E+00 0.9000E+01
        1 -1    0    0  502    0 0.00000000E+00 0.00000000E+00 -.21222472E+03 0.21222496E+03 0.32000000E+00 0.0000E+00 0.9000E+01
       25  1    1    2    0    0 -.32181843E+03 0.36571605E+03 0.10604732E+04 0.11736881E+04 0.12500000E+03 0.0000E+00 0.9000E+01
        2  1    1    2  501    0 0.10417522E+03 -.24475910E+03 0.22746022E+04 0.22901036E+04 0.32000000E+00 0.0000E+00 0.9000E+01
        1  1    1    2  502    0 0.21764321E+03 -.12095695E+03 -.43043764E+02 0.25268957E+03 0.32000000E+00 0.0000E+00 0.9000E+01
#aMCatNLO 1  0  0  5  2 0.60836178D+01 0.00000000D+00  -5  6  0 0.00000000D+00 0.00000000D+00 0.00000000D+00 0.00000000D+00 0.00000000D+00
  <mgrwgt>
 -.2323958281D-01    9    2    0
 0.862374790869924D+03 0.000000000000000D+00 0.000000000000000D+00 0.862374790869924D+03
 0.862374790869924D+03 -.000000000000000D+00 -.000000000000000D+00 -.862374790869924D+03
 0.504949624125145D+03 -.321841138322475D+03 0.365707357189185D+03 0.450059272220975D+02
 0.593084580421488D+03 0.104160701478119D+03 -.244724998591685D+03 0.530103332252891D+03
 0.626715377193214D+03 0.217680436844356D+03 -.120982358597499D+03 -.575109259474988D+03
 0.000000000000000D+00 0.000000000000000D+00 0.000000000000000D+00 -.000000000000000D+00
 0.862374790869924D+03 0.000000000000000D+00 0.000000000000000D+00 0.862374790869924D+03
 0.862374790869924D+03 -.000000000000000D+00 -.000000000000000D+00 -.862374790869924D+03
 0.504877123317278D+03 -.321784274835827D+03 0.365675753620061D+03 0.448556945315936D+02
 0.592953932295056D+03 0.104227487474135D+03 -.244762116889666D+03 0.529926884404527D+03
 0.591597735909669D+03 0.209741056512392D+03 -.117820659037777D+03 -.540476514430013D+03
 0.353207902178437D+02 0.781573084930021D+01 -.309297769261754D+01 -.343060645061072D+02
0.938389086548D-04 0.000000000000D+00 0.000000000000D+00 0.108413431496D-05 0.000000000000D+00  6 2 1 25 2 1 21 0 0.53911638D+00 0.32649976D-01 0.25905587D+06 0.25905587D+06 0.25905587D+06 0.10892985D+01  1  2  2  4  6  5        1 0.159976942624D-03 0.100000000000D+01
0.789218923882D-05 0.000000000000D+00 -.360366117586D-06 0.108413431496D-05 0.000000000000D+00  6 2 1 25 2 1 21 2 0.53911638D+00 0.32649976D-01 0.25905587D+06 0.25905587D+06 0.25905587D+06 0.10892985D+01  1  2  3  4  6  5        1 0.159648818499D-04 0.100000000000D+01
-.610907143208D-04 0.000000000000D+00 0.000000000000D+00 0.108413431496D-05 0.000000000000D+00  6 2 1 25 2 1 21 2 0.53911638D+00 0.32649976D-01 0.25905587D+06 0.25905587D+06 0.25905587D+06 0.10892985D+01  1  2 15  4  6  5        1 -.123578642978D-03 0.100000000000D+01
0.662055721348D-02 0.000000000000D+00 0.000000000000D+00 0.108413431496D-05 0.000000000000D+00  6 2 1 25 2 1 21 2 0.53911638D+00 0.32649976D-01 0.25902196D+06 0.25902196D+06 0.25902196D+06 0.10893027D+01  1  2 12  4  6  5        1 0.133927736747D-01 0.100000000000D+01
0.186353827550D-06 0.000000000000D+00 0.000000000000D+00 0.108413431496D-05 0.000000000000D+00  6 2 1 25 2 1 21 2 0.53911638D+00 0.32649976D-01 0.25902196D+06 0.25902196D+06 0.25902196D+06 0.10893027D+01  1  2 12  4  6  5        1 0.376976522567D-06 0.100000000000D+01
-.308611238230D-01 0.000000000000D+00 0.000000000000D+00 0.108413431496D-05 0.000000000000D+00  6 2 1 25 2 1 21 2 0.53911638D+00 0.32649976D-01 0.25905587D+06 0.25905587D+06 0.25905587D+06 0.10892985D+01  1  2  4  4  6  5        1 -.624280767580D-01 0.100000000000D+01
-.128835096233D-01 0.000000000000D+00 0.000000000000D+00 0.108413431496D-05 0.000000000000D+00  6 2 1 25 2 1 21 2 0.53911638D+00 0.32649976D-01 0.25905587D+06 0.25905587D+06 0.25905587D+06 0.10892985D+01  1  2  5  4  6  5        1 -.260616798107D-01 0.100000000000D+01
0.136300324642D-01 0.000000000000D+00 -.000000000000D+00 0.108413431496D-05 0.000000000000D+00  6 2 1 25 2 1 21 2 0.53911638D+00 0.32649976D-01 0.25905587D+06 0.25905587D+06 0.25905587D+06 0.10892985D+01  1  2  6  4  6  5        1 0.275717993217D-01 0.100000000000D+01
0.119792243173D-01 0.000000000000D+00 0.000000000000D+00 0.108413431496D-05 0.469387997682D-06  6 2 1 25 2 1 21 2 0.53911638D+00 0.32649976D-01 0.25902196D+06 0.25902196D+06 0.25902196D+06 0.10893027D+01  1  2 11  4  6  5        1 0.242328606048D-01 0.100000000000D+01
  </mgrwgt>
  </event>
  <event>
  5     66 0.18337608E-05 0.40527658E+02 0.75467711E-02 0.93678782E-01
        2 -1    0    0  501    0 0.00000000E+00 0.00000000E+00 0.10670838E+04 0.10670839E+04 0.32000000E+00 0.0000E+00 0.9000E+01
        1 -1    0    0  502    0 0.00000000E+00 0.00000000E+00 -.77991550E+03 0.77991556E+03 0.32000000E+00 0.0000E+00 0.9000E+01
       25  1    1    2    0    0 0.44413791E+03 -.22167378E+03 0.34639055E+02 0.51305226E+03 0.12500000E+03 0.0000E+00 0.9000E+01
        2  1    1    2  501    0 -.47264830E+03 0.25047194E+03 0.70204431E+03 0.88260916E+03 0.32000000E+00 0.0000E+00 0.9000E+01
        1  1    1    2  502    0 0.28510390E+02 -.28798157E+02 -.44951501E+03 0.45133804E+03 0.32000000E+00 0.0000E+00 0.9000E+01
#aMCatNLO 1  0  0  2  2 0.85102782D+00 0.00000000D+00  -5  6  0 0.00000000D+00 0.00000000D+00 0.00000000D+00 0.00000000D+00 0.00000000D+00
  <mgrwgt>
 0.1365440951D-01   10    2    0
 0.912269331866127D+03 0.000000000000000D+00 0.000000000000000D+00 0.912269331866127D+03
 0.912269331866127D+03 0.000000000000000D+00 0.000000000000000D+00 -.912269331866127D+03
 0.513889944119088D+03 0.444120105476829D+03 -.221662922293472D+03 -.456152985114495D+02
 0.782952893691851D+03 -.472633154045237D+03 0.250463913441102D+03 0.571752536943617D+03
 0.527695825921314D+03 0.285130485684083D+02 -.288009911476306D+02 -.526137238432167D+03
 0.000000000000000D+00 0.000000000000000D+00 -.000000000000000D+00 -.000000000000000D+00
 0.912357390725932D+03 0.000000000000000D+00 0.000000000000000D+00 0.912357390725932D+03
 0.914327899320392D+03 0.000000000000000D+00 0.000000000000000D+00 -.914327899320392D+03
 0.513703816468354D+03 0.444011280945188D+03 -.221449402774712D+03 -.456152985114495D+02
 0.783157170490208D+03 -.472799008686214D+03 0.250789329067446D+03 0.571752536943617D+03
 0.527677875248058D+03 0.284012820774657D+02 -.285816993482562D+02 -.526137238432167D+03
 0.214642783970465D+01 0.386445663559665D+00 -.758226944477832D+00 -.197050859446055D+01
0.193498577790D-03 0.000000000000D+00 0.000000000000D+00 0.942207349818D-05 0.000000000000D+00  6 2 1 25 2 1 21 0 0.16416675D+00 0.11998701D+00 0.29554749D+06 0.29554749D+06 0.29554749D+06 0.10850326D+01  1  2  2  2  6  2        1 0.147579604254D-02 0.100000000000D+01
0.913802843891D-04 0.000000000000D+00 -.743085488059D-06 0.942207349818D-05 0.000000000000D+00  6 2 1 25 2 1 21 2 0.16416675D+00 0.11998701D+00 0.29554749D+06 0.29554749D+06 0.29554749D+06 0.10850326D+01  1  2  3  2  6  2        1 0.820515293463D-03 0.100000000000D+01
-.113366682682D-03 0.000000000000D+00 0.000000000000D+00 0.942207349818D-05 0.000000000000D+00  6 2 1 25 2 1 21 2 0.16416675D+00 0.11998701D+00 0.29554749D+06 0.29554749D+06 0.29554749D+06 0.10850326D+01  1  2 15  2  6  2        1 -.101793398359D-02 0.100000000000D+01
-.254724919403D-02 0.000000000000D+00 0.000000000000D+00 0.942207349818D-05 0.000000000000D+00  6 2 1 25 2 1 21 2 0.16416675D+00 0.11998701D+00 0.29554749D+06 0.29554749D+06 0.29554749D+06 0.10850326D+01  1  2  4  2  6  2        1 -.228720772094D-01 0.100000000000D+01
-.406808647879D+00 0.000000000000D+00 -.180026518777D-01 0.942207349818D-05 0.000000000000D+00  6 2 1 25 2 1 21 2 0.16416675D+00 0.12026331D+00 0.29554749D+06 0.29554749D+06 0.29554749D+06 0.10850326D+01  1  2  5  2  6  2        1 -.363950999378D+01 0.100000000000D+01
0.406849027390D+00 0.000000000000D+00 0.180026042561D-01 0.942207349818D-05 0.000000000000D+00  6 2 1 25 2 1 21 2 0.16416675D+00 0.11998701D+00 0.29554749D+06 0.29554749D+06 0.29554749D+06 0.10850326D+01  1  2  6  2  6  2        1 0.365314959715D+01 0.100000000000D+01
0.252139853230D-02 0.000000000000D+00 0.000000000000D+00 0.942207349818D-05 0.457569540673D-05  6 2 1 25 2 1 21 2 0.16418260D+00 0.12025776D+00 0.29594379D+06 0.29594379D+06 0.29594379D+06 0.10849895D+01  1  2 11  2  6  2        1 0.225528594080D-01 0.100000000000D+01
0.594538580062D-15 0.000000000000D+00 0.000000000000D+00 0.942207349818D-05 0.000000000000D+00  6 2 21 25 2 1 -1 2 0.16416675D+00 0.12026556D+00 0.29594379D+06 0.29594379D+06 0.29594379D+06 0.10849895D+01  1  2 12  6  6  2        1 0.951094037921D-14 0.100000000000D+01
-.174805375186D-03 0.000000000000D+00 -.773730181446D-05 0.942207349818D-05 0.000000000000D+00  6 2 21 25 2 1 -1 2 0.16416675D+00 0.12026331D+00 0.29554749D+06 0.29554749D+06 0.29554749D+06 0.10850326D+01  1  2  5  6  6  2        1 -.279707782775D-02 0.100000000000D+01
0.115811588313D-03 0.000000000000D+00 0.000000000000D+00 0.942207349818D-05 0.429787883441D-07  6 2 21 25 2 1 -1 2 0.16418260D+00 0.12025776D+00 0.29594379D+06 0.29594379D+06 0.29594379D+06 0.10849895D+01  1  2 11  6  6  2        1 0.185272441420D-02 0.100000000000D+01
  </mgrwgt>
  </event>
  <event>
  6     66 0.18337608E-05 0.20857964E+02 0.75467711E-02 0.91234273E-01
        2 -1    0    0  501    0 0.00000000E+00 0.00000000E+00 0.18395207E+04 0.18395207E+04 0.32000000E+00 0.0000E+00 0.9000E+01
        1 -1    0    0  503    0 0.00000000E+00 0.00000000E+00 -.11609865E+04 0.11609866E+04 0.32000000E+00 0.0000E+00 0.9000E+01
       25  1    1    2    0    0 0.35864414E+02 0.63955240E+03 0.73174975E+03 0.98050815E+03 0.12500000E+03 0.0000E+00 0.9000E+01
        2  1    1    2  501    0 -.20329559E+02 -.10225909E+02 0.86582269E+03 0.86612176E+03 0.32000000E+00 0.0000E+00 0.9000E+01
        1  1    1    2  502    0 -.34687542E+02 -.65525271E+03 -.82294872E+03 0.10525227E+04 0.32000000E+00 0.0000E+00 0.9000E+01
       21  1    1    2  503  502 0.19152687E+02 0.25926221E+02 -.96089586E+02 0.10135465E+03 0.75000000E+00 0.0000E+00 0.9000E+01
#aMCatNLO 2  0  0  2  2 0.85102782D+00 0.00000000D+00  -5  6  0 0.00000000D+00 0.00000000D+00 0.00000000D+00 0.00000000D+00 0.00000000D+00
  <mgrwgt>
 0.2288251037D-01    4    2    0
 0.139678246122771D+04 0.000000000000000D+00 0.000000000000000D+00 0.139678246122771D+04
 0.139678246122771D+04 0.000000000000000D+00 0.000000000000000D+00 -.139678246122771D+04
 0.820985388926624D+03 0.414701474365995D+02 0.647211506319753D+03 0.487636649350624D+03
 0.658379198031637D+03 -.158102056114158D+02 -.411249618705357D+01 0.658176490900745D+03
 0.131420033549715D+04 -.256599418251838D+02 -.643099010132699D+03 -.114581314025137D+04
 0.000000000000000D+00 0.000000000000000D+00 0.000000000000000D+00 -.000000000000000D+00
 0.139887630320817D+04 0.000000000000000D+00 0.000000000000000D+00 0.139887630320817D+04
 0.152669364825902D+04 0.000000000000000D+00 0.000000000000000D+00 -.152669364825902D+04
 0.814749147205869D+03 0.358630343948003D+02 0.639621383200081D+03 0.487636649350624D+03
 0.658569585193688D+03 -.203245571364888D+02 -.102233920483195D+02 0.658176490900745D+03
 0.132043214595618D+04 -.346911640808642D+02 -.655324212002312D+03 -.114581314025137D+04
 0.131819073111457D+03 0.191526868225527D+02 0.259262208505496D+02 -.127817345050856D+03
-.390713274197D-03 0.000000000000D+00 0.000000000000D+00 0.521759516968D-04 0.000000000000D+00  6 2 1 25 2 1 21 2 0.28257937D+00 0.16341442D+00 0.43587873D+06 0.43587873D+06 0.43587873D+06 0.10727486D+01  1  2  8  2  6  2        1 -.732924012919D-03 0.100000000000D+01
-.677969219824D-03 0.000000000000D+00 0.000000000000D+00 0.521759516968D-04 0.000000000000D+00  6 2 1 25 2 1 21 2 0.28257937D+00 0.17872108D+00 0.43587873D+06 0.43587873D+06 0.43587873D+06 0.10727486D+01  1  2  9  2  6  2        1 -.107451294953D-02 0.100000000000D+01
0.675260673204D-03 0.000000000000D+00 0.000000000000D+00 0.521759516968D-04 0.000000000000D+00  6 2 1 25 2 1 21 2 0.28257937D+00 0.16341442D+00 0.43587873D+06 0.43587873D+06 0.43587873D+06 0.10727486D+01  1  2 10  2  6  2        1 0.126669554135D-02 0.100000000000D+01
0.149392018854D-01 0.000000000000D+00 0.000000000000D+00 0.521759516968D-04 0.135967043976D-06  6 2 1 25 2 1 21 2 0.28300297D+00 0.17861318D+00 0.46507855D+06 0.46507855D+06 0.46507855D+06 0.10707398D+01  1  2  1  2  6  2        1 0.234232517914D-01 0.100000000000D+01
  </mgrwgt>
  </event>
  <event>
  5     66 -.18337608E-05 0.72680388E+02 0.75467711E-02 0.95238985E-01
        2 -1    0    0  501    0 0.00000000E+00 0.00000000E+00 0.16710491E+04 0.16710491E+04 0.32000000E+00 0.0000E+00 0.9000E+01
        1 -1    0    0  502    0 0.00000000E+00 0.00000000E+00 -.14727083E+04 0.14727084E+04 0.32000000E+00 0.0000E+00 0.9000E+01
       25  1    1    2    0    0 -.12532953E+03 0.44759439E+03 0.40126897E+03 0.62664983E+03 0.12500000E+03 0.0000E+00 0.9000E+01
        2  1    1    2  501    0 0.10188708E+03 -.37880563E+03 0.11228198E+04 0.11893692E+04 0.32000000E+00 0.0000E+00 0.9000E+01
        1  1    1    2  502    0 0.23442453E+02 -.68788759E+02 -.13257480E+04 0.13277385E+04 0.32000000E+00 0.0000E+00 0.9000E+01
#aMCatNLO 1  0  0  4  1 0.27120141D+02 0.00000000D+00  -5  6  0 0.00000000D+00 0.00000000D+00 0.00000000D+00 0.00000000D+00 0.00000000D+00
  <mgrwgt>
 -.9614365717D-01    8    2    0
 0.156874728971646D+04 0.000000000000000D+00 0.000000000000000D+00 0.156874728971646D+04
 0.156874728971646D+04 -.000000000000000D+00 -.000000000000000D+00 -.156874728971646D+04
 0.602582961068235D+03 -.125324294378676D+03 0.447573210619460D+03 0.362564845709063D+03
 0.112068097812859D+04 0.101879638195581D+03 -.378777957047888D+03 0.104979695813762D+04
 0.141423064023609D+04 0.234446561830954D+02 -.687952535715720D+02 -.141236180384669D+04
 0.000000000000000D+00 0.000000000000000D+00 0.000000000000000D+00 0.000000000000000D+00
 0.156874728971646D+04 0.000000000000000D+00 0.000000000000000D+00 0.156874728971646D+04
 0.156874728971646D+04 -.000000000000000D+00 -.000000000000000D+00 -.156874728971646D+04
 0.602678673071259D+03 -.125294691231252D+03 0.447463149179293D+03 0.362869885014931D+03
 0.826411944953321D+03 0.663016024803651D+02 -.303562807776778D+03 0.765774393672670D+03
 0.141352965429424D+04 0.235141104845584D+02 -.690534774805128D+02 -.141164612684099D+04
 0.294874307114091D+03 0.354789782663288D+02 -.748468639220019D+02 0.283001848153389D+03
0.641477688409D-03 0.000000000000D+00 0.000000000000D+00 0.209422598965D-03 0.000000000000D+00  6 2 1 25 2 1 21 0 0.25708448D+00 0.22657052D+00 0.22383485D+06 0.22383485D+06 0.22383485D+06 0.10940895D+01  1  2  2  3  6  4        2 0.696212024692D-03 0.100000000000D+01
0.228961497187D-03 0.000000000000D+00 -.246344322845D-05 0.209422598965D-03 0.000000000000D+00  6 2 1 25 2 1 21 2 0.25708448D+00 0.22657052D+00 0.22383485D+06 0.22383485D+06 0.22383485D+06 0.10940895D+01  1  2  3  3  6  4        2 0.297459713476D-03 0.100000000000D+01
-.405407389522D-03 0.000000000000D+00 0.000000000000D+00 0.209422598965D-03 0.000000000000D+00  6 2 1 25 2 1 21 2 0.25708448D+00 0.22657052D+00 0.22383485D+06 0.22383485D+06 0.22383485D+06 0.10940895D+01  1  2 15  3  6  4        2 -.526692773283D-03 0.100000000000D+01
0.723078017983D-01 0.000000000000D+00 0.000000000000D+00 0.209422598965D-03 0.000000000000D+00  6 2 1 25 2 1 21 2 0.25708448D+00 0.22657052D+00 0.22452887D+06 0.22452887D+06 0.22452887D+06 0.10939874D+01  1  2 12  3  6  4        2 0.938997022981D-01 0.100000000000D+01
0.734781066660D-09 0.000000000000D+00 0.000000000000D+00 0.209422598965D-03 0.000000000000D+00  6 2 1 25 2 1 21 2 0.25708448D+00 0.22657052D+00 0.22452887D+06 0.22452887D+06 0.22452887D+06 0.10939874D+01  1  2 12  3  6  4        2 0.954194729999D-09 0.100000000000D+01
-.168767115291D+00 0.000000000000D+00 0.000000000000D+00 0.209422598965D-03 0.000000000000D+00  6 2 1 25 2 1 21 2 0.25708448D+00 0.22657052D+00 0.22383485D+06 0.22383485D+06 0.22383485D+06 0.10940895D+01  1  2  4  3  6  4        2 -.219257029568D+00 0.100000000000D+01
-.747069501859D-01 0.000000000000D+00 0.000000000000D+00 0.209422598965D-03 0.000000000000D+00  6 2 1 25 2 1 21 2 0.25708448D+00 0.22657052D+00 0.22383485D+06 0.22383485D+06 0.22383485D+06 0.10940895D+01  1  2  5  3  6  4        2 -.970569649046D-01 0.100000000000D+01
0.968339304943D-01 0.000000000000D+00 -.000000000000D+00 0.209422598965D-03 0.000000000000D+00  6 2 1 25 2 1 21 2 0.25708448D+00 0.22657052D+00 0.22383485D+06 0.22383485D+06 0.22383485D+06 0.10940895D+01  1  2  6  3  6  4        2 0.125803655084D+00 0.100000000000D+01
  </mgrwgt>
  </event>
  <event>
  5     66 -.18337608E-05 0.11675852E+03 0.75467711E-02 0.93109765E-01
        2 -1    0    0  501    0 0.00000000E+00 0.00000000E+00 0.20390275E+04 0.20390275E+04 0.32000000E+00 0.0000E+00 0.9000E+01
        1 -1    0    0  502    0 0.00000000E+00 0.00000000E+00 -.11877883E+04 0.11877884E+04 0.32000000E+00 0.0000E+00 0.9000E+01
       25  1    1    2    0    0 0.45437364E+03 0.33046009E+03 -.35555496E+03 0.67653796E+03 0.12500000E+03 0.0000E+00 0.9000E+01
        2  1    1    2  501    0 -.79792273E+02 -.85242186E+02 0.18018377E+04 0.18056169E+04 0.32000000E+00 0.0000E+00 0.9000E+01
        1  1    1    2  502    0 -.37458137E+03 -.24521790E+03 -.59504364E+03 0.74466103E+03 0.32000000E+00 0.0000E+00 0.9000E+01
#aMCatNLO 1  0  0  1  4 0.10302522D+02 0.00000000D+00  -5  6  0 0.00000000D+00 0.00000000D+00 0.00000000D+00 0.00000000D+00 0.00000000D+00
  <mgrwgt>
 -.1194284014D+00   11    2    0
 0.155625614300398D+04 0.000000000000000D+00 0.000000000000000D+00 0.155625614300398D+04
 0.155625614300398D+04 0.000000000000000D+00 0.000000000000000D+00 -.155625614300398D+04
 0.798624359362809D+03 0.454401174802846D+03 0.330478443821977D+03 -.553605850650492D+03
 0.137911810765671D+04 -.797908546415219D+02 -.852406705713012D+02 0.137416673022700D+04
 0.934769818988444D+03 -.374610320161324D+03 -.245237773250676D+03 -.820560879576505D+03
 0.000000000000000D+00 -.000000000000000D+00 -.000000000000000D+00 0.000000000000000D+00
 0.205757731647697D+04 0.000000000000000D+00 0.000000000000000D+00 0.205757731647697D+04
 0.155631760042189D+04 0.000000000000000D+00 0.000000000000000D+00 -.155631760042189D+04
 0.800339301337254D+03 0.455758683362434D+03 0.332750029196526D+03 -.553605850650492D+03
 0.137874798172151D+04 -.774494463190284D+02 -.813226776690397D+02 0.137416673022700D+04
 0.933442053752043D+03 -.373024221821067D+03 -.242583677431626D+03 -.820560879576505D+03
 0.501365580088057D+03 -.528501522233914D+01 -.884367409586060D+01 0.501259716055080D+03
0.483247167915D-04 0.000000000000D+00 0.000000000000D+00 0.230928678876D-04 0.000000000000D+00  6 2 1 25 2 1 21 0 0.31369654D+00 0.18273667D+00 0.32496130D+06 0.32496130D+06 0.32496130D+06 0.10819931D+01  1  2  2  1  6  1        2 0.504779267100D-04 0.100000000000D+01
0.122937964665D-04 0.000000000000D+00 -.185579636669D-06 0.230928678876D-04 0.000000000000D+00  6 2 1 25 2 1 21 2 0.31369654D+00 0.18273667D+00 0.32496130D+06 0.32496130D+06 0.32496130D+06 0.10819931D+01  1  2  3  1  6  1        2 0.150337466634D-04 0.100000000000D+01
-.304027407944D-04 0.000000000000D+00 0.000000000000D+00 0.230928678876D-04 0.000000000000D+00  6 2 1 25 2 1 21 2 0.31369654D+00 0.18273667D+00 0.32496130D+06 0.32496130D+06 0.32496130D+06 0.10819931D+01  1  2 15  1  6  1        2 -.371786782238D-04 0.100000000000D+01
0.121222940236D+00 0.000000000000D+00 0.000000000000D+00 0.230928678876D-04 0.000000000000D+00  6 2 1 25 2 1 21 2 0.41913362D+00 0.18273667D+00 0.32807243D+06 0.32807243D+06 0.32807243D+06 0.10816893D+01  1  2 12  1  6  1        2 0.599956185388D-01 0.100000000000D+01
0.144359852902D-07 0.000000000000D+00 0.000000000000D+00 0.230928678876D-04 0.000000000000D+00  6 2 1 25 2 1 21 2 0.41475873D+00 0.18273667D+00 0.32807243D+06 0.32807243D+06 0.32807243D+06 0.10816893D+01  1  2 12  1  6  1        2 0.743080127363D-08 0.100000000000D+01
-.215630654531D+00 0.000000000000D+00 0.000000000000D+00 0.230928678876D-04 0.000000000000D+00  6 2 1 25 2 1 21 2 0.31369654D+00 0.18273667D+00 0.32496130D+06 0.32496130D+06 0.32496130D+06 0.10819931D+01  1  2  4  1  6  1        2 -.263688815893D+00 0.100000000000D+01
-.127413999194D+00 0.000000000000D+00 -.355695070925D-04 0.230928678876D-04 0.000000000000D+00  6 2 1 25 2 1 21 2 0.41475262D+00 0.18273667D+00 0.32496130D+06 0.32496130D+06 0.32496130D+06 0.10819931D+01  1  2  5  1  6  1        2 -.656832087367D-01 0.100000000000D+01
0.122613191271D+00 0.000000000000D+00 0.342262613233D-04 0.230928678876D-04 0.000000000000D+00  6 2 1 25 2 1 21 2 0.31369654D+00 0.18273667D+00 0.32496130D+06 0.32496130D+06 0.32496130D+06 0.10819931D+01  1  2  6  1  6  1        2 0.149940310154D+00 0.100000000000D+01
0.456967481700D-02 0.000000000000D+00 0.000000000000D+00 0.230928678876D-04 0.000000000000D+00  6 21 1 25 2 1 -2 2 0.41913362D+00 0.18273667D+00 0.32807243D+06 0.32807243D+06 0.32807243D+06 0.10816893D+01  1  2 12  5  6  1        2 0.206224365738D-03 0.100000000000D+01
0.529811774688D-09 0.000000000000D+00 0.000000000000D+00 0.230928678876D-04 0.000000000000D+00  6 21 1 25 2 1 -2 2 0.41475873D+00 0.18273667D+00 0.32807243D+06 0.32807243D+06 0.32807243D+06 0.10816893D+01  1  2 12  5  6  1        2 0.256566962207D-10 0.100000000000D+01
-.467529996082D-02 0.000000000000D+00 -.130537825975D-05 0.230928678876D-04 0.000000000000D+00  6 21 1 25 2 1 -2 2 0.41475262D+00 0.18273667D+00 0.32496130D+06 0.32496130D+06 0.32496130D+06 0.10819931D+01  1  2  5  5  6  1        2 -.226870304508D-03 0.100000000000D+01
  </mgrwgt>
  </event>
  <event>
  5     66 0.18337608E-05 0.31592113E+02 0.75467711E-02 0.85206209E-01
        2 -1    0    0  501    0 0.00000000E+00 0.00000000E+00 0.17778354E+04 0.17778354E+04 0.32000000E+00 0.0000E+00 0.9000E+01
        1 -1    0    0  502    0 0.00000000E+00 0.00000000E+00 -.94767293E+03 0.94767298E+03 0.32000000E+00 0.0000E+00 0.9000E+01
       25  1    1    2    0    0 -.52724526E+03 -.43265482E+02 0.54226026E+03 0.76780899E+03 0.12500000E+03 0.0000E+00 0.9000E+01
        2  1    1    2  501    0 -.29323507E+02 -.11769721E+02 0.10288676E+04 0.10293527E+04 0.32000000E+00 0.0000E+00 0.9000E+01
        1  1    1    2  502    0 0.55656877E+03 0.55035203E+02 -.74096542E+03 0.92834666E+03 0.32000000E+00 0.0000E+00 0.9000E+01
#aMCatNLO 1  0  0  1  4 0.10302522D+02 0.00000000D+00  -5  6  0 0.00000000D+00 0.00000000D+00 0.00000000D+00 0.00000000D+00 0.00000000D+00
  <mgrwgt>
 0.2433016884D-01    6    2    0
 0.129800099237290D+04 0.000000000000000D+00 0.000000000000000D+00 0.129800099237290D+04
 0.129800099237290D+04 0.000000000000000D+00 0.000000000000000D+00 -.129800099237290D+04
 0.632818104205634D+03 -.527313673713171D+03 -.432734131398048D+02 0.323884939817776D+03
 0.751562171715652D+03 -.293186199581600D+02 -.117677592772767D+02 0.750897886745787D+03
 0.121162170882451D+04 0.556632293671331D+03 0.550411724170816D+02 -.107478282656356D+04
 0.000000000000000D+00 0.000000000000000D+00 -.000000000000000D+00 0.000000000000000D+00
 0.191616273649279D+04 0.000000000000000D+00 0.000000000000000D+00 0.191616273649279D+04
 0.191373919294473D+04 0.000000000000000D+00 0.000000000000000D+00 -.191373919294473D+04
 0.832715840275110D+03 -.744673786386291D+03 0.135462792948552D+03 0.323884939817776D+03
 0.815155650175500D+03 -.261685781139066D+03 0.179308810835915D+03 0.750897886745787D+03
 0.114689579272810D+04 0.206829662480391D+03 0.342685461932234D+03 -.107478282656356D+04
 0.103513464625881D+04 0.799529905044966D+03 -.657457065716701D+03 0.242354354805735D+01
0.939833955566D-02 0.000000000000D+00 0.000000000000D+00 0.654925139064D-04 0.000000000000D+00  6 2 1 25 2 1 21 0 0.27351314D+00 0.14579584D+00 0.32182413D+06 0.32182413D+06 0.32182413D+06 0.10823027D+01  1  2  2  1  6  1        2 0.206321083977D-01 0.100000000000D+01
0.552430473371D-02 0.000000000000D+00 -.360920985334D-04 0.654925139064D-04 0.000000000000D+00  6 2 1 25 2 1 21 2 0.27351314D+00 0.14579584D+00 0.32182413D+06 0.32182413D+06 0.32182413D+06 0.10823027D+01  1  2  3  1  6  1        2 0.142058626011D-01 0.100000000000D+01
-.583184493678D-02 0.000000000000D+00 0.000000000000D+00 0.654925139064D-04 0.000000000000D+00  6 2 1 25 2 1 21 2 0.27351314D+00 0.14579584D+00 0.32182413D+06 0.32182413D+06 0.32182413D+06 0.10823027D+01  1  2 15  1  6  1        2 -.149967085228D-01 0.100000000000D+01
0.150351681649D-02 0.000000000000D+00 -.467711596576D-02 0.654925139064D-04 0.000000000000D+00  6 2 1 25 2 1 21 2 0.47531101D+00 0.14579584D+00 0.32182413D+06 0.32182413D+06 0.32182413D+06 0.10823027D+01  1  2  5  1  6  1        2 0.668403788133D-03 0.100000000000D+01
0.148232439216D-02 0.000000000000D+00 0.404377945643D-02 0.654925139064D-04 0.000000000000D+00  6 2 1 25 2 1 21 2 0.27351314D+00 0.14579584D+00 0.32182413D+06 0.32182413D+06 0.32182413D+06 0.10823027D+01  1  2  6  1  6  1        2 0.381182748968D-02 0.100000000000D+01
0.326559126431D-03 0.000000000000D+00 -.286070424311D-03 0.654925139064D-04 0.000000000000D+00  6 21 1 25 2 1 -2 2 0.47531101D+00 0.14579584D+00 0.32182413D+06 0.32182413D+06 0.32182413D+06 0.10823027D+01  1  2  5  5  6  1        2 0.867508783176D-05 0.100000000000D+01
  </mgrwgt>
  </event>
  <event>
  6     66 0.18337608E-05 0.56038382E+02 0.75467711E-02 0.93071172E-01
        2 -1    0    0  501    0 0.00000000E+00 0.00000000E+00 0.18823208E+04 0.18823208E+04 0.32000000E+00 0.0000E+00 0.9000E+01
        1 -1    0    0  502    0 0.00000000E+00 0.00000000E+00 -.62991177E+03 0.62991185E+03 0.32000000E+00 0.0000E+00 0.9000E+01
       25  1    1    2    0    0 0.54440412E+03 0.13315027E+03 0.22253990E+03 0.61583590E+03 0.12500000E+03 0.0000E+00 0.9000E+01
        2  1    1    2  501    0 -.52338434E+02 0.25571870E+02 0.13079830E+04 0.13092795E+04 0.32000000E+00 0.0000E+00 0.9000E+01
        1  1    1    2  503    0 -.31976467E+03 -.10420733E+03 -.17784883E+03 0.38044569E+03 0.32000000E+00 0.0000E+00 0.9000E+01
       21  1    1    2  502  503 -.17230102E+03 -.54514818E+02 -.10026503E+03 0.20667159E+03 0.75000000E+00 0.0000E+00 0.9000E+01
#aMCatNLO 2  0  0  5  2 0.28795204D+01 0.00000000D+00  -5  6  0 0.00000000D+00 0.00000000D+00 0.00000000D+00 0.00000000D+00 0.00000000D+00
  <mgrwgt>
 0.4912864700D-04    3    2    0
 0.108889676866594D+04 0.000000000000000D+00 0.000000000000000D+00 0.108889676866594D+04
 0.108889676866594D+04 -.000000000000000D+00 -.000000000000000D+00 -.108889676866594D+04
 0.582465106552492D+03 0.544447058816608D+03 0.133165349738276D+03 -.973909139819163D+02
 0.758098164815876D+03 -.523302464945314D+02 0.255715239803783D+02 0.755857440236148D+03
 0.837230265963509D+03 -.492116812322076D+03 -.158736873718654D+03 -.658466526254232D+03
 0.000000000000000D+00 0.000000000000000D+00 0.000000000000000D+00 -.000000000000000D+00
 0.108889676866594D+04 0.000000000000000D+00 0.000000000000000D+00 0.108889676866594D+04
 0.108889676866594D+04 -.000000000000000D+00 -.000000000000000D+00 -.108889676866594D+04
 0.582462435351442D+03 0.544443654895591D+03 0.133164251771763D+03 -.973954685266744D+02
 0.758092512080834D+03 -.523346768072554D+02 0.255700949416342D+02 0.755851512349605D+03
 0.540809037874557D+03 -.319585653099176D+03 -.104148608489231D+03 -.423665543949156D+03
 0.296429552025045D+03 -.172523324989158D+03 -.545857382241659D+02 -.234790499873774D+03
-.419813782633D-03 0.000000000000D+00 0.000000000000D+00 0.143518244580D-04 0.000000000000D+00  6 2 1 25 2 1 21 2 0.28958782D+00 0.96909512D-01 0.33038912D+06 0.33038912D+06 0.33038912D+06 0.10814651D+01  1  2 13  4  6  5        1 -.180354869462D-02 0.100000000000D+01
-.332888188211D-09 0.000000000000D+00 0.000000000000D+00 0.143518244580D-04 0.000000000000D+00  6 2 1 25 2 1 21 2 0.28958782D+00 0.96909512D-01 0.33038912D+06 0.33038912D+06 0.33038912D+06 0.10814651D+01  1  2 13  4  6  5        1 -.143011040166D-08 0.100000000000D+01
0.431249838435D-03 0.000000000000D+00 0.000000000000D+00 0.143518244580D-04 0.507600688755D-05  6 2 1 25 2 1 21 2 0.28958782D+00 0.96909512D-01 0.33038912D+06 0.33038912D+06 0.33038912D+06 0.10814651D+01  1  2  1  4  6  5        1 0.185267877173D-02 0.100000000000D+01
  </mgrwgt>
  </event>
  <event>
  6     66 0.18337608E-05 0.26471438E+03 0.75467711E-02 0.88317870E-01
        2 -1    0    0  503    0 0.00000000E+00 0.00000000E+00 0.10432653E+04 0.10432654E+04 0.32000000E+00 0.0000E+00 0.9000E+01
        1 -1    0    0  502    0 0.00000000E+00 0.00000000E+00 -.14241047E+04 0.14241047E+04 0.32000000E+00 0.0000E+00 0.9000E+01
       25  1    1    2    0    0 -.16164981E+03 -.68693824E+03 0.77277488E+01 0.71672834E+03 0.12500000E+03 0.0000E+00 0.9000E+01
        2  1    1    2  501    0 -.12429317E+03 0.69627981E+03 0.13444447E+03 0.71995123E+03 0.32000000E+00 0.0000E+00 0.9000E+01
        1  1    1    2  502    0 -.12028723E+02 -.84137518E+02 -.68027341E+03 0.68556241E+03 0.32000000E+00 0.0000E+00 0.9000E+01
       21  1    1    2  503  501 0.29797170E+03 0.74795946E+02 0.15726184E+03 0.34512811E+03 0.75000000E+00 0.0000E+00 0.9000E+01
#aMCatNLO 2  0  0  1  4 0.30721583D+03 0.00000000D+00  -5  6  0 0.00000000D+00 0.00000000D+00 0.00000000D+00 0.00000000D+00 0.00000000D+00
  <mgrwgt>
 0.2461615283D-03    1    2    0
 0.101488627607718D+04 0.000000000000000D+00 0.000000000000000D+00 0.101488627607718D+04
 0.101488627607718D+04 0.000000000000000D+00 0.000000000000000D+00 -.101488627607718D+04
 0.702361543941457D+03 -.561700558476436D+02 -.660404167137462D+03 0.195954074367887D+03
 0.795750096336913D+03 -.931866115734279D+01 0.725092305677630D+03 0.327677473472832D+03
 0.531660911875999D+03 0.654887170049864D+02 -.646881385401682D+02 -.523631547840720D+03
 0.000000000000000D+00 0.000000000000000D+00 0.000000000000000D+00 0.000000000000000D+00
 0.135196859086996D+04 0.000000000000000D+00 0.000000000000000D+00 0.135196859086996D+04
 0.109892955352521D+04 0.000000000000000D+00 0.000000000000000D+00 -.109892955352521D+04
 0.742942243203089D+03 -.161655042778067D+03 -.686882686212634D+03 0.195954074367887D+03
 0.779461869692433D+03 -.124284950685673D+03 0.696233818997573D+03 0.327677473472832D+03
 0.530486089063868D+03 -.120317070808635D+02 -.841470785050230D+02 -.523631547840720D+03
 0.398007942435776D+03 0.297971700544603D+03 0.747959457200839D+02 0.253039037344745D+03
0.909652090297D-04 0.000000000000D+00 0.000000000000D+00 0.349124752349D-06 0.147501633573D-10  6 2 1 25 2 1 21 2 0.16050232D+00 0.21909297D+00 0.82454868D+06 0.82454868D+06 0.82454868D+06 0.10534871D+01  1  2  1  1  6  1        2 0.246161528261D-03 0.100000000000D+01
  </mgrwgt>
  </event>
  <event>
  6     66 -.18337608E-05 0.65207826E+02 0.75467711E-02 0.95039651E-01
        2 -1    0    0  501    0 0.00000000E+00 0.00000000E+00 0.77140887E+03 0.77140893E+03 0.32000000E+00 0.0000E+00 0.9000E+01
        1 -1    0    0  502    0 -.00000000E+00 -.00000000E+00 -.85940339E+03 0.85940345E+03 0.32000000E+00 0.0000E+00 0.9000E+01
       25  1    1    2    0    0 0.30886383E+03 0.33392761E+03 0.14456889E+03 0.49338593E+03 0.12500000E+03 0.0000E+00 0.9000E+01
        2  1    1    2  503    0 -.12984613E+03 -.25752845E+03 0.29293302E+03 0.41108488E+03 0.32000000E+00 0.0000E+00 0.9000E+01
        1  1    1    2  502    0 -.94090826E+02 -.61701725E+01 -.59077554E+03 0.59825328E+03 0.32000000E+00 0.0000E+00 0.9000E+01
       21  1    1    2  501  503 -.84926871E+02 -.70228984E+02 0.65279106E+02 0.12808828E+03 0.75000000E+00 0.0000E+00 0.9000E+01
#aMCatNLO 2  0  0  4  1 0.39683881D+02 0.00000000D+00  -5  6  0 0.00000000D+00 0.00000000D+00 0.00000000D+00 0.00000000D+00 0.00000000D+00
  <mgrwgt>
 -.5921745376D-02    3    2    0
 0.814218333579161D+03 0.000000000000000D+00 0.000000000000000D+00 0.814218333579161D+03
 0.814218333579161D+03 -.000000000000000D+00 -.000000000000000D+00 -.814218333579161D+03
 0.502911428421806D+03 0.309761474626683D+03 0.335209564063410D+03 0.170227147760816D+03
 0.556284489627743D+03 -.216692197338803D+03 -.330686257640729D+03 0.391335564471784D+03
 0.569240749108772D+03 -.930692772878808D+02 -.452330642268035D+01 -.561562712232600D+03
 0.000000000000000D+00 -.000000000000000D+00 0.000000000000000D+00 0.000000000000000D+00
 0.814218333579161D+03 0.000000000000000D+00 0.000000000000000D+00 0.814218333579161D+03
 0.814218333579161D+03 -.000000000000000D+00 -.000000000000000D+00 -.814218333579161D+03
 0.501936599006726D+03 0.308802500610054D+03 0.333746107913958D+03 0.171959008172590D+03
 0.427115998405519D+03 -.129677688569047D+03 -.257291938199636D+03 0.315297687461877D+03
 0.567502676425328D+03 -.941541253235093D+02 -.617885443694494D+01 -.559603529467357D+03
 0.131881393320748D+03 -.849706867174985D+02 -.702753152773761D+02 0.723468338328907D+02
-.126375624018D-02 0.000000000000D+00 0.000000000000D+00 0.308679674099D-05 0.000000000000D+00  6 2 1 25 2 1 21 2 0.11867830D+00 0.13221592D+00 0.23247276D+06 0.23247276D+06 0.23247276D+06 0.10928419D+01  1  2 13  3  6  4        2 -.154836694515D-01 0.100000000000D+01
-.182642190088D-07 0.000000000000D+00 0.000000000000D+00 0.308679674099D-05 0.000000000000D+00  6 2 1 25 2 1 21 2 0.11867830D+00 0.13221592D+00 0.23247276D+06 0.23247276D+06 0.23247276D+06 0.10928419D+01  1  2 13  3  6  4        2 -.223775061148D-06 0.100000000000D+01
0.780449624869D-03 0.000000000000D+00 0.000000000000D+00 0.308679674099D-05 0.455940120500D-08  6 2 1 25 2 1 21 2 0.11867830D+00 0.13221592D+00 0.23247276D+06 0.23247276D+06 0.23247276D+06 0.10928419D+01  1  2  1  3  6  4        2 0.956214785007D-02 0.100000000000D+01
  </mgrwgt>
  </event>
  <event>
  6     66 0.18337608E-05 0.65011132E+02 0.75467711E-02 0.93191741E-01
        2 -1    0    0  503    0 0.00000000E+00 0.00000000E+00 0.75459533E+03 0.75459540E+03 0.32000000E+00 0.0000E+00 0.9000E+01
        1 -1    0    0  502    0 0.00000000E+00 0.00000000E+00 -.77833927E+03 0.77833934E+03 0.32000000E+00 0.0000E+00 0.9000E+01
       25  1    1    2    0    0 -.49241192E+03 -.18876460E+03 -.12989383E+03 0.55731408E+03 0.12500000E+03 0.0000E+00 0.9000E+01
        2  1    1    2  501    0 0.43710620E+03 0.20923955E+03 0.22806168E+03 0.53558870E+03 0.32000000E+00 0.0000E+00 0.9000E+01
        1  1    1    2  502    0 -.74795920E+01 0.29377506E+02 -.26996643E+03 0.27166331E+03 0.32000000E+00 0.0000E+00 0.9000E+01
       21  1    1    2  503  501 0.62785314E+02 -.49852455E+02 0.14805464E+03 0.16836865E+03 0.75000000E+00 0.0000E+00 0.9000E+01
#aMCatNLO 2  0  0  1  4 0.78253769D+02 0.00000000D+00  -5  6  0 0.00000000D+00 0.00000000D+00 0.00000000D+00 0.00000000D+00 0.00000000D+00
  <mgrwgt>
 0.4420246674D-02    1    2    0
 0.675666078257407D+03 0.000000000000000D+00 0.000000000000000D+00 0.675666078257407D+03
 0.675666078257407D+03 0.000000000000000D+00 0.000000000000000D+00 -.675666078257407D+03
 0.530327223439978D+03 -.467433658450519D+03 -.208585109147272D+03 -.601663619570008D+02
 0.582401514205692D+03 0.463814454352068D+03 0.188017555201635D+03 0.297854116337472D+03
 0.238603418869144D+03 0.361920409845004D+01 0.205675539456374D+02 -.237687754380471D+03
 0.000000000000000D+00 0.000000000000000D+00 -.000000000000000D+00 0.000000000000000D+00
 0.856412392016691D+03 0.000000000000000D+00 0.000000000000000D+00 0.856412392016691D+03
 0.685802807606409D+03 0.000000000000000D+00 0.000000000000000D+00 -.685802807606409D+03
 0.545282513032328D+03 -.492399088243263D+03 -.188762193791322D+03 -.601663619570008D+02
 0.568812113139635D+03 0.437094221152803D+03 0.209233810054745D+03 0.297854116337472D+03
 0.239613562512494D+03 -.748044670383608D+01 0.293808385620418D+02 -.237687754380471D+03
 0.188507010938645D+03 0.627853137942966D+02 -.498524548254642D+02 0.170609584410282D+03
0.309154329963D-03 0.000000000000D+00 0.000000000000D+00 0.197859333438D-05 0.185747601141D-08  6 2 1 25 2 1 21 2 0.11609148D+00 0.11974439D+00 0.32321164D+06 0.32321164D+06 0.32321164D+06 0.10821654D+01  1  2  1  1  6  1        2 0.442024667351D-02 0.100000000000D+01
  </mgrwgt>
  </event>
  <event>
  6     66 0.18337608E-05 0.75487209E+02 0.75467711E-02 0.94181310E-01
        2 -1    0    0  501    0 0.00000000E+00 0.00000000E+00 0.44139061E+04 0.44139061E+04 0.32000000E+00 0.0000E+00 0.9000E+01
        1 -1    0    0  502    0 0.00000000E+00 0.00000000E+00 -.19156850E+04 0.19156850E+04 0.32000000E+00 0.0000E+00 0.9000E+01
       25  1    1    2    0    0 0.30526083E+03 0.36984427E+03 0.19664713E+04 0.20279555E+04 0.12500000E+03 0.0000E+00 0.9000E+01
        2  1    1    2  501    0 -.85250738E+02 -.88831546E+02 0.23913933E+04 0.23945606E+04 0.32000000E+00 0.0000E+00 0.9000E+01
        1  1    1    2  503    0 -.24402622E+03 -.14611650E+03 -.11848284E+04 0.12184897E+04 0.32000000E+00 0.0000E+00 0.9000E+01
       21  1    1    2  502  503 0.24016127E+02 -.13489622E+03 -.67481509E+03 0.68858532E+03 0.75000000E+00 0.0000E+00 0.9000E+01
#aMCatNLO 2  0  0  5  2 0.66094318D+02 0.00000000D+00  -5  6  0 0.00000000D+00 0.00000000D+00 0.00000000D+00 0.00000000D+00 0.00000000D+00
  <mgrwgt>
 0.9777624305D-03    1    2    0
 0.290786068546207D+04 0.000000000000000D+00 0.000000000000000D+00 0.290786068546207D+04
 0.290786068546207D+04 -.000000000000000D+00 -.000000000000000D+00 -.290786068546207D+04
 0.136457733945287D+04 0.305425833538025D+03 0.370056691881982D+03 0.127130618670296D+04
 0.158113238871000D+04 -.850570295640145D+02 -.885858195270868D+02 0.157635576090179D+04
 0.287001164276127D+04 -.220368803974010D+03 -.281470872354896D+03 -.284766194760475D+04
 0.000000000000000D+00 0.000000000000000D+00 0.000000000000000D+00 -.000000000000000D+00
 0.290786068546207D+04 0.000000000000000D+00 0.000000000000000D+00 0.290786068546207D+04
 0.290786068546207D+04 -.000000000000000D+00 -.000000000000000D+00 -.290786068546207D+04
 0.136254742773886D+04 0.305264838997051D+03 0.369851058085025D+03 0.126922577414078D+04
 0.157875258311408D+04 -.852435719021893D+02 -.888240848065198D+02 0.157394521318152D+04
 0.183491896687775D+04 -.244026789767567D+03 -.146103422780015D+03 -.181274166133385D+04
 0.103950239319345D+04 0.240055226727049D+02 -.134923550498490D+03 -.103042932598844D+04
0.106148169978D+00 0.000000000000D+00 0.000000000000D+00 0.912930916662D-03 0.190605619229D-06  6 2 1 25 2 1 21 2 0.67906248D+00 0.29472077D+00 0.27048100D+06 0.27048100D+06 0.27048100D+06 0.10878958D+01  1  2  1  4  6  5        1 0.977762430544D-03 0.100000000000D+01
  </mgrwgt>
  </event>
  <event>
  5     66 0.18337608E-05 0.43625966E+02 0.75467711E-02 0.91786907E-01
        2 -1    0    0  501    0 0.00000000E+00 0.00000000E+00 0.11701569E+04 0.11701569E+04 0.32000000E+00 0.0000E+00 0.9000E+01
        1 -1    0    0  502    0 -.00000000E+00 -.00000000E+00 -.14139573E+04 0.14139573E+04 0.32000000E+00 0.0000E+00 0.9000E+01
       25  1    1    2    0    0 0.20387680E+03 -.44631303E+03 -.57598344E+03 0.76690481E+03 0.12500000E+03 0.0000E+00 0.9000E+01
        2  1    1    2  501    0 -.24266660E+03 0.46628208E+03 0.10096771E+04 0.11383119E+04 0.32000000E+00 0.0000E+00 0.9000E+01
        1  1    1    2  502    0 0.38789804E+02 -.19969048E+02 -.67749412E+03 0.67889748E+03 0.32000000E+00 0.0000E+00 0.9000E+01
#aMCatNLO 1  0  0  5  2 0.30326226D+02 0.00000000D+00  -5  6  0 0.00000000D+00 0.00000000D+00 0.00000000D+00 0.00000000D+00 0.00000000D+00
  <mgrwgt>
 0.1198648644D-01    6    2    0
 0.128629388063298D+04 0.000000000000000D+00 0.000000000000000D+00 0.128629388063298D+04
 0.128629388063298D+04 -.000000000000000D+00 -.000000000000000D+00 -.128629388063298D+04
 0.715781901020496D+03 0.203879476804430D+03 -.446315564575666D+03 -.505919267852067D+03
 0.123910179937416D+04 -.242667392455977D+03 0.466283600667328D+03 0.112208083915537D+04
 0.617704060871307D+03 0.387879156515475D+02 -.199680360916619D+02 -.616161571303302D+03
 0.000000000000000D+00 0.000000000000000D+00 0.000000000000000D+00 0.000000000000000D+00
 0.128629388063298D+04 0.000000000000000D+00 0.000000000000000D+00 0.128629388063298D+04
 0.128629388063298D+04 -.000000000000000D+00 -.000000000000000D+00 -.128629388063298D+04
 0.730244253049000D+03 0.205091944725741D+03 -.446939743596530D+03 -.525179806269790D+03
 0.120883737212723D+04 -.240614837797534D+03 0.465226944623520D+03 0.108947518653680D+04
 0.404620124326343D+03 -.102631916706177D+03 -.603142234334527D+02 -.386712204532907D+03
 0.228886011763391D+03 0.138154809777970D+03 0.420270224064622D+02 -.177583175734108D+03
0.413720086082D-02 0.000000000000D+00 0.000000000000D+00 0.504528908753D-04 0.000000000000D+00  6 2 1 25 2 1 21 0 0.18002414D+00 0.21753190D+00 0.28924230D+06 0.28924230D+06 0.28924230D+06 0.10857272D+01  1  2  2  4  6  5        1 0.918197239121D-02 0.100000000000D+01
0.158748184991D-02 0.000000000000D+00 -.158879406556D-04 0.504528908753D-04 0.000000000000D+00  6 2 1 25 2 1 21 2 0.18002414D+00 0.21753190D+00 0.28924230D+06 0.28924230D+06 0.28924230D+06 0.10857272D+01  1  2  3  4  6  5        1 0.415316856214D-02 0.100000000000D+01
-.270909331226D-02 0.000000000000D+00 0.000000000000D+00 0.504528908753D-04 0.000000000000D+00  6 2 1 25 2 1 21 2 0.18002414D+00 0.21753190D+00 0.28924230D+06 0.28924230D+06 0.28924230D+06 0.10857272D+01  1  2 15  4  6  5        1 -.708752744291D-02 0.100000000000D+01
-.122513377065D-03 0.000000000000D+00 0.000000000000D+00 0.504528908753D-04 0.000000000000D+00  6 2 1 25 2 1 21 2 0.18002414D+00 0.21753190D+00 0.28924230D+06 0.28924230D+06 0.28924230D+06 0.10857272D+01  1  2  4  4  6  5        1 -.320519384897D-03 0.100000000000D+01
-.510304206866D-02 0.000000000000D+00 0.000000000000D+00 0.504528908753D-04 0.000000000000D+00  6 2 1 25 2 1 21 2 0.18002414D+00 0.21753190D+00 0.28924230D+06 0.28924230D+06 0.28924230D+06 0.10857272D+01  1  2  5  4  6  5        1 -.133505739874D-01 0.100000000000D+01
0.741914727157D-02 0.000000000000D+00 -.000000000000D+00 0.504528908753D-04 0.000000000000D+00  6 2 1 25 2 1 21 2 0.18002414D+00 0.21753190D+00 0.28924230D+06 0.28924230D+06 0.28924230D+06 0.10857272D+01  1  2  6  4  6  5        1 0.194099662984D-01 0.100000000000D+01
  </mgrwgt>
  </event>
  <event>
  6     66 0.18337608E-05 0.71083701E+02 0.75467711E-02 0.93687942E-01
        2 -1    0    0  501    0 0.00000000E+00 0.00000000E+00 0.22976479E+04 0.22976479E+04 0.32000000E+00 0.0000E+00 0.9000E+01
        1 -1    0    0  502    0 0.00000000E+00 0.00000000E+00 -.12503162E+04 0.12503162E+04 0.32000000E+00 0.0000E+00 0.9000E+01
       25  1    1    2    0    0 0.23173599E+03 -.42857631E+03 -.10145418E+03 0.51312491E+03 0.12500000E+03 0.0000E+00 0.9000E+01
        2  1    1    2  501    0 -.14700072E+03 0.45996303E+03 0.20609284E+04 0.21167431E+04 0.32000000E+00 0.0000E+00 0.9000E+01
        1  1    1    2  503    0 -.16187464E+02 0.12020681E+02 -.10766719E+03 0.10953929E+03 0.32000000E+00 0.0000E+00 0.9000E+01
       21  1    1    2  502  503 -.68547814E+02 -.43407399E+02 -.80447538E+03 0.80855686E+03 0.75000000E+00 0.0000E+00 0.9000E+01
#aMCatNLO 2  0  0  5  1 0.16832304D+02 0.00000000D+00  -5  6  0 0.00000000D+00 0.00000000D+00 0.00000000D+00 0.00000000D+00 0.00000000D+00
  <mgrwgt>
 0.1847893905D-01    2    2    0
 0.169492964473156D+04 0.000000000000000D+00 0.000000000000000D+00 0.169492964473156D+04
 0.169492964473156D+04 -.000000000000000D+00 -.000000000000000D+00 -.169492964473156D+04
 0.568351011090290D+03 0.231744324847005D+03 -.428578628667834D+03 -.264599317379618D+03
 0.157922639008309D+04 -.146967224170449D+03 0.459980497403253D+03 0.150358723330679D+04
 0.124228188828975D+04 -.847771006765555D+02 -.314018687354185D+02 -.123898791592717D+04
 0.000000000000000D+00 0.000000000000000D+00 0.000000000000000D+00 -.000000000000000D+00
 0.169492964473156D+04 0.000000000000000D+00 0.000000000000000D+00 0.169492964473156D+04
 0.169492964473156D+04 -.000000000000000D+00 -.000000000000000D+00 -.169492964473156D+04
 0.568434436016756D+03 0.231731831177959D+03 -.428583256386313D+03 -.264781908018469D+03
 0.157874294459215D+04 -.147001931356244D+03 0.459967641685331D+03 0.150307999982684D+04
 0.147694819323481D+03 -.161488008344642D+02 0.119652592333177D+02 -.146320909162306D+03
 0.109498708953075D+04 -.685810989872511D+02 -.433496445323358D+02 -.109197718264606D+04
-.344847029568D-09 0.000000000000D+00 0.000000000000D+00 0.123656516971D-03 0.000000000000D+00  6 2 1 25 2 1 21 2 0.35348430D+00 0.19235634D+00 0.29545623D+06 0.29545623D+06 0.29545623D+06 0.10850426D+01  1  2 13  4  6  5        1 -.277103470486D-09 0.100000000000D+01
0.229964905377D-01 0.000000000000D+00 0.000000000000D+00 0.123656516971D-03 0.144042210625D-06  6 2 1 25 2 1 21 2 0.35348430D+00 0.19235634D+00 0.29545623D+06 0.29545623D+06 0.29545623D+06 0.10850426D+01  1  2  1  4  6  5        1 0.184789393285D-01 0.100000000000D+01
  </mgrwgt>
  </event>
  <event>
  6     66 0.18337608E-05 0.29729038E+03 0.75467711E-02 0.90780166E-01
        2 -1    0    0  501    0 0.00000000E+00 0.00000000E+00 0.26771312E+03 0.26771331E+03 0.32000000E+00 0.0000E+00 0.9000E+01
       21 -1    0    0  502  503 0.00000000E+00 0.00000000E+00 -.20523000E+04 0.20523002E+04 0.75000000E+00 0.0000E+00 0.9000E+01
       25  1    1    2    0    0 -.55112038E+03 -.31135521E+03 -.11308035E+04 0.13019283E+04 0.12500000E+03 0.0000E+00 0.9000E+01
        2  1    1    2  501    0 0.30114666E+01 0.11742459E+03 -.82384002E+02 0.14347414E+03 0.32000000E+00 0.0000E+00 0.9000E+01
        1  1    1    2  502    0 0.44321832E+03 0.23313463E+01 -.36668159E+03 0.57524204E+03 0.32000000E+00 0.0000E+00 0.9000E+01
       -1  1    1    2    0  503 0.10489059E+03 0.19159927E+03 -.20471787E+03 0.29936905E+03 0.32000000E+00 0.0000E+00 0.9000E+01
#aMCatNLO 2  0  0  2  1 0.21843149D+03 0.00000000D+00  -5  6  0 0.00000000D+00 0.00000000D+00 0.00000000D+00 0.00000000D+00 0.00000000D+00
  <mgrwgt>
 0.2143804706D+00    1    2    0
 0.620343743878393D+03 0.000000000000000D+00 0.000000000000000D+00 0.620343743878393D+03
 0.620343743878393D+03 0.000000000000000D+00 0.000000000000000D+00 -.620343743878393D+03
 0.585832044348519D+03 -.498554319582939D+03 -.215076281350702D+03 -.180997148627019D+03
 0.146915464895441D+03 0.144806492744262D+02 0.138195842144028D+03 0.477113596131746D+02
 0.507939978512825D+03 0.484073670308513D+03 0.768804392066740D+02 0.133285789013844D+03
 0.000000000000000D+00 0.000000000000000D+00 0.000000000000000D+00 0.000000000000000D+00
 0.765144400496921D+03 0.000000000000000D+00 0.000000000000000D+00 0.765144400496921D+03
 0.718070808599853D+03 0.000000000000000D+00 0.000000000000000D+00 -.718070808599853D+03
 0.670205134447576D+03 -.551243294146142D+03 -.311321032196175D+03 -.180997148627019D+03
 0.126609185200897D+03 0.300667893769745D+01 0.117236819399295D+03 0.477113596131746D+02
 0.462954610982252D+03 0.443346022120193D+03 0.248494404088891D+01 0.133285789013844D+03
 0.223446278466049D+03 0.104890593088251D+03 0.191599268755991D+03 0.470735918970678D+02
0.817980675314D-01 0.000000000000D+00 0.000000000000D+00 0.140757097315D-08 0.577358045743D-09  6 2 21 25 2 1 -1 2 0.41186653D-01 0.31573844D+00 0.50720182D+06 0.50720182D+06 0.50720182D+06 0.10680717D+01  1  2  1  6  6  2        1 0.214380470591D+00 0.100000000000D+01
  </mgrwgt>
  </event>
  <event>
  5     66 -.18337608E-05 0.19275308E+02 0.75467711E-02 0.94862029E-01
        2 -1    0    0  501    0 0.00000000E+00 0.00000000E+00 0.10009511E+04 0.10009511E+04 0.32000000E+00 0.0000E+00 0.9000E+01
        1 -1    0    0  502    0 0.00000000E+00 0.00000000E+00 -.84449577E+03 0.84449583E+03 0.32000000E+00 0.0000E+00 0.9000E+01
       25  1    1    2    0    0 0.27882212E+03 -.38471725E+03 -.12826761E+03 0.50776640E+03 0.12500000E+03 0.0000E+00 0.9000E+01
        2  1    1    2  501    0 -.26028222E+03 0.38998509E+03 0.74323241E+03 0.87876603E+03 0.32000000E+00 0.0000E+00 0.9000E+01
        1  1    1    2  502    0 -.18539899E+02 -.52678387E+01 -.45850950E+03 0.45891453E+03 0.32000000E+00 0.0000E+00 0.9000E+01
#aMCatNLO 1  0  0  1  4 0.12272507D+03 0.00000000D+00  -5  6  0 0.00000000D+00 0.00000000D+00 0.00000000D+00 0.00000000D+00 0.00000000D+00
  <mgrwgt>
 -.4250300169D-02    1    2    0
 0.919401462363051D+03 0.000000000000000D+00 0.000000000000000D+00 0.919401462363051D+03
 0.919401462363051D+03 0.000000000000000D+00 0.000000000000000D+00 -.919401462363051D+03
 0.520491824949530D+03 0.278819138336949D+03 -.384710223698757D+03 -.171885635577804D+03
 0.818688707930059D+03 -.260277707336005D+03 0.389978320185195D+03 0.671136070660515D+03
 0.499622391846512D+03 -.185414310009447D+02 -.526809648643803D+01 -.499250435082711D+03
 0.000000000000000D+00 0.000000000000000D+00 -.000000000000000D+00 -.000000000000000D+00
 0.109967148345534D+04 0.000000000000000D+00 0.000000000000000D+00 0.109967148345534D+04
 0.116189943515695D+04 0.000000000000000D+00 0.000000000000000D+00 -.116189943515695D+04
 0.438457594757616D+03 0.199445091240147D+03 -.327562278449240D+03 -.171885635577804D+03
 0.926410740010509D+03 -.404722870889823D+03 0.493976347251448D+03 0.671136070660515D+03
 0.512593660350708D+03 -.102324457454809D+03 0.550542378753838D+02 -.499250435082711D+03
 0.384108923493455D+03 0.307602237104484D+03 -.221468306677592D+03 -.622279517016107D+02
-.479142923457D-03 0.000000000000D+00 0.000000000000D+00 0.295953573843D-04 0.000000000000D+00  6 2 1 25 2 1 21 2 0.15399248D+00 0.12992243D+00 0.23981797D+06 0.23981797D+06 0.23981797D+06 0.10918202D+01  1  2 14  1  6  1        2 -.425030016906D-02 0.100000000000D+01
  </mgrwgt>
  </event>
  <event>
  5     66 0.18337608E-05 0.13500513E+03 0.75467711E-02 0.92366913E-01
        2 -1    0    0  501    0 0.00000000E+00 0.00000000E+00 0.28490353E+04 0.28490353E+04 0.32000000E+00 0.0000E+00 0.9000E+01
        1 -1    0    0  502    0 0.00000000E+00 0.00000000E+00 -.94231706E+03 0.94231712E+03 0.32000000E+00 0.0000E+00 0.9000E+01
       25  1    1    2    0    0 0.58094426E+03 0.98539685E+02 0.76302830E+03 0.97213348E+03 0.12500000E+03 0.0000E+00 0.9000E+01
        2  1    1    2  501    0 -.48681965E+03 -.17738528E+01 0.19458273E+04 0.20058017E+04 0.32000000E+00 0.0000E+00 0.9000E+01
        1  1    1    2  502    0 -.94124611E+02 -.96765832E+02 -.80213740E+03 0.81341722E+03 0.32000000E+00 0.0000E+00 0.9000E+01
#aMCatNLO 1  0  0  5  2 0.86576571D+01 0.00000000D+00  -5  6  0 0.00000000D+00 0.00000000D+00 0.00000000D+00 0.00000000D+00 0.00000000D+00
  <mgrwgt>
 0.2720281541D-01    9    2    0
 0.163850380506683D+04 0.000000000000000D+00 0.000000000000000D+00 0.163850380506683D+04
 0.163850380506683D+04 -.000000000000000D+00 -.000000000000000D+00 -.163850380506683D+04
 0.680784040792030D+03 0.580920859243255D+03 0.985481224730852D+02 0.317271387065131D+03
 0.118837042899827D+04 -.486787428978226D+03 -.177373538760511D+01 0.108409369030959D+04
 0.140785314034337D+04 -.941334302650291D+02 -.967743870854807D+02 -.140136507737472D+04
 0.000000000000000D+00 -.000000000000000D+00 0.000000000000000D+00 0.000000000000000D+00
 0.163850380506683D+04 0.000000000000000D+00 0.000000000000000D+00 0.163850380506683D+04
 0.163850380506683D+04 -.000000000000000D+00 -.000000000000000D+00 -.163850380506683D+04
 0.680757175935947D+03 0.580917475608784D+03 0.985446439091880D+02 0.317221014873566D+03
 0.118829264558856D+04 -.486793335343018D+03 -.177980745818618D+01 0.108400576221295D+04
 0.123204027391447D+04 -.758074093632622D+02 -.903267740252284D+02 -.122638393137185D+04
 0.175917514694687D+03 -.183167309025045D+02 -.643806242577411D+01 -.174842845714666D+03
0.125334736125D-03 0.000000000000D+00 0.000000000000D+00 0.236365570517D-04 0.000000000000D+00  6 2 1 25 2 1 21 0 0.43831313D+00 0.14497186D+00 0.37462320D+06 0.37462320D+06 0.37462320D+06 0.10774857D+01  1  2  2  4  6  5        1 0.671518993496D-04 0.100000000000D+01
0.301441923076D-04 0.000000000000D+00 -.481318388114D-06 0.236365570517D-04 0.000000000000D+00  6 2 1 25 2 1 21 2 0.43831313D+00 0.14497186D+00 0.37462320D+06 0.37462320D+06 0.37462320D+06 0.10774857D+01  1  2  3  4  6  5        1 0.187505290084D-04 0.100000000000D+01
-.839158060366D-04 0.000000000000D+00 0.000000000000D+00 0.236365570517D-04 0.000000000000D+00  6 2 1 25 2 1 21 2 0.43831313D+00 0.14497186D+00 0.37462320D+06 0.37462320D+06 0.37462320D+06 0.10774857D+01  1  2 15  4  6  5        1 -.521979736361D-04 0.100000000000D+01
0.139913951762D+00 0.000000000000D+00 0.000000000000D+00 0.236365570517D-04 0.000000000000D+00  6 2 1 25 2 1 21 2 0.43831313D+00 0.14497186D+00 0.37605348D+06 0.37605348D+06 0.37605348D+06 0.10773657D+01  1  2 12  4  6  5        1 0.869813169333D-01 0.100000000000D+01
0.122475504385D-07 0.000000000000D+00 0.000000000000D+00 0.236365570517D-04 0.000000000000D+00  6 2 1 25 2 1 21 2 0.43831313D+00 0.14497186D+00 0.37605348D+06 0.37605348D+06 0.37605348D+06 0.10773657D+01  1  2 12  4  6  5        1 0.761402314017D-08 0.100000000000D+01
-.117579902710D+00 0.000000000000D+00 0.000000000000D+00 0.236365570517D-04 0.000000000000D+00  6 2 1 25 2 1 21 2 0.43831313D+00 0.14497186D+00 0.37462320D+06 0.37462320D+06 0.37462320D+06 0.10774857D+01  1  2  4  4  6  5        1 -.731379814085D-01 0.100000000000D+01
-.160837993182D+00 0.000000000000D+00 0.000000000000D+00 0.236365570517D-04 0.000000000000D+00  6 2 1 25 2 1 21 2 0.43831313D+00 0.14497186D+00 0.37462320D+06 0.37462320D+06 0.37462320D+06 0.10774857D+01  1  2  5  4  6  5        1 -.100045721114D+00 0.100000000000D+01
0.182179944176D+00 0.000000000000D+00 -.000000000000D+00 0.236365570517D-04 0.000000000000D+00  6 2 1 25 2 1 21 2 0.43831313D+00 0.14497186D+00 0.37462320D+06 0.37462320D+06 0.37462320D+06 0.10774857D+01  1  2  6  4  6  5        1 0.113321010335D+00 0.100000000000D+01
0.811974327910D-04 0.000000000000D+00 0.000000000000D+00 0.236365570517D-04 0.112790898200D-05  6 2 1 25 2 1 21 2 0.43831313D+00 0.14497186D+00 0.37605348D+06 0.37605348D+06 0.37605348D+06 0.10773657D+01  1  2 11  4  6  5        1 0.504785944992D-04 0.100000000000D+01
  </mgrwgt>
  </event>
  <event>
  5     66 0.18337608E-05 0.70245611E+02 0.75467711E-02 0.89749162E-01
        2 -1    0    0  501    0 0.00000000E+00 0.00000000E+00 0.18115232E+04 0.18115232E+04 0.32000000E+00 0.0000E+00 0.9000E+01
        1 -1    0    0  502    0 0.00000000E+00 0.00000000E+00 -.12850599E+04 0.12850599E+04 0.32000000E+00 0.0000E+00 0.9000E+01
       25  1    1    2    0    0 -.33528930E+03 -.47307781E+03 0.42014666E+03 0.72689046E+03 0.12500000E+03 0.0000E+00 0.9000E+01
        2  1    1    2  501    0 0.34291222E+03 0.40325382E+03 0.11802214E+04 0.12934933E+04 0.32000000E+00 0.0000E+00 0.9000E+01
        1  1    1    2  502    0 -.76229135E+01 0.69823990E+02 -.10739047E+04 0.10761993E+04 0.32000000E+00 0.0000E+00 0.9000E+01
#aMCatNLO 1  0  0  1  4 0.11442864D+03 0.00000000D+00  -5  6  0 0.00000000D+00 0.00000000D+00 0.00000000D+00 0.00000000D+00 0.00000000D+00
  <mgrwgt>
 0.4761348760D-02    7    2    0
 0.152575091161659D+04 0.000000000000000D+00 0.000000000000000D+00 0.152575091161659D+04
 0.152575091161659D+04 0.000000000000000D+00 0.000000000000000D+00 -.152575091161659D+04
 0.665169205344853D+03 -.335264765462124D+03 -.473056367541277D+03 0.301065245266508D+03
 0.110890640789609D+04 0.342888271243703D+03 0.403225657785959D+03 0.974428100897952D+03
 0.127742620999224D+04 -.762350578157907D+01 0.698307097553176D+02 -.127549334616446D+04
 0.000000000000000D+00 0.000000000000000D+00 0.000000000000000D+00 0.000000000000000D+00
 0.193808073223125D+04 0.000000000000000D+00 0.000000000000000D+00 0.193808073223125D+04
 0.161292719345852D+04 0.000000000000000D+00 0.000000000000000D+00 -.161292719345852D+04
 0.727948310200960D+03 -.407615957628769D+03 -.507437376927865D+03 0.301065245266508D+03
 0.106056108491221D+04 0.230217546972489D+03 0.349684961181540D+03 0.974428100897952D+03
 0.128323759873408D+04 -.140610907943947D+03 0.663560563718109D+01 -.127549334616446D+04
 0.479260931842533D+03 0.318009318600227D+03 0.151116810109144D+03 0.325153538772730D+03
0.204435907564D-02 0.000000000000D+00 0.000000000000D+00 0.518787179904D-04 0.000000000000D+00  6 2 1 25 2 1 21 0 0.27869588D+00 0.19770152D+00 0.35562480D+06 0.35562480D+06 0.35562480D+06 0.10791285D+01  1  2  2  1  6  1        2 0.241246931241D-02 0.100000000000D+01
0.865725501095D-03 0.000000000000D+00 -.785087714255D-05 0.518787179904D-04 0.000000000000D+00  6 2 1 25 2 1 21 2 0.27869588D+00 0.19770152D+00 0.35562480D+06 0.35562480D+06 0.35562480D+06 0.10791285D+01  1  2  3  1  6  1        2 0.118968278171D-02 0.100000000000D+01
-.135016608084D-02 0.000000000000D+00 0.000000000000D+00 0.518787179904D-04 0.000000000000D+00  6 2 1 25 2 1 21 2 0.27869588D+00 0.19770152D+00 0.35562480D+06 0.35562480D+06 0.35562480D+06 0.10791285D+01  1  2 15  1  6  1        2 -.185540259215D-02 0.100000000000D+01
-.421711744697D-03 0.000000000000D+00 0.000000000000D+00 0.518787179904D-04 0.000000000000D+00  6 2 1 25 2 1 21 2 0.27869588D+00 0.19770152D+00 0.35562480D+06 0.35562480D+06 0.35562480D+06 0.10791285D+01  1  2  4  1  6  1        2 -.579517642574D-03 0.100000000000D+01
-.465147106007D-02 0.000000000000D+00 -.168149566599D-02 0.518787179904D-04 0.000000000000D+00  6 2 1 25 2 1 21 2 0.36097147D+00 0.19770152D+00 0.35562480D+06 0.35562480D+06 0.35562480D+06 0.10791285D+01  1  2  5  1  6  1        2 -.322849601553D-02 0.100000000000D+01
0.497382777026D-02 0.000000000000D+00 0.162676467572D-02 0.518787179904D-04 0.000000000000D+00  6 2 1 25 2 1 21 2 0.27869588D+00 0.19770152D+00 0.35562480D+06 0.35562480D+06 0.35562480D+06 0.10791285D+01  1  2  6  1  6  1        2 0.683505019775D-02 0.100000000000D+01
-.131630742550D-03 0.000000000000D+00 -.583542311189D-04 0.518787179904D-04 0.000000000000D+00  6 21 1 25 2 1 -2 2 0.36097147D+00 0.19770152D+00 0.35562480D+06 0.35562480D+06 0.35562480D+06 0.10791285D+01  1  2  5  5  6  1        2 -.124372818371D-04 0.100000000000D+01
  </mgrwgt>
  </event>
  <event>
  6     66 0.18337608E-05 0.50805070E+02 0.75467711E-02 0.93835888E-01
        2 -1    0    0  501    0 0.00000000E+00 0.00000000E+00 0.35161770E+04 0.35161770E+04 0.32000000E+00 0.0000E+00 0.9000E+01
       21 -1    0    0  502  503 0.00000000E+00 0.00000000E+00 -.24838445E+03 0.24838558E+03 0.75000000E+00 0.0000E+00 0.9000E+01
       25  1    1    2    0    0 0.31959015E+03 -.36821391E+03 0.12887530E+04 0.13835565E+04 0.12500000E+03 0.0000E+00 0.9000E+01
        2  1    1    2  501    0 0.56490375E+02 0.61261124E+02 0.18784421E+04 0.18802896E+04 0.32000000E+00 0.0000E+00 0.9000E+01
        1  1    1    2  502    0 -.20958900E+03 0.15629203E+03 0.87859710E+02 0.27581547E+03 0.32000000E+00 0.0000E+00 0.9000E+01
       -1  1    1    2    0  503 -.16649153E+03 0.15066076E+03 0.12737682E+02 0.22490097E+03 0.32000000E+00 0.0000E+00 0.9000E+01
#aMCatNLO 2  0  0  2  5 0.20118842D+03 0.00000000D+00  -5  6  0 0.00000000D+00 0.00000000D+00 0.00000000D+00 0.00000000D+00 0.00000000D+00
  <mgrwgt>
 0.2853896566D-02    1    2    0
 0.686185868250491D+03 0.000000000000000D+00 0.000000000000000D+00 0.686185868250491D+03
 0.686185868250491D+03 0.000000000000000D+00 0.000000000000000D+00 -.686185868250491D+03
 0.432656213792451D+03 0.263147789681260D+03 -.317109431324204D+03 0.419672334604725D+02
 0.394076609628051D+03 0.928517735373324D+01 0.103944290547732D+03 0.380007558082701D+03
 0.545638913080480D+03 -.272432967034993D+03 0.213165140776472D+03 -.421974791543174D+03
 0.000000000000000D+00 -.000000000000000D+00 0.000000000000000D+00 -.000000000000000D+00
 0.719627432677760D+03 0.000000000000000D+00 0.000000000000000D+00 0.719627432677760D+03
 0.121363598008453D+04 0.000000000000000D+00 0.000000000000000D+00 -.121363598008453D+04
 0.505145892066541D+03 0.319657600532629D+03 -.368246034614221D+03 0.419672334604725D+02
 0.389031729581197D+03 0.564734954950216D+02 0.612428504197351D+02 0.380007558082701D+03
 0.496441764687847D+03 -.209639567846989D+03 0.156342421055214D+03 -.421974791543174D+03
 0.542644026426707D+03 -.166491528180661D+03 0.150660763139271D+03 -.494008547406773D+03
0.336808194581D-03 0.000000000000D+00 0.000000000000D+00 0.208337013844D-05 0.385431901375D-10  6 2 21 25 2 1 -1 2 0.54095036D+00 0.38213078D-01 0.28770549D+06 0.28770549D+06 0.28770549D+06 0.10858990D+01  1  2  1  6  6  2        1 0.285389656574D-02 0.100000000000D+01
  </mgrwgt>
  </event>
  <event>
  6     66 0.18337608E-05 0.97025928E+02 0.75467711E-02 0.92581167E-01
        2 -1    0    0  501    0 0.00000000E+00 0.00000000E+00 0.13702592E+04 0.13702592E+04 0.32000000E+00 0.0000E+00 0.9000E+01
        1 -1    0    0  502    0 0.00000000E+00 0.00000000E+00 -.11700416E+04 0.11700416E+04 0.32000000E+00 0.0000E+00 0.9000E+01
       25  1    1    2    0    0 -.40903760E+03 0.39824065E+03 0.26364465E+03 0.64112470E+03 0.12500000E+03 0.0000E+00 0.9000E+01
        2  1    1    2  501    0 0.11445904E+03 0.92874845E+01 0.84689255E+03 0.85464275E+03 0.32000000E+00 0.0000E+00 0.9000E+01
        1  1    1    2  503    0 0.25502942E+03 -.36171926E+03 -.72330385E+03 0.84796780E+03 0.32000000E+00 0.0000E+00 0.9000E+01
       21  1    1    2  502  503 0.39549137E+02 -.45808874E+02 -.18701573E+03 0.19656559E+03 0.75000000E+00 0.0000E+00 0.9000E+01
#aMCatNLO 2  0  0  5  2 0.38126998D+02 0.00000000D+00  -5  6  0 0.00000000D+00 0.00000000D+00 0.00000000D+00 0.00000000D+00 0.00000000D+00
  <mgrwgt>
 0.7911253056D-02    3    2    0
 0.126619916161072D+04 0.000000000000000D+00 0.000000000000000D+00 0.126619916161072D+04
 0.126619916161072D+04 -.000000000000000D+00 -.000000000000000D+00 -.126619916161072D+04
 0.623094691783321D+03 -.409331916212276D+03 0.398661798457437D+03 0.214797923056114D+03
 0.791395866146105D+03 0.114095368717220D+03 0.977233805440079D+01 0.783067152420133D+03
 0.111790776529201D+04 0.295236547495056D+03 -.408434136511837D+03 -.997865075476247D+03
 0.000000000000000D+00 0.000000000000000D+00 0.000000000000000D+00 -.000000000000000D+00
 0.126619916161072D+04 0.000000000000000D+00 0.000000000000000D+00 0.126619916161072D+04
 0.126619916161072D+04 -.000000000000000D+00 -.000000000000000D+00 -.126619916161072D+04
 0.622346093422520D+03 -.409055235050470D+03 0.398279034086392D+03 0.213862773018793D+03
 0.790265726816702D+03 0.114446743083888D+03 0.928624211790398D+01 0.781879548067314D+03
 0.907735282183805D+03 0.255039052061370D+03 -.361732959173539D+03 -.792519836150809D+03
 0.212051220798413D+03 0.395694399052115D+02 -.458323170307568D+02 -.203222484935298D+03
-.236843243301D-02 0.000000000000D+00 0.000000000000D+00 0.933129409580D-05 0.000000000000D+00  6 2 1 25 2 1 21 2 0.21080911D+00 0.18000640D+00 0.36145371D+06 0.36145371D+06 0.36145371D+06 0.10786145D+01  1  2 13  4  6  5        1 -.685285305236D-02 0.100000000000D+01
-.159164981936D-08 0.000000000000D+00 0.000000000000D+00 0.933129409580D-05 0.000000000000D+00  6 2 1 25 2 1 21 2 0.21080911D+00 0.18000640D+00 0.36145371D+06 0.36145371D+06 0.36145371D+06 0.10786145D+01  1  2 13  4  6  5        1 -.460530018542D-08 0.100000000000D+01
0.510266284594D-02 0.000000000000D+00 0.000000000000D+00 0.933129409580D-05 0.675327228339D-07  6 2 1 25 2 1 21 2 0.21080911D+00 0.18000640D+00 0.36145371D+06 0.36145371D+06 0.36145371D+06 0.10786145D+01  1  2  1  4  6  5        1 0.147641107138D-01 0.100000000000D+01
  </mgrwgt>
  </event>
  <event>
  5     66 -.18337608E-05 0.17604135E+03 0.75467711E-02 0.94426991E-01
        2 -1    0    0  501    0 0.00000000E+00 0.00000000E+00 0.30557349E+04 0.30557349E+04 0.32000000E+00 0.0000E+00 0.9000E+01
        1 -1    0    0  502    0 0.00000000E+00 0.00000000E+00 -.13290023E+04 0.13290023E+04 0.32000000E+00 0.0000E+00 0.9000E+01
       25  1    1    2    0    0 0.26115864E+03 0.41395214E+03 0.61553357E+02 0.50889490E+03 0.12500000E+03 0.0000E+00 0.9000E+01
        2  1    1    2  501    0 -.11465099E+03 -.31636858E+03 0.27531927E+04 0.27736806E+04 0.32000000E+00 0.0000E+00 0.9000E+01
        1  1    1    2  502    0 -.14650765E+03 -.97583552E+02 -.10880135E+04 0.11021617E+04 0.32000000E+00 0.0000E+00 0.9000E+01
#aMCatNLO 1  0  0  5  2 0.64164940D+01 0.00000000D+00  -5  6  0 0.00000000D+00 0.00000000D+00 0.00000000D+00 0.00000000D+00 0.00000000D+00
  <mgrwgt>
 -.7920710584D-01    9    2    0
 0.201521182795239D+04 0.000000000000000D+00 0.000000000000000D+00 0.201521182795239D+04
 0.201521182795239D+04 -.000000000000000D+00 -.000000000000000D+00 -.201521182795239D+04
 0.527253810303387D+03 0.261165598251310D+03 0.413954707134739D+03 -.151015268136927D+03
 0.183795991537197D+04 -.114649817150532D+03 -.316365352855392D+03 0.180689375267451D+04
 0.166520993022943D+04 -.146515781100778D+03 -.975893542793472D+02 -.165587848453758D+04
 0.000000000000000D+00 0.000000000000000D+00 0.000000000000000D+00 -.000000000000000D+00
 0.201521182795239D+04 0.000000000000000D+00 0.000000000000000D+00 0.201521182795239D+04
 0.201521182795239D+04 -.000000000000000D+00 -.000000000000000D+00 -.201521182795239D+04
 0.527255472304626D+03 0.261164849209313D+03 0.413954208222443D+03 -.151023733590392D+03
 0.183793136686544D+04 -.114652428219958D+03 -.316367092003061D+03 0.180686424313191D+04
 0.124060914529107D+04 -.114041826365129D+03 -.768081469323893D+02 -.123296635062922D+04
 0.424627671443655D+03 -.324705946242258D+02 -.207789692869921D+02 -.422874158912294D+03
0.116911854737D-03 0.000000000000D+00 0.000000000000D+00 0.194317772936D-03 0.000000000000D+00  6 2 1 25 2 1 21 0 0.47011306D+00 0.20446189D+00 0.25893072D+06 0.25893072D+06 0.25893072D+06 0.10893142D+01  1  2  2  4  6  5        1 0.251356004754D-04 0.100000000000D+01
0.194183916207D-04 0.000000000000D+00 -.448972305789D-06 0.194317772936D-03 0.000000000000D+00  6 2 1 25 2 1 21 2 0.47011306D+00 0.20446189D+00 0.25893072D+06 0.25893072D+06 0.25893072D+06 0.10893142D+01  1  2  3  4  6  5        1 0.495393486077D-05 0.100000000000D+01
-.823423906169D-04 0.000000000000D+00 0.000000000000D+00 0.194317772936D-03 0.000000000000D+00  6 2 1 25 2 1 21 2 0.47011306D+00 0.20446189D+00 0.25893072D+06 0.25893072D+06 0.25893072D+06 0.10893142D+01  1  2 15  4  6  5        1 -.210068293689D-04 0.100000000000D+01
0.433454980206D+00 0.000000000000D+00 0.000000000000D+00 0.194317772936D-03 0.000000000000D+00  6 2 1 25 2 1 21 2 0.47011306D+00 0.20446189D+00 0.25893376D+06 0.25893376D+06 0.25893376D+06 0.10893138D+01  1  2 12  4  6  5        1 0.110580918611D+00 0.100000000000D+01
0.142919213194D-08 0.000000000000D+00 0.000000000000D+00 0.194317772936D-03 0.000000000000D+00  6 2 1 25 2 1 21 2 0.47011306D+00 0.20446189D+00 0.25893376D+06 0.25893376D+06 0.25893376D+06 0.10893138D+01  1  2 12  4  6  5        1 0.364608520003D-09 0.100000000000D+01
-.966504814739D+00 0.000000000000D+00 0.000000000000D+00 0.194317772936D-03 0.000000000000D+00  6 2 1 25 2 1 21 2 0.47011306D+00 0.20446189D+00 0.25893072D+06 0.25893072D+06 0.25893072D+06 0.10893142D+01  1  2  4  4  6  5        1 -.246570467233D+00 0.100000000000D+01
-.498013827256D+00 0.000000000000D+00 0.000000000000D+00 0.194317772936D-03 0.000000000000D+00  6 2 1 25 2 1 21 2 0.47011306D+00 0.20446189D+00 0.25893072D+06 0.25893072D+06 0.25893072D+06 0.10893142D+01  1  2  5  4  6  5        1 -.127051102284D+00 0.100000000000D+01
0.640521638678D+00 0.000000000000D+00 -.000000000000D+00 0.194317772936D-03 0.000000000000D+00  6 2 1 25 2 1 21 2 0.47011306D+00 0.20446189D+00 0.25893072D+06 0.25893072D+06 0.25893072D+06 0.10893142D+01  1  2  6  4  6  5        1 0.163407069797D+00 0.100000000000D+01
0.800320746484D-01 0.000000000000D+00 0.000000000000D+00 0.194317772936D-03 0.235651304509D-04  6 2 1 25 2 1 21 2 0.47011306D+00 0.20446189D+00 0.25893376D+06 0.25893376D+06 0.25893376D+06 0.10893138D+01  1  2 11  4  6  5        1 0.204173922024D-01 0.100000000000D+01
  </mgrwgt>
  </event>
  <event>
  5     66 0.18337608E-05 0.67245020E+02 0.75467711E-02 0.87020540E-01
        2 -1    0    0  501    0 0.00000000E+00 0.00000000E+00 0.20438793E+04 0.20438793E+04 0.32000000E+00 0.0000E+00 0.9000E+01
        1 -1    0    0  502    0 0.00000000E+00 0.00000000E+00 -.16745335E+04 0.16745335E+04 0.32000000E+00 0.0000E+00 0.9000E+01
       25  1    1    2    0    0 0.41658429E+03 -.43765325E+03 0.35882895E+03 0.71376890E+03 0.12500000E+03 0.0000E+00 0.9000E+01
        2  1    1    2  501    0 -.10574631E+02 -.66412901E+02 0.14367990E+04 0.14383720E+04 0.32000000E+00 0.0000E+00 0.9000E+01
        1  1    1    2  502    0 -.40600966E+03 0.50406615E+03 -.14262822E+04 0.15662719E+04 0.32000000E+00 0.0000E+00 0.9000E+01
#aMCatNLO 1  0  0  2  4 0.90455699D+02 0.00000000D+00  -5  6  0 0.00000000D+00 0.00000000D+00 0.00000000D+00 0.00000000D+00 0.00000000D+00
  <mgrwgt>
 0.1940206358D-01    4    2    0
 0.185001200101789D+04 0.000000000000000D+00 0.000000000000000D+00 0.185001200101789D+04
 0.185001200101789D+04 0.000000000000000D+00 0.000000000000000D+00 -.185001200101789D+04
 0.681576190931581D+03 0.416616217637346D+03 -.437696848517429D+03 0.289436521614438D+03
 0.130200878985037D+04 -.105739252421367D+02 -.664084695214073D+02 0.130027112408467D+04
 0.171643902125383D+04 -.406042292395209D+03 0.504105318038837D+03 -.158970764569911D+04
 0.000000000000000D+00 0.000000000000000D+00 0.000000000000000D+00 0.000000000000000D+00
 0.288164496014860D+04 0.000000000000000D+00 0.000000000000000D+00 0.288164496014860D+04
 0.194990785559596D+04 0.000000000000000D+00 0.000000000000000D+00 -.194990785559596D+04
 0.720892114340819D+03 0.369365017262776D+03 -.532781779434113D+03 0.289436521614438D+03
 0.132679361101333D+04 -.991421078680066D+02 -.244636735885821D+03 0.130027112408467D+04
 0.169499779422946D+04 -.520978568621626D+03 0.272815788922629D+03 -.158970764569911D+04
 0.108886929616094D+04 0.250755659226857D+03 0.504602726397305D+03 0.931737104552642D+03
0.538086833170D-01 0.000000000000D+00 0.000000000000D+00 0.894586877097D-04 0.000000000000D+00  6 2 1 25 2 1 21 0 0.31444297D+00 0.25762054D+00 0.44329568D+06 0.44329568D+06 0.44329568D+06 0.10722247D+01  1  2  2  2  6  2        1 0.252538882120D-01 0.100000000000D+01
0.231682210020D-01 0.000000000000D+00 -.206639512089D-03 0.894586877097D-04 0.000000000000D+00  6 2 1 25 2 1 21 2 0.31444297D+00 0.25762054D+00 0.44329568D+06 0.44329568D+06 0.44329568D+06 0.10722247D+01  1  2  3  2  6  2        1 0.125008696687D-01 0.100000000000D+01
-.339932440931D-01 0.000000000000D+00 0.000000000000D+00 0.894586877097D-04 0.000000000000D+00  6 2 1 25 2 1 21 2 0.31444297D+00 0.25762054D+00 0.44329568D+06 0.44329568D+06 0.44329568D+06 0.10722247D+01  1  2 15  2  6  2        1 -.183417239498D-01 0.100000000000D+01
-.203316637052D-04 0.000000000000D+00 0.000000000000D+00 0.894586877097D-04 0.000000000000D+00  6 2 1 25 2 1 21 2 0.31444297D+00 0.25762054D+00 0.44329568D+06 0.44329568D+06 0.44329568D+06 0.10722247D+01  1  2  4  2  6  2        1 -.109703493464D-04 0.100000000000D+01
  </mgrwgt>
  </event>
  <event>
  5     66 0.18337608E-05 0.46689246E+02 0.75467711E-02 0.93166731E-01
        2 -1    0    0  501    0 0.00000000E+00 0.00000000E+00 0.26780774E+04 0.26780774E+04 0.32000000E+00 0.0000E+00 0.9000E+01
        1 -1    0    0  502    0 0.00000000E+00 0.00000000E+00 -.64432155E+03 0.64432163E+03 0.32000000E+00 0.0000E+00 0.9000E+01
       25  1    1    2    0    0 -.24425728E+03 -.45781356E+03 0.42863074E+03 0.68454670E+03 0.12500000E+03 0.0000E+00 0.9000E+01
        2  1    1    2  501    0 0.69100375E+01 -.46178609E+02 0.19708781E+04 0.19714312E+04 0.32000000E+00 0.0000E+00 0.9000E+01
        1  1    1    2  502    0 0.23734725E+03 0.50399217E+03 -.36575300E+03 0.66642118E+03 0.32000000E+00 0.0000E+00 0.9000E+01
#aMCatNLO 1  0  0  1  4 0.24906649D+01 0.00000000D+00  -5  6  0 0.00000000D+00 0.00000000D+00 0.00000000D+00 0.00000000D+00 0.00000000D+00
  <mgrwgt>
 0.5480761356D-01   13    2    0
 0.131359930270038D+04 0.000000000000000D+00 0.000000000000000D+00 0.131359930270038D+04
 0.131359930270038D+04 0.000000000000000D+00 0.000000000000000D+00 -.131359930270038D+04
 0.533939571965793D+03 -.244282346930735D+03 -.457869012847126D+03 0.121888704737366D+02
 0.967344240465594D+03 0.690951948100774D+01 -.461751473261878D+02 0.966216846195461D+03
 0.112591479296937D+04 0.237372827449727D+03 0.504044160173314D+03 -.978405716669197D+03
 0.000000000000000D+00 0.000000000000000D+00 -.000000000000000D+00 0.000000000000000D+00
 0.137276157143397D+04 0.000000000000000D+00 0.000000000000000D+00 0.137276157143397D+04
 0.131362610681483D+04 0.000000000000000D+00 0.000000000000000D+00 -.131362610681483D+04
 0.533662657587292D+03 -.244517056246739D+03 -.457420673717460D+03 0.121888704737366D+02
 0.967302854616524D+03 0.648419281548814D+01 -.453626930517307D+02 0.966216846195461D+03
 0.112623427381003D+04 0.236877698878081D+03 0.504989949273905D+03 -.978405716669197D+03
 0.591878922349529D+02 0.115516455316985D+01 -.220658250471475D+01 0.591354646191385D+02
0.871470961394D-04 0.000000000000D+00 0.000000000000D+00 0.531507817370D-04 0.000000000000D+00  6 2 1 25 2 1 21 0 0.41201191D+00 0.99126400D-01 0.32355103D+06 0.32355103D+06 0.32355103D+06 0.10821319D+01  1  2  2  1  6  1        2 0.109869024799D-03 0.100000000000D+01
0.452503133533D-04 0.000000000000D+00 -.334667795533D-06 0.531507817370D-04 0.000000000000D+00  6 2 1 25 2 1 21 2 0.41201191D+00 0.99126400D-01 0.32355103D+06 0.32355103D+06 0.32355103D+06 0.10821319D+01  1  2  3  1  6  1        2 0.668042887781D-04 0.100000000000D+01
-.563560863198D-04 0.000000000000D+00 0.000000000000D+00 0.531507817370D-04 0.000000000000D+00  6 2 1 25 2 1 21 2 0.41201191D+00 0.99126400D-01 0.32355103D+06 0.32355103D+06 0.32355103D+06 0.10821319D+01  1  2 15  1  6  1        2 -.832000484841D-04 0.100000000000D+01
0.371845601884D-03 0.000000000000D+00 0.000000000000D+00 0.531507817370D-04 0.000000000000D+00  6 2 1 25 2 1 21 2 0.44035692D+00 0.99126400D-01 0.32468599D+06 0.32468599D+06 0.32468599D+06 0.10820202D+01  1  2 12  1  6  1        2 0.424287169632D-03 0.100000000000D+01
0.490620181931D-10 0.000000000000D+00 0.000000000000D+00 0.531507817370D-04 0.000000000000D+00  6 2 1 25 2 1 21 2 0.43057340D+00 0.99126400D-01 0.32468599D+06 0.32468599D+06 0.32468599D+06 0.10820202D+01  1  2 12  1  6  1        2 0.612363731043D-10 0.100000000000D+01
-.923736620398D-01 0.000000000000D+00 0.000000000000D+00 0.531507817370D-04 0.000000000000D+00  6 2 1 25 2 1 21 2 0.41201191D+00 0.99126400D-01 0.32355103D+06 0.32355103D+06 0.32355103D+06 0.10821319D+01  1  2  4  1  6  1        2 -.136373791408D+00 0.100000000000D+01
-.323404790506D+00 0.000000000000D+00 -.299216541368D-03 0.531507817370D-04 0.000000000000D+00  6 2 1 25 2 1 21 2 0.43057067D+00 0.99126400D-01 0.32355103D+06 0.32355103D+06 0.32355103D+06 0.10821319D+01  1  2  5  1  6  1        2 -.403861100550D+00 0.100000000000D+01
0.323104605603D+00 0.000000000000D+00 0.298926354411D-03 0.531507817370D-04 0.000000000000D+00  6 2 1 25 2 1 21 2 0.41201191D+00 0.99126400D-01 0.32355103D+06 0.32355103D+06 0.32355103D+06 0.10821319D+01  1  2  6  1  6  1        2 0.477008263119D+00 0.100000000000D+01
0.941452735159D-01 0.000000000000D+00 0.000000000000D+00 0.531507817370D-04 0.495873050325D-03  6 2 1 25 2 1 21 2 0.43056823D+00 0.99128422D-01 0.32468599D+06 0.32468599D+06 0.32468599D+06 0.10820202D+01  1  2 11  1  6  1        2 0.117508655479D+00 0.100000000000D+01
0.115361619423D-04 0.000000000000D+00 0.000000000000D+00 0.531507817370D-04 0.000000000000D+00  6 21 1 25 2 1 -2 2 0.44035692D+00 0.99126400D-01 0.32468599D+06 0.32468599D+06 0.32468599D+06 0.10820202D+01  1  2 12  5  6  1        2 0.102906199206D-05 0.100000000000D+01
0.104103280460D-11 0.000000000000D+00 0.000000000000D+00 0.531507817370D-04 0.000000000000D+00  6 21 1 25 2 1 -2 2 0.43057340D+00 0.99126400D-01 0.32468599D+06 0.32468599D+06 0.32468599D+06 0.10820202D+01  1  2 12  5  6  1        2 0.109156061573D-12 0.100000000000D+01
-.251127054104D-02 0.000000000000D+00 -.231641085910D-05 0.531507817370D-04 0.000000000000D+00  6 21 1 25 2 1 -2 2 0.43057067D+00 0.99126400D-01 0.32355103D+06 0.32355103D+06 0.32355103D+06 0.10821319D+01  1  2  5  5  6  1        2 -.263505024747D-03 0.100000000000D+01
0.257776199847D-02 0.000000000000D+00 0.000000000000D+00 0.531507817370D-04 0.433500670533D-06  6 21 1 25 2 1 -2 2 0.43056823D+00 0.99128422D-01 0.32468599D+06 0.32468599D+06 0.32468599D+06 0.10820202D+01  1  2 11  5  6  1        2 0.270302382276D-03 0.100000000000D+01
  </mgrwgt>
  </event>
  <event>
  5     66 0.18337608E-05 0.72123982E+02 0.75467711E-02 0.90778241E-01
        2 -1    0    0  501    0 0.00000000E+00 0.00000000E+00 0.13377110E+04 0.13377110E+04 0.32000000E+00 0.0000E+00 0.9000E+01
        1 -1    0    0  502    0 -.00000000E+00 -.00000000E+00 -.14661017E+04 0.14661017E+04 0.32000000E+00 0.0000E+00 0.9000E+01
       25  1    1    2    0    0 -.59463802E+03 -.24866517E+03 0.73046693E+03 0.98215868E+03 0.12500000E+03 0.0000E+00 0.9000E+01
        2  1    1    2  501    0 -.65819346E+02 0.29584969E+02 0.38752373E+03 0.39418549E+03 0.32000000E+00 0.0000E+00 0.9000E+01
        1  1    1    2  502    0 0.66045736E+03 0.21908021E+03 -.12463814E+04 0.14274686E+04 0.32000000E+00 0.0000E+00 0.9000E+01
#aMCatNLO 1  0  0  4  1 0.87268861D+00 0.00000000D+00  -5  6  0 0.00000000D+00 0.00000000D+00 0.00000000D+00 0.00000000D+00 0.00000000D+00
  <mgrwgt>
 0.1413300799D-02    7    2    0
 0.140043582200217D+04 0.000000000000000D+00 0.000000000000000D+00 0.140043582200217D+04
 0.140043582200217D+04 -.000000000000000D+00 -.000000000000000D+00 -.140043582200217D+04
 0.101688280147662D+04 -.594743680166442D+03 -.248675820453627D+03 0.776444410864512D+03
 0.412141901938846D+03 -.657840225652603D+02 0.295690912719350D+02 0.405782057945216D+03
 0.137184694058887D+04 0.660527702731702D+03 0.219106729181692D+03 -.118222646880973D+04
 0.000000000000000D+00 0.000000000000000D+00 0.000000000000000D+00 0.000000000000000D+00
 0.140043582200217D+04 0.000000000000000D+00 0.000000000000000D+00 0.140043582200217D+04
 0.140043582200217D+04 -.000000000000000D+00 -.000000000000000D+00 -.140043582200217D+04
 0.101701045934575D+04 -.594768300775865D+03 -.248664753799159D+03 0.776596280591686D+03
 0.411094091848393D+03 -.648866374622886D+02 0.290402235223978D+02 0.404900903986718D+03
 0.137165679670671D+04 0.660494492171804D+03 0.219121656910926D+03 -.118202161284599D+04
 0.111029610348683D+01 -.839553933650489D+00 0.502873365835314D+00 0.524428267586224D+00
0.578567506235D-03 0.000000000000D+00 0.000000000000D+00 0.317473639649D-05 0.000000000000D+00  6 2 1 25 2 1 21 0 0.20580170D+00 0.22555412D+00 0.50743577D+06 0.50743577D+06 0.50743577D+06 0.10680576D+01  1  2  2  3  6  4        2 0.912553835544D-03 0.100000000000D+01
0.122686688693D-03 0.000000000000D+00 -.222185156427D-05 0.317473639649D-05 0.000000000000D+00  6 2 1 25 2 1 21 2 0.20580170D+00 0.22555412D+00 0.50743577D+06 0.50743577D+06 0.50743577D+06 0.10680576D+01  1  2  3  3  6  4        2 0.220745186888D-03 0.100000000000D+01
-.344947510714D-03 0.000000000000D+00 0.000000000000D+00 0.317473639649D-05 0.000000000000D+00  6 2 1 25 2 1 21 2 0.20580170D+00 0.22555412D+00 0.50743577D+06 0.50743577D+06 0.50743577D+06 0.10680576D+01  1  2 15  3  6  4        2 -.620650076467D-03 0.100000000000D+01
-.768599826545D-02 0.000000000000D+00 0.000000000000D+00 0.317473639649D-05 0.000000000000D+00  6 2 1 25 2 1 21 2 0.20580170D+00 0.22555412D+00 0.50743577D+06 0.50743577D+06 0.50743577D+06 0.10680576D+01  1  2  4  3  6  4        2 -.138291051914D-01 0.100000000000D+01
-.172901367347D+00 0.000000000000D+00 0.000000000000D+00 0.317473639649D-05 0.000000000000D+00  6 2 1 25 2 1 21 2 0.20580170D+00 0.22555412D+00 0.50743577D+06 0.50743577D+06 0.50743577D+06 0.10680576D+01  1  2  5  3  6  4        2 -.311094423158D+00 0.100000000000D+01
0.173615331072D+00 0.000000000000D+00 -.000000000000D+00 0.317473639649D-05 0.000000000000D+00  6 2 1 25 2 1 21 2 0.20580170D+00 0.22555412D+00 0.50743577D+06 0.50743577D+06 0.50743577D+06 0.10680576D+01  1  2  6  3  6  4        2 0.312379029153D+00 0.100000000000D+01
0.747251604903D-02 0.000000000000D+00 0.000000000000D+00 0.317473639649D-05 0.100389876817D-05  6 2 1 25 2 1 21 2 0.20580170D+00 0.22555412D+00 0.50738925D+06 0.50738925D+06 0.50738925D+06 0.10680604D+01  1  2 11  3  6  4        2 0.134451510495D-01 0.100000000000D+01
  </mgrwgt>
  </event>
  <event>
  5     66 0.18337608E-05 0.77000798E+02 0.75467711E-02 0.90222434E-01
        2 -1    0    0  501    0 0.00000000E+00 0.00000000E+00 0.17495983E+04 0.17495983E+04 0.32000000E+00 0.0000E+00 0.9000E+01
        1 -1    0    0  502    0 0.00000000E+00 0.00000000E+00 -.12964490E+04 0.12964490E+04 0.32000000E+00 0.0000E+00 0.9000E+01
       25  1    1    2    0    0 0.12517195E+03 -.68750810E+03 0.60446074E+02 0.71247044E+03 0.12500000E+03 0.0000E+00 0.9000E+01
        2  1    1    2  501    0 -.31317846E+02 0.70350363E+02 0.12614533E+04 0.12638016E+04 0.32000000E+00 0.0000E+00 0.9000E+01
        1  1    1    2  502    0 -.93854099E+02 0.61715773E+03 -.86875007E+03 0.10697752E+04 0.32000000E+00 0.0000E+00 0.9000E+01
#aMCatNLO 1  0  0  2  5 0.60013922D+02 0.00000000D+00  -5  6  0 0.00000000D+00 0.00000000D+00 0.00000000D+00 0.00000000D+00 0.00000000D+00
  <mgrwgt>
 0.1353544071D-01   11    2    0
 0.150607602280244D+04 0.000000000000000D+00 0.000000000000000D+00 0.150607602280244D+04
 0.150607602280244D+04 0.000000000000000D+00 0.000000000000000D+00 -.150607602280244D+04
 0.711445190647404D+03 0.125179718011906D+03 -.687564350694163D+03 -.459843576479533D+02
 0.108817068707230D+04 -.313155800032007D+02 0.703452728635690D+02 0.108544291477637D+04
 0.121253616788517D+04 -.938641380087052D+02 0.617219077830594D+03 -.103945855712841D+04
 0.000000000000000D+00 0.000000000000000D+00 -.000000000000000D+00 -.000000000000000D+00
 0.150869481143539D+04 0.000000000000000D+00 0.000000000000000D+00 0.150869481143539D+04
 0.189450441151127D+04 0.000000000000000D+00 0.000000000000000D+00 -.189450441151127D+04
 0.697812446508195D+03 0.120669188034873D+03 -.674271159410264D+03 -.459843576479533D+02
 0.108991435940426D+04 -.382868517108280D+02 0.908906297891150D+02 0.108544291477637D+04
 0.122502303710739D+04 -.101665893752320D+03 0.640211992627349D+03 -.103945855712841D+04
 0.390449379926809D+03 0.192835574282759D+02 -.568314630062004D+02 -.385809600075886D+03
0.405247172565D-03 0.000000000000D+00 0.000000000000D+00 0.213212487940D-04 0.000000000000D+00  6 2 1 25 2 1 21 0 0.26916897D+00 0.19945369D+00 0.49792347D+06 0.49792347D+06 0.49792347D+06 0.10686382D+01  1  2  2  2  6  2        1 0.494920912468D-03 0.100000000000D+01
0.166586709300D-03 0.000000000000D+00 -.155625584668D-05 0.213212487940D-04 0.000000000000D+00  6 2 1 25 2 1 21 2 0.26916897D+00 0.19945369D+00 0.49792347D+06 0.49792347D+06 0.49792347D+06 0.10686382D+01  1  2  3  2  6  2        1 0.232336538817D-03 0.100000000000D+01
-.241152625116D-03 0.000000000000D+00 0.000000000000D+00 0.213212487940D-04 0.000000000000D+00  6 2 1 25 2 1 21 2 0.26916897D+00 0.19945369D+00 0.49792347D+06 0.49792347D+06 0.49792347D+06 0.10686382D+01  1  2 15  2  6  2        1 -.336332751163D-03 0.100000000000D+01
0.247531283258D-01 0.000000000000D+00 0.000000000000D+00 0.213212487940D-04 0.000000000000D+00  6 2 1 25 2 1 21 2 0.26916897D+00 0.25416353D+00 0.56487934D+06 0.56487934D+06 0.56487934D+06 0.10647857D+01  1  2 12  2  6  2        1 0.194046818504D-01 0.100000000000D+01
0.342939814653D-08 0.000000000000D+00 0.000000000000D+00 0.213212487940D-04 0.000000000000D+00  6 2 1 25 2 1 21 2 0.26916897D+00 0.25111202D+00 0.56487934D+06 0.56487934D+06 0.56487934D+06 0.10647857D+01  1  2 12  2  6  2        1 0.277227252809D-08 0.100000000000D+01
-.148009229733D-01 0.000000000000D+00 0.000000000000D+00 0.213212487940D-04 0.000000000000D+00  6 2 1 25 2 1 21 2 0.26916897D+00 0.19945369D+00 0.49792347D+06 0.49792347D+06 0.49792347D+06 0.10686382D+01  1  2  4  2  6  2        1 -.206426744928D-01 0.100000000000D+01
-.266964443374D-01 0.000000000000D+00 -.393658233075D-03 0.213212487940D-04 0.000000000000D+00  6 2 1 25 2 1 21 2 0.26916897D+00 0.25104060D+00 0.49792347D+06 0.49792347D+06 0.49792347D+06 0.10686382D+01  1  2  5  2  6  2        1 -.219783847973D-01 0.100000000000D+01
0.261035047295D-01 0.000000000000D+00 0.383467816547D-03 0.213212487940D-04 0.000000000000D+00  6 2 1 25 2 1 21 2 0.26916897D+00 0.19945369D+00 0.49792347D+06 0.49792347D+06 0.49792347D+06 0.10686382D+01  1  2  6  2  6  2        1 0.364062533279D-01 0.100000000000D+01
0.818807987392D-03 0.000000000000D+00 0.000000000000D+00 0.213212487940D-04 0.000000000000D+00  6 2 21 25 2 1 -1 2 0.26916897D+00 0.25416353D+00 0.56487934D+06 0.56487934D+06 0.56487934D+06 0.10647857D+01  1  2 12  6  6  2        1 0.421601882885D-03 0.100000000000D+01
0.109205729328D-09 0.000000000000D+00 0.000000000000D+00 0.213212487940D-04 0.000000000000D+00  6 2 21 25 2 1 -1 2 0.26916897D+00 0.25111202D+00 0.56487934D+06 0.56487934D+06 0.56487934D+06 0.10647857D+01  1  2 12  6  6  2        1 0.590168031192D-10 0.100000000000D+01
-.843588263032D-03 0.000000000000D+00 -.125240738310D-04 0.213212487940D-04 0.000000000000D+00  6 2 21 25 2 1 -1 2 0.26916897D+00 0.25104060D+00 0.49792347D+06 0.49792347D+06 0.49792347D+06 0.10686382D+01  1  2  5  6  6  2        1 -.466964592184D-03 0.100000000000D+01
  </mgrwgt>
  </event>
  <event>
  6     66 0.18337608E-05 0.10140947E+03 0.75467711E-02 0.93944026E-01
        2 -1    0    0  501    0 0.00000000E+00 0.00000000E+00 0.70529603E+03 0.70529610E+03 0.32000000E+00 0.0000E+00 0.9000E+01
        1 -1    0    0  503    0 0.00000000E+00 0.00000000E+00 -.11078110E+04 0.11078110E+04 0.32000000E+00 0.0000E+00 0.9000E+01
       25  1    1    2    0    0 -.37552395E+03 0.35899139E+03 -.14993637E+03 0.55497655E+03 0.12500000E+03 0.0000E+00 0.9000E+01
        2  1    1    2  501    0 0.35119914E+02 -.66825803E+01 0.37551172E+03 0.37720978E+03 0.32000000E+00 0.0000E+00 0.9000E+01
        1  1    1    2  502    0 0.27323704E+03 -.25373947E+03 -.17410586E+03 0.41152782E+03 0.32000000E+00 0.0000E+00 0.9000E+01
       21  1    1    2  503  502 0.67166995E+02 -.98569345E+02 -.45398445E+03 0.46939297E+03 0.75000000E+00 0.0000E+00 0.9000E+01
#aMCatNLO 2  0  0  2  1 0.11927833D+03 0.00000000D+00  -5  6  0 0.00000000D+00 0.00000000D+00 0.00000000D+00 0.00000000D+00 0.00000000D+00
  <mgrwgt>
 0.3160824069D-01    1    2    0
 0.668709820990676D+03 0.000000000000000D+00 0.000000000000000D+00 0.668709820990676D+03
 0.668709820990676D+03 0.000000000000000D+00 0.000000000000000D+00 -.668709820990676D+03
 0.518084780586750D+03 -.348537471649636D+03 0.319360708309677D+03 -.171222687514361D+03
 0.366663678227309D+03 0.533930630491455D+02 -.335143581678632D+02 0.361203850403073D+03
 0.452671183167293D+03 0.295144408600491D+03 -.285846350141814D+03 -.189981162888712D+03
 0.000000000000000D+00 0.000000000000000D+00 -.000000000000000D+00 -.000000000000000D+00
 0.678778340242015D+03 0.000000000000000D+00 0.000000000000000D+00 0.678778340242015D+03
 0.115108878380707D+04 0.000000000000000D+00 0.000000000000000D+00 -.115108878380707D+04
 0.561182395496743D+03 -.375584911407695D+03 0.359053542829891D+03 -.171222687514361D+03
 0.362967501724506D+03 0.351078267122431D+02 -.668028934005761D+01 0.361203850403073D+03
 0.418578154108220D+03 0.273310089456530D+03 -.253803908254702D+03 -.189981162888712D+03
 0.487139072719613D+03 0.671669952389215D+02 -.985693452351317D+02 -.472310443565052D+03
0.366548588131D-02 0.000000000000D+00 0.000000000000D+00 0.898941337044D-06 0.175977029669D-08  6 2 1 25 2 1 21 2 0.10850704D+00 0.17043240D+00 0.28218437D+06 0.28218437D+06 0.28218437D+06 0.10865245D+01  1  2  1  2  6  2        1 0.316082406896D-01 0.100000000000D+01
  </mgrwgt>
  </event>
  <event>
  5     66 0.18337608E-05 0.66696390E+02 0.75467711E-02 0.94647605E-01
        2 -1    0    0  501    0 0.00000000E+00 0.00000000E+00 0.90197227E+03 0.90197232E+03 0.32000000E+00 0.0000E+00 0.9000E+01
        1 -1    0    0  502    0 0.00000000E+00 0.00000000E+00 -.13984525E+04 0.13984526E+04 0.32000000E+00 0.0000E+00 0.9000E+01
       25  1    1    2    0    0 0.70340301E+02 0.47452032E+03 0.19276151E+03 0.53188278E+03 0.12500000E+03 0.0000E+00 0.9000E+01
        2  1    1    2  501    0 -.11072263E+03 -.42144955E+03 0.45055230E+03 0.62679877E+03 0.32000000E+00 0.0000E+00 0.9000E+01
        1  1    1    2  502    0 0.40382326E+02 -.53070766E+02 -.11397941E+04 0.11417433E+04 0.32000000E+00 0.0000E+00 0.9000E+01
#aMCatNLO 1  0  0  1  4 0.82478888D+02 0.00000000D+00  -5  6  0 0.00000000D+00 0.00000000D+00 0.00000000D+00 0.00000000D+00 0.00000000D+00
  <mgrwgt>
 0.3603012755D-02    7    2    0
 0.112310529473120D+04 0.000000000000000D+00 0.000000000000000D+00 0.112310529473120D+04
 0.112310529473120D+04 0.000000000000000D+00 0.000000000000000D+00 -.112310529473120D+04
 0.587360478789131D+03 0.703208231694080D+02 0.474472755371229D+03 0.315115722049231D+03
 0.741416457878986D+03 -.110708256385972D+03 -.421394853444346D+03 0.599890342873110D+03
 0.917433652794276D+03 0.403874332165638D+02 -.530779019268830D+02 -.915006064922341D+03
 0.000000000000000D+00 -.000000000000000D+00 0.000000000000000D+00 0.000000000000000D+00
 0.162713003455474D+04 0.000000000000000D+00 0.000000000000000D+00 0.162713003455474D+04
 0.118491187288254D+04 0.000000000000000D+00 0.000000000000000D+00 -.118491187288254D+04
 0.543262134859957D+03 0.114548913875553D+03 0.408765672751420D+03 0.315115722049231D+03
 0.789246469344997D+03 -.508312488252438D+02 -.510350614816903D+03 0.599890342873110D+03
 0.935858158954370D+03 0.112885150284530D+03 -.160783511847559D+03 -.915006064922341D+03
 0.543675144277950D+03 -.176602815334839D+03 0.262368453913042D+03 0.442218161672199D+03
0.704030537261D-03 0.000000000000D+00 0.000000000000D+00 0.227056048207D-04 0.000000000000D+00  6 2 1 25 2 1 21 0 0.13876497D+00 0.21514655D+00 0.24903438D+06 0.24903438D+06 0.24903438D+06 0.10905856D+01  1  2  2  1  6  1        2 0.235956971113D-02 0.100000000000D+01
0.258078258126D-03 0.000000000000D+00 -.270366263858D-05 0.227056048207D-04 0.000000000000D+00  6 2 1 25 2 1 21 2 0.13876497D+00 0.21514655D+00 0.24903438D+06 0.24903438D+06 0.24903438D+06 0.10905856D+01  1  2  3  1  6  1        2 0.102875563678D-02 0.100000000000D+01
-.458638798476D-03 0.000000000000D+00 0.000000000000D+00 0.227056048207D-04 0.000000000000D+00  6 2 1 25 2 1 21 2 0.13876497D+00 0.21514655D+00 0.24903438D+06 0.24903438D+06 0.24903438D+06 0.10905856D+01  1  2 15  1  6  1        2 -.182823323671D-02 0.100000000000D+01
-.356869506962D-03 0.000000000000D+00 0.000000000000D+00 0.227056048207D-04 0.000000000000D+00  6 2 1 25 2 1 21 2 0.13876497D+00 0.21514655D+00 0.24903438D+06 0.24903438D+06 0.24903438D+06 0.10905856D+01  1  2  4  1  6  1        2 -.142255887632D-02 0.100000000000D+01
-.176653483434D-02 0.000000000000D+00 -.504877652102D-03 0.227056048207D-04 0.000000000000D+00  6 2 1 25 2 1 21 2 0.20580261D+00 0.21514655D+00 0.24903438D+06 0.24903438D+06 0.24903438D+06 0.10905856D+01  1  2  5  1  6  1        2 -.387119399108D-02 0.100000000000D+01
0.185629502986D-02 0.000000000000D+00 0.468050401873D-03 0.227056048207D-04 0.000000000000D+00  6 2 1 25 2 1 21 2 0.13876497D+00 0.21514655D+00 0.24903438D+06 0.24903438D+06 0.24903438D+06 0.10905856D+01  1  2  6  1  6  1        2 0.739959262499D-02 0.100000000000D+01
-.662920894251D-04 0.000000000000D+00 -.237733428273D-04 0.227056048207D-04 0.000000000000D+00  6 21 1 25 2 1 -2 2 0.20580261D+00 0.21514655D+00 0.24903438D+06 0.24903438D+06 0.24903438D+06 0.10905856D+01  1  2  5  5  6  1        2 -.629191137756D-04 0.100000000000D+01
  </mgrwgt>
  </event>
  <event>
  6     66 0.18337608E-05 0.40846357E+02 0.75467711E-02 0.92472959E-01
        2 -1    0    0  503    0 0.00000000E+00 0.00000000E+00 0.12325218E+04 0.12325219E+04 0.32000000E+00 0.0000E+00 0.9000E+01
        1 -1    0    0  502    0 0.00000000E+00 0.00000000E+00 -.95240889E+03 0.95240894E+03 0.32000000E+00 0.0000E+00 0.9000E+01
       25  1    1    2    0    0 -.15500117E+03 0.57312181E+03 0.56250761E+02 0.60933006E+03 0.12500000E+03 0.0000E+00 0.9000E+01
        2  1    1    2  501    0 0.14723669E+03 -.46242621E+03 0.42448173E+03 0.64474916E+03 0.32000000E+00 0.0000E+00 0.9000E+01
        1  1    1    2  502    0 0.29079774E+02 -.46040433E+02 -.56123243E+03 0.56386815E+03 0.32000000E+00 0.0000E+00 0.9000E+01
       21  1    1    2  503  501 -.21315289E+02 -.64655172E+02 0.36061287E+03 0.36698343E+03 0.75000000E+00 0.0000E+00 0.9000E+01
#aMCatNLO 2  0  0  1  4 0.68078138D+02 0.00000000D+00  -5  6  0 0.00000000D+00 0.00000000D+00 0.00000000D+00 0.00000000D+00 0.00000000D+00
  <mgrwgt>
 0.1538895971D-01    3    2    0
 0.907443909951071D+03 0.000000000000000D+00 0.000000000000000D+00 0.907443909951071D+03
 0.907443909951071D+03 0.000000000000000D+00 0.000000000000000D+00 -.907443909951071D+03
 0.594237611306378D+03 -.162075330011795D+03 0.551600776457986D+03 0.834356608628758D+02
 0.679346029257722D+03 0.139336500878214D+03 -.486305853364293D+03 0.453434652375484D+03
 0.541304179338042D+03 0.227388291335811D+02 -.652949230936929D+02 -.536870313238359D+03
 0.000000000000000D+00 -.000000000000000D+00 -.000000000000000D+00 0.000000000000000D+00
 0.128836196667020D+04 0.000000000000000D+00 0.000000000000000D+00 0.128836196667020D+04
 0.911128960772617D+03 0.000000000000000D+00 0.000000000000000D+00 -.911128960772617D+03
 0.612402722241835D+03 -.154992014306600D+03 0.573086433452030D+03 0.834356608628758D+02
 0.664135677919337D+03 0.147223113658765D+03 -.462383574010928D+03 0.453434652375484D+03
 0.539625808181897D+03 0.290841900037104D+02 -.460476873593000D+02 -.536870313238359D+03
 0.383326719099747D+03 -.213152893558758D+02 -.646551720818016D+02 0.377233005897581D+03
-.251016198580D-02 0.000000000000D+00 0.000000000000D+00 0.305567835910D-05 0.000000000000D+00  6 2 1 25 2 1 21 2 0.19200917D+00 0.14593178D+00 0.36874640D+06 0.36874640D+06 0.36874640D+06 0.10779840D+01  1  2 13  1  6  1        2 -.124649305540D-01 0.100000000000D+01
-.248581838086D-07 0.000000000000D+00 0.000000000000D+00 0.305567835910D-05 0.000000000000D+00  6 2 1 25 2 1 21 2 0.19001975D+00 0.14593178D+00 0.36874640D+06 0.36874640D+06 0.36874640D+06 0.10779840D+01  1  2 13  1  6  1        2 -.125576428247D-06 0.100000000000D+01
0.553325871878D-02 0.000000000000D+00 0.000000000000D+00 0.305567835910D-05 0.957148507257D-08  6 2 1 25 2 1 21 2 0.18961867D+00 0.14652439D+00 0.36874640D+06 0.36874640D+06 0.36874640D+06 0.10779840D+01  1  2  1  1  6  1        2 0.278540158448D-01 0.100000000000D+01
  </mgrwgt>
  </event>
  <event>
  5     66 -.18337608E-05 0.12384330E+03 0.75467711E-02 0.93732768E-01
        2 -1    0    0  501    0 0.00000000E+00 0.00000000E+00 0.19903749E+04 0.19903749E+04 0.32000000E+00 0.0000E+00 0.9000E+01
        1 -1    0    0  502    0 0.00000000E+00 0.00000000E+00 -.13952155E+04 0.13952156E+04 0.32000000E+00 0.0000E+00 0.9000E+01
       25  1    1    2    0    0 -.44152353E+03 0.12497648E+03 0.34784126E+03 0.58922040E+03 0.12500000E+03 0.0000E+00 0.9000E+01
        2  1    1    2  501    0 0.29855658E+02 0.12019817E+03 0.14741227E+04 0.14793163E+04 0.32000000E+00 0.0000E+00 0.9000E+01
        1  1    1    2  502    0 0.41166787E+03 -.24517465E+03 -.12268046E+04 0.13170538E+04 0.32000000E+00 0.0000E+00 0.9000E+01
#aMCatNLO 1  0  0  4  1 0.17617088D+02 0.00000000D+00  -5  6  0 0.00000000D+00 0.00000000D+00 0.00000000D+00 0.00000000D+00 0.00000000D+00
  <mgrwgt>
 -.2028189049D-01    8    2    0
 0.166643393501479D+04 0.000000000000000D+00 0.000000000000000D+00 0.166643393501479D+04
 0.166643393501479D+04 -.000000000000000D+00 -.000000000000000D+00 -.166643393501479D+04
 0.536491565203540D+03 -.441557608399396D+03 0.125003118566114D+03 0.248192059397346D+03
 0.123940674444919D+04 0.298539067127588D+02 0.120191124830714D+03 0.123320392310115D+04
 0.155696956037686D+04 0.411703701686637D+03 -.245194243396828D+03 -.148139598249849D+04
 0.000000000000000D+00 0.000000000000000D+00 0.000000000000000D+00 0.000000000000000D+00
 0.166643393501479D+04 0.000000000000000D+00 0.000000000000000D+00 0.166643393501479D+04
 0.166643393501479D+04 -.000000000000000D+00 -.000000000000000D+00 -.166643393501479D+04
 0.536547072319701D+03 -.441554721698553D+03 0.125014740355674D+03 0.248311303114375D+03
 0.974159226959112D+03 0.170708435097959D+02 0.110807470144573D+03 0.967686152805546D+03
 0.155663725648769D+04 0.411712077947387D+03 -.245160520768459D+03 -.148104997627167D+04
 0.265524314263087D+03 0.127718002413700D+02 0.933831026821270D+01 0.265052520351745D+03
0.309713816882D-03 0.000000000000D+00 0.000000000000D+00 0.550713850572D-04 0.000000000000D+00  6 2 1 25 2 1 21 0 0.30621153D+00 0.21464855D+00 0.29087700D+06 0.29087700D+06 0.29087700D+06 0.10855455D+01  1  2  2  3  6  4        2 0.248920532240D-03 0.100000000000D+01
0.637767365269D-04 0.000000000000D+00 -.118938260635D-05 0.550713850572D-04 0.000000000000D+00  6 2 1 25 2 1 21 2 0.30621153D+00 0.21464855D+00 0.29087700D+06 0.29087700D+06 0.29087700D+06 0.10855455D+01  1  2  3  3  6  4        2 0.604030016971D-04 0.100000000000D+01
-.202490622952D-03 0.000000000000D+00 0.000000000000D+00 0.550713850572D-04 0.000000000000D+00  6 2 1 25 2 1 21 2 0.30621153D+00 0.21464855D+00 0.29087700D+06 0.29087700D+06 0.29087700D+06 0.10855455D+01  1  2 15  3  6  4        2 -.191779042138D-03 0.100000000000D+01
0.797997562998D-01 0.000000000000D+00 0.000000000000D+00 0.550713850572D-04 0.000000000000D+00  6 2 1 25 2 1 21 2 0.30621153D+00 0.21464855D+00 0.29308343D+06 0.29308343D+06 0.29308343D+06 0.10853021D+01  1  2 12  3  6  4        2 0.754962602681D-01 0.100000000000D+01
0.278182833976D-08 0.000000000000D+00 0.000000000000D+00 0.550713850572D-04 0.000000000000D+00  6 2 1 25 2 1 21 2 0.30621153D+00 0.21464855D+00 0.29308343D+06 0.29308343D+06 0.29308343D+06 0.10853021D+01  1  2 12  3  6  4        2 0.263180799162D-08 0.100000000000D+01
-.125251896859D+00 0.000000000000D+00 0.000000000000D+00 0.550713850572D-04 0.000000000000D+00  6 2 1 25 2 1 21 2 0.30621153D+00 0.21464855D+00 0.29087700D+06 0.29087700D+06 0.29087700D+06 0.10855455D+01  1  2  4  3  6  4        2 -.118626178612D+00 0.100000000000D+01
-.101466395711D+00 0.000000000000D+00 0.000000000000D+00 0.550713850572D-04 0.000000000000D+00  6 2 1 25 2 1 21 2 0.30621153D+00 0.21464855D+00 0.29087700D+06 0.29087700D+06 0.29087700D+06 0.10855455D+01  1  2  5  3  6  4        2 -.960989101368D-01 0.100000000000D+01
0.125466459282D+00 0.000000000000D+00 -.000000000000D+00 0.550713850572D-04 0.000000000000D+00  6 2 1 25 2 1 21 2 0.30621153D+00 0.21464855D+00 0.29087700D+06 0.29087700D+06 0.29087700D+06 0.10855455D+01  1  2  6  3  6  4        2 0.118829390867D+00 0.100000000000D+01
  </mgrwgt>
  </event>
  <event>
  5     66 -.18337608E-05 0.24539410E+02 0.75467711E-02 0.94961256E-01
        2 -1    0    0  501    0 0.00000000E+00 0.00000000E+00 0.76884878E+03 0.76884885E+03 0.32000000E+00 0.0000E+00 0.9000E+01
        1 -1    0    0  502    0 -.00000000E+00 -.00000000E+00 -.11560313E+04 0.11560314E+04 0.32000000E+00 0.0000E+00 0.9000E+01
       25  1    1    2    0    0 0.46577200E+03 0.75776663E+02 -.80878445E+02 0.49482520E+03 0.12500000E+03 0.0000E+00 0.9000E+01
        2  1    1    2  501    0 -.10900438E+02 -.21989810E+02 0.50114004E+03 0.50174078E+03 0.32000000E+00 0.0000E+00 0.9000E+01
        1  1    1    2  502    0 -.45487156E+03 -.53786853E+02 -.80744414E+03 0.92831423E+03 0.32000000E+00 0.0000E+00 0.9000E+01
#aMCatNLO 1  0  0  4  1 0.22454516D+01 0.00000000D+00  -5  6  0 0.00000000D+00 0.00000000D+00 0.00000000D+00 0.00000000D+00 0.00000000D+00
  <mgrwgt>
 -.2782030318D+00    9    2    0
 0.942768994500123D+03 0.000000000000000D+00 0.000000000000000D+00 0.942768994500123D+03
 0.942768994500123D+03 -.000000000000000D+00 -.000000000000000D+00 -.942768994500123D+03
 0.488610643357746D+03 0.465839704620815D+03 0.757828491383698D+02 0.191230274207085D+02
 0.615019039957713D+03 -.108987311910931D+02 -.219863662207266D+02 0.614529280725775D+03
 0.781908305684789D+03 -.454940973429721D+03 -.537964829176423D+02 -.633652308146484D+03
 0.000000000000000D+00 0.000000000000000D+00 0.000000000000000D+00 0.000000000000000D+00
 0.942768994500123D+03 0.000000000000000D+00 0.000000000000000D+00 0.942768994500123D+03
 0.942768994500123D+03 -.000000000000000D+00 -.000000000000000D+00 -.942768994500123D+03
 0.488610716889523D+03 0.465839626458651D+03 0.757826914592862D+02 0.191274346252837D+02
 0.248620506132985D+03 -.457276420047621D+01 -.111252745811685D+02 0.248329366291790D+03
 0.781902680392206D+03 -.454941098509723D+03 -.537967352456134D+02 -.633645255460969D+03
 0.366404085585532D+03 -.632576374845169D+01 -.108606816325034D+02 0.366188454543895D+03
0.985857396150D-05 0.000000000000D+00 0.000000000000D+00 0.325021114385D-04 0.000000000000D+00  6 2 1 25 2 1 21 0 0.11828444D+00 0.17785098D+00 0.23565507D+06 0.23565507D+06 0.23565507D+06 0.10923950D+01  1  2  2  3  6  4        2 0.602027970332D-04 0.100000000000D+01
0.664358057082D-05 0.000000000000D+00 -.378595198343D-07 0.325021114385D-04 0.000000000000D+00  6 2 1 25 2 1 21 2 0.11828444D+00 0.17785098D+00 0.23565507D+06 0.23565507D+06 0.23565507D+06 0.10923950D+01  1  2  3  3  6  4        2 0.484132448862D-04 0.100000000000D+01
-.603123325671D-05 0.000000000000D+00 0.000000000000D+00 0.325021114385D-04 0.000000000000D+00  6 2 1 25 2 1 21 2 0.11828444D+00 0.17785098D+00 0.23565507D+06 0.23565507D+06 0.23565507D+06 0.10923950D+01  1  2 15  3  6  4        2 -.439509342154D-04 0.100000000000D+01
0.652052420657D-04 0.000000000000D+00 0.000000000000D+00 0.325021114385D-04 0.000000000000D+00  6 2 1 25 2 1 21 2 0.11828444D+00 0.17785098D+00 0.23568304D+06 0.23568304D+06 0.23568304D+06 0.10923911D+01  1  2 12  3  6  4        2 0.475158908438D-03 0.100000000000D+01
0.407298550606D-10 0.000000000000D+00 0.000000000000D+00 0.325021114385D-04 0.000000000000D+00  6 2 1 25 2 1 21 2 0.11828444D+00 0.17785098D+00 0.23568304D+06 0.23568304D+06 0.23568304D+06 0.10923911D+01  1  2 12  3  6  4        2 0.296803644282D-09 0.100000000000D+01
-.921224969650D-01 0.000000000000D+00 0.000000000000D+00 0.325021114385D-04 0.000000000000D+00  6 2 1 25 2 1 21 2 0.11828444D+00 0.17785098D+00 0.23565507D+06 0.23565507D+06 0.23565507D+06 0.10923950D+01  1  2  4  3  6  4        2 -.671317064277D+00 0.100000000000D+01
-.259285703247D-01 0.000000000000D+00 0.000000000000D+00 0.325021114385D-04 0.000000000000D+00  6 2 1 25 2 1 21 2 0.11828444D+00 0.17785098D+00 0.23565507D+06 0.23565507D+06 0.23565507D+06 0.10923950D+01  1  2  5  3  6  4        2 -.188947241822D+00 0.100000000000D+01
0.445734192650D-01 0.000000000000D+00 -.000000000000D+00 0.325021114385D-04 0.000000000000D+00  6 2 1 25 2 1 21 2 0.11828444D+00 0.17785098D+00 0.23565507D+06 0.23565507D+06 0.23565507D+06 0.10923950D+01  1  2  6  3  6  4        2 0.324816390693D+00 0.100000000000D+01
0.352271950179D-01 0.000000000000D+00 0.000000000000D+00 0.325021114385D-04 0.132938242729D-04  6 2 1 25 2 1 21 2 0.11828444D+00 0.17785098D+00 0.23568304D+06 0.23568304D+06 0.23568304D+06 0.10923911D+01  1  2 11  3  6  4        2 0.256705059313D+00 0.100000000000D+01
  </mgrwgt>
  </event>
  <event>
  5     66 0.18337608E-05 0.31454150E+02 0.75467711E-02 0.91081288E-01
        2 -1    0    0  501    0 0.00000000E+00 0.00000000E+00 0.27914713E+04 0.27914714E+04 0.32000000E+00 0.0000E+00 0.9000E+01
        1 -1    0    0  502    0 0.00000000E+00 0.00000000E+00 -.28762683E+03 0.28762701E+03 0.32000000E+00 0.0000E+00 0.9000E+01
       25  1    1    2    0    0 -.57399885E+03 -.18985083E+03 0.25470813E+03 0.66784673E+03 0.12500000E+03 0.0000E+00 0.9000E+01
        2  1    1    2  501    0 0.59065355E+03 0.16315216E+03 0.22837153E+04 0.23644969E+04 0.32000000E+00 0.0000E+00 0.9000E+01
        1  1    1    2  502    0 -.16654694E+02 0.26698672E+02 -.34578902E+02 0.46754687E+02 0.32000000E+00 0.0000E+00 0.9000E+01
#aMCatNLO 1  0  0  2  2 0.54159699D+02 0.00000000D+00  -5  6  0 0.00000000D+00 0.00000000D+00 0.00000000D+00 0.00000000D+00 0.00000000D+00
  <mgrwgt>
 0.5504796535D-03    7    2    0
 0.896048187196175D+03 0.000000000000000D+00 0.000000000000000D+00 0.896048187196175D+03
 0.896048187196175D+03 0.000000000000000D+00 0.000000000000000D+00 -.896048187196175D+03
 0.791660360895817D+03 -.574014509309709D+03 -.189841487303729D+03 -.495548867231009D+03
 0.871871129730648D+03 0.590663554784594D+03 0.163154921080499D+03 0.620206662036324D+03
 0.128564883765885D+03 -.166490454748850D+02 0.266865662232300D+02 -.124657794805314D+03
 0.000000000000000D+00 0.000000000000000D+00 -.000000000000000D+00 -.000000000000000D+00
 0.910773941782581D+03 0.000000000000000D+00 0.000000000000000D+00 0.910773941782581D+03
 0.114272000909527D+04 0.000000000000000D+00 0.000000000000000D+00 -.114272000909527D+04
 0.793424089572235D+03 -.589893305987742D+03 -.142667423227749D+03 -.495548867231009D+03
 0.871467487092863D+03 0.573199425709750D+03 0.215038823917271D+03 0.620206662036324D+03
 0.130742600905211D+03 -.192466930796979D+02 0.344038761076613D+02 -.124657794805314D+03
 0.257859773307544D+03 0.359405733576899D+02 -.106775276797184D+03 -.231946067312690D+03
0.641400046900D-04 0.000000000000D+00 0.000000000000D+00 0.934931723441D-06 0.000000000000D+00  6 2 1 25 2 1 21 0 0.42945714D+00 0.44250297D-01 0.39791912D+06 0.39791912D+06 0.39791912D+06 0.10755910D+01  1  2  2  2  6  2        1 0.208101675717D-03 0.100000000000D+01
0.196663301065D-04 0.000000000000D+00 -.246314506461D-06 0.934931723441D-06 0.000000000000D+00  6 2 1 25 2 1 21 2 0.42945714D+00 0.44250297D-01 0.39791912D+06 0.39791912D+06 0.39791912D+06 0.10755910D+01  1  2  3  2  6  2        1 0.738183269197D-04 0.100000000000D+01
-.461014574183D-04 0.000000000000D+00 0.000000000000D+00 0.934931723441D-06 0.000000000000D+00  6 2 1 25 2 1 21 2 0.42945714D+00 0.44250297D-01 0.39791912D+06 0.39791912D+06 0.39791912D+06 0.10755910D+01  1  2 15  2  6  2        1 -.173043594648D-03 0.100000000000D+01
-.976993933849D-05 0.000000000000D+00 0.000000000000D+00 0.934931723441D-06 0.000000000000D+00  6 2 1 25 2 1 21 2 0.42945714D+00 0.44250297D-01 0.39791912D+06 0.39791912D+06 0.39791912D+06 0.10755910D+01  1  2  4  2  6  2        1 -.366718433062D-04 0.100000000000D+01
-.643355441995D-03 0.000000000000D+00 -.687994877715D-04 0.934931723441D-06 0.000000000000D+00  6 2 1 25 2 1 21 2 0.42945714D+00 0.56977819D-01 0.39791912D+06 0.39791912D+06 0.39791912D+06 0.10755910D+01  1  2  5  2  6  2        1 -.172023935105D-02 0.100000000000D+01
0.642257147571D-03 0.000000000000D+00 0.666581317637D-04 0.934931723441D-06 0.000000000000D+00  6 2 1 25 2 1 21 2 0.42945714D+00 0.44250297D-01 0.39791912D+06 0.39791912D+06 0.39791912D+06 0.10755910D+01  1  2  6  2  6  2        1 0.241073692088D-02 0.100000000000D+01
-.207785098896D-04 0.000000000000D+00 -.234759085454D-05 0.934931723441D-06 0.000000000000D+00  6 2 21 25 2 1 -1 2 0.42945714D+00 0.56977819D-01 0.39791912D+06 0.39791912D+06 0.39791912D+06 0.10755910D+01  1  2  5  6  6  2        1 -.212222480976D-03 0.100000000000D+01
  </mgrwgt>
  </event>
  <event>
  5     66 -.18337608E-05 0.20889403E+02 0.75467711E-02 0.93337733E-01
        2 -1    0    0  501    0 0.00000000E+00 0.00000000E+00 0.24788850E+04 0.24788850E+04 0.32000000E+00 0.0000E+00 0.9000E+01
        1 -1    0    0  502    0 0.00000000E+00 0.00000000E+00 -.15977475E+04 0.15977475E+04 0.32000000E+00 0.0000E+00 0.9000E+01
       25  1    1    2    0    0 0.10328284E+02 0.55174271E+03 -.37215066E+03 0.67723542E+03 0.12500000E+03 0.0000E+00 0.9000E+01
        2  1    1    2  501    0 -.22554463E+02 -.53480562E+03 0.22954451E+04 0.23570308E+04 0.32000000E+00 0.0000E+00 0.9000E+01
        1  1    1    2  502    0 0.12226179E+02 -.16937090E+02 -.10421569E+04 0.10423663E+04 0.32000000E+00 0.0000E+00 0.9000E+01
#aMCatNLO 1  0  0  4  1 0.57981698D+01 0.00000000D+00  -5  6  0 0.00000000D+00 0.00000000D+00 0.00000000D+00 0.00000000D+00 0.00000000D+00
  <mgrwgt>
 -.1531008626D+00    9    2    0
 0.199013375027208D+04 0.000000000000000D+00 0.000000000000000D+00 0.199013375027208D+04
 0.199013375027208D+04 -.000000000000000D+00 -.000000000000000D+00 -.199013375027208D+04
 0.776000613936568D+03 0.103279701210203D+02 0.551742184201114D+03 -.531061058670370D+03
 0.190593501881905D+04 -.225544203466552D+02 -.534804620522423D+03 0.182922486642607D+04
 0.129833186778854D+04 0.122264502256349D+02 -.169375636786916D+02 -.129816380775570D+04
 0.000000000000000D+00 0.000000000000000D+00 0.000000000000000D+00 0.000000000000000D+00
 0.199013375027208D+04 0.000000000000000D+00 0.000000000000000D+00 0.199013375027208D+04
 0.199013375027208D+04 -.000000000000000D+00 -.000000000000000D+00 -.199013375027208D+04
 0.775964638110637D+03 0.103274730463828D+02 0.551730397695019D+03 -.531020744564602D+03
 0.182442967239957D+04 -.199964040855665D+02 -.517287855657016D+03 0.174944478270834D+04
 0.129826467649062D+04 0.122256185689440D+02 -.169572837084764D+02 -.129809635813492D+04
 0.816085135433325D+02 -.255668752976025D+01 -.174852583295272D+02 0.796723199911811D+02
0.878116476333D-03 0.000000000000D+00 0.000000000000D+00 0.722276961680D-03 0.000000000000D+00  6 2 1 25 2 1 21 0 0.38136692D+00 0.24580731D+00 0.31471448D+06 0.31471448D+06 0.31471448D+06 0.10830167D+01  1  2  2  3  6  4        2 0.272206192539D-03 0.100000000000D+01
0.714882331139D-03 0.000000000000D+00 -.337219848250D-05 0.722276961680D-03 0.000000000000D+00  6 2 1 25 2 1 21 2 0.38136692D+00 0.24580731D+00 0.31471448D+06 0.31471448D+06 0.31471448D+06 0.10830167D+01  1  2  3  3  6  4        2 0.259926597743D-03 0.100000000000D+01
-.604531875274D-03 0.000000000000D+00 0.000000000000D+00 0.722276961680D-03 0.000000000000D+00  6 2 1 25 2 1 21 2 0.38136692D+00 0.24580731D+00 0.31471448D+06 0.31471448D+06 0.31471448D+06 0.10830167D+01  1  2 15  3  6  4        2 -.219803884811D-03 0.100000000000D+01
0.499092550290D+00 0.000000000000D+00 0.000000000000D+00 0.722276961680D-03 0.000000000000D+00  6 2 1 25 2 1 21 2 0.38136692D+00 0.24580731D+00 0.31475341D+06 0.31475341D+06 0.31475341D+06 0.10830127D+01  1  2 12  3  6  4        2 0.181463330862D+00 0.100000000000D+01
0.580830692040D-09 0.000000000000D+00 0.000000000000D+00 0.722276961680D-03 0.000000000000D+00  6 2 1 25 2 1 21 2 0.38136692D+00 0.24580731D+00 0.31475341D+06 0.31475341D+06 0.31475341D+06 0.10830127D+01  1  2 12  3  6  4        2 0.211182218575D-09 0.100000000000D+01
-.199526430121D+01 0.000000000000D+00 0.000000000000D+00 0.722276961680D-03 0.000000000000D+00  6 2 1 25 2 1 21 2 0.38136692D+00 0.24580731D+00 0.31471448D+06 0.31471448D+06 0.31471448D+06 0.10830167D+01  1  2  4  3  6  4        2 -.725465211295D+00 0.100000000000D+01
-.113983142147D+01 0.000000000000D+00 0.000000000000D+00 0.722276961680D-03 0.000000000000D+00  6 2 1 25 2 1 21 2 0.38136692D+00 0.24580731D+00 0.31471448D+06 0.31471448D+06 0.31471448D+06 0.10830167D+01  1  2  5  3  6  4        2 -.414435341982D+00 0.100000000000D+01
0.118968071344D+01 0.000000000000D+00 -.000000000000D+00 0.722276961680D-03 0.000000000000D+00  6 2 1 25 2 1 21 2 0.38136692D+00 0.24580731D+00 0.31471448D+06 0.31471448D+06 0.31471448D+06 0.10830167D+01  1  2  6  3  6  4        2 0.432560222537D+00 0.100000000000D+01
0.102441584778D+01 0.000000000000D+00 0.000000000000D+00 0.722276961680D-03 0.208780693003D-03  6 2 1 25 2 1 21 2 0.38136692D+00 0.24580731D+00 0.31475341D+06 0.31475341D+06 0.31475341D+06 0.10830127D+01  1  2 11  3  6  4        2 0.372463808200D+00 0.100000000000D+01
  </mgrwgt>
  </event>
  <event>
  5     66 0.18337608E-05 0.14104727E+02 0.75467711E-02 0.90903944E-01
        2 -1    0    0  501    0 0.00000000E+00 0.00000000E+00 0.23759579E+04 0.23759579E+04 0.32000000E+00 0.0000E+00 0.9000E+01
        1 -1    0    0  502    0 0.00000000E+00 0.00000000E+00 -.13886774E+04 0.13886774E+04 0.32000000E+00 0.0000E+00 0.9000E+01
       25  1    1    2    0    0 0.40565701E+03 -.41692814E+03 -.21374343E+03 0.63221669E+03 0.12500000E+03 0.0000E+00 0.9000E+01
        2  1    1    2  501    0 -.39155293E+03 0.41693611E+03 0.21289197E+04 0.22044157E+04 0.32000000E+00 0.0000E+00 0.9000E+01
        1  1    1    2  502    0 -.14104086E+02 -.79742695E-02 -.92789572E+03 0.92800296E+03 0.32000000E+00 0.0000E+00 0.9000E+01
#aMCatNLO 1  0  0  1  5 0.46319866D+02 0.00000000D+00  -5  6  0 0.00000000D+00 0.00000000D+00 0.00000000D+00 0.00000000D+00 0.00000000D+00
  <mgrwgt>
 0.1472821415D-01    7    2    0
 0.181643581714417D+04 0.000000000000000D+00 0.000000000000000D+00 0.181643581714417D+04
 0.181643581714417D+04 0.000000000000000D+00 0.000000000000000D+00 -.181643581714417D+04
 0.713209242670822D+03 0.405655642281019D+03 -.416926057405404D+03 -.393266558930514D+03
 0.170579886561442D+04 -.391550917686487D+03 0.416933973054714D+03 0.160704813583885D+04
 0.121386352600309D+04 -.141047245945325D+02 -.791564931063249D-02 -.121378157690834D+04
 0.000000000000000D+00 -.000000000000000D+00 -.000000000000000D+00 0.000000000000000D+00
 0.233310260419527D+04 0.000000000000000D+00 0.000000000000000D+00 0.233310260419527D+04
 0.183272347291668D+04 0.000000000000000D+00 0.000000000000000D+00 -.183272347291668D+04
 0.707822417270490D+03 0.423788093148257D+03 -.388757816800326D+03 -.393266558930514D+03
 0.171423636373782D+04 -.347911059048141D+03 0.484727237577908D+03 0.160704813583885D+04
 0.121485300791962D+04 0.168858468777599D+02 0.481350452836566D+02 -.121378157690834D+04
 0.528914288184032D+03 -.927628809778753D+02 -.144104466061239D+03 0.500379131278585D+03
0.554869847950D-02 0.000000000000D+00 0.000000000000D+00 0.396492466851D-03 0.000000000000D+00  6 2 1 25 2 1 21 0 0.36553199D+00 0.21364268D+00 0.34872449D+06 0.34872449D+06 0.34872449D+06 0.10797490D+01  1  2  2  1  6  1        2 0.270223930402D-02 0.100000000000D+01
0.585059084963D-02 0.000000000000D+00 -.213084631671D-04 0.396492466851D-03 0.000000000000D+00  6 2 1 25 2 1 21 2 0.36553199D+00 0.21364268D+00 0.34872449D+06 0.34872449D+06 0.34872449D+06 0.10797490D+01  1  2  3  1  6  1        2 0.332183497576D-02 0.100000000000D+01
-.365516951956D-02 0.000000000000D+00 0.000000000000D+00 0.396492466851D-03 0.000000000000D+00  6 2 1 25 2 1 21 2 0.36553199D+00 0.21364268D+00 0.34872449D+06 0.34872449D+06 0.34872449D+06 0.10797490D+01  1  2 15  1  6  1        2 -.207532371763D-02 0.100000000000D+01
-.164579589452D-01 0.000000000000D+00 0.000000000000D+00 0.396492466851D-03 0.000000000000D+00  6 2 1 25 2 1 21 2 0.36553199D+00 0.21364268D+00 0.34872449D+06 0.34872449D+06 0.34872449D+06 0.10797490D+01  1  2  4  1  6  1        2 -.934446196271D-02 0.100000000000D+01
-.591443746647D-01 0.000000000000D+00 -.409478944320D-02 0.396492466851D-03 0.000000000000D+00  6 2 1 25 2 1 21 2 0.47050429D+00 0.21364268D+00 0.34872449D+06 0.34872449D+06 0.34872449D+06 0.10797490D+01  1  2  5  1  6  1        2 -.130266851729D-01 0.100000000000D+01
0.584332809162D-01 0.000000000000D+00 0.396768302663D-02 0.396492466851D-03 0.000000000000D+00  6 2 1 25 2 1 21 2 0.36553199D+00 0.21364268D+00 0.34872449D+06 0.34872449D+06 0.34872449D+06 0.10797490D+01  1  2  6  1  6  1        2 0.331771134377D-01 0.100000000000D+01
-.194635794275D-02 0.000000000000D+00 -.139581307558D-03 0.396492466851D-03 0.000000000000D+00  6 21 1 25 2 1 -2 2 0.47050429D+00 0.21364268D+00 0.34872449D+06 0.34872449D+06 0.34872449D+06 0.10797490D+01  1  2  5  5  6  1        2 -.265027127343D-04 0.100000000000D+01
  </mgrwgt>
  </event>
  <event>
  6     66 0.18337608E-05 0.10717685E+03 0.75467711E-02 0.93648071E-01
        2 -1    0    0  501    0 0.00000000E+00 0.00000000E+00 0.10959004E+04 0.10959005E+04 0.32000000E+00 0.0000E+00 0.9000E+01
        1 -1    0    0  502    0 -.00000000E+00 -.00000000E+00 -.25609082E+04 0.25609082E+04 0.32000000E+00 0.0000E+00 0.9000E+01
       25  1    1    2    0    0 -.43757229E+03 -.30030145E+03 -.92006109E+02 0.55293815E+03 0.12500000E+03 0.0000E+00 0.9000E+01
        2  1    1    2  503    0 0.10841951E+03 0.46303501E+02 0.61530890E+03 0.62650136E+03 0.32000000E+00 0.0000E+00 0.9000E+01
        1  1    1    2  502    0 0.30974177E+03 0.26296090E+03 -.22138454E+04 0.22508220E+04 0.32000000E+00 0.0000E+00 0.9000E+01
       21  1    1    2  501  503 0.19411017E+02 -.89629517E+01 0.22553477E+03 0.22654716E+03 0.75000000E+00 0.0000E+00 0.9000E+01
#aMCatNLO 2  0  0  4  1 0.23952741D+02 0.00000000D+00  -5  6  0 0.00000000D+00 0.00000000D+00 0.00000000D+00 0.00000000D+00 0.00000000D+00
  <mgrwgt>
 0.5456754990D-02    3    2    0
 0.167526132578298D+04 0.000000000000000D+00 0.000000000000000D+00 0.167526132578298D+04
 0.167526132578298D+04 -.000000000000000D+00 -.000000000000000D+00 -.167526132578298D+04
 0.563391252085022D+03 -.437668783496267D+03 -.300383010221450D+03 0.141424135313344D+03
 0.129801725631058D+04 0.127876126166812D+03 0.373538701591291D+02 0.129116272499664D+04
 0.148911414317035D+04 0.309792657329453D+03 0.263029140062320D+03 -.143258686030998D+04
 0.000000000000000D+00 0.000000000000000D+00 0.000000000000000D+00 0.000000000000000D+00
 0.167526132578298D+04 0.000000000000000D+00 0.000000000000000D+00 0.167526132578298D+04
 0.167526132578298D+04 -.000000000000000D+00 -.000000000000000D+00 -.167526132578298D+04
 0.563421316330697D+03 -.437650036160460D+03 -.300377533940861D+03 0.141613426793405D+03
 0.952531211957289D+03 0.108394562600853D+03 0.462992466664033D+02 0.945210404253738D+03
 0.148864577702400D+04 0.309842199788191D+03 0.263043611900235D+03 -.143208663108078D+04
 0.345924346253966D+03 0.194132737714155D+02 -.896532462577801D+01 0.345262800033633D+03
-.264312086229D-01 0.000000000000D+00 0.000000000000D+00 0.821392594692D-04 0.000000000000D+00  6 2 1 25 2 1 21 2 0.16860007D+00 0.39398589D+00 0.29758492D+06 0.29758492D+06 0.29758492D+06 0.10848117D+01  1  2 13  3  6  4        2 -.128783580215D-01 0.100000000000D+01
-.626838479576D-09 0.000000000000D+00 0.000000000000D+00 0.821392594692D-04 0.000000000000D+00  6 2 1 25 2 1 21 2 0.16860007D+00 0.39398589D+00 0.29758492D+06 0.29758492D+06 0.29758492D+06 0.10848117D+01  1  2 13  3  6  4        2 -.305421158632D-09 0.100000000000D+01
0.376305119325D-01 0.000000000000D+00 0.000000000000D+00 0.821392594692D-04 0.136257937905D-05  6 2 1 25 2 1 21 2 0.16860007D+00 0.39398589D+00 0.29758492D+06 0.29758492D+06 0.29758492D+06 0.10848117D+01  1  2  1  3  6  4        2 0.183351133168D-01 0.100000000000D+01
  </mgrwgt>
  </event>
  <event>
  5     66 0.18337608E-05 0.77165835E+02 0.75467711E-02 0.91971583E-01
        2 -1    0    0  501    0 0.00000000E+00 0.00000000E+00 0.18536754E+04 0.18536755E+04 0.32000000E+00 0.0000E+00 0.9000E+01
        1 -1    0    0  502    0 0.00000000E+00 0.00000000E+00 -.12094175E+04 0.12094176E+04 0.32000000E+00 0.0000E+00 0.9000E+01
       25  1    1    2    0    0 -.27932581E+03 -.41966012E+03 -.18706647E+03 0.55204745E+03 0.12500000E+03 0.0000E+00 0.9000E+01
        2  1    1    2  501    0 0.74286364E+02 0.20889502E+02 0.16103461E+04 0.16121940E+04 0.32000000E+00 0.0000E+00 0.9000E+01
        1  1    1    2  502    0 0.20503945E+03 0.39877062E+03 -.77902172E+03 0.89885156E+03 0.32000000E+00 0.0000E+00 0.9000E+01
#aMCatNLO 1  0  0  2  5 0.98173782D+00 0.00000000D+00  -5  6  0 0.00000000D+00 0.00000000D+00 0.00000000D+00 0.00000000D+00 0.00000000D+00
  <mgrwgt>
 0.8643314396D-02    7    2    0
 0.149728676549326D+04 0.000000000000000D+00 0.000000000000000D+00 0.149728676549326D+04
 0.149728676549326D+04 0.000000000000000D+00 0.000000000000000D+00 -.149728676549326D+04
 0.604937830097237D+03 -.279341903543324D+03 -.419691191724890D+03 -.310084154377626D+03
 0.130260075008085D+04 0.742846853339237D+02 0.208890297746847D+02 0.130031309616996D+04
 0.108703495080843D+04 0.205057218209400D+03 0.398802161950205D+03 -.990228941792330D+03
 0.000000000000000D+00 -.000000000000000D+00 0.000000000000000D+00 -.000000000000000D+00
 0.151320862939596D+04 0.000000000000000D+00 0.000000000000000D+00 0.151320862939596D+04
 0.194235941571997D+04 0.000000000000000D+00 0.000000000000000D+00 -.194235941571997D+04
 0.596785449207010D+03 -.248806542243573D+03 -.427166237109070D+03 -.310084154377626D+03
 0.130790245058240D+04 0.140616643596861D+03 0.465099042189362D+01 0.130031309616996D+04
 0.109398706174121D+04 0.260476212168202D+03 0.385235612305643D+03 -.990228941792330D+03
 0.456893083585320D+03 -.152286313521490D+03 0.372796343815335D+02 -.429150786324010D+03
0.329580235026D-02 0.000000000000D+00 0.000000000000D+00 0.880065860659D-04 0.000000000000D+00  6 2 1 25 2 1 21 0 0.28518084D+00 0.18606424D+00 0.27301601D+06 0.27301601D+06 0.27301601D+06 0.10875933D+01  1  2  2  2  6  2        1 0.425439518205D-02 0.100000000000D+01
0.118457184910D-02 0.000000000000D+00 -.126567488297D-04 0.880065860659D-04 0.000000000000D+00  6 2 1 25 2 1 21 2 0.28518084D+00 0.18606424D+00 0.27301601D+06 0.27301601D+06 0.27301601D+06 0.10875933D+01  1  2  3  2  6  2        1 0.180871919798D-02 0.100000000000D+01
-.198490812187D-02 0.000000000000D+00 0.000000000000D+00 0.880065860659D-04 0.000000000000D+00  6 2 1 25 2 1 21 2 0.28518084D+00 0.18606424D+00 0.27301601D+06 0.27301601D+06 0.27301601D+06 0.10875933D+01  1  2 15  2  6  2        1 -.303075024868D-02 0.100000000000D+01
-.116307291622D-01 0.000000000000D+00 0.000000000000D+00 0.880065860659D-04 0.000000000000D+00  6 2 1 25 2 1 21 2 0.28518084D+00 0.18606424D+00 0.27301601D+06 0.27301601D+06 0.27301601D+06 0.10875933D+01  1  2  4  2  6  2        1 -.177589254194D-01 0.100000000000D+01
-.371099557736D-01 0.000000000000D+00 -.290685749465D-02 0.880065860659D-04 0.000000000000D+00  6 2 1 25 2 1 21 2 0.28518084D+00 0.24227396D+00 0.27301601D+06 0.27301601D+06 0.27301601D+06 0.10875933D+01  1  2  5  2  6  2        1 -.318697510184D-01 0.100000000000D+01
0.366899305251D-01 0.000000000000D+00 0.280843647366D-02 0.880065860659D-04 0.000000000000D+00  6 2 1 25 2 1 21 2 0.28518084D+00 0.18606424D+00 0.27301601D+06 0.27301601D+06 0.27301601D+06 0.10875933D+01  1  2  6  2  6  2        1 0.560217447036D-01 0.100000000000D+01
-.125391981391D-02 0.000000000000D+00 -.102389726398D-03 0.880065860659D-04 0.000000000000D+00  6 2 21 25 2 1 -1 2 0.28518084D+00 0.24227396D+00 0.27301601D+06 0.27301601D+06 0.27301601D+06 0.10875933D+01  1  2  5  6  6  2        1 -.782118001402D-03 0.100000000000D+01
  </mgrwgt>
  </event>
  <event>
  5     66 -.18337608E-05 0.47290978E+02 0.75467711E-02 0.92381488E-01
        2 -1    0    0  501    0 0.00000000E+00 0.00000000E+00 0.15833153E+04 0.15833154E+04 0.32000000E+00 0.0000E+00 0.9000E+01
        1 -1    0    0  502    0 0.00000000E+00 0.00000000E+00 -.65836520E+03 0.65836528E+03 0.32000000E+00 0.0000E+00 0.9000E+01
       25  1    1    2    0    0 -.55394669E+03 -.24339122E+03 0.95453890E+03 0.11370425E+04 0.12500000E+03 0.0000E+00 0.9000E+01
        2  1    1    2  501    0 0.36768568E+02 0.29808274E+02 0.39775947E+03 0.40056604E+03 0.32000000E+00 0.0000E+00 0.9000E+01
        1  1    1    2  502    0 0.51717812E+03 0.21358294E+03 -.42734822E+03 0.70407208E+03 0.32000000E+00 0.0000E+00 0.9000E+01
#aMCatNLO 1  0  0  5  1 0.78089052D+02 0.00000000D+00  -5  6  0 0.00000000D+00 0.00000000D+00 0.00000000D+00 0.00000000D+00 0.00000000D+00
  <mgrwgt>
 -.1313174421D-01    6    2    0
 0.102097984940707D+04 0.000000000000000D+00 0.000000000000000D+00 0.102097984940707D+04
 0.102097984940707D+04 -.000000000000000D+00 -.000000000000000D+00 -.102097984940707D+04
 0.816060075896663D+03 -.553998250259736D+03 -.243401168001673D+03 0.533076783959910D+03
 0.259337563635296D+03 0.367355321797055D+02 0.297814914297504D+02 0.254989284786606D+03
 0.966562059282187D+03 0.517262718080031D+03 0.213619676571923D+03 -.788066068746515D+03
 0.000000000000000D+00 0.000000000000000D+00 0.000000000000000D+00 -.000000000000000D+00
 0.102097984940707D+04 0.000000000000000D+00 0.000000000000000D+00 0.102097984940707D+04
 0.102097984940707D+04 -.000000000000000D+00 -.000000000000000D+00 -.102097984940707D+04
 0.813245963550710D+03 -.552432257488448D+03 -.242754442734950D+03 0.530690944571494D+03
 0.258686716946565D+03 0.372334265341743D+02 0.299871123400750D+02 0.254230727030822D+03
 0.663507221233276D+03 0.380370366574608D+03 0.185601105736731D+03 -.510991630469526D+03
 0.306519797083594D+03 0.134828464379666D+03 0.271662246581435D+02 -.273930041132790D+03
0.578381318733D-04 0.000000000000D+00 0.000000000000D+00 0.326190107394D-05 0.000000000000D+00  6 2 1 25 2 1 21 0 0.24358698D+00 0.10128696D+00 0.37504264D+06 0.37504264D+06 0.37504264D+06 0.10774505D+01  1  2  2  4  6  5        1 0.287674694537D-03 0.100000000000D+01
0.155396144417D-04 0.000000000000D+00 -.222113655523D-06 0.326190107394D-05 0.000000000000D+00  6 2 1 25 2 1 21 2 0.24358698D+00 0.10128696D+00 0.37504264D+06 0.37504264D+06 0.37504264D+06 0.10774505D+01  1  2  3  4  6  5        1 0.897268163871D-04 0.100000000000D+01
-.347993795189D-04 0.000000000000D+00 0.000000000000D+00 0.326190107394D-05 0.000000000000D+00  6 2 1 25 2 1 21 2 0.24358698D+00 0.10128696D+00 0.37504264D+06 0.37504264D+06 0.37504264D+06 0.10774505D+01  1  2 15  4  6  5        1 -.200934041715D-03 0.100000000000D+01
-.270684727271D-02 0.000000000000D+00 0.000000000000D+00 0.326190107394D-05 0.000000000000D+00  6 2 1 25 2 1 21 2 0.24358698D+00 0.10128696D+00 0.37504264D+06 0.37504264D+06 0.37504264D+06 0.10774505D+01  1  2  4  4  6  5        1 -.156295247309D-01 0.100000000000D+01
-.110458584606D-02 0.000000000000D+00 0.000000000000D+00 0.326190107394D-05 0.000000000000D+00  6 2 1 25 2 1 21 2 0.24358698D+00 0.10128696D+00 0.37504264D+06 0.37504264D+06 0.37504264D+06 0.10774505D+01  1  2  5  4  6  5        1 -.637795562850D-02 0.100000000000D+01
0.150660957985D-02 0.000000000000D+00 -.000000000000D+00 0.326190107394D-05 0.000000000000D+00  6 2 1 25 2 1 21 2 0.24358698D+00 0.10128696D+00 0.37504264D+06 0.37504264D+06 0.37504264D+06 0.10774505D+01  1  2  6  4  6  5        1 0.869926867526D-02 0.100000000000D+01
  </mgrwgt>
  </event>
  <event>
  5     66 -.18337608E-05 0.30810756E+02 0.75467711E-02 0.90917773E-01
        2 -1    0    0  501    0 0.00000000E+00 0.00000000E+00 0.30005945E+03 0.30005963E+03 0.32000000E+00 0.0000E+00 0.9000E+01
        1 -1    0    0  502    0 0.00000000E+00 0.00000000E+00 -.20564574E+04 0.20564575E+04 0.32000000E+00 0.0000E+00 0.9000E+01
       25  1    1    2    0    0 0.62848820E+03 -.63356377E+02 -.53906353E+03 0.83977731E+03 0.12500000E+03 0.0000E+00 0.9000E+01
        2  1    1    2  501    0 -.64391782E+03 0.36691660E+02 -.54696798E+03 0.84566572E+03 0.32000000E+00 0.0000E+00 0.9000E+01
        1  1    1    2  502    0 0.15429625E+02 0.26664717E+02 -.67036648E+03 0.67107407E+03 0.32000000E+00 0.0000E+00 0.9000E+01
#aMCatNLO 1  0  0  1  5 0.97430476D+02 0.00000000D+00  -5  6  0 0.00000000D+00 0.00000000D+00 0.00000000D+00 0.00000000D+00 0.00000000D+00
  <mgrwgt>
 -.3872633210D-02    7    2    0
 0.785531496055121D+03 0.000000000000000D+00 0.000000000000000D+00 0.785531496055121D+03
 0.785531496055121D+03 0.000000000000000D+00 0.000000000000000D+00 -.785531496055121D+03
 0.656950773174534D+03 0.628458109738585D+03 -.633580524457058D+02 0.130328354047417D+03
 0.656935026235651D+03 -.643889224396169D+03 0.366900303040302D+02 0.124996548264439D+03
 0.257177192700059D+03 0.154311146575835D+02 0.266680221416756D+02 -.255324902311856D+03
 0.000000000000000D+00 0.000000000000000D+00 0.000000000000000D+00 0.000000000000000D+00
 0.139657176560016D+04 0.000000000000000D+00 0.000000000000000D+00 0.139657176560016D+04
 0.790934042056546D+03 0.000000000000000D+00 0.000000000000000D+00 -.790934042056546D+03
 0.639844656724359D+03 0.606156737770436D+03 -.967714530505092D+02 0.130328354047417D+03
 0.678472120952753D+03 -.666854613409528D+03 0.228175514300300D+01 0.124996548264439D+03
 0.255764421885093D+03 0.660990702447322D+01 0.134515014323571D+02 -.255324902311856D+03
 0.613424608094503D+03 0.540879686146187D+02 0.810381964751491D+02 0.605637723543616D+03
0.637298887518D-04 0.000000000000D+00 0.000000000000D+00 0.423723071512D-06 0.000000000000D+00  6 2 1 25 2 1 21 0 0.46163008D-01 0.31637808D+00 0.43536109D+06 0.43536109D+06 0.43536109D+06 0.10727855D+01  1  2  2  1  6  1        2 0.273438786918D-03 0.100000000000D+01
0.297898698127D-04 0.000000000000D+00 -.244739553272D-06 0.423723071512D-06 0.000000000000D+00  6 2 1 25 2 1 21 2 0.46163008D-01 0.31637808D+00 0.43536109D+06 0.43536109D+06 0.43536109D+06 0.10727855D+01  1  2  3  1  6  1        2 0.147099552325D-03 0.100000000000D+01
-.384208404548D-04 0.000000000000D+00 0.000000000000D+00 0.423723071512D-06 0.000000000000D+00  6 2 1 25 2 1 21 2 0.46163008D-01 0.31637808D+00 0.43536109D+06 0.43536109D+06 0.43536109D+06 0.10727855D+01  1  2 15  1  6  1        2 -.189718466928D-03 0.100000000000D+01
-.135894329667D-02 0.000000000000D+00 0.000000000000D+00 0.423723071512D-06 0.000000000000D+00  6 2 1 25 2 1 21 2 0.46163008D-01 0.31637808D+00 0.43536109D+06 0.43536109D+06 0.43536109D+06 0.10727855D+01  1  2  4  1  6  1        2 -.671033313781D-02 0.100000000000D+01
-.182430205417D-02 0.000000000000D+00 -.408015726296D-04 0.423723071512D-06 0.000000000000D+00  6 2 1 25 2 1 21 2 0.82277966D-01 0.31637808D+00 0.43536109D+06 0.43536109D+06 0.43536109D+06 0.10727855D+01  1  2  5  1  6  1        2 -.470779847882D-02 0.100000000000D+01
0.158219987506D-02 0.000000000000D+00 0.348225857546D-04 0.423723071512D-06 0.000000000000D+00  6 2 1 25 2 1 21 2 0.46163008D-01 0.31637808D+00 0.43536109D+06 0.43536109D+06 0.43536109D+06 0.10727855D+01  1  2  6  1  6  1        2 0.781275295168D-02 0.100000000000D+01
-.113761505144D-03 0.000000000000D+00 -.259211690057D-05 0.423723071512D-06 0.000000000000D+00  6 21 1 25 2 1 -2 2 0.82277966D-01 0.31637808D+00 0.43536109D+06 0.43536109D+06 0.43536109D+06 0.10727855D+01  1  2  5  5  6  1        2 -.498074417207D-03 0.100000000000D+01
  </mgrwgt>
  </event>
  <event>
  5     66 -.18337608E-05 0.12283524E+03 0.75467711E-02 0.94518296E-01
        2 -1    0    0  501    0 0.00000000E+00 0.00000000E+00 0.30313866E+04 0.30313867E+04 0.32000000E+00 0.0000E+00 0.9000E+01
        1 -1    0    0  502    0 0.00000000E+00 0.00000000E+00 -.21125355E+04 0.21125355E+04 0.32000000E+00 0.0000E+00 0.9000E+01
       25  1    1    2    0    0 -.44343398E+03 -.15169993E+03 0.13620987E+04 0.14458853E+04 0.12500000E+03 0.0000E+00 0.9000E+01
        2  1    1    2  501    0 0.37732387E+03 0.48181416E+02 0.16033002E+04 0.16478065E+04 0.32000000E+00 0.0000E+00 0.9000E+01
        1  1    1    2  502    0 0.66110111E+02 0.10351851E+03 -.20465478E+04 0.20502303E+04 0.32000000E+00 0.0000E+00 0.9000E+01
#aMCatNLO 1  0  0  5  1 0.41330253D+02 0.00000000D+00  -5  6  0 0.00000000D+00 0.00000000D+00 0.00000000D+00 0.00000000D+00 0.00000000D+00
  <mgrwgt>
 -.5262212187D-02    5    2    0
 0.253059520037692D+04 0.000000000000000D+00 0.000000000000000D+00 0.253059520037692D+04
 0.253059520037692D+04 -.000000000000000D+00 -.000000000000000D+00 -.253059520037692D+04
 0.122235880587328D+04 -.443399787704349D+03 -.151701406861122D+03 0.112201575822983D+04
 0.138352486700098D+04 0.377285528696389D+03 0.481765205650569D+02 0.133021641484106D+04
 0.245530672787958D+04 0.661142590079589D+02 0.103524886296063D+03 -.245223217307089D+04
 0.000000000000000D+00 0.000000000000000D+00 0.000000000000000D+00 -.000000000000000D+00
 0.253059520037692D+04 0.000000000000000D+00 0.000000000000000D+00 0.253059520037692D+04
 0.253059520037692D+04 -.000000000000000D+00 -.000000000000000D+00 -.253059520037692D+04
 0.122200021203884D+04 -.443389424423994D+03 -.151685179538355D+03 0.112163137564904D+04
 0.138311041356075D+04 0.377297258322373D+03 0.481948873775201D+02 0.132978135337854D+04
 0.791009121390578D+03 -.133978800211261D+01 0.678930725716551D+02 -.788088932664318D+03
 0.166507065376368D+04 0.674319541037322D+02 0.355972195891785D+02 -.166332379636326D+04
0.839037046508D-03 0.000000000000D+00 0.000000000000D+00 0.288281785873D-03 0.000000000000D+00  6 2 1 25 2 1 21 0 0.46636718D+00 0.32500547D+00 0.24413552D+06 0.24413552D+06 0.24413552D+06 0.10912355D+01  1  2  2  4  6  5        1 0.563967318931D-04 0.100000000000D+01
0.166863689830D-03 0.000000000000D+00 -.322212318212D-05 0.288281785873D-03 0.000000000000D+00  6 2 1 25 2 1 21 2 0.46636718D+00 0.32500547D+00 0.24413552D+06 0.24413552D+06 0.24413552D+06 0.10912355D+01  1  2  3  4  6  5        1 0.133558525863D-04 0.100000000000D+01
-.570482125915D-03 0.000000000000D+00 0.000000000000D+00 0.288281785873D-03 0.000000000000D+00  6 2 1 25 2 1 21 2 0.46636718D+00 0.32500547D+00 0.24413552D+06 0.24413552D+06 0.24413552D+06 0.10912355D+01  1  2 15  4  6  5        1 -.456616726178D-04 0.100000000000D+01
0.839708177669D-10 0.000000000000D+00 0.000000000000D+00 0.288281785873D-03 0.000000000000D+00  6 2 1 25 2 1 21 2 0.46636718D+00 0.32500547D+00 0.25478417D+06 0.25478417D+06 0.25478417D+06 0.10898403D+01  1  2 12  4  6  5        1 0.666926483776D-11 0.100000000000D+01
-.660453562222D-01 0.000000000000D+00 0.000000000000D+00 0.288281785873D-03 0.000000000000D+00  6 2 1 25 2 1 21 2 0.46636718D+00 0.32500547D+00 0.24413552D+06 0.24413552D+06 0.24413552D+06 0.10912355D+01  1  2  5  4  6  5        1 -.528630310530D-02 0.100000000000D+01
  </mgrwgt>
  </event>
  <event>
  5     66 0.18337608E-05 0.28703328E+02 0.75467711E-02 0.90193939E-01
        2 -1    0    0  501    0 0.00000000E+00 0.00000000E+00 0.77770424E+03 0.77770430E+03 0.32000000E+00 0.0000E+00 0.9000E+01
        1 -1    0    0  502    0 0.00000000E+00 0.00000000E+00 -.15344449E+04 0.15344449E+04 0.32000000E+00 0.0000E+00 0.9000E+01
       25  1    1    2    0    0 -.42572666E+03 -.57930034E+03 -.82121771E+03 0.10985698E+04 0.12500000E+03 0.0000E+00 0.9000E+01
        2  1    1    2  501    0 0.44384739E+03 0.55703912E+03 0.43984715E+03 0.83711332E+03 0.32000000E+00 0.0000E+00 0.9000E+01
        1  1    1    2  502    0 -.18120723E+02 0.22261220E+02 -.37537011E+03 0.37646613E+03 0.32000000E+00 0.0000E+00 0.9000E+01
#aMCatNLO 1  0  0  1  2 0.39040714D+02 0.00000000D+00  -5  6  0 0.00000000D+00 0.00000000D+00 0.00000000D+00 0.00000000D+00 0.00000000D+00
  <mgrwgt>
 0.2212614646D-02    7    2    0
 0.109240304901720D+04 0.000000000000000D+00 0.000000000000000D+00 0.109240304901720D+04
 0.109240304901720D+04 0.000000000000000D+00 0.000000000000000D+00 -.109240304901720D+04
 0.878168487197381D+03 -.425728442508043D+03 -.579301356539287D+03 -.488589933848369D+03
 0.103825544165091D+04 0.443848516099343D+03 0.557040539664766D+03 0.755432785920839D+03
 0.268382169186116D+03 -.181200735913004D+02 0.222608168745212D+02 -.266842852072470D+03
 0.000000000000000D+00 -.000000000000000D+00 0.000000000000000D+00 0.000000000000000D+00
 0.113356049501264D+04 0.000000000000000D+00 0.000000000000000D+00 0.113356049501264D+04
 0.110187504895665D+04 0.000000000000000D+00 0.000000000000000D+00 -.110187504895665D+04
 0.875416305137723D+03 -.411339812382322D+03 -.585498200332251D+03 -.488589933848369D+03
 0.104176829152787D+04 0.460915664651412D+03 0.549690121129826D+03 0.755432785920839D+03
 0.267970286487693D+03 -.137191588847830D+02 0.203654466589997D+02 -.266842852072470D+03
 0.502806608160088D+02 -.358566933843076D+02 0.154426325434253D+02 0.316854460559895D+02
0.318396785499D-03 0.000000000000D+00 0.000000000000D+00 0.317528806211D-05 0.000000000000D+00  6 2 1 25 2 1 21 0 0.11964681D+00 0.23606846D+00 0.54070186D+06 0.54070186D+06 0.54070186D+06 0.10661166D+01  1  2  2  1  6  1        2 0.100297047846D-02 0.100000000000D+01
0.149150494697D-03 0.000000000000D+00 -.122272749211D-05 0.317528806211D-05 0.000000000000D+00  6 2 1 25 2 1 21 2 0.11964681D+00 0.23606846D+00 0.54070186D+06 0.54070186D+06 0.54070186D+06 0.10661166D+01  1  2  3  1  6  1        2 0.534015134769D-03 0.100000000000D+01
-.194580290874D-03 0.000000000000D+00 0.000000000000D+00 0.317528806211D-05 0.000000000000D+00  6 2 1 25 2 1 21 2 0.11964681D+00 0.23606846D+00 0.54070186D+06 0.54070186D+06 0.54070186D+06 0.10661166D+01  1  2 15  1  6  1        2 -.696670972934D-03 0.100000000000D+01
-.275060383559D-03 0.000000000000D+00 0.000000000000D+00 0.317528806211D-05 0.000000000000D+00  6 2 1 25 2 1 21 2 0.11964681D+00 0.23606846D+00 0.54070186D+06 0.54070186D+06 0.54070186D+06 0.10661166D+01  1  2  4  1  6  1        2 -.984820118058D-03 0.100000000000D+01
-.127653414442D-01 0.000000000000D+00 -.170543420021D-02 0.317528806211D-05 0.000000000000D+00  6 2 1 25 2 1 21 2 0.12480946D+00 0.23606846D+00 0.54070186D+06 0.54070186D+06 0.54070186D+06 0.10661166D+01  1  2  5  1  6  1        2 -.432715130283D-01 0.100000000000D+01
0.128274591790D-01 0.000000000000D+00 0.170391360166D-02 0.317528806211D-05 0.000000000000D+00  6 2 1 25 2 1 21 2 0.11964681D+00 0.23606846D+00 0.54070186D+06 0.54070186D+06 0.54070186D+06 0.10661166D+01  1  2  6  1  6  1        2 0.459271513387D-01 0.100000000000D+01
-.939201113403D-04 0.000000000000D+00 -.126921617971D-04 0.317528806211D-05 0.000000000000D+00  6 21 1 25 2 1 -2 2 0.12480946D+00 0.23606846D+00 0.54070186D+06 0.54070186D+06 0.54070186D+06 0.10661166D+01  1  2  5  5  6  1        2 -.298518186576D-03 0.100000000000D+01
  </mgrwgt>
  </event>
  <event>
  5     66 -.18337608E-05 0.19498898E+03 0.75467711E-02 0.94049960E-01
        2 -1    0    0  501    0 0.00000000E+00 0.00000000E+00 0.11824478E+04 0.11824478E+04 0.32000000E+00 0.0000E+00 0.9000E+01
        1 -1    0    0  502    0 0.00000000E+00 0.00000000E+00 -.90787786E+03 0.90787792E+03 0.32000000E+00 0.0000E+00 0.9000E+01
       25  1    1    2    0    0 -.28807180E+03 -.36501151E+03 -.59885772E+03 0.76842328E+03 0.12500000E+03 0.0000E+00 0.9000E+01
        2  1    1    2  501    0 0.33096175E+03 0.17480749E+03 0.10144318E+04 0.10812795E+04 0.32000000E+00 0.0000E+00 0.9000E+01
        1  1    1    2  502    0 -.42889944E+02 0.19020401E+03 -.14100421E+03 0.24062295E+03 0.32000000E+00 0.0000E+00 0.9000E+01
#aMCatNLO 1  0  0  4  1 0.40205631D+02 0.00000000D+00  -5  6  0 0.00000000D+00 0.00000000D+00 0.00000000D+00 0.00000000D+00 0.00000000D+00
  <mgrwgt>
 -.1632705097D-02    8    2    0
 0.103610726090691D+04 0.000000000000000D+00 0.000000000000000D+00 0.103610726090691D+04
 0.103610726090691D+04 -.000000000000000D+00 -.000000000000000D+00 -.103610726090691D+04
 0.854482658253624D+03 -.288073339640015D+03 -.365020692279244D+03 -.705896067741427D+03
 0.956311291856565D+03 0.330959798101312D+03 0.174806463523056D+03 0.880022499305372D+03
 0.261420571703638D+03 -.428864584612966D+02 0.190214228756188D+03 -.174126431563944D+03
 0.000000000000000D+00 0.000000000000000D+00 0.000000000000000D+00 0.000000000000000D+00
 0.103610726090691D+04 0.000000000000000D+00 0.000000000000000D+00 0.103610726090691D+04
 0.103610726090691D+04 -.000000000000000D+00 -.000000000000000D+00 -.103610726090691D+04
 0.852754849101206D+03 -.287447121578020D+03 -.364689936201196D+03 -.704230953165010D+03
 0.707625128294001D+03 0.265065373785432D+03 0.160719653813351D+03 0.636115447612465D+03
 0.261123739949645D+03 -.426947881841735D+02 0.190315465231127D+03 -.173616780067648D+03
 0.250710804468975D+03 0.650765359767615D+02 0.136548171567183D+02 0.241732285620193D+03
0.685364330977D-05 0.000000000000D+00 0.000000000000D+00 0.124152639782D-06 0.000000000000D+00  6 2 1 25 2 1 21 0 0.18191505D+00 0.13967353D+00 0.27603816D+06 0.27603816D+06 0.27603816D+06 0.10872367D+01  1  2  2  3  6  4        2 0.349861195232D-04 0.100000000000D+01
0.227184948053D-06 0.000000000000D+00 -.263197949152D-07 0.124152639782D-06 0.000000000000D+00  6 2 1 25 2 1 21 2 0.18191505D+00 0.13967353D+00 0.27603816D+06 0.27603816D+06 0.27603816D+06 0.10872367D+01  1  2  3  3  6  4        2 0.137088828934D-05 0.100000000000D+01
-.480057344728D-05 0.000000000000D+00 0.000000000000D+00 0.124152639782D-06 0.000000000000D+00  6 2 1 25 2 1 21 2 0.18191505D+00 0.13967353D+00 0.27603816D+06 0.27603816D+06 0.27603816D+06 0.10872367D+01  1  2 15  3  6  4        2 -.289678078472D-04 0.100000000000D+01
0.237992421678D-03 0.000000000000D+00 0.000000000000D+00 0.124152639782D-06 0.000000000000D+00  6 2 1 25 2 1 21 2 0.18191505D+00 0.13967353D+00 0.27689074D+06 0.27689074D+06 0.27689074D+06 0.10871369D+01  1  2 12  3  6  4        2 0.143560183505D-02 0.100000000000D+01
0.733576658609D-07 0.000000000000D+00 0.000000000000D+00 0.124152639782D-06 0.000000000000D+00  6 2 1 25 2 1 21 2 0.18191505D+00 0.13967353D+00 0.27689074D+06 0.27689074D+06 0.27689074D+06 0.10871369D+01  1  2 12  3  6  4        2 0.442503164524D-06 0.100000000000D+01
-.587727116971D-03 0.000000000000D+00 0.000000000000D+00 0.124152639782D-06 0.000000000000D+00  6 2 1 25 2 1 21 2 0.18191505D+00 0.13967353D+00 0.27603816D+06 0.27603816D+06 0.27603816D+06 0.10872367D+01  1  2  4  3  6  4        2 -.354648593090D-02 0.100000000000D+01
-.264224969937D-03 0.000000000000D+00 0.000000000000D+00 0.124152639782D-06 0.000000000000D+00  6 2 1 25 2 1 21 2 0.18191505D+00 0.13967353D+00 0.27603816D+06 0.27603816D+06 0.27603816D+06 0.10872367D+01  1  2  5  3  6  4        2 -.159439663649D-02 0.100000000000D+01
0.342171383844D-03 0.000000000000D+00 -.000000000000D+00 0.124152639782D-06 0.000000000000D+00  6 2 1 25 2 1 21 2 0.18191505D+00 0.13967353D+00 0.27603816D+06 0.27603816D+06 0.27603816D+06 0.10872367D+01  1  2  6  3  6  4        2 0.206474393255D-02 0.100000000000D+01
  </mgrwgt>
  </event>
  <event>
  5     66 0.18337608E-05 0.28134161E+02 0.75467711E-02 0.89194191E-01
        2 -1    0    0  501    0 0.00000000E+00 0.00000000E+00 0.33390827E+04 0.33390827E+04 0.32000000E+00 0.0000E+00 0.9000E+01
        1 -1    0    0  502    0 0.00000000E+00 0.00000000E+00 -.18588898E+03 0.18588926E+03 0.32000000E+00 0.0000E+00 0.9000E+01
       25  1    1    2    0    0 -.35938713E+03 0.38254225E+03 0.63383768E+03 0.83238986E+03 0.12500000E+03 0.0000E+00 0.9000E+01
        2  1    1    2  501    0 0.38445451E+03 -.36976749E+03 0.25752991E+04 0.26299618E+04 0.32000000E+00 0.0000E+00 0.9000E+01
        1  1    1    2  502    0 -.25067383E+02 -.12774762E+02 -.55943110E+02 0.62620302E+02 0.32000000E+00 0.0000E+00 0.9000E+01
#aMCatNLO 1  0  0  1  4 0.62088577D+01 0.00000000D+00  -5  6  0 0.00000000D+00 0.00000000D+00 0.00000000D+00 0.00000000D+00 0.00000000D+00
  <mgrwgt>
 0.4688873895D-02    6    2    0
 0.787844645977150D+03 0.000000000000000D+00 0.000000000000000D+00 0.787844645977150D+03
 0.787844645977150D+03 0.000000000000000D+00 0.000000000000000D+00 -.787844645977150D+03
 0.593737779431389D+03 -.359388938011376D+03 0.382543243085279D+03 -.247789848720584D+03
 0.729920366960634D+03 0.384455612520339D+03 -.369768548040505D+03 0.498245767654452D+03
 0.252031145562277D+03 -.250666745089638D+02 -.127746950447741D+02 -.250455918933868D+03
 0.000000000000000D+00 0.000000000000000D+00 -.000000000000000D+00 0.000000000000000D+00
 0.148611405400588D+04 0.000000000000000D+00 0.000000000000000D+00 0.148611405400588D+04
 0.908903345174784D+03 0.000000000000000D+00 0.000000000000000D+00 -.908903345174784D+03
 0.753062360897481D+03 -.553267450141436D+03 0.428921017071339D+03 -.247789848720584D+03
 0.623415458269207D+03 0.189636256365685D+03 -.323165714293828D+03 0.498245767654452D+03
 0.269801011096919D+03 -.100186983072342D+03 0.519487081396481D+01 -.250455918933868D+03
 0.748738568917059D+03 0.463818176848093D+03 -.110950173591476D+03 0.577210708831098D+03
0.108931788731D-02 0.000000000000D+00 0.000000000000D+00 0.356316994615D-05 0.000000000000D+00  6 2 1 25 2 1 21 0 0.51370505D+00 0.28598327D-01 0.30311194D+06 0.30311194D+06 0.30311194D+06 0.10842204D+01  1  2  2  1  6  1        2 0.284697775950D-02 0.100000000000D+01
0.481922322795D-03 0.000000000000D+00 -.418326751126D-05 0.356316994615D-05 0.000000000000D+00  6 2 1 25 2 1 21 2 0.51370505D+00 0.28598327D-01 0.30311194D+06 0.30311194D+06 0.30311194D+06 0.10842204D+01  1  2  3  1  6  1        2 0.148061335843D-02 0.100000000000D+01
-.741909366951D-03 0.000000000000D+00 0.000000000000D+00 0.356316994615D-05 0.000000000000D+00  6 2 1 25 2 1 21 2 0.51370505D+00 0.28598327D-01 0.30311194D+06 0.30311194D+06 0.30311194D+06 0.10842204D+01  1  2 15  1  6  1        2 -.227937339171D-02 0.100000000000D+01
-.736091385394D-03 0.000000000000D+00 -.342176507467D-03 0.356316994615D-05 0.000000000000D+00  6 2 1 25 2 1 21 2 0.97069223D+00 0.28598327D-01 0.30311194D+06 0.30311194D+06 0.30311194D+06 0.10842204D+01  1  2  5  1  6  1        2 -.150554885086D-07 0.100000000000D+01
0.859507584706D-03 0.000000000000D+00 0.290542736347D-03 0.356316994615D-05 0.000000000000D+00  6 2 1 25 2 1 21 2 0.51370505D+00 0.28598327D-01 0.30311194D+06 0.30311194D+06 0.30311194D+06 0.10842204D+01  1  2  6  1  6  1        2 0.264067122728D-02 0.100000000000D+01
-.315173201506D-04 0.000000000000D+00 -.236766825535D-04 0.356316994615D-05 0.000000000000D+00  6 21 1 25 2 1 -2 2 0.97069223D+00 0.28598327D-01 0.30311194D+06 0.30311194D+06 0.30311194D+06 0.10842204D+01  1  2  5  5  6  1        2 -.341602365462D-11 0.100000000000D+01
  </mgrwgt>
  </event>
  <event>
  5     66 -.18337608E-05 0.10251815E+03 0.75467711E-02 0.92002344E-01
        2 -1    0    0  501    0 0.00000000E+00 0.00000000E+00 0.16422658E+04 0.16422658E+04 0.32000000E+00 0.0000E+00 0.9000E+01
        1 -1    0    0  502    0 0.00000000E+00 0.00000000E+00 -.72411942E+03 0.72411949E+03 0.32000000E+00 0.0000E+00 0.9000E+01
       25  1    1    2    0    0 0.49434516E+03 0.18347638E+03 0.38521626E+03 0.66487389E+03 0.12500000E+03 0.0000E+00 0.9000E+01
        2  1    1    2  501    0 0.71718287E+02 0.73283660E+02 0.94836274E+03 0.95388993E+03 0.32000000E+00 0.0000E+00 0.9000E+01
        1  1    1    2  502    0 -.56606345E+03 -.25676004E+03 -.41543262E+03 0.74762150E+03 0.32000000E+00 0.0000E+00 0.9000E+01
#aMCatNLO 1  0  0  1  4 0.28174504D+01 0.00000000D+00  -5  6  0 0.00000000D+00 0.00000000D+00 0.00000000D+00 0.00000000D+00 0.00000000D+00
  <mgrwgt>
 -.1636561071D-01   13    2    0
 0.109050294629824D+04 0.000000000000000D+00 0.000000000000000D+00 0.109050294629824D+04
 0.109050294629824D+04 0.000000000000000D+00 0.000000000000000D+00 -.109050294629824D+04
 0.559328705475051D+03 0.494430540465940D+03 0.183519734652423D+03 0.138139597567314D+03
 0.635609884491199D+03 0.717045169413289D+02 0.732695890538304D+02 0.627287776728519D+03
 0.986067302630231D+03 -.566135057407269D+03 -.256789323706253D+03 -.765427374295833D+03
 0.000000000000000D+00 0.000000000000000D+00 0.000000000000000D+00 0.000000000000000D+00
 0.130371302965445D+04 0.000000000000000D+00 0.000000000000000D+00 0.130371302965445D+04
 0.109051316399433D+04 0.000000000000000D+00 0.000000000000000D+00 -.109051316399433D+04
 0.558665638959893D+03 0.493828191712782D+03 0.183121448247032D+03 0.138139597567314D+03
 0.635480944704997D+03 0.710196834446948D+02 0.728167618997346D+02 0.627287776728519D+03
 0.986861128739461D+03 -.567198024305644D+03 -.257492181083784D+03 -.765427374295833D+03
 0.213218481244434D+03 0.235014914816686D+01 0.155397093701721D+01 0.213199865660116D+03
0.489514498671D-05 0.000000000000D+00 0.000000000000D+00 0.244721282363D-05 0.000000000000D+00  6 2 1 25 2 1 21 0 0.25265629D+00 0.11140299D+00 0.40079712D+06 0.40079712D+06 0.40079712D+06 0.10753653D+01  1  2  2  1  6  1        2 0.194728652030D-04 0.100000000000D+01
0.113061478798D-05 0.000000000000D+00 -.187986456703D-07 0.244721282363D-05 0.000000000000D+00  6 2 1 25 2 1 21 2 0.25265629D+00 0.11140299D+00 0.40079712D+06 0.40079712D+06 0.40079712D+06 0.10753653D+01  1  2  3  1  6  1        2 0.520104961256D-05 0.100000000000D+01
-.318233255119D-05 0.000000000000D+00 0.000000000000D+00 0.244721282363D-05 0.000000000000D+00  6 2 1 25 2 1 21 2 0.25265629D+00 0.11140299D+00 0.40079712D+06 0.40079712D+06 0.40079712D+06 0.10753653D+01  1  2 15  1  6  1        2 -.146393534370D-04 0.100000000000D+01
0.582506939409D-03 0.000000000000D+00 0.000000000000D+00 0.244721282363D-05 0.000000000000D+00  6 2 1 25 2 1 21 2 0.30239167D+00 0.11140299D+00 0.40243791D+06 0.40243791D+06 0.40243791D+06 0.10752374D+01  1  2 12  1  6  1        2 0.178124721224D-02 0.100000000000D+01
0.299163848414D-08 0.000000000000D+00 0.000000000000D+00 0.244721282363D-05 0.000000000000D+00  6 2 1 25 2 1 21 2 0.30205582D+00 0.11140299D+00 0.40243791D+06 0.40243791D+06 0.40243791D+06 0.10752374D+01  1  2 12  1  6  1        2 0.917346455642D-08 0.100000000000D+01
-.644905038270D-01 0.000000000000D+00 0.000000000000D+00 0.244721282363D-05 0.000000000000D+00  6 2 1 25 2 1 21 2 0.25265629D+00 0.11140299D+00 0.40079712D+06 0.40079712D+06 0.40079712D+06 0.10753653D+01  1  2  4  1  6  1        2 -.296668957021D+00 0.100000000000D+01
-.547601708708D-01 0.000000000000D+00 -.571464672931D-05 0.244721282363D-05 0.000000000000D+00  6 2 1 25 2 1 21 2 0.30205537D+00 0.11140299D+00 0.40079712D+06 0.40079712D+06 0.40079712D+06 0.10753653D+01  1  2  5  1  6  1        2 -.168000371326D+00 0.100000000000D+01
0.538995413631D-01 0.000000000000D+00 0.562471933322D-05 0.244721282363D-05 0.000000000000D+00  6 2 1 25 2 1 21 2 0.25265629D+00 0.11140299D+00 0.40079712D+06 0.40079712D+06 0.40079712D+06 0.10753653D+01  1  2  6  1  6  1        2 0.247948453976D+00 0.100000000000D+01
0.647541983737D-01 0.000000000000D+00 0.000000000000D+00 0.244721282363D-05 0.231368567058D-05  6 2 1 25 2 1 21 2 0.30205447D+00 0.11140404D+00 0.40243791D+06 0.40243791D+06 0.40243791D+06 0.10752374D+01  1  2 11  1  6  1        2 0.198559534629D+00 0.100000000000D+01
0.153424652585D-04 0.000000000000D+00 0.000000000000D+00 0.244721282363D-05 0.000000000000D+00  6 21 1 25 2 1 -2 2 0.30239167D+00 0.11140299D+00 0.40243791D+06 0.40243791D+06 0.40243791D+06 0.10752374D+01  1  2 12  5  6  1        2 0.951477609302D-05 0.100000000000D+01
0.784139258666D-10 0.000000000000D+00 0.000000000000D+00 0.244721282363D-05 0.000000000000D+00  6 21 1 25 2 1 -2 2 0.30205582D+00 0.11140299D+00 0.40243791D+06 0.40243791D+06 0.40243791D+06 0.10752374D+01  1  2 12  5  6  1        2 0.488795076385D-10 0.100000000000D+01
-.143525696582D-02 0.000000000000D+00 -.149785789903D-06 0.244721282363D-05 0.000000000000D+00  6 21 1 25 2 1 -2 2 0.30205537D+00 0.11140299D+00 0.40079712D+06 0.40079712D+06 0.40079712D+06 0.10753653D+01  1  2  5  5  6  1        2 -.895318619781D-03 0.100000000000D+01
0.142814304088D-02 0.000000000000D+00 0.000000000000D+00 0.244721282363D-05 0.509263371857D-07  6 21 1 25 2 1 -2 2 0.30205447D+00 0.11140404D+00 0.40243791D+06 0.40243791D+06 0.40243791D+06 0.10752374D+01  1  2 11  5  6  1        2 0.890241874355D-03 0.100000000000D+01
  </mgrwgt>
  </event>
  <event>
  5     66 0.18337608E-05 0.51633228E+02 0.75467711E-02 0.89064606E-01
        2 -1    0    0  501    0 0.00000000E+00 0.00000000E+00 0.11322336E+04 0.11322337E+04 0.32000000E+00 0.0000E+00 0.9000E+01
        1 -1    0    0  502    0 0.00000000E+00 0.00000000E+00 -.19093192E+04 0.19093192E+04 0.32000000E+00 0.0000E+00 0.9000E+01
       25  1    1    2    0    0 -.46471837E+03 0.48968091E+03 0.78787614E+02 0.69107384E+03 0.12500000E+03 0.0000E+00 0.9000E+01
        2  1    1    2  501    0 0.21501190E+02 -.46950937E+02 0.68509501E+03 0.68703855E+03 0.32000000E+00 0.0000E+00 0.9000E+01
        1  1    1    2  502    0 0.44321718E+03 -.44272998E+03 -.15409682E+04 0.16634405E+04 0.32000000E+00 0.0000E+00 0.9000E+01
#aMCatNLO 1  0  0  2  4 0.11502738D+03 0.00000000D+00  -5  6  0 0.00000000D+00 0.00000000D+00 0.00000000D+00 0.00000000D+00 0.00000000D+00
  <mgrwgt>
 0.1121745552D-01    7    2    0
 0.147030456324351D+04 0.000000000000000D+00 0.000000000000000D+00 0.147030456324351D+04
 0.147030456324351D+04 0.000000000000000D+00 0.000000000000000D+00 -.147030456324351D+04
 0.735710497371894D+03 -.464761588960584D+03 0.489721550549821D+03 0.264224155400510D+03
 0.891548766983090D+03 0.214983621789284D+02 -.469447614560204D+02 0.890052365709192D+03
 0.131334986213203D+04 0.443263226781655D+03 -.442776789093800D+03 -.115427652110970D+04
 0.000000000000000D+00 -.000000000000000D+00 -.000000000000000D+00 -.000000000000000D+00
 0.148988603963571D+04 0.000000000000000D+00 0.000000000000000D+00 0.148988603963571D+04
 0.238376444612972D+04 0.000000000000000D+00 0.000000000000000D+00 -.238376444612972D+04
 0.705688784563601D+03 -.408039797067516D+03 0.496045139448861D+03 0.264224155400510D+03
 0.895630838122903D+03 0.918272647299521D+02 -.391041934377935D+02 0.890052365709192D+03
 0.134852466489606D+04 0.548013031266644D+03 -.431098831139535D+03 -.115427652110970D+04
 0.923806198182861D+03 -.231800498929080D+03 -.258421148715324D+02 -.893878406494008D+03
0.213585513714D-02 0.000000000000D+00 0.000000000000D+00 0.383416217712D-04 0.000000000000D+00  6 2 1 25 2 1 21 0 0.17418979D+00 0.29374142D+00 0.46565913D+06 0.46565913D+06 0.46565913D+06 0.10707013D+01  1  2  2  2  6  2        1 0.224812115296D-02 0.100000000000D+01
0.104402073113D-02 0.000000000000D+00 -.820224611019D-05 0.383416217712D-04 0.000000000000D+00  6 2 1 25 2 1 21 2 0.17418979D+00 0.29374142D+00 0.46565913D+06 0.46565913D+06 0.46565913D+06 0.10707013D+01  1  2  3  2  6  2        1 0.125977695819D-02 0.100000000000D+01
-.124038028540D-02 0.000000000000D+00 0.000000000000D+00 0.383416217712D-04 0.000000000000D+00  6 2 1 25 2 1 21 2 0.17418979D+00 0.29374142D+00 0.46565913D+06 0.46565913D+06 0.46565913D+06 0.10707013D+01  1  2 15  2  6  2        1 -.149671597158D-02 0.100000000000D+01
-.771993434622D-02 0.000000000000D+00 0.000000000000D+00 0.383416217712D-04 0.000000000000D+00  6 2 1 25 2 1 21 2 0.17418979D+00 0.29374142D+00 0.46565913D+06 0.46565913D+06 0.46565913D+06 0.10707013D+01  1  2  4  2  6  2        1 -.931532786477D-02 0.100000000000D+01
-.198048452742D-01 0.000000000000D+00 -.106660284186D-02 0.383416217712D-04 0.000000000000D+00  6 2 1 25 2 1 21 2 0.17418979D+00 0.47753732D+00 0.46565913D+06 0.46565913D+06 0.46565913D+06 0.10707013D+01  1  2  5  2  6  2        1 -.345373123915D-02 0.100000000000D+01
0.182413120768D-01 0.000000000000D+00 0.951973921751D-03 0.383416217712D-04 0.000000000000D+00  6 2 1 25 2 1 21 2 0.17418979D+00 0.29374142D+00 0.46565913D+06 0.46565913D+06 0.46565913D+06 0.10707013D+01  1  2  6  2  6  2        1 0.220110424595D-01 0.100000000000D+01
-.104529781404D-02 0.000000000000D+00 -.588028784502D-04 0.383416217712D-04 0.000000000000D+00  6 2 21 25 2 1 -1 2 0.17418979D+00 0.47753732D+00 0.46565913D+06 0.46565913D+06 0.46565913D+06 0.10707013D+01  1  2  5  6  6  2        1 -.357099712750D-04 0.100000000000D+01
  </mgrwgt>
  </event>
  <event>
  6     66 -.18337608E-05 0.29753751E+02 0.75467711E-02 0.95271040E-01
        2 -1    0    0  501    0 0.00000000E+00 0.00000000E+00 0.30358706E+03 0.30358723E+03 0.32000000E+00 0.0000E+00 0.9000E+01
        1 -1    0    0  502    0 -.00000000E+00 -.00000000E+00 -.28796394E+04 0.28796394E+04 0.32000000E+00 0.0000E+00 0.9000E+01
       25  1    1    2    0    0 0.16848449E+02 0.44442622E+03 -.17785266E+04 0.18375474E+04 0.12500000E+03 0.0000E+00 0.9000E+01
        2  1    1    2  501    0 0.19414361E+02 -.57089041E+01 0.22317609E+03 0.22409190E+03 0.32000000E+00 0.0000E+00 0.9000E+01
        1  1    1    2  503    0 -.61423533E+02 -.40786206E+03 -.98590219E+03 0.10687037E+04 0.32000000E+00 0.0000E+00 0.9000E+01
       21  1    1    2  502  503 0.25160722E+02 -.30855257E+02 -.34799660E+02 0.52883718E+02 0.75000000E+00 0.0000E+00 0.9000E+01
#aMCatNLO 2  0  0  5  2 0.39118871D+03 0.00000000D+00  -5  6  0 0.00000000D+00 0.00000000D+00 0.00000000D+00 0.00000000D+00 0.00000000D+00
  <mgrwgt>
 -.8996579787D-02    1    2    0
 0.934998169038474D+03 0.000000000000000D+00 0.000000000000000D+00 0.934998169038474D+03
 0.934998169038474D+03 -.000000000000000D+00 -.000000000000000D+00 -.934998169038474D+03
 0.680551514705244D+03 0.174767766080291D+02 0.452033070352057D+03 -.492834688059888D+03
 0.692251572444586D+03 0.200504235255168D+02 0.199626869252442D+01 0.691958261009837D+03
 0.497193250927118D+03 -.375272001335459D+02 -.454029339044581D+03 -.199123572949948D+03
 0.000000000000000D+00 0.000000000000000D+00 -.000000000000000D+00 0.000000000000000D+00
 0.934998169038474D+03 0.000000000000000D+00 0.000000000000000D+00 0.934998169038474D+03
 0.934998169038474D+03 -.000000000000000D+00 -.000000000000000D+00 -.934998169038474D+03
 0.677950239971573D+03 0.168494041875222D+02 0.444442696319252D+03 -.496163597157744D+03
 0.688871263322720D+03 0.194126044181732D+02 -.572049639271177D+01 0.688573920608793D+03
 0.461034487737718D+03 -.614625486929973D+02 -.407822916632299D+03 -.206047622314032D+03
 0.421403470449375D+02 0.252005400873019D+02 -.308992832942410D+02 0.136372988629826D+02
-.634575130545D-02 0.000000000000D+00 0.000000000000D+00 0.501763278071D-05 0.000000000000D+00  6 2 1 25 2 1 21 2 0.46705716D-01 0.44302147D+00 0.22328007D+06 0.22328007D+06 0.22328007D+06 0.10941715D+01  1  2  8  4  6  5        1 -.899657978702D-02 0.100000000000D+01
  </mgrwgt>
  </event>
  <event>
  5     66 -.18337608E-05 0.45235177E+02 0.75467711E-02 0.92358993E-01
        2 -1    0    0  501    0 0.00000000E+00 0.00000000E+00 0.13749888E+04 0.13749889E+04 0.32000000E+00 0.0000E+00 0.9000E+01
        1 -1    0    0  502    0 0.00000000E+00 0.00000000E+00 -.13416612E+04 0.13416613E+04 0.32000000E+00 0.0000E+00 0.9000E+01
       25  1    1    2    0    0 0.38855353E+03 -.32122038E+03 -.20008011E+03 0.55660887E+03 0.12500000E+03 0.0000E+00 0.9000E+01
        2  1    1    2  501    0 -.43160259E+03 0.33510484E+03 0.11337535E+04 0.12585599E+04 0.32000000E+00 0.0000E+00 0.9000E+01
        1  1    1    2  502    0 0.43049056E+02 -.13884464E+02 -.90034575E+03 0.90148133E+03 0.32000000E+00 0.0000E+00 0.9000E+01
#aMCatNLO 1  0  0  5  2 0.39118871D+03 0.00000000D+00  -5  6  0 0.00000000D+00 0.00000000D+00 0.00000000D+00 0.00000000D+00 0.00000000D+00
  <mgrwgt>
 -.2027762665D-01    4    2    0
 0.135822285043469D+04 0.000000000000000D+00 0.000000000000000D+00 0.135822285043469D+04
 0.135822285043469D+04 -.000000000000000D+00 -.000000000000000D+00 -.135822285043469D+04
 0.559080392474619D+03 0.388546829103554D+03 -.321216315218573D+03 -.206875145149315D+03
 0.124473223563455D+04 -.431598238880646D+03 0.335101464344667D+03 0.111838647489003D+04
 0.912633072760211D+03 0.430514097770923D+02 -.138851491260944D+02 -.911511329740720D+03
 0.000000000000000D+00 0.000000000000000D+00 -.000000000000000D+00 0.000000000000000D+00
 0.135822285043469D+04 0.000000000000000D+00 0.000000000000000D+00 0.135822285043469D+04
 0.135822285043469D+04 -.000000000000000D+00 -.000000000000000D+00 -.135822285043469D+04
 0.560301945728908D+03 0.388686256755677D+03 -.321261284100011D+03 -.209827194460757D+03
 0.123871626250687D+04 -.431288906330501D+03 0.335001696912879D+03 0.111183709298652D+04
 0.232410839273022D+03 -.449289356076678D+02 0.390318886097279D+02 -.224661302026651D+03
 0.685016653360574D+03 0.875315851824924D+02 -.527723014225957D+02 -.677348596499117D+03
0.520820439516D-02 0.000000000000D+00 0.000000000000D+00 0.752094897638D-04 0.000000000000D+00  6 2 1 25 2 1 21 0 0.21153675D+00 0.20640942D+00 0.30860697D+06 0.30860697D+06 0.30860697D+06 0.10836442D+01  1  2  2  4  6  5        1 0.985421084401D-02 0.100000000000D+01
0.256523480369D-02 0.000000000000D+00 -.200008762291D-04 0.752094897638D-04 0.000000000000D+00  6 2 1 25 2 1 21 2 0.21153675D+00 0.20640942D+00 0.30860697D+06 0.30860697D+06 0.30860697D+06 0.10836442D+01  1  2  3  4  6  5        1 0.569946847822D-02 0.100000000000D+01
-.318100864807D-02 0.000000000000D+00 0.000000000000D+00 0.752094897638D-04 0.000000000000D+00  6 2 1 25 2 1 21 2 0.21153675D+00 0.20640942D+00 0.30860697D+06 0.30860697D+06 0.30860697D+06 0.10836442D+01  1  2 15  4  6  5        1 -.706760195695D-02 0.100000000000D+01
-.129460589008D-01 0.000000000000D+00 0.000000000000D+00 0.752094897638D-04 0.000000000000D+00  6 2 1 25 2 1 21 2 0.21153675D+00 0.20640942D+00 0.30860697D+06 0.30860697D+06 0.30860697D+06 0.10836442D+01  1  2  5  4  6  5        1 -.287637040149D-01 0.100000000000D+01
  </mgrwgt>
  </event>
  <event>
  5     66 0.18337608E-05 0.20907849E+02 0.75467711E-02 0.88865692E-01
        2 -1    0    0  501    0 0.00000000E+00 0.00000000E+00 0.86467022E+03 0.86467028E+03 0.32000000E+00 0.0000E+00 0.9000E+01
        1 -1    0    0  502    0 0.00000000E+00 0.00000000E+00 -.23411393E+04 0.23411393E+04 0.32000000E+00 0.0000E+00 0.9000E+01
       25  1    1    2    0    0 0.51160990E+03 -.54949448E+03 -.40716928E+03 0.86319216E+03 0.12500000E+03 0.0000E+00 0.9000E+01
        2  1    1    2  501    0 -.50052905E+03 0.53176680E+03 0.42714609E+03 0.84602550E+03 0.32000000E+00 0.0000E+00 0.9000E+01
        1  1    1    2  502    0 -.11080856E+02 0.17727682E+02 -.14964459E+04 0.14965919E+04 0.32000000E+00 0.0000E+00 0.9000E+01
#aMCatNLO 1  0  0  1  4 0.23672545D+02 0.00000000D+00  -5  6  0 0.00000000D+00 0.00000000D+00 0.00000000D+00 0.00000000D+00 0.00000000D+00
  <mgrwgt>
 0.3041270952D-02    7    2    0
 0.142278373378106D+04 0.000000000000000D+00 0.000000000000000D+00 0.142278373378106D+04
 0.142278373378106D+04 0.000000000000000D+00 0.000000000000000D+00 -.142278373378106D+04
 0.761177520711105D+03 0.511592378305861D+03 -.549476399277039D+03 -.107304768206321D+02
 0.117471838479185D+04 -.500510468086825D+03 0.531747061159937D+03 0.920161734615853D+03
 0.909671562059170D+03 -.110819102190360D+02 0.177293381171023D+02 -.909431257795221D+03
 0.000000000000000D+00 -.000000000000000D+00 -.000000000000000D+00 0.000000000000000D+00
 0.155758080260059D+04 0.000000000000000D+00 0.000000000000000D+00 0.155758080260059D+04
 0.146446068639029D+04 0.000000000000000D+00 0.000000000000000D+00 -.146446068639029D+04
 0.736301422099562D+03 0.514713084684936D+03 -.511341452952093D+03 -.107304768206321D+02
 0.120126652752013D+04 -.495558978579720D+03 0.592254127075557D+03 0.920161734615853D+03
 0.911717488770781D+03 -.728618377026600D+01 0.641130111722142D+02 -.909431257795221D+03
 0.172756050600404D+03 -.118679223349504D+02 -.145025685295679D+03 0.931201162103001D+02
0.159343780780D-02 0.000000000000D+00 0.000000000000D+00 0.263556976546D-04 0.000000000000D+00  6 2 1 25 2 1 21 0 0.13302619D+00 0.36017528D+00 0.57173269D+06 0.57173269D+06 0.57173269D+06 0.10644197D+01  1  2  2  1  6  1        2 0.124384704308D-02 0.100000000000D+01
0.151600438213D-02 0.000000000000D+00 -.611922074378D-05 0.263556976546D-04 0.000000000000D+00  6 2 1 25 2 1 21 2 0.13302619D+00 0.36017528D+00 0.57173269D+06 0.57173269D+06 0.57173269D+06 0.10644197D+01  1  2  3  1  6  1        2 0.134078179699D-02 0.100000000000D+01
-.977388446502D-03 0.000000000000D+00 0.000000000000D+00 0.263556976546D-04 0.000000000000D+00  6 2 1 25 2 1 21 2 0.13302619D+00 0.36017528D+00 0.57173269D+06 0.57173269D+06 0.57173269D+06 0.10644197D+01  1  2 15  1  6  1        2 -.864420085527D-03 0.100000000000D+01
-.794684118312D-03 0.000000000000D+00 0.000000000000D+00 0.263556976546D-04 0.000000000000D+00  6 2 1 25 2 1 21 2 0.13302619D+00 0.36017528D+00 0.57173269D+06 0.57173269D+06 0.57173269D+06 0.10644197D+01  1  2  4  1  6  1        2 -.702833060874D-03 0.100000000000D+01
-.155044797566D-01 0.000000000000D+00 -.340599005324D-02 0.263556976546D-04 0.000000000000D+00  6 2 1 25 2 1 21 2 0.14823264D+00 0.36017528D+00 0.57173269D+06 0.57173269D+06 0.57173269D+06 0.10644197D+01  1  2  5  1  6  1        2 -.118098391919D-01 0.100000000000D+01
0.158003448976D-01 0.000000000000D+00 0.338613600819D-02 0.263556976546D-04 0.000000000000D+00  6 2 1 25 2 1 21 2 0.13302619D+00 0.36017528D+00 0.57173269D+06 0.57173269D+06 0.57173269D+06 0.10644197D+01  1  2  6  1  6  1        2 0.139741118658D-01 0.100000000000D+01
-.256529487005D-03 0.000000000000D+00 -.592135609303D-04 0.263556976546D-04 0.000000000000D+00  6 21 1 25 2 1 -2 2 0.14823264D+00 0.36017528D+00 0.57173269D+06 0.57173269D+06 0.57173269D+06 0.10644197D+01  1  2  5  5  6  1        2 -.140377415672D-03 0.100000000000D+01
  </mgrwgt>
  </event>
  <event>
  6     66 0.18337608E-05 0.90990277E+02 0.75467711E-02 0.94403531E-01
        2 -1    0    0  503    0 0.00000000E+00 0.00000000E+00 0.33770987E+04 0.33770987E+04 0.32000000E+00 0.0000E+00 0.9000E+01
        1 -1    0    0  502    0 0.00000000E+00 0.00000000E+00 -.17111362E+04 0.17111363E+04 0.32000000E+00 0.0000E+00 0.9000E+01
       25  1    1    2    0    0 0.11518318E+03 -.44376879E+03 0.14960790E+04 0.15697373E+04 0.12500000E+03 0.0000E+00 0.9000E+01
        2  1    1    2  501    0 -.10692078E+03 0.14538162E+03 0.97591069E+03 0.99245637E+03 0.32000000E+00 0.0000E+00 0.9000E+01
        1  1    1    2  502    0 -.10828613E+03 0.14234505E+03 -.16511620E+04 0.16608203E+04 0.32000000E+00 0.0000E+00 0.9000E+01
       21  1    1    2  503  501 0.10002373E+03 0.15604212E+03 0.84513482E+03 0.86522096E+03 0.75000000E+00 0.0000E+00 0.9000E+01
#aMCatNLO 2  0  0  1  1 0.94647982D+02 0.00000000D+00  -5  6  0 0.00000000D+00 0.00000000D+00 0.00000000D+00 0.00000000D+00 0.00000000D+00
  <mgrwgt>
 0.3281461114D-03    1    2    0
 0.206916259158456D+04 0.000000000000000D+00 0.000000000000000D+00 0.206916259158456D+04
 0.206916259158456D+04 0.000000000000000D+00 0.000000000000000D+00 -.206916259158456D+04
 0.129134315706369D+04 0.146512549758568D+03 -.394845791548837D+03 0.121431998375825D+04
 0.821905413932637D+03 -.870855337236396D+02 0.176253900412987D+03 0.798047105036450D+03
 0.202507661217278D+04 -.594270160349279D+02 0.218591891135850D+03 -.201236708879470D+04
 0.000000000000000D+00 0.000000000000000D+00 0.000000000000000D+00 0.000000000000000D+00
 0.277358859204543D+04 0.000000000000000D+00 0.000000000000000D+00 0.277358859204543D+04
 0.208346506646438D+04 0.000000000000000D+00 0.000000000000000D+00 -.208346506646438D+04
 0.130398477703233D+04 0.115163596838545D+03 -.443751756887379D+03 0.121431998375825D+04
 0.818188296944972D+03 -.106896217318288D+03 0.145348223668872D+03 0.798047105036450D+03
 0.202030072927495D+04 -.108291108373588D+03 0.142361415039549D+03 -.201236708879470D+04
 0.714579855257566D+03 0.100023728853332D+03 0.156042118178958D+03 0.690123525581053D+03
0.379717573196D-02 0.000000000000D+00 0.000000000000D+00 0.974490209651D-04 0.155484882775D-07  6 2 1 25 2 1 21 2 0.51955360D+00 0.26325171D+00 0.26001219D+06 0.26001219D+06 0.26001219D+06 0.10891785D+01  1  2  1  1  6  1        2 0.328146111353D-03 0.100000000000D+01
  </mgrwgt>
  </event>
  <event>
  5     66 0.18337608E-05 0.13200992E+03 0.75467711E-02 0.92583242E-01
        2 -1    0    0  501    0 0.00000000E+00 0.00000000E+00 0.15143448E+04 0.15143448E+04 0.32000000E+00 0.0000E+00 0.9000E+01
        1 -1    0    0  502    0 0.00000000E+00 0.00000000E+00 -.43237693E+03 0.43237705E+03 0.32000000E+00 0.0000E+00 0.9000E+01
       25  1    1    2    0    0 -.33511210E+03 -.39222087E+03 0.61526252E+03 0.81259479E+03 0.12500000E+03 0.0000E+00 0.9000E+01
        2  1    1    2  501    0 0.81636630E+02 0.10381012E+03 0.68149038E+03 0.69416880E+03 0.32000000E+00 0.0000E+00 0.9000E+01
        1  1    1    2  502    0 0.25347547E+03 0.28841075E+03 -.21478504E+03 0.43995828E+03 0.32000000E+00 0.0000E+00 0.9000E+01
#aMCatNLO 1  0  0  2  4 0.19159868D+03 0.00000000D+00  -5  6  0 0.00000000D+00 0.00000000D+00 0.00000000D+00 0.00000000D+00 0.00000000D+00
  <mgrwgt>
 0.3164620908D-02    7    2    0
 0.809177300758680D+03 0.000000000000000D+00 0.000000000000000D+00 0.809177300758680D+03
 0.809177300758680D+03 0.000000000000000D+00 0.000000000000000D+00 -.809177300758680D+03
 0.566218446415487D+03 -.335132400739833D+03 -.392240326992880D+03 0.197007941251216D+03
 0.379242013430960D+03 0.816027753533616D+02 0.103767070848580D+03 0.355524804779221D+03
 0.672894141670913D+03 0.253529625386471D+03 0.288473256144301D+03 -.552532746030437D+03
 0.000000000000000D+00 0.000000000000000D+00 0.000000000000000D+00 -.000000000000000D+00
 0.904111569117223D+03 0.000000000000000D+00 0.000000000000000D+00 0.904111569117223D+03
 0.917619612809197D+03 0.000000000000000D+00 0.000000000000000D+00 -.917619612809197D+03
 0.619976075535744D+03 -.341396596355083D+03 -.461932429385322D+03 0.197007941251216D+03
 0.368789927559197D+03 0.776524802558008D+02 0.598181926000541D+02 0.355524804779221D+03
 0.640890915312816D+03 0.246591634659789D+03 0.211284868389519D+03 -.552532746030437D+03
 0.192074263518663D+03 0.171524814394924D+02 0.190829368395749D+03 -.135080436919747D+02
0.239733131389D-03 0.000000000000D+00 0.000000000000D+00 0.887942950812D-06 0.000000000000D+00  6 2 1 25 2 1 21 0 0.23297613D+00 0.66519540D-01 0.27399969D+06 0.27399969D+06 0.27399969D+06 0.10874768D+01  1  2  2  2  6  2        1 0.240711201242D-02 0.100000000000D+01
0.277277887056D-04 0.000000000000D+00 -.920638347719D-06 0.887942950812D-06 0.000000000000D+00  6 2 1 25 2 1 21 2 0.23297613D+00 0.66519540D-01 0.27399969D+06 0.27399969D+06 0.27399969D+06 0.10874768D+01  1  2  3  2  6  2        1 0.329248247593D-03 0.100000000000D+01
-.148225437289D-03 0.000000000000D+00 0.000000000000D+00 0.887942950812D-06 0.000000000000D+00  6 2 1 25 2 1 21 2 0.23297613D+00 0.66519540D-01 0.27399969D+06 0.27399969D+06 0.27399969D+06 0.10874768D+01  1  2 15  2  6  2        1 -.176007419828D-02 0.100000000000D+01
-.128969551139D-04 0.000000000000D+00 0.000000000000D+00 0.887942950812D-06 0.000000000000D+00  6 2 1 25 2 1 21 2 0.23297613D+00 0.66519540D-01 0.27399969D+06 0.27399969D+06 0.27399969D+06 0.10874768D+01  1  2  4  2  6  2        1 -.153142391397D-03 0.100000000000D+01
-.647246147325D-03 0.000000000000D+00 -.269979665614D-03 0.887942950812D-06 0.000000000000D+00  6 2 1 25 2 1 21 2 0.23297613D+00 0.83858103D-01 0.27399969D+06 0.27399969D+06 0.27399969D+06 0.10874768D+01  1  2  5  2  6  2        1 -.556421932778D-02 0.100000000000D+01
0.698055611760D-03 0.000000000000D+00 0.262895557350D-03 0.887942950812D-06 0.000000000000D+00  6 2 1 25 2 1 21 2 0.23297613D+00 0.66519540D-01 0.27399969D+06 0.27399969D+06 0.27399969D+06 0.10874768D+01  1  2  6  2  6  2        1 0.828892593400D-02 0.100000000000D+01
-.167106609061D-04 0.000000000000D+00 -.863383580639D-05 0.887942950812D-06 0.000000000000D+00  6 2 21 25 2 1 -1 2 0.23297613D+00 0.83858103D-01 0.27399969D+06 0.27399969D+06 0.27399969D+06 0.10874768D+01  1  2  5  6  6  2        1 -.383229368188D-03 0.100000000000D+01
  </mgrwgt>
  </event>
  <event>
  5     66 -.18337608E-05 0.79920711E+02 0.75467711E-02 0.95120820E-01
        2 -1    0    0  501    0 0.00000000E+00 0.00000000E+00 0.12306478E+04 0.12306478E+04 0.32000000E+00 0.0000E+00 0.9000E+01
        1 -1    0    0  502    0 0.00000000E+00 0.00000000E+00 -.68479632E+03 0.68479639E+03 0.32000000E+00 0.0000E+00 0.9000E+01
       25  1    1    2    0    0 0.43411834E+03 -.16513028E+03 0.25066283E+03 0.54238694E+03 0.12500000E+03 0.0000E+00 0.9000E+01
        2  1    1    2  501    0 -.60419543E+02 0.52337038E+02 0.76107150E+03 0.76525788E+03 0.32000000E+00 0.0000E+00 0.9000E+01
        1  1    1    2  502    0 -.37369879E+03 0.11279324E+03 -.46588289E+03 0.60779937E+03 0.32000000E+00 0.0000E+00 0.9000E+01
#aMCatNLO 1  0  0  4  2 0.15604417D+02 0.00000000D+00  -5  6  0 0.00000000D+00 0.00000000D+00 0.00000000D+00 0.00000000D+00 0.00000000D+00
  <mgrwgt>
 -.2591246522D-02    7    2    0
 0.918010436703776D+03 0.000000000000000D+00 0.000000000000000D+00 0.918010436703776D+03
 0.918010436703776D+03 -.000000000000000D+00 -.000000000000000D+00 -.918010436703776D+03
 0.491397766755147D+03 0.434168977516811D+03 -.165141003018168D+03 0.100361911381289D+03
 0.571988087028820D+03 -.604083526579017D+02 0.523273443600988D+02 0.566377128479132D+03
 0.772635019623585D+03 -.373760624858909D+03 0.112813658658069D+03 -.666739039860421D+03
 0.000000000000000D+00 -.000000000000000D+00 0.000000000000000D+00 0.000000000000000D+00
 0.918010436703776D+03 0.000000000000000D+00 0.000000000000000D+00 0.918010436703776D+03
 0.918010436703776D+03 -.000000000000000D+00 -.000000000000000D+00 -.918010436703776D+03
 0.491436236458669D+03 0.434117335367770D+03 -.165096269195817D+03 0.100846098265970D+03
 0.494703329774017D+03 -.377549605408705D+02 0.509994206569785D+02 0.490616965194550D+03
 0.772028019833414D+03 -.373841787820956D+03 0.112883964204860D+03 -.665978071494948D+03
 0.778532873414524D+02 -.225205870059435D+02 0.121288433397844D+01 0.745150080344280D+02
0.127606471899D-03 0.000000000000D+00 0.000000000000D+00 0.140760835543D-04 0.000000000000D+00  6 2 1 25 2 1 21 0 0.18933043D+00 0.10535329D+00 0.22627886D+06 0.22627886D+06 0.22627886D+06 0.10937313D+01  1  2  2  3  6  4        2 0.965876923166D-03 0.100000000000D+01
0.314980424202D-04 0.000000000000D+00 -.490042451648D-06 0.140760835543D-04 0.000000000000D+00  6 2 1 25 2 1 21 2 0.18933043D+00 0.10535329D+00 0.22627886D+06 0.22627886D+06 0.22627886D+06 0.10937313D+01  1  2  3  3  6  4        2 0.285202886242D-03 0.100000000000D+01
-.775482048084D-04 0.000000000000D+00 0.000000000000D+00 0.140760835543D-04 0.000000000000D+00  6 2 1 25 2 1 21 2 0.18933043D+00 0.10535329D+00 0.22627886D+06 0.22627886D+06 0.22627886D+06 0.10937313D+01  1  2 15  3  6  4        2 -.702169726588D-03 0.100000000000D+01
0.141091128643D-07 0.000000000000D+00 0.000000000000D+00 0.140760835543D-04 0.000000000000D+00  6 2 1 25 2 1 21 2 0.18933043D+00 0.10535329D+00 0.22920053D+06 0.22920053D+06 0.22920053D+06 0.10933085D+01  1  2 12  3  6  4        2 0.127574911082D-06 0.100000000000D+01
-.166788418902D-02 0.000000000000D+00 0.000000000000D+00 0.140760835543D-04 0.000000000000D+00  6 2 1 25 2 1 21 2 0.18933043D+00 0.10535329D+00 0.22627886D+06 0.22627886D+06 0.22627886D+06 0.10937313D+01  1  2  4  3  6  4        2 -.151020618450D-01 0.100000000000D+01
-.909359182181D-02 0.000000000000D+00 0.000000000000D+00 0.140760835543D-04 0.000000000000D+00  6 2 1 25 2 1 21 2 0.18933043D+00 0.10535329D+00 0.22627886D+06 0.22627886D+06 0.22627886D+06 0.10937313D+01  1  2  5  3  6  4        2 -.823390418772D-01 0.100000000000D+01
0.104146604312D-01 0.000000000000D+00 -.000000000000D+00 0.140760835543D-04 0.000000000000D+00  6 2 1 25 2 1 21 2 0.18933043D+00 0.10535329D+00 0.22627886D+06 0.22627886D+06 0.22627886D+06 0.10937313D+01  1  2  6  3  6  4        2 0.943008195423D-01 0.100000000000D+01
  </mgrwgt>
  </event>
  <event>
  5     66 0.18337608E-05 0.25696803E+02 0.75467711E-02 0.91802867E-01
        2 -1    0    0  501    0 0.00000000E+00 0.00000000E+00 0.10441753E+04 0.10441753E+04 0.32000000E+00 0.0000E+00 0.9000E+01
        1 -1    0    0  502    0 0.00000000E+00 0.00000000E+00 -.27755102E+04 0.27755102E+04 0.32000000E+00 0.0000E+00 0.9000E+01
       25  1    1    2    0    0 0.57596753E+03 0.34686844E+02 -.15822611E+04 0.16888212E+04 0.12500000E+03 0.0000E+00 0.9000E+01
        2  1    1    2  501    0 -.55033739E+03 -.32817166E+02 0.91404270E+03 0.10674373E+04 0.32000000E+00 0.0000E+00 0.9000E+01
        1  1    1    2  502    0 -.25630139E+02 -.18696785E+01 -.10631165E+04 0.10634271E+04 0.32000000E+00 0.0000E+00 0.9000E+01
#aMCatNLO 1  0  0  1  4 0.11936993D+03 0.00000000D+00  -5  6  0 0.00000000D+00 0.00000000D+00 0.00000000D+00 0.00000000D+00 0.00000000D+00
  <mgrwgt>
 0.9411395348D-03    7    2    0
 0.170238635077487D+04 0.000000000000000D+00 0.000000000000000D+00 0.170238635077487D+04
 0.170238635077487D+04 0.000000000000000D+00 0.000000000000000D+00 -.170238635077487D+04
 0.109008562029217D+04 0.575967552190653D+03 0.346868245946724D+02 -.916362298761149D+03
 0.166231469018526D+04 -.550338849951463D+03 -.328172525398448D+02 0.156822839770729D+04
 0.652372391072298D+03 -.256287022391897D+02 -.186957205482763D+01 -.651866098946136D+03
 0.000000000000000D+00 0.000000000000000D+00 0.000000000000000D+00 0.000000000000000D+00
 0.193352702544671D+04 0.000000000000000D+00 0.000000000000000D+00 0.193352702544671D+04
 0.171307625923264D+04 0.000000000000000D+00 0.000000000000000D+00 -.171307625923264D+04
 0.107872001303279D+04 0.555103958971882D+03 0.123125407770538D+02 -.916362298761149D+03
 0.167424403575762D+04 -.582436057252557D+03 -.672385537211539D+02 0.156822839770729D+04
 0.653163816707913D+03 -.381877697521897D+02 -.153380162520469D+02 -.651866098946136D+03
 0.240475419181026D+03 0.655198680328652D+02 0.702640291961470D+02 0.220450766214067D+03
0.245854636048D-02 0.000000000000D+00 0.000000000000D+00 0.166801936842D-03 0.000000000000D+00  6 2 1 25 2 1 21 0 0.16064236D+00 0.42700157D+00 0.34071077D+06 0.34071077D+06 0.34071077D+06 0.10804867D+01  1  2  2  1  6  1        2 0.761638189937D-03 0.100000000000D+01
0.128279360516D-02 0.000000000000D+00 -.944146537436D-05 0.166801936842D-03 0.000000000000D+00  6 2 1 25 2 1 21 2 0.16064236D+00 0.42700157D+00 0.34071077D+06 0.34071077D+06 0.34071077D+06 0.10804867D+01  1  2  3  1  6  1        2 0.463944390407D-03 0.100000000000D+01
-.169080311094D-02 0.000000000000D+00 0.000000000000D+00 0.166801936842D-03 0.000000000000D+00  6 2 1 25 2 1 21 2 0.16064236D+00 0.42700157D+00 0.34071077D+06 0.34071077D+06 0.34071077D+06 0.10804867D+01  1  2 15  1  6  1        2 -.611508051993D-03 0.100000000000D+01
-.806521785010D-02 0.000000000000D+00 0.000000000000D+00 0.166801936842D-03 0.000000000000D+00  6 2 1 25 2 1 21 2 0.16064236D+00 0.42700157D+00 0.34071077D+06 0.34071077D+06 0.34071077D+06 0.10804867D+01  1  2  4  1  6  1        2 -.291692487700D-02 0.100000000000D+01
-.512624824699D-01 0.000000000000D+00 -.429519147138D-02 0.166801936842D-03 0.000000000000D+00  6 2 1 25 2 1 21 2 0.18292799D+00 0.42700157D+00 0.34071077D+06 0.34071077D+06 0.34071077D+06 0.10804867D+01  1  2  5  1  6  1        2 -.151963210001D-01 0.100000000000D+01
0.514219334983D-01 0.000000000000D+00 0.425919934156D-02 0.166801936842D-03 0.000000000000D+00  6 2 1 25 2 1 21 2 0.16064236D+00 0.42700157D+00 0.34071077D+06 0.34071077D+06 0.34071077D+06 0.10804867D+01  1  2  6  1  6  1        2 0.185976274705D-01 0.100000000000D+01
-.101634551296D-02 0.000000000000D+00 -.870828651886D-04 0.166801936842D-03 0.000000000000D+00  6 21 1 25 2 1 -2 2 0.18292799D+00 0.42700157D+00 0.34071077D+06 0.34071077D+06 0.34071077D+06 0.10804867D+01  1  2  5  5  6  1        2 -.157316586987D-03 0.100000000000D+01
  </mgrwgt>
  </event>
  <event>
  5     66 0.18337608E-05 0.15833586E+02 0.75467711E-02 0.90575472E-01
        2 -1    0    0  501    0 0.00000000E+00 0.00000000E+00 0.26595789E+04 0.26595789E+04 0.32000000E+00 0.0000E+00 0.9000E+01
        1 -1    0    0  502    0 0.00000000E+00 0.00000000E+00 -.98576685E+03 0.98576691E+03 0.32000000E+00 0.0000E+00 0.9000E+01
       25  1    1    2    0    0 -.58408016E+03 0.25779723E+03 0.13268077E+04 0.14777187E+04 0.12500000E+03 0.0000E+00 0.9000E+01
        2  1    1    2  501    0 0.15203834E+02 0.44353168E+01 0.11494932E+04 0.11496023E+04 0.32000000E+00 0.0000E+00 0.9000E+01
        1  1    1    2  502    0 0.56887632E+03 -.26223254E+03 -.80248877E+03 0.10180248E+04 0.32000000E+00 0.0000E+00 0.9000E+01
#aMCatNLO 1  0  0  1  4 0.39088319D+02 0.00000000D+00  -5  6  0 0.00000000D+00 0.00000000D+00 0.00000000D+00 0.00000000D+00 0.00000000D+00
  <mgrwgt>
 0.1895972375D-01    7    2    0
 0.161917412971720D+04 0.000000000000000D+00 0.000000000000000D+00 0.161917412971720D+04
 0.161917412971720D+04 0.000000000000000D+00 0.000000000000000D+00 -.161917412971720D+04
 0.977810659981297D+03 -.584131503947795D+03 0.257823491859150D+03 0.729935695739220D+03
 0.699767864348304D+03 0.152000096346971D+02 0.443420106437349D+01 0.699588708844427D+03
 0.156076973510481D+04 0.568931494313098D+03 -.262257692923524D+03 -.142952440458365D+04
 0.000000000000000D+00 -.000000000000000D+00 -.000000000000000D+00 0.000000000000000D+00
 0.243533795221746D+04 0.000000000000000D+00 0.000000000000000D+00 0.243533795221746D+04
 0.162509780385932D+04 0.000000000000000D+00 0.000000000000000D+00 -.162509780385932D+04
 0.970594804351643D+03 -.558789938443662D+03 0.285266470189244D+03 0.729935695739220D+03
 0.700802941769567D+03 0.334162677370956D+02 0.241610161373404D+02 0.699588708844427D+03
 0.156933187768959D+04 0.609642566267712D+03 -.218170713953612D+03 -.142952440458365D+04
 0.819706132265982D+03 -.842688955611457D+02 -.912567723729718D+02 0.810240148358145D+03
0.110581065764D-02 0.000000000000D+00 0.000000000000D+00 0.110064142537D-03 0.000000000000D+00  6 2 1 25 2 1 21 0 0.40916599D+00 0.15165644D+00 0.41791214D+06 0.41791214D+06 0.41791214D+06 0.10740588D+01  1  2  2  1  6  1        2 0.706757778402D-03 0.100000000000D+01
0.918042902447D-03 0.000000000000D+00 -.424660409198D-05 0.110064142537D-03 0.000000000000D+00  6 2 1 25 2 1 21 2 0.40916599D+00 0.15165644D+00 0.41791214D+06 0.41791214D+06 0.41791214D+06 0.10740588D+01  1  2  3  1  6  1        2 0.676875705417D-03 0.100000000000D+01
-.707538305329D-03 0.000000000000D+00 0.000000000000D+00 0.110064142537D-03 0.000000000000D+00  6 2 1 25 2 1 21 2 0.40916599D+00 0.15165644D+00 0.41791214D+06 0.41791214D+06 0.41791214D+06 0.10740588D+01  1  2 15  1  6  1        2 -.521670052949D-03 0.100000000000D+01
-.985049998066D-04 0.000000000000D+00 0.000000000000D+00 0.110064142537D-03 0.000000000000D+00  6 2 1 25 2 1 21 2 0.40916599D+00 0.15165644D+00 0.41791214D+06 0.41791214D+06 0.41791214D+06 0.10740588D+01  1  2  4  1  6  1        2 -.726280232149D-04 0.100000000000D+01
-.303374956228D-01 0.000000000000D+00 -.531128328626D-03 0.110064142537D-03 0.000000000000D+00  6 2 1 25 2 1 21 2 0.61575849D+00 0.15165644D+00 0.41791214D+06 0.41791214D+06 0.41791214D+06 0.10740588D+01  1  2  5  1  6  1        2 -.262428592788D-02 0.100000000000D+01
0.282069036150D-01 0.000000000000D+00 0.489654078271D-03 0.110064142537D-03 0.000000000000D+00  6 2 1 25 2 1 21 2 0.40916599D+00 0.15165644D+00 0.41791214D+06 0.41791214D+06 0.41791214D+06 0.10740588D+01  1  2  6  1  6  1        2 0.207970321769D-01 0.100000000000D+01
-.144852350411D-02 0.000000000000D+00 -.256865193781D-04 0.110064142537D-03 0.000000000000D+00  6 21 1 25 2 1 -2 2 0.61575849D+00 0.15165644D+00 0.41791214D+06 0.41791214D+06 0.41791214D+06 0.10740588D+01  1  2  5  5  6  1        2 -.235790385607D-05 0.100000000000D+01
  </mgrwgt>
  </event>
  <event>
  5     66 -.18337608E-05 0.90528255E+02 0.75467711E-02 0.92820459E-01
        2 -1    0    0  501    0 0.00000000E+00 0.00000000E+00 0.39043794E+04 0.39043795E+04 0.32000000E+00 0.0000E+00 0.9000E+01
        1 -1    0    0  502    0 0.00000000E+00 0.00000000E+00 -.14228773E+04 0.14228773E+04 0.32000000E+00 0.0000E+00 0.9000E+01
       25  1    1    2    0    0 0.42318863E+03 0.38117126E+03 0.14707164E+04 0.15820910E+04 0.12500000E+03 0.0000E+00 0.9000E+01
        2  1    1    2  501    0 -.90354273E+02 -.57364004E+01 0.23310368E+04 0.23327944E+04 0.32000000E+00 0.0000E+00 0.9000E+01
        1  1    1    2  502    0 -.33283435E+03 -.37543485E+03 -.13202511E+04 0.14123714E+04 0.32000000E+00 0.0000E+00 0.9000E+01
#aMCatNLO 1  0  0  5  2 0.88172444D+01 0.00000000D+00  -5  6  0 0.00000000D+00 0.00000000D+00 0.00000000D+00 0.00000000D+00 0.00000000D+00
  <mgrwgt>
 -.1273205478D-01    9    2    0
 0.235700082874233D+04 0.000000000000000D+00 0.000000000000000D+00 0.235700082874233D+04
 0.235700082874233D+04 -.000000000000000D+00 -.000000000000000D+00 -.235700082874233D+04
 0.101382350920574D+04 0.423202875158088D+03 0.381195322526201D+03 0.829338628281781D+03
 0.140906603103132D+04 -.903463579343294D+02 -.573589789813045D+01 0.140615493985892D+04
 0.229111211724761D+04 -.332856517223757D+03 -.375459424628070D+03 -.223549356814070D+04
 0.000000000000000D+00 0.000000000000000D+00 0.000000000000000D+00 -.000000000000000D+00
 0.235700082874233D+04 0.000000000000000D+00 0.000000000000000D+00 0.235700082874233D+04
 0.235700082874233D+04 -.000000000000000D+00 -.000000000000000D+00 -.235700082874233D+04
 0.101377419227355D+04 0.423195090927427D+03 0.381186541977785D+03 0.829286348705825D+03
 0.140899426378904D+04 -.903571768612470D+02 -.574810155906355D+01 0.140608227899670D+04
 0.212271040581812D+04 -.306218719915578D+03 -.356334385840424D+03 -.207006168217508D+04
 0.168522795603948D+03 -.266191941506011D+02 -.191040545782974D+02 -.165306945527441D+03
0.398105872861D-03 0.000000000000D+00 0.000000000000D+00 0.296781773381D-03 0.000000000000D+00  6 2 1 25 2 1 21 0 0.60067376D+00 0.21890420D+00 0.34539956D+06 0.34539956D+06 0.34539956D+06 0.10800528D+01  1  2  2  4  6  5        1 0.178141552902D-04 0.100000000000D+01
0.996989053629D-04 0.000000000000D+00 -.152883137547D-05 0.296781773381D-03 0.000000000000D+00  6 2 1 25 2 1 21 2 0.60067376D+00 0.21890420D+00 0.34539956D+06 0.34539956D+06 0.34539956D+06 0.10800528D+01  1  2  3  4  6  5        1 0.520411670422D-05 0.100000000000D+01
-.280567938729D-03 0.000000000000D+00 0.000000000000D+00 0.296781773381D-03 0.000000000000D+00  6 2 1 25 2 1 21 2 0.60067376D+00 0.21890420D+00 0.34539956D+06 0.34539956D+06 0.34539956D+06 0.10800528D+01  1  2 15  4  6  5        1 -.146451788140D-04 0.100000000000D+01
0.757845005310D+00 0.000000000000D+00 0.000000000000D+00 0.296781773381D-03 0.000000000000D+00  6 2 1 25 2 1 21 2 0.60067376D+00 0.21890420D+00 0.34589292D+06 0.34589292D+06 0.34589292D+06 0.10800075D+01  1  2 12  4  6  5        1 0.395479996801D-01 0.100000000000D+01
0.116050606983D-08 0.000000000000D+00 0.000000000000D+00 0.296781773381D-03 0.000000000000D+00  6 2 1 25 2 1 21 2 0.60067376D+00 0.21890420D+00 0.34589292D+06 0.34589292D+06 0.34589292D+06 0.10800075D+01  1  2 12  4  6  5        1 0.605607919254D-10 0.100000000000D+01
-.106178565716D+01 0.000000000000D+00 0.000000000000D+00 0.296781773381D-03 0.000000000000D+00  6 2 1 25 2 1 21 2 0.60067376D+00 0.21890420D+00 0.34539956D+06 0.34539956D+06 0.34539956D+06 0.10800528D+01  1  2  4  4  6  5        1 -.554234417581D-01 0.100000000000D+01
-.781596378087D+00 0.000000000000D+00 0.000000000000D+00 0.296781773381D-03 0.000000000000D+00  6 2 1 25 2 1 21 2 0.60067376D+00 0.21890420D+00 0.34539956D+06 0.34539956D+06 0.34539956D+06 0.10800528D+01  1  2  5  4  6  5        1 -.407980283469D-01 0.100000000000D+01
0.841194910208D+00 0.000000000000D+00 -.000000000000D+00 0.296781773381D-03 0.000000000000D+00  6 2 1 25 2 1 21 2 0.60067376D+00 0.21890420D+00 0.34539956D+06 0.34539956D+06 0.34539956D+06 0.10800528D+01  1  2  6  4  6  5        1 0.439089723982D-01 0.100000000000D+01
0.461247050287D-03 0.000000000000D+00 0.000000000000D+00 0.296781773381D-03 0.259770004035D-04  6 2 1 25 2 1 21 2 0.60067376D+00 0.21890420D+00 0.34589292D+06 0.34589292D+06 0.34589292D+06 0.10800075D+01  1  2 11  4  6  5        1 0.240700909413D-04 0.100000000000D+01
  </mgrwgt>
  </event>
  <event>
  5     66 -.18337608E-05 0.32400907E+02 0.75467711E-02 0.89495927E-01
        2 -1    0    0  501    0 0.00000000E+00 0.00000000E+00 0.25347324E+04 0.25347324E+04 0.32000000E+00 0.0000E+00 0.9000E+01
        1 -1    0    0  502    0 0.00000000E+00 0.00000000E+00 -.45116589E+03 0.45116600E+03 0.32000000E+00 0.0000E+00 0.9000E+01
       25  1    1    2    0    0 -.65571967E+03 -.41649826E+03 0.47011587E+03 0.91655497E+03 0.12500000E+03 0.0000E+00 0.9000E+01
        2  1    1    2  501    0 0.65596689E+03 0.44889672E+03 0.17536863E+04 0.19254133E+04 0.32000000E+00 0.0000E+00 0.9000E+01
        1  1    1    2  502    0 -.24722325E+00 -.32398456E+02 -.14023568E+03 0.14393008E+03 0.32000000E+00 0.0000E+00 0.9000E+01
#aMCatNLO 1  0  0  5  2 0.88172444D+01 0.00000000D+00  -5  6  0 0.00000000D+00 0.00000000D+00 0.00000000D+00 0.00000000D+00 0.00000000D+00
  <mgrwgt>
 -.6906618923D-03    1    2    0
 0.106938532963233D+04 0.000000000000000D+00 0.000000000000000D+00 0.106938532963233D+04
 0.106938532963233D+04 -.000000000000000D+00 -.000000000000000D+00 -.106938532963233D+04
 0.821588272345834D+03 -.655714164056872D+03 -.416492805083339D+03 -.236548023930072D+03
 0.979603902790500D+03 0.655961118690282D+03 0.448892770928383D+03 0.572567984904160D+03
 0.337578484128326D+03 -.246954633410157D+00 -.323999658450442D+02 -.336019960974088D+03
 0.000000000000000D+00 -.000000000000000D+00 0.000000000000000D+00 0.000000000000000D+00
 0.106938532963233D+04 0.000000000000000D+00 0.000000000000000D+00 0.106938532963233D+04
 0.106938532963233D+04 -.000000000000000D+00 -.000000000000000D+00 -.106938532963233D+04
 0.823636518553558D+03 -.655718583064434D+03 -.417072570249619D+03 -.242560766952061D+03
 0.975125270540617D+03 0.655955868366406D+03 0.448203938684621D+03 0.565424107507079D+03
 0.112673993227080D+03 0.442494922254657D+02 0.771361338846052D+01 -.103333979677635D+03
 0.227334876943405D+03 -.444867775274377D+02 -.388449818234630D+02 -.219529360877383D+03
-.252780373139D-03 0.000000000000D+00 0.000000000000D+00 0.174280473821D-05 0.000000000000D+00  6 2 1 25 2 1 21 2 0.38995884D+00 0.69410147D-01 0.65129072D+06 0.65129072D+06 0.65129072D+06 0.10604900D+01  1  2 14  4  6  5        1 -.690661892262D-03 0.100000000000D+01
  </mgrwgt>
  </event>
  <event>
  5     66 -.18337608E-05 0.37802613E+02 0.75467711E-02 0.94510153E-01
        2 -1    0    0  501    0 0.00000000E+00 0.00000000E+00 0.25147124E+04 0.25147124E+04 0.32000000E+00 0.0000E+00 0.9000E+01
        1 -1    0    0  502    0 0.00000000E+00 0.00000000E+00 -.12874738E+04 0.12874739E+04 0.32000000E+00 0.0000E+00 0.9000E+01
       25  1    1    2    0    0 0.48763645E+03 0.82889482E+02 0.43348149E+02 0.51201957E+03 0.12500000E+03 0.0000E+00 0.9000E+01
        2  1    1    2  501    0 -.45077642E+03 -.91268118E+02 0.22130383E+04 0.22603248E+04 0.32000000E+00 0.0000E+00 0.9000E+01
        1  1    1    2  502    0 -.36860032E+02 0.83786354E+01 -.10291479E+04 0.10298420E+04 0.32000000E+00 0.0000E+00 0.9000E+01
#aMCatNLO 1  0  0  4  2 0.34617668D+02 0.00000000D+00  -5  6  0 0.00000000D+00 0.00000000D+00 0.00000000D+00 0.00000000D+00 0.00000000D+00
  <mgrwgt>
 -.5996466890D-01    6    2    0
 0.179934058367422D+04 0.000000000000000D+00 0.000000000000000D+00 0.179934058367422D+04
 0.179934058367422D+04 -.000000000000000D+00 -.000000000000000D+00 -.179934058367422D+04
 0.526175368042074D+03 0.487633457144992D+03 0.828879407966097D+02 -.128758373232706D+03
 0.163342653791623D+04 -.450771173075583D+03 -.912670546608924D+02 0.156734103788122D+04
 0.143907926139014D+04 -.368622840694078D+02 0.837911386428288D+01 -.143858266464851D+04
 0.000000000000000D+00 0.000000000000000D+00 0.000000000000000D+00 0.000000000000000D+00
 0.179934058367422D+04 0.000000000000000D+00 0.000000000000000D+00 0.179934058367422D+04
 0.179934058367422D+04 -.000000000000000D+00 -.000000000000000D+00 -.179934058367422D+04
 0.526065600761276D+03 0.487572776224746D+03 0.828756548094044D+02 -.128547384371399D+03
 0.776926026155452D+03 -.242974355179650D+03 -.248027424033664D+02 0.737538023977075D+03
 0.143850653152214D+04 -.370282294746678D+02 0.834551511334845D+01 -.143800566891488D+04
 0.857183008909571D+03 -.207570191570428D+03 -.664184275193863D+02 0.829015029309199D+03
0.598344148108D-03 0.000000000000D+00 0.000000000000D+00 0.719218805601D-03 0.000000000000D+00  6 2 1 25 2 1 21 0 0.38687883D+00 0.19807290D+00 0.25396487D+06 0.25396487D+06 0.25396487D+06 0.10899454D+01  1  2  2  3  6  4        2 0.293178375155D-03 0.100000000000D+01
0.356362114925D-03 0.000000000000D+00 -.229779907637D-05 0.719218805601D-03 0.000000000000D+00  6 2 1 25 2 1 21 2 0.38687883D+00 0.19807290D+00 0.25396487D+06 0.25396487D+06 0.25396487D+06 0.10899454D+01  1  2  3  3  6  4        2 0.207434929875D-03 0.100000000000D+01
-.380440982790D-03 0.000000000000D+00 0.000000000000D+00 0.719218805601D-03 0.000000000000D+00  6 2 1 25 2 1 21 2 0.38687883D+00 0.19807290D+00 0.25396487D+06 0.25396487D+06 0.25396487D+06 0.10899454D+01  1  2 15  3  6  4        2 -.221451005259D-03 0.100000000000D+01
-.140537337799D+00 0.000000000000D+00 0.000000000000D+00 0.719218805601D-03 0.000000000000D+00  6 2 1 25 2 1 21 2 0.38687883D+00 0.19807290D+00 0.25396487D+06 0.25396487D+06 0.25396487D+06 0.10899454D+01  1  2  4  3  6  4        2 -.818054209190D-01 0.100000000000D+01
-.586531753536D-01 0.000000000000D+00 0.000000000000D+00 0.719218805601D-03 0.000000000000D+00  6 2 1 25 2 1 21 2 0.38687883D+00 0.19807290D+00 0.25396487D+06 0.25396487D+06 0.25396487D+06 0.10899454D+01  1  2  5  3  6  4        2 -.341414443534D-01 0.100000000000D+01
0.956948332836D-01 0.000000000000D+00 -.000000000000D+00 0.719218805601D-03 0.000000000000D+00  6 2 1 25 2 1 21 2 0.38687883D+00 0.19807290D+00 0.25396487D+06 0.25396487D+06 0.25396487D+06 0.10899454D+01  1  2  6  3  6  4        2 0.557030340773D-01 0.100000000000D+01
  </mgrwgt>
  </event>
  <event>
  5     66 0.18337608E-05 0.19865571E+02 0.75467711E-02 0.88063449E-01
        2 -1    0    0  501    0 0.00000000E+00 0.00000000E+00 0.13584975E+04 0.13584975E+04 0.32000000E+00 0.0000E+00 0.9000E+01
        1 -1    0    0  502    0 0.00000000E+00 0.00000000E+00 -.67305426E+03 0.67305433E+03 0.32000000E+00 0.0000E+00 0.9000E+01
       25  1    1    2    0    0 0.77229259E+03 0.43751153E+03 0.13486642E+03 0.90645801E+03 0.12500000E+03 0.0000E+00 0.9000E+01
        2  1    1    2  501    0 -.19894552E+02 0.76597797E+00 0.17613327E+03 0.17725522E+03 0.32000000E+00 0.0000E+00 0.9000E+01
        1  1    1    2  502    0 -.75239804E+03 -.43827750E+03 0.37444352E+03 0.94783861E+03 0.32000000E+00 0.0000E+00 0.9000E+01
#aMCatNLO 1  0  0  2  4 0.10107103D+03 0.00000000D+00  -5  6  0 0.00000000D+00 0.00000000D+00 0.00000000D+00 0.00000000D+00 0.00000000D+00
  <mgrwgt>
 0.6682865063D-03    4    2    0
 0.956212642775473D+03 0.000000000000000D+00 0.000000000000000D+00 0.956212642775473D+03
 0.956212642775473D+03 0.000000000000000D+00 0.000000000000000D+00 -.956212642775473D+03
 0.914682924536500D+03 0.772401030664922D+03 0.437585504449496D+03 -.181481201676897D+03
 0.124892383626144D+03 -.198508626106075D+02 0.764295854912025D+00 0.123302338150097D+03
 0.872849977388303D+03 -.752550168054314D+03 -.438349800304408D+03 0.581788635267999D+02
 0.000000000000000D+00 0.000000000000000D+00 0.000000000000000D+00 0.000000000000000D+00
 0.128731692660515D+04 0.000000000000000D+00 0.000000000000000D+00 0.128731692660515D+04
 0.961106597335306D+03 0.000000000000000D+00 0.000000000000000D+00 -.961106597335306D+03
 0.892373652481009D+03 0.764920623171402D+03 0.403319661468765D+03 -.181481201676897D+03
 0.125121926535354D+03 -.208858102392566D+02 -.397653584005845D+01 0.123302338150097D+03
 0.896371080281456D+03 -.759873953388877D+03 -.471898197034947D+03 0.581788635267999D+02
 0.334556864642636D+03 0.158391404567310D+02 0.725550714062397D+02 0.326210329269842D+03
0.114509334961D-03 0.000000000000D+00 0.000000000000D+00 0.578003978070D-07 0.000000000000D+00  6 2 1 25 2 1 21 0 0.20899962D+00 0.10354682D+00 0.79858610D+06 0.79858610D+06 0.79858610D+06 0.10544286D+01  1  2  2  2  6  2        1 0.707097069550D-03 0.100000000000D+01
0.599565272052D-04 0.000000000000D+00 -.439745997250D-06 0.578003978070D-07 0.000000000000D+00  6 2 1 25 2 1 21 2 0.20899962D+00 0.10354682D+00 0.79858610D+06 0.79858610D+06 0.79858610D+06 0.10544286D+01  1  2  3  2  6  2        1 0.411631867598D-03 0.100000000000D+01
-.654833575491D-04 0.000000000000D+00 0.000000000000D+00 0.578003978070D-07 0.000000000000D+00  6 2 1 25 2 1 21 2 0.20899962D+00 0.10354682D+00 0.79858610D+06 0.79858610D+06 0.79858610D+06 0.10544286D+01  1  2 15  2  6  2        1 -.449576351751D-03 0.100000000000D+01
-.126149358772D-06 0.000000000000D+00 0.000000000000D+00 0.578003978070D-07 0.000000000000D+00  6 2 1 25 2 1 21 2 0.20899962D+00 0.10354682D+00 0.79858610D+06 0.79858610D+06 0.79858610D+06 0.10544286D+01  1  2  4  2  6  2        1 -.866079117119D-06 0.100000000000D+01
  </mgrwgt>
  </event>
  <event>
  5     66 0.18337608E-05 0.13167724E+03 0.75467711E-02 0.94461947E-01
        2 -1    0    0  501    0 0.00000000E+00 0.00000000E+00 0.29199456E+04 0.29199456E+04 0.32000000E+00 0.0000E+00 0.9000E+01
        1 -1    0    0  502    0 0.00000000E+00 0.00000000E+00 -.36747945E+03 0.36747959E+03 0.32000000E+00 0.0000E+00 0.9000E+01
       25  1    1    2    0    0 -.48591449E+03 0.10364950E+03 0.48918071E+03 0.70836352E+03 0.12500000E+03 0.0000E+00 0.9000E+01
        2  1    1    2  501    0 0.36776650E+03 -.45548835E+02 0.22884330E+04 0.23182434E+04 0.32000000E+00 0.0000E+00 0.9000E+01
        1  1    1    2  502    0 0.11814799E+03 -.58100667E+02 -.22514756E+03 0.26081825E+03 0.32000000E+00 0.0000E+00 0.9000E+01
#aMCatNLO 1  0  0  1  4 0.13579528D+03 0.00000000D+00  -5  6  0 0.00000000D+00 0.00000000D+00 0.00000000D+00 0.00000000D+00 0.00000000D+00
  <mgrwgt>
 0.1113003593D-02    1    2    0
 0.103586690039227D+04 0.000000000000000D+00 0.000000000000000D+00 0.103586690039227D+04
 0.103586690039227D+04 0.000000000000000D+00 0.000000000000000D+00 -.103586690039227D+04
 0.521322548248516D+03 -.485913192084732D+03 0.103654166182456D+03 -.964177520136865D+02
 0.859099870197273D+03 0.367750444056944D+03 -.455468465284646D+02 0.775072695068149D+03
 0.691311382338745D+03 0.118162748027788D+03 -.581073196539915D+02 -.678654943054463D+03
 0.000000000000000D+00 -.000000000000000D+00 -.000000000000000D+00 -.000000000000000D+00
 0.123338047439173D+04 0.000000000000000D+00 0.000000000000000D+00 0.123338047439173D+04
 0.166438455857772D+04 0.000000000000000D+00 0.000000000000000D+00 -.166438455857772D+04
 0.549778447752596D+03 -.461265449679947D+03 0.254104591933002D+03 -.964177520136865D+02
 0.898844642994250D+03 0.408203551359445D+03 0.201379915226900D+03 0.775072695068149D+03
 0.708791065468555D+03 0.150381338620740D+03 0.138555749611580D+03 -.678654943054463D+03
 0.740350876754045D+03 -.973194403002384D+02 -.594040256771482D+03 -.431004084185989D+03
0.466801378887D-03 0.000000000000D+00 0.000000000000D+00 0.874566347151D-05 0.000000000000D+00  6 2 1 25 2 1 21 2 0.44922240D+00 0.56535312D-01 0.25733620D+06 0.25733620D+06 0.25733620D+06 0.10895154D+01  1  2 14  1  6  1        2 0.111300359265D-02 0.100000000000D+01
  </mgrwgt>
  </event>
  <event>
  6     66 0.18337608E-05 0.74507370E+02 0.75467711E-02 0.91553554E-01
       21 -1    0    0  501  503 0.00000000E+00 0.00000000E+00 0.44168189E+03 0.44168252E+03 0.75000000E+00 0.0000E+00 0.9000E+01
        1 -1    0    0  502    0 0.00000000E+00 0.00000000E+00 -.11077935E+04 0.11077936E+04 0.32000000E+00 0.0000E+00 0.9000E+01
       25  1    1    2    0    0 -.54234863E+03 0.23158895E+03 -.55634599E+03 0.82031783E+03 0.12500000E+03 0.0000E+00 0.9000E+01
        2  1    1    2  501    0 0.54962090E+03 -.29433880E+03 -.90513354E+02 0.63000891E+03 0.32000000E+00 0.0000E+00 0.9000E+01
        1  1    1    2  502    0 0.18518819E+02 -.91511163E+01 -.68288162E+01 0.21758326E+02 0.32000000E+00 0.0000E+00 0.9000E+01
       -2  1    1    2    0  503 -.25791088E+02 0.71900965E+02 -.12423495E+02 0.77391050E+02 0.32000000E+00 0.0000E+00 0.9000E+01
#aMCatNLO 2  0  0  1  4 0.13579528D+03 0.00000000D+00  -5  6  0 0.00000000D+00 0.00000000D+00 0.00000000D+00 0.00000000D+00 0.00000000D+00
  <mgrwgt>
 0.9173654458D-03    1    2    0
 0.658386530877719D+03 0.000000000000000D+00 0.000000000000000D+00 0.658386530877719D+03
 0.658386530877719D+03 0.000000000000000D+00 0.000000000000000D+00 -.658386530877719D+03
 0.664157067122879D+03 -.555103956117853D+03 0.267158289621304D+03 -.214396026078357D+03
 0.632566535716698D+03 0.537006887448098D+03 -.259134468893671D+03 0.211218730166444D+03
 0.200494589158628D+02 0.180970686697556D+02 -.802382072763305D+01 0.317729591191267D+01
 0.000000000000000D+00 -.000000000000000D+00 0.000000000000000D+00 0.000000000000000D+00
 0.711846254884719D+03 0.000000000000000D+00 0.000000000000000D+00 0.711846254884719D+03
 0.687356884365156D+03 0.000000000000000D+00 0.000000000000000D+00 -.687356884365156D+03
 0.639813166771538D+03 -.542344519499571D+03 0.231587250393480D+03 -.214396026078357D+03
 0.658297893052129D+03 0.549638082879975D+03 -.294347994509515D+03 0.211218730166444D+03
 0.208757578309380D+02 0.184975246737325D+02 -.914022082057070D+01 0.317729591191267D+01
 0.802163215952690D+02 -.257910880541367D+02 0.719009649366053D+02 0.244893705195630D+02
0.298657960181D-04 0.000000000000D+00 0.000000000000D+00 0.424127682601D-09 0.456964819823D-10  6 21 1 25 2 1 -2 2 0.67951081D-01 0.17042975D+00 0.43780346D+06 0.43780346D+06 0.43780346D+06 0.10726117D+01  1  2  1  5  6  1        2 0.917365445755D-03 0.100000000000D+01
  </mgrwgt>
  </event>
  <event>
  5     66 0.18337608E-05 0.25188891E+03 0.75467711E-02 0.93398206E-01
        2 -1    0    0  501    0 0.00000000E+00 0.00000000E+00 0.22693146E+04 0.22693146E+04 0.32000000E+00 0.0000E+00 0.9000E+01
        1 -1    0    0  502    0 0.00000000E+00 0.00000000E+00 -.57097483E+03 0.57097492E+03 0.32000000E+00 0.0000E+00 0.9000E+01
       25  1    1    2    0    0 -.33861643E+03 -.42895408E+03 0.22394290E+03 0.60368710E+03 0.12500000E+03 0.0000E+00 0.9000E+01
        2  1    1    2  501    0 0.13631853E+03 0.21182949E+03 0.17875266E+04 0.18051886E+04 0.32000000E+00 0.0000E+00 0.9000E+01
        1  1    1    2  502    0 0.20229790E+03 0.21712459E+03 -.31312975E+03 0.43141381E+03 0.32000000E+00 0.0000E+00 0.9000E+01
#aMCatNLO 1  0  0  4  1 0.29635740D+02 0.00000000D+00  -5  6  0 0.00000000D+00 0.00000000D+00 0.00000000D+00 0.00000000D+00 0.00000000D+00
  <mgrwgt>
 0.1296306002D-02    8    2    0
 0.113829770485085D+04 0.000000000000000D+00 0.000000000000000D+00 0.113829770485085D+04
 0.113829770485085D+04 -.000000000000000D+00 -.000000000000000D+00 -.113829770485085D+04
 0.586100642641595D+03 -.338634419431219D+03 -.428971356075269D+03 -.170877935814770D+03
 0.918619257564839D+03 0.136311597385029D+03 0.211818726494152D+03 0.883410049690241D+03
 0.771875509495265D+03 0.202322822046190D+03 0.217152629581116D+03 -.712532113875471D+03
 0.000000000000000D+00 0.000000000000000D+00 0.000000000000000D+00 0.000000000000000D+00
 0.113829770485085D+04 0.000000000000000D+00 0.000000000000000D+00 0.113829770485085D+04
 0.113829770485085D+04 -.000000000000000D+00 -.000000000000000D+00 -.113829770485085D+04
 0.585837292583253D+03 -.338561318819098D+03 -.428857762816424D+03 -.170404184375973D+03
 0.467904952762489D+03 0.453597792887635D+02 0.125147150950183D+03 0.448570759024253D+03
 0.771367041735825D+03 0.202419083095307D+03 0.217302212545635D+03 -.711908263962362D+03
 0.451486122620132D+03 0.907824564350271D+02 0.864083993206061D+02 0.433741689314083D+03
0.353153783138D-04 0.000000000000D+00 0.000000000000D+00 0.307326063251D-05 0.000000000000D+00  6 2 1 25 2 1 21 0 0.34912533D+00 0.87842290D-01 0.30765099D+06 0.30765099D+06 0.30765099D+06 0.10837436D+01  1  2  2  3  6  4        2 0.918910869192D-04 0.100000000000D+01
0.369272286940D-05 0.000000000000D+00 -.135620351478D-06 0.307326063251D-05 0.000000000000D+00  6 2 1 25 2 1 21 2 0.34912533D+00 0.87842290D-01 0.30765099D+06 0.30765099D+06 0.30765099D+06 0.10837436D+01  1  2  3  3  6  4        2 0.112852023234D-04 0.100000000000D+01
-.207645972211D-04 0.000000000000D+00 0.000000000000D+00 0.307326063251D-05 0.000000000000D+00  6 2 1 25 2 1 21 2 0.34912533D+00 0.87842290D-01 0.30765099D+06 0.30765099D+06 0.30765099D+06 0.10837436D+01  1  2 15  3  6  4        2 -.634579655968D-04 0.100000000000D+01
0.161204859381D-02 0.000000000000D+00 0.000000000000D+00 0.307326063251D-05 0.000000000000D+00  6 2 1 25 2 1 21 2 0.34912533D+00 0.87842290D-01 0.31132268D+06 0.31132268D+06 0.31132268D+06 0.10833635D+01  1  2 12  3  6  4        2 0.491918836255D-02 0.100000000000D+01
0.467004895535D-08 0.000000000000D+00 0.000000000000D+00 0.307326063251D-05 0.000000000000D+00  6 2 1 25 2 1 21 2 0.34912533D+00 0.87842290D-01 0.31132268D+06 0.31132268D+06 0.31132268D+06 0.10833635D+01  1  2 12  3  6  4        2 0.142507183481D-07 0.100000000000D+01
-.218973436717D-02 0.000000000000D+00 0.000000000000D+00 0.307326063251D-05 0.000000000000D+00  6 2 1 25 2 1 21 2 0.34912533D+00 0.87842290D-01 0.30765099D+06 0.30765099D+06 0.30765099D+06 0.10837436D+01  1  2  4  3  6  4        2 -.669197127489D-02 0.100000000000D+01
-.168272346704D-02 0.000000000000D+00 0.000000000000D+00 0.307326063251D-05 0.000000000000D+00  6 2 1 25 2 1 21 2 0.34912533D+00 0.87842290D-01 0.30765099D+06 0.30765099D+06 0.30765099D+06 0.10837436D+01  1  2  5  3  6  4        2 -.514251284258D-02 0.100000000000D+01
0.267398380203D-02 0.000000000000D+00 -.000000000000D+00 0.307326063251D-05 0.000000000000D+00  6 2 1 25 2 1 21 2 0.34912533D+00 0.87842290D-01 0.30765099D+06 0.30765099D+06 0.30765099D+06 0.10837436D+01  1  2  6  3  6  4        2 0.817186918237D-02 0.100000000000D+01
  </mgrwgt>
  </event>
  <event>
  5     66 0.18337608E-05 0.10701603E+03 0.75467711E-02 0.93449198E-01
        2 -1    0    0  501    0 0.00000000E+00 0.00000000E+00 0.16565908E+04 0.16565908E+04 0.32000000E+00 0.0000E+00 0.9000E+01
        1 -1    0    0  502    0 0.00000000E+00 0.00000000E+00 -.86451761E+03 0.86451767E+03 0.32000000E+00 0.0000E+00 0.9000E+01
       25  1    1    2    0    0 -.42101484E+03 0.31093801E+03 -.81319020E+02 0.54421845E+03 0.12500000E+03 0.0000E+00 0.9000E+01
        2  1    1    2  501    0 0.31740570E+03 -.33769349E+03 0.13817454E+04 0.14573962E+04 0.32000000E+00 0.0000E+00 0.9000E+01
        1  1    1    2  502    0 0.10360914E+03 0.26755473E+02 -.50835322E+03 0.51949380E+03 0.32000000E+00 0.0000E+00 0.9000E+01
#aMCatNLO 1  0  0  4  1 0.15759138D+02 0.00000000D+00  -5  6  0 0.00000000D+00 0.00000000D+00 0.00000000D+00 0.00000000D+00 0.00000000D+00
  <mgrwgt>
 0.1113260011D-01    8    2    0
 0.119672554110652D+04 0.000000000000000D+00 0.000000000000000D+00 0.119672554110652D+04
 0.119672554110652D+04 -.000000000000000D+00 -.000000000000000D+00 -.119672554110652D+04
 0.600131141147610D+03 -.421018169162273D+03 0.310931860673291D+03 -.265701836329041D+03
 0.107784632494729D+04 0.317401031616258D+03 -.337688518338133D+03 0.973126790255984D+03
 0.715473616118135D+03 0.103617137546015D+03 0.267566576648419D+02 -.707424953926943D+03
 0.000000000000000D+00 0.000000000000000D+00 0.000000000000000D+00 0.000000000000000D+00
 0.119672554110652D+04 0.000000000000000D+00 0.000000000000000D+00 0.119672554110652D+04
 0.119672554110652D+04 -.000000000000000D+00 -.000000000000000D+00 -.119672554110652D+04
 0.599906417866778D+03 -.420932062769203D+03 0.310840250573138D+03 -.265437840848365D+03
 0.958048914585597D+03 0.269433354545764D+03 -.309469825187889D+03 0.865731954761423D+03
 0.715173233674076D+03 0.103719790866378D+03 0.266474429988429D+02 -.707110226858651D+03
 0.120322516086586D+03 0.477789173570618D+02 -.280178683840917D+02 0.106816112945592D+03
0.878182233388D-04 0.000000000000D+00 0.000000000000D+00 0.120905409278D-04 0.000000000000D+00  6 2 1 25 2 1 21 0 0.25486013D+00 0.13300272D+00 0.30722859D+06 0.30722859D+06 0.30722859D+06 0.10837877D+01  1  2  2  3  6  4        2 0.262777545716D-03 0.100000000000D+01
0.178706574089D-04 0.000000000000D+00 -.337245100690D-06 0.120905409278D-04 0.000000000000D+00  6 2 1 25 2 1 21 2 0.25486013D+00 0.13300272D+00 0.30722859D+06 0.30722859D+06 0.30722859D+06 0.10837877D+01  1  2  3  3  6  4        2 0.628105426328D-04 0.100000000000D+01
-.598528010416D-04 0.000000000000D+00 0.000000000000D+00 0.120905409278D-04 0.000000000000D+00  6 2 1 25 2 1 21 2 0.25486013D+00 0.13300272D+00 0.30722859D+06 0.30722859D+06 0.30722859D+06 0.10837877D+01  1  2 15  3  6  4        2 -.210366458575D-03 0.100000000000D+01
0.191426324772D-01 0.000000000000D+00 0.000000000000D+00 0.120905409278D-04 0.000000000000D+00  6 2 1 25 2 1 21 2 0.25486013D+00 0.13300272D+00 0.30846234D+06 0.30846234D+06 0.30846234D+06 0.10836592D+01  1  2 12  3  6  4        2 0.672484687093D-01 0.100000000000D+01
0.121749042492D-07 0.000000000000D+00 0.000000000000D+00 0.120905409278D-04 0.000000000000D+00  6 2 1 25 2 1 21 2 0.25486013D+00 0.13300272D+00 0.30846234D+06 0.30846234D+06 0.30846234D+06 0.10836592D+01  1  2 12  3  6  4        2 0.427706935510D-07 0.100000000000D+01
-.183527067157D-01 0.000000000000D+00 0.000000000000D+00 0.120905409278D-04 0.000000000000D+00  6 2 1 25 2 1 21 2 0.25486013D+00 0.13300272D+00 0.30722859D+06 0.30722859D+06 0.30722859D+06 0.10837877D+01  1  2  4  3  6  4        2 -.645048159796D-01 0.100000000000D+01
-.199796754829D-01 0.000000000000D+00 0.000000000000D+00 0.120905409278D-04 0.000000000000D+00  6 2 1 25 2 1 21 2 0.25486013D+00 0.13300272D+00 0.30722859D+06 0.30722859D+06 0.30722859D+06 0.10837877D+01  1  2  5  3  6  4        2 -.702231725446D-01 0.100000000000D+01
0.223336776591D-01 0.000000000000D+00 -.000000000000D+00 0.120905409278D-04 0.000000000000D+00  6 2 1 25 2 1 21 2 0.25486013D+00 0.13300272D+00 0.30722859D+06 0.30722859D+06 0.30722859D+06 0.10837877D+01  1  2  6  3  6  4        2 0.784968555246D-01 0.100000000000D+01
  </mgrwgt>
  </event>
  <event>
  6     66 -.18337608E-05 0.21740478E+03 0.75467711E-02 0.92065065E-01
        2 -1    0    0  503    0 0.00000000E+00 0.00000000E+00 0.33853110E+04 0.33853110E+04 0.32000000E+00 0.0000E+00 0.9000E+01
        1 -1    0    0  502    0 0.00000000E+00 0.00000000E+00 -.82212301E+03 0.82212307E+03 0.32000000E+00 0.0000E+00 0.9000E+01
       25  1    1    2    0    0 -.27784835E+03 -.46187160E+03 0.53884702E+03 0.77233814E+03 0.12500000E+03 0.0000E+00 0.9000E+01
        2  1    1    2  501    0 0.22063020E+03 -.18099578E+02 0.15164815E+04 0.15325540E+04 0.32000000E+00 0.0000E+00 0.9000E+01
        1  1    1    2  502    0 0.62960048E+02 0.47455981E+03 -.61516678E+03 0.77948781E+03 0.32000000E+00 0.0000E+00 0.9000E+01
       21  1    1    2  503  501 -.57418935E+01 0.54113684E+01 0.11230262E+04 0.11230542E+04 0.75000000E+00 0.0000E+00 0.9000E+01
#aMCatNLO 2  0  0  1  4 0.78900094D+01 0.00000000D+00  -5  6  0 0.00000000D+00 0.00000000D+00 0.00000000D+00 0.00000000D+00 0.00000000D+00
  <mgrwgt>
 -.7310264009D-03    3    2    0
 0.136375136656024D+04 0.000000000000000D+00 0.000000000000000D+00 0.136375136656024D+04
 0.136375136656024D+04 0.000000000000000D+00 0.000000000000000D+00 -.136375136656024D+04
 0.588610669803622D+03 -.279077803790752D+03 -.460755669440297D+03 0.201636586751072D+03
 0.931763414370654D+03 0.218646648542498D+03 -.162487057671618D+02 0.905600730455583D+03
 0.120712864894620D+04 0.604311552482538D+02 0.477004375207458D+03 -.110723731720666D+04
 0.000000000000000D+00 -.000000000000000D+00 0.000000000000000D+00 0.000000000000000D+00
 0.204075526693793D+04 0.000000000000000D+00 0.000000000000000D+00 0.204075526693793D+04
 0.136378006085961D+04 0.000000000000000D+00 0.000000000000000D+00 -.136378006085961D+04
 0.588939762342484D+03 -.277838326561418D+03 -.461923797660338D+03 0.201636586751072D+03
 0.932259841636293D+03 0.220608699863356D+03 -.180978139740915D+02 0.905600730455583D+03
 0.120631454106769D+04 0.629715202268148D+02 0.474610243269870D+03 -.110723731720666D+04
 0.677021182751072D+03 -.574189352875311D+01 0.541136836455914D+01 0.676975206078323D+03
-.312088363321D-01 0.000000000000D+00 0.000000000000D+00 0.235892228829D-05 0.000000000000D+00  6 2 1 25 2 1 21 2 0.52127204D+00 0.12647779D+00 0.39775487D+06 0.39775487D+06 0.39775487D+06 0.10756039D+01  1  2 13  1  6  1        2 -.107470863011D-01 0.100000000000D+01
-.523167430464D-07 0.000000000000D+00 0.000000000000D+00 0.235892228829D-05 0.000000000000D+00  6 2 1 25 2 1 21 2 0.52081999D+00 0.12647779D+00 0.39775487D+06 0.39775487D+06 0.39775487D+06 0.10756039D+01  1  2 13  1  6  1        2 -.181004577516D-07 0.100000000000D+01
0.289501067733D-01 0.000000000000D+00 0.000000000000D+00 0.235892228829D-05 0.234078366074D-06  6 2 1 25 2 1 21 2 0.52081700D+00 0.12648045D+00 0.39775487D+06 0.39775487D+06 0.39775487D+06 0.10756039D+01  1  2  1  1  6  1        2 0.100160780006D-01 0.100000000000D+01
  </mgrwgt>
  </event>
  <event>
  6     66 -.18337608E-05 0.41757669E+02 0.75467711E-02 0.94046878E-01
        2 -1    0    0  501    0 0.00000000E+00 0.00000000E+00 0.17054632E+04 0.17054632E+04 0.32000000E+00 0.0000E+00 0.9000E+01
        1 -1    0    0  503    0 0.00000000E+00 0.00000000E+00 -.12829669E+04 0.12829670E+04 0.32000000E+00 0.0000E+00 0.9000E+01
       25  1    1    2    0    0 0.45657968E+03 0.53975528E+02 0.13143188E+04 0.13980119E+04 0.12500000E+03 0.0000E+00 0.9000E+01
        2  1    1    2  501    0 0.47845044E+02 -.92288885E+01 0.28996945E+03 0.29403521E+03 0.32000000E+00 0.0000E+00 0.9000E+01
        1  1    1    2  502    0 -.51038453E+03 -.57233065E+02 -.11072172E+04 0.12205319E+04 0.32000000E+00 0.0000E+00 0.9000E+01
       21  1    1    2  503  502 0.59597993E+01 0.12486425E+02 -.74574835E+02 0.75851160E+02 0.75000000E+00 0.0000E+00 0.9000E+01
#aMCatNLO 2  0  0  2  5 0.13835824D+02 0.00000000D+00  -5  6  0 0.00000000D+00 0.00000000D+00 0.00000000D+00 0.00000000D+00 0.00000000D+00
  <mgrwgt>
 -.2537889166D-01    6    2    0
 0.143490813901610D+04 0.000000000000000D+00 0.000000000000000D+00 0.143490813901610D+04
 0.143490813901610D+04 0.000000000000000D+00 0.000000000000000D+00 -.143490813901610D+04
 0.119263717856130D+04 0.459159774800360D+03 0.591583079472989D+02 0.109198490625684D+04
 0.247989000594992D+03 0.483094906135561D+02 -.814030230709201D+01 0.243101775006088D+03
 0.142919009887590D+04 -.507469265413916D+03 -.510180056402069D+02 -.133508668126293D+04
 0.000000000000000D+00 0.000000000000000D+00 0.000000000000000D+00 -.000000000000000D+00
 0.143546038298440D+04 0.000000000000000D+00 0.000000000000000D+00 0.143546038298440D+04
 0.152428323899761D+04 0.000000000000000D+00 0.000000000000000D+00 -.152428323899761D+04
 0.119144009882700D+04 0.456684261009308D+03 0.539718384576657D+02 0.109198490625684D+04
 0.247926975496927D+03 0.477945547724817D+02 -.921914866153571D+01 0.243101775006088D+03
 0.143048255582669D+04 -.510438615091358D+03 -.572391147941019D+02 -.133508668126293D+04
 0.898939918313937D+02 0.595979930956760D+01 0.124864249979719D+02 -.888228560132040D+02
-.528051335698D-01 0.000000000000D+00 0.000000000000D+00 0.111259711496D-04 0.000000000000D+00  6 2 1 25 2 1 21 2 0.26227773D+00 0.19849404D+00 0.27704317D+06 0.27704317D+06 0.27704317D+06 0.10871191D+01  1  2 13  2  6  2        1 -.850955445138D-01 0.100000000000D+01
-.590419673873D-07 0.000000000000D+00 0.000000000000D+00 0.111259711496D-04 0.000000000000D+00  6 2 1 25 2 1 21 2 0.26227773D+00 0.19759205D+00 0.27704317D+06 0.27704317D+06 0.27704317D+06 0.10871191D+01  1  2 13  2  6  2        1 -.960434023708D-07 0.100000000000D+01
-.163655634507D-01 0.000000000000D+00 0.000000000000D+00 0.111259711496D-04 0.000000000000D+00  6 2 1 25 2 1 21 2 0.26227773D+00 0.18580614D+00 0.26964725D+06 0.26964725D+06 0.26964725D+06 0.10879959D+01  1  2  8  2  6  2        1 -.302395984485D-01 0.100000000000D+01
-.273662408703D-01 0.000000000000D+00 0.000000000000D+00 0.111259711496D-04 0.000000000000D+00  6 2 1 25 2 1 21 2 0.26227773D+00 0.19740914D+00 0.26964725D+06 0.26964725D+06 0.26964725D+06 0.10879959D+01  1  2  9  2  6  2        1 -.447646532946D-01 0.100000000000D+01
0.273161104002D-01 0.000000000000D+00 0.000000000000D+00 0.111259711496D-04 0.000000000000D+00  6 2 1 25 2 1 21 2 0.26227773D+00 0.18580614D+00 0.26964725D+06 0.26964725D+06 0.26964725D+06 0.10879959D+01  1  2 10  2  6  2        1 0.504735576118D-01 0.100000000000D+01
0.517183637470D-01 0.000000000000D+00 0.000000000000D+00 0.111259711496D-04 0.230560072449D-06  6 2 1 25 2 1 21 2 0.26237867D+00 0.19737932D+00 0.27704317D+06 0.27704317D+06 0.27704317D+06 0.10871191D+01  1  2  1  2  6  2        1 0.842474430241D-01 0.100000000000D+01
  </mgrwgt>
  </event>
  <event>
  5     66 0.18337608E-05 0.15990516E+03 0.75467711E-02 0.93233473E-01
        2 -1    0    0  501    0 0.00000000E+00 0.00000000E+00 0.16200185E+04 0.16200185E+04 0.32000000E+00 0.0000E+00 0.9000E+01
        1 -1    0    0  502    0 0.00000000E+00 0.00000000E+00 -.52976168E+03 0.52976177E+03 0.32000000E+00 0.0000E+00 0.9000E+01
       25  1    1    2    0    0 0.51409488E+03 0.10875003E+03 0.47774189E+03 0.72109807E+03 0.12500000E+03 0.0000E+00 0.9000E+01
        2  1    1    2  501    0 -.37532217E+03 -.18814569E+03 0.95911734E+03 0.10469822E+04 0.32000000E+00 0.0000E+00 0.9000E+01
        1  1    1    2  502    0 -.13877271E+03 0.79395660E+02 -.34660245E+03 0.38170000E+03 0.32000000E+00 0.0000E+00 0.9000E+01
#aMCatNLO 1  0  0  5  2 0.29970391D+02 0.00000000D+00  -5  6  0 0.00000000D+00 0.00000000D+00 0.00000000D+00 0.00000000D+00 0.00000000D+00
  <mgrwgt>
 0.5753548773D-02    8    2    0
 0.926403708859670D+03 0.000000000000000D+00 0.000000000000000D+00 0.926403708859670D+03
 0.926403708859670D+03 -.000000000000000D+00 -.000000000000000D+00 -.926403708859670D+03
 0.555561279613382D+03 0.514072653160703D+03 0.108716865468237D+03 0.130127959488862D+03
 0.650337902736134D+03 -.375276569938140D+03 -.188122825088474D+03 0.496705834948040D+03
 0.646908235369824D+03 -.138796083222563D+03 0.794059596202367D+02 -.626833794436902D+03
 0.000000000000000D+00 0.000000000000000D+00 0.000000000000000D+00 0.000000000000000D+00
 0.926403708859670D+03 0.000000000000000D+00 0.000000000000000D+00 0.926403708859670D+03
 0.926403708859670D+03 -.000000000000000D+00 -.000000000000000D+00 -.926403708859670D+03
 0.555096080734682D+03 0.513823497640023D+03 0.108859408634838D+03 0.129002718078539D+03
 0.649452952471929D+03 -.375568154074586D+03 -.187956008290572D+03 0.495388976529543D+03
 0.495186715320875D+03 -.118375788863900D+03 0.333629102631394D+02 -.479670691057835D+03
 0.153071669191854D+03 -.198795547015363D+02 0.457336893925950D+02 -.144721003550247D+03
0.493387510266D-04 0.000000000000D+00 0.000000000000D+00 0.100983006341D-05 0.000000000000D+00  6 2 1 25 2 1 21 0 0.24923362D+00 0.81501806D-01 0.31348832D+06 0.31348832D+06 0.31348832D+06 0.10831416D+01  1  2  2  4  6  5        1 0.324648206453D-03 0.100000000000D+01
0.671963821529D-05 0.000000000000D+00 -.189473795134D-06 0.100983006341D-05 0.000000000000D+00  6 2 1 25 2 1 21 2 0.24923362D+00 0.81501806D-01 0.31348832D+06 0.31348832D+06 0.31348832D+06 0.10831416D+01  1  2  3  4  6  5        1 0.518729805987D-04 0.100000000000D+01
-.307149053887D-04 0.000000000000D+00 0.000000000000D+00 0.100983006341D-05 0.000000000000D+00  6 2 1 25 2 1 21 2 0.24923362D+00 0.81501806D-01 0.31348832D+06 0.31348832D+06 0.31348832D+06 0.10831416D+01  1  2 15  4  6  5        1 -.237107064439D-03 0.100000000000D+01
0.103493670594D-02 0.000000000000D+00 0.000000000000D+00 0.100983006341D-05 0.000000000000D+00  6 2 1 25 2 1 21 2 0.24923362D+00 0.81501806D-01 0.32076813D+06 0.32076813D+06 0.32076813D+06 0.10824077D+01  1  2 12  4  6  5        1 0.796904698612D-02 0.100000000000D+01
0.338314956105D-07 0.000000000000D+00 0.000000000000D+00 0.100983006341D-05 0.000000000000D+00  6 2 1 25 2 1 21 2 0.24923362D+00 0.81501806D-01 0.32076813D+06 0.32076813D+06 0.32076813D+06 0.10824077D+01  1  2 12  4  6  5        1 0.260503639094D-06 0.100000000000D+01
-.683891499292D-03 0.000000000000D+00 0.000000000000D+00 0.100983006341D-05 0.000000000000D+00  6 2 1 25 2 1 21 2 0.24923362D+00 0.81501806D-01 0.31348832D+06 0.31348832D+06 0.31348832D+06 0.10831416D+01  1  2  4  4  6  5        1 -.527937507017D-02 0.100000000000D+01
-.143689830720D-02 0.000000000000D+00 0.000000000000D+00 0.100983006341D-05 0.000000000000D+00  6 2 1 25 2 1 21 2 0.24923362D+00 0.81501806D-01 0.31348832D+06 0.31348832D+06 0.31348832D+06 0.10831416D+01  1  2  5  4  6  5        1 -.110922933086D-01 0.100000000000D+01
0.181570015803D-02 0.000000000000D+00 -.000000000000D+00 0.100983006341D-05 0.000000000000D+00  6 2 1 25 2 1 21 2 0.24923362D+00 0.81501806D-01 0.31348832D+06 0.31348832D+06 0.31348832D+06 0.10831416D+01  1  2  6  4  6  5        1 0.140164955393D-01 0.100000000000D+01
  </mgrwgt>
  </event>
  <event>
  5     66 0.18337608E-05 0.13779782E+03 0.75467711E-02 0.92244808E-01
        2 -1    0    0  501    0 0.00000000E+00 0.00000000E+00 0.36589745E+04 0.36589746E+04 0.32000000E+00 0.0000E+00 0.9000E+01
        1 -1    0    0  502    0 0.00000000E+00 0.00000000E+00 -.11022136E+04 0.11022136E+04 0.32000000E+00 0.0000E+00 0.9000E+01
       25  1    1    2    0    0 0.34830392E+03 -.30854971E+03 0.53874765E+03 0.72276730E+03 0.12500000E+03 0.0000E+00 0.9000E+01
        2  1    1    2  501    0 -.29221210E+03 0.18269532E+03 0.30136522E+04 0.30332928E+04 0.32000000E+00 0.0000E+00 0.9000E+01
        1  1    1    2  502    0 -.56091816E+02 0.12585439E+03 -.99563890E+03 0.10051281E+04 0.32000000E+00 0.0000E+00 0.9000E+01
#aMCatNLO 1  0  0  2  5 0.12353569D+02 0.00000000D+00  -5  6  0 0.00000000D+00 0.00000000D+00 0.00000000D+00 0.00000000D+00 0.00000000D+00
  <mgrwgt>
 0.1660937042D-01    7    2    0
 0.200822599877816D+04 0.000000000000000D+00 0.000000000000000D+00 0.200822599877816D+04
 0.200822599877816D+04 0.000000000000000D+00 0.000000000000000D+00 -.200822599877816D+04
 0.513854370090408D+03 0.348300233225031D+03 -.308553531115822D+03 0.178614052169353D+03
 0.167727942737786D+04 -.292204415370747D+03 0.182690511969577D+03 0.164149536520185D+04
 0.182531820008805D+04 -.560958178542847D+02 0.125863019146245D+03 -.182010941737120D+04
 0.000000000000000D+00 -.000000000000000D+00 -.000000000000000D+00 -.000000000000000D+00
 0.201990628956383D+04 0.000000000000000D+00 0.000000000000000D+00 0.201990628956383D+04
 0.287602408490363D+04 0.000000000000000D+00 0.000000000000000D+00 -.287602408490363D+04
 0.504322164272708D+03 0.353540763355407D+03 -.286045091533533D+03 0.178614052169353D+03
 0.168408058008562D+04 -.274903576269037D+03 0.256998813220735D+03 0.164149536520185D+04
 0.183218988969154D+04 -.372707116966654D+02 0.206718152889857D+03 -.182010941737120D+04
 0.875337740417592D+03 -.413664753897041D+02 -.177671874577059D+03 -.856117795339801D+03
0.116553927982D-01 0.000000000000D+00 0.000000000000D+00 0.367460033033D-03 0.000000000000D+00  6 2 1 25 2 1 21 0 0.56291917D+00 0.16957133D+00 0.23243247D+06 0.23243247D+06 0.23243247D+06 0.10928476D+01  1  2  2  2  6  2        1 0.141607941109D-02 0.100000000000D+01
0.245093449090D-02 0.000000000000D+00 -.447597772804D-04 0.367460033033D-03 0.000000000000D+00  6 2 1 25 2 1 21 2 0.56291917D+00 0.16957133D+00 0.23243247D+06 0.23243247D+06 0.23243247D+06 0.10928476D+01  1  2  3  2  6  2        1 0.355640839772D-03 0.100000000000D+01
-.720387137105D-02 0.000000000000D+00 0.000000000000D+00 0.367460033033D-03 0.000000000000D+00  6 2 1 25 2 1 21 2 0.56291917D+00 0.16957133D+00 0.23243247D+06 0.23243247D+06 0.23243247D+06 0.10928476D+01  1  2 15  2  6  2        1 -.104531184882D-02 0.100000000000D+01
-.918427721127D-02 0.000000000000D+00 0.000000000000D+00 0.367460033033D-03 0.000000000000D+00  6 2 1 25 2 1 21 2 0.56291917D+00 0.16957133D+00 0.23243247D+06 0.23243247D+06 0.23243247D+06 0.10928476D+01  1  2  4  2  6  2        1 -.133267701452D-02 0.100000000000D+01
-.252649207635D+00 0.000000000000D+00 -.826916223258D-02 0.367460033033D-03 0.000000000000D+00  6 2 1 25 2 1 21 2 0.56291917D+00 0.24329984D+00 0.23243247D+06 0.23243247D+06 0.23243247D+06 0.10928476D+01  1  2  5  2  6  2        1 -.171171785960D-01 0.100000000000D+01
0.240314005786D+00 0.000000000000D+00 0.775806875293D-02 0.367460033033D-03 0.000000000000D+00  6 2 1 25 2 1 21 2 0.56291917D+00 0.16957133D+00 0.23243247D+06 0.23243247D+06 0.23243247D+06 0.10928476D+01  1  2  6  2  6  2        1 0.348705667754D-01 0.100000000000D+01
-.109166982680D-01 0.000000000000D+00 -.365306653065D-03 0.367460033033D-03 0.000000000000D+00  6 2 21 25 2 1 -1 2 0.56291917D+00 0.24329984D+00 0.23243247D+06 0.23243247D+06 0.23243247D+06 0.10928476D+01  1  2  5  6  6  2        1 -.537749145217D-03 0.100000000000D+01
  </mgrwgt>
  </event>
  <event>
  6     66 0.18337608E-05 0.23746727E+02 0.75467711E-02 0.92686712E-01
        2 -1    0    0  501    0 0.00000000E+00 0.00000000E+00 0.23360314E+04 0.23360314E+04 0.32000000E+00 0.0000E+00 0.9000E+01
        1 -1    0    0  502    0 0.00000000E+00 0.00000000E+00 -.10504019E+04 0.10504019E+04 0.32000000E+00 0.0000E+00 0.9000E+01
       25  1    1    2    0    0 0.34794466E+03 -.46798241E+03 0.63766458E+03 0.87310603E+03 0.12500000E+03 0.0000E+00 0.9000E+01
        2  1    1    2  501    0 0.89039299E+01 0.17185712E+02 0.14915876E+04 0.14917132E+04 0.32000000E+00 0.0000E+00 0.9000E+01
        1  1    1    2  503    0 -.20011092E+03 0.25390593E+03 -.50744417E+03 0.60167457E+03 0.32000000E+00 0.0000E+00 0.9000E+01
       21  1    1    2  502  503 -.15673767E+03 0.19689077E+03 -.33617847E+03 0.41993952E+03 0.75000000E+00 0.0000E+00 0.9000E+01
#aMCatNLO 2  0  0  5  2 0.98643345D+01 0.00000000D+00  -5  6  0 0.00000000D+00 0.00000000D+00 0.00000000D+00 0.00000000D+00 0.00000000D+00
  <mgrwgt>
 0.1106918339D+00    1    2    0
 0.156645199342705D+04 0.000000000000000D+00 0.000000000000000D+00 0.156645199342705D+04
 0.156645199342705D+04 -.000000000000000D+00 -.000000000000000D+00 -.156645199342705D+04
 0.682249325583956D+03 0.347999899081776D+03 -.468050193172975D+03 0.331155898587928D+03
 0.100039328991697D+04 0.894206820431004D+01 0.171350362895244D+02 0.100020656089554D+04
 0.145026137135317D+04 -.356941967286086D+03 0.450915156883451D+03 -.133136245948347D+04
 0.000000000000000D+00 -.000000000000000D+00 0.000000000000000D+00 0.000000000000000D+00
 0.156645199342705D+04 0.000000000000000D+00 0.000000000000000D+00 0.156645199342705D+04
 0.156645199342705D+04 -.000000000000000D+00 -.000000000000000D+00 -.156645199342705D+04
 0.682164760593764D+03 0.347973365274366D+03 -.468016673729963D+03 0.331056929796554D+03
 0.100024869506895D+04 0.890316165118683D+01 0.171841858883758D+02 0.100006144283994D+04
 0.858280187980021D+03 -.200046637365590D+03 0.253825027260266D+03 -.795109476420741D+03
 0.592210343211362D+03 -.156829889559962D+03 0.197007460581322D+03 -.536008896215751D+03
0.106512457243D+00 0.000000000000D+00 0.000000000000D+00 0.177488377610D-03 0.109448991685D-05  6 2 1 25 2 1 21 2 0.35938945D+00 0.16160029D+00 0.35449569D+06 0.35449569D+06 0.35449569D+06 0.10792292D+01  1  2  1  4  6  5        1 0.110691833914D+00 0.100000000000D+01
  </mgrwgt>
  </event>
  <event>
  5     66 0.18337608E-05 0.55573420E+02 0.75467711E-02 0.95104603E-01
        2 -1    0    0  501    0 0.00000000E+00 0.00000000E+00 0.10985777E+04 0.10985777E+04 0.32000000E+00 0.0000E+00 0.9000E+01
        1 -1    0    0  502    0 0.00000000E+00 0.00000000E+00 -.15541577E+04 0.15541578E+04 0.32000000E+00 0.0000E+00 0.9000E+01
       25  1    1    2    0    0 0.20083409E+03 -.42159552E+03 0.32434805E+03 0.58215442E+03 0.12500000E+03 0.0000E+00 0.9000E+01
        2  1    1    2  501    0 0.43749066E+01 0.55410986E+02 0.61313493E+03 0.61564930E+03 0.32000000E+00 0.0000E+00 0.9000E+01
        1  1    1    2  502    0 -.20520899E+03 0.36618454E+03 -.13930630E+04 0.14549318E+04 0.32000000E+00 0.0000E+00 0.9000E+01
#aMCatNLO 1  0  0  1  5 0.22169655D+02 0.00000000D+00  -5  6  0 0.00000000D+00 0.00000000D+00 0.00000000D+00 0.00000000D+00 0.00000000D+00
  <mgrwgt>
 0.1841581277D-01    7    2    0
 0.130666106459661D+04 0.000000000000000D+00 0.000000000000000D+00 0.130666106459661D+04
 0.130666106459661D+04 0.000000000000000D+00 0.000000000000000D+00 -.130666106459661D+04
 0.647593910892198D+03 0.200858568185416D+03 -.421629017000010D+03 0.430856914804397D+03
 0.731690257570093D+03 0.437411908335285D+01 0.554010116136979D+02 0.729576745803628D+03
 0.123403796073092D+04 -.205232687268769D+03 0.366228005386312D+03 -.116043366060803D+04
 0.000000000000000D+00 -.000000000000000D+00 -.000000000000000D+00 0.000000000000000D+00
 0.200807303776820D+04 0.000000000000000D+00 0.000000000000000D+00 0.200807303776820D+04
 0.139170329690380D+04 0.000000000000000D+00 0.000000000000000D+00 -.139170329690380D+04
 0.589904359903260D+03 0.209143389614608D+03 -.320910447599677D+03 0.430856914804397D+03
 0.750652570098617D+03 0.142981294144420D+02 0.176047199561636D+03 0.729576745803628D+03
 0.130785553108004D+04 -.188215181734686D+03 0.573109810480595D+03 -.116043366060803D+04
 0.751363873590082D+03 -.352263372943641D+02 -.428246562442554D+03 0.616369740864404D+03
0.480944308753D-02 0.000000000000D+00 0.000000000000D+00 0.114806723345D-03 0.000000000000D+00  6 2 1 25 2 1 21 0 0.16901196D+00 0.23910120D+00 0.22985016D+06 0.22985016D+06 0.22985016D+06 0.10932153D+01  1  2  2  1  6  1        2 0.961028406675D-02 0.100000000000D+01
0.154306175014D-02 0.000000000000D+00 -.184695278115D-04 0.114806723345D-03 0.000000000000D+00  6 2 1 25 2 1 21 2 0.16901196D+00 0.23910120D+00 0.22985016D+06 0.22985016D+06 0.22985016D+06 0.10932153D+01  1  2  3  1  6  1        2 0.368498852617D-02 0.100000000000D+01
-.317576084809D-02 0.000000000000D+00 0.000000000000D+00 0.114806723345D-03 0.000000000000D+00  6 2 1 25 2 1 21 2 0.16901196D+00 0.23910120D+00 0.22985016D+06 0.22985016D+06 0.22985016D+06 0.10932153D+01  1  2 15  1  6  1        2 -.758404016300D-02 0.100000000000D+01
-.536291738388D-04 0.000000000000D+00 0.000000000000D+00 0.114806723345D-03 0.000000000000D+00  6 2 1 25 2 1 21 2 0.16901196D+00 0.23910120D+00 0.22985016D+06 0.22985016D+06 0.22985016D+06 0.10932153D+01  1  2  4  1  6  1        2 -.128071925991D-03 0.100000000000D+01
-.846768179742D-02 0.000000000000D+00 -.304411279550D-02 0.114806723345D-03 0.000000000000D+00  6 2 1 25 2 1 21 2 0.26602405D+00 0.23910120D+00 0.22985016D+06 0.22985016D+06 0.22985016D+06 0.10932153D+01  1  2  5  1  6  1        2 -.898968969206D-02 0.100000000000D+01
0.917653507115D-02 0.000000000000D+00 0.275569951172D-02 0.114806723345D-03 0.000000000000D+00  6 2 1 25 2 1 21 2 0.16901196D+00 0.23910120D+00 0.22985016D+06 0.22985016D+06 0.22985016D+06 0.10932153D+01  1  2  6  1  6  1        2 0.219144998209D-01 0.100000000000D+01
-.320359358955D-03 0.000000000000D+00 -.159152482313D-03 0.114806723345D-03 0.000000000000D+00  6 21 1 25 2 1 -2 2 0.26602405D+00 0.23910120D+00 0.22985016D+06 0.22985016D+06 0.22985016D+06 0.10932153D+01  1  2  5  5  6  1        2 -.921578667765D-04 0.100000000000D+01
  </mgrwgt>
  </event>
  <event>
  5     66 0.18337608E-05 0.17305991E+03 0.75467711E-02 0.95441608E-01
        2 -1    0    0  501    0 0.00000000E+00 0.00000000E+00 0.90532232E+03 0.90532238E+03 0.32000000E+00 0.0000E+00 0.9000E+01
        1 -1    0    0  502    0 -.00000000E+00 -.00000000E+00 -.20854015E+04 0.20854015E+04 0.32000000E+00 0.0000E+00 0.9000E+01
       25  1    1    2    0    0 -.58343128E+02 0.45236076E+03 -.18427947E+03 0.50756093E+03 0.12500000E+03 0.0000E+00 0.9000E+01
        2  1    1    2  501    0 0.98440718E+00 -.17306443E+03 0.72169785E+03 0.74215912E+03 0.32000000E+00 0.0000E+00 0.9000E+01
        1  1    1    2  502    0 0.57358720E+02 -.27929632E+03 -.17174976E+04 0.17410039E+04 0.32000000E+00 0.0000E+00 0.9000E+01
#aMCatNLO 1  0  0  5  1 0.52373597D+02 0.00000000D+00  -5  6  0 0.00000000D+00 0.00000000D+00 0.00000000D+00 0.00000000D+00 0.00000000D+00
  <mgrwgt>
 0.2862472720D-02    4    2    0
 0.137403080959776D+04 0.000000000000000D+00 0.000000000000000D+00 0.137403080959776D+04
 0.137403080959776D+04 -.000000000000000D+00 -.000000000000000D+00 -.137403080959776D+04
 0.473269164472961D+03 -.583485087735982D+02 0.452381386347565D+03 0.174709716697859D+02
 0.111755994210310D+04 0.984365533028947D+00 -.173057111626204D+03 0.110407902404383D+04
 0.115723251261946D+04 0.573641432405692D+02 -.279324274721361D+03 -.112154999571362D+04
 0.000000000000000D+00 -.000000000000000D+00 0.000000000000000D+00 0.000000000000000D+00
 0.137403080959776D+04 0.000000000000000D+00 0.000000000000000D+00 0.137403080959776D+04
 0.137403080959776D+04 -.000000000000000D+00 -.000000000000000D+00 -.137403080959776D+04
 0.455405993075937D+03 -.523251524971161D+02 0.423051747164061D+03 -.100294148219470D+03
 0.882733155622569D+03 0.139582002340561D+02 -.236230842871898D+03 0.850422237219629D+03
 0.993267753388363D+03 0.337137889683969D+03 -.471709694793683D+03 -.806479284977771D+03
 0.416654717108656D+03 -.298770937420909D+03 0.284888790501519D+03 0.563511959776124D+02
0.603907219012D-02 0.000000000000D+00 0.000000000000D+00 0.604434087010D-04 0.000000000000D+00  6 2 1 25 2 1 21 0 0.13928036D+00 0.32083101D+00 0.21676488D+06 0.21676488D+06 0.21676488D+06 0.10951505D+01  1  2  2  4  6  5        1 0.709250229729D-02 0.100000000000D+01
0.903936088725D-03 0.000000000000D+00 -.231916273343D-04 0.604434087010D-04 0.000000000000D+00  6 2 1 25 2 1 21 2 0.13928036D+00 0.32083101D+00 0.21676488D+06 0.21676488D+06 0.21676488D+06 0.10951505D+01  1  2  3  4  6  5        1 0.127325268390D-02 0.100000000000D+01
-.388510661057D-02 0.000000000000D+00 0.000000000000D+00 0.604434087010D-04 0.000000000000D+00  6 2 1 25 2 1 21 2 0.13928036D+00 0.32083101D+00 0.21676488D+06 0.21676488D+06 0.21676488D+06 0.10951505D+01  1  2 15  4  6  5        1 -.547242496547D-02 0.100000000000D+01
-.219069027874D-04 0.000000000000D+00 0.000000000000D+00 0.604434087010D-04 0.000000000000D+00  6 2 1 25 2 1 21 2 0.13928036D+00 0.32083101D+00 0.21676488D+06 0.21676488D+06 0.21676488D+06 0.10951505D+01  1  2  4  4  6  5        1 -.308572952422D-04 0.100000000000D+01
  </mgrwgt>
  </event>
  <event>
  5     66 0.18337608E-05 0.10617955E+03 0.75467711E-02 0.94808246E-01
        2 -1    0    0  501    0 0.00000000E+00 0.00000000E+00 0.25673891E+03 0.25673911E+03 0.32000000E+00 0.0000E+00 0.9000E+01
        1 -1    0    0  502    0 -.00000000E+00 -.00000000E+00 -.14020017E+04 0.14020017E+04 0.32000000E+00 0.0000E+00 0.9000E+01
       25  1    1    2    0    0 0.34255299E+03 -.33984765E+03 -.27352218E+03 0.56857573E+03 0.12500000E+03 0.0000E+00 0.9000E+01
        2  1    1    2  501    0 -.29563465E+03 0.24462763E+03 -.24672045E+03 0.45619470E+03 0.32000000E+00 0.0000E+00 0.9000E+01
        1  1    1    2  502    0 -.46918347E+02 0.95220027E+02 -.62502014E+03 0.63397040E+03 0.32000000E+00 0.0000E+00 0.9000E+01
#aMCatNLO 1  0  0  4  1 0.36230288D+02 0.00000000D+00  -5  6  0 0.00000000D+00 0.00000000D+00 0.00000000D+00 0.00000000D+00 0.00000000D+00
  <mgrwgt>
 0.7946463109D-02    8    2    0
 0.599957151231141D+03 0.000000000000000D+00 0.000000000000000D+00 0.599957151231141D+03
 0.599957151231141D+03 -.000000000000000D+00 -.000000000000000D+00 -.599957151231141D+03
 0.524910881608705D+03 0.342503745969896D+03 -.339819347244626D+03 0.164682812904240D+03
 0.395067633600451D+03 -.295571317889900D+03 0.244575224131650D+03 0.943344629519929D+02
 0.279935787253126D+03 -.469324280799963D+02 0.952441231129761D+02 -.259017275856233D+03
 0.000000000000000D+00 -.000000000000000D+00 0.000000000000000D+00 0.000000000000000D+00
 0.599957151231141D+03 0.000000000000000D+00 0.000000000000000D+00 0.599957151231141D+03
 0.599957151231141D+03 -.000000000000000D+00 -.000000000000000D+00 -.599957151231141D+03
 0.521756068486879D+03 0.339599775102176D+03 -.337416410007973D+03 0.165609643471530D+03
 0.295807953033631D+03 -.200094645495699D+03 0.194725099101322D+03 0.977067740838772D+02
 0.280182517534750D+03 -.484864727925309D+02 0.965300423171539D+02 -.258521287360438D+03
 0.102167763407023D+03 -.910186568139461D+02 0.461612685894975D+02 -.479513019496931D+01
0.937732267677D-04 0.000000000000D+00 0.000000000000D+00 0.711761797553D-07 0.000000000000D+00  6 2 1 25 2 1 21 0 0.39498312D-01 0.21569258D+00 0.24414852D+06 0.24414852D+06 0.24414852D+06 0.10912338D+01  1  2  2  3  6  4        2 0.134513804261D-02 0.100000000000D+01
0.107516209851D-04 0.000000000000D+00 -.360113881845D-06 0.711761797553D-07 0.000000000000D+00  6 2 1 25 2 1 21 2 0.39498312D-01 0.21569258D+00 0.24414852D+06 0.24414852D+06 0.24414852D+06 0.10912338D+01  1  2  3  3  6  4        2 0.183652788116D-03 0.100000000000D+01
-.513507477843D-04 0.000000000000D+00 0.000000000000D+00 0.711761797553D-07 0.000000000000D+00  6 2 1 25 2 1 21 2 0.39498312D-01 0.21569258D+00 0.24414852D+06 0.24414852D+06 0.24414852D+06 0.10912338D+01  1  2 15  3  6  4        2 -.877142899245D-03 0.100000000000D+01
0.764293767755D-03 0.000000000000D+00 0.000000000000D+00 0.711761797553D-07 0.000000000000D+00  6 2 1 25 2 1 21 2 0.39498312D-01 0.21569258D+00 0.24209320D+06 0.24209320D+06 0.24209320D+06 0.10915107D+01  1  2 12  3  6  4        2 0.130658311160D-01 0.100000000000D+01
0.249348277492D-05 0.000000000000D+00 0.000000000000D+00 0.711761797553D-07 0.000000000000D+00  6 2 1 25 2 1 21 2 0.39498312D-01 0.21569258D+00 0.24209320D+06 0.24209320D+06 0.24209320D+06 0.10915107D+01  1  2 12  3  6  4        2 0.426268356518D-04 0.100000000000D+01
-.559233438254D-03 0.000000000000D+00 0.000000000000D+00 0.711761797553D-07 0.000000000000D+00  6 2 1 25 2 1 21 2 0.39498312D-01 0.21569258D+00 0.24414852D+06 0.24414852D+06 0.24414852D+06 0.10912338D+01  1  2  4  3  6  4        2 -.955249262281D-02 0.100000000000D+01
-.753203671171D-03 0.000000000000D+00 0.000000000000D+00 0.711761797553D-07 0.000000000000D+00  6 2 1 25 2 1 21 2 0.39498312D-01 0.21569258D+00 0.24414852D+06 0.24414852D+06 0.24414852D+06 0.10912338D+01  1  2  5  3  6  4        2 -.128657766510D-01 0.100000000000D+01
0.972087886916D-03 0.000000000000D+00 -.000000000000D+00 0.711761797553D-07 0.000000000000D+00  6 2 1 25 2 1 21 2 0.39498312D-01 0.21569258D+00 0.24414852D+06 0.24414852D+06 0.24414852D+06 0.10912338D+01  1  2  6  3  6  4        2 0.166046264999D-01 0.100000000000D+01
  </mgrwgt>
  </event>
  <event>
  5     66 0.18337608E-05 0.13760050E+03 0.75467711E-02 0.89176404E-01
        2 -1    0    0  501    0 0.00000000E+00 0.00000000E+00 0.40405226E+03 0.40405239E+03 0.32000000E+00 0.0000E+00 0.9000E+01
        1 -1    0    0  502    0 0.00000000E+00 0.00000000E+00 -.13811429E+04 0.13811429E+04 0.32000000E+00 0.0000E+00 0.9000E+01
       25  1    1    2    0    0 -.30015335E+03 0.55501723E+03 -.37782815E+03 0.74599951E+03 0.12500000E+03 0.0000E+00 0.9000E+01
        2  1    1    2  501    0 0.17379038E+03 -.60944748E+03 -.28252558E+03 0.69386608E+03 0.32000000E+00 0.0000E+00 0.9000E+01
        1  1    1    2  502    0 0.12636297E+03 0.54430252E+02 -.31673692E+03 0.34532974E+03 0.32000000E+00 0.0000E+00 0.9000E+01
#aMCatNLO 1  0  0  2  4 0.60045083D+02 0.00000000D+00  -5  6  0 0.00000000D+00 0.00000000D+00 0.00000000D+00 0.00000000D+00 0.00000000D+00
  <mgrwgt>
 0.3016915290D-03    7    2    0
 0.747030160823873D+03 0.000000000000000D+00 0.000000000000000D+00 0.747030160823873D+03
 0.747030160823873D+03 0.000000000000000D+00 0.000000000000000D+00 -.747030160823873D+03
 0.644263589939280D+03 -.300162699816224D+03 0.554999489276903D+03 0.364485097481473D+02
 0.644288096171544D+03 0.173785323199610D+03 -.609429765776369D+03 0.116194547610978D+03
 0.205508635536921D+03 0.126377376616614D+03 0.544302764994654D+02 -.152643057359125D+03
 0.000000000000000D+00 -.000000000000000D+00 -.000000000000000D+00 -.000000000000000D+00
 0.841110951958957D+03 0.000000000000000D+00 0.000000000000000D+00 0.841110951958957D+03
 0.908494904237216D+03 0.000000000000000D+00 0.000000000000000D+00 -.908494904237216D+03
 0.719533641412826D+03 -.269921489684613D+03 0.654154077162545D+03 0.364485097481473D+02
 0.570396362339550D+03 0.200720066216369D+03 -.521116390352258D+03 0.116194547610978D+03
 0.221495064071719D+03 0.135845872599729D+03 0.854754897371859D+02 -.152643057359125D+03
 0.238180788372078D+03 -.666444491314857D+02 -.218513176547472D+03 -.673839522782590D+02
0.200333280201D-04 0.000000000000D+00 0.000000000000D+00 0.495532010537D-08 0.000000000000D+00  6 2 1 25 2 1 21 0 0.62161899D-01 0.21248354D+00 0.50024227D+06 0.50024227D+06 0.50024227D+06 0.10684955D+01  1  2  2  2  6  2        1 0.174397699882D-03 0.100000000000D+01
0.149856908295D-05 0.000000000000D+00 -.769332544935D-07 0.495532010537D-08 0.000000000000D+00  6 2 1 25 2 1 21 2 0.62161899D-01 0.21248354D+00 0.50024227D+06 0.50024227D+06 0.50024227D+06 0.10684955D+01  1  2  3  2  6  2        1 0.148939481146D-04 0.100000000000D+01
-.129353947440D-04 0.000000000000D+00 0.000000000000D+00 0.495532010537D-08 0.000000000000D+00  6 2 1 25 2 1 21 2 0.62161899D-01 0.21248354D+00 0.50024227D+06 0.50024227D+06 0.50024227D+06 0.10684955D+01  1  2 15  2  6  2        1 -.128562039849D-03 0.100000000000D+01
-.435832893025D-05 0.000000000000D+00 0.000000000000D+00 0.495532010537D-08 0.000000000000D+00  6 2 1 25 2 1 21 2 0.62161899D-01 0.21248354D+00 0.50024227D+06 0.50024227D+06 0.50024227D+06 0.10684955D+01  1  2  4  2  6  2        1 -.433164714873D-04 0.100000000000D+01
-.553003502175D-04 0.000000000000D+00 -.173487916555D-04 0.495532010537D-08 0.000000000000D+00  6 2 1 25 2 1 21 2 0.62161899D-01 0.27536089D+00 0.50024227D+06 0.50024227D+06 0.50024227D+06 0.10684955D+01  1  2  5  2  6  2        1 -.291085791862D-03 0.100000000000D+01
0.583916586549D-04 0.000000000000D+00 0.167818090416D-04 0.495532010537D-08 0.000000000000D+00  6 2 1 25 2 1 21 2 0.62161899D-01 0.21248354D+00 0.50024227D+06 0.50024227D+06 0.50024227D+06 0.10684955D+01  1  2  6  2  6  2        1 0.580341836906D-03 0.100000000000D+01
-.161364197253D-05 0.000000000000D+00 -.602991082859D-06 0.495532010537D-08 0.000000000000D+00  6 2 21 25 2 1 -1 2 0.62161899D-01 0.27536089D+00 0.50024227D+06 0.50024227D+06 0.50024227D+06 0.10684955D+01  1  2  5  6  6  2        1 -.497765275279D-05 0.100000000000D+01
  </mgrwgt>
  </event>
  <event>
  5     66 -.18337608E-05 0.51708725E+02 0.75467711E-02 0.92193685E-01
        2 -1    0    0  501    0 0.00000000E+00 0.00000000E+00 0.11486190E+04 0.11486190E+04 0.32000000E+00 0.0000E+00 0.9000E+01
        1 -1    0    0  502    0 0.00000000E+00 0.00000000E+00 -.73623473E+03 0.73623480E+03 0.32000000E+00 0.0000E+00 0.9000E+01
       25  1    1    2    0    0 -.53567268E+03 0.14974416E+03 0.53669756E+03 0.78296731E+03 0.12500000E+03 0.0000E+00 0.9000E+01
        2  1    1    2  501    0 0.19307904E+02 -.48006799E+02 0.37373094E+03 0.37729612E+03 0.32000000E+00 0.0000E+00 0.9000E+01
        1  1    1    2  502    0 0.51636478E+03 -.10173736E+03 -.49804424E+03 0.72459040E+03 0.32000000E+00 0.0000E+00 0.9000E+01
#aMCatNLO 1  0  0  2  2 0.11272705D+03 0.00000000D+00  -5  6  0 0.00000000D+00 0.00000000D+00 0.00000000D+00 0.00000000D+00 0.00000000D+00
  <mgrwgt>
 -.7625328374D-02    7    2    0
 0.919594093750135D+03 0.000000000000000D+00 0.000000000000000D+00 0.919594093750135D+03
 0.919594093750135D+03 0.000000000000000D+00 0.000000000000000D+00 -.919594093750135D+03
 0.682230908544257D+03 -.535749765577519D+03 0.149734670186919D+03 0.374654146915218D+03
 0.302658846888100D+03 0.192947183301784D+02 -.479740144770155D+02 0.298208962607016D+03
 0.854298432067912D+03 0.516455047247341D+03 -.101760655709904D+03 -.672863109522234D+03
 0.000000000000000D+00 0.000000000000000D+00 -.000000000000000D+00 -.000000000000000D+00
 0.925944241826154D+03 0.000000000000000D+00 0.000000000000000D+00 0.925944241826154D+03
 0.160828617796064D+04 0.000000000000000D+00 0.000000000000000D+00 -.160828617796064D+04
 0.697325581627552D+03 -.541837454874180D+03 0.191531745376336D+03 0.374654146915218D+03
 0.300146652750255D+03 0.166346659044461D+02 -.297105312688430D+02 0.298208962607016D+03
 0.845167333612076D+03 0.508955666377130D+03 -.502711379583548D+02 -.672863109522234D+03
 0.691590851796912D+03 0.162471225926037D+02 -.111550076149138D+03 -.682341936134487D+03
0.811024911049D-04 0.000000000000D+00 0.000000000000D+00 0.354338038164D-05 0.000000000000D+00  6 2 1 25 2 1 21 0 0.17671062D+00 0.11326689D+00 0.32961698D+06 0.32961698D+06 0.32961698D+06 0.10815397D+01  1  2  2  2  6  2        1 0.602175009726D-03 0.100000000000D+01
0.223994725034D-04 0.000000000000D+00 -.311454920619D-06 0.354338038164D-05 0.000000000000D+00  6 2 1 25 2 1 21 2 0.17671062D+00 0.11326689D+00 0.32961698D+06 0.32961698D+06 0.32961698D+06 0.10815397D+01  1  2  3  2  6  2        1 0.194541039626D-03 0.100000000000D+01
-.474781397711D-04 0.000000000000D+00 0.000000000000D+00 0.354338038164D-05 0.000000000000D+00  6 2 1 25 2 1 21 2 0.17671062D+00 0.11326689D+00 0.32961698D+06 0.32961698D+06 0.32961698D+06 0.10815397D+01  1  2 15  2  6  2        1 -.412351079661D-03 0.100000000000D+01
-.189370950210D-02 0.000000000000D+00 0.000000000000D+00 0.354338038164D-05 0.000000000000D+00  6 2 1 25 2 1 21 2 0.17671062D+00 0.11326689D+00 0.32961698D+06 0.32961698D+06 0.32961698D+06 0.10815397D+01  1  2  4  2  6  2        1 -.164470040638D-01 0.100000000000D+01
-.201378686561D-02 0.000000000000D+00 -.472520729626D-04 0.354338038164D-05 0.000000000000D+00  6 2 1 25 2 1 21 2 0.17671062D+00 0.19850927D+00 0.32961698D+06 0.32961698D+06 0.32961698D+06 0.10815397D+01  1  2  5  2  6  2        1 -.649255438059D-02 0.100000000000D+01
0.176213964226D-02 0.000000000000D+00 0.406790111820D-04 0.354338038164D-05 0.000000000000D+00  6 2 1 25 2 1 21 2 0.17671062D+00 0.11326689D+00 0.32961698D+06 0.32961698D+06 0.32961698D+06 0.10815397D+01  1  2  6  2  6  2        1 0.153043103100D-01 0.100000000000D+01
-.122349155734D-03 0.000000000000D+00 -.292728318093D-05 0.354338038164D-05 0.000000000000D+00  6 2 21 25 2 1 -1 2 0.17671062D+00 0.19850927D+00 0.32961698D+06 0.32961698D+06 0.32961698D+06 0.10815397D+01  1  2  5  6  6  2        1 -.374445209475D-03 0.100000000000D+01
  </mgrwgt>
  </event>
  <event>
  5     66 0.18337608E-05 0.12515513E+03 0.75467711E-02 0.95297439E-01
        2 -1    0    0  501    0 0.00000000E+00 0.00000000E+00 0.24355323E+04 0.24355323E+04 0.32000000E+00 0.0000E+00 0.9000E+01
        1 -1    0    0  502    0 0.00000000E+00 0.00000000E+00 -.67263031E+03 0.67263039E+03 0.32000000E+00 0.0000E+00 0.9000E+01
       25  1    1    2    0    0 0.35109855E+03 -.29838617E+03 0.30634108E+03 0.56725158E+03 0.12500000E+03 0.0000E+00 0.9000E+01
        2  1    1    2  501    0 -.97770378E+02 0.78142745E+02 0.19445721E+04 0.19485959E+04 0.32000000E+00 0.0000E+00 0.9000E+01
        1  1    1    2  502    0 -.25332817E+03 0.22024342E+03 -.48801116E+03 0.59231522E+03 0.32000000E+00 0.0000E+00 0.9000E+01
#aMCatNLO 1  0  0  5  2 0.31840742D+02 0.00000000D+00  -5  6  0 0.00000000D+00 0.00000000D+00 0.00000000D+00 0.00000000D+00 0.00000000D+00
  <mgrwgt>
 0.1368867782D+00    8    2    0
 0.127992694576029D+04 0.000000000000000D+00 0.000000000000000D+00 0.127992694576029D+04
 0.127992694576029D+04 -.000000000000000D+00 -.000000000000000D+00 -.127992694576029D+04
 0.477811852593458D+03 0.351121030083724D+03 -.298405937608453D+03 -.186302203893733D+02
 0.102675189081058D+04 -.977656102677141D+02 0.781389343968784D+02 0.101909549977586D+04
 0.105529014811654D+04 -.253355419816010D+03 0.220267003211575D+03 -.100046527938648D+04
 0.000000000000000D+00 0.000000000000000D+00 0.000000000000000D+00 0.000000000000000D+00
 0.127992694576029D+04 0.000000000000000D+00 0.000000000000000D+00 0.127992694576029D+04
 0.127992694576029D+04 -.000000000000000D+00 -.000000000000000D+00 -.127992694576029D+04
 0.477559754916343D+03 0.350895953897596D+03 -.298210256548823D+03 -.195190149121081D+02
 0.102493578546797D+04 -.982489677734976D+02 0.785591650331762D+02 0.101718678828108D+04
 0.941985200502984D+03 -.224492632334447D+03 0.165528492256958D+03 -.899744127096885D+03
 0.115373150633283D+03 -.281543537896520D+02 0.541225992586895D+02 -.979236462720863D+02
0.267236467119D-02 0.000000000000D+00 0.000000000000D+00 0.588651954931D-04 0.000000000000D+00  6 2 1 25 2 1 21 0 0.37469728D+00 0.10348159D+00 0.22011184D+06 0.22011184D+06 0.22011184D+06 0.10946436D+01  1  2  2  4  6  5        1 0.450698124486D-02 0.100000000000D+01
0.529783609061D-03 0.000000000000D+00 -.102625839872D-04 0.588651954931D-04 0.000000000000D+00  6 2 1 25 2 1 21 2 0.37469728D+00 0.10348159D+00 0.22011184D+06 0.22011184D+06 0.22011184D+06 0.10946436D+01  1  2  3  4  6  5        1 0.107061673584D-02 0.100000000000D+01
-.155736579868D-02 0.000000000000D+00 0.000000000000D+00 0.588651954931D-04 0.000000000000D+00  6 2 1 25 2 1 21 2 0.37469728D+00 0.10348159D+00 0.22011184D+06 0.22011184D+06 0.22011184D+06 0.10946436D+01  1  2 15  4  6  5        1 -.314721304959D-02 0.100000000000D+01
0.910425106073D-01 0.000000000000D+00 0.000000000000D+00 0.588651954931D-04 0.000000000000D+00  6 2 1 25 2 1 21 2 0.37469728D+00 0.10348159D+00 0.22225747D+06 0.22225747D+06 0.22225747D+06 0.10943230D+01  1  2 12  4  6  5        1 0.183743857471D+00 0.100000000000D+01
0.980432710263D-08 0.000000000000D+00 0.000000000000D+00 0.588651954931D-04 0.000000000000D+00  6 2 1 25 2 1 21 2 0.37469728D+00 0.10348159D+00 0.22225747D+06 0.22225747D+06 0.22225747D+06 0.10943230D+01  1  2 12  4  6  5        1 0.197872935371D-07 0.100000000000D+01
-.391999479321D-01 0.000000000000D+00 0.000000000000D+00 0.588651954931D-04 0.000000000000D+00  6 2 1 25 2 1 21 2 0.37469728D+00 0.10348159D+00 0.22011184D+06 0.22011184D+06 0.22011184D+06 0.10946436D+01  1  2  4  4  6  5        1 -.792174759326D-01 0.100000000000D+01
-.128491405976D+00 0.000000000000D+00 0.000000000000D+00 0.588651954931D-04 0.000000000000D+00  6 2 1 25 2 1 21 2 0.37469728D+00 0.10348159D+00 0.22011184D+06 0.22011184D+06 0.22011184D+06 0.10946436D+01  1  2  5  4  6  5        1 -.259662713790D+00 0.100000000000D+01
0.143301952654D+00 0.000000000000D+00 -.000000000000D+00 0.588651954931D-04 0.000000000000D+00  6 2 1 25 2 1 21 2 0.37469728D+00 0.10348159D+00 0.22011184D+06 0.22011184D+06 0.22011184D+06 0.10946436D+01  1  2  6  4  6  5        1 0.289592705713D+00 0.100000000000D+01
  </mgrwgt>
  </event>
  <event>
  5     66 -.18337608E-05 0.15182092E+02 0.75467711E-02 0.92976070E-01
        2 -1    0    0  501    0 0.00000000E+00 0.00000000E+00 0.14638476E+04 0.14638476E+04 0.32000000E+00 0.0000E+00 0.9000E+01
        1 -1    0    0  502    0 -.00000000E+00 -.00000000E+00 -.19540929E+04 0.19540929E+04 0.32000000E+00 0.0000E+00 0.9000E+01
       25  1    1    2    0    0 -.50955847E+03 0.18071049E+03 -.37877952E+03 0.67186683E+03 0.12500000E+03 0.0000E+00 0.9000E+01
        2  1    1    2  501    0 -.71424983E+01 -.13397422E+02 0.12656436E+04 0.12657347E+04 0.32000000E+00 0.0000E+00 0.9000E+01
        1  1    1    2  502    0 0.51670097E+03 -.16731307E+03 -.13771093E+04 0.14803391E+04 0.32000000E+00 0.0000E+00 0.9000E+01
#aMCatNLO 1  0  0  4  1 0.34178813D+02 0.00000000D+00  -5  6  0 0.00000000D+00 0.00000000D+00 0.00000000D+00 0.00000000D+00 0.00000000D+00
  <mgrwgt>
 -.3714900230D-01    4    2    0
 0.169129958458806D+04 0.000000000000000D+00 0.000000000000000D+00 0.169129958458806D+04
 0.169129958458806D+04 -.000000000000000D+00 -.000000000000000D+00 -.169129958458806D+04
 0.624011985195356D+03 -.509596126773114D+03 0.180722722632128D+03 -.285336718229043D+03
 0.146235800438525D+04 -.714233876429146D+01 -.133971229395711D+02 0.146227919259064D+04
 0.129622917959550D+04 0.516738465537407D+03 -.167325599692554D+03 -.117694247436160D+04
 0.000000000000000D+00 -.000000000000000D+00 0.000000000000000D+00 0.000000000000000D+00
 0.169129958458806D+04 0.000000000000000D+00 0.000000000000000D+00 0.169129958458806D+04
 0.169129958458806D+04 -.000000000000000D+00 -.000000000000000D+00 -.169129958458806D+04
 0.623881885715849D+03 -.509597521097614D+03 0.180720107251178D+03 -.285051252673362D+03
 0.282683417320439D+03 0.220709144174355D+02 0.986187699050951D+01 0.281647887524412D+03
 0.129569039214303D+04 0.516735569476255D+03 -.167331031931009D+03 -.117634955233668D+04
 0.118034347399680D+04 -.292089627960750D+02 -.232509523106756D+02 0.117975291748563D+04
0.171973201156D-02 0.000000000000D+00 0.000000000000D+00 0.247759746493D-03 0.000000000000D+00  6 2 1 25 2 1 21 0 0.22520733D+00 0.30062968D+00 0.30985381D+06 0.30985381D+06 0.30985381D+06 0.10835150D+01  1  2  2  3  6  4        2 0.112830452021D-02 0.100000000000D+01
0.190208867823D-02 0.000000000000D+00 -.660422374024D-05 0.247759746493D-03 0.000000000000D+00  6 2 1 25 2 1 21 2 0.22520733D+00 0.30062968D+00 0.30985381D+06 0.30985381D+06 0.30985381D+06 0.10835150D+01  1  2  3  3  6  4        2 0.146509622967D-02 0.100000000000D+01
-.116009204174D-02 0.000000000000D+00 0.000000000000D+00 0.247759746493D-03 0.000000000000D+00  6 2 1 25 2 1 21 2 0.22520733D+00 0.30062968D+00 0.30985381D+06 0.30985381D+06 0.30985381D+06 0.10835150D+01  1  2 15  3  6  4        2 -.893568473372D-03 0.100000000000D+01
-.504362286331D-01 0.000000000000D+00 0.000000000000D+00 0.247759746493D-03 0.000000000000D+00  6 2 1 25 2 1 21 2 0.22520733D+00 0.30062968D+00 0.30985381D+06 0.30985381D+06 0.30985381D+06 0.10835150D+01  1  2  5  3  6  4        2 -.388488345758D-01 0.100000000000D+01
  </mgrwgt>
  </event>
  <event>
  5     66 -.18337608E-05 0.75980544E+02 0.75467711E-02 0.95241053E-01
        2 -1    0    0  501    0 0.00000000E+00 0.00000000E+00 0.10970119E+04 0.10970120E+04 0.32000000E+00 0.0000E+00 0.9000E+01
        1 -1    0    0  502    0 0.00000000E+00 0.00000000E+00 -.86607007E+03 0.86607013E+03 0.32000000E+00 0.0000E+00 0.9000E+01
       25  1    1    2    0    0 -.46277756E+03 0.11152882E+02 -.51412795E+03 0.70302206E+03 0.12500000E+03 0.0000E+00 0.9000E+01
        2  1    1    2  501    0 0.38883925E+03 0.63730407E+01 0.95802805E+03 0.10339509E+04 0.32000000E+00 0.0000E+00 0.9000E+01
        1  1    1    2  502    0 0.73938311E+02 -.17525923E+02 -.21295825E+03 0.22610915E+03 0.32000000E+00 0.0000E+00 0.9000E+01
#aMCatNLO 1  0  0  4  1 0.10823013D+02 0.00000000D+00  -5  6  0 0.00000000D+00 0.00000000D+00 0.00000000D+00 0.00000000D+00 0.00000000D+00
  <mgrwgt>
 -.1468968569D-01    6    2    0
 0.974725239946379D+03 0.000000000000000D+00 0.000000000000000D+00 0.974725239946379D+03
 0.974725239946379D+03 -.000000000000000D+00 -.000000000000000D+00 -.974725239946379D+03
 0.768866785511669D+03 -.462773452777369D+03 0.111516749652069D+02 -.601038688782202D+03
 0.927693364249163D+03 0.388841551059402D+03 0.637307830561767D+01 0.842244982243622D+03
 0.252890330131927D+03 0.739319017179673D+02 -.175247532708246D+02 -.241206293461420D+03
 0.000000000000000D+00 0.000000000000000D+00 0.000000000000000D+00 0.000000000000000D+00
 0.974725239946379D+03 0.000000000000000D+00 0.000000000000000D+00 0.974725239946379D+03
 0.974725239946379D+03 -.000000000000000D+00 -.000000000000000D+00 -.974725239946379D+03
 0.766262855328045D+03 -.461638631015533D+03 0.111702745925652D+02 -.598580623454451D+03
 0.490824701259637D+03 0.247443744507999D+03 -.271794184126729D+02 0.423015082337759D+03
 0.252228338774147D+03 0.743053031835732D+02 -.175186332541410D+02 -.240397492267432D+03
 0.440134584530929D+03 0.139889583323960D+03 0.335277770742488D+02 0.415963033384124D+03
0.771569752901D-04 0.000000000000D+00 0.000000000000D+00 0.397258992605D-05 0.000000000000D+00  6 2 1 25 2 1 21 0 0.16877107D+00 0.13324156D+00 0.22295499D+06 0.22295499D+06 0.22295499D+06 0.10942196D+01  1  2  2  3  6  4        2 0.483535092369D-03 0.100000000000D+01
0.872823887535D-05 0.000000000000D+00 -.296303101012D-06 0.397258992605D-05 0.000000000000D+00  6 2 1 25 2 1 21 2 0.16877107D+00 0.13324156D+00 0.22295499D+06 0.22295499D+06 0.22295499D+06 0.10942196D+01  1  2  3  3  6  4        2 0.654920195457D-04 0.100000000000D+01
-.492039803893D-04 0.000000000000D+00 0.000000000000D+00 0.397258992605D-05 0.000000000000D+00  6 2 1 25 2 1 21 2 0.16877107D+00 0.13324156D+00 0.22295499D+06 0.22295499D+06 0.22295499D+06 0.10942196D+01  1  2 15  3  6  4        2 -.369200258082D-03 0.100000000000D+01
-.259980389863D-02 0.000000000000D+00 0.000000000000D+00 0.397258992605D-05 0.000000000000D+00  6 2 1 25 2 1 21 2 0.16877107D+00 0.13324156D+00 0.22295499D+06 0.22295499D+06 0.22295499D+06 0.10942196D+01  1  2  4  3  6  4        2 -.195075329830D-01 0.100000000000D+01
-.108989297000D-02 0.000000000000D+00 0.000000000000D+00 0.397258992605D-05 0.000000000000D+00  6 2 1 25 2 1 21 2 0.16877107D+00 0.13324156D+00 0.22295499D+06 0.22295499D+06 0.22295499D+06 0.10942196D+01  1  2  5  3  6  4        2 -.817797183526D-02 0.100000000000D+01
0.170801026983D-02 0.000000000000D+00 -.000000000000D+00 0.397258992605D-05 0.000000000000D+00  6 2 1 25 2 1 21 2 0.16877107D+00 0.13324156D+00 0.22295499D+06 0.22295499D+06 0.22295499D+06 0.10942196D+01  1  2  6  3  6  4        2 0.128159922721D-01 0.100000000000D+01
  </mgrwgt>
  </event>
  <event>
  5     66 -.18337608E-05 0.10400372E+03 0.75467711E-02 0.89968656E-01
        2 -1    0    0  501    0 0.00000000E+00 0.00000000E+00 0.31475933E+04 0.31475933E+04 0.32000000E+00 0.0000E+00 0.9000E+01
        1 -1    0    0  502    0 0.00000000E+00 0.00000000E+00 -.15631527E+04 0.15631527E+04 0.32000000E+00 0.0000E+00 0.9000E+01
       25  1    1    2    0    0 0.43437077E+03 0.50877588E+03 0.17353007E+04 0.18639808E+04 0.12500000E+03 0.0000E+00 0.9000E+01
        2  1    1    2  501    0 0.10109421E+03 0.24522216E+02 0.12503915E+04 0.12547112E+04 0.32000000E+00 0.0000E+00 0.9000E+01
        1  1    1    2  502    0 -.53546498E+03 -.53329810E+03 -.14012516E+04 0.15920539E+04 0.32000000E+00 0.0000E+00 0.9000E+01
#aMCatNLO 1  0  0  5  2 0.86374412D+01 0.00000000D+00  -5  6  0 0.00000000D+00 0.00000000D+00 0.00000000D+00 0.00000000D+00 0.00000000D+00
  <mgrwgt>
 -.1038390620D-02    9    2    0
 0.221814538745623D+04 0.000000000000000D+00 0.000000000000000D+00 0.221814538745623D+04
 0.221814538745623D+04 -.000000000000000D+00 -.000000000000000D+00 -.221814538745623D+04
 0.135971155271066D+04 0.434428827093181D+03 0.508818585274797D+03 0.117710056836459D+04
 0.885563802237935D+03 0.101072699304875D+03 0.245169978449100D+02 0.879435315475793D+03
 0.219101541996386D+04 -.535501526398056D+03 -.533335583119706D+03 -.205653588384038D+04
 0.000000000000000D+00 0.000000000000000D+00 0.000000000000000D+00 -.000000000000000D+00
 0.221814538745623D+04 0.000000000000000D+00 0.000000000000000D+00 0.221814538745623D+04
 0.221814538745623D+04 -.000000000000000D+00 -.000000000000000D+00 -.221814538745623D+04
 0.135965759268052D+04 0.434415393565246D+03 0.508805206081458D+03 0.117704897834872D+04
 0.885529195035910D+03 0.101063950206837D+03 0.245082841343531D+02 0.879401715507951D+03
 0.195828810033990D+04 -.486499950750427D+03 -.473358388893845D+03 -.183688375176997D+04
 0.232815886856117D+03 -.489793930216557D+02 -.599551013219656D+02 -.219566942086698D+03
0.272081815024D-04 0.000000000000D+00 0.000000000000D+00 0.121425710923D-04 0.000000000000D+00  6 2 1 25 2 1 21 0 0.48424512D+00 0.24048503D+00 0.59321711D+06 0.59321711D+06 0.59321711D+06 0.10633025D+01  1  2  2  4  6  5        1 0.323380918097D-05 0.100000000000D+01
0.491018661324D-05 0.000000000000D+00 -.104486581048D-06 0.121425710923D-04 0.000000000000D+00  6 2 1 25 2 1 21 2 0.48424512D+00 0.24048503D+00 0.59321711D+06 0.59321711D+06 0.59321711D+06 0.10633025D+01  1  2  3  4  6  5        1 0.659821596830D-06 0.100000000000D+01
-.191427346746D-04 0.000000000000D+00 0.000000000000D+00 0.121425710923D-04 0.000000000000D+00  6 2 1 25 2 1 21 2 0.48424512D+00 0.24048503D+00 0.59321711D+06 0.59321711D+06 0.59321711D+06 0.10633025D+01  1  2 15  4  6  5        1 -.257236450579D-05 0.100000000000D+01
0.762568334701D-01 0.000000000000D+00 0.000000000000D+00 0.121425710923D-04 0.000000000000D+00  6 2 1 25 2 1 21 2 0.48424512D+00 0.24048503D+00 0.59351877D+06 0.59351877D+06 0.59351877D+06 0.10632871D+01  1  2 12  4  6  5        1 0.102463839806D-01 0.100000000000D+01
0.546525467837D-08 0.000000000000D+00 0.000000000000D+00 0.121425710923D-04 0.000000000000D+00  6 2 1 25 2 1 21 2 0.48424512D+00 0.24048503D+00 0.59351877D+06 0.59351877D+06 0.59351877D+06 0.10632871D+01  1  2 12  4  6  5        1 0.734348588029D-09 0.100000000000D+01
-.926435549969D-01 0.000000000000D+00 0.000000000000D+00 0.121425710923D-04 0.000000000000D+00  6 2 1 25 2 1 21 2 0.48424512D+00 0.24048503D+00 0.59321711D+06 0.59321711D+06 0.59321711D+06 0.10633025D+01  1  2  4  4  6  5        1 -.124492658241D-01 0.100000000000D+01
-.767946568220D-01 0.000000000000D+00 0.000000000000D+00 0.121425710923D-04 0.000000000000D+00  6 2 1 25 2 1 21 2 0.48424512D+00 0.24048503D+00 0.59321711D+06 0.59321711D+06 0.59321711D+06 0.10633025D+01  1  2  5  4  6  5        1 -.103195208418D-01 0.100000000000D+01
0.853856323509D-01 0.000000000000D+00 -.000000000000D+00 0.121425710923D-04 0.000000000000D+00  6 2 1 25 2 1 21 2 0.48424512D+00 0.24048503D+00 0.59321711D+06 0.59321711D+06 0.59321711D+06 0.10633025D+01  1  2  6  4  6  5        1 0.114739598964D-01 0.100000000000D+01
0.649726729443D-04 0.000000000000D+00 0.000000000000D+00 0.121425710923D-04 0.850756909859D-06  6 2 1 25 2 1 21 2 0.48424512D+00 0.24048503D+00 0.59351877D+06 0.59351877D+06 0.59351877D+06 0.10632871D+01  1  2 11  4  6  5        1 0.873016784120D-05 0.100000000000D+01
  </mgrwgt>
  </event>
  <event>
  5     66 0.18337608E-05 0.30690686E+02 0.75467711E-02 0.93726572E-01
        2 -1    0    0  501    0 0.00000000E+00 0.00000000E+00 0.12547374E+04 0.12547375E+04 0.32000000E+00 0.0000E+00 0.9000E+01
        1 -1    0    0  502    0 0.00000000E+00 0.00000000E+00 -.84455316E+03 0.84455322E+03 0.32000000E+00 0.0000E+00 0.9000E+01
       25  1    1    2    0    0 -.29425216E+03 -.44331687E+03 0.30133212E+03 0.62413158E+03 0.12500000E+03 0.0000E+00 0.9000E+01
        2  1    1    2  501    0 0.26659277E+03 0.43002705E+03 0.71076887E+03 0.87246057E+03 0.32000000E+00 0.0000E+00 0.9000E+01
        1  1    1    2  502    0 0.27659396E+02 0.13289826E+02 -.60191673E+03 0.60269853E+03 0.32000000E+00 0.0000E+00 0.9000E+01
#aMCatNLO 1  0  0  5  1 0.17806870D+02 0.00000000D+00  -5  6  0 0.00000000D+00 0.00000000D+00 0.00000000D+00 0.00000000D+00 0.00000000D+00
  <mgrwgt>
 0.1384810482D-01    7    2    0
 0.102941369703947D+04 0.000000000000000D+00 0.000000000000000D+00 0.102941369703947D+04
 0.102941369703947D+04 -.000000000000000D+00 -.000000000000000D+00 -.102941369703947D+04
 0.576361541444774D+03 -.294230090148457D+03 -.443277126181242D+03 0.183034613973222D+03
 0.747927165211403D+03 0.266566959993796D+03 0.429985421668244D+03 0.550862630293264D+03
 0.734538687422765D+03 0.276631301546620D+02 0.132917045129982D+02 -.733897244266487D+03
 0.000000000000000D+00 0.000000000000000D+00 0.000000000000000D+00 0.000000000000000D+00
 0.102941369703947D+04 0.000000000000000D+00 0.000000000000000D+00 0.102941369703947D+04
 0.102941369703947D+04 -.000000000000000D+00 -.000000000000000D+00 -.102941369703947D+04
 0.575422286934514D+03 -.294128554735424D+03 -.443228339991823D+03 0.180340900015194D+03
 0.745442131583678D+03 0.266698607846999D+03 0.430048676417608D+03 0.547370039391959D+03
 0.716389853346542D+03 0.998759914052450D+01 0.765866791808754D+01 -.716279285367802D+03
 0.215731222142068D+02 0.174423477479008D+02 0.552099565612802D+01 -.114316540393514D+02
0.149128597232D-02 0.000000000000D+00 0.000000000000D+00 0.187627127108D-04 0.000000000000D+00  6 2 1 25 2 1 21 0 0.19303653D+00 0.12993126D+00 0.29329125D+06 0.29329125D+06 0.29329125D+06 0.10852793D+01  1  2  2  4  6  5        1 0.776983165705D-02 0.100000000000D+01
0.972011339168D-03 0.000000000000D+00 -.572693079833D-05 0.187627127108D-04 0.000000000000D+00  6 2 1 25 2 1 21 2 0.19303653D+00 0.12993126D+00 0.29329125D+06 0.29329125D+06 0.29329125D+06 0.10852793D+01  1  2  3  4  6  5        1 0.596492581773D-02 0.100000000000D+01
-.814338382790D-03 0.000000000000D+00 0.000000000000D+00 0.187627127108D-04 0.000000000000D+00  6 2 1 25 2 1 21 2 0.19303653D+00 0.12993126D+00 0.29329125D+06 0.29329125D+06 0.29329125D+06 0.10852793D+01  1  2 15  4  6  5        1 -.499733680888D-02 0.100000000000D+01
0.194450719150D-08 0.000000000000D+00 0.000000000000D+00 0.187627127108D-04 0.000000000000D+00  6 2 1 25 2 1 21 2 0.19303653D+00 0.12993126D+00 0.29341013D+06 0.29341013D+06 0.29341013D+06 0.10852663D+01  1  2 12  4  6  5        1 0.119322778903D-07 0.100000000000D+01
-.928811212908D-04 0.000000000000D+00 0.000000000000D+00 0.187627127108D-04 0.000000000000D+00  6 2 1 25 2 1 21 2 0.19303653D+00 0.12993126D+00 0.29329125D+06 0.29329125D+06 0.29329125D+06 0.10852793D+01  1  2  4  4  6  5        1 -.569982032145D-03 0.100000000000D+01
-.310626100779D-01 0.000000000000D+00 0.000000000000D+00 0.187627127108D-04 0.000000000000D+00  6 2 1 25 2 1 21 2 0.19303653D+00 0.12993126D+00 0.29329125D+06 0.29329125D+06 0.29329125D+06 0.10852793D+01  1  2  5  4  6  5        1 -.190621402604D+00 0.100000000000D+01
0.319882980948D-01 0.000000000000D+00 -.000000000000D+00 0.187627127108D-04 0.000000000000D+00  6 2 1 25 2 1 21 2 0.19303653D+00 0.12993126D+00 0.29329125D+06 0.29329125D+06 0.29329125D+06 0.10852793D+01  1  2  6  4  6  5        1 0.196302056861D+00 0.100000000000D+01
  </mgrwgt>
  </event>
  <event>
  6     66 0.18337608E-05 0.67286071E+02 0.75467711E-02 0.92517582E-01
        2 -1    0    0  501    0 0.00000000E+00 0.00000000E+00 0.20501108E+04 0.20501108E+04 0.32000000E+00 0.0000E+00 0.9000E+01
        1 -1    0    0  502    0 0.00000000E+00 0.00000000E+00 -.41694620E+03 0.41694632E+03 0.32000000E+00 0.0000E+00 0.9000E+01
       25  1    1    2    0    0 -.58480187E+03 0.92255992E+02 0.36193612E+03 0.70507244E+03 0.12500000E+03 0.0000E+00 0.9000E+01
        2  1    1    2  503    0 0.71082323E+02 -.41486276E+02 0.61312832E+03 0.61862771E+03 0.32000000E+00 0.0000E+00 0.9000E+01
        1  1    1    2  502    0 0.22057678E+02 -.19669785E+02 -.17392646E+03 0.17641983E+03 0.32000000E+00 0.0000E+00 0.9000E+01
       21  1    1    2  501  503 0.49166187E+03 -.31099930E+02 0.83202662E+03 0.96693715E+03 0.75000000E+00 0.0000E+00 0.9000E+01
#aMCatNLO 2  0  0  4  2 0.15440101D+03 0.00000000D+00  -5  6  0 0.00000000D+00 0.00000000D+00 0.00000000D+00 0.00000000D+00 0.00000000D+00
  <mgrwgt>
 0.2166779057D-02    1    2    0
 0.924546418859293D+03 0.000000000000000D+00 0.000000000000000D+00 0.924546418859293D+03
 0.924546418859293D+03 -.000000000000000D+00 -.000000000000000D+00 -.924546418859293D+03
 0.639955049792724D+03 -.600907405425811D+03 0.943420128877611D+02 -.154684648442931D+03
 0.810941848581937D+03 0.588937261882843D+03 -.759647499024395D+02 0.552276144804109D+03
 0.398195939343926D+03 0.119701435429685D+02 -.183772629853216D+02 -.397591496361178D+03
 0.000000000000000D+00 0.000000000000000D+00 0.000000000000000D+00 0.000000000000000D+00
 0.924546418859293D+03 0.000000000000000D+00 0.000000000000000D+00 0.924546418859293D+03
 0.924546418859293D+03 -.000000000000000D+00 -.000000000000000D+00 -.924546418859293D+03
 0.620916927317513D+03 -.584749501233876D+03 0.922578670367008D+02 -.139532567546051D+03
 0.283370404916643D+03 0.708455264700325D+02 -.414243188506909D+02 0.271226332736264D+03
 0.389252838682932D+03 0.220611933421521D+02 -.196788686466739D+02 -.388128610514386D+03
 0.555552666801499D+03 0.491842781421692D+03 -.311546795393360D+02 0.256434845324173D+03
0.351916579837D-03 0.000000000000D+00 0.000000000000D+00 0.648839650395D-05 0.139273187938D-09  6 2 1 25 2 1 21 2 0.31540167D+00 0.64145580D-01 0.36571929D+06 0.36571929D+06 0.36571929D+06 0.10782440D+01  1  2  1  3  6  4        2 0.216677905747D-02 0.100000000000D+01
  </mgrwgt>
  </event>
  <event>
  5     66 0.18337608E-05 0.11060721E+03 0.75467711E-02 0.91404989E-01
        2 -1    0    0  501    0 0.00000000E+00 0.00000000E+00 0.14553149E+04 0.14553149E+04 0.32000000E+00 0.0000E+00 0.9000E+01
        1 -1    0    0  502    0 0.00000000E+00 0.00000000E+00 -.84250247E+03 0.84250253E+03 0.32000000E+00 0.0000E+00 0.9000E+01
       25  1    1    2    0    0 0.55670385E+03 -.34410492E+03 -.10293817E+03 0.67420223E+03 0.12500000E+03 0.0000E+00 0.9000E+01
        2  1    1    2  501    0 -.50978694E+03 0.24395317E+03 0.10930124E+04 0.12304764E+04 0.32000000E+00 0.0000E+00 0.9000E+01
        1  1    1    2  502    0 -.46916913E+02 0.10015176E+03 -.37726182E+03 0.39313885E+03 0.32000000E+00 0.0000E+00 0.9000E+01
#aMCatNLO 1  0  0  5  2 0.13491890D+01 0.00000000D+00  -5  6  0 0.00000000D+00 0.00000000D+00 0.00000000D+00 0.00000000D+00 0.00000000D+00
  <mgrwgt>
 0.3165839431D-02    9    2    0
 0.110729694221973D+04 0.000000000000000D+00 0.000000000000000D+00 0.110729694221973D+04
 0.110729694221973D+04 -.000000000000000D+00 -.000000000000000D+00 -.110729694221973D+04
 0.727993086981634D+03 0.556698109553103D+03 -.344108835659600D+03 -.293300628594697D+03
 0.974242144403427D+03 -.509775659984996D+03 0.243947768231124D+03 0.793577985325767D+03
 0.512358653054391D+03 -.469224495681070D+02 0.100161067428477D+03 -.500277356731070D+03
 0.000000000000000D+00 -.000000000000000D+00 0.000000000000000D+00 0.000000000000000D+00
 0.110729694221973D+04 0.000000000000000D+00 0.000000000000000D+00 0.110729694221973D+04
 0.110729694221973D+04 -.000000000000000D+00 -.000000000000000D+00 -.110729694221973D+04
 0.727995078837409D+03 0.556697319726651D+03 -.344107149689212D+03 -.293309049559360D+03
 0.974234082910173D+03 -.509776716970280D+03 0.243950024481071D+03 0.793566715969435D+03
 0.474926943948383D+03 -.428642625666456D+02 0.916860484984888D+02 -.464017160882548D+03
 0.374377787434866D+02 -.405634018972498D+01 0.847107670965279D+01 -.362405055275262D+02
0.433563464704D-05 0.000000000000D+00 0.000000000000D+00 0.152794901370D-05 0.000000000000D+00  6 2 1 25 2 1 21 0 0.22389461D+00 0.12961577D+00 0.45026827D+06 0.45026827D+06 0.45026827D+06 0.10717409D+01  1  2  2  4  6  5        1 0.170731300289D-04 0.100000000000D+01
0.830353950332D-06 0.000000000000D+00 -.166499786435D-07 0.152794901370D-05 0.000000000000D+00  6 2 1 25 2 1 21 2 0.22389461D+00 0.12961577D+00 0.45026827D+06 0.45026827D+06 0.45026827D+06 0.10717409D+01  1  2  3  4  6  5        1 0.375580778613D-05 0.100000000000D+01
-.263158296506D-05 0.000000000000D+00 0.000000000000D+00 0.152794901370D-05 0.000000000000D+00  6 2 1 25 2 1 21 2 0.22389461D+00 0.12961577D+00 0.45026827D+06 0.45026827D+06 0.45026827D+06 0.10717409D+01  1  2 15  4  6  5        1 -.119030201350D-04 0.100000000000D+01
0.400051592104D-06 0.000000000000D+00 0.000000000000D+00 0.152794901370D-05 0.000000000000D+00  6 2 1 25 2 1 21 2 0.22389461D+00 0.12961577D+00 0.45026586D+06 0.45026586D+06 0.45026586D+06 0.10717411D+01  1  2 12  4  6  5        1 0.180949076289D-05 0.100000000000D+01
0.353554349401D-11 0.000000000000D+00 0.000000000000D+00 0.152794901370D-05 0.000000000000D+00  6 2 1 25 2 1 21 2 0.22389461D+00 0.12961577D+00 0.45026586D+06 0.45026586D+06 0.45026586D+06 0.10717411D+01  1  2 12  4  6  5        1 0.159917706127D-10 0.100000000000D+01
-.163407563645D-01 0.000000000000D+00 0.000000000000D+00 0.152794901370D-05 0.000000000000D+00  6 2 1 25 2 1 21 2 0.22389461D+00 0.12961577D+00 0.45026827D+06 0.45026827D+06 0.45026827D+06 0.10717409D+01  1  2  4  4  6  5        1 -.739115409283D-01 0.100000000000D+01
-.209660798703D-01 0.000000000000D+00 0.000000000000D+00 0.152794901370D-05 0.000000000000D+00  6 2 1 25 2 1 21 2 0.22389461D+00 0.12961577D+00 0.45026827D+06 0.45026827D+06 0.45026827D+06 0.10717409D+01  1  2  5  4  6  5        1 -.948325301397D-01 0.100000000000D+01
0.226816078739D-01 0.000000000000D+00 -.000000000000D+00 0.152794901370D-05 0.000000000000D+00  6 2 1 25 2 1 21 2 0.22389461D+00 0.12961577D+00 0.45026827D+06 0.45026827D+06 0.45026827D+06 0.10717409D+01  1  2  6  4  6  5        1 0.102592104753D+00 0.100000000000D+01
0.153227661587D-01 0.000000000000D+00 0.000000000000D+00 0.152794901370D-05 0.324062591786D-05  6 2 1 25 2 1 21 2 0.22389461D+00 0.12961577D+00 0.45026586D+06 0.45026586D+06 0.45026586D+06 0.10717411D+01  1  2 11  4  6  5        1 0.693070703210D-01 0.100000000000D+01
  </mgrwgt>
  </event>
  <event>
  5     66 0.18337608E-05 0.90347803E+02 0.75467711E-02 0.91901344E-01
        2 -1    0    0  501    0 0.00000000E+00 0.00000000E+00 0.11369097E+04 0.11369097E+04 0.32000000E+00 0.0000E+00 0.9000E+01
        1 -1    0    0  502    0 0.00000000E+00 0.00000000E+00 -.83049730E+03 0.83049736E+03 0.32000000E+00 0.0000E+00 0.9000E+01
       25  1    1    2    0    0 -.43080411E+03 0.30561354E+03 -.29232383E+03 0.61649821E+03 0.12500000E+03 0.0000E+00 0.9000E+01
        2  1    1    2  501    0 -.53750820E+02 -.72633434E+02 0.77870697E+03 0.78393202E+03 0.32000000E+00 0.0000E+00 0.9000E+01
        1  1    1    2  502    0 0.48455493E+03 -.23298010E+03 -.17997074E+03 0.56697688E+03 0.32000000E+00 0.0000E+00 0.9000E+01
#aMCatNLO 1  0  0  1  5 0.83652041D+02 0.00000000D+00  -5  6  0 0.00000000D+00 0.00000000D+00 0.00000000D+00 0.00000000D+00 0.00000000D+00
  <mgrwgt>
 0.6363373751D-02    9    2    0
 0.971699820577127D+03 0.000000000000000D+00 0.000000000000000D+00 0.971699820577127D+03
 0.971699820577127D+03 0.000000000000000D+00 0.000000000000000D+00 -.971699820577127D+03
 0.670242641855124D+03 -.430872521686919D+03 0.305648298436052D+03 -.393100733501271D+03
 0.670754915547593D+03 -.537441023254121D+02 -.726243557883056D+02 0.664642333246106D+03
 0.602402083751537D+03 0.484616624012331D+03 -.233023942647747D+03 -.271541599744835D+03
 0.000000000000000D+00 0.000000000000000D+00 0.000000000000000D+00 0.000000000000000D+00
 0.112781935299111D+04 0.000000000000000D+00 0.000000000000000D+00 0.112781935299111D+04
 0.983870162206580D+03 0.000000000000000D+00 0.000000000000000D+00 -.983870162206580D+03
 0.673828002320425D+03 -.450533445658747D+03 0.284447893953803D+03 -.393100733501271D+03
 0.675241179412902D+03 -.734331915887428D+02 -.938551309475934D+02 0.664642333246106D+03
 0.596129992951624D+03 0.467084622893215D+03 -.251928726351763D+03 -.271541599744835D+03
 0.166490340512740D+03 0.568820143542744D+02 0.613359633455533D+02 0.143949190784531D+03
0.301496876955D-03 0.000000000000D+00 0.000000000000D+00 0.963488483027D-06 0.000000000000D+00  6 2 1 25 2 1 21 0 0.17490919D+00 0.12776882D+00 0.34277379D+06 0.34277379D+06 0.34277379D+06 0.10802950D+01  1  2  2  1  6  1        2 0.187511608090D-02 0.100000000000D+01
0.798073146095D-04 0.000000000000D+00 -.115782739346D-05 0.963488483027D-06 0.000000000000D+00  6 2 1 25 2 1 21 2 0.17490919D+00 0.12776882D+00 0.34277379D+06 0.34277379D+06 0.34277379D+06 0.10802950D+01  1  2  3  1  6  1        2 0.579258958116D-03 0.100000000000D+01
-.196693153624D-03 0.000000000000D+00 0.000000000000D+00 0.963488483027D-06 0.000000000000D+00  6 2 1 25 2 1 21 2 0.17490919D+00 0.12776882D+00 0.34277379D+06 0.34277379D+06 0.34277379D+06 0.10802950D+01  1  2 15  1  6  1        2 -.142764196232D-02 0.100000000000D+01
0.834682791187D-07 0.000000000000D+00 0.000000000000D+00 0.963488483027D-06 0.000000000000D+00  6 2 1 25 2 1 21 2 0.20540855D+00 0.12776882D+00 0.41010925D+06 0.41010925D+06 0.41010925D+06 0.10746471D+01  1  2 12  1  6  1        2 0.456256339997D-06 0.100000000000D+01
-.105644287602D-03 0.000000000000D+00 0.000000000000D+00 0.963488483027D-06 0.000000000000D+00  6 2 1 25 2 1 21 2 0.17490919D+00 0.12776882D+00 0.34277379D+06 0.34277379D+06 0.34277379D+06 0.10802950D+01  1  2  4  1  6  1        2 -.766789363440D-03 0.100000000000D+01
-.377674227230D-02 0.000000000000D+00 -.442961696252D-03 0.963488483027D-06 0.000000000000D+00  6 2 1 25 2 1 21 2 0.20406903D+00 0.12776882D+00 0.34277379D+06 0.34277379D+06 0.34277379D+06 0.10802950D+01  1  2  5  1  6  1        2 -.213067802297D-01 0.100000000000D+01
0.380493635568D-02 0.000000000000D+00 0.437747657031D-03 0.963488483027D-06 0.000000000000D+00  6 2 1 25 2 1 21 2 0.17490919D+00 0.12776882D+00 0.34277379D+06 0.34277379D+06 0.34277379D+06 0.10802950D+01  1  2  6  1  6  1        2 0.276170609157D-01 0.100000000000D+01
0.201284891816D-08 0.000000000000D+00 0.000000000000D+00 0.963488483027D-06 0.000000000000D+00  6 21 1 25 2 1 -2 2 0.20540855D+00 0.12776882D+00 0.41010925D+06 0.41010925D+06 0.41010925D+06 0.10746471D+01  1  2 12  5  6  1        2 0.467178988695D-08 0.100000000000D+01
-.848596877716D-04 0.000000000000D+00 -.103317656492D-04 0.963488483027D-06 0.000000000000D+00  6 21 1 25 2 1 -2 2 0.20406903D+00 0.12776882D+00 0.34277379D+06 0.34277379D+06 0.34277379D+06 0.10802950D+01  1  2  5  5  6  1        2 -.207311576113D-03 0.100000000000D+01
  </mgrwgt>
  </event>
  <event>
  6     66 0.18337608E-05 0.15132683E+03 0.75467711E-02 0.92357194E-01
        2 -1    0    0  501    0 0.00000000E+00 0.00000000E+00 0.17067623E+04 0.17067623E+04 0.32000000E+00 0.0000E+00 0.9000E+01
        1 -1    0    0  503    0 0.00000000E+00 0.00000000E+00 -.93316985E+03 0.93316991E+03 0.32000000E+00 0.0000E+00 0.9000E+01
       25  1    1    2    0    0 -.11261290E+03 -.57134981E+03 -.31276721E+03 0.67273368E+03 0.12500000E+03 0.0000E+00 0.9000E+01
        2  1    1    2  501    0 -.29610664E+01 0.11556620E+02 0.13085874E+04 0.13086418E+04 0.32000000E+00 0.0000E+00 0.9000E+01
        1  1    1    2  502    0 0.19095294E+03 0.39868113E+03 -.15916464E+03 0.46983311E+03 0.32000000E+00 0.0000E+00 0.9000E+01
       21  1    1    2  503  502 -.75378970E+02 0.16111206E+03 -.63063110E+02 0.18872362E+03 0.75000000E+00 0.0000E+00 0.9000E+01
#aMCatNLO 2  0  0  2  2 0.17787379D+03 0.00000000D+00  -5  6  0 0.00000000D+00 0.00000000D+00 0.00000000D+00 0.00000000D+00 0.00000000D+00
  <mgrwgt>
 0.8677143766D-02    1    2    0
 0.114856344243289D+04 0.000000000000000D+00 0.000000000000000D+00 0.114856344243289D+04
 0.114856344243289D+04 0.000000000000000D+00 0.000000000000000D+00 -.114856344243289D+04
 0.795407140300060D+03 -.139247645363109D+03 -.514510850892204D+03 -.577006236028113D+03
 0.920667598793543D+03 -.330671266451915D+02 0.759038594811778D+02 0.916937291596083D+03
 0.581052145772184D+03 0.172314772008300D+03 0.438606991411026D+03 -.339931055567970D+03
 0.000000000000000D+00 -.000000000000000D+00 0.000000000000000D+00 -.000000000000000D+00
 0.119602993589545D+04 0.000000000000000D+00 0.000000000000000D+00 0.119602993589545D+04
 0.133165358604910D+04 0.000000000000000D+00 0.000000000000000D+00 -.133165358604910D+04
 0.829304735320333D+03 -.112630465678225D+03 -.571401370151055D+03 -.577006236028113D+03
 0.917014888181210D+03 -.296091169499122D+01 0.115560126502009D+02 0.916937291596083D+03
 0.557683634161366D+03 0.190970347389334D+03 0.398733293932010D+03 -.339931055567970D+03
 0.223680264281637D+03 -.753789700161178D+02 0.161112063568844D+03 -.135623650153654D+03
0.306521704864D-02 0.000000000000D+00 0.000000000000D+00 0.360394900942D-05 0.316890068774D-08  6 2 1 25 2 1 21 2 0.26257868D+00 0.14356453D+00 0.37673126D+06 0.37673126D+06 0.37673126D+06 0.10773090D+01  1  2  1  2  6  2        1 0.867714376620D-02 0.100000000000D+01
  </mgrwgt>
  </event>
  <event>
  6     66 0.18337608E-05 0.29568044E+02 0.75467711E-02 0.92323119E-01
        2 -1    0    0  503    0 0.00000000E+00 0.00000000E+00 0.19411005E+04 0.19411005E+04 0.32000000E+00 0.0000E+00 0.9000E+01
        1 -1    0    0  502    0 0.00000000E+00 0.00000000E+00 -.60337623E+03 0.60337631E+03 0.32000000E+00 0.0000E+00 0.9000E+01
       25  1    1    2    0    0 -.47338605E+03 0.32077362E+03 0.12536225E+04 0.13835405E+04 0.12500000E+03 0.0000E+00 0.9000E+01
        2  1    1    2  501    0 -.21293635E+02 0.15302597E+02 0.26323877E+03 0.26454176E+03 0.32000000E+00 0.0000E+00 0.9000E+01
        1  1    1    2  502    0 0.49517548E+03 -.34962543E+03 -.36662581E+03 0.70841463E+03 0.32000000E+00 0.0000E+00 0.9000E+01
       21  1    1    2  503  501 -.49579542E+00 0.13549212E+02 0.18748882E+03 0.18797991E+03 0.75000000E+00 0.0000E+00 0.9000E+01
#aMCatNLO 2  0  0  1  5 0.13558280D+02 0.00000000D+00  -5  6  0 0.00000000D+00 0.00000000D+00 0.00000000D+00 0.00000000D+00 0.00000000D+00
  <mgrwgt>
 0.6087985860D-02    5    2    0
 0.102833023821480D+04 0.000000000000000D+00 0.000000000000000D+00 0.102833023821480D+04
 0.102833023821480D+04 0.000000000000000D+00 0.000000000000000D+00 -.102833023821480D+04
 0.886605418137275D+03 -.473708390501871D+03 0.326683243380037D+03 0.662814141923057D+03
 0.155723879859107D+03 -.212945679589171D+02 0.163018344314615D+02 0.153397256585592D+03
 0.101433117843323D+04 0.495002958460788D+03 -.342985077811499D+03 -.816211398508649D+03
 0.000000000000000D+00 -.000000000000000D+00 0.000000000000000D+00 0.000000000000000D+00
 0.113845773383479D+04 0.000000000000000D+00 0.000000000000000D+00 0.113845773383479D+04
 0.102876997284094D+04 0.000000000000000D+00 0.000000000000000D+00 -.102876997284094D+04
 0.884358309071504D+03 -.473494931309124D+03 0.320849781229753D+03 0.662814141923057D+03
 0.155614734263044D+03 -.212570414482266D+02 0.152763012748530D+02 0.153397256585592D+03
 0.101673212325195D+04 0.495247768180003D+03 -.349675294394244D+03 -.816211398508649D+03
 0.110522540089225D+03 -.495795422652568D+00 0.135492118896381D+02 0.109687760993846D+03
-.220732740633D-06 0.000000000000D+00 0.000000000000D+00 0.315353899085D-05 0.000000000000D+00  6 2 1 25 2 1 21 2 0.29869207D+00 0.92787328D-01 0.37911826D+06 0.37911826D+06 0.37911826D+06 0.10771103D+01  1  2 13  1  6  1        2 -.922916542311D-06 0.100000000000D+01
-.115543818708D-05 0.000000000000D+00 0.000000000000D+00 0.315353899085D-05 0.000000000000D+00  6 2 1 25 2 1 21 2 0.26974278D+00 0.92787328D-01 0.37081287D+06 0.37081287D+06 0.37081287D+06 0.10778078D+01  1  2  8  1  6  1        2 -.613987465576D-05 0.100000000000D+01
-.112993528554D-04 0.000000000000D+00 0.000000000000D+00 0.315353899085D-05 0.000000000000D+00  6 2 1 25 2 1 21 2 0.29867315D+00 0.92787328D-01 0.37081287D+06 0.37081287D+06 0.37081287D+06 0.10778078D+01  1  2  9  1  6  1        2 -.473770525725D-04 0.100000000000D+01
0.112409632504D-04 0.000000000000D+00 0.000000000000D+00 0.315353899085D-05 0.000000000000D+00  6 2 1 25 2 1 21 2 0.26974278D+00 0.92787328D-01 0.37081287D+06 0.37081287D+06 0.37081287D+06 0.10778078D+01  1  2 10  1  6  1        2 0.597332736093D-04 0.100000000000D+01
0.145496427971D-02 0.000000000000D+00 0.000000000000D+00 0.315353899085D-05 0.193445532763D-06  6 2 1 25 2 1 21 2 0.29863048D+00 0.92827005D-01 0.37911826D+06 0.37911826D+06 0.37911826D+06 0.10771103D+01  1  2  1  1  6  1        2 0.608269242972D-02 0.100000000000D+01
  </mgrwgt>
  </event>
  <event>
  5     66 0.18337608E-05 0.99787076E+02 0.75467711E-02 0.86495661E-01
        2 -1    0    0  501    0 0.00000000E+00 0.00000000E+00 0.12293028E+04 0.12293029E+04 0.32000000E+00 0.0000E+00 0.9000E+01
        1 -1    0    0  502    0 0.00000000E+00 0.00000000E+00 -.15648185E+04 0.15648186E+04 0.32000000E+00 0.0000E+00 0.9000E+01
       25  1    1    2    0    0 -.52413442E+03 0.21497952E+03 -.15860960E+02 0.58035304E+03 0.12500000E+03 0.0000E+00 0.9000E+01
        2  1    1    2  501    0 0.49232496E+02 -.86804817E+02 0.89642964E+03 0.90196736E+03 0.32000000E+00 0.0000E+00 0.9000E+01
        1  1    1    2  502    0 0.47490192E+03 -.12817471E+03 -.12160844E+04 0.13118010E+04 0.32000000E+00 0.0000E+00 0.9000E+01
#aMCatNLO 1  0  0  1  4 0.66560193D+02 0.00000000D+00  -5  6  0 0.00000000D+00 0.00000000D+00 0.00000000D+00 0.00000000D+00 0.00000000D+00
  <mgrwgt>
 0.4652720984D-01    3    2    0
 0.138695203635924D+04 0.000000000000000D+00 0.000000000000000D+00 0.138695203635924D+04
 0.138695203635924D+04 0.000000000000000D+00 0.000000000000000D+00 -.138695203635924D+04
 0.582716155507101D+03 -.524180494849051D+03 0.214988443426786D+03 0.542945292060601D+02
 0.101689401240194D+04 0.492289008991951D+02 -.867984785298105D+02 0.101198615202980D+04
 0.117429390480944D+04 0.474951593949856D+03 -.128189964896975D+03 -.106628068123586D+04
 0.000000000000000D+00 -.000000000000000D+00 -.000000000000000D+00 -.000000000000000D+00
 0.151285060095962D+04 0.000000000000000D+00 0.000000000000000D+00 0.151285060095962D+04
 0.299197762259185D+04 0.000000000000000D+00 0.000000000000000D+00 -.299197762259185D+04
 0.555058235402097D+03 -.430067719583872D+03 0.323355076282884D+03 0.542945292060601D+02
 0.104125638851363D+04 0.219472006818040D+03 0.109228810044001D+03 0.101198615202980D+04
 0.126730226688409D+04 0.676912012140752D+03 0.104358383909976D+03 -.106628068123586D+04
 0.164121133275166D+04 -.466316299374919D+03 -.536942270236861D+03 -.147912702163223D+04
0.427607488081D-01 0.000000000000D+00 0.000000000000D+00 0.283256735494D-04 0.000000000000D+00  6 2 1 25 2 1 21 0 0.18912352D+00 0.24074132D+00 0.34334625D+06 0.34334625D+06 0.34334625D+06 0.10802420D+01  1  2  2  1  6  1        2 0.685554437470D-01 0.100000000000D+01
0.120490306915D-01 0.000000000000D+00 -.164212534587D-03 0.283256735494D-04 0.000000000000D+00  6 2 1 25 2 1 21 2 0.18912352D+00 0.24074132D+00 0.34334625D+06 0.34334625D+06 0.34334625D+06 0.10802420D+01  1  2  3  1  6  1        2 0.225419190453D-01 0.100000000000D+01
-.238234881324D-01 0.000000000000D+00 0.000000000000D+00 0.283256735494D-04 0.000000000000D+00  6 2 1 25 2 1 21 2 0.18912352D+00 0.24074132D+00 0.34334625D+06 0.34334625D+06 0.34334625D+06 0.10802420D+01  1  2 15  1  6  1        2 -.445701529532D-01 0.100000000000D+01
  </mgrwgt>
  </event>
  <event>
  5     66 0.18337608E-05 0.95618408E+02 0.75467711E-02 0.88583011E-01
        2 -1    0    0  501    0 0.00000000E+00 0.00000000E+00 0.22338146E+04 0.22338146E+04 0.32000000E+00 0.0000E+00 0.9000E+01
        1 -1    0    0  502    0 0.00000000E+00 0.00000000E+00 -.97140032E+03 0.97140037E+03 0.32000000E+00 0.0000E+00 0.9000E+01
       25  1    1    2    0    0 -.66199556E+03 -.36537296E+03 0.96681033E+03 0.12337272E+04 0.12500000E+03 0.0000E+00 0.9000E+01
        2  1    1    2  501    0 0.63478581E+02 0.71540368E+02 0.99826288E+03 0.10028342E+04 0.32000000E+00 0.0000E+00 0.9000E+01
        1  1    1    2  502    0 0.59851698E+03 0.29383259E+03 -.70265893E+03 0.96865362E+03 0.32000000E+00 0.0000E+00 0.9000E+01
#aMCatNLO 1  0  0  1  2 0.66934766D+02 0.00000000D+00  -5  6  0 0.00000000D+00 0.00000000D+00 0.00000000D+00 0.00000000D+00 0.00000000D+00
  <mgrwgt>
 0.1068386336D-02    7    2    0
 0.147306766462200D+04 0.000000000000000D+00 0.000000000000000D+00 0.147306766462200D+04
 0.147306766462200D+04 0.000000000000000D+00 0.000000000000000D+00 -.147306766462200D+04
 0.928077867699367D+03 -.662044889799060D+03 -.365388429279109D+03 0.523346336715277D+03
 0.663098639607593D+03 0.634623599790556D+02 0.715220859927285D+02 0.656168367060298D+03
 0.135495882193704D+04 0.598582529820004D+03 0.293866343286381D+03 -.117951470377558D+04
 0.000000000000000D+00 0.000000000000000D+00 -.000000000000000D+00 0.000000000000000D+00
 0.178087727541294D+04 0.000000000000000D+00 0.000000000000000D+00 0.178087727541294D+04
 0.151014893772044D+04 0.000000000000000D+00 0.000000000000000D+00 -.151014893772044D+04
 0.922878787839546D+03 -.684498863568532D+03 -.306023160339667D+03 0.523346336715277D+03
 0.667711531187055D+03 0.473182884375912D+02 0.114204827082398D+03 0.656168367060298D+03
 0.136248143156495D+04 0.565617234825306D+03 0.381022123511304D+03 -.117951470377558D+04
 0.337954462541827D+03 0.715633403056355D+02 -.189203790254035D+03 0.270728337692496D+03
0.278140576477D-03 0.000000000000D+00 0.000000000000D+00 0.462623356672D-05 0.000000000000D+00  6 2 1 25 2 1 21 0 0.34366379D+00 0.14944621D+00 0.58437620D+06 0.58437620D+06 0.58437620D+06 0.10637568D+01  1  2  2  1  6  1        2 0.313428491446D-03 0.100000000000D+01
0.698431227506D-04 0.000000000000D+00 -.106813304977D-05 0.462623356672D-05 0.000000000000D+00  6 2 1 25 2 1 21 2 0.34366379D+00 0.14944621D+00 0.58437620D+06 0.58437620D+06 0.58437620D+06 0.10637568D+01  1  2  3  1  6  1        2 0.890599541108D-04 0.100000000000D+01
-.187622338132D-03 0.000000000000D+00 0.000000000000D+00 0.462623356672D-05 0.000000000000D+00  6 2 1 25 2 1 21 2 0.34366379D+00 0.14944621D+00 0.58437620D+06 0.58437620D+06 0.58437620D+06 0.10637568D+01  1  2 15  1  6  1        2 -.239245270918D-03 0.100000000000D+01
-.147295008406D-04 0.000000000000D+00 0.000000000000D+00 0.462623356672D-05 0.000000000000D+00  6 2 1 25 2 1 21 2 0.34366379D+00 0.14944621D+00 0.58437620D+06 0.58437620D+06 0.58437620D+06 0.10637568D+01  1  2  4  1  6  1        2 -.187822167348D-04 0.100000000000D+01
-.145533011803D-02 0.000000000000D+00 -.261717074194D-03 0.462623356672D-05 0.000000000000D+00  6 2 1 25 2 1 21 2 0.41849212D+00 0.14944621D+00 0.58437620D+06 0.58437620D+06 0.58437620D+06 0.10637568D+01  1  2  5  1  6  1        2 -.964880626582D-03 0.100000000000D+01
0.148301555997D-02 0.000000000000D+00 0.256719718833D-03 0.462623356672D-05 0.000000000000D+00  6 2 1 25 2 1 21 2 0.34366379D+00 0.14944621D+00 0.58437620D+06 0.58437620D+06 0.58437620D+06 0.10637568D+01  1  2  6  1  6  1        2 0.189105659248D-02 0.100000000000D+01
-.382288376950D-04 0.000000000000D+00 -.740290561419D-05 0.462623356672D-05 0.000000000000D+00  6 21 1 25 2 1 -2 2 0.41849212D+00 0.14944621D+00 0.58437620D+06 0.58437620D+06 0.58437620D+06 0.10637568D+01  1  2  5  5  6  1        2 -.225058741340D-05 0.100000000000D+01
  </mgrwgt>
  </event>
  <event>
  5     66 0.18337608E-05 0.27986473E+03 0.75467711E-02 0.89891363E-01
        2 -1    0    0  501    0 0.00000000E+00 0.00000000E+00 0.16547273E+04 0.16547273E+04 0.32000000E+00 0.0000E+00 0.9000E+01
        1 -1    0    0  502    0 0.00000000E+00 0.00000000E+00 -.52184289E+03 0.52184299E+03 0.32000000E+00 0.0000E+00 0.9000E+01
       25  1    1    2    0    0 -.35249300E+03 -.35788010E+03 0.37000230E+03 0.63628310E+03 0.12500000E+03 0.0000E+00 0.9000E+01
        2  1    1    2  501    0 0.64655364E+03 0.11866505E+03 0.91935632E+03 0.11301899E+04 0.32000000E+00 0.0000E+00 0.9000E+01
        1  1    1    2  502    0 -.29406064E+03 0.23921505E+03 -.15647426E+03 0.41009730E+03 0.32000000E+00 0.0000E+00 0.9000E+01
#aMCatNLO 1  0  0  4  1 0.16094463D+02 0.00000000D+00  -5  6  0 0.00000000D+00 0.00000000D+00 0.00000000D+00 0.00000000D+00 0.00000000D+00
  <mgrwgt>
 0.1724999874D-03    8    2    0
 0.929251200677121D+03 0.000000000000000D+00 0.000000000000000D+00 0.929251200677121D+03
 0.929251200677121D+03 -.000000000000000D+00 -.000000000000000D+00 -.929251200677121D+03
 0.519627992453894D+03 -.352446608975964D+03 -.357907127480638D+03 0.455206157863141D+02
 0.763164043386876D+03 0.646521298521880D+03 0.118659114002535D+03 0.387749380838088D+03
 0.575710365513472D+03 -.294074689545916D+03 0.239248013478104D+03 -.433269996624403D+03
 0.000000000000000D+00 0.000000000000000D+00 0.000000000000000D+00 0.000000000000000D+00
 0.929251200677121D+03 0.000000000000000D+00 0.000000000000000D+00 0.929251200677121D+03
 0.929251200677121D+03 -.000000000000000D+00 -.000000000000000D+00 -.929251200677121D+03
 0.519293141681809D+03 -.352001202673422D+03 -.357825379953756D+03 0.457877469982743D+02
 0.686518081794060D+03 0.572965932495909D+03 0.108466745298979D+03 0.362287292067408D+03
 0.575273351391956D+03 -.293581239769230D+03 0.239338578651192D+03 -.432974051470203D+03
 0.774178264864160D+02 0.726165099467429D+02 0.100200560035846D+02 0.248990124045200D+02
0.755528564199D-06 0.000000000000D+00 0.000000000000D+00 0.488121396219D-08 0.000000000000D+00  6 2 1 25 2 1 21 0 0.25457343D+00 0.80283532D-01 0.60377099D+06 0.60377099D+06 0.60377099D+06 0.10627697D+01  1  2  2  3  6  4        2 0.469885480602D-05 0.100000000000D+01
0.893838324607D-08 0.000000000000D+00 -.290142862177D-08 0.488121396219D-08 0.000000000000D+00  6 2 1 25 2 1 21 2 0.25457343D+00 0.80283532D-01 0.60377099D+06 0.60377099D+06 0.60377099D+06 0.10627697D+01  1  2  3  3  6  4        2 0.627882564865D-07 0.100000000000D+01
-.494535760629D-06 0.000000000000D+00 0.000000000000D+00 0.488121396219D-08 0.000000000000D+00  6 2 1 25 2 1 21 2 0.25457343D+00 0.80283532D-01 0.60377099D+06 0.60377099D+06 0.60377099D+06 0.10627697D+01  1  2 15  3  6  4        2 -.347389872701D-05 0.100000000000D+01
0.730621391762D-04 0.000000000000D+00 0.000000000000D+00 0.488121396219D-08 0.000000000000D+00  6 2 1 25 2 1 21 2 0.25457343D+00 0.80283532D-01 0.60256069D+06 0.60256069D+06 0.60256069D+06 0.10628303D+01  1  2 12  3  6  4        2 0.513341732975D-03 0.100000000000D+01
0.592724267896D-06 0.000000000000D+00 0.000000000000D+00 0.488121396219D-08 0.000000000000D+00  6 2 1 25 2 1 21 2 0.25457343D+00 0.80283532D-01 0.60256069D+06 0.60256069D+06 0.60256069D+06 0.10628303D+01  1  2 12  3  6  4        2 0.416453865557D-05 0.100000000000D+01
-.572434340600D-04 0.000000000000D+00 0.000000000000D+00 0.488121396219D-08 0.000000000000D+00  6 2 1 25 2 1 21 2 0.25457343D+00 0.80283532D-01 0.60377099D+06 0.60377099D+06 0.60377099D+06 0.10627697D+01  1  2  4  3  6  4        2 -.402110238617D-03 0.100000000000D+01
-.745674916037D-04 0.000000000000D+00 0.000000000000D+00 0.488121396219D-08 0.000000000000D+00  6 2 1 25 2 1 21 2 0.25457343D+00 0.80283532D-01 0.60377099D+06 0.60377099D+06 0.60377099D+06 0.10627697D+01  1  2  5  3  6  4        2 -.523804211508D-03 0.100000000000D+01
0.825133513008D-04 0.000000000000D+00 -.000000000000D+00 0.488121396219D-08 0.000000000000D+00  6 2 1 25 2 1 21 2 0.25457343D+00 0.80283532D-01 0.60377099D+06 0.60377099D+06 0.60377099D+06 0.10627697D+01  1  2  6  3  6  4        2 0.579620421547D-03 0.100000000000D+01
  </mgrwgt>
  </event>
  <event>
  5     66 0.18337608E-05 0.15911324E+02 0.75467711E-02 0.92813397E-01
        2 -1    0    0  501    0 0.00000000E+00 0.00000000E+00 0.63207768E+03 0.63207776E+03 0.32000000E+00 0.0000E+00 0.9000E+01
        1 -1    0    0  502    0 -.00000000E+00 -.00000000E+00 -.11618789E+04 0.11618789E+04 0.32000000E+00 0.0000E+00 0.9000E+01
       25  1    1    2    0    0 0.46658120E+03 -.27346977E+03 -.48959760E+03 0.74014494E+03 0.12500000E+03 0.0000E+00 0.9000E+01
        2  1    1    2  501    0 -.46743056E+03 0.28935872E+03 0.35751686E+03 0.65577298E+03 0.32000000E+00 0.0000E+00 0.9000E+01
        1  1    1    2  502    0 0.84936636E+00 -.15888949E+02 -.39772046E+03 0.39803875E+03 0.32000000E+00 0.0000E+00 0.9000E+01
#aMCatNLO 1  0  0  4  2 0.14689978D+03 0.00000000D+00  -5  6  0 0.00000000D+00 0.00000000D+00 0.00000000D+00 0.00000000D+00 0.00000000D+00
  <mgrwgt>
 0.1647277149D-02    4    2    0
 0.856970134361537D+03 0.000000000000000D+00 0.000000000000000D+00 0.856970134361537D+03
 0.856970134361537D+03 -.000000000000000D+00 -.000000000000000D+00 -.856970134361537D+03
 0.623361138019867D+03 0.466582061491958D+03 -.273470445299356D+03 -.283670942881202D+03
 0.796902253082824D+03 -.467431174287167D+03 0.289359096633501D+03 0.576916468363007D+03
 0.293676877620383D+03 0.849112795209421D+00 -.158886513341446D+02 -.293245525481806D+03
 0.000000000000000D+00 -.000000000000000D+00 0.000000000000000D+00 0.000000000000000D+00
 0.856970134361537D+03 0.000000000000000D+00 0.000000000000000D+00 0.856970134361537D+03
 0.856970134361537D+03 -.000000000000000D+00 -.000000000000000D+00 -.856970134361537D+03
 0.596850609436270D+03 0.449760897161833D+03 -.263057453649170D+03 -.262909797170523D+03
 0.206786147456660D+03 0.227240734463104D+02 0.142810090582967D+03 0.147815443353050D+03
 0.283722433771646D+03 -.711059478937579D+01 -.109612653940545D+02 -.283421434489364D+03
 0.626581078058497D+03 -.465374375818767D+03 0.131208628460258D+03 0.398515788306836D+03
0.393970765698D-03 0.000000000000D+00 0.000000000000D+00 0.733647453386D-05 0.000000000000D+00  6 2 1 25 2 1 21 0 0.97242729D-01 0.17875061D+00 0.31401103D+06 0.31401103D+06 0.31401103D+06 0.10830883D+01  1  2  2  3  6  4        2 0.298679920362D-02 0.100000000000D+01
0.270791081167D-03 0.000000000000D+00 -.151295147516D-05 0.733647453386D-05 0.000000000000D+00  6 2 1 25 2 1 21 2 0.97242729D-01 0.17875061D+00 0.31401103D+06 0.31401103D+06 0.31401103D+06 0.10830883D+01  1  2  3  3  6  4        2 0.240826396960D-02 0.100000000000D+01
-.253301526401D-03 0.000000000000D+00 0.000000000000D+00 0.733647453386D-05 0.000000000000D+00  6 2 1 25 2 1 21 2 0.97242729D-01 0.17875061D+00 0.31401103D+06 0.31401103D+06 0.31401103D+06 0.10830883D+01  1  2 15  3  6  4        2 -.225272168067D-02 0.100000000000D+01
-.168108685433D-03 0.000000000000D+00 0.000000000000D+00 0.733647453386D-05 0.000000000000D+00  6 2 1 25 2 1 21 2 0.97242729D-01 0.17875061D+00 0.31401103D+06 0.31401103D+06 0.31401103D+06 0.10830883D+01  1  2  5  3  6  4        2 -.149506434393D-02 0.100000000000D+01
  </mgrwgt>
  </event>
  <event>
  5     66 0.18337608E-05 0.88731899E+02 0.75467711E-02 0.89924836E-01
        2 -1    0    0  501    0 0.00000000E+00 0.00000000E+00 0.15443564E+04 0.15443564E+04 0.32000000E+00 0.0000E+00 0.9000E+01
        1 -1    0    0  502    0 0.00000000E+00 0.00000000E+00 -.27938351E+04 0.27938351E+04 0.32000000E+00 0.0000E+00 0.9000E+01
       25  1    1    2    0    0 0.50817549E+03 0.35834727E+03 -.68780583E+03 0.93560513E+03 0.12500000E+03 0.0000E+00 0.9000E+01
        2  1    1    2  501    0 -.44754467E+03 -.42312878E+03 0.13526181E+04 0.14862402E+04 0.32000000E+00 0.0000E+00 0.9000E+01
        1  1    1    2  502    0 -.60630827E+02 0.64781502E+02 -.19142910E+04 0.19163462E+04 0.32000000E+00 0.0000E+00 0.9000E+01
#aMCatNLO 1  0  0  2  2 0.44228073D+03 0.00000000D+00  -5  6  0 0.00000000D+00 0.00000000D+00 0.00000000D+00 0.00000000D+00 0.00000000D+00
  <mgrwgt>
 0.1149401936D-01    7    2    0
 0.207718013038326D+04 0.000000000000000D+00 0.000000000000000D+00 0.207718013038326D+04
 0.207718013038326D+04 0.000000000000000D+00 0.000000000000000D+00 -.207718013038326D+04
 0.770112938625362D+03 0.508176021892859D+03 0.358343043944515D+03 -.436802394530889D+03
 0.195881556723349D+04 -.447542643978354D+03 -.423126865003298D+03 0.185946972666124D+04
 0.142543175490768D+04 -.606333779145050D+02 0.647838210587826D+02 -.142266733213035D+04
 0.000000000000000D+00 -.000000000000000D+00 -.000000000000000D+00 -.000000000000000D+00
 0.210934182040265D+04 0.000000000000000D+00 0.000000000000000D+00 0.210934182040265D+04
 0.246104604627097D+04 0.000000000000000D+00 0.000000000000000D+00 -.246104604627097D+04
 0.796722924711628D+03 0.520942371909861D+03 0.396188253286314D+03 -.436802394530889D+03
 0.193361150257052D+04 -.415827716109049D+03 -.329109539544151D+03 0.185946972666124D+04
 0.142942834064829D+04 -.373723943729241D+02 0.133739849246545D+03 -.142266733213035D+04
 0.410625098743175D+03 -.677422614278884D+02 -.200818562988708D+03 -.351704225868312D+03
0.162576501978D-01 0.000000000000D+00 0.000000000000D+00 0.101011083049D-03 0.000000000000D+00  6 2 1 25 2 1 21 0 0.23759330D+00 0.42982079D+00 0.44815247D+06 0.44815247D+06 0.44815247D+06 0.10718869D+01  1  2  2  2  6  2        1 0.245701190018D-02 0.100000000000D+01
0.544849385228D-02 0.000000000000D+00 -.624336574973D-04 0.101011083049D-03 0.000000000000D+00  6 2 1 25 2 1 21 2 0.23759330D+00 0.42982079D+00 0.44815247D+06 0.44815247D+06 0.44815247D+06 0.10718869D+01  1  2  3  2  6  2        1 0.946071271534D-03 0.100000000000D+01
-.109390126192D-01 0.000000000000D+00 0.000000000000D+00 0.101011083049D-03 0.000000000000D+00  6 2 1 25 2 1 21 2 0.23759330D+00 0.42982079D+00 0.44815247D+06 0.44815247D+06 0.44815247D+06 0.10718869D+01  1  2 15  2  6  2        1 -.189943970913D-02 0.100000000000D+01
-.445136906979D-03 0.000000000000D+00 0.000000000000D+00 0.101011083049D-03 0.000000000000D+00  6 2 1 25 2 1 21 2 0.23759330D+00 0.42982079D+00 0.44815247D+06 0.44815247D+06 0.44815247D+06 0.10718869D+01  1  2  4  2  6  2        1 -.772931476129D-04 0.100000000000D+01
-.945054790064D-01 0.000000000000D+00 -.143710206036D-01 0.101011083049D-03 0.000000000000D+00  6 2 1 25 2 1 21 2 0.23759330D+00 0.51110172D+00 0.44815247D+06 0.44815247D+06 0.44815247D+06 0.10718869D+01  1  2  5  2  6  2        1 -.653631001930D-02 0.100000000000D+01
0.957674093810D-01 0.000000000000D+00 0.141581290564D-01 0.101011083049D-03 0.000000000000D+00  6 2 1 25 2 1 21 2 0.23759330D+00 0.42982079D+00 0.44815247D+06 0.44815247D+06 0.44815247D+06 0.10718869D+01  1  2  6  2  6  2        1 0.166289615481D-01 0.100000000000D+01
-.228939890072D-02 0.000000000000D+00 -.367728961031D-03 0.101011083049D-03 0.000000000000D+00  6 2 21 25 2 1 -1 2 0.23759330D+00 0.51110172D+00 0.44815247D+06 0.44815247D+06 0.44815247D+06 0.10718869D+01  1  2  5  6  6  2        1 -.249824835614D-04 0.100000000000D+01
  </mgrwgt>
  </event>
  <event>
  5     66 0.18337608E-05 0.56589318E+02 0.75467711E-02 0.94041295E-01
        2 -1    0    0  501    0 0.00000000E+00 0.00000000E+00 0.10043745E+04 0.10043746E+04 0.32000000E+00 0.0000E+00 0.9000E+01
        1 -1    0    0  502    0 0.00000000E+00 0.00000000E+00 -.31498339E+04 0.31498339E+04 0.32000000E+00 0.0000E+00 0.9000E+01
       25  1    1    2    0    0 0.19255884E+03 0.43504211E+03 -.16020982E+03 0.51733233E+03 0.12500000E+03 0.0000E+00 0.9000E+01
        2  1    1    2  501    0 -.20610356E+03 -.38010205E+03 0.76890514E+03 0.88214028E+03 0.32000000E+00 0.0000E+00 0.9000E+01
        1  1    1    2  502    0 0.13544723E+02 -.54940060E+02 -.27541547E+04 0.27547359E+04 0.32000000E+00 0.0000E+00 0.9000E+01
#aMCatNLO 1  0  0  2  4 0.55342423D+02 0.00000000D+00  -5  6  0 0.00000000D+00 0.00000000D+00 0.00000000D+00 0.00000000D+00 0.00000000D+00
  <mgrwgt>
 0.3785711429D-01    9    2    0
 0.177865486776406D+04 0.000000000000000D+00 0.000000000000000D+00 0.177865486776406D+04
 0.177865486776406D+04 0.000000000000000D+00 0.000000000000000D+00 -.177865486776406D+04
 0.507523065503095D+03 0.192552168241050D+03 0.435035719794906D+03 0.124988987618340D+03
 0.149385415627550D+04 -.206097848499740D+03 -.380091516749044D+03 0.142991410789627D+04
 0.155593251374953D+04 0.135456802586903D+02 -.549442030458628D+02 -.155490309551461D+04
 0.000000000000000D+00 -.000000000000000D+00 0.000000000000000D+00 -.000000000000000D+00
 0.180234357475399D+04 0.000000000000000D+00 0.000000000000000D+00 0.180234357475399D+04
 0.181148972583562D+04 0.000000000000000D+00 0.000000000000000D+00 -.181148972583562D+04
 0.507371488142044D+03 0.199675828208768D+03 0.431634270630539D+03 0.124988987618340D+03
 0.149368943238084D+04 -.185127941243970D+03 -.390104357597041D+03 0.142991410789627D+04
 0.155667928053434D+04 0.353934554333127D+02 -.653762136903600D+02 -.155490309551461D+04
 0.560930995323914D+02 -.499413423981106D+02 0.238463006568620D+02 -.914615108162987D+01
0.399600433662D-01 0.000000000000D+00 0.000000000000D+00 0.537919108613D-03 0.000000000000D+00  6 2 1 25 2 1 21 0 0.15451917D+00 0.48458984D+00 0.24051834D+06 0.24051834D+06 0.24051834D+06 0.10917246D+01  1  2  2  2  6  2        1 0.714974375840D-02 0.100000000000D+01
0.183117332377D-01 0.000000000000D+00 -.153457088247D-03 0.537919108613D-03 0.000000000000D+00  6 2 1 25 2 1 21 2 0.15451917D+00 0.48458984D+00 0.24051834D+06 0.24051834D+06 0.24051834D+06 0.10917246D+01  1  2  3  2  6  2        1 0.390499222955D-02 0.100000000000D+01
-.254856282890D-01 0.000000000000D+00 0.000000000000D+00 0.537919108613D-03 0.000000000000D+00  6 2 1 25 2 1 21 2 0.15451917D+00 0.48458984D+00 0.24051834D+06 0.24051834D+06 0.24051834D+06 0.10917246D+01  1  2 15  2  6  2        1 -.543483127137D-02 0.100000000000D+01
0.107755335921D-09 0.000000000000D+00 0.000000000000D+00 0.537919108613D-03 0.000000000000D+00  6 2 1 25 2 1 21 2 0.15451917D+00 0.49740693D+00 0.27731952D+06 0.27731952D+06 0.27731952D+06 0.10870868D+01  1  2 12  2  6  2        1 0.193842996906D-10 0.100000000000D+01
-.348917471754D-03 0.000000000000D+00 0.000000000000D+00 0.537919108613D-03 0.000000000000D+00  6 2 1 25 2 1 21 2 0.15451917D+00 0.48458984D+00 0.24051834D+06 0.24051834D+06 0.24051834D+06 0.10917246D+01  1  2  4  2  6  2        1 -.744069388880D-04 0.100000000000D+01
-.123874861190D+01 0.000000000000D+00 -.224851541295D+00 0.537919108613D-03 0.000000000000D+00  6 2 1 25 2 1 21 2 0.15451917D+00 0.49561943D+00 0.24051834D+06 0.24051834D+06 0.24051834D+06 0.10917246D+01  1  2  5  2  6  2        1 -.232706951756D+00 0.100000000000D+01
0.124355100111D+01 0.000000000000D+00 0.224794609872D+00 0.537919108613D-03 0.000000000000D+00  6 2 1 25 2 1 21 2 0.15451917D+00 0.48458984D+00 0.24051834D+06 0.24051834D+06 0.24051834D+06 0.10917246D+01  1  2  6  2  6  2        1 0.265188277557D+00 0.100000000000D+01
0.301380932642D-11 0.000000000000D+00 0.000000000000D+00 0.537919108613D-03 0.000000000000D+00  6 2 21 25 2 1 -1 2 0.15451917D+00 0.49740693D+00 0.27731952D+06 0.27731952D+06 0.27731952D+06 0.10870868D+01  1  2 12  6  6  2        1 0.958683182087D-13 0.100000000000D+01
-.501366194148D-02 0.000000000000D+00 -.917590982274D-03 0.537919108613D-03 0.000000000000D+00  6 2 21 25 2 1 -1 2 0.15451917D+00 0.49561943D+00 0.24051834D+06 0.24051834D+06 0.24051834D+06 0.10917246D+01  1  2  5  6  6  2        1 -.169709310259D-03 0.100000000000D+01
  </mgrwgt>
  </event>
  <event>
  5     66 0.18337608E-05 0.11167532E+03 0.75467711E-02 0.89365409E-01
        2 -1    0    0  501    0 0.00000000E+00 0.00000000E+00 0.81456678E+03 0.81456685E+03 0.32000000E+00 0.0000E+00 0.9000E+01
        1 -1    0    0  502    0 -.00000000E+00 -.00000000E+00 -.13417674E+04 0.13417675E+04 0.32000000E+00 0.0000E+00 0.9000E+01
       25  1    1    2    0    0 0.60323383E+02 -.47872148E+03 -.13317253E+03 0.51591965E+03 0.12500000E+03 0.0000E+00 0.9000E+01
        2  1    1    2  501    0 -.34964510E+00 0.38453338E+03 0.56030874E+03 0.67956754E+03 0.32000000E+00 0.0000E+00 0.9000E+01
        1  1    1    2  502    0 -.59973738E+02 0.94188098E+02 -.95433688E+03 0.96084714E+03 0.32000000E+00 0.0000E+00 0.9000E+01
#aMCatNLO 1  0  0  5  2 0.18462154D+02 0.00000000D+00  -5  6  0 0.00000000D+00 0.00000000D+00 0.00000000D+00 0.00000000D+00 0.00000000D+00
  <mgrwgt>
 0.1545955604D-01    4    2    0
 0.104544694019690D+04 0.000000000000000D+00 0.000000000000000D+00 0.104544694019690D+04
 0.104544694019690D+04 -.000000000000000D+00 -.000000000000000D+00 -.104544694019690D+04
 0.498479598038607D+03 0.603303859277584D+02 -.478712714699364D+03 -.716177210644919D+01
 0.842067630732966D+03 -.349626082257716D+00 0.384512469640225D+03 0.749151475458074D+03
 0.750346651622220D+03 -.599807598455004D+02 0.942002450591391D+02 -.741989703351625D+03
 0.000000000000000D+00 0.000000000000000D+00 0.000000000000000D+00 0.000000000000000D+00
 0.104544694019690D+04 0.000000000000000D+00 0.000000000000000D+00 0.104544694019690D+04
 0.104544694019690D+04 -.000000000000000D+00 -.000000000000000D+00 -.104544694019690D+04
 0.501298823844602D+03 0.494308874001221D+02 -.461594968359209D+03 -.141993603180843D+03
 0.681516622507037D+03 -.169596108163143D+02 0.410598578525923D+03 0.543678292436666D+03
 0.402714320448873D+03 -.253306341586983D+03 0.311697590892516D+03 -.293143827875950D+02
 0.505364113593283D+03 0.220835065003175D+03 -.260701201059232D+03 -.372370306468228D+03
0.792495874159D-02 0.000000000000D+00 0.000000000000D+00 0.138613440794D-04 0.000000000000D+00  6 2 1 25 2 1 21 0 0.12531797D+00 0.20642577D+00 0.24731530D+06 0.24731530D+06 0.24731530D+06 0.10908120D+01  1  2  2  4  6  5        1 0.332337754155D-01 0.100000000000D+01
0.163249760749D-02 0.000000000000D+00 -.304339282573D-04 0.138613440794D-04 0.000000000000D+00  6 2 1 25 2 1 21 2 0.12531797D+00 0.20642577D+00 0.24731530D+06 0.24731530D+06 0.24731530D+06 0.10908120D+01  1  2  3  4  6  5        1 0.814582484594D-02 0.100000000000D+01
-.507603335135D-02 0.000000000000D+00 0.000000000000D+00 0.138613440794D-04 0.000000000000D+00  6 2 1 25 2 1 21 2 0.12531797D+00 0.20642577D+00 0.24731530D+06 0.24731530D+06 0.24731530D+06 0.10908120D+01  1  2 15  4  6  5        1 -.253283547875D-01 0.100000000000D+01
-.118579959344D-03 0.000000000000D+00 0.000000000000D+00 0.138613440794D-04 0.000000000000D+00  6 2 1 25 2 1 21 2 0.12531797D+00 0.20642577D+00 0.24731530D+06 0.24731530D+06 0.24731530D+06 0.10908120D+01  1  2  4  4  6  5        1 -.591689430125D-03 0.100000000000D+01
  </mgrwgt>
  </event>
  <event>
  6     66 0.18337608E-05 0.44014298E+02 0.75467711E-02 0.94557342E-01
        2 -1    0    0  501    0 0.00000000E+00 0.00000000E+00 0.11607142E+04 0.11607142E+04 0.32000000E+00 0.0000E+00 0.9000E+01
        1 -1    0    0  503    0 0.00000000E+00 0.00000000E+00 -.78832810E+03 0.78832816E+03 0.32000000E+00 0.0000E+00 0.9000E+01
       25  1    1    2    0    0 0.45929326E+03 0.83092040E+02 0.42384210E+03 0.64274545E+03 0.12500000E+03 0.0000E+00 0.9000E+01
        2  1    1    2  501    0 -.60265875E+01 0.49860036E+02 0.52999407E+03 0.53236844E+03 0.32000000E+00 0.0000E+00 0.9000E+01
        1  1    1    2  502    0 -.44199221E+03 -.12784565E+03 -.45575074E+03 0.64761907E+03 0.32000000E+00 0.0000E+00 0.9000E+01
       21  1    1    2  503  502 -.11274465E+02 -.51064288E+01 -.12569934E+03 0.12630944E+03 0.75000000E+00 0.0000E+00 0.9000E+01
#aMCatNLO 2  0  0  2  5 0.12376961D+02 0.00000000D+00  -5  6  0 0.00000000D+00 0.00000000D+00 0.00000000D+00 0.00000000D+00 0.00000000D+00
  <mgrwgt>
 0.2079727799D-01    3    2    0
 0.876657452080045D+03 0.000000000000000D+00 0.000000000000000D+00 0.876657452080045D+03
 0.876657452080045D+03 0.000000000000000D+00 0.000000000000000D+00 -.876657452080045D+03
 0.544725704048039D+03 0.455856230371718D+03 0.815391716865354D+02 0.258161874339710D+03
 0.402616159616397D+03 -.861341872912869D+01 0.486673059867969D+02 0.399571112982458D+03
 0.805973040495653D+03 -.447242811642590D+03 -.130206477673332D+03 -.657732987322168D+03
 0.000000000000000D+00 -.000000000000000D+00 -.000000000000000D+00 -.000000000000000D+00
 0.876908917177469D+03 0.000000000000000D+00 0.000000000000000D+00 0.876908917177469D+03
 0.104346294787074D+04 0.000000000000000D+00 0.000000000000000D+00 -.104346294787074D+04
 0.547908078937433D+03 0.459369206719704D+03 0.831302683745538D+02 0.258161874339710D+03
 0.402712544326336D+03 -.602416994938215D+01 0.498400281317303D+02 0.399571112982458D+03
 0.802737965935675D+03 -.442070572046541D+03 -.127863867739272D+03 -.657732987322168D+03
 0.167013275848765D+03 -.112744647237811D+02 -.510642876701222D+01 -.166554030693272D+03
-.988337723214D-02 0.000000000000D+00 0.000000000000D+00 0.100903900790D-04 0.000000000000D+00  6 2 1 25 2 1 21 2 0.17852004D+00 0.12146569D+00 0.25303241D+06 0.25303241D+06 0.25303241D+06 0.10900654D+01  1  2 13  2  6  2        1 -.779065715654D-01 0.100000000000D+01
-.340263267779D-07 0.000000000000D+00 0.000000000000D+00 0.100903900790D-04 0.000000000000D+00  6 2 1 25 2 1 21 2 0.17852004D+00 0.12131282D+00 0.25303241D+06 0.25303241D+06 0.25303241D+06 0.10900654D+01  1  2 13  2  6  2        1 -.268751578968D-06 0.100000000000D+01
0.124972384520D-01 0.000000000000D+00 0.000000000000D+00 0.100903900790D-04 0.532330787003D-06  6 2 1 25 2 1 21 2 0.17857125D+00 0.12128114D+00 0.25303241D+06 0.25303241D+06 0.25303241D+06 0.10900654D+01  1  2  1  2  6  2        1 0.987041183031D-01 0.100000000000D+01
  </mgrwgt>
  </event>
  <event>
  6     66 0.18337608E-05 0.50049914E+02 0.75467711E-02 0.93303380E-01
        2 -1    0    0  501    0 0.00000000E+00 0.00000000E+00 0.30948964E+04 0.30948964E+04 0.32000000E+00 0.0000E+00 0.9000E+01
        1 -1    0    0  502    0 0.00000000E+00 0.00000000E+00 -.71815330E+03 0.71815337E+03 0.32000000E+00 0.0000E+00 0.9000E+01
       25  1    1    2    0    0 -.21203008E+03 0.49901999E+03 0.19646888E+03 0.59008705E+03 0.12500000E+03 0.0000E+00 0.9000E+01
        2  1    1    2  501    0 0.66753984E+02 -.34983270E+02 0.25759259E+04 0.25770282E+04 0.32000000E+00 0.0000E+00 0.9000E+01
        1  1    1    2  503    0 0.76090715E+02 -.36556425E+03 -.22121102E+03 0.43400626E+03 0.32000000E+00 0.0000E+00 0.9000E+01
       21  1    1    2  502  503 0.69185385E+02 -.98472472E+02 -.17444072E+03 0.21192823E+03 0.75000000E+00 0.0000E+00 0.9000E+01
#aMCatNLO 2  0  0  5  2 0.36373342D+01 0.00000000D+00  -5  6  0 0.00000000D+00 0.00000000D+00 0.00000000D+00 0.00000000D+00 0.00000000D+00
  <mgrwgt>
 0.2116159686D-01    1    2    0
 0.149084211053003D+04 0.000000000000000D+00 0.000000000000000D+00 0.149084211053003D+04
 0.149084211053003D+04 -.000000000000000D+00 -.000000000000000D+00 -.149084211053003D+04
 0.598144362147362D+03 -.212310057710034D+03 0.499914544796692D+03 -.217167136704780D+03
 0.124618495630698D+04 0.661798944763965D+02 -.331515735213013D+02 0.124398478289165D+04
 0.113735490260572D+04 0.146130163233637D+03 -.466762971275391D+03 -.102681764618687D+04
 0.000000000000000D+00 0.000000000000000D+00 0.000000000000000D+00 -.000000000000000D+00
 0.149084211053003D+04 0.000000000000000D+00 0.000000000000000D+00 0.149084211053003D+04
 0.149084211053003D+04 -.000000000000000D+00 -.000000000000000D+00 -.149084211053003D+04
 0.598017706627750D+03 -.212034393239305D+03 0.499034028655567D+03 -.219104157349304D+03
 0.124224334663290D+04 0.667533713395936D+02 -.349833497863809D+02 0.123995511406914D+04
 0.731114101363950D+03 0.760583931251985D+02 -.365491915258167D+03 -.628616425118965D+03
 0.410309066435468D+03 0.692226287745126D+02 -.985587636110194D+02 -.392234531600876D+03
0.305301402145D-01 0.000000000000D+00 0.000000000000D+00 0.703641870557D-04 0.736198200608D-07  6 2 1 25 2 1 21 2 0.47613791D+00 0.11048513D+00 0.31672111D+06 0.31672111D+06 0.31672111D+06 0.10828134D+01  1  2  1  4  6  5        1 0.211615968595D-01 0.100000000000D+01
  </mgrwgt>
  </event>
  <event>
  6     66 0.18337608E-05 0.85740490E+02 0.75467711E-02 0.89054602E-01
        2 -1    0    0  501    0 0.00000000E+00 0.00000000E+00 0.79287427E+03 0.79287434E+03 0.32000000E+00 0.0000E+00 0.9000E+01
        1 -1    0    0  503    0 0.00000000E+00 0.00000000E+00 -.11205021E+04 0.11205022E+04 0.32000000E+00 0.0000E+00 0.9000E+01
       25  1    1    2    0    0 0.49664868E+03 -.65351748E+03 -.15749773E+03 0.84508907E+03 0.12500000E+03 0.0000E+00 0.9000E+01
        2  1    1    2  501    0 -.95751135E+02 0.11044595E+02 0.19213312E+03 0.21495465E+03 0.32000000E+00 0.0000E+00 0.9000E+01
        1  1    1    2  502    0 -.39874716E+03 0.62146922E+03 -.31735340E+03 0.80370180E+03 0.32000000E+00 0.0000E+00 0.9000E+01
       21  1    1    2  503  502 -.21503861E+01 0.21003664E+02 -.44909871E+02 0.49631009E+02 0.75000000E+00 0.0000E+00 0.9000E+01
#aMCatNLO 2  0  0  2  5 0.21113457D+02 0.00000000D+00  -5  6  0 0.00000000D+00 0.00000000D+00 0.00000000D+00 0.00000000D+00 0.00000000D+00
  <mgrwgt>
 0.8376894368D-03    4    2    0
 0.921028246195766D+03 0.000000000000000D+00 0.000000000000000D+00 0.921028246195766D+03
 0.921028246195766D+03 0.000000000000000D+00 0.000000000000000D+00 -.921028246195766D+03
 0.822923399409397D+03 0.495707454512998D+03 -.644191635785517D+03 -.294818116767139D+02
 0.246983881032749D+03 -.959510950762326D+02 0.138490663903686D+02 0.227162118769363D+03
 0.772149211949386D+03 -.399756359436766D+03 0.630342569395148D+03 -.197680307092649D+03
 0.000000000000000D+00 -.000000000000000D+00 0.000000000000000D+00 -.000000000000000D+00
 0.923835987881730D+03 0.000000000000000D+00 0.000000000000000D+00 0.923835987881730D+03
 0.961654682116173D+03 0.000000000000000D+00 0.000000000000000D+00 -.961654682116173D+03
 0.830901394453858D+03 0.496672746605695D+03 -.653620021774716D+03 -.294818116767139D+02
 0.246730181458928D+03 -.956629277429426D+02 0.110344231665279D+02 0.227162118769363D+03
 0.764545912609356D+03 -.398859432713858D+03 0.621581934752457D+03 -.197680307092649D+03
 0.433131814757608D+02 -.215038614889409D+01 0.210036638557307D+02 -.378186942344432D+02
-.365210682081D-03 0.000000000000D+00 0.000000000000D+00 0.210836156850D-07 0.000000000000D+00  6 2 1 25 2 1 21 2 0.12160951D+00 0.17319350D+00 0.71093290D+06 0.71093290D+06 0.71093290D+06 0.10578720D+01  1  2 13  2  6  2        1 -.240277595156D-02 0.100000000000D+01
-.106207254079D-05 0.000000000000D+00 0.000000000000D+00 0.210836156850D-07 0.000000000000D+00  6 2 1 25 2 1 21 2 0.12160951D+00 0.17336612D+00 0.71093290D+06 0.71093290D+06 0.71093290D+06 0.10578720D+01  1  2 13  2  6  2        1 -.697425041754D-05 0.100000000000D+01
-.817776893126D-03 0.000000000000D+00 0.000000000000D+00 0.210836156850D-07 0.000000000000D+00  6 2 1 25 2 1 21 2 0.12160951D+00 0.16510173D+00 0.69368623D+06 0.69368623D+06 0.69368623D+06 0.10586037D+01  1  2  8  2  6  2        1 -.590226673790D-02 0.100000000000D+01
0.138380922880D-02 0.000000000000D+00 0.000000000000D+00 0.210836156850D-07 0.567040409328D-09  6 2 1 25 2 1 21 2 0.12198024D+00 0.17238435D+00 0.71093290D+06 0.71093290D+06 0.71093290D+06 0.10578720D+01  1  2  1  2  6  2        1 0.914970637669D-02 0.100000000000D+01
  </mgrwgt>
  </event>
  <event>
  5     66 0.18337608E-05 0.63324236E+02 0.75467711E-02 0.89116697E-01
        2 -1    0    0  501    0 0.00000000E+00 0.00000000E+00 0.16691493E+04 0.16691493E+04 0.32000000E+00 0.0000E+00 0.9000E+01
        1 -1    0    0  502    0 0.00000000E+00 0.00000000E+00 -.77956530E+03 0.77956537E+03 0.32000000E+00 0.0000E+00 0.9000E+01
       25  1    1    2    0    0 0.33608604E+03 -.40268523E+03 0.39564795E+03 0.66878362E+03 0.12500000E+03 0.0000E+00 0.9000E+01
        2  1    1    2  501    0 0.19805763E+02 -.60158473E+02 0.10031919E+04 0.10051892E+04 0.32000000E+00 0.0000E+00 0.9000E+01
        1  1    1    2  502    0 -.35589181E+03 0.46284370E+03 -.50925586E+03 0.77474183E+03 0.32000000E+00 0.0000E+00 0.9000E+01
#aMCatNLO 1  0  0  1  5 0.12009147D+03 0.00000000D+00  -5  6  0 0.00000000D+00 0.00000000D+00 0.00000000D+00 0.00000000D+00 0.00000000D+00
  <mgrwgt>
 0.2519095651D-01    4    2    0
 0.114070635100275D+04 0.000000000000000D+00 0.000000000000000D+00 0.114070635100275D+04
 0.114070635100275D+04 0.000000000000000D+00 0.000000000000000D+00 -.114070635100275D+04
 0.563654451367250D+03 0.336134447043469D+03 -.402751935715693D+03 0.163969059075669D+03
 0.687615052136425D+03 0.198024265783919D+02 -.601483395418620D+02 0.684692997683300D+03
 0.103014319850183D+04 -.355936873621861D+03 0.462900275257554D+03 -.848662056758969D+03
 0.000000000000000D+00 -.000000000000000D+00 -.000000000000000D+00 -.000000000000000D+00
 0.120532895173156D+04 0.000000000000000D+00 0.000000000000000D+00 0.120532895173156D+04
 0.201479004714421D+04 0.000000000000000D+00 0.000000000000000D+00 -.201479004714421D+04
 0.598480765651254D+03 0.429303312886980D+03 -.362445913295508D+03 0.163969059075669D+03
 0.697184251042043D+03 0.130822365229789D+03 -.121197186516317D+02 0.684692997683300D+03
 0.102083058859562D+04 -.191509448292749D+03 0.534033646172898D+03 -.848662056758969D+03
 0.903623393586857D+03 -.368616229824020D+03 -.159468014225758D+03 -.809461095412650D+03
0.990882855404D-02 0.000000000000D+00 0.000000000000D+00 0.128114529964D-04 0.000000000000D+00  6 2 1 25 2 1 21 0 0.25679220D+00 0.11993313D+00 0.35196122D+06 0.35196122D+06 0.35196122D+06 0.10794563D+01  1  2  2  1  6  1        2 0.342088512094D-01 0.100000000000D+01
0.359375235972D-02 0.000000000000D+00 -.380525107020D-04 0.128114529964D-04 0.000000000000D+00  6 2 1 25 2 1 21 2 0.25679220D+00 0.11993313D+00 0.35196122D+06 0.35196122D+06 0.35196122D+06 0.10794563D+01  1  2  3  1  6  1        2 0.144568764324D-01 0.100000000000D+01
-.549661812457D-02 0.000000000000D+00 0.000000000000D+00 0.128114529964D-04 0.000000000000D+00  6 2 1 25 2 1 21 2 0.25679220D+00 0.11993313D+00 0.35196122D+06 0.35196122D+06 0.35196122D+06 0.10794563D+01  1  2 15  1  6  1        2 -.221116874701D-01 0.100000000000D+01
-.338841184458D-03 0.000000000000D+00 0.000000000000D+00 0.128114529964D-04 0.000000000000D+00  6 2 1 25 2 1 21 2 0.25679220D+00 0.11993313D+00 0.35196122D+06 0.35196122D+06 0.35196122D+06 0.10794563D+01  1  2  4  1  6  1        2 -.136308366398D-02 0.100000000000D+01
  </mgrwgt>
  </event>
  <event>
  5     66 0.18337608E-05 0.23920712E+03 0.75467711E-02 0.91320464E-01
        2 -1    0    0  501    0 0.00000000E+00 0.00000000E+00 0.30965465E+04 0.30965465E+04 0.32000000E+00 0.0000E+00 0.9000E+01
        1 -1    0    0  502    0 0.00000000E+00 0.00000000E+00 -.11846227E+04 0.11846227E+04 0.32000000E+00 0.0000E+00 0.9000E+01
       25  1    1    2    0    0 0.22550746E+03 -.44805329E+03 0.23381968E+03 0.56736409E+03 0.12500000E+03 0.0000E+00 0.9000E+01
        2  1    1    2  501    0 -.20019212E+03 0.21020589E+03 0.26739380E+04 0.26896483E+04 0.32000000E+00 0.0000E+00 0.9000E+01
        1  1    1    2  502    0 -.25315345E+02 0.23784740E+03 -.99583384E+03 0.10241569E+04 0.32000000E+00 0.0000E+00 0.9000E+01
#aMCatNLO 1  0  0  5  2 0.29600289D+03 0.00000000D+00  -5  6  0 0.00000000D+00 0.00000000D+00 0.00000000D+00 0.00000000D+00 0.00000000D+00
  <mgrwgt>
 0.3397108385D-02    6    2    0
 0.191526483833303D+04 0.000000000000000D+00 0.000000000000000D+00 0.191526483833303D+04
 0.191526483833303D+04 -.000000000000000D+00 -.000000000000000D+00 -.191526483833303D+04
 0.517412984770855D+03 0.225505946370515D+03 -.448065499055893D+03 -.218076481266757D+02
 0.167140169545120D+04 -.200188369349271D+03 0.210201950813044D+03 0.164600224307527D+04
 0.164171499644400D+04 -.253175770212441D+02 0.237863548242851D+03 -.162419459494859D+04
 0.000000000000000D+00 -.000000000000000D+00 0.000000000000000D+00 0.000000000000000D+00
 0.191526483833303D+04 0.000000000000000D+00 0.000000000000000D+00 0.191526483833303D+04
 0.191526483833303D+04 -.000000000000000D+00 -.000000000000000D+00 -.191526483833303D+04
 0.516041060579096D+03 0.225213051094186D+03 -.445313691107104D+03 -.405977133963562D+02
 0.161388959153713D+04 -.201119466676388D+03 0.218949790853249D+03 0.158626970054938D+04
 0.121927377839502D+04 0.202698437591608D+03 -.230123020379667D+02 -.120208665412877D+04
 0.481325246154810D+03 -.226792022009406D+03 0.249376202291822D+03 -.343585333024245D+03
0.116867695318D-01 0.000000000000D+00 0.000000000000D+00 0.929193108105D-04 0.000000000000D+00  6 2 1 25 2 1 21 0 0.47639177D+00 0.18224965D+00 0.27375733D+06 0.27375733D+06 0.27375733D+06 0.10875055D+01  1  2  2  4  6  5        1 0.296822798254D-02 0.100000000000D+01
0.162610289477D-02 0.000000000000D+00 -.448802721993D-04 0.929193108105D-04 0.000000000000D+00  6 2 1 25 2 1 21 2 0.47639177D+00 0.18224965D+00 0.27375733D+06 0.27375733D+06 0.27375733D+06 0.10875055D+01  1  2  3  4  6  5        1 0.488442777778D-03 0.100000000000D+01
-.724293861919D-02 0.000000000000D+00 0.000000000000D+00 0.929193108105D-04 0.000000000000D+00  6 2 1 25 2 1 21 2 0.47639177D+00 0.18224965D+00 0.27375733D+06 0.27375733D+06 0.27375733D+06 0.10875055D+01  1  2 15  4  6  5        1 -.217560713398D-02 0.100000000000D+01
-.412814343253D-03 0.000000000000D+00 0.000000000000D+00 0.929193108105D-04 0.000000000000D+00  6 2 1 25 2 1 21 2 0.47639177D+00 0.18224965D+00 0.27375733D+06 0.27375733D+06 0.27375733D+06 0.10875055D+01  1  2  4  4  6  5        1 -.123999646747D-03 0.100000000000D+01
-.223478381575D-01 0.000000000000D+00 0.000000000000D+00 0.929193108105D-04 0.000000000000D+00  6 2 1 25 2 1 21 2 0.47639177D+00 0.18224965D+00 0.27375733D+06 0.27375733D+06 0.27375733D+06 0.10875055D+01  1  2  5  4  6  5        1 -.671276103260D-02 0.100000000000D+01
0.298052985966D-01 0.000000000000D+00 -.000000000000D+00 0.929193108105D-04 0.000000000000D+00  6 2 1 25 2 1 21 2 0.47639177D+00 0.18224965D+00 0.27375733D+06 0.27375733D+06 0.27375733D+06 0.10875055D+01  1  2  6  4  6  5        1 0.895280543801D-02 0.100000000000D+01
  </mgrwgt>
  </event>
  <event>
  5     66 0.18337608E-05 0.69456102E+02 0.75467711E-02 0.91837802E-01
        2 -1    0    0  501    0 0.00000000E+00 0.00000000E+00 0.34801525E+04 0.34801525E+04 0.32000000E+00 0.0000E+00 0.9000E+01
        1 -1    0    0  502    0 0.00000000E+00 0.00000000E+00 -.75078890E+03 0.75078897E+03 0.32000000E+00 0.0000E+00 0.9000E+01
       25  1    1    2    0    0 0.44004855E+03 -.23243921E+03 0.21217146E+04 0.21828808E+04 0.12500000E+03 0.0000E+00 0.9000E+01
        2  1    1    2  501    0 -.65851631E+02 -.22158471E+02 0.12556937E+04 0.12576144E+04 0.32000000E+00 0.0000E+00 0.9000E+01
        1  1    1    2  502    0 -.37419692E+03 0.25459768E+03 -.64804465E+03 0.79044626E+03 0.32000000E+00 0.0000E+00 0.9000E+01
#aMCatNLO 1  0  0  2  2 0.32163446D+03 0.00000000D+00  -5  6  0 0.00000000D+00 0.00000000D+00 0.00000000D+00 0.00000000D+00 0.00000000D+00
  <mgrwgt>
 0.3506278778D-02    7    2    0
 0.161643437225532D+04 0.000000000000000D+00 0.000000000000000D+00 0.161643437225532D+04
 0.161643437225532D+04 0.000000000000000D+00 0.000000000000000D+00 -.161643437225532D+04
 0.106571407477489D+04 0.440063436632947D+03 -.232471186228545D+03 0.934035764029190D+03
 0.585549257410815D+03 -.658292211966022D+02 -.221509302089508D+02 0.581415327267767D+03
 0.158160541232493D+04 -.374234215436345D+03 0.254622116437495D+03 -.151545109129696D+04
 0.000000000000000D+00 -.000000000000000D+00 0.000000000000000D+00 -.000000000000000D+00
 0.168476641252925D+04 0.000000000000000D+00 0.000000000000000D+00 0.168476641252925D+04
 0.205293696390025D+04 0.000000000000000D+00 0.000000000000000D+00 -.205293696390025D+04
 0.111581614814495D+04 0.548190507404827D+03 -.237665806473435D+03 0.934035764029190D+03
 0.582004036621171D+03 -.795969625150699D+01 -.249310869605950D+02 0.581415327267767D+03
 0.155100868802010D+04 -.218966879247144D+03 0.247162792494094D+03 -.151545109129696D+04
 0.488874503643277D+03 -.321263931906177D+03 0.154341009399359D+02 -.368170551370991D+03
0.740434103203D-02 0.000000000000D+00 0.000000000000D+00 0.603542274952D-04 0.000000000000D+00  6 2 1 25 2 1 21 0 0.53540809D+00 0.11550599D+00 0.26793441D+06 0.26793441D+06 0.26793441D+06 0.10882028D+01  1  2  2  2  6  2        1 0.228220548217D-02 0.100000000000D+01
0.123549588345D-02 0.000000000000D+00 -.284346191708D-04 0.603542274952D-04 0.000000000000D+00  6 2 1 25 2 1 21 2 0.53540809D+00 0.11550599D+00 0.26793441D+06 0.26793441D+06 0.26793441D+06 0.10882028D+01  1  2  3  2  6  2        1 0.450950920326D-03 0.100000000000D+01
-.473612919045D-02 0.000000000000D+00 0.000000000000D+00 0.603542274952D-04 0.000000000000D+00  6 2 1 25 2 1 21 2 0.53540809D+00 0.11550599D+00 0.26793441D+06 0.26793441D+06 0.26793441D+06 0.10882028D+01  1  2 15  2  6  2        1 -.172866769191D-02 0.100000000000D+01
-.154210657222D-02 0.000000000000D+00 0.000000000000D+00 0.603542274952D-04 0.000000000000D+00  6 2 1 25 2 1 21 2 0.53540809D+00 0.11550599D+00 0.26793441D+06 0.26793441D+06 0.26793441D+06 0.10882028D+01  1  2  4  2  6  2        1 -.562862561744D-03 0.100000000000D+01
-.217579354448D-01 0.000000000000D+00 -.709529343475D-02 0.603542274952D-04 0.000000000000D+00  6 2 1 25 2 1 21 2 0.53540809D+00 0.15040964D+00 0.26793441D+06 0.26793441D+06 0.26793441D+06 0.10882028D+01  1  2  5  2  6  2        1 -.514688048742D-02 0.100000000000D+01
0.230630942671D-01 0.000000000000D+00 0.685494811617D-02 0.603542274952D-04 0.000000000000D+00  6 2 1 25 2 1 21 2 0.53540809D+00 0.11550599D+00 0.26793441D+06 0.26793441D+06 0.26793441D+06 0.10882028D+01  1  2  6  2  6  2        1 0.841793463226D-02 0.100000000000D+01
-.636563308929D-03 0.000000000000D+00 -.249964755472D-03 0.603542274952D-04 0.000000000000D+00  6 2 21 25 2 1 -1 2 0.53540809D+00 0.15040964D+00 0.26793441D+06 0.26793441D+06 0.26793441D+06 0.10882028D+01  1  2  5  6  6  2        1 -.206401515742D-03 0.100000000000D+01
  </mgrwgt>
  </event>
  <event>
  5     66 0.18337608E-05 0.49056414E+02 0.75467711E-02 0.93953217E-01
        2 -1    0    0  501    0 0.00000000E+00 0.00000000E+00 0.75744232E+03 0.75744239E+03 0.32000000E+00 0.0000E+00 0.9000E+01
        1 -1    0    0  502    0 0.00000000E+00 0.00000000E+00 -.16597819E+04 0.16597820E+04 0.32000000E+00 0.0000E+00 0.9000E+01
       25  1    1    2    0    0 -.28161195E+03 -.40451385E+03 -.28917308E+03 0.58496394E+03 0.12500000E+03 0.0000E+00 0.9000E+01
        2  1    1    2  501    0 0.41174651E+02 0.26674961E+02 0.56744322E+03 0.56956020E+03 0.32000000E+00 0.0000E+00 0.9000E+01
        1  1    1    2  502    0 0.24043730E+03 0.37783889E+03 -.11806097E+04 0.12627002E+04 0.32000000E+00 0.0000E+00 0.9000E+01
#aMCatNLO 1  0  0  1  2 0.77789935D+02 0.00000000D+00  -5  6  0 0.00000000D+00 0.00000000D+00 0.00000000D+00 0.00000000D+00 0.00000000D+00
  <mgrwgt>
 0.1567456389D-01    7    2    0
 0.112124448184842D+04 0.000000000000000D+00 0.000000000000000D+00 0.112124448184842D+04
 0.112124448184842D+04 0.000000000000000D+00 0.000000000000000D+00 -.112124448184842D+04
 0.514227169284386D+03 -.281639424537608D+03 -.404558367418905D+03 -.762649560919521D+02
 0.842204588133159D+03 0.411714543918227D+02 0.266728903014472D+02 0.840774664543820D+03
 0.886057206279303D+03 0.240467970145786D+03 0.377885477117458D+03 -.764509708451868D+03
 0.000000000000000D+00 0.000000000000000D+00 0.000000000000000D+00 0.000000000000000D+00
 0.116280836878086D+04 0.000000000000000D+00 0.000000000000000D+00 0.116280836878086D+04
 0.115891664363959D+04 0.000000000000000D+00 0.000000000000000D+00 -.115891664363959D+04
 0.529338408033737D+03 -.283153282608449D+03 -.422589665325649D+03 -.762649560919521D+02
 0.841669660225913D+03 0.387287266164297D+02 -.242201170527261D+01 0.840774664543820D+03
 0.872829721387568D+03 0.237916424532344D+03 0.347494464931579D+03 -.764509708451868D+03
 0.778872227732256D+02 0.650813145967483D+01 0.775172120993425D+02 0.389172514127174D+01
0.260998456276D-02 0.000000000000D+00 0.000000000000D+00 0.492663140852D-04 0.000000000000D+00  6 2 1 25 2 1 21 0 0.11652960D+00 0.25535107D+00 0.25276033D+06 0.25276033D+06 0.25276033D+06 0.10901005D+01  1  2  2  1  6  1        2 0.732503034675D-02 0.100000000000D+01
0.120559348052D-02 0.000000000000D+00 -.100230279457D-04 0.492663140852D-04 0.000000000000D+00  6 2 1 25 2 1 21 2 0.11652960D+00 0.25535107D+00 0.25276033D+06 0.25276033D+06 0.25276033D+06 0.10901005D+01  1  2  3  1  6  1        2 0.402073526528D-02 0.100000000000D+01
-.168990935806D-02 0.000000000000D+00 0.000000000000D+00 0.492663140852D-04 0.000000000000D+00  6 2 1 25 2 1 21 2 0.11652960D+00 0.25535107D+00 0.25276033D+06 0.25276033D+06 0.25276033D+06 0.10901005D+01  1  2 15  1  6  1        2 -.563596125963D-02 0.100000000000D+01
-.258229626446D-03 0.000000000000D+00 0.000000000000D+00 0.492663140852D-04 0.000000000000D+00  6 2 1 25 2 1 21 2 0.11652960D+00 0.25535107D+00 0.25276033D+06 0.25276033D+06 0.25276033D+06 0.10901005D+01  1  2  4  1  6  1        2 -.861213155486D-03 0.100000000000D+01
-.388373582839D-01 0.000000000000D+00 -.921623667722D-02 0.492663140852D-04 0.000000000000D+00  6 2 1 25 2 1 21 2 0.12437040D+00 0.25535107D+00 0.25276033D+06 0.25276033D+06 0.25276033D+06 0.10901005D+01  1  2  5  1  6  1        2 -.119239633530D+00 0.100000000000D+01
0.393735053844D-01 0.000000000000D+00 0.919673051835D-02 0.492663140852D-04 0.000000000000D+00  6 2 1 25 2 1 21 2 0.11652960D+00 0.25535107D+00 0.25276033D+06 0.25276033D+06 0.25276033D+06 0.10901005D+01  1  2  6  1  6  1        2 0.131313286091D+00 0.100000000000D+01
-.417686190338D-03 0.000000000000D+00 -.102319748449D-03 0.492663140852D-04 0.000000000000D+00  6 21 1 25 2 1 -2 2 0.12437040D+00 0.25535107D+00 0.25276033D+06 0.25276033D+06 0.25276033D+06 0.10901005D+01  1  2  5  5  6  1        2 -.124767986901D-02 0.100000000000D+01
  </mgrwgt>
  </event>
  <event>
  5     66 0.18337608E-05 0.41238792E+02 0.75467711E-02 0.94615708E-01
        2 -1    0    0  501    0 0.00000000E+00 0.00000000E+00 0.20731724E+04 0.20731725E+04 0.32000000E+00 0.0000E+00 0.9000E+01
        1 -1    0    0  502    0 0.00000000E+00 0.00000000E+00 -.12105232E+03 0.12105274E+03 0.32000000E+00 0.0000E+00 0.9000E+01
       25  1    1    2    0    0 0.61486897E+02 -.44649132E+03 0.86235374E+03 0.98102707E+03 0.12500000E+03 0.0000E+00 0.9000E+01
        2  1    1    2  501    0 -.54854768E+02 0.48802249E+03 0.10023738E+04 0.11162116E+04 0.32000000E+00 0.0000E+00 0.9000E+01
        1  1    1    2  502    0 -.66321285E+01 -.41531177E+02 0.87392634E+02 0.96986590E+02 0.32000000E+00 0.0000E+00 0.9000E+01
#aMCatNLO 1  0  0  4  2 0.12716577D+03 0.00000000D+00  -5  6  0 0.00000000D+00 0.00000000D+00 0.00000000D+00 0.00000000D+00 0.00000000D+00
  <mgrwgt>
 0.7483056011D-02    4    2    0
 0.500961902610790D+03 0.000000000000000D+00 0.000000000000000D+00 0.500961902610790D+03
 0.500961902610790D+03 -.000000000000000D+00 -.000000000000000D+00 -.500961902610790D+03
 0.469058203514338D+03 0.613414289352448D+02 -.447334946141457D+03 -.227875698770083D+02
 0.491558733930631D+03 -.548591044403462D+02 0.488061073499557D+03 0.204170540957505D+02
 0.413068677766118D+02 -.648232449489863D+01 -.407261273580993D+02 0.237051578125778D+01
 0.000000000000000D+00 0.000000000000000D+00 -.000000000000000D+00 0.000000000000000D+00
 0.500961902610790D+03 0.000000000000000D+00 0.000000000000000D+00 0.500961902610790D+03
 0.500961902610790D+03 -.000000000000000D+00 -.000000000000000D+00 -.500961902610790D+03
 0.336561310605841D+03 0.457532740298697D+02 -.308652922535555D+03 -.169860861451318D+02
 0.467392913875407D+03 -.183510935499312D+01 0.456897496715067D+03 -.984756102296580D+02
 0.297049901474969D+02 -.785635258388850D+01 -.285019098654467D+02 0.288189135160622D+01
 0.168264590592836D+03 -.360618120909881D+02 -.119742664314066D+03 0.112579805023184D+03
0.599135470184D-03 0.000000000000D+00 0.000000000000D+00 0.165314696722D-07 0.000000000000D+00  6 2 1 25 2 1 21 0 0.31894964D+00 0.18623468D-01 0.25043903D+06 0.25043903D+06 0.25043903D+06 0.10904018D+01  1  2  2  3  6  4        2 0.161965613937D-01 0.100000000000D+01
0.100278691642D-03 0.000000000000D+00 -.230083796150D-05 0.165314696722D-07 0.000000000000D+00  6 2 1 25 2 1 21 2 0.31894964D+00 0.18623468D-01 0.25043903D+06 0.25043903D+06 0.25043903D+06 0.10904018D+01  1  2  3  3  6  4        2 0.322314287921D-02 0.100000000000D+01
-.368582735615D-03 0.000000000000D+00 0.000000000000D+00 0.165314696722D-07 0.000000000000D+00  6 2 1 25 2 1 21 2 0.31894964D+00 0.18623468D-01 0.25043903D+06 0.25043903D+06 0.25043903D+06 0.10904018D+01  1  2 15  3  6  4        2 -.118469317883D-01 0.100000000000D+01
-.279126645714D-05 0.000000000000D+00 0.000000000000D+00 0.165314696722D-07 0.000000000000D+00  6 2 1 25 2 1 21 2 0.31894964D+00 0.18623468D-01 0.25043903D+06 0.25043903D+06 0.25043903D+06 0.10904018D+01  1  2  4  3  6  4        2 -.897164737394D-04 0.100000000000D+01
  </mgrwgt>
  </event>
  <event>
  5     66 0.18337608E-05 0.69878404E+02 0.75467711E-02 0.94475728E-01
        2 -1    0    0  501    0 0.00000000E+00 0.00000000E+00 0.27829966E+04 0.27829966E+04 0.32000000E+00 0.0000E+00 0.9000E+01
        1 -1    0    0  502    0 0.00000000E+00 0.00000000E+00 -.13156843E+04 0.13156844E+04 0.32000000E+00 0.0000E+00 0.9000E+01
       25  1    1    2    0    0 -.43458003E+03 0.23015578E+03 0.10483359E+04 0.11646736E+04 0.12500000E+03 0.0000E+00 0.9000E+01
        2  1    1    2  501    0 0.36495520E+03 -.23603713E+03 0.16473125E+04 0.17036855E+04 0.32000000E+00 0.0000E+00 0.9000E+01
        1  1    1    2  502    0 0.69624832E+02 0.58813540E+01 -.12283361E+04 0.12303219E+04 0.32000000E+00 0.0000E+00 0.9000E+01
#aMCatNLO 1  0  0  5  2 0.69650882D+01 0.00000000D+00  -5  6  0 0.00000000D+00 0.00000000D+00 0.00000000D+00 0.00000000D+00 0.00000000D+00
  <mgrwgt>
 0.4351764393D-01    9    2    0
 0.191351642650935D+04 0.000000000000000D+00 0.000000000000000D+00 0.191351642650935D+04
 0.191351642650935D+04 -.000000000000000D+00 -.000000000000000D+00 -.191351642650935D+04
 0.845489902225558D+03 -.434550828728672D+03 0.230132850534167D+03 0.676337654667864D+03
 0.119291010617789D+04 0.364920404473781D+03 -.236014630324348D+03 0.111092966208167D+04
 0.178863284461526D+04 0.696304242548885D+02 0.588177979018057D+01 -.178726731674953D+04
 0.000000000000000D+00 0.000000000000000D+00 0.000000000000000D+00 0.000000000000000D+00
 0.191351642650935D+04 0.000000000000000D+00 0.000000000000000D+00 0.191351642650935D+04
 0.191351642650935D+04 -.000000000000000D+00 -.000000000000000D+00 -.191351642650935D+04
 0.845479176629316D+03 -.434550318558946D+03 0.230132893628921D+03 0.676324559678328D+03
 0.119289310824342D+04 0.364921124276755D+03 -.236014569521579D+03 0.111091118624523D+04
 0.115586327155951D+04 0.443505371785148D+02 0.107359885634448D+02 -.115496219459418D+04
 0.632797296586462D+03 0.252786571036738D+02 -.485431267078666D+01 -.632273551329378D+03
0.123080109166D-03 0.000000000000D+00 0.000000000000D+00 0.236093955794D-03 0.000000000000D+00  6 2 1 25 2 1 21 0 0.42815332D+00 0.20241298D+00 0.25595314D+06 0.25595314D+06 0.25595314D+06 0.10896911D+01  1  2  2  4  6  5        1 0.399763144917D-04 0.100000000000D+01
0.476956766103D-04 0.000000000000D+00 -.472660026935D-06 0.236093955794D-03 0.000000000000D+00  6 2 1 25 2 1 21 2 0.42815332D+00 0.20241298D+00 0.25595314D+06 0.25595314D+06 0.25595314D+06 0.10896911D+01  1  2  3  4  6  5        1 0.183950371440D-04 0.100000000000D+01
-.835123882524D-04 0.000000000000D+00 0.000000000000D+00 0.236093955794D-03 0.000000000000D+00  6 2 1 25 2 1 21 2 0.42815332D+00 0.20241298D+00 0.25595314D+06 0.25595314D+06 0.25595314D+06 0.10896911D+01  1  2 15  4  6  5        1 -.322086527137D-04 0.100000000000D+01
0.436671892314D+00 0.000000000000D+00 0.000000000000D+00 0.236093955794D-03 0.000000000000D+00  6 2 1 25 2 1 21 2 0.42815332D+00 0.20241298D+00 0.25670942D+06 0.25670942D+06 0.25670942D+06 0.10895949D+01  1  2 12  4  6  5        1 0.168334658754D+00 0.100000000000D+01
0.203766418247D-08 0.000000000000D+00 0.000000000000D+00 0.236093955794D-03 0.000000000000D+00  6 2 1 25 2 1 21 2 0.42815332D+00 0.20241298D+00 0.25670942D+06 0.25670942D+06 0.25670942D+06 0.10895949D+01  1  2 12  4  6  5        1 0.785508549668D-09 0.100000000000D+01
-.544526463514D+00 0.000000000000D+00 0.000000000000D+00 0.236093955794D-03 0.000000000000D+00  6 2 1 25 2 1 21 2 0.42815332D+00 0.20241298D+00 0.25595314D+06 0.25595314D+06 0.25595314D+06 0.10896911D+01  1  2  4  4  6  5        1 -.210010324501D+00 0.100000000000D+01
-.488519245403D+00 0.000000000000D+00 0.000000000000D+00 0.236093955794D-03 0.000000000000D+00  6 2 1 25 2 1 21 2 0.42815332D+00 0.20241298D+00 0.25595314D+06 0.25595314D+06 0.25595314D+06 0.10896911D+01  1  2  5  4  6  5        1 -.188409732357D+00 0.100000000000D+01
0.689225202606D+00 0.000000000000D+00 -.000000000000D+00 0.236093955794D-03 0.000000000000D+00  6 2 1 25 2 1 21 2 0.42815332D+00 0.20241298D+00 0.25595314D+06 0.25595314D+06 0.25595314D+06 0.10896911D+01  1  2  6  4  6  5        1 0.265817032141D+00 0.100000000000D+01
0.201295849621D-01 0.000000000000D+00 0.000000000000D+00 0.236093955794D-03 0.129899711509D-04  6 2 1 25 2 1 21 2 0.42815332D+00 0.20241298D+00 0.25670942D+06 0.25670942D+06 0.25670942D+06 0.10895949D+01  1  2 11  4  6  5        1 0.775984640893D-02 0.100000000000D+01
  </mgrwgt>
  </event>
  <event>
  5     66 -.18337608E-05 0.28307565E+02 0.75467711E-02 0.93618505E-01
        2 -1    0    0  501    0 0.00000000E+00 0.00000000E+00 0.16626283E+04 0.16626283E+04 0.32000000E+00 0.0000E+00 0.9000E+01
        1 -1    0    0  502    0 0.00000000E+00 0.00000000E+00 -.45761109E+03 0.45761120E+03 0.32000000E+00 0.0000E+00 0.9000E+01
       25  1    1    2    0    0 -.50732567E+03 0.68559967E+02 0.28902939E+03 0.60103477E+03 0.12500000E+03 0.0000E+00 0.9000E+01
        2  1    1    2  501    0 0.53513483E+03 -.63285587E+02 0.11571073E+04 0.12764293E+04 0.32000000E+00 0.0000E+00 0.9000E+01
        1  1    1    2  502    0 -.27809158E+02 -.52743804E+01 -.24111953E+03 0.24277541E+03 0.32000000E+00 0.0000E+00 0.9000E+01
#aMCatNLO 1  0  0  4  1 0.38745975D+01 0.00000000D+00  -5  6  0 0.00000000D+00 0.00000000D+00 0.00000000D+00 0.00000000D+00 0.00000000D+00
  <mgrwgt>
 -.4982989165D-01    9    2    0
 0.872259875080948D+03 0.000000000000000D+00 0.000000000000000D+00 0.872259875080948D+03
 0.872259875080948D+03 -.000000000000000D+00 -.000000000000000D+00 -.872259875080948D+03
 0.530809201807722D+03 -.507306903121752D+03 0.685586242860273D+02 -.638187261293681D+02
 0.752047597433711D+03 0.535118647264755D+03 -.632836732300276D+02 0.524612999131617D+03
 0.461662950920464D+03 -.278117441430025D+02 -.527495105599972D+01 -.460794273002249D+03
 0.000000000000000D+00 0.000000000000000D+00 0.000000000000000D+00 0.000000000000000D+00
 0.872259875080948D+03 0.000000000000000D+00 0.000000000000000D+00 0.872259875080948D+03
 0.872259875080948D+03 -.000000000000000D+00 -.000000000000000D+00 -.872259875080948D+03
 0.530756782645989D+03 -.507258760516600D+03 0.685529308927799D+02 -.637715286777297D+02
 0.716611432216784D+03 0.512556194255973D+03 -.608002455364407D+02 0.497113088397733D+03
 0.461619514671578D+03 -.277698727719938D+02 -.527990280674538D+01 -.460753223665556D+03
 0.355320206275457D+02 0.224724390326207D+02 -.247278254959371D+01 0.274116639455525D+02
0.141814853061D-03 0.000000000000D+00 0.000000000000D+00 0.861330518259D-05 0.000000000000D+00  6 2 1 25 2 1 21 0 0.25578898D+00 0.70401717D-01 0.29927137D+06 0.29927137D+06 0.29927137D+06 0.10846300D+01  1  2  2  3  6  4        2 0.108815314234D-02 0.100000000000D+01
0.828574429788D-04 0.000000000000D+00 -.544606376462D-06 0.861330518259D-05 0.000000000000D+00  6 2 1 25 2 1 21 2 0.25578898D+00 0.70401717D-01 0.29927137D+06 0.29927137D+06 0.29927137D+06 0.10846300D+01  1  2  3  3  6  4        2 0.747933626976D-03 0.100000000000D+01
-.818992419485D-04 0.000000000000D+00 0.000000000000D+00 0.861330518259D-05 0.000000000000D+00  6 2 1 25 2 1 21 2 0.25578898D+00 0.70401717D-01 0.29927137D+06 0.29927137D+06 0.29927137D+06 0.10846300D+01  1  2 15  3  6  4        2 -.739284183472D-03 0.100000000000D+01
0.363066530223D-02 0.000000000000D+00 0.000000000000D+00 0.861330518259D-05 0.000000000000D+00  6 2 1 25 2 1 21 2 0.25578898D+00 0.70401717D-01 0.29917446D+06 0.29917446D+06 0.29917446D+06 0.10846404D+01  1  2 12  3  6  4        2 0.327742864928D-01 0.100000000000D+01
0.150301321364D-07 0.000000000000D+00 0.000000000000D+00 0.861330518259D-05 0.000000000000D+00  6 2 1 25 2 1 21 2 0.25578898D+00 0.70401717D-01 0.29917446D+06 0.29917446D+06 0.29917446D+06 0.10846404D+01  1  2 12  3  6  4        2 0.135678123885D-06 0.100000000000D+01
-.178341504025D+00 0.000000000000D+00 0.000000000000D+00 0.861330518259D-05 0.000000000000D+00  6 2 1 25 2 1 21 2 0.25578898D+00 0.70401717D-01 0.29927137D+06 0.29927137D+06 0.29927137D+06 0.10846300D+01  1  2  4  3  6  4        2 -.160984460962D+01 0.100000000000D+01
-.127212574064D+00 0.000000000000D+00 0.000000000000D+00 0.861330518259D-05 0.000000000000D+00  6 2 1 25 2 1 21 2 0.25578898D+00 0.70401717D-01 0.29927137D+06 0.29927137D+06 0.29927137D+06 0.10846300D+01  1  2  5  3  6  4        2 -.114831641548D+01 0.100000000000D+01
0.133364812312D+00 0.000000000000D+00 -.000000000000D+00 0.861330518259D-05 0.000000000000D+00  6 2 1 25 2 1 21 2 0.25578898D+00 0.70401717D-01 0.29927137D+06 0.29927137D+06 0.29927137D+06 0.10846300D+01  1  2  6  3  6  4        2 0.120385114719D+01 0.100000000000D+01
0.162910890667D+00 0.000000000000D+00 0.000000000000D+00 0.861330518259D-05 0.431889810097D-05  6 2 1 25 2 1 21 2 0.25578898D+00 0.70401717D-01 0.29917446D+06 0.29917446D+06 0.29917446D+06 0.10846404D+01  1  2 11  3  6  4        2 0.147060876149D+01 0.100000000000D+01
  </mgrwgt>
  </event>
  <event>
  5     66 0.18337608E-05 0.65403032E+02 0.75467711E-02 0.93328353E-01
        2 -1    0    0  501    0 0.00000000E+00 0.00000000E+00 0.28830367E+04 0.28830367E+04 0.32000000E+00 0.0000E+00 0.9000E+01
        1 -1    0    0  502    0 0.00000000E+00 0.00000000E+00 -.21195560E+03 0.21195584E+03 0.32000000E+00 0.0000E+00 0.9000E+01
       25  1    1    2    0    0 -.47328438E+03 -.27255981E+03 0.11124915E+04 0.12456120E+04 0.12500000E+03 0.0000E+00 0.9000E+01
        2  1    1    2  501    0 0.45028124E+03 0.21134730E+03 0.16576562E+04 0.17306776E+04 0.32000000E+00 0.0000E+00 0.9000E+01
        1  1    1    2  502    0 0.23003135E+02 0.61212506E+02 -.99066533E+02 0.11870297E+03 0.32000000E+00 0.0000E+00 0.9000E+01
#aMCatNLO 1  0  0  2  5 0.38706614D+02 0.00000000D+00  -5  6  0 0.00000000D+00 0.00000000D+00 0.00000000D+00 0.00000000D+00 0.00000000D+00
  <mgrwgt>
 0.1931453809D-02    7    2    0
 0.781713608600966D+03 0.000000000000000D+00 0.000000000000000D+00 0.781713608600966D+03
 0.781713608600966D+03 0.000000000000000D+00 0.000000000000000D+00 -.781713608600966D+03
 0.565149694072467D+03 -.473246784282454D+03 -.272550059760352D+03 0.743177152578613D+02
 0.593959910521100D+03 0.450239064617536D+03 0.211327503527756D+03 0.324674985564465D+03
 0.404317612608364D+03 0.230077196649179D+02 0.612225562325957D+02 -.398992700822326D+03
 0.000000000000000D+00 -.000000000000000D+00 -.000000000000000D+00 -.000000000000000D+00
 0.864859871438584D+03 0.000000000000000D+00 0.000000000000000D+00 0.864859871438584D+03
 0.123407755972631D+04 0.000000000000000D+00 0.000000000000000D+00 -.123407755972631D+04
 0.464470719911160D+03 -.395563397476051D+03 -.195229417432022D+03 0.743177152578613D+02
 0.708397739064989D+03 0.548500085552075D+03 0.309129692217473D+03 0.324674985564465D+03
 0.426398199097211D+03 0.856840388700121D+02 0.123606206829481D+03 -.398992700822326D+03
 0.499670773091531D+03 -.238620726946036D+03 -.237506481614932D+03 -.369217688287723D+03
0.291326878152D-03 0.000000000000D+00 0.000000000000D+00 0.124936173812D-05 0.000000000000D+00  6 2 1 25 2 1 21 0 0.44354413D+00 0.32608573D-01 0.31528932D+06 0.31528932D+06 0.31528932D+06 0.10829583D+01  1  2  2  2  6  2        1 0.126261427625D-02 0.100000000000D+01
0.849759269011D-04 0.000000000000D+00 -.111877192023D-05 0.124936173812D-05 0.000000000000D+00  6 2 1 25 2 1 21 2 0.44354413D+00 0.32608573D-01 0.31528932D+06 0.31528932D+06 0.31528932D+06 0.10829583D+01  1  2  3  2  6  2        1 0.431926167557D-03 0.100000000000D+01
-.194164120079D-03 0.000000000000D+00 0.000000000000D+00 0.124936173812D-05 0.000000000000D+00  6 2 1 25 2 1 21 2 0.44354413D+00 0.32608573D-01 0.31528932D+06 0.31528932D+06 0.31528932D+06 0.10829583D+01  1  2 15  2  6  2        1 -.986921441416D-03 0.100000000000D+01
-.117709423577D-04 0.000000000000D+00 0.000000000000D+00 0.124936173812D-05 0.000000000000D+00  6 2 1 25 2 1 21 2 0.44354413D+00 0.32608573D-01 0.31528932D+06 0.31528932D+06 0.31528932D+06 0.10829583D+01  1  2  4  2  6  2        1 -.598308039288D-04 0.100000000000D+01
-.444240969439D-03 0.000000000000D+00 -.183442146237D-03 0.124936173812D-05 0.000000000000D+00  6 2 1 25 2 1 21 2 0.44354413D+00 0.57825739D-01 0.31528932D+06 0.31528932D+06 0.31528932D+06 0.10829583D+01  1  2  5  2  6  2        1 -.105421922141D-02 0.100000000000D+01
0.492714638940D-03 0.000000000000D+00 0.156973283289D-03 0.124936173812D-05 0.000000000000D+00  6 2 1 25 2 1 21 2 0.44354413D+00 0.32608573D-01 0.31528932D+06 0.31528932D+06 0.31528932D+06 0.10829583D+01  1  2  6  2  6  2        1 0.250443100131D-02 0.100000000000D+01
-.184847605878D-04 0.000000000000D+00 -.115664439361D-04 0.124936173812D-05 0.000000000000D+00  6 2 21 25 2 1 -1 2 0.44354413D+00 0.57825739D-01 0.31528932D+06 0.31528932D+06 0.31528932D+06 0.10829583D+01  1  2  5  6  6  2        1 -.166546169012D-03 0.100000000000D+01
  </mgrwgt>
  </event>
  <event>
  5     66 0.18337608E-05 0.43011843E+02 0.75467711E-02 0.95455665E-01
        2 -1    0    0  501    0 0.00000000E+00 0.00000000E+00 0.11851117E+04 0.11851117E+04 0.32000000E+00 0.0000E+00 0.9000E+01
        1 -1    0    0  502    0 0.00000000E+00 0.00000000E+00 -.12602571E+04 0.12602571E+04 0.32000000E+00 0.0000E+00 0.9000E+01
       25  1    1    2    0    0 -.61285325E+01 0.45512761E+03 0.91272963E+02 0.48076445E+03 0.12500000E+03 0.0000E+00 0.9000E+01
        2  1    1    2  501    0 0.14988011E+02 -.40319888E+02 0.85814386E+03 0.85922134E+03 0.32000000E+00 0.0000E+00 0.9000E+01
        1  1    1    2  502    0 -.88594783E+01 -.41480773E+03 -.10245622E+04 0.11053831E+04 0.32000000E+00 0.0000E+00 0.9000E+01
#aMCatNLO 1  0  0  2  5 0.28774079D+02 0.00000000D+00  -5  6  0 0.00000000D+00 0.00000000D+00 0.00000000D+00 0.00000000D+00 0.00000000D+00
  <mgrwgt>
 0.2316534928D-01    7    2    0
 0.122210699327870D+04 0.000000000000000D+00 0.000000000000000D+00 0.122210699327870D+04
 0.122210699327870D+04 0.000000000000000D+00 0.000000000000000D+00 -.122210699327870D+04
 0.483856227021191D+03 -.612660858333712D+01 0.455172677500725D+03 0.106170366634339D+03
 0.885934727882144D+03 0.149867342589801D+02 -.403164540277919D+02 0.884890006384118D+03
 0.107442303165406D+04 -.886012567564295D+01 -.414856223472933D+03 -.991060373018457D+03
 0.000000000000000D+00 0.000000000000000D+00 0.000000000000000D+00 -.000000000000000D+00
 0.125635784039511D+04 0.000000000000000D+00 0.000000000000000D+00 0.125635784039511D+04
 0.191096382907261D+04 0.000000000000000D+00 0.000000000000000D+00 -.191096382907261D+04
 0.449768220448342D+03 -.404656620225873D+02 0.416841499338865D+03 0.106170366634339D+03
 0.893549597224777D+03 -.504633591910938D+02 -.113375520643693D+03 0.884890006384118D+03
 0.111579451684515D+04 -.894171394142446D+02 -.504778482141609D+03 -.991060373018457D+03
 0.708209334949458D+03 0.180346160627926D+03 0.201312503446438D+03 -.654605988677501D+03
0.249242404700D-02 0.000000000000D+00 0.000000000000D+00 0.152609915039D-03 0.000000000000D+00  6 2 1 25 2 1 21 0 0.18232488D+00 0.19388571D+00 0.21623754D+06 0.21623754D+06 0.21623754D+06 0.10952311D+01  1  2  2  2  6  2        1 0.704636931942D-02 0.100000000000D+01
0.118797232124D-02 0.000000000000D+00 -.957156461081D-05 0.152609915039D-03 0.000000000000D+00  6 2 1 25 2 1 21 2 0.18232488D+00 0.19388571D+00 0.21623754D+06 0.21623754D+06 0.21623754D+06 0.10952311D+01  1  2  3  2  6  2        1 0.402866691156D-02 0.100000000000D+01
-.140839863522D-02 0.000000000000D+00 0.000000000000D+00 0.152609915039D-03 0.000000000000D+00  6 2 1 25 2 1 21 2 0.18232488D+00 0.19388571D+00 0.21623754D+06 0.21623754D+06 0.21623754D+06 0.10952311D+01  1  2 15  2  6  2        1 -.477617944338D-02 0.100000000000D+01
-.223190106919D-02 0.000000000000D+00 0.000000000000D+00 0.152609915039D-03 0.000000000000D+00  6 2 1 25 2 1 21 2 0.18232488D+00 0.19388571D+00 0.21623754D+06 0.21623754D+06 0.21623754D+06 0.10952311D+01  1  2  4  2  6  2        1 -.756885141728D-02 0.100000000000D+01
-.113446939303D-01 0.000000000000D+00 -.147482178135D-02 0.152609915039D-03 0.000000000000D+00  6 2 1 25 2 1 21 2 0.18232488D+00 0.30572239D+00 0.21623754D+06 0.21623754D+06 0.21623754D+06 0.10952311D+01  1  2  5  2  6  2        1 -.125508306281D-01 0.100000000000D+01
0.109968833296D-01 0.000000000000D+00 0.133407286282D-02 0.152609915039D-03 0.000000000000D+00  6 2 1 25 2 1 21 2 0.18232488D+00 0.19388571D+00 0.21623754D+06 0.21623754D+06 0.21623754D+06 0.10952311D+01  1  2  6  2  6  2        1 0.372927712272D-01 0.100000000000D+01
-.535340330448D-03 0.000000000000D+00 -.773383374379D-04 0.152609915039D-03 0.000000000000D+00  6 2 21 25 2 1 -1 2 0.18232488D+00 0.30572239D+00 0.21623754D+06 0.21623754D+06 0.21623754D+06 0.10952311D+01  1  2  5  6  6  2        1 -.306596688428D-03 0.100000000000D+01
  </mgrwgt>
  </event>
  <event>
  6     66 0.18337608E-05 0.11399236E+03 0.75467711E-02 0.86483566E-01
        2 -1    0    0  501    0 0.00000000E+00 0.00000000E+00 0.36571673E+04 0.36571673E+04 0.32000000E+00 0.0000E+00 0.9000E+01
        1 -1    0    0  502    0 0.00000000E+00 0.00000000E+00 -.48405760E+03 0.48405770E+03 0.32000000E+00 0.0000E+00 0.9000E+01
       25  1    1    2    0    0 0.10701628E+04 0.15008034E+03 0.84138618E+03 0.13752557E+04 0.12500000E+03 0.0000E+00 0.9000E+01
        2  1    1    2  501    0 0.55952103E+01 -.19188734E+02 0.11773543E+04 0.11775240E+04 0.32000000E+00 0.0000E+00 0.9000E+01
        1  1    1    2  503    0 -.55891396E+03 -.17237315E+02 0.64952696E+03 0.85706902E+03 0.32000000E+00 0.0000E+00 0.9000E+01
       21  1    1    2  502  503 -.51684404E+03 -.11365429E+03 0.50484229E+03 0.73137634E+03 0.75000000E+00 0.0000E+00 0.9000E+01
#aMCatNLO 2  0  0  5  2 0.63633672D+02 0.00000000D+00  -5  6  0 0.00000000D+00 0.00000000D+00 0.00000000D+00 0.00000000D+00 0.00000000D+00
  <mgrwgt>
 0.1202084493D-02    1    2    0
 0.133051865173289D+04 0.000000000000000D+00 0.000000000000000D+00 0.133051865173289D+04
 0.133051865173289D+04 -.000000000000000D+00 -.000000000000000D+00 -.133051865173289D+04
 0.113995447793668D+04 0.107342739593891D+04 0.150474612768175D+03 -.330124564866023D+03
 0.428516348801192D+03 0.677535564270577D+01 -.190358580652399D+02 0.428039708267282D+03
 0.109256647672791D+04 -.108020275158161D+04 -.131438754702935D+03 -.979151434012590D+02
 0.000000000000000D+00 0.000000000000000D+00 0.000000000000000D+00 -.000000000000000D+00
 0.133051865173289D+04 0.000000000000000D+00 0.000000000000000D+00 0.133051865173289D+04
 0.133051865173289D+04 -.000000000000000D+00 -.000000000000000D+00 -.133051865173289D+04
 0.113702757980725D+04 0.107028437494820D+04 0.150092170893797D+03 -.330409464483773D+03
 0.428398594964243D+03 0.559251731231889D+01 -.191797854871367D+02 0.427932489706164D+03
 0.559023597087054D+03 -.558648869400567D+03 -.172033301957497D+02 -.110845950667534D+02
 0.536587531607236D+03 -.517228022859955D+03 -.113709055210910D+03 -.864384301556377D+02
0.290474287011D-02 0.000000000000D+00 0.000000000000D+00 0.418727011879D-06 0.206868441513D-09  6 2 1 25 2 1 21 2 0.56264114D+00 0.74470409D-01 0.12060804D+07 0.12060804D+07 0.12060804D+07 0.10424896D+01  1  2  1  4  6  5        1 0.120208449281D-02 0.100000000000D+01
  </mgrwgt>
  </event>
  <event>
  6     66 0.18337608E-05 0.23132113E+02 0.75467711E-02 0.92083734E-01
        2 -1    0    0  503    0 0.00000000E+00 0.00000000E+00 0.12446107E+04 0.12446107E+04 0.32000000E+00 0.0000E+00 0.9000E+01
        1 -1    0    0  502    0 0.00000000E+00 0.00000000E+00 -.30555551E+04 0.30555551E+04 0.32000000E+00 0.0000E+00 0.9000E+01
       25  1    1    2    0    0 -.59419409E+03 0.16356813E+03 -.10150526E+03 0.63698467E+03 0.12500000E+03 0.0000E+00 0.9000E+01
        2  1    1    2  501    0 0.26616343E+02 0.13813865E+02 0.87966177E+03 0.88017282E+03 0.32000000E+00 0.0000E+00 0.9000E+01
        1  1    1    2  502    0 0.55646134E+03 -.18540249E+03 -.26533008E+04 0.27173570E+04 0.32000000E+00 0.0000E+00 0.9000E+01
       21  1    1    2  503  501 0.11116401E+02 0.80204906E+01 0.64199971E+02 0.65651363E+02 0.75000000E+00 0.0000E+00 0.9000E+01
#aMCatNLO 2  0  0  1  5 0.13707758D+02 0.00000000D+00  -5  6  0 0.00000000D+00 0.00000000D+00 0.00000000D+00 0.00000000D+00 0.00000000D+00
  <mgrwgt>
 0.4224003226D-02    5    2    0
 0.189833863736332D+04 0.000000000000000D+00 0.000000000000000D+00 0.189833863736332D+04
 0.189833863736332D+04 0.000000000000000D+00 0.000000000000000D+00 -.189833863736332D+04
 0.658977817377417D+03 -.592304609443474D+03 0.164976104663203D+03 0.201456939115223D+03
 0.141616625448688D+04 0.307612194396531D+02 0.168046738133541D+02 0.141573239373266D+04
 0.172153320286235D+04 0.561543390003820D+03 -.181780778476557D+03 -.161718933284788D+04
 0.000000000000000D+00 0.000000000000000D+00 0.000000000000000D+00 0.000000000000000D+00
 0.200282808038986D+04 0.000000000000000D+00 0.000000000000000D+00 0.200282808038986D+04
 0.189880063667041D+04 0.000000000000000D+00 0.000000000000000D+00 -.189880063667041D+04
 0.660367825731073D+03 -.594236078269039D+03 0.163582548661351D+03 0.201456939115223D+03
 0.141604991804788D+04 0.266149691578665D+02 0.138131515641293D+02 0.141573239373266D+04
 0.172028427653666D+04 0.556504707987877D+03 -.185416190796859D+03 -.161718933284788D+04
 0.104926696744654D+03 0.111164011232955D+02 0.802049057137880D+01 0.104027443719458D+03
-.832013874916D-09 0.000000000000D+00 0.000000000000D+00 0.313017358196D-03 0.000000000000D+00  6 2 1 25 2 1 21 2 0.19150297D+00 0.46997069D+00 0.39637270D+06 0.39637270D+06 0.39637270D+06 0.10757129D+01  1  2 13  1  6  1        2 -.139299626558D-09 0.100000000000D+01
-.309366733995D-02 0.000000000000D+00 0.000000000000D+00 0.313017358196D-03 0.000000000000D+00  6 2 1 25 2 1 21 2 0.18148882D+00 0.46997069D+00 0.39232314D+06 0.39232314D+06 0.39232314D+06 0.10760349D+01  1  2  8  1  6  1        2 -.566007895990D-03 0.100000000000D+01
-.233932957362D+00 0.000000000000D+00 0.000000000000D+00 0.313017358196D-03 0.000000000000D+00  6 2 1 25 2 1 21 2 0.19149689D+00 0.46997069D+00 0.39232314D+06 0.39232314D+06 0.39232314D+06 0.10760349D+01  1  2  9  1  6  1        2 -.392319906335D-01 0.100000000000D+01
0.233596349400D+00 0.000000000000D+00 0.000000000000D+00 0.313017358196D-03 0.000000000000D+00  6 2 1 25 2 1 21 2 0.18148882D+00 0.46997069D+00 0.39232314D+06 0.39232314D+06 0.39232314D+06 0.10760349D+01  1  2 10  1  6  1        2 0.427380722314D-01 0.100000000000D+01
0.767698160635D-02 0.000000000000D+00 0.000000000000D+00 0.313017358196D-03 0.582776345217D-06  6 2 1 25 2 1 21 2 0.19147844D+00 0.47008507D+00 0.39637270D+06 0.39637270D+06 0.39637270D+06 0.10757129D+01  1  2  1  1  6  1        2 0.128392966359D-02 0.100000000000D+01
  </mgrwgt>
  </event>
  <event>
  5     66 0.18337608E-05 0.55253056E+02 0.75467711E-02 0.91729205E-01
        2 -1    0    0  501    0 0.00000000E+00 0.00000000E+00 0.27069345E+04 0.27069345E+04 0.32000000E+00 0.0000E+00 0.9000E+01
        1 -1    0    0  502    0 0.00000000E+00 0.00000000E+00 -.13642986E+03 0.13643023E+03 0.32000000E+00 0.0000E+00 0.9000E+01
       25  1    1    2    0    0 -.48936734E+03 0.17276673E+03 0.11263267E+04 0.12464211E+04 0.12500000E+03 0.0000E+00 0.9000E+01
        2  1    1    2  501    0 0.43476021E+03 -.18113254E+03 0.14642748E+04 0.15381567E+04 0.32000000E+00 0.0000E+00 0.9000E+01
        1  1    1    2  502    0 0.54607133E+02 0.83658116E+01 -.20096763E+02 0.58786971E+02 0.32000000E+00 0.0000E+00 0.9000E+01
#aMCatNLO 1  0  0  1  2 0.23999488D+03 0.00000000D+00  -5  6  0 0.00000000D+00 0.00000000D+00 0.00000000D+00 0.00000000D+00 0.00000000D+00
  <mgrwgt>
 0.1436723664D-02    4    2    0
 0.607706550135264D+03 0.000000000000000D+00 0.000000000000000D+00 0.607706550135264D+03
 0.607706550135264D+03 0.000000000000000D+00 0.000000000000000D+00 -.607706550135264D+03
 0.533796326160137D+03 -.489354052316058D+03 0.172756942596460D+03 -.108078149281307D+01
 0.501545032847059D+03 0.434738084651762D+03 -.181123321722654D+03 0.172466112772995D+03
 0.180071741263332D+03 0.546159676642959D+02 0.836637912619352D+01 -.171385331280182D+03
 0.000000000000000D+00 0.000000000000000D+00 -.000000000000000D+00 -.000000000000000D+00
 0.731792807436863D+03 0.000000000000000D+00 0.000000000000000D+00 0.731792807436863D+03
 0.747603474912178D+03 0.000000000000000D+00 0.000000000000000D+00 -.747603474912178D+03
 0.645236403081508D+03 -.590465638335157D+03 0.228153846600014D+03 -.108078149281307D+01
 0.418760248226793D+03 0.355814468467687D+03 -.137882738111032D+03 0.172466112772995D+03
 0.174884516322794D+03 0.241755996560034D+02 0.250440143090666D+02 -.171385331280182D+03
 0.240515114717944D+03 0.210475570211466D+03 -.115315122798049D+03 -.158106674753153D+02
0.382099499856D-03 0.000000000000D+00 0.000000000000D+00 0.184289403098D-06 0.000000000000D+00  6 2 1 25 2 1 21 0 0.41645150D+00 0.20989239D-01 0.28090413D+06 0.28090413D+06 0.28090413D+06 0.10866714D+01  1  2  2  1  6  1        2 0.381367134748D-02 0.100000000000D+01
0.838735744503D-04 0.000000000000D+00 -.146736268856D-05 0.184289403098D-06 0.000000000000D+00  6 2 1 25 2 1 21 2 0.41645150D+00 0.20989239D-01 0.28090413D+06 0.28090413D+06 0.28090413D+06 0.10866714D+01  1  2  3  1  6  1        2 0.988526805155D-03 0.100000000000D+01
-.259793222915D-03 0.000000000000D+00 0.000000000000D+00 0.184289403098D-06 0.000000000000D+00  6 2 1 25 2 1 21 2 0.41645150D+00 0.20989239D-01 0.28090413D+06 0.28090413D+06 0.28090413D+06 0.10866714D+01  1  2 15  1  6  1        2 -.306190079930D-02 0.100000000000D+01
-.257573292872D-04 0.000000000000D+00 0.000000000000D+00 0.184289403098D-06 0.000000000000D+00  6 2 1 25 2 1 21 2 0.41645150D+00 0.20989239D-01 0.28090413D+06 0.28090413D+06 0.28090413D+06 0.10866714D+01  1  2  4  1  6  1        2 -.303573689287D-03 0.100000000000D+01
  </mgrwgt>
  </event>
  <event>
  5     66 -.18337608E-05 0.39999462E+02 0.75467711E-02 0.89271726E-01
        2 -1    0    0  501    0 0.00000000E+00 0.00000000E+00 0.30510924E+04 0.30510924E+04 0.32000000E+00 0.0000E+00 0.9000E+01
        1 -1    0    0  502    0 0.00000000E+00 0.00000000E+00 -.21280012E+04 0.21280012E+04 0.32000000E+00 0.0000E+00 0.9000E+01
       25  1    1    2    0    0 -.50976896E+03 -.63526024E+03 -.19850548E+03 0.84761394E+03 0.12500000E+03 0.0000E+00 0.9000E+01
        2  1    1    2  501    0 0.51347519E+03 0.59543472E+03 0.26695909E+04 0.27829687E+04 0.32000000E+00 0.0000E+00 0.9000E+01
        1  1    1    2  502    0 -.37062318E+01 0.39825518E+02 -.15479942E+04 0.15485109E+04 0.32000000E+00 0.0000E+00 0.9000E+01
#aMCatNLO 1  0  0  1  2 0.23999488D+03 0.00000000D+00  -5  6  0 0.00000000D+00 0.00000000D+00 0.00000000D+00 0.00000000D+00 0.00000000D+00
  <mgrwgt>
 -.3276782688D-02    1    2    0
 0.254808324238204D+04 0.000000000000000D+00 0.000000000000000D+00 0.254808324238204D+04
 0.254808324238204D+04 0.000000000000000D+00 0.000000000000000D+00 -.254808324238204D+04
 0.897332735248970D+03 -.509764866564313D+03 -.635257496636599D+03 -.355202381091496D+03
 0.234468147476762D+04 0.513471219311629D+03 0.595430120374763D+03 0.220892315321461D+04
 0.185415227474749D+04 -.370635274731626D+01 0.398273762618355D+02 -.185372077212311D+04
 0.000000000000000D+00 -.000000000000000D+00 0.000000000000000D+00 -.000000000000000D+00
 0.275401677414352D+04 0.000000000000000D+00 0.000000000000000D+00 0.275401677414352D+04
 0.304984560461622D+04 0.000000000000000D+00 0.000000000000000D+00 -.304984560461622D+04
 0.974139944630169D+03 -.501567748282911D+03 -.745375538955640D+03 -.355202381091496D+03
 0.229526227699090D+04 0.533794341396784D+03 0.322414367643011D+03 0.220892315321461D+04
 0.186237148075659D+04 0.125721562296217D+02 -.178854052854591D+03 -.185372077212311D+04
 0.672088676382090D+03 -.447987493434948D+02 0.601815224167219D+03 -.295828830472705D+03
-.517843499821D-01 0.000000000000D+00 0.000000000000D+00 0.301866804122D-03 0.000000000000D+00  6 2 1 25 2 1 21 2 0.46939883D+00 0.32738480D+00 0.68086186D+06 0.68086186D+06 0.68086186D+06 0.10591608D+01  1  2 14  1  6  1        2 -.327678268761D-02 0.100000000000D+01
  </mgrwgt>
  </event>
  <event>
  6     66 -.18337608E-05 0.11502876E+03 0.75467711E-02 0.95340934E-01
        2 -1    0    0  501    0 0.00000000E+00 0.00000000E+00 0.34479905E+04 0.34479905E+04 0.32000000E+00 0.0000E+00 0.9000E+01
        1 -1    0    0  502    0 0.00000000E+00 0.00000000E+00 -.13968015E+04 0.13968015E+04 0.32000000E+00 0.0000E+00 0.9000E+01
       25  1    1    2    0    0 0.97990064E+02 -.44429530E+03 -.27593291E+03 0.54659339E+03 0.12500000E+03 0.0000E+00 0.9000E+01
        2  1    1    2  501    0 -.84600626E+02 0.31111166E+03 0.32994146E+04 0.33151297E+04 0.32000000E+00 0.0000E+00 0.9000E+01
        1  1    1    2  503    0 0.15106241E+02 0.10100466E+03 -.69506704E+03 0.70253003E+03 0.32000000E+00 0.0000E+00 0.9000E+01
       21  1    1    2  502  503 -.28495679E+02 0.32178970E+02 -.27722563E+03 0.28053895E+03 0.75000000E+00 0.0000E+00 0.9000E+01
#aMCatNLO 2  0  0  5  2 0.25355446D+02 0.00000000D+00  -5  6  0 0.00000000D+00 0.00000000D+00 0.00000000D+00 0.00000000D+00 0.00000000D+00
  <mgrwgt>
 -.1261053541D-01    3    2    0
 0.219457474747315D+04 0.000000000000000D+00 0.000000000000000D+00 0.219457474747315D+04
 0.219457474747315D+04 -.000000000000000D+00 -.000000000000000D+00 -.219457474747315D+04
 0.732243681455409D+03 0.979904044918976D+02 -.444295352287245D+03 -.559960114289256D+03
 0.211785454193303D+04 -.845970684288800D+02 0.311071606085625D+03 0.209317597269960D+04
 0.153905127155786D+04 -.133933360630176D+02 0.133223746201620D+03 -.153321585841035D+04
 0.000000000000000D+00 0.000000000000000D+00 0.000000000000000D+00 -.000000000000000D+00
 0.219457474747315D+04 0.000000000000000D+00 0.000000000000000D+00 0.219457474747315D+04
 0.219457474747315D+04 -.000000000000000D+00 -.000000000000000D+00 -.219457474747315D+04
 0.732364750683743D+03 0.979889167771471D+02 -.444280553962809D+03 -.560130421958495D+03
 0.211737426001991D+04 -.846013704745476D+02 0.311114398608525D+03 0.209268349161720D+04
 0.110007249571495D+04 0.151152031772082D+02 0.100980886997083D+03 -.109532364482956D+04
 0.439337988527689D+03 -.285027494798077D+02 0.321852683572014D+02 -.437229424829141D+03
-.482533940559D+00 0.000000000000D+00 0.000000000000D+00 0.592092441192D-03 0.000000000000D+00  6 2 1 25 2 1 21 2 0.53046008D+00 0.21489254D+00 0.22058409D+06 0.22058409D+06 0.22058409D+06 0.10945728D+01  1  2 13  4  6  5        1 -.622393291360D-01 0.100000000000D+01
-.529450997144D-09 0.000000000000D+00 0.000000000000D+00 0.592092441192D-03 0.000000000000D+00  6 2 1 25 2 1 21 2 0.53046008D+00 0.21489254D+00 0.22058409D+06 0.22058409D+06 0.22058409D+06 0.10945728D+01  1  2 13  4  6  5        1 -.682908954228D-10 0.100000000000D+01
0.384765995495D+00 0.000000000000D+00 0.000000000000D+00 0.592092441192D-03 0.233730610889D-05  6 2 1 25 2 1 21 2 0.53046008D+00 0.21489254D+00 0.22058409D+06 0.22058409D+06 0.22058409D+06 0.10945728D+01  1  2  1  4  6  5        1 0.496287937927D-01 0.100000000000D+01
  </mgrwgt>
  </event>
  <event>
  5     66 0.18337608E-05 0.24007241E+02 0.75467711E-02 0.93527319E-01
        2 -1    0    0  501    0 0.00000000E+00 0.00000000E+00 0.11917149E+04 0.11917149E+04 0.32000000E+00 0.0000E+00 0.9000E+01
        1 -1    0    0  502    0 0.00000000E+00 0.00000000E+00 -.11012167E+04 0.11012167E+04 0.32000000E+00 0.0000E+00 0.9000E+01
       25  1    1    2    0    0 0.77582053E+02 0.52098630E+03 0.31708104E+03 0.62738432E+03 0.12500000E+03 0.0000E+00 0.9000E+01
        2  1    1    2  501    0 -.19940575E+02 0.13378226E+02 0.64290590E+03 0.64335426E+03 0.32000000E+00 0.0000E+00 0.9000E+01
        1  1    1    2  502    0 -.57641478E+02 -.53436452E+03 -.86948873E+03 0.10221931E+04 0.32000000E+00 0.0000E+00 0.9000E+01
#aMCatNLO 1  0  0  5  2 0.18039363D+01 0.00000000D+00  -5  6  0 0.00000000D+00 0.00000000D+00 0.00000000D+00 0.00000000D+00 0.00000000D+00
  <mgrwgt>
 0.4442307441D-01    3    2    0
 0.114557253937630D+04 0.000000000000000D+00 0.000000000000000D+00 0.114557253937630D+04
 0.114557253937630D+04 -.000000000000000D+00 -.000000000000000D+00 -.114557253937630D+04
 0.615467325343802D+03 0.775862132431730D+02 0.521059124067769D+03 0.292664991596480D+03
 0.618324413205137D+03 -.199361509073731D+02 0.133752570755857D+02 0.617858181422434D+03
 0.105735334020366D+04 -.576500623357998D+02 -.534434381143355D+03 -.910523173018914D+03
 0.000000000000000D+00 0.000000000000000D+00 0.000000000000000D+00 0.000000000000000D+00
 0.114557253937630D+04 0.000000000000000D+00 0.000000000000000D+00 0.114557253937630D+04
 0.114557253937630D+04 -.000000000000000D+00 -.000000000000000D+00 -.114557253937630D+04
 0.359021479149514D+03 0.569853513095331D+02 0.330082593385207D+03 -.327043387172212D+02
 0.346360063115481D+03 -.403297476470912D+02 -.175679859454796D+03 0.295762390709206D+03
 0.912246675762492D+03 -.263968873677270D+02 0.275907081726554D+02 -.911447175978698D+03
 0.673516860725109D+03 0.974128370528508D+01 -.181993442103067D+03 0.648389123986713D+03
0.110595812742D-01 0.000000000000D+00 0.000000000000D+00 0.458001395117D-04 0.000000000000D+00  6 2 1 25 2 1 21 0 0.18334076D+00 0.16941796D+00 0.30413722D+06 0.30413722D+06 0.30413722D+06 0.10841121D+01  1  2  2  4  6  5        1 0.394312962540D-01 0.100000000000D+01
0.736602462482D-02 0.000000000000D+00 -.424717041475D-04 0.458001395117D-04 0.000000000000D+00  6 2 1 25 2 1 21 2 0.18334076D+00 0.16941796D+00 0.30413722D+06 0.30413722D+06 0.30413722D+06 0.10841121D+01  1  2  3  4  6  5        1 0.308662511603D-01 0.100000000000D+01
-.617477011632D-02 0.000000000000D+00 0.000000000000D+00 0.458001395117D-04 0.000000000000D+00  6 2 1 25 2 1 21 2 0.18334076D+00 0.16941796D+00 0.30413722D+06 0.30413722D+06 0.30413722D+06 0.10841121D+01  1  2 15  4  6  5        1 -.258744729994D-01 0.100000000000D+01
  </mgrwgt>
  </event>
  <event>
  5     66 -.18337608E-05 0.44783640E+02 0.75467711E-02 0.95523199E-01
        2 -1    0    0  501    0 0.00000000E+00 0.00000000E+00 0.60609950E+03 0.60609959E+03 0.32000000E+00 0.0000E+00 0.9000E+01
        1 -1    0    0  502    0 0.00000000E+00 0.00000000E+00 -.32442025E+04 0.32442026E+04 0.32000000E+00 0.0000E+00 0.9000E+01
       25  1    1    2    0    0 0.42309691E+02 0.44962476E+03 -.51134322E+03 0.69357726E+03 0.12500000E+03 0.0000E+00 0.9000E+01
        2  1    1    2  501    0 -.20073796E+02 -.41075562E+03 0.43265399E+03 0.59691935E+03 0.32000000E+00 0.0000E+00 0.9000E+01
        1  1    1    2  502    0 -.22235895E+02 -.38869140E+02 -.25594138E+04 0.25598055E+04 0.32000000E+00 0.0000E+00 0.9000E+01
#aMCatNLO 1  0  0  2  4 0.40491863D+01 0.00000000D+00  -5  6  0 0.00000000D+00 0.00000000D+00 0.00000000D+00 0.00000000D+00 0.00000000D+00
  <mgrwgt>
 -.2303540120D-02    1    2    0
 0.140225166988388D+04 0.000000000000000D+00 0.000000000000000D+00 0.140225166988388D+04
 0.140225166988388D+04 0.000000000000000D+00 0.000000000000000D+00 -.140225166988388D+04
 0.471196296952769D+03 0.423110227782356D+02 0.449618931517399D+03 -.495332619016171D+02
 0.122646663020239D+04 -.200733533652739D+02 -.410746570177652D+03 0.115546731263674D+04
 0.110684041261261D+04 -.222376694129616D+02 -.388723613397470D+02 -.110593405073512D+04
 0.000000000000000D+00 -.000000000000000D+00 -.000000000000000D+00 -.000000000000000D+00
 0.152051882824772D+04 0.000000000000000D+00 0.000000000000000D+00 0.152051882824772D+04
 0.171983838453743D+04 0.000000000000000D+00 0.000000000000000D+00 -.171983838453743D+04
 0.490614545108330D+03 0.103062104702893D+03 0.460437064550031D+03 -.495332619016171D+02
 0.122478053737020D+04 0.134755341615611D+03 -.383175745650623D+03 0.115546731263674D+04
 0.111229093488292D+04 0.117929840036586D+03 -.139122994603819D+02 -.110593405073512D+04
 0.412671195423696D+03 -.355747286355090D+03 -.633490194390261D+02 -.199319556289709D+03
-.657767261146D-02 0.000000000000D+00 0.000000000000D+00 0.304000538280D-03 0.000000000000D+00  6 2 1 25 2 1 21 2 0.93246085D-01 0.49910809D+00 0.21372404D+06 0.21372404D+06 0.21372404D+06 0.10956185D+01  1  2 14  2  6  2        1 -.230354012002D-02 0.100000000000D+01
  </mgrwgt>
  </event>
  <event>
  6     66 -.18337608E-05 0.21157719E+02 0.75467711E-02 0.94873013E-01
        2 -1    0    0  501    0 0.00000000E+00 0.00000000E+00 0.17538647E+04 0.17538647E+04 0.32000000E+00 0.0000E+00 0.9000E+01
        1 -1    0    0  502    0 0.00000000E+00 0.00000000E+00 -.70959129E+03 0.70959136E+03 0.32000000E+00 0.0000E+00 0.9000E+01
       25  1    1    2    0    0 -.39562511E+03 -.26935702E+03 0.96172093E+03 0.10814826E+04 0.12500000E+03 0.0000E+00 0.9000E+01
        2  1    1    2  503    0 0.22766191E+02 0.13847266E+02 0.56465306E+03 0.56528154E+03 0.32000000E+00 0.0000E+00 0.9000E+01
        1  1    1    2  502    0 0.36267089E+03 0.25943638E+03 -.57248016E+03 0.72565215E+03 0.32000000E+00 0.0000E+00 0.9000E+01
       21  1    1    2  501  503 0.10188026E+02 -.39266214E+01 0.90379549E+02 0.91039769E+02 0.75000000E+00 0.0000E+00 0.9000E+01
#aMCatNLO 2  0  0  4  1 0.77472221D+01 0.00000000D+00  -5  6  0 0.00000000D+00 0.00000000D+00 0.00000000D+00 0.00000000D+00 0.00000000D+00
  <mgrwgt>
 -.3999937405D-02    6    2    0
 0.111558379669198D+04 0.000000000000000D+00 0.000000000000000D+00 0.111558379669198D+04
 0.111558379669198D+04 -.000000000000000D+00 -.000000000000000D+00 -.111558379669198D+04
 0.744400102382831D+03 -.395767251956277D+03 -.269471767866476D+03 0.556111284752847D+03
 0.417295720327887D+03 0.329408101453744D+02 0.991660838470092D+01 0.415875320389514D+03
 0.106947177067323D+04 0.362826441810903D+03 0.259555159481775D+03 -.971986605142361D+03
 0.000000000000000D+00 0.000000000000000D+00 0.000000000000000D+00 0.000000000000000D+00
 0.111558379669198D+04 0.000000000000000D+00 0.000000000000000D+00 0.111558379669198D+04
 0.111558379669198D+04 -.000000000000000D+00 -.000000000000000D+00 -.111558379669198D+04
 0.744539891161572D+03 -.395751352097871D+03 -.269466981321504D+03 0.556312019303078D+03
 0.359445664595748D+03 0.227286221548874D+02 0.138425897003729D+02 0.358459172350223D+03
 0.106921914679824D+04 0.362849280127362D+03 0.259562034802676D+03 -.971698273066344D+03
 0.579628908283864D+02 0.101734498156211D+02 -.393764318154563D+01 0.569270814130437D+02
-.168103296068D-02 0.000000000000D+00 0.000000000000D+00 0.463934538904D-04 0.000000000000D+00  6 2 1 25 2 1 21 2 0.26982534D+00 0.10916790D+00 0.23935627D+06 0.23935627D+06 0.23935627D+06 0.10918834D+01  1  2 13  3  6  4        2 -.737377374934D-02 0.100000000000D+01
-.979196008966D-09 0.000000000000D+00 0.000000000000D+00 0.463934538904D-04 0.000000000000D+00  6 2 1 25 2 1 21 2 0.26982534D+00 0.10916790D+00 0.23935627D+06 0.23935627D+06 0.23935627D+06 0.10918834D+01  1  2 13  3  6  4        2 -.429519824730D-08 0.100000000000D+01
-.438425885884D-03 0.000000000000D+00 0.000000000000D+00 0.463934538904D-04 0.000000000000D+00  6 2 1 25 2 1 21 2 0.26982534D+00 0.10916790D+00 0.23782875D+06 0.23782875D+06 0.23782875D+06 0.10920935D+01  1  2  8  3  6  4        2 -.192462744679D-02 0.100000000000D+01
-.262719814044D-02 0.000000000000D+00 0.000000000000D+00 0.463934538904D-04 0.000000000000D+00  6 2 1 25 2 1 21 2 0.26982534D+00 0.10916790D+00 0.23782875D+06 0.23782875D+06 0.23782875D+06 0.10920935D+01  1  2  9  3  6  4        2 -.115330271593D-01 0.100000000000D+01
0.301718241963D-02 0.000000000000D+00 0.000000000000D+00 0.463934538904D-04 0.000000000000D+00  6 2 1 25 2 1 21 2 0.26982534D+00 0.10916790D+00 0.23782875D+06 0.23782875D+06 0.23782875D+06 0.10920935D+01  1  2 10  3  6  4        2 0.132450028243D-01 0.100000000000D+01
0.817629097084D-03 0.000000000000D+00 0.000000000000D+00 0.463934538904D-04 0.569559161679D-06  6 2 1 25 2 1 21 2 0.26982534D+00 0.10916790D+00 0.23935627D+06 0.23935627D+06 0.23935627D+06 0.10918834D+01  1  2  1  3  6  4        2 0.358649242090D-02 0.100000000000D+01
  </mgrwgt>
  </event>
  <event>
  6     66 -.18337608E-05 0.19505152E+03 0.75467711E-02 0.94376188E-01
        2 -1    0    0  501    0 0.00000000E+00 0.00000000E+00 0.15836949E+04 0.15836949E+04 0.32000000E+00 0.0000E+00 0.9000E+01
        1 -1    0    0  502    0 -.00000000E+00 -.00000000E+00 -.20278063E+04 0.20278063E+04 0.32000000E+00 0.0000E+00 0.9000E+01
       25  1    1    2    0    0 0.29164377E+03 -.40555904E+03 0.33928440E+03 0.61666290E+03 0.12500000E+03 0.0000E+00 0.9000E+01
        2  1    1    2  503    0 -.53555080E+02 0.40231602E+02 0.47273616E+03 0.47745818E+03 0.32000000E+00 0.0000E+00 0.9000E+01
        1  1    1    2  502    0 -.13542727E+03 0.26044614E+03 -.18665877E+04 0.18895297E+04 0.32000000E+00 0.0000E+00 0.9000E+01
       21  1    1    2  501  503 -.10266142E+03 0.10488130E+03 0.61045575E+03 0.62785049E+03 0.75000000E+00 0.0000E+00 0.9000E+01
#aMCatNLO 2  0  0  4  1 0.26844530D+02 0.00000000D+00  -5  6  0 0.00000000D+00 0.00000000D+00 0.00000000D+00 0.00000000D+00 0.00000000D+00
  <mgrwgt>
 -.1026082787D-01    3    2    0
 0.179204535011487D+04 0.000000000000000D+00 0.000000000000000D+00 0.179204535011487D+04
 0.179204535011487D+04 -.000000000000000D+00 -.000000000000000D+00 -.179204535011487D+04
 0.663565721078863D+03 0.291673138026313D+03 -.405625776379895D+03 0.418436346749422D+03
 0.124725534844016D+04 -.156273146568282D+03 0.145165518565162D+03 0.122888224826219D+04
 0.167326963071072D+04 -.135399991458031D+03 0.260460257814733D+03 -.164731859501161D+04
 0.000000000000000D+00 0.000000000000000D+00 0.000000000000000D+00 0.000000000000000D+00
 0.179204535011487D+04 0.000000000000000D+00 0.000000000000000D+00 0.179204535011487D+04
 0.179204535011487D+04 -.000000000000000D+00 -.000000000000000D+00 -.179204535011487D+04
 0.663673692099550D+03 0.291645819792934D+03 -.405600399879825D+03 0.418651168635276D+03
 0.539301969970145D+03 -.535157606472287D+02 0.402011385103803D+02 0.535132270227182D+03
 0.167275199734025D+04 -.135468861775490D+03 0.260524232947807D+03 -.164677702077179D+04
 0.708363040819786D+03 -.102661197370215D+03 0.104875028421638D+03 0.692993581909333D+03
-.490458218440D-01 0.000000000000D+00 0.000000000000D+00 0.691219702251D-04 0.000000000000D+00  6 2 1 25 2 1 21 2 0.24364537D+00 0.31197020D+00 0.26127545D+06 0.26127545D+06 0.26127545D+06 0.10890207D+01  1  2 13  3  6  4        2 -.297330898257D-01 0.100000000000D+01
-.862437015815D-09 0.000000000000D+00 0.000000000000D+00 0.691219702251D-04 0.000000000000D+00  6 2 1 25 2 1 21 2 0.24364537D+00 0.31197020D+00 0.26127545D+06 0.26127545D+06 0.26127545D+06 0.10890207D+01  1  2 13  3  6  4        2 -.522835917437D-09 0.100000000000D+01
0.321202109138D-01 0.000000000000D+00 0.000000000000D+00 0.691219702251D-04 0.992717721604D-07  6 2 1 25 2 1 21 2 0.24364537D+00 0.31197020D+00 0.26127545D+06 0.26127545D+06 0.26127545D+06 0.10890207D+01  1  2  1  3  6  4        2 0.194722624765D-01 0.100000000000D+01
  </mgrwgt>
  </event>
  <event>
  5     66 0.18337608E-05 0.36408721E+02 0.75467711E-02 0.94274571E-01
        2 -1    0    0  501    0 0.00000000E+00 0.00000000E+00 0.49142604E+03 0.49142614E+03 0.32000000E+00 0.0000E+00 0.9000E+01
        1 -1    0    0  502    0 0.00000000E+00 0.00000000E+00 -.93171122E+03 0.93171127E+03 0.32000000E+00 0.0000E+00 0.9000E+01
       25  1    1    2    0    0 0.18515618E+03 -.43811031E+03 0.92311923E+02 0.50036981E+03 0.12500000E+03 0.0000E+00 0.9000E+01
        2  1    1    2  501    0 -.21797509E+03 0.45386062E+03 -.13198168E+03 0.52050156E+03 0.32000000E+00 0.0000E+00 0.9000E+01
        1  1    1    2  502    0 0.32818902E+02 -.15750313E+02 -.40061542E+03 0.40226605E+03 0.32000000E+00 0.0000E+00 0.9000E+01
#aMCatNLO 1  0  0  1  5 0.91289843D+02 0.00000000D+00  -5  6  0 0.00000000D+00 0.00000000D+00 0.00000000D+00 0.00000000D+00 0.00000000D+00
  <mgrwgt>
 0.1070361292D-02    7    2    0
 0.676658899461197D+03 0.000000000000000D+00 0.000000000000000D+00 0.676658899461197D+03
 0.676658899461197D+03 0.000000000000000D+00 0.000000000000000D+00 -.676658899461197D+03
 0.556200757228848D+03 0.185125892778703D+03 -.438056582492902D+03 0.259940602252653D+03
 0.504359168223548D+03 -.217950408179268D+03 0.453809239074080D+03 0.305444704757544D+02
 0.292757873469997D+03 0.328245154005649D+02 -.157526565811784D+02 -.290485072728407D+03
 0.000000000000000D+00 0.000000000000000D+00 -.000000000000000D+00 0.000000000000000D+00
 0.782977377580137D+03 0.000000000000000D+00 0.000000000000000D+00 0.782977377580137D+03
 0.698080664766078D+03 0.000000000000000D+00 0.000000000000000D+00 -.698080664766078D+03
 0.526594673778005D+03 0.162319642409961D+03 -.409585360382661D+03 0.259940602252653D+03
 0.538589119253622D+03 -.239917382812451D+03 0.481232713067360D+03 0.305444704757544D+02
 0.291209549752948D+03 0.205247707952268D+02 -.397709805806853D+00 -.290485072728407D+03
 0.124664699561640D+03 0.570729696072632D+02 -.712496428788925D+02 0.848967128140588D+02
0.140052648239D-03 0.000000000000D+00 0.000000000000D+00 0.415235593846D-06 0.000000000000D+00  6 2 1 25 2 1 21 0 0.75604018D-01 0.14334020D+00 0.26603095D+06 0.26603095D+06 0.26603095D+06 0.10884343D+01  1  2  2  1  6  1        2 0.213057375704D-02 0.100000000000D+01
0.540008519551D-04 0.000000000000D+00 -.537839045947D-06 0.415235593846D-06 0.000000000000D+00  6 2 1 25 2 1 21 2 0.75604018D-01 0.14334020D+00 0.26603095D+06 0.26603095D+06 0.26603095D+06 0.10884343D+01  1  2  3  1  6  1        2 0.973218352211D-03 0.100000000000D+01
-.901025484939D-04 0.000000000000D+00 0.000000000000D+00 0.415235593846D-06 0.000000000000D+00  6 2 1 25 2 1 21 2 0.75604018D-01 0.14334020D+00 0.26603095D+06 0.26603095D+06 0.26603095D+06 0.10884343D+01  1  2 15  1  6  1        2 -.162385315417D-02 0.100000000000D+01
-.206108984556D-03 0.000000000000D+00 0.000000000000D+00 0.415235593846D-06 0.000000000000D+00  6 2 1 25 2 1 21 2 0.75604018D-01 0.14334020D+00 0.26603095D+06 0.26603095D+06 0.26603095D+06 0.10884343D+01  1  2  4  1  6  1        2 -.371455336468D-02 0.100000000000D+01
-.111133780689D-02 0.000000000000D+00 -.214669923561D-03 0.415235593846D-06 0.000000000000D+00  6 2 1 25 2 1 21 2 0.89341365D-01 0.14334020D+00 0.26603095D+06 0.26603095D+06 0.26603095D+06 0.10884343D+01  1  2  5  1  6  1        2 -.165413594712D-01 0.100000000000D+01
0.113429018600D-02 0.000000000000D+00 0.211712424347D-03 0.415235593846D-06 0.000000000000D+00  6 2 1 25 2 1 21 2 0.75604018D-01 0.14334020D+00 0.26603095D+06 0.26603095D+06 0.26603095D+06 0.10884343D+01  1  2  6  1  6  1        2 0.204424927715D-01 0.100000000000D+01
-.258195154922D-04 0.000000000000D+00 -.533576848699D-05 0.415235593846D-06 0.000000000000D+00  6 21 1 25 2 1 -2 2 0.89341365D-01 0.14334020D+00 0.26603095D+06 0.26603095D+06 0.26603095D+06 0.10884343D+01  1  2  5  5  6  1        2 -.596157598639D-03 0.100000000000D+01
  </mgrwgt>
  </event>
  <event>
  5     66 -.18337608E-05 0.54811401E+02 0.75467711E-02 0.93828019E-01
        2 -1    0    0  501    0 0.00000000E+00 0.00000000E+00 0.16712532E+04 0.16712532E+04 0.32000000E+00 0.0000E+00 0.9000E+01
        1 -1    0    0  502    0 0.00000000E+00 0.00000000E+00 -.15152534E+04 0.15152535E+04 0.32000000E+00 0.0000E+00 0.9000E+01
       25  1    1    2    0    0 0.35285146E+03 -.38432597E+03 0.14232447E+03 0.55506023E+03 0.12500000E+03 0.0000E+00 0.9000E+01
        2  1    1    2  501    0 -.34614387E+02 0.42502374E+02 0.12802946E+04 0.12814676E+04 0.32000000E+00 0.0000E+00 0.9000E+01
        1  1    1    2  502    0 -.31823707E+03 0.34182360E+03 -.12666194E+04 0.13499789E+04 0.32000000E+00 0.0000E+00 0.9000E+01
#aMCatNLO 1  0  0  2  5 0.29384426D+02 0.00000000D+00  -5  6  0 0.00000000D+00 0.00000000D+00 0.00000000D+00 0.00000000D+00 0.00000000D+00
  <mgrwgt>
 -.1593156557D+00   11    2    0
 0.159134288153086D+04 0.000000000000000D+00 0.000000000000000D+00 0.159134288153086D+04
 0.159134288153086D+04 0.000000000000000D+00 0.000000000000000D+00 -.159134288153086D+04
 0.548801291918443D+03 0.352878221221040D+03 -.384354514558949D+03 0.115353483421099D+03
 0.122018757313631D+04 -.346125560628361D+02 0.425001256131460D+02 0.121895587447698D+04
 0.141369689800696D+04 -.318265665158204D+03 0.341854388945803D+03 -.133430935789808D+04
 0.000000000000000D+00 -.000000000000000D+00 0.000000000000000D+00 -.000000000000000D+00
 0.159237382114794D+04 0.000000000000000D+00 0.000000000000000D+00 0.159237382114794D+04
 0.181553820875208D+04 0.000000000000000D+00 0.000000000000000D+00 -.181553820875208D+04
 0.552442185779135D+03 0.352987024235712D+03 -.389436905303367D+03 0.115353483421099D+03
 0.121984044098072D+04 -.343714809425779D+02 0.312390593310583D+02 0.121895587447698D+04
 0.141053878055722D+04 -.317986630265199D+03 0.328820151228636D+03 -.133430935789808D+04
 0.225090622582954D+03 -.628913027934622D+00 0.293776947436728D+02 -.223164387604144D+03
0.151536277840D-02 0.000000000000D+00 0.000000000000D+00 0.247407757506D-03 0.000000000000D+00  6 2 1 25 2 1 21 0 0.25711588D+00 0.23311592D+00 0.28006633D+06 0.28006633D+06 0.28006633D+06 0.10867680D+01  1  2  2  2  6  2        1 0.151231453651D-02 0.100000000000D+01
0.691354526247D-03 0.000000000000D+00 -.581939207322D-05 0.247407757506D-03 0.000000000000D+00  6 2 1 25 2 1 21 2 0.25711588D+00 0.23311592D+00 0.28006633D+06 0.28006633D+06 0.28006633D+06 0.10867680D+01  1  2  3  2  6  2        1 0.814891913020D-03 0.100000000000D+01
-.981007415942D-03 0.000000000000D+00 0.000000000000D+00 0.247407757506D-03 0.000000000000D+00  6 2 1 25 2 1 21 2 0.25711588D+00 0.23311592D+00 0.28006633D+06 0.28006633D+06 0.28006633D+06 0.10867680D+01  1  2 15  2  6  2        1 -.115630256188D-02 0.100000000000D+01
0.214055905373D+00 0.000000000000D+00 0.000000000000D+00 0.247407757506D-03 0.000000000000D+00  6 2 1 25 2 1 21 2 0.25711588D+00 0.26913531D+00 0.28811196D+06 0.28811196D+06 0.28811196D+06 0.10858534D+01  1  2 12  2  6  2        1 0.175396501898D+00 0.100000000000D+01
0.174886124071D-08 0.000000000000D+00 0.000000000000D+00 0.247407757506D-03 0.000000000000D+00  6 2 1 25 2 1 21 2 0.25711588D+00 0.26605194D+00 0.28811196D+06 0.28811196D+06 0.28811196D+06 0.10858534D+01  1  2 12  2  6  2        1 0.147759755410D-08 0.100000000000D+01
-.349870557355D+00 0.000000000000D+00 0.000000000000D+00 0.247407757506D-03 0.000000000000D+00  6 2 1 25 2 1 21 2 0.25711588D+00 0.23311592D+00 0.28006633D+06 0.28006633D+06 0.28006633D+06 0.10867680D+01  1  2  4  2  6  2        1 -.412388545918D+00 0.100000000000D+01
-.238724543243D+00 0.000000000000D+00 -.230212879523D-02 0.247407757506D-03 0.000000000000D+00  6 2 1 25 2 1 21 2 0.25711588D+00 0.26601770D+00 0.28006633D+06 0.28006633D+06 0.28006633D+06 0.10867680D+01  1  2  5  2  6  2        1 -.202592137524D+00 0.100000000000D+01
0.236979988901D+00 0.000000000000D+00 0.228220913569D-02 0.247407757506D-03 0.000000000000D+00  6 2 1 25 2 1 21 2 0.25711588D+00 0.23311592D+00 0.28006633D+06 0.28006633D+06 0.28006633D+06 0.10867680D+01  1  2  6  2  6  2        1 0.279325684828D+00 0.100000000000D+01
0.471492424300D-02 0.000000000000D+00 0.000000000000D+00 0.247407757506D-03 0.000000000000D+00  6 2 21 25 2 1 -1 2 0.25711588D+00 0.26913531D+00 0.28811196D+06 0.28811196D+06 0.28811196D+06 0.10858534D+01  1  2 12  6  6  2        1 0.240155100345D-02 0.100000000000D+01
0.359641052025D-10 0.000000000000D+00 0.000000000000D+00 0.247407757506D-03 0.000000000000D+00  6 2 21 25 2 1 -1 2 0.25711588D+00 0.26605194D+00 0.28811196D+06 0.28811196D+06 0.28811196D+06 0.10858534D+01  1  2 12  6  6  2        1 0.192154197920D-10 0.100000000000D+01
-.489256234833D-02 0.000000000000D+00 -.473034972120D-04 0.247407757506D-03 0.000000000000D+00  6 2 21 25 2 1 -1 2 0.25711588D+00 0.26601770D+00 0.28006633D+06 0.28006633D+06 0.28006633D+06 0.10867680D+01  1  2  5  6  6  2        1 -.262961534071D-02 0.100000000000D+01
  </mgrwgt>
  </event>
  <event>
  5     66 0.18337608E-05 0.14675597E+02 0.75467711E-02 0.89697745E-01
        2 -1    0    0  501    0 0.00000000E+00 0.00000000E+00 0.10455426E+04 0.10455427E+04 0.32000000E+00 0.0000E+00 0.9000E+01
        1 -1    0    0  502    0 0.00000000E+00 0.00000000E+00 -.84821059E+03 0.84821065E+03 0.32000000E+00 0.0000E+00 0.9000E+01
       25  1    1    2    0    0 -.19052982E+02 0.51891169E+03 0.73169460E+03 0.90588871E+03 0.12500000E+03 0.0000E+00 0.9000E+01
        2  1    1    2  501    0 0.12554274E+02 -.76610360E+01 0.14045607E+03 0.14122433E+03 0.32000000E+00 0.0000E+00 0.9000E+01
        1  1    1    2  502    0 0.64987081E+01 -.51125066E+03 -.67481864E+03 0.84664028E+03 0.32000000E+00 0.0000E+00 0.9000E+01
#aMCatNLO 1  0  0  1  4 0.81728438D+02 0.00000000D+00  -5  6  0 0.00000000D+00 0.00000000D+00 0.00000000D+00 0.00000000D+00 0.00000000D+00
  <mgrwgt>
 0.7502648379D-02    7    2    0
 0.941722055713098D+03 0.000000000000000D+00 0.000000000000000D+00 0.941722055713098D+03
 0.941722055713098D+03 0.000000000000000D+00 0.000000000000000D+00 -.941722055713098D+03
 0.834425503484962D+03 -.190298831907045D+02 0.518983732366353D+03 0.641041862869322D+03
 0.127007713212149D+03 0.125273103153600D+02 -.764458173406577D+01 0.126156989825191D+03
 0.922010894729084D+03 0.650257287534452D+01 -.511339150632288D+03 -.767198852694513D+03
 0.000000000000000D+00 -.000000000000000D+00 0.000000000000000D+00 0.000000000000000D+00
 0.136363861397792D+04 0.000000000000000D+00 0.000000000000000D+00 0.136363861397792D+04
 0.107732902180068D+04 0.000000000000000D+00 0.000000000000000D+00 -.107732902180068D+04
 0.818108704097646D+03 0.156688249296336D+03 0.467109167434989D+03 0.641041862869322D+03
 0.133352116915180D+03 0.402120280747232D+02 -.158175156748501D+02 0.126156989825191D+03
 0.978862096645600D+03 0.208627194929631D+03 -.571009297830988D+03 -.767198852694513D+03
 0.510644718120172D+03 -.405527472300690D+03 0.119717646070849D+03 0.286309592177241D+03
0.655039615041D-03 0.000000000000D+00 0.000000000000D+00 0.630059521063D-05 0.000000000000D+00  6 2 1 25 2 1 21 0 0.16085272D+00 0.13049395D+00 0.28101670D+06 0.28101670D+06 0.28101670D+06 0.10866585D+01  1  2  2  1  6  1        2 0.450972109108D-02 0.100000000000D+01
0.287109392229D-03 0.000000000000D+00 -.251552459765D-05 0.630059521063D-05 0.000000000000D+00  6 2 1 25 2 1 21 2 0.16085272D+00 0.13049395D+00 0.28101670D+06 0.28101670D+06 0.28101670D+06 0.10866585D+01  1  2  3  1  6  1        2 0.233407963770D-02 0.100000000000D+01
-.420907102407D-03 0.000000000000D+00 0.000000000000D+00 0.630059521063D-05 0.000000000000D+00  6 2 1 25 2 1 21 2 0.16085272D+00 0.13049395D+00 0.28101670D+06 0.28101670D+06 0.28101670D+06 0.10866585D+01  1  2 15  1  6  1        2 -.342179922943D-02 0.100000000000D+01
-.217371974780D-05 0.000000000000D+00 0.000000000000D+00 0.630059521063D-05 0.000000000000D+00  6 2 1 25 2 1 21 2 0.16085272D+00 0.13049395D+00 0.28101670D+06 0.28101670D+06 0.28101670D+06 0.10866585D+01  1  2  4  1  6  1        2 -.176714351350D-04 0.100000000000D+01
-.685925751182D-03 0.000000000000D+00 -.427396445637D-03 0.630059521063D-05 0.000000000000D+00  6 2 1 25 2 1 21 2 0.24937383D+00 0.13049395D+00 0.28101670D+06 0.28101670D+06 0.28101670D+06 0.10866585D+01  1  2  5  1  6  1        2 -.262980385419D-02 0.100000000000D+01
0.830259243920D-03 0.000000000000D+00 0.389365120190D-03 0.630059521063D-05 0.000000000000D+00  6 2 1 25 2 1 21 2 0.16085272D+00 0.13049395D+00 0.28101670D+06 0.28101670D+06 0.28101670D+06 0.10866585D+01  1  2  6  1  6  1        2 0.674966144507D-02 0.100000000000D+01
-.184917324374D-04 0.000000000000D+00 -.217785220520D-04 0.630059521063D-05 0.000000000000D+00  6 21 1 25 2 1 -2 2 0.24937383D+00 0.13049395D+00 0.28101670D+06 0.28101670D+06 0.28101670D+06 0.10866585D+01  1  2  5  5  6  1        2 -.215392757166D-04 0.100000000000D+01
  </mgrwgt>
  </event>
  <event>
  5     66 0.18337608E-05 0.62895390E+02 0.75467711E-02 0.91579500E-01
        2 -1    0    0  501    0 0.00000000E+00 0.00000000E+00 0.97176869E+03 0.97176874E+03 0.32000000E+00 0.0000E+00 0.9000E+01
        1 -1    0    0  502    0 -.00000000E+00 -.00000000E+00 -.10629818E+04 0.10629819E+04 0.32000000E+00 0.0000E+00 0.9000E+01
       25  1    1    2    0    0 -.35502581E+03 0.54852703E+03 -.11647067E+03 0.67536334E+03 0.12500000E+03 0.0000E+00 0.9000E+01
        2  1    1    2  501    0 0.23961196E+02 -.58166494E+02 0.55901705E+03 0.56254568E+03 0.32000000E+00 0.0000E+00 0.9000E+01
        1  1    1    2  502    0 0.33106461E+03 -.49036053E+03 -.53375953E+03 0.79684162E+03 0.32000000E+00 0.0000E+00 0.9000E+01
#aMCatNLO 1  0  0  4  1 0.43374316D+01 0.00000000D+00  -5  6  0 0.00000000D+00 0.00000000D+00 0.00000000D+00 0.00000000D+00 0.00000000D+00
  <mgrwgt>
 0.7582139128D-02    9    2    0
 0.101635258614834D+04 0.000000000000000D+00 0.000000000000000D+00 0.101635258614834D+04
 0.101635258614834D+04 -.000000000000000D+00 -.000000000000000D+00 -.101635258614834D+04
 0.670881995637949D+03 -.355071819682529D+03 0.548593004213135D+03 -.861821946048094D+02
 0.588073698478198D+03 0.239562002612323D+02 -.581543681546145D+02 0.584700645437823D+03
 0.773749478180529D+03 0.331115619421297D+03 -.490438636058521D+03 -.498518450833014D+03
 0.000000000000000D+00 0.000000000000000D+00 -.000000000000000D+00 0.000000000000000D+00
 0.101635258614834D+04 0.000000000000000D+00 0.000000000000000D+00 0.101635258614834D+04
 0.101635258614834D+04 -.000000000000000D+00 -.000000000000000D+00 -.101635258614834D+04
 0.670868101982195D+03 -.355069360022903D+03 0.548587033318341D+03 -.861221615212987D+02
 0.531111830234099D+03 0.215602105123443D+02 -.482044902475244D+02 0.528480142159811D+03
 0.773710450483323D+03 0.331118456182566D+03 -.490445522378446D+03 -.498449213803487D+03
 0.570147895970568D+02 0.239069332799312D+01 -.993702069237064D+01 0.560912331649746D+02
0.118998542645D-04 0.000000000000D+00 0.000000000000D+00 0.297834609532D-05 0.000000000000D+00  6 2 1 25 2 1 21 0 0.14950288D+00 0.16353568D+00 0.43557918D+06 0.43557918D+06 0.43557918D+06 0.10727699D+01  1  2  2  3  6  4        2 0.603248890205D-04 0.100000000000D+01
0.457815037542D-05 0.000000000000D+00 -.456985736793D-07 0.297834609532D-05 0.000000000000D+00  6 2 1 25 2 1 21 2 0.14950288D+00 0.16353568D+00 0.43557918D+06 0.43557918D+06 0.43557918D+06 0.10727699D+01  1  2  3  3  6  4        2 0.267090309244D-04 0.100000000000D+01
-.756619722244D-05 0.000000000000D+00 0.000000000000D+00 0.297834609532D-05 0.000000000000D+00  6 2 1 25 2 1 21 2 0.14950288D+00 0.16353568D+00 0.43557918D+06 0.43557918D+06 0.43557918D+06 0.10727699D+01  1  2 15  3  6  4        2 -.441413625642D-04 0.100000000000D+01
0.886428369740D-03 0.000000000000D+00 0.000000000000D+00 0.297834609532D-05 0.000000000000D+00  6 2 1 25 2 1 21 2 0.14950288D+00 0.16353568D+00 0.43566671D+06 0.43566671D+06 0.43566671D+06 0.10727637D+01  1  2 12  3  6  4        2 0.517132871609D-02 0.100000000000D+01
0.675602674736D-08 0.000000000000D+00 0.000000000000D+00 0.297834609532D-05 0.000000000000D+00  6 2 1 25 2 1 21 2 0.14950288D+00 0.16353568D+00 0.43566671D+06 0.43566671D+06 0.43566671D+06 0.10727637D+01  1  2 12  3  6  4        2 0.394139406160D-07 0.100000000000D+01
-.312370014350D-02 0.000000000000D+00 0.000000000000D+00 0.297834609532D-05 0.000000000000D+00  6 2 1 25 2 1 21 2 0.14950288D+00 0.16353568D+00 0.43557918D+06 0.43557918D+06 0.43557918D+06 0.10727699D+01  1  2  4  3  6  4        2 -.182237359828D-01 0.100000000000D+01
-.906555458286D-02 0.000000000000D+00 0.000000000000D+00 0.297834609532D-05 0.000000000000D+00  6 2 1 25 2 1 21 2 0.14950288D+00 0.16353568D+00 0.43557918D+06 0.43557918D+06 0.43557918D+06 0.10727699D+01  1  2  5  3  6  4        2 -.528886466904D-01 0.100000000000D+01
0.998686211464D-02 0.000000000000D+00 -.000000000000D+00 0.297834609532D-05 0.000000000000D+00  6 2 1 25 2 1 21 2 0.14950288D+00 0.16353568D+00 0.43557918D+06 0.43557918D+06 0.43557918D+06 0.10727699D+01  1  2  6  3  6  4        2 0.582635752836D-01 0.100000000000D+01
0.260832423428D-02 0.000000000000D+00 0.000000000000D+00 0.297834609532D-05 0.268866396231D-06  6 2 1 25 2 1 21 2 0.14950288D+00 0.16353568D+00 0.43566671D+06 0.43566671D+06 0.43566671D+06 0.10727637D+01  1  2 11  3  6  4        2 0.152166858305D-01 0.100000000000D+01
  </mgrwgt>
  </event>
  <event>
  5     66 0.18337608E-05 0.80861243E+02 0.75467711E-02 0.92327269E-01
        2 -1    0    0  501    0 0.00000000E+00 0.00000000E+00 0.20444040E+04 0.20444040E+04 0.32000000E+00 0.0000E+00 0.9000E+01
        1 -1    0    0  502    0 0.00000000E+00 0.00000000E+00 -.19198608E+04 0.19198608E+04 0.32000000E+00 0.0000E+00 0.9000E+01
       25  1    1    2    0    0 -.27868709E+03 -.35802457E+03 0.84585315E+03 0.96795694E+03 0.12500000E+03 0.0000E+00 0.9000E+01
        2  1    1    2  501    0 0.34055898E+03 0.30597269E+03 0.10904948E+04 0.11826998E+04 0.32000000E+00 0.0000E+00 0.9000E+01
        1  1    1    2  502    0 -.61871891E+02 0.52051881E+02 -.18118048E+04 0.18136081E+04 0.32000000E+00 0.0000E+00 0.9000E+01
#aMCatNLO 1  0  0  2  5 0.11443834D+03 0.00000000D+00  -5  6  0 0.00000000D+00 0.00000000D+00 0.00000000D+00 0.00000000D+00 0.00000000D+00
  <mgrwgt>
 0.4153221372D-01    7    2    0
 0.198115398091340D+04 0.000000000000000D+00 0.000000000000000D+00 0.198115398091340D+04
 0.198115398091340D+04 0.000000000000000D+00 0.000000000000000D+00 -.198115398091340D+04
 0.941949356189604D+03 -.278644327018369D+03 -.357994492942234D+03 0.815990730137005D+03
 0.114887908697989D+04 0.340520944961981D+03 0.305938515584672D+03 0.105374108168174D+04
 0.187147951865731D+04 -.618766179436126D+02 0.520559773575626D+02 -.186973181181874D+04
 0.000000000000000D+00 0.000000000000000D+00 0.000000000000000D+00 -.000000000000000D+00
 0.198955394403674D+04 0.000000000000000D+00 0.000000000000000D+00 0.198955394403674D+04
 0.349695079172611D+04 0.000000000000000D+00 0.000000000000000D+00 -.349695079172611D+04
 0.965011302738480D+03 -.307817482818111D+03 -.393737653793764D+03 0.815990730137005D+03
 0.112832458342518D+04 0.305683720002230D+03 0.263255696355074D+03 0.105374108168174D+04
 0.187361351422067D+04 -.119169977416531D+03 -.181402598072590D+02 -.186973181181874D+04
 0.151955533537852D+04 0.121303740232412D+03 0.148622217245949D+03 -.150739684768937D+04
0.426215972956D-02 0.000000000000D+00 0.000000000000D+00 0.140471434880D-03 0.000000000000D+00  6 2 1 25 2 1 21 0 0.31452369D+00 0.29536320D+00 0.25461701D+06 0.25461701D+06 0.25461701D+06 0.10898617D+01  1  2  2  2  6  2        1 0.144566471164D-02 0.100000000000D+01
0.141089046490D-02 0.000000000000D+00 -.163678156139D-04 0.140471434880D-03 0.000000000000D+00  6 2 1 25 2 1 21 2 0.31452369D+00 0.29536320D+00 0.25461701D+06 0.25461701D+06 0.25461701D+06 0.10898617D+01  1  2  3  2  6  2        1 0.568426037176D-03 0.100000000000D+01
-.294765992210D-02 0.000000000000D+00 0.000000000000D+00 0.140471434880D-03 0.000000000000D+00  6 2 1 25 2 1 21 2 0.31452369D+00 0.29536320D+00 0.25461701D+06 0.25461701D+06 0.25461701D+06 0.10898617D+01  1  2 15  2  6  2        1 -.118756678151D-02 0.100000000000D+01
-.378782354930D-02 0.000000000000D+00 0.000000000000D+00 0.140471434880D-03 0.000000000000D+00  6 2 1 25 2 1 21 2 0.31452369D+00 0.29536320D+00 0.25461701D+06 0.25461701D+06 0.25461701D+06 0.10898617D+01  1  2  4  2  6  2        1 -.152605576635D-02 0.100000000000D+01
-.135005062866D+00 0.000000000000D+00 -.196082999270D-02 0.140471434880D-03 0.000000000000D+00  6 2 1 25 2 1 21 2 0.31452369D+00 0.52173360D+00 0.25461701D+06 0.25461701D+06 0.25461701D+06 0.10898617D+01  1  2  5  2  6  2        1 -.484232683808D-02 0.100000000000D+01
0.116954615682D+00 0.000000000000D+00 0.168128846218D-02 0.140471434880D-03 0.000000000000D+00  6 2 1 25 2 1 21 2 0.31452369D+00 0.29536320D+00 0.25461701D+06 0.25461701D+06 0.25461701D+06 0.10898617D+01  1  2  6  2  6  2        1 0.471192132739D-01 0.100000000000D+01
-.836166374470D-02 0.000000000000D+00 -.122915187622D-03 0.140471434880D-03 0.000000000000D+00  6 2 21 25 2 1 -1 2 0.31452369D+00 0.52173360D+00 0.25461701D+06 0.25461701D+06 0.25461701D+06 0.10898617D+01  1  2  5  6  6  2        1 -.451409173612D-04 0.100000000000D+01
  </mgrwgt>
  </event>
  <event>
  5     66 0.18337608E-05 0.23326739E+03 0.75467711E-02 0.92674483E-01
        2 -1    0    0  501    0 0.00000000E+00 0.00000000E+00 0.31137990E+04 0.31137991E+04 0.32000000E+00 0.0000E+00 0.9000E+01
        1 -1    0    0  502    0 0.00000000E+00 0.00000000E+00 -.92014540E+03 0.92014546E+03 0.32000000E+00 0.0000E+00 0.9000E+01
       25  1    1    2    0    0 -.46301397E+03 -.11761031E+03 0.33934030E+02 0.49496529E+03 0.12500000E+03 0.0000E+00 0.9000E+01
        2  1    1    2  501    0 0.26469593E+03 -.51778037E+01 0.28232544E+04 0.28356404E+04 0.32000000E+00 0.0000E+00 0.9000E+01
        1  1    1    2  502    0 0.19831804E+03 0.12278811E+03 -.66353482E+03 0.70333884E+03 0.32000000E+00 0.0000E+00 0.9000E+01
#aMCatNLO 1  0  0  1  5 0.17093805D+03 0.00000000D+00  -5  6  0 0.00000000D+00 0.00000000D+00 0.00000000D+00 0.00000000D+00 0.00000000D+00
  <mgrwgt>
 0.2700112796D-01    9    2    0
 0.169267481260129D+04 0.000000000000000D+00 0.000000000000000D+00 0.169267481260129D+04
 0.169267481260129D+04 0.000000000000000D+00 0.000000000000000D+00 -.169267481260129D+04
 0.567796672392237D+03 -.463023850840494D+03 -.117617355547673D+03 -.280255477032136D+03
 0.154947659831861D+04 0.264693227686643D+03 -.517775083779942D+01 0.152669198427518D+04
 0.126807635449174D+04 0.198330623153851D+03 0.122795106385473D+03 -.124643650724305D+04
 0.000000000000000D+00 -.000000000000000D+00 0.000000000000000D+00 0.000000000000000D+00
 0.219434834006768D+04 0.000000000000000D+00 0.000000000000000D+00 0.219434834006768D+04
 0.170945528494950D+04 0.000000000000000D+00 0.000000000000000D+00 -.170945528494950D+04
 0.566483288724439D+03 -.453661051135107D+03 -.144661102859535D+03 -.280255477032136D+03
 0.155607021230962D+04 0.290327651074491D+03 -.792208672559936D+02 0.152669198427518D+04
 0.126710900440744D+04 0.219257055379661D+03 0.623506706332065D+02 -.124643650724305D+04
 0.514141119575677D+03 -.559236553190458D+02 0.161531299482322D+03 0.484893055118178D+03
0.997567634269D-02 0.000000000000D+00 0.000000000000D+00 0.674863776805D-04 0.000000000000D+00  6 2 1 25 2 1 21 0 0.47904601D+00 0.14156084D+00 0.24592816D+06 0.24592816D+06 0.24592816D+06 0.10909960D+01  1  2  2  1  6  1        2 0.394008371499D-02 0.100000000000D+01
0.123373095630D-02 0.000000000000D+00 -.383092238119D-04 0.674863776805D-04 0.000000000000D+00  6 2 1 25 2 1 21 2 0.47904601D+00 0.14156084D+00 0.24592816D+06 0.24592816D+06 0.24592816D+06 0.10909960D+01  1  2  3  1  6  1        2 0.580002550641D-03 0.100000000000D+01
-.651084712767D-02 0.000000000000D+00 0.000000000000D+00 0.674863776805D-04 0.000000000000D+00  6 2 1 25 2 1 21 2 0.47904601D+00 0.14156084D+00 0.24592816D+06 0.24592816D+06 0.24592816D+06 0.10909960D+01  1  2 15  1  6  1        2 -.306088448344D-02 0.100000000000D+01
0.148145161751D-08 0.000000000000D+00 0.000000000000D+00 0.674863776805D-04 0.000000000000D+00  6 2 1 25 2 1 21 2 0.62382609D+00 0.14156084D+00 0.35529414D+06 0.35529414D+06 0.35529414D+06 0.10791580D+01  1  2 12  1  6  1        2 0.134263423523D-09 0.100000000000D+01
-.650297043664D-02 0.000000000000D+00 0.000000000000D+00 0.674863776805D-04 0.000000000000D+00  6 2 1 25 2 1 21 2 0.47904601D+00 0.14156084D+00 0.24592816D+06 0.24592816D+06 0.24592816D+06 0.10909960D+01  1  2  4  1  6  1        2 -.305718148736D-02 0.100000000000D+01
-.782026527064D-01 0.000000000000D+00 -.587899900944D-02 0.674863776805D-04 0.000000000000D+00  6 2 1 25 2 1 21 2 0.62205689D+00 0.14156084D+00 0.24592816D+06 0.24592816D+06 0.24592816D+06 0.10909960D+01  1  2  5  1  6  1        2 -.772775499220D-02 0.100000000000D+01
0.772814876521D-01 0.000000000000D+00 0.568394681822D-02 0.674863776805D-04 0.000000000000D+00  6 2 1 25 2 1 21 2 0.47904601D+00 0.14156084D+00 0.24592816D+06 0.24592816D+06 0.24592816D+06 0.10909960D+01  1  2  6  1  6  1        2 0.363316327005D-01 0.100000000000D+01
0.521960783374D-10 0.000000000000D+00 0.000000000000D+00 0.674863776805D-04 0.000000000000D+00  6 21 1 25 2 1 -2 2 0.62382609D+00 0.14156084D+00 0.35529414D+06 0.35529414D+06 0.35529414D+06 0.10791580D+01  1  2 12  5  6  1        2 0.846224869696D-13 0.100000000000D+01
-.262774151598D-02 0.000000000000D+00 -.205500936087D-03 0.674863776805D-04 0.000000000000D+00  6 21 1 25 2 1 -2 2 0.62205689D+00 0.14156084D+00 0.24592816D+06 0.24592816D+06 0.24592816D+06 0.10909960D+01  1  2  5  5  6  1        2 -.477017373588D-05 0.100000000000D+01
  </mgrwgt>
  </event>
  <event>
  5     66 0.18337608E-05 0.20589745E+02 0.75467711E-02 0.95153143E-01
        2 -1    0    0  501    0 0.00000000E+00 0.00000000E+00 0.38074435E+04 0.38074436E+04 0.32000000E+00 0.0000E+00 0.9000E+01
        1 -1    0    0  502    0 0.00000000E+00 0.00000000E+00 -.24947721E+04 0.24947722E+04 0.32000000E+00 0.0000E+00 0.9000E+01
       25  1    1    2    0    0 0.44991630E+03 0.11778795E+02 0.18154720E+03 0.50114649E+03 0.12500000E+03 0.0000E+00 0.9000E+01
        2  1    1    2  501    0 -.46649734E+03 -.23984241E+02 0.34503130E+04 0.34817890E+04 0.32000000E+00 0.0000E+00 0.9000E+01
        1  1    1    2  502    0 0.16581042E+02 0.12205446E+02 -.23191888E+04 0.23192802E+04 0.32000000E+00 0.0000E+00 0.9000E+01
#aMCatNLO 1  0  0  4  4 0.46701013D+03 0.00000000D+00  -5  6  0 0.00000000D+00 0.00000000D+00 0.00000000D+00 0.00000000D+00 0.00000000D+00
  <mgrwgt>
 0.2710609312D-01    6    2    0
 0.308199678502039D+04 0.000000000000000D+00 0.000000000000000D+00 0.308199678502039D+04
 0.308199678502039D+04 -.000000000000000D+00 -.000000000000000D+00 -.308199678502039D+04
 0.473724871999963D+03 0.449912249585192D+03 0.117781265547832D+02 0.789335021358681D+02
 0.282507292401838D+04 -.466493945527402D+03 -.239840662049049D+02 0.278618829036667D+04
 0.286519577402243D+04 0.165816959422114D+02 0.122059396501218D+02 -.286512179250253D+04
 0.000000000000000D+00 -.000000000000000D+00 0.000000000000000D+00 0.000000000000000D+00
 0.308199678502039D+04 0.000000000000000D+00 0.000000000000000D+00 0.308199678502039D+04
 0.308199678502039D+04 -.000000000000000D+00 -.000000000000000D+00 -.308199678502039D+04
 0.474498173657272D+03 0.445975042167480D+03 0.115757011122363D+02 0.102448922451924D+03
 0.240985900172969D+04 -.513467313576311D+02 -.336661477261728D+03 0.238567453168374D+04
 0.272648152525734D+04 -.663604110921505D+01 0.110122355347556D+02 -.272645121012582D+04
 0.553154869396472D+03 -.387992269700633D+03 0.314073540614737D+03 0.238327755990154D+03
0.147302776727D+01 0.000000000000D+00 0.000000000000D+00 0.965538419036D-02 0.000000000000D+00  6 2 1 25 2 1 21 0 0.58576055D+00 0.38381110D+00 0.22791188D+06 0.22791188D+06 0.22791188D+06 0.10934942D+01  1  2  2  3  6  4        2 0.158415954727D-01 0.100000000000D+01
0.134681877134D+01 0.000000000000D+00 -.565681448344D-02 0.965538419036D-02 0.000000000000D+00  6 2 1 25 2 1 21 2 0.58576055D+00 0.38381110D+00 0.22791188D+06 0.22791188D+06 0.22791188D+06 0.10934942D+01  1  2  3  3  6  4        2 0.173192925143D-01 0.100000000000D+01
-.108735219203D+01 0.000000000000D+00 0.000000000000D+00 0.965538419036D-02 0.000000000000D+00  6 2 1 25 2 1 21 2 0.58576055D+00 0.38381110D+00 0.22791188D+06 0.22791188D+06 0.22791188D+06 0.10934942D+01  1  2 15  3  6  4        2 -.139827058254D-01 0.100000000000D+01
-.283311669348D-01 0.000000000000D+00 0.000000000000D+00 0.965538419036D-02 0.000000000000D+00  6 2 1 25 2 1 21 2 0.58576055D+00 0.38381110D+00 0.22791188D+06 0.22791188D+06 0.22791188D+06 0.10934942D+01  1  2  4  3  6  4        2 -.364322043808D-03 0.100000000000D+01
-.300588806355D+01 0.000000000000D+00 0.000000000000D+00 0.965538419036D-02 0.000000000000D+00  6 2 1 25 2 1 21 2 0.58576055D+00 0.38381110D+00 0.22791188D+06 0.22791188D+06 0.22791188D+06 0.10934942D+01  1  2  5  3  6  4        2 -.386539419745D-01 0.100000000000D+01
0.365072589677D+01 0.000000000000D+00 -.000000000000D+00 0.965538419036D-02 0.000000000000D+00  6 2 1 25 2 1 21 2 0.58576055D+00 0.38381110D+00 0.22791188D+06 0.22791188D+06 0.22791188D+06 0.10934942D+01  1  2  6  3  6  4        2 0.469461749724D-01 0.100000000000D+01
  </mgrwgt>
  </event>
  <event>
  6     66 0.18337608E-05 0.25528346E+02 0.75467711E-02 0.93951475E-01
        2 -1    0    0  501    0 0.00000000E+00 0.00000000E+00 0.42433612E+04 0.42433612E+04 0.32000000E+00 0.0000E+00 0.9000E+01
        1 -1    0    0  502    0 0.00000000E+00 0.00000000E+00 -.77200890E+03 0.77200896E+03 0.32000000E+00 0.0000E+00 0.9000E+01
       25  1    1    2    0    0 -.48968203E+03 0.24314028E+02 0.40218117E+03 0.64633920E+03 0.12500000E+03 0.0000E+00 0.9000E+01
        2  1    1    2  503    0 0.51019392E+03 -.44452423E+02 0.35347568E+04 0.35716634E+04 0.32000000E+00 0.0000E+00 0.9000E+01
        1  1    1    2  502    0 -.29275259E+02 0.11791672E+02 -.63085999E+03 0.63164904E+03 0.32000000E+00 0.0000E+00 0.9000E+01
       21  1    1    2  501  503 0.87633596E+01 0.83467235E+01 0.16527433E+03 0.16571853E+03 0.75000000E+00 0.0000E+00 0.9000E+01
#aMCatNLO 2  0  0  4  1 0.17173256D+02 0.00000000D+00  -5  6  0 0.00000000D+00 0.00000000D+00 0.00000000D+00 0.00000000D+00 0.00000000D+00
  <mgrwgt>
 0.4097047050D-01    6    2    0
 0.180994828763983D+04 0.000000000000000D+00 0.000000000000000D+00 0.180994828763983D+04
 0.180994828763983D+04 -.000000000000000D+00 -.000000000000000D+00 -.180994828763983D+04
 0.509889072873785D+03 -.489742550561643D+03 0.243155909955600D+02 -.626326818841470D+02
 0.162886105741654D+04 0.519312833290728D+03 -.361304363450694D+02 0.154343678753527D+04
 0.148114644498933D+04 -.295702827290858D+02 0.118148453495094D+02 -.148080410565112D+04
 0.000000000000000D+00 0.000000000000000D+00 0.000000000000000D+00 0.000000000000000D+00
 0.180994828763983D+04 0.000000000000000D+00 0.000000000000000D+00 0.180994828763983D+04
 0.180994828763983D+04 -.000000000000000D+00 -.000000000000000D+00 -.180994828763983D+04
 0.509757705911943D+03 -.489643637150280D+03 0.243087092385846D+02 -.623387037883027D+02
 0.155883174177321D+04 0.510197039997377D+03 -.444558493322626D+02 0.147230399612232D+04
 0.148028695049448D+04 -.292830014020948D+02 0.117948581683103D+02 -.147995028394670D+04
 0.710201771000229D+02 0.872959855499712D+01 0.835228192536769D+01 0.699849916126764D+02
-.121513120165D+01 0.000000000000D+00 0.000000000000D+00 0.501444412740D-03 0.000000000000D+00  6 2 1 25 2 1 21 2 0.65282481D+00 0.11877061D+00 0.28180844D+06 0.28180844D+06 0.28180844D+06 0.10865676D+01  1  2 13  3  6  4        2 -.104815582952D+00 0.100000000000D+01
-.317743224033D-08 0.000000000000D+00 0.000000000000D+00 0.501444412740D-03 0.000000000000D+00  6 2 1 25 2 1 21 2 0.65282481D+00 0.11877061D+00 0.28180844D+06 0.28180844D+06 0.28180844D+06 0.10865676D+01  1  2 13  3  6  4        2 -.274081031010D-09 0.100000000000D+01
-.362393415381D+01 0.000000000000D+00 0.000000000000D+00 0.501444412740D-03 0.000000000000D+00  6 2 1 25 2 1 21 2 0.65282481D+00 0.11877061D+00 0.28007333D+06 0.28007333D+06 0.28007333D+06 0.10867672D+01  1  2  8  3  6  4        2 -.312938368989D+00 0.100000000000D+01
-.301370678334D+01 0.000000000000D+00 0.000000000000D+00 0.501444412740D-03 0.000000000000D+00  6 2 1 25 2 1 21 2 0.65282481D+00 0.11877061D+00 0.28007333D+06 0.28007333D+06 0.28007333D+06 0.10867672D+01  1  2  9  3  6  4        2 -.260243273018D+00 0.100000000000D+01
0.314796956603D+01 0.000000000000D+00 0.000000000000D+00 0.501444412740D-03 0.000000000000D+00  6 2 1 25 2 1 21 2 0.65282481D+00 0.11877061D+00 0.28007333D+06 0.28007333D+06 0.28007333D+06 0.10867672D+01  1  2 10  3  6  4        2 0.271837296102D+00 0.100000000000D+01
0.518360041988D+01 0.000000000000D+00 0.000000000000D+00 0.501444412740D-03 0.348218241136D-04  6 2 1 25 2 1 21 2 0.65282481D+00 0.11877061D+00 0.28180844D+06 0.28180844D+06 0.28180844D+06 0.10865676D+01  1  2  1  3  6  4        2 0.447130399633D+00 0.100000000000D+01
  </mgrwgt>
  </event>
  <event>
  5     66 0.18337608E-05 0.13960960E+03 0.75467711E-02 0.94002517E-01
        2 -1    0    0  501    0 0.00000000E+00 0.00000000E+00 0.20087141E+04 0.20087141E+04 0.32000000E+00 0.0000E+00 0.9000E+01
        1 -1    0    0  502    0 0.00000000E+00 0.00000000E+00 -.96560141E+03 0.96560147E+03 0.32000000E+00 0.0000E+00 0.9000E+01
       25  1    1    2    0    0 -.42887841E+03 -.27366381E+03 0.28327372E+03 0.59556492E+03 0.12500000E+03 0.0000E+00 0.9000E+01
        2  1    1    2  501    0 0.28976626E+03 0.26205428E+03 0.15386764E+04 0.15875018E+04 0.32000000E+00 0.0000E+00 0.9000E+01
        1  1    1    2  502    0 0.13911216E+03 0.11609525E+02 -.77883740E+03 0.79124887E+03 0.32000000E+00 0.0000E+00 0.9000E+01
#aMCatNLO 1  0  0  2  5 0.20658651D+01 0.00000000D+00  -5  6  0 0.00000000D+00 0.00000000D+00 0.00000000D+00 0.00000000D+00 0.00000000D+00
  <mgrwgt>
 0.1561196581D-01   13    2    0
 0.139270144556091D+04 0.000000000000000D+00 0.000000000000000D+00 0.139270144556091D+04
 0.139270144556091D+04 0.000000000000000D+00 0.000000000000000D+00 -.139270144556091D+04
 0.529882141029289D+03 -.428879024351168D+03 -.273653534910661D+03 0.795399816713158D+02
 0.111889630264554D+04 0.289753103357075D+03 0.262042386875063D+03 0.104847787895102D+04
 0.113662444744698D+04 0.139125920994093D+03 0.116111480355980D+02 -.112801786062234D+04
 0.000000000000000D+00 -.000000000000000D+00 0.000000000000000D+00 -.000000000000000D+00
 0.139270495192970D+04 0.000000000000000D+00 0.000000000000000D+00 0.139270495192970D+04
 0.173430951768021D+04 0.000000000000000D+00 0.000000000000000D+00 -.173430951768021D+04
 0.529750448588989D+03 -.428565234879484D+03 -.273890066538847D+03 0.795399816713158D+02
 0.111895123340573D+04 0.290415798146689D+03 0.261542853615594D+03 0.104847787895102D+04
 0.113670197522773D+04 0.139799122162238D+03 0.111036951642727D+02 -.112801786062234D+04
 0.341610812387463D+03 -.164968542944228D+01 0.124351775898018D+01 -.341604565750502D+03
0.749420281031D-05 0.000000000000D+00 0.000000000000D+00 0.322020527161D-04 0.000000000000D+00  6 2 1 25 2 1 21 0 0.30903295D+00 0.14855407D+00 0.27781224D+06 0.27781224D+06 0.27781224D+06 0.10870294D+01  1  2  2  2  6  2        1 0.120399262765D-04 0.100000000000D+01
0.148068824541D-05 0.000000000000D+00 -.287797120605D-07 0.322020527161D-04 0.000000000000D+00  6 2 1 25 2 1 21 2 0.30903295D+00 0.14855407D+00 0.27781224D+06 0.27781224D+06 0.27781224D+06 0.10870294D+01  1  2  3  2  6  2        1 0.281089472907D-05 0.100000000000D+01
-.464852661434D-05 0.000000000000D+00 0.000000000000D+00 0.322020527161D-04 0.000000000000D+00  6 2 1 25 2 1 21 2 0.30903295D+00 0.14855407D+00 0.27781224D+06 0.27781224D+06 0.27781224D+06 0.10870294D+01  1  2 15  2  6  2        1 -.882462530429D-05 0.100000000000D+01
0.536290204388D-03 0.000000000000D+00 0.000000000000D+00 0.322020527161D-04 0.000000000000D+00  6 2 1 25 2 1 21 2 0.30903295D+00 0.18505914D+00 0.27924761D+06 0.27924761D+06 0.27924761D+06 0.10868627D+01  1  2 12  2  6  2        1 0.678942629888D-03 0.100000000000D+01
0.537188111299D-10 0.000000000000D+00 0.000000000000D+00 0.322020527161D-04 0.000000000000D+00  6 2 1 25 2 1 21 2 0.30903295D+00 0.18499230D+00 0.27924761D+06 0.27924761D+06 0.27924761D+06 0.10868627D+01  1  2 12  2  6  2        1 0.680562511588D-10 0.100000000000D+01
-.318532815704D+00 0.000000000000D+00 0.000000000000D+00 0.322020527161D-04 0.000000000000D+00  6 2 1 25 2 1 21 2 0.30903295D+00 0.14855407D+00 0.27781224D+06 0.27781224D+06 0.27781224D+06 0.10870294D+01  1  2  4  2  6  2        1 -.604693267117D+00 0.100000000000D+01
-.353904827030D+00 0.000000000000D+00 -.805868164154D-05 0.322020527161D-04 0.000000000000D+00  6 2 1 25 2 1 21 2 0.30903295D+00 0.18499225D+00 0.27781224D+06 0.27781224D+06 0.27781224D+06 0.10870294D+01  1  2  5  2  6  2        1 -.448684374313D+00 0.100000000000D+01
0.345559071115D+00 0.000000000000D+00 0.786859891146D-05 0.322020527161D-04 0.000000000000D+00  6 2 1 25 2 1 21 2 0.30903295D+00 0.14855407D+00 0.27781224D+06 0.27781224D+06 0.27781224D+06 0.10870294D+01  1  2  6  2  6  2        1 0.655999110273D+00 0.100000000000D+01
0.325543578664D+00 0.000000000000D+00 0.000000000000D+00 0.322020527161D-04 0.448600783316D-04  6 2 1 25 2 1 21 2 0.30903373D+00 0.18499208D+00 0.27924761D+06 0.27924761D+06 0.27924761D+06 0.10868627D+01  1  2 11  2  6  2        1 0.412428801069D+00 0.100000000000D+01
0.164643494981D-04 0.000000000000D+00 0.000000000000D+00 0.322020527161D-04 0.000000000000D+00  6 2 21 25 2 1 -1 2 0.30903295D+00 0.18505914D+00 0.27924761D+06 0.27924761D+06 0.27924761D+06 0.10868627D+01  1  2 12  6  6  2        1 0.218707232690D-04 0.100000000000D+01
0.164919156424D-11 0.000000000000D+00 0.000000000000D+00 0.322020527161D-04 0.000000000000D+00  6 2 21 25 2 1 -1 2 0.30903295D+00 0.18499230D+00 0.27924761D+06 0.27924761D+06 0.27924761D+06 0.10868627D+01  1  2 12  6  6  2        1 0.219333327833D-11 0.100000000000D+01
-.108648681777D-01 0.000000000000D+00 -.247403772359D-06 0.322020527161D-04 0.000000000000D+00  6 2 21 25 2 1 -1 2 0.30903295D+00 0.18499225D+00 0.27781224D+06 0.27781224D+06 0.27781224D+06 0.10870294D+01  1  2  5  6  6  2        1 -.144631564125D-01 0.100000000000D+01
0.107658997342D-01 0.000000000000D+00 0.000000000000D+00 0.322020527161D-04 0.148328170120D-05  6 2 21 25 2 1 -1 2 0.30903373D+00 0.18499208D+00 0.27924761D+06 0.27924761D+06 0.27924761D+06 0.10868627D+01  1  2 11  6  6  2        1 0.143180126938D-01 0.100000000000D+01
  </mgrwgt>
  </event>
  <event>
  5     66 -.18337608E-05 0.29192322E+02 0.75467711E-02 0.84914455E-01
        2 -1    0    0  501    0 0.00000000E+00 0.00000000E+00 0.97259449E+03 0.97259454E+03 0.32000000E+00 0.0000E+00 0.9000E+01
        1 -1    0    0  502    0 0.00000000E+00 0.00000000E+00 -.33643149E+04 0.33643149E+04 0.32000000E+00 0.0000E+00 0.9000E+01
       25  1    1    2    0    0 0.11790436E+04 0.48728405E+03 -.13425346E+03 0.12888905E+04 0.12500000E+03 0.0000E+00 0.9000E+01
        2  1    1    2  501    0 0.22920227E+02 -.18104480E+02 0.23742944E+03 0.23921946E+03 0.32000000E+00 0.0000E+00 0.9000E+01
        1  1    1    2  502    0 -.12019639E+04 -.46917957E+03 -.24948964E+04 0.28087995E+04 0.32000000E+00 0.0000E+00 0.9000E+01
#aMCatNLO 1  0  0  1  1 0.13552831D+03 0.00000000D+00  -5  6  0 0.00000000D+00 0.00000000D+00 0.00000000D+00 0.00000000D+00 0.00000000D+00
  <mgrwgt>
 -.1677025547D-02    1    2    0
 0.180889863022615D+04 0.000000000000000D+00 0.000000000000000D+00 0.180889863022615D+04
 0.180889863022615D+04 0.000000000000000D+00 0.000000000000000D+00 -.180889863022615D+04
 0.145652067041929D+04 0.117915833907434D+04 0.487317888876835D+03 0.691327961195496D+03
 0.443494803347443D+03 0.229079011572316D+02 -.180947438334512D+02 0.442532991884627D+03
 0.171778178668556D+04 -.120206624023157D+04 -.469223145043383D+03 -.113386095308012D+04
 0.000000000000000D+00 -.000000000000000D+00 0.000000000000000D+00 0.000000000000000D+00
 0.241734695934631D+04 0.000000000000000D+00 0.000000000000000D+00 0.241734695934631D+04
 0.236879277699733D+04 0.000000000000000D+00 0.000000000000000D+00 -.236879277699733D+04
 0.152818215723530D+04 0.135259616744078D+04 0.110747296066953D+03 0.691327961195496D+03
 0.468316163637403D+03 0.758922426900952D+02 -.133135073204483D+03 0.442532991884627D+03
 0.176365443977538D+04 -.999763775437071D+03 -.908465032537555D+03 -.113386095308012D+04
 0.102598697569556D+04 -.428724634693802D+03 0.930852809675086D+03 0.485541823489811D+02
-.148900165115D-01 0.000000000000D+00 0.000000000000D+00 0.199951129561D-05 0.000000000000D+00  6 2 1 25 2 1 21 2 0.14962993D+00 0.51758691D+00 0.16920684D+07 0.16920684D+07 0.16920684D+07 0.10329891D+01  1  2 14  1  6  1        2 -.167702554725D-02 0.100000000000D+01
  </mgrwgt>
  </event>
  <event>
  5     66 0.18337608E-05 0.13510584E+03 0.75467711E-02 0.94696169E-01
        2 -1    0    0  501    0 0.00000000E+00 0.00000000E+00 0.40463492E+03 0.40463504E+03 0.32000000E+00 0.0000E+00 0.9000E+01
        1 -1    0    0  502    0 0.00000000E+00 0.00000000E+00 -.19808678E+04 0.19808678E+04 0.32000000E+00 0.0000E+00 0.9000E+01
       25  1    1    2    0    0 -.48426900E+03 -.63860150E+02 -.20332523E+03 0.54365498E+03 0.12500000E+03 0.0000E+00 0.9000E+01
        2  1    1    2  501    0 0.13510720E+03 0.31167198E+01 0.19340331E+03 0.23594196E+03 0.32000000E+00 0.0000E+00 0.9000E+01
        1  1    1    2  502    0 0.34916180E+03 0.60743430E+02 -.15663109E+04 0.16059059E+04 0.32000000E+00 0.0000E+00 0.9000E+01
#aMCatNLO 1  0  0  2  5 0.20658651D+01 0.00000000D+00  -5  6  0 0.00000000D+00 0.00000000D+00 0.00000000D+00 0.00000000D+00 0.00000000D+00
  <mgrwgt>
 0.5767974797D-03    1    2    0
 0.895281212779743D+03 0.000000000000000D+00 0.000000000000000D+00 0.895281212779743D+03
 0.895281212779743D+03 0.000000000000000D+00 0.000000000000000D+00 -.895281212779743D+03
 0.545387890804410D+03 -.484296029434692D+03 -.638695449965536D+02 0.207848474932602D+03
 0.484456281364381D+03 0.135069910230205D+03 0.311585961688762D+01 0.465235745963975D+03
 0.760718253390695D+03 0.349226119204487D+03 0.607536853796660D+02 -.673084220896577D+03
 0.000000000000000D+00 -.000000000000000D+00 -.000000000000000D+00 -.000000000000000D+00
 0.106314244297074D+04 0.000000000000000D+00 0.000000000000000D+00 0.106314244297074D+04
 0.199824201114272D+04 0.000000000000000D+00 0.000000000000000D+00 -.199824201114272D+04
 0.514465050832889D+03 -.437054023859911D+03 0.121787028145604D+03 0.207848474932602D+03
 0.530758325916269D+03 0.180322201611931D+03 0.180953045878233D+03 0.465235745963975D+03
 0.866293707880921D+03 0.421748735432628D+03 0.345760645613553D+03 -.673084220896577D+03
 0.114986736948338D+04 -.165016913184649D+03 -.648500719637390D+03 -.935099568171977D+03
0.135932101331D-03 0.000000000000D+00 0.000000000000D+00 0.308487000392D-05 0.000000000000D+00  6 2 1 25 2 1 21 2 0.62251538D-01 0.30474890D+00 0.24691269D+06 0.24691269D+06 0.24691269D+06 0.10908653D+01  1  2 14  2  6  2        1 0.576797479710D-03 0.100000000000D+01
  </mgrwgt>
  </event>
  <event>
  5     66 -.18337608E-05 0.25043057E+02 0.75467711E-02 0.89370574E-01
        2 -1    0    0  501    0 0.00000000E+00 0.00000000E+00 0.34676456E+04 0.34676456E+04 0.32000000E+00 0.0000E+00 0.9000E+01
        1 -1    0    0  502    0 0.00000000E+00 0.00000000E+00 -.90710632E+03 0.90710638E+03 0.32000000E+00 0.0000E+00 0.9000E+01
       25  1    1    2    0    0 0.72439474E+03 0.33638006E+03 0.16404712E+03 0.82488529E+03 0.12500000E+03 0.0000E+00 0.9000E+01
        2  1    1    2  501    0 -.73643913E+03 -.31442514E+03 0.29189582E+04 0.30268008E+04 0.32000000E+00 0.0000E+00 0.9000E+01
        1  1    1    2  502    0 0.12044386E+02 -.21954914E+02 -.52246606E+03 0.52306593E+03 0.32000000E+00 0.0000E+00 0.9000E+01
#aMCatNLO 1  0  0  1  1 0.13552831D+03 0.00000000D+00  -5  6  0 0.00000000D+00 0.00000000D+00 0.00000000D+00 0.00000000D+00 0.00000000D+00
  <mgrwgt>
 -.3862608611D-03    1    2    0
 0.177356235039903D+04 0.000000000000000D+00 0.000000000000000D+00 0.177356235039903D+04
 0.177356235039903D+04 0.000000000000000D+00 0.000000000000000D+00 -.177356235039903D+04
 0.898895277654687D+03 0.724386974910655D+03 0.336378249353684D+03 -.393066030243569D+03
 0.162591946217084D+04 -.736431929344861D+03 -.314422071104712D+03 0.141506921106691D+04
 0.102230996097253D+04 0.120449544342063D+02 -.219561782489724D+02 -.102200318082334D+04
 0.000000000000000D+00 0.000000000000000D+00 0.000000000000000D+00 -.000000000000000D+00
 0.229227827537328D+04 0.000000000000000D+00 0.000000000000000D+00 0.229227827537328D+04
 0.307100883724791D+04 0.000000000000000D+00 0.000000000000000D+00 -.307100883724791D+04
 0.666783496889868D+03 0.439567428560059D+03 0.285052281770099D+03 -.393066030243569D+03
 0.203971496437691D+04 -.140326369038739D+04 -.434588631965826D+03 0.141506921106691D+04
 0.109159402864950D+04 -.372504664007165D+03 -.912540249146865D+02 -.102200318082334D+04
 0.156519462270491D+04 0.133620092583450D+04 0.240790375110414D+03 -.778730561874633D+03
-.162724007395D-02 0.000000000000D+00 0.000000000000D+00 0.578517690850D-04 0.000000000000D+00  6 2 1 25 2 1 21 2 0.53348394D+00 0.13955482D+00 0.66764363D+06 0.66764363D+06 0.66764363D+06 0.10597470D+01  1  2 14  1  6  1        2 -.386260861082D-03 0.100000000000D+01
  </mgrwgt>
  </event>
  <event>
  5     66 -.18337608E-05 0.54380417E+02 0.75467711E-02 0.87126362E-01
        2 -1    0    0  501    0 0.00000000E+00 0.00000000E+00 0.12478707E+04 0.12478708E+04 0.32000000E+00 0.0000E+00 0.9000E+01
        1 -1    0    0  502    0 -.00000000E+00 -.00000000E+00 -.17486985E+04 0.17486985E+04 0.32000000E+00 0.0000E+00 0.9000E+01
       25  1    1    2    0    0 0.99472796E+03 -.11862964E+02 0.27375021E+03 0.10393212E+04 0.12500000E+03 0.0000E+00 0.9000E+01
        2  1    1    2  501    0 0.62559476E+01 0.54043206E+02 0.40556018E+03 0.40919307E+03 0.32000000E+00 0.0000E+00 0.9000E+01
        1  1    1    2  502    0 -.10009839E+04 -.42180242E+02 -.11801382E+04 0.15480550E+04 0.32000000E+00 0.0000E+00 0.9000E+01
#aMCatNLO 1  0  0  5  1 0.56204485D+02 0.00000000D+00  -5  6  0 0.00000000D+00 0.00000000D+00 0.00000000D+00 0.00000000D+00 0.00000000D+00
  <mgrwgt>
 -.5488805704D-02    6    2    0
 0.147721011307949D+04 0.000000000000000D+00 0.000000000000000D+00 0.147721011307949D+04
 0.147721011307949D+04 -.000000000000000D+00 -.000000000000000D+00 -.147721011307949D+04
 0.110071931609525D+04 0.994836625842837D+03 -.118413540041437D+02 0.454002073830260D+03
 0.483569975783902D+03 0.625322538155548D+01 0.540196900239176D+02 0.480502540827508D+03
 0.137013093427984D+04 -.100108985122439D+04 -.421783360197738D+02 -.934504614657768D+03
 0.000000000000000D+00 0.000000000000000D+00 0.000000000000000D+00 -.000000000000000D+00
 0.147721011307949D+04 0.000000000000000D+00 0.000000000000000D+00 0.147721011307949D+04
 0.147721011307949D+04 -.000000000000000D+00 -.000000000000000D+00 -.147721011307949D+04
 0.109754800728163D+04 0.992374695461079D+03 -.119450810839578D+02 0.451703893202512D+03
 0.482548457563119D+03 0.517122943950613D+01 0.539741029186643D+02 0.479492511408421D+03
 0.116499716757010D+04 -.888551407509435D+03 -.365125789827620D+02 -.752570015503797D+03
 0.209326593744135D+03 -.108994517391149D+03 -.551644285194437D+01 -.178626389107136D+03
0.658648325401D-04 0.000000000000D+00 0.000000000000D+00 0.143940742750D-05 0.000000000000D+00  6 2 1 25 2 1 21 0 0.19198012D+00 0.26903054D+00 0.10599601D+07 0.10599601D+07 0.10599601D+07 0.10461847D+01  1  2  2  4  6  5        1 0.715494152667D-04 0.100000000000D+01
0.287581007234D-04 0.000000000000D+00 -.252938299563D-06 0.143940742750D-05 0.000000000000D+00  6 2 1 25 2 1 21 2 0.19198012D+00 0.26903054D+00 0.10599601D+07 0.10599601D+07 0.10599601D+07 0.10461847D+01  1  2  3  4  6  5        1 0.341923846673D-04 0.100000000000D+01
-.400509317671D-04 0.000000000000D+00 0.000000000000D+00 0.143940742750D-05 0.000000000000D+00  6 2 1 25 2 1 21 2 0.19198012D+00 0.26903054D+00 0.10599601D+07 0.10599601D+07 0.10599601D+07 0.10461847D+01  1  2 15  4  6  5        1 -.476191692364D-04 0.100000000000D+01
-.500950749144D-02 0.000000000000D+00 0.000000000000D+00 0.143940742750D-05 0.000000000000D+00  6 2 1 25 2 1 21 2 0.19198012D+00 0.26903054D+00 0.10599601D+07 0.10599601D+07 0.10599601D+07 0.10461847D+01  1  2  4  4  6  5        1 -.595613071908D-02 0.100000000000D+01
-.209486611040D-02 0.000000000000D+00 0.000000000000D+00 0.143940742750D-05 0.000000000000D+00  6 2 1 25 2 1 21 2 0.19198012D+00 0.26903054D+00 0.10599601D+07 0.10599601D+07 0.10599601D+07 0.10461847D+01  1  2  5  4  6  5        1 -.249072317266D-02 0.100000000000D+01
0.243903290359D-02 0.000000000000D+00 -.000000000000D+00 0.143940742750D-05 0.000000000000D+00  6 2 1 25 2 1 21 2 0.19198012D+00 0.26903054D+00 0.10599601D+07 0.10599601D+07 0.10599601D+07 0.10461847D+01  1  2  6  4  6  5        1 0.289992555690D-02 0.100000000000D+01
  </mgrwgt>
  </event>
  <event>
  5     66 0.18337608E-05 0.18902575E+03 0.75467711E-02 0.95261117E-01
        2 -1    0    0  501    0 0.00000000E+00 0.00000000E+00 0.49609962E+03 0.49609972E+03 0.32000000E+00 0.0000E+00 0.9000E+01
        1 -1    0    0  502    0 0.00000000E+00 0.00000000E+00 -.13193103E+04 0.13193103E+04 0.32000000E+00 0.0000E+00 0.9000E+01
       25  1    1    2    0    0 -.44002000E+03 -.12620096E+03 -.60578709E+03 0.76951107E+03 0.12500000E+03 0.0000E+00 0.9000E+01
        2  1    1    2  501    0 0.15877528E+03 0.10259841E+03 0.35807927E+03 0.40491590E+03 0.32000000E+00 0.0000E+00 0.9000E+01
        1  1    1    2  502    0 0.28124472E+03 0.23602547E+02 -.57550282E+03 0.64098305E+03 0.32000000E+00 0.0000E+00 0.9000E+01
#aMCatNLO 1  0  0  2  5 0.18668129D+02 0.00000000D+00  -5  6  0 0.00000000D+00 0.00000000D+00 0.00000000D+00 0.00000000D+00 0.00000000D+00
  <mgrwgt>
 0.6276277725D-02    7    2    0
 0.809017578691358D+03 0.000000000000000D+00 0.000000000000000D+00 0.809017578691358D+03
 0.809017578691358D+03 0.000000000000000D+00 0.000000000000000D+00 -.809017578691358D+03
 0.555166207308016D+03 -.440058529533784D+03 -.126202972264110D+03 -.288107303123394D+03
 0.636442725286626D+03 0.158763525131973D+03 0.102590816159826D+03 0.607724123346768D+03
 0.426426224788073D+03 0.281295004401810D+03 0.236121561042838D+02 -.319616820223374D+03
 0.000000000000000D+00 -.000000000000000D+00 -.000000000000000D+00 -.000000000000000D+00
 0.831774483507919D+03 0.000000000000000D+00 0.000000000000000D+00 0.831774483507919D+03
 0.151478437907541D+04 0.000000000000000D+00 0.000000000000000D+00 -.151478437907541D+04
 0.501275818814626D+03 -.378945554491479D+03 -.951151678040044D+02 -.288107303123394D+03
 0.666336591063483D+03 0.234126600319303D+03 0.140927561234241D+03 0.607724123346768D+03
 0.464111786509873D+03 0.332810777073615D+03 0.498179211864728D+02 -.319616820223374D+03
 0.714834666195343D+03 -.187991822901439D+03 -.956303146167093D+02 -.683009895567488D+03
0.271991321954D-03 0.000000000000D+00 0.000000000000D+00 0.844304311353D-06 0.000000000000D+00  6 2 1 25 2 1 21 0 0.76323029D-01 0.20297082D+00 0.22366578D+06 0.22366578D+06 0.22366578D+06 0.10941145D+01  1  2  2  2  6  2        1 0.214736738630D-02 0.100000000000D+01
0.245382643254D-04 0.000000000000D+00 -.104451829326D-05 0.844304311353D-06 0.000000000000D+00  6 2 1 25 2 1 21 2 0.76323029D-01 0.20297082D+00 0.22366578D+06 0.22366578D+06 0.22366578D+06 0.10941145D+01  1  2  3  2  6  2        1 0.231910643273D-03 0.100000000000D+01
-.152334258907D-03 0.000000000000D+00 0.000000000000D+00 0.844304311353D-06 0.000000000000D+00  6 2 1 25 2 1 21 2 0.76323029D-01 0.20297082D+00 0.22366578D+06 0.22366578D+06 0.22366578D+06 0.10941145D+01  1  2 15  2  6  2        1 -.143970802120D-02 0.100000000000D+01
-.552796036232D-03 0.000000000000D+00 0.000000000000D+00 0.844304311353D-06 0.000000000000D+00  6 2 1 25 2 1 21 2 0.76323029D-01 0.20297082D+00 0.22366578D+06 0.22366578D+06 0.22366578D+06 0.10941145D+01  1  2  4  2  6  2        1 -.522446423519D-02 0.100000000000D+01
-.155779153642D-02 0.000000000000D+00 -.135468840467D-03 0.844304311353D-06 0.000000000000D+00  6 2 1 25 2 1 21 2 0.76323029D-01 0.38252842D+00 0.22366578D+06 0.22366578D+06 0.22366578D+06 0.10941145D+01  1  2  5  2  6  2        1 -.243024891726D-02 0.100000000000D+01
0.138034091813D-02 0.000000000000D+00 0.112177874810D-03 0.844304311353D-06 0.000000000000D+00  6 2 1 25 2 1 21 2 0.76323029D-01 0.20297082D+00 0.22366578D+06 0.22366578D+06 0.22366578D+06 0.10941145D+01  1  2  6  2  6  2        1 0.130455742923D-01 0.100000000000D+01
-.997215727587D-04 0.000000000000D+00 -.933840287185D-05 0.844304311353D-06 0.000000000000D+00  6 2 21 25 2 1 -1 2 0.76323029D-01 0.38252842D+00 0.22366578D+06 0.22366578D+06 0.22366578D+06 0.10941145D+01  1  2  5  6  6  2        1 -.541534233924D-04 0.100000000000D+01
  </mgrwgt>
  </event>
  <event>
  5     66 0.18337608E-05 0.61717573E+02 0.75467711E-02 0.93543101E-01
        2 -1    0    0  501    0 0.00000000E+00 0.00000000E+00 0.58824730E+03 0.58824738E+03 0.32000000E+00 0.0000E+00 0.9000E+01
        1 -1    0    0  502    0 -.00000000E+00 -.00000000E+00 -.10373091E+04 0.10373091E+04 0.32000000E+00 0.0000E+00 0.9000E+01
       25  1    1    2    0    0 -.19362171E+03 0.48531746E+03 0.18683339E+02 0.53758392E+03 0.12500000E+03 0.0000E+00 0.9000E+01
        2  1    1    2  501    0 -.44224579E+02 -.43102228E+02 0.22447528E+03 0.23281510E+03 0.32000000E+00 0.0000E+00 0.9000E+01
        1  1    1    2  502    0 0.23784629E+03 -.44221523E+03 -.69222042E+03 0.85515751E+03 0.32000000E+00 0.0000E+00 0.9000E+01
#aMCatNLO 1  0  0  4  1 0.65864953D+01 0.00000000D+00  -5  6  0 0.00000000D+00 0.00000000D+00 0.00000000D+00 0.00000000D+00 0.00000000D+00
  <mgrwgt>
 0.4530734313D-02    9    2    0
 0.781149397279034D+03 0.000000000000000D+00 0.000000000000000D+00 0.781149397279034D+03
 0.781149397279034D+03 -.000000000000000D+00 -.000000000000000D+00 -.781149397279034D+03
 0.564849699329950D+03 -.193687189701459D+03 0.485386776272909D+03 0.174112414256074D+03
 0.306580737391238D+03 -.441981503771441D+02 -.430764700979340D+02 0.300304328584348D+03
 0.690868357836880D+03 0.237885340078603D+03 -.442310306174975D+03 -.474416742840422D+03
 0.000000000000000D+00 -.000000000000000D+00 0.000000000000000D+00 0.000000000000000D+00
 0.781149397279034D+03 0.000000000000000D+00 0.000000000000000D+00 0.781149397279034D+03
 0.781149397279034D+03 -.000000000000000D+00 -.000000000000000D+00 -.781149397279034D+03
 0.564873397481997D+03 -.193701997715114D+03 0.485372344063597D+03 0.174213027303462D+03
 0.144311923283689D+03 -.149064844936350D+02 -.175572673975072D+02 0.142462171411960D+03
 0.690788931016077D+03 0.237867229800024D+03 -.442327956842865D+03 -.474293692554322D+03
 0.162324542776305D+03 -.292587475912754D+02 -.254871198232254D+02 0.157618493838899D+03
0.447381091635D-05 0.000000000000D+00 0.000000000000D+00 0.160118025180D-05 0.000000000000D+00  6 2 1 25 2 1 21 0 0.90499595D-01 0.15958602D+00 0.30320763D+06 0.30320763D+06 0.30320763D+06 0.10842103D+01  1  2  2  3  6  4        2 0.456576379903D-04 0.100000000000D+01
0.112881344031D-05 0.000000000000D+00 -.171806119003D-07 0.160118025180D-05 0.000000000000D+00  6 2 1 25 2 1 21 2 0.90499595D-01 0.15958602D+00 0.30320763D+06 0.30320763D+06 0.30320763D+06 0.10842103D+01  1  2  3  3  6  4        2 0.135420698818D-04 0.100000000000D+01
-.281886297487D-05 0.000000000000D+00 0.000000000000D+00 0.160118025180D-05 0.000000000000D+00  6 2 1 25 2 1 21 2 0.90499595D-01 0.15958602D+00 0.30320763D+06 0.30320763D+06 0.30320763D+06 0.10842103D+01  1  2 15  3  6  4        2 -.338171375622D-04 0.100000000000D+01
0.385079495297D-03 0.000000000000D+00 0.000000000000D+00 0.160118025180D-05 0.000000000000D+00  6 2 1 25 2 1 21 2 0.90499595D-01 0.15958602D+00 0.30327171D+06 0.30327171D+06 0.30327171D+06 0.10842035D+01  1  2 12  3  6  4        2 0.461959714380D-02 0.100000000000D+01
0.169754066679D-07 0.000000000000D+00 0.000000000000D+00 0.160118025180D-05 0.000000000000D+00  6 2 1 25 2 1 21 2 0.90499595D-01 0.15958602D+00 0.30327171D+06 0.30327171D+06 0.30327171D+06 0.10842035D+01  1  2 12  3  6  4        2 0.203645068398D-06 0.100000000000D+01
-.398998345851D-03 0.000000000000D+00 0.000000000000D+00 0.160118025180D-05 0.000000000000D+00  6 2 1 25 2 1 21 2 0.90499595D-01 0.15958602D+00 0.30320763D+06 0.30320763D+06 0.30320763D+06 0.10842103D+01  1  2  4  3  6  4        2 -.478667536132D-02 0.100000000000D+01
-.429746674518D-03 0.000000000000D+00 0.000000000000D+00 0.160118025180D-05 0.000000000000D+00  6 2 1 25 2 1 21 2 0.90499595D-01 0.15958602D+00 0.30320763D+06 0.30320763D+06 0.30320763D+06 0.10842103D+01  1  2  5  3  6  4        2 -.515555475333D-02 0.100000000000D+01
0.793911422855D-03 0.000000000000D+00 -.000000000000D+00 0.160118025180D-05 0.000000000000D+00  6 2 1 25 2 1 21 2 0.90499595D-01 0.15958602D+00 0.30320763D+06 0.30320763D+06 0.30320763D+06 0.10842103D+01  1  2  6  3  6  4        2 0.952434085596D-02 0.100000000000D+01
0.252941112206D-04 0.000000000000D+00 0.000000000000D+00 0.160118025180D-05 0.436154992188D-07  6 2 1 25 2 1 21 2 0.90499595D-01 0.15958602D+00 0.30327171D+06 0.30327171D+06 0.30327171D+06 0.10842035D+01  1  2 11  3  6  4        2 0.303440212676D-03 0.100000000000D+01
  </mgrwgt>
  </event>
  <event>
  5     66 -.18337608E-05 0.10208622E+03 0.75467711E-02 0.93846164E-01
        2 -1    0    0  501    0 0.00000000E+00 0.00000000E+00 0.37422021E+03 0.37422034E+03 0.32000000E+00 0.0000E+00 0.9000E+01
        1 -1    0    0  502    0 0.00000000E+00 0.00000000E+00 -.81947015E+03 0.81947022E+03 0.32000000E+00 0.0000E+00 0.9000E+01
       25  1    1    2    0    0 -.48509813E+03 -.12667364E+03 -.12210251E+03 0.53094296E+03 0.12500000E+03 0.0000E+00 0.9000E+01
        2  1    1    2  501    0 0.41674629E+03 0.50880418E+02 -.12203127E+03 0.43721621E+03 0.32000000E+00 0.0000E+00 0.9000E+01
        1  1    1    2  502    0 0.68351844E+02 0.75793225E+02 -.20111617E+03 0.22553138E+03 0.32000000E+00 0.0000E+00 0.9000E+01
#aMCatNLO 1  0  0  2  2 0.32444703D+02 0.00000000D+00  -5  6  0 0.00000000D+00 0.00000000D+00 0.00000000D+00 0.00000000D+00 0.00000000D+00
  <mgrwgt>
 -.3045860984D-03    4    2    0
 0.553771078726105D+03 0.000000000000000D+00 0.000000000000000D+00 0.553771078726105D+03
 0.553771078726105D+03 0.000000000000000D+00 0.000000000000000D+00 -.553771078726105D+03
 0.523142917388101D+03 -.485073489059945D+03 -.126683498099997D+03 0.819055158929631D+02
 0.422120782729100D+03 0.416701941376120D+03 0.508750043054538D+02 0.442400407111111D+02
 0.162278457335010D+03 0.683715476838252D+02 0.758084937945432D+02 -.126145556604074D+03
 0.000000000000000D+00 0.000000000000000D+00 -.000000000000000D+00 0.000000000000000D+00
 0.603015059862626D+03 0.000000000000000D+00 0.000000000000000D+00 0.603015059862626D+03
 0.559378643478301D+03 0.000000000000000D+00 0.000000000000000D+00 -.559378643478301D+03
 0.530022525672091D+03 -.495309436628917D+03 -.115147410619927D+03 0.819055158929631D+02
 0.415314874097322D+03 0.408562719250910D+03 0.600480464516222D+02 0.442400407111111D+02
 0.162679878654437D+03 0.652132058381004D+02 0.793679989188847D+02 -.126145556604074D+03
 0.543764249170771D+02 0.215335115399071D+02 -.242686347505796D+02 0.436364163843248D+02
0.516331819537D-04 0.000000000000D+00 0.000000000000D+00 0.917430947101D-08 0.000000000000D+00  6 2 1 25 2 1 21 0 0.57572355D-01 0.12607235D+00 0.26965885D+06 0.26965885D+06 0.26965885D+06 0.10879945D+01  1  2  2  2  6  2        1 0.131556854614D-02 0.100000000000D+01
0.416301742412D-05 0.000000000000D+00 -.198285014031D-06 0.917430947101D-08 0.000000000000D+00  6 2 1 25 2 1 21 2 0.57572355D-01 0.12607235D+00 0.26965885D+06 0.26965885D+06 0.26965885D+06 0.10879945D+01  1  2  3  2  6  2        1 0.125558539685D-03 0.100000000000D+01
-.337896589533D-04 0.000000000000D+00 0.000000000000D+00 0.917430947101D-08 0.000000000000D+00  6 2 1 25 2 1 21 2 0.57572355D-01 0.12607235D+00 0.26965885D+06 0.26965885D+06 0.26965885D+06 0.10879945D+01  1  2 15  2  6  2        1 -.101911181299D-02 0.100000000000D+01
-.240911862803D-04 0.000000000000D+00 0.000000000000D+00 0.917430947101D-08 0.000000000000D+00  6 2 1 25 2 1 21 2 0.57572355D-01 0.12607235D+00 0.26965885D+06 0.26965885D+06 0.26965885D+06 0.10879945D+01  1  2  4  2  6  2        1 -.726601371182D-03 0.100000000000D+01
  </mgrwgt>
  </event>
  <event>
  5     66 0.18337608E-05 0.16142589E+02 0.75467711E-02 0.92021185E-01
        2 -1    0    0  501    0 0.00000000E+00 0.00000000E+00 0.15529349E+04 0.15529350E+04 0.32000000E+00 0.0000E+00 0.9000E+01
        1 -1    0    0  502    0 0.00000000E+00 0.00000000E+00 -.78241211E+03 0.78241217E+03 0.32000000E+00 0.0000E+00 0.9000E+01
       25  1    1    2    0    0 0.57286823E+03 0.17821639E+03 0.50002412E+03 0.79094135E+03 0.12500000E+03 0.0000E+00 0.9000E+01
        2  1    1    2  501    0 -.44067841E+01 -.15534093E+02 0.77012817E+03 0.77029749E+03 0.32000000E+00 0.0000E+00 0.9000E+01
        1  1    1    2  502    0 -.56846145E+03 -.16268230E+03 -.49962947E+03 0.77410830E+03 0.32000000E+00 0.0000E+00 0.9000E+01
#aMCatNLO 1  0  0  1  2 0.52088855D+02 0.00000000D+00  -5  6  0 0.00000000D+00 0.00000000D+00 0.00000000D+00 0.00000000D+00 0.00000000D+00
  <mgrwgt>
 0.6781420981D-02    7    2    0
 0.110228635372376D+04 0.000000000000000D+00 0.000000000000000D+00 0.110228635372376D+04
 0.110228635372376D+04 0.000000000000000D+00 0.000000000000000D+00 -.110228635372376D+04
 0.663217095993131D+03 0.572945987870930D+03 0.178235723026024D+03 0.253370950263751D+03
 0.546671083672161D+03 -.440556185448400D+01 -.155297849461208D+02 0.546432695331793D+03
 0.994684527782224D+03 -.568540426016446D+03 -.162705938079903D+03 -.799803645595544D+03
 0.000000000000000D+00 0.000000000000000D+00 -.000000000000000D+00 0.000000000000000D+00
 0.145023740391166D+04 0.000000000000000D+00 0.000000000000000D+00 0.145023740391166D+04
 0.110454516732447D+04 0.000000000000000D+00 0.000000000000000D+00 -.110454516732447D+04
 0.663320233268276D+03 0.568205081588760D+03 0.193170594765957D+03 0.253370950263751D+03
 0.546505416444243D+03 -.831246083320150D+01 -.322221511132543D+01 0.546432695331793D+03
 0.995362340282636D+03 -.575652646298911D+03 -.140300918578829D+03 -.799803645595544D+03
 0.349594581240974D+03 0.157600255433526D+02 -.496474610758030D+02 0.345692236587187D+03
0.590423663158D-04 0.000000000000D+00 0.000000000000D+00 0.236621279117D-04 0.000000000000D+00  6 2 1 25 2 1 21 0 0.23891307D+00 0.12037110D+00 0.37235489D+06 0.37235489D+06 0.37235489D+06 0.10776770D+01  1  2  2  1  6  1        2 0.233894078501D-03 0.100000000000D+01
0.508940163025D-04 0.000000000000D+00 -.226738232865D-06 0.236621279117D-04 0.000000000000D+00  6 2 1 25 2 1 21 2 0.23891307D+00 0.12037110D+00 0.37235489D+06 0.37235489D+06 0.37235489D+06 0.10776770D+01  1  2  3  1  6  1        2 0.234152839712D-03 0.100000000000D+01
-.390817705382D-04 0.000000000000D+00 0.000000000000D+00 0.236621279117D-04 0.000000000000D+00  6 2 1 25 2 1 21 2 0.23891307D+00 0.12037110D+00 0.37235489D+06 0.37235489D+06 0.37235489D+06 0.10776770D+01  1  2 15  1  6  1        2 -.179807140747D-03 0.100000000000D+01
-.240174768269D-04 0.000000000000D+00 0.000000000000D+00 0.236621279117D-04 0.000000000000D+00  6 2 1 25 2 1 21 2 0.23891307D+00 0.12037110D+00 0.37235489D+06 0.37235489D+06 0.37235489D+06 0.10776770D+01  1  2  4  1  6  1        2 -.110499441984D-03 0.100000000000D+01
-.336725418589D-02 0.000000000000D+00 -.487908874955D-04 0.236621279117D-04 0.000000000000D+00  6 2 1 25 2 1 21 2 0.31452151D+00 0.12037110D+00 0.37235489D+06 0.37235489D+06 0.37235489D+06 0.10776770D+01  1  2  5  1  6  1        2 -.833194132282D-02 0.100000000000D+01
0.325850936572D-02 0.000000000000D+00 0.470029776065D-04 0.236621279117D-04 0.000000000000D+00  6 2 1 25 2 1 21 2 0.23891307D+00 0.12037110D+00 0.37235489D+06 0.37235489D+06 0.37235489D+06 0.10776770D+01  1  2  6  1  6  1        2 0.149917274493D-01 0.100000000000D+01
-.121233599611D-03 0.000000000000D+00 -.177047134515D-05 0.236621279117D-04 0.000000000000D+00  6 21 1 25 2 1 -2 2 0.31452151D+00 0.12037110D+00 0.37235489D+06 0.37235489D+06 0.37235489D+06 0.10776770D+01  1  2  5  5  6  1        2 -.561054813930D-04 0.100000000000D+01
  </mgrwgt>
  </event>
  <event>
  5     66 -.18337608E-05 0.12214120E+03 0.75467711E-02 0.93522658E-01
        2 -1    0    0  501    0 0.00000000E+00 0.00000000E+00 0.80925491E+03 0.80925498E+03 0.32000000E+00 0.0000E+00 0.9000E+01
        1 -1    0    0  502    0 -.00000000E+00 -.00000000E+00 -.36040778E+04 0.36040778E+04 0.32000000E+00 0.0000E+00 0.9000E+01
       25  1    1    2    0    0 -.10534352E+03 -.52485757E+03 -.23171331E+04 0.23814499E+04 0.12500000E+03 0.0000E+00 0.9000E+01
        2  1    1    2  501    0 0.76979119E+02 0.94831368E+02 0.73490303E+03 0.74498412E+03 0.32000000E+00 0.0000E+00 0.9000E+01
        1  1    1    2  502    0 0.28364400E+02 0.43002620E+03 -.12125928E+04 0.12868988E+04 0.32000000E+00 0.0000E+00 0.9000E+01
#aMCatNLO 1  0  0  5  2 0.11876407D+02 0.00000000D+00  -5  6  0 0.00000000D+00 0.00000000D+00 0.00000000D+00 0.00000000D+00 0.00000000D+00
  <mgrwgt>
 -.5174538588D-02    8    2    0
 0.170781083171579D+04 0.000000000000000D+00 0.000000000000000D+00 0.170781083171579D+04
 0.170781083171579D+04 -.000000000000000D+00 -.000000000000000D+00 -.170781083171579D+04
 0.118108490349611D+04 -.105347046754609D+03 -.524884375274622D+03 -.104533962978501D+04
 0.156391224574439D+04 0.769783413625677D+02 0.948304099174780D+02 0.155913535034814D+04
 0.670624514191074D+03 0.283687053920411D+02 0.430053965357144D+03 -.513795720563134D+03
 0.000000000000000D+00 0.000000000000000D+00 0.000000000000000D+00 -.000000000000000D+00
 0.170781083171579D+04 0.000000000000000D+00 0.000000000000000D+00 0.170781083171579D+04
 0.170781083171579D+04 -.000000000000000D+00 -.000000000000000D+00 -.170781083171579D+04
 0.118137203540545D+04 -.105315870106285D+03 -.524411754439348D+03 -.104590428115943D+04
 0.156320722576411D+04 0.770196090370904D+02 0.954560051578781D+02 0.155838793680655D+04
 0.359333820221262D+02 -.736851970279265D+01 0.280939260982501D+02 -.211576032981915D+02
 0.635109020239892D+03 0.356647807719876D+02 0.400861823183220D+03 -.491326052348934D+03
0.152920293879D-01 0.000000000000D+00 0.000000000000D+00 0.881575427492D-05 0.000000000000D+00  6 2 1 25 2 1 21 0 0.12450076D+00 0.55447351D+00 0.30408675D+06 0.30408675D+06 0.30408675D+06 0.10841174D+01  1  2  2  4  6  5        1 0.155127848791D-02 0.100000000000D+01
0.337991103802D-02 0.000000000000D+00 -.587254193335D-04 0.881575427492D-05 0.000000000000D+00  6 2 1 25 2 1 21 2 0.12450076D+00 0.55447351D+00 0.30408675D+06 0.30408675D+06 0.30408675D+06 0.10841174D+01  1  2  3  4  6  5        1 0.402979108781D-03 0.100000000000D+01
-.102259373331D-01 0.000000000000D+00 0.000000000000D+00 0.881575427492D-05 0.000000000000D+00  6 2 1 25 2 1 21 2 0.12450076D+00 0.55447351D+00 0.30408675D+06 0.30408675D+06 0.30408675D+06 0.10841174D+01  1  2 15  4  6  5        1 -.121921525940D-02 0.100000000000D+01
0.376017787495D-01 0.000000000000D+00 0.000000000000D+00 0.881575427492D-05 0.000000000000D+00  6 2 1 25 2 1 21 2 0.12450076D+00 0.55447351D+00 0.30439334D+06 0.30439334D+06 0.30439334D+06 0.10840850D+01  1  2 12  4  6  5        1 0.448244503697D-02 0.100000000000D+01
0.120998831319D-07 0.000000000000D+00 0.000000000000D+00 0.881575427492D-05 0.000000000000D+00  6 2 1 25 2 1 21 2 0.12450076D+00 0.55447351D+00 0.30439334D+06 0.30439334D+06 0.30439334D+06 0.10840850D+01  1  2 12  4  6  5        1 0.144240679287D-08 0.100000000000D+01
-.141130922942D+00 0.000000000000D+00 0.000000000000D+00 0.881575427492D-05 0.000000000000D+00  6 2 1 25 2 1 21 2 0.12450076D+00 0.55447351D+00 0.30408675D+06 0.30408675D+06 0.30408675D+06 0.10841174D+01  1  2  4  4  6  5        1 -.168267190789D-01 0.100000000000D+01
-.372010834992D-01 0.000000000000D+00 0.000000000000D+00 0.881575427492D-05 0.000000000000D+00  6 2 1 25 2 1 21 2 0.12450076D+00 0.55447351D+00 0.30408675D+06 0.30408675D+06 0.30408675D+06 0.10841174D+01  1  2  5  4  6  5        1 -.443540060835D-02 0.100000000000D+01
0.911708425844D-01 0.000000000000D+00 -.000000000000D+00 0.881575427492D-05 0.000000000000D+00  6 2 1 25 2 1 21 2 0.12450076D+00 0.55447351D+00 0.30408675D+06 0.30408675D+06 0.30408675D+06 0.10841174D+01  1  2  6  4  6  5        1 0.108700922830D-01 0.100000000000D+01
  </mgrwgt>
  </event>
  <event>
  5     66 0.18337608E-05 0.58166649E+02 0.75467711E-02 0.92781001E-01
        2 -1    0    0  501    0 0.00000000E+00 0.00000000E+00 0.34916196E+04 0.34916196E+04 0.32000000E+00 0.0000E+00 0.9000E+01
        1 -1    0    0  502    0 0.00000000E+00 0.00000000E+00 -.59315643E+03 0.59315652E+03 0.32000000E+00 0.0000E+00 0.9000E+01
       25  1    1    2    0    0 0.33539294E+03 0.42223069E+03 0.24090309E+04 0.24718055E+04 0.12500000E+03 0.0000E+00 0.9000E+01
        2  1    1    2  501    0 -.30228701E+03 -.47004943E+03 0.97506554E+03 0.11238669E+04 0.32000000E+00 0.0000E+00 0.9000E+01
        1  1    1    2  502    0 -.33105930E+02 0.47818743E+02 -.48563333E+03 0.48910374E+03 0.32000000E+00 0.0000E+00 0.9000E+01
#aMCatNLO 1  0  0  1  4 0.87606573D+01 0.00000000D+00  -5  6  0 0.00000000D+00 0.00000000D+00 0.00000000D+00 0.00000000D+00 0.00000000D+00
  <mgrwgt>
 0.4674447726D-02   10    2    0
 0.143912362379554D+04 0.000000000000000D+00 0.000000000000000D+00 0.143912362379554D+04
 0.143912362379554D+04 0.000000000000000D+00 0.000000000000000D+00 -.143912362379554D+04
 0.108207940855483D+04 0.335309117143689D+03 0.422089602128396D+03 0.929881180664383D+03
 0.612887635814560D+03 -.302199513980500D+03 -.469913375224998D+03 0.251968505311597D+03
 0.118328020322168D+04 -.331096031631890D+02 0.478237730966025D+02 -.118184968597598D+04
 0.000000000000000D+00 0.000000000000000D+00 -.000000000000000D+00 0.000000000000000D+00
 0.144761443079002D+04 0.000000000000000D+00 0.000000000000000D+00 0.144761443079002D+04
 0.144139183661170D+04 0.000000000000000D+00 0.000000000000000D+00 -.144139183661170D+04
 0.108119889152212D+04 0.332033745204221D+03 0.422422330044874D+03 0.929881180664383D+03
 0.613661031660588D+03 -.304056604253026D+03 -.469724723130363D+03 0.251968505311597D+03
 0.118340065699089D+04 -.366929424306979D+02 0.481877858043342D+02 -.118184968597598D+04
 0.107456872281281D+02 0.871580147950259D+01 -.885392718845704D+00 0.622259417832077D+01
0.129406083565D-02 0.000000000000D+00 0.000000000000D+00 0.377407879954D-05 0.000000000000D+00  6 2 1 25 2 1 21 0 0.53717225D+00 0.91254843D-01 0.34236131D+06 0.34236131D+06 0.34236131D+06 0.10803332D+01  1  2  2  1  6  1        2 0.545131375610D-03 0.100000000000D+01
0.592602278324D-03 0.000000000000D+00 -.496953434296D-05 0.377407879954D-05 0.000000000000D+00  6 2 1 25 2 1 21 2 0.53717225D+00 0.91254843D-01 0.34236131D+06 0.34236131D+06 0.34236131D+06 0.10803332D+01  1  2  3  1  6  1        2 0.291356865958D-03 0.100000000000D+01
-.899235334340D-03 0.000000000000D+00 0.000000000000D+00 0.377407879954D-05 0.000000000000D+00  6 2 1 25 2 1 21 2 0.53717225D+00 0.91254843D-01 0.34236131D+06 0.34236131D+06 0.34236131D+06 0.10803332D+01  1  2 15  1  6  1        2 -.442115054827D-03 0.100000000000D+01
-.710491277163D-05 0.000000000000D+00 0.000000000000D+00 0.377407879954D-05 0.000000000000D+00  6 2 1 25 2 1 21 2 0.53717225D+00 0.91254843D-01 0.34236131D+06 0.34236131D+06 0.34236131D+06 0.10803332D+01  1  2  4  1  6  1        2 -.349317779186D-05 0.100000000000D+01
-.241143092264D+00 0.000000000000D+00 -.240739391368D-01 0.377407879954D-05 0.000000000000D+00  6 2 1 25 2 1 21 2 0.54055384D+00 0.91254843D-01 0.34236131D+06 0.34236131D+06 0.34236131D+06 0.10803332D+01  1  2  5  1  6  1        2 -.114363287095D+00 0.100000000000D+01
0.241323526526D+00 0.000000000000D+00 0.240986023834D-01 0.377407879954D-05 0.000000000000D+00  6 2 1 25 2 1 21 2 0.53717225D+00 0.91254843D-01 0.34236131D+06 0.34236131D+06 0.34236131D+06 0.10803332D+01  1  2  6  1  6  1        2 0.118648322732D+00 0.100000000000D+01
0.658359734385D-05 0.000000000000D+00 0.000000000000D+00 0.377407879954D-05 0.119735527865D-06  6 2 1 25 2 1 21 2 0.54034156D+00 0.91398671D-01 0.34840634D+06 0.34840634D+06 0.34840634D+06 0.10797780D+01  1  2 11  1  6  1        2 0.311394888072D-05 0.100000000000D+01
0.155225718286D-09 0.000000000000D+00 0.000000000000D+00 0.377407879954D-05 0.000000000000D+00  6 21 1 25 2 1 -2 2 0.54085524D+00 0.91254843D-01 0.34840634D+06 0.34840634D+06 0.34840634D+06 0.10797780D+01  1  2 12  5  6  1        2 0.251029732908D-11 0.100000000000D+01
-.280735128813D-03 0.000000000000D+00 -.280617296545D-04 0.377407879954D-05 0.000000000000D+00  6 21 1 25 2 1 -2 2 0.54055384D+00 0.91254843D-01 0.34236131D+06 0.34236131D+06 0.34236131D+06 0.10803332D+01  1  2  5  5  6  1        2 -.458247688457D-05 0.100000000000D+01
0.371514898282D-07 0.000000000000D+00 0.000000000000D+00 0.377407879954D-05 0.310925071756D-09  6 21 1 25 2 1 -2 2 0.54034156D+00 0.91398671D-01 0.34840634D+06 0.34840634D+06 0.34840634D+06 0.10797780D+01  1  2 11  5  6  1        2 0.605477641539D-09 0.100000000000D+01
  </mgrwgt>
  </event>
  <event>
  6     66 0.18337608E-05 0.19251755E+03 0.75467711E-02 0.92331415E-01
        2 -1    0    0  501    0 0.00000000E+00 0.00000000E+00 0.99996990E+03 0.99996995E+03 0.32000000E+00 0.0000E+00 0.9000E+01
        1 -1    0    0  502    0 -.00000000E+00 -.00000000E+00 -.33329284E+04 0.33329284E+04 0.32000000E+00 0.0000E+00 0.9000E+01
       25  1    1    2    0    0 -.49653588E+03 0.27846502E+03 0.12575328E+03 0.59626297E+03 0.12500000E+03 0.0000E+00 0.9000E+01
        2  1    1    2  503    0 0.18214060E+03 0.51228660E+02 0.56143380E+03 0.59245893E+03 0.32000000E+00 0.0000E+00 0.9000E+01
        1  1    1    2  502    0 0.30834280E+03 -.33071795E+03 -.30653661E+04 0.30985350E+04 0.32000000E+00 0.0000E+00 0.9000E+01
       21  1    1    2  501  503 0.60524868E+01 0.10242729E+01 0.45220544E+02 0.45641449E+02 0.75000000E+00 0.0000E+00 0.9000E+01
#aMCatNLO 2  0  0  4  1 0.81497245D+01 0.00000000D+00  -5  6  0 0.00000000D+00 0.00000000D+00 0.00000000D+00 0.00000000D+00 0.00000000D+00
  <mgrwgt>
 0.1342138910D-01    6    2    0
 0.182560352741283D+04 0.000000000000000D+00 0.000000000000000D+00 0.182560352741283D+04
 0.182560352741283D+04 -.000000000000000D+00 -.000000000000000D+00 -.182560352741283D+04
 0.788217731683199D+03 -.496581372163670D+03 0.278572844120045D+03 0.530533979947300D+03
 0.114433281745070D+04 0.188177787644350D+03 0.522486856887196D+02 0.112754458544917D+04
 0.171865650569175D+04 0.308403584519320D+03 -.330821529808765D+03 -.165807856539647D+04
 0.000000000000000D+00 0.000000000000000D+00 0.000000000000000D+00 0.000000000000000D+00
 0.182560352741283D+04 0.000000000000000D+00 0.000000000000000D+00 0.182560352741283D+04
 0.182560352741283D+04 -.000000000000000D+00 -.000000000000000D+00 -.182560352741283D+04
 0.788271740244209D+03 -.496565947336307D+03 0.278577126915410D+03 0.530626404142486D+03
 0.106190182574975D+04 0.182162224973474D+03 0.512351468164918D+02 0.104490543641712D+04
 0.171846634044538D+04 0.308437214319881D+03 -.330812192293953D+03 -.165787705861925D+04
 0.825671483863149D+02 0.596650804295169D+01 0.999918562051526D+00 0.823452180596445D+02
-.567145904737D-01 0.000000000000D+00 0.000000000000D+00 0.148554189317D-04 0.000000000000D+00  6 2 1 25 2 1 21 2 0.15384153D+00 0.51275822D+00 0.37853559D+06 0.37853559D+06 0.37853559D+06 0.10771587D+01  1  2 13  3  6  4        2 -.816150147609D-02 0.100000000000D+01
-.519331984856D-08 0.000000000000D+00 0.000000000000D+00 0.148554189317D-04 0.000000000000D+00  6 2 1 25 2 1 21 2 0.15384153D+00 0.51275822D+00 0.37853559D+06 0.37853559D+06 0.37853559D+06 0.10771587D+01  1  2 13  3  6  4        2 -.747343624556D-09 0.100000000000D+01
-.218622316727D+00 0.000000000000D+00 0.000000000000D+00 0.148554189317D-04 0.000000000000D+00  6 2 1 25 2 1 21 2 0.15384153D+00 0.51275822D+00 0.37854277D+06 0.37854277D+06 0.37854277D+06 0.10771581D+01  1  2  8  3  6  4        2 -.314607054884D-01 0.100000000000D+01
-.931628870126D-01 0.000000000000D+00 0.000000000000D+00 0.148554189317D-04 0.000000000000D+00  6 2 1 25 2 1 21 2 0.15384153D+00 0.51275822D+00 0.37854277D+06 0.37854277D+06 0.37854277D+06 0.10771581D+01  1  2  9  3  6  4        2 -.134065460226D-01 0.100000000000D+01
0.100126704894D+00 0.000000000000D+00 0.000000000000D+00 0.148554189317D-04 0.000000000000D+00  6 2 1 25 2 1 21 2 0.15384153D+00 0.51275822D+00 0.37854277D+06 0.37854277D+06 0.37854277D+06 0.10771581D+01  1  2 10  3  6  4        2 0.144086698072D-01 0.100000000000D+01
0.361638215602D+00 0.000000000000D+00 0.000000000000D+00 0.148554189317D-04 0.649170155165D-05  6 2 1 25 2 1 21 2 0.15384153D+00 0.51275822D+00 0.37853559D+06 0.37853559D+06 0.37853559D+06 0.10771587D+01  1  2  1  3  6  4        2 0.520414730282D-01 0.100000000000D+01
  </mgrwgt>
  </event>
  <event>
  6     66 -.18337608E-05 0.32734945E+03 0.75467711E-02 0.92254773E-01
        2 -1    0    0  501    0 0.00000000E+00 0.00000000E+00 0.64017911E+03 0.64017919E+03 0.32000000E+00 0.0000E+00 0.9000E+01
        1 -1    0    0  502    0 -.00000000E+00 -.00000000E+00 -.17809907E+04 0.17809907E+04 0.32000000E+00 0.0000E+00 0.9000E+01
       25  1    1    2    0    0 -.30089776E+03 -.43484477E+03 0.48198357E+02 0.54550666E+03 0.12500000E+03 0.0000E+00 0.9000E+01
        2  1    1    2  501    0 -.39315986E+02 0.33803274E+03 0.23006362E+03 0.41078127E+03 0.32000000E+00 0.0000E+00 0.9000E+01
        1  1    1    2  503    0 0.30842912E+03 0.98566374E+02 -.13572620E+04 0.13953509E+04 0.32000000E+00 0.0000E+00 0.9000E+01
       21  1    1    2  502  503 0.31784621E+02 -.17543429E+01 -.61811546E+02 0.69531069E+02 0.75000000E+00 0.0000E+00 0.9000E+01
#aMCatNLO 2  0  0  5  2 0.18015077D+02 0.00000000D+00  -5  6  0 0.00000000D+00 0.00000000D+00 0.00000000D+00 0.00000000D+00 0.00000000D+00
  <mgrwgt>
 -.1220424449D-02    6    2    0
 0.106777955427376D+04 0.000000000000000D+00 0.000000000000000D+00 0.106777955427376D+04
 0.106777955427376D+04 -.000000000000000D+00 -.000000000000000D+00 -.106777955427376D+04
 0.645141193532516D+03 -.301387194837092D+03 -.434927374676370D+03 0.347255089434135D+03
 0.589275706883261D+03 -.397141371364681D+02 0.337855516963107D+03 0.481167637826843D+03
 0.901142208131745D+03 0.341101331973560D+03 0.970718577132629D+02 -.828422727260978D+03
 0.000000000000000D+00 0.000000000000000D+00 0.000000000000000D+00 0.000000000000000D+00
 0.106777955427376D+04 0.000000000000000D+00 0.000000000000000D+00 0.106777955427376D+04
 0.106777955427376D+04 -.000000000000000D+00 -.000000000000000D+00 -.106777955427376D+04
 0.644268445444972D+03 -.300943095143932D+03 -.434800991170403D+03 0.346176517630106D+03
 0.588510577124057D+03 -.393084828653007D+02 0.337970959531049D+03 0.480182437283353D+03
 0.856998305081575D+03 0.308465305593280D+03 0.985917186758217D+02 -.793457574900186D+03
 0.457817808969180D+02 0.317862724159525D+02 -.176168703646829D+01 -.329013800132731D+02
-.569651169869D-03 0.000000000000D+00 0.000000000000D+00 0.202379079750D-06 0.000000000000D+00  6 2 1 25 2 1 21 2 0.98489102D-01 0.27399858D+00 0.38395728D+06 0.38395728D+06 0.38395728D+06 0.10767115D+01  1  2 13  4  6  5        1 -.184497794038D-02 0.100000000000D+01
-.607646524766D-07 0.000000000000D+00 0.000000000000D+00 0.202379079750D-06 0.000000000000D+00  6 2 1 25 2 1 21 2 0.98489102D-01 0.27399858D+00 0.38395728D+06 0.38395728D+06 0.38395728D+06 0.10767115D+01  1  2 13  4  6  5        1 -.196803674431D-06 0.100000000000D+01
-.371936528403D-03 0.000000000000D+00 0.000000000000D+00 0.202379079750D-06 0.000000000000D+00  6 2 1 25 2 1 21 2 0.98489102D-01 0.27399858D+00 0.38349354D+06 0.38349354D+06 0.38349354D+06 0.10767495D+01  1  2  8  4  6  5        1 -.120479332261D-02 0.100000000000D+01
-.214980658078D-04 0.000000000000D+00 0.000000000000D+00 0.202379079750D-06 0.000000000000D+00  6 2 1 25 2 1 21 2 0.98489102D-01 0.27399858D+00 0.38349354D+06 0.38349354D+06 0.38349354D+06 0.10767495D+01  1  2  9  4  6  5        1 -.696374896154D-04 0.100000000000D+01
0.226179634406D-04 0.000000000000D+00 0.000000000000D+00 0.202379079750D-06 0.000000000000D+00  6 2 1 25 2 1 21 2 0.98489102D-01 0.27399858D+00 0.38349354D+06 0.38349354D+06 0.38349354D+06 0.10767495D+01  1  2 10  4  6  5        1 0.732651117687D-04 0.100000000000D+01
0.563765647262D-03 0.000000000000D+00 0.000000000000D+00 0.202379079750D-06 0.947598854610D-09  6 2 1 25 2 1 21 2 0.98489102D-01 0.27399858D+00 0.38395728D+06 0.38395728D+06 0.38395728D+06 0.10767115D+01  1  2  1  4  6  5        1 0.182591599519D-02 0.100000000000D+01
  </mgrwgt>
  </event>
  <event>
  6     66 0.18337608E-05 0.15404766E+03 0.75467711E-02 0.91052897E-01
        2 -1    0    0  501    0 0.00000000E+00 0.00000000E+00 0.88403410E+03 0.88403416E+03 0.32000000E+00 0.0000E+00 0.9000E+01
        1 -1    0    0  502    0 -.00000000E+00 -.00000000E+00 -.18961301E+04 0.18961301E+04 0.32000000E+00 0.0000E+00 0.9000E+01
       25  1    1    2    0    0 -.26136306E+03 -.58962958E+03 0.34648630E+03 0.74273242E+03 0.12500000E+03 0.0000E+00 0.9000E+01
        2  1    1    2  501    0 0.92406559E+02 0.24169101E+03 0.24367780E+03 0.35543282E+03 0.32000000E+00 0.0000E+00 0.9000E+01
        1  1    1    2  503    0 -.50302416E+02 0.20311549E+03 -.10469349E+04 0.10676418E+04 0.32000000E+00 0.0000E+00 0.9000E+01
       21  1    1    2  502  503 0.21925892E+03 0.14482308E+03 -.55532519E+03 0.61435725E+03 0.75000000E+00 0.0000E+00 0.9000E+01
#aMCatNLO 2  0  0  5  1 0.16180093D+03 0.00000000D+00  -5  6  0 0.00000000D+00 0.00000000D+00 0.00000000D+00 0.00000000D+00 0.00000000D+00
  <mgrwgt>
 0.7632955515D-04    2    2    0
 0.129469834427181D+04 0.000000000000000D+00 0.000000000000000D+00 0.129469834427181D+04
 0.129469834427181D+04 -.000000000000000D+00 -.000000000000000D+00 -.129469834427181D+04
 0.949128806391928D+03 -.264012670754820D+03 -.595067768828561D+03 0.679273252311080D+03
 0.482227824429601D+03 0.910152299435249D+02 0.238806504367080D+03 0.408939306064371D+03
 0.115804005772210D+04 0.172997440811295D+03 0.356261264461481D+03 -.108821255837545D+04
 0.000000000000000D+00 0.000000000000000D+00 0.000000000000000D+00 0.000000000000000D+00
 0.129469834427181D+04 0.000000000000000D+00 0.000000000000000D+00 0.129469834427181D+04
 0.129469834427181D+04 -.000000000000000D+00 -.000000000000000D+00 -.129469834427181D+04
 0.932987544268997D+03 -.261349016897999D+03 -.589582388890751D+03 0.662517966426132D+03
 0.476682440671624D+03 0.923723219347214D+02 0.241601223794759D+03 0.400402737310723D+03
 0.736912454960137D+03 -.503667103586189D+02 0.203067045568017D+03 -.706588236363516D+03
 0.442814248642866D+03 0.219343405321897D+03 0.144914119527975D+03 -.356332467373339D+03
-.688636903874D-08 0.000000000000D+00 0.000000000000D+00 0.327612446221D-06 0.000000000000D+00  6 2 1 25 2 1 21 2 0.13600525D+00 0.29171233D+00 0.48141562D+06 0.48141562D+06 0.48141562D+06 0.10696749D+01  1  2 13  4  6  5        1 -.120786023614D-07 0.100000000000D+01
0.435246270494D-04 0.000000000000D+00 0.000000000000D+00 0.327612446221D-06 0.752126105121D-11  6 2 1 25 2 1 21 2 0.13600525D+00 0.29171233D+00 0.48141562D+06 0.48141562D+06 0.48141562D+06 0.10696749D+01  1  2  1  4  6  5        1 0.763416337548D-04 0.100000000000D+01
  </mgrwgt>
  </event>
  <event>
  5     66 -.18337608E-05 0.13132770E+02 0.75467711E-02 0.94742692E-01
        2 -1    0    0  501    0 0.00000000E+00 0.00000000E+00 0.67601931E+03 0.67601938E+03 0.32000000E+00 0.0000E+00 0.9000E+01
        1 -1    0    0  502    0 0.00000000E+00 0.00000000E+00 -.92925217E+03 0.92925222E+03 0.32000000E+00 0.0000E+00 0.9000E+01
       25  1    1    2    0    0 0.10029442E+03 0.46385432E+03 0.65223857E+02 0.49507470E+03 0.12500000E+03 0.0000E+00 0.9000E+01
        2  1    1    2  501    0 -.96211293E+02 -.47633413E+03 0.24663093E+03 0.54495663E+03 0.32000000E+00 0.0000E+00 0.9000E+01
        1  1    1    2  502    0 -.40831263E+01 0.12479805E+02 -.56508765E+03 0.56524028E+03 0.32000000E+00 0.0000E+00 0.9000E+01
#aMCatNLO 1  0  0  2  4 0.48618639D+02 0.00000000D+00  -5  6  0 0.00000000D+00 0.00000000D+00 0.00000000D+00 0.00000000D+00 0.00000000D+00
  <mgrwgt>
 -.9990633381D-03    1    2    0
 0.792585965871604D+03 0.000000000000000D+00 0.000000000000000D+00 0.792585965871604D+03
 0.792585965871604D+03 0.000000000000000D+00 0.000000000000000D+00 -.792585965871604D+03
 0.511755549572524D+03 0.100285199003835D+03 0.463803482800086D+03 0.145251336384720D+03
 0.591205255356918D+03 -.962014016196931D+02 -.476285159048019D+03 0.336780925170426D+03
 0.482211126813766D+03 -.408379738414210D+01 0.124816762479333D+02 -.482032261555147D+03
 0.000000000000000D+00 0.000000000000000D+00 0.000000000000000D+00 -.000000000000000D+00
 0.793894886030359D+03 0.000000000000000D+00 0.000000000000000D+00 0.793894886030359D+03
 0.987356819217831D+03 0.000000000000000D+00 0.000000000000000D+00 -.987356819217831D+03
 0.507482278353620D+03 0.910117822293110D+02 0.461012112223614D+03 0.145251336384720D+03
 0.595671751606100D+03 -.107000063957474D+03 -.479535640402179D+03 0.336780925170426D+03
 0.482304149364930D+03 -.128593273893418D+02 0.984017346152166D+01 -.482032261555147D+03
 0.195793525923541D+03 0.288476091175051D+02 0.868335471704292D+01 -.193461933187472D+03
-.793481261269D-04 0.000000000000D+00 0.000000000000D+00 0.676653938380D-05 0.000000000000D+00  6 2 1 25 2 1 21 2 0.10400298D+00 0.14296188D+00 0.24489919D+06 0.24489919D+06 0.24489919D+06 0.10911333D+01  1  2 14  2  6  2        1 -.999063338050D-03 0.100000000000D+01
  </mgrwgt>
  </event>
  <event>
  5     66 0.18337608E-05 0.12572402E+03 0.75467711E-02 0.90890165E-01
        2 -1    0    0  501    0 0.00000000E+00 0.00000000E+00 0.15816902E+04 0.15816902E+04 0.32000000E+00 0.0000E+00 0.9000E+01
        1 -1    0    0  502    0 0.00000000E+00 0.00000000E+00 -.95738555E+03 0.95738561E+03 0.32000000E+00 0.0000E+00 0.9000E+01
       25  1    1    2    0    0 0.53343929E+03 0.44762289E+03 0.14752420E+03 0.72271164E+03 0.12500000E+03 0.0000E+00 0.9000E+01
        2  1    1    2  501    0 -.27545066E+03 -.19964074E+03 0.10704383E+04 0.11231954E+04 0.32000000E+00 0.0000E+00 0.9000E+01
        1  1    1    2  502    0 -.25798863E+03 -.24798215E+03 -.59365787E+03 0.69316885E+03 0.32000000E+00 0.0000E+00 0.9000E+01
#aMCatNLO 1  0  0  4  1 0.22167530D+02 0.00000000D+00  -5  6  0 0.00000000D+00 0.00000000D+00 0.00000000D+00 0.00000000D+00 0.00000000D+00
  <mgrwgt>
 0.9147456098D-03    8    2    0
 0.123056387935277D+04 0.000000000000000D+00 0.000000000000000D+00 0.123056387935277D+04
 0.123056387935277D+04 -.000000000000000D+00 -.000000000000000D+00 -.123056387935277D+04
 0.708191986192685D+03 0.533450505428368D+03 0.447637987745710D+03 -.310109576235628D+02
 0.887157997462216D+03 -.275426786380143D+03 -.199623435909559D+03 0.819353331378557D+03
 0.865777775050632D+03 -.258023719048225D+03 -.248014551836151D+03 -.788342373754994D+03
 0.000000000000000D+00 0.000000000000000D+00 -.000000000000000D+00 0.000000000000000D+00
 0.123056387935277D+04 0.000000000000000D+00 0.000000000000000D+00 0.123056387935277D+04
 0.123056387935277D+04 -.000000000000000D+00 -.000000000000000D+00 -.123056387935277D+04
 0.707827905253549D+03 0.533178802973099D+03 0.447441063625225D+03 -.302026836179933D+02
 0.796951115957387D+03 -.250034341810261D+03 -.157687944478129D+03 0.740100277872868D+03
 0.865046453640808D+03 -.258355825394623D+03 -.248255255403246D+03 -.787354407243568D+03
 0.913022838537887D+02 -.247886357682149D+02 -.414978637438498D+02 0.774568129886936D+02
0.924060063967D-05 0.000000000000D+00 0.000000000000D+00 0.489190509963D-06 0.000000000000D+00  6 2 1 25 2 1 21 0 0.24333696D+00 0.14729009D+00 0.49390441D+06 0.49390441D+06 0.49390441D+06 0.10688871D+01  1  2  2  3  6  4        2 0.248244903106D-04 0.100000000000D+01
0.839691382471D-06 0.000000000000D+00 -.354863395623D-07 0.489190509963D-06 0.000000000000D+00  6 2 1 25 2 1 21 2 0.24333696D+00 0.14729009D+00 0.49390441D+06 0.49390441D+06 0.49390441D+06 0.10688871D+01  1  2  3  3  6  4        2 0.257729124743D-05 0.100000000000D+01
-.595071866194D-05 0.000000000000D+00 0.000000000000D+00 0.489190509963D-06 0.000000000000D+00  6 2 1 25 2 1 21 2 0.24333696D+00 0.14729009D+00 0.49390441D+06 0.49390441D+06 0.49390441D+06 0.10688871D+01  1  2 15  3  6  4        2 -.182647284984D-04 0.100000000000D+01
0.520677575333D-03 0.000000000000D+00 0.000000000000D+00 0.489190509963D-06 0.000000000000D+00  6 2 1 25 2 1 21 2 0.24333696D+00 0.14729009D+00 0.49662042D+06 0.49662042D+06 0.49662042D+06 0.10687186D+01  1  2 12  3  6  4        2 0.159708188468D-02 0.100000000000D+01
0.834749629795D-08 0.000000000000D+00 0.000000000000D+00 0.489190509963D-06 0.000000000000D+00  6 2 1 25 2 1 21 2 0.24333696D+00 0.14729009D+00 0.49662042D+06 0.49662042D+06 0.49662042D+06 0.10687186D+01  1  2 12  3  6  4        2 0.256043965623D-07 0.100000000000D+01
-.292650367084D-03 0.000000000000D+00 0.000000000000D+00 0.489190509963D-06 0.000000000000D+00  6 2 1 25 2 1 21 2 0.24333696D+00 0.14729009D+00 0.49390441D+06 0.49390441D+06 0.49390441D+06 0.10688871D+01  1  2  4  3  6  4        2 -.898241003047D-03 0.100000000000D+01
-.622640435514D-03 0.000000000000D+00 0.000000000000D+00 0.489190509963D-06 0.000000000000D+00  6 2 1 25 2 1 21 2 0.24333696D+00 0.14729009D+00 0.49390441D+06 0.49390441D+06 0.49390441D+06 0.10688871D+01  1  2  5  3  6  4        2 -.191108992928D-02 0.100000000000D+01
0.689997795828D-03 0.000000000000D+00 -.000000000000D+00 0.489190509963D-06 0.000000000000D+00  6 2 1 25 2 1 21 2 0.24333696D+00 0.14729009D+00 0.49390441D+06 0.49390441D+06 0.49390441D+06 0.10688871D+01  1  2  6  3  6  4        2 0.211783200001D-02 0.100000000000D+01
  </mgrwgt>
  </event>
  <event>
  5     66 -.18337608E-05 0.31403028E+02 0.75467711E-02 0.94406076E-01
        2 -1    0    0  501    0 0.00000000E+00 0.00000000E+00 0.15116013E+04 0.15116014E+04 0.32000000E+00 0.0000E+00 0.9000E+01
        1 -1    0    0  502    0 0.00000000E+00 0.00000000E+00 -.81392881E+03 0.81392888E+03 0.32000000E+00 0.0000E+00 0.9000E+01
       25  1    1    2    0    0 -.23952899E+03 -.42622109E+03 -.50047676E+03 0.71073239E+03 0.12500000E+03 0.0000E+00 0.9000E+01
        2  1    1    2  501    0 0.26320689E+03 0.40557367E+03 0.13633976E+04 0.14465894E+04 0.32000000E+00 0.0000E+00 0.9000E+01
        1  1    1    2  502    0 -.23677905E+02 0.20647411E+02 -.16524833E+03 0.16820841E+03 0.32000000E+00 0.0000E+00 0.9000E+01
#aMCatNLO 1  0  0  5  2 0.15967523D+01 0.00000000D+00  -5  6  0 0.00000000D+00 0.00000000D+00 0.00000000D+00 0.00000000D+00 0.00000000D+00
  <mgrwgt>
 -.2995512573D-01    9    2    0
 0.110920511420371D+04 0.000000000000000D+00 0.000000000000000D+00 0.110920511420371D+04
 0.110920511420371D+04 -.000000000000000D+00 -.000000000000000D+00 -.110920511420371D+04
 0.902564041646443D+03 -.239540813402060D+03 -.426216258923608D+03 -.748302578250941D+03
 0.108767539332669D+04 0.263209936218533D+03 0.405578362174567D+03 0.974302049089498D+03
 0.228170793434289D+03 -.236691228164734D+02 0.206378967490411D+02 -.225999470838557D+03
 0.000000000000000D+00 0.000000000000000D+00 0.000000000000000D+00 -.000000000000000D+00
 0.110920511420371D+04 0.000000000000000D+00 0.000000000000000D+00 0.110920511420371D+04
 0.110920511420371D+04 -.000000000000000D+00 -.000000000000000D+00 -.110920511420371D+04
 0.902573166445739D+03 -.239541987763301D+03 -.426215234958917D+03 -.748313791383808D+03
 0.108766340675117D+04 0.263208521016652D+03 0.405579596136236D+03 0.974288536342165D+03
 0.164691106742306D+03 -.186357663105674D+02 0.152159208460504D+02 -.162924352405742D+03
 0.634825484682033D+02 -.503076694278441D+01 0.541971797663064D+01 -.630503925526159D+02
0.886549997385D-05 0.000000000000D+00 0.000000000000D+00 0.147387738617D-04 0.000000000000D+00  6 2 1 25 2 1 21 0 0.23255406D+00 0.12521982D+00 0.25986934D+06 0.25986934D+06 0.25986934D+06 0.10891964D+01  1  2  2  4  6  5        1 0.354809756501D-04 0.100000000000D+01
0.237700427012D-05 0.000000000000D+00 -.340458542393D-07 0.147387738617D-04 0.000000000000D+00  6 2 1 25 2 1 21 2 0.23255406D+00 0.12521982D+00 0.25986934D+06 0.25986934D+06 0.25986934D+06 0.10891964D+01  1  2  3  4  6  5        1 0.112858598413D-04 0.100000000000D+01
-.633297761210D-05 0.000000000000D+00 0.000000000000D+00 0.147387738617D-04 0.000000000000D+00  6 2 1 25 2 1 21 2 0.23255406D+00 0.12521982D+00 0.25986934D+06 0.25986934D+06 0.25986934D+06 0.10891964D+01  1  2 15  4  6  5        1 -.300685609221D-04 0.100000000000D+01
0.212399745306D-05 0.000000000000D+00 0.000000000000D+00 0.147387738617D-04 0.000000000000D+00  6 2 1 25 2 1 21 2 0.23255406D+00 0.12521982D+00 0.25989496D+06 0.25989496D+06 0.25989496D+06 0.10891932D+01  1  2 12  4  6  5        1 0.100844822496D-04 0.100000000000D+01
0.386767987370D-11 0.000000000000D+00 0.000000000000D+00 0.147387738617D-04 0.000000000000D+00  6 2 1 25 2 1 21 2 0.23255406D+00 0.12521982D+00 0.25989496D+06 0.25989496D+06 0.25989496D+06 0.10891932D+01  1  2 12  4  6  5        1 0.183632748604D-10 0.100000000000D+01
-.300803972122D-01 0.000000000000D+00 0.000000000000D+00 0.147387738617D-04 0.000000000000D+00  6 2 1 25 2 1 21 2 0.23255406D+00 0.12521982D+00 0.25986934D+06 0.25986934D+06 0.25986934D+06 0.10891964D+01  1  2  4  4  6  5        1 -.142819746340D+00 0.100000000000D+01
-.114671407906D-01 0.000000000000D+00 0.000000000000D+00 0.147387738617D-04 0.000000000000D+00  6 2 1 25 2 1 21 2 0.23255406D+00 0.12521982D+00 0.25986934D+06 0.25986934D+06 0.25986934D+06 0.10891964D+01  1  2  5  4  6  5        1 -.544452298087D-01 0.100000000000D+01
0.188052708883D-01 0.000000000000D+00 -.000000000000D+00 0.147387738617D-04 0.000000000000D+00  6 2 1 25 2 1 21 2 0.23255406D+00 0.12521982D+00 0.25986934D+06 0.25986934D+06 0.25986934D+06 0.10891964D+01  1  2  6  4  6  5        1 0.892861885820D-01 0.100000000000D+01
0.164277320712D-01 0.000000000000D+00 0.000000000000D+00 0.147387738617D-04 0.288080332323D-04  6 2 1 25 2 1 21 2 0.23255406D+00 0.12521982D+00 0.25989496D+06 0.25989496D+06 0.25989496D+06 0.10891932D+01  1  2 11  4  6  5        1 0.779968790612D-01 0.100000000000D+01
  </mgrwgt>
  </event>
  <event>
  5     66 0.18337608E-05 0.99762326E+02 0.75467711E-02 0.94178335E-01
        2 -1    0    0  501    0 0.00000000E+00 0.00000000E+00 0.83691901E+03 0.83691907E+03 0.32000000E+00 0.0000E+00 0.9000E+01
        1 -1    0    0  502    0 0.00000000E+00 0.00000000E+00 -.17847102E+04 0.17847103E+04 0.32000000E+00 0.0000E+00 0.9000E+01
       25  1    1    2    0    0 -.14524378E+03 -.47041256E+03 -.93150527E+03 0.10609952E+04 0.12500000E+03 0.0000E+00 0.9000E+01
        2  1    1    2  501    0 0.11000494E+03 0.37708212E+03 0.71863120E+03 0.81897675E+03 0.32000000E+00 0.0000E+00 0.9000E+01
        1  1    1    2  502    0 0.35238832E+02 0.93330443E+02 -.73491715E+03 0.74165738E+03 0.32000000E+00 0.0000E+00 0.9000E+01
#aMCatNLO 1  0  0  2  4 0.53611199D+02 0.00000000D+00  -5  6  0 0.00000000D+00 0.00000000D+00 0.00000000D+00 0.00000000D+00 0.00000000D+00
  <mgrwgt>
 0.8861895574D-02    9    2    0
 0.122215302883961D+04 0.000000000000000D+00 0.000000000000000D+00 0.122215302883961D+04
 0.122215302883961D+04 0.000000000000000D+00 0.000000000000000D+00 -.122215302883961D+04
 0.776767483086254D+03 -.145244002541185D+03 -.470413167652679D+03 -.587671978407124D+03
 0.115704170202959D+04 0.110004878397810D+03 0.377081898334630D+03 0.108832608574479D+04
 0.510496872563372D+03 0.352391241433748D+02 0.933312693180486D+02 -.500654107337665D+03
 0.000000000000000D+00 0.000000000000000D+00 0.000000000000000D+00 -.000000000000000D+00
 0.123899826203608D+04 0.000000000000000D+00 0.000000000000000D+00 0.123899826203608D+04
 0.126585986285527D+04 0.000000000000000D+00 0.000000000000000D+00 -.126585986285527D+04
 0.784747005297160D+03 -.160214677369353D+03 -.478723056968590D+03 -.587671978407124D+03
 0.115119651837067D+04 0.878751549270172D+02 0.364798180015666D+03 0.108832608574479D+04
 0.508950393103249D+03 0.254653989347408D+02 0.879060913871871D+02 -.500654107337665D+03
 0.599642081202653D+02 0.468741235075954D+02 0.260187855657368D+02 -.268616008191878D+02
0.120125382863D-02 0.000000000000D+00 0.000000000000D+00 0.151316020562D-04 0.000000000000D+00  6 2 1 25 2 1 21 0 0.12875678D+00 0.27457081D+00 0.25025434D+06 0.25025434D+06 0.25025434D+06 0.10904259D+01  1  2  2  2  6  2        1 0.245350950964D-02 0.100000000000D+01
0.158890010371D-03 0.000000000000D+00 -.461313099934D-05 0.151316020562D-04 0.000000000000D+00  6 2 1 25 2 1 21 2 0.12875678D+00 0.27457081D+00 0.25025434D+06 0.25025434D+06 0.25025434D+06 0.10904259D+01  1  2  3  2  6  2        1 0.385870751653D-03 0.100000000000D+01
-.786682992631D-03 0.000000000000D+00 0.000000000000D+00 0.151316020562D-04 0.000000000000D+00  6 2 1 25 2 1 21 2 0.12875678D+00 0.27457081D+00 0.25025434D+06 0.25025434D+06 0.25025434D+06 0.10904259D+01  1  2 15  2  6  2        1 -.191049114398D-02 0.100000000000D+01
0.281248741562D-08 0.000000000000D+00 0.000000000000D+00 0.151316020562D-04 0.000000000000D+00  6 2 1 25 2 1 21 2 0.12875678D+00 0.28640277D+00 0.27062431D+06 0.27062431D+06 0.27062431D+06 0.10878786D+01  1  2 12  2  6  2        1 0.601452175027D-08 0.100000000000D+01
-.382789986156D-04 0.000000000000D+00 0.000000000000D+00 0.151316020562D-04 0.000000000000D+00  6 2 1 25 2 1 21 2 0.12875678D+00 0.27457081D+00 0.25025434D+06 0.25025434D+06 0.25025434D+06 0.10904259D+01  1  2  4  2  6  2        1 -.929620807116D-04 0.100000000000D+01
-.295957595322D-01 0.000000000000D+00 -.521946263486D-02 0.151316020562D-04 0.000000000000D+00  6 2 1 25 2 1 21 2 0.12875678D+00 0.28618647D+00 0.25025434D+06 0.25025434D+06 0.25025434D+06 0.10904259D+01  1  2  5  2  6  2        1 -.640594986130D-01 0.100000000000D+01
0.297909257064D-01 0.000000000000D+00 0.521498542642D-02 0.151316020562D-04 0.000000000000D+00  6 2 1 25 2 1 21 2 0.12875678D+00 0.27457081D+00 0.25025434D+06 0.25025434D+06 0.25025434D+06 0.10904259D+01  1  2  6  2  6  2        1 0.723484558152D-01 0.100000000000D+01
0.461315268234D-10 0.000000000000D+00 0.000000000000D+00 0.151316020562D-04 0.000000000000D+00  6 2 21 25 2 1 -1 2 0.12875678D+00 0.28640277D+00 0.27062431D+06 0.27062431D+06 0.27062431D+06 0.10878786D+01  1  2 12  6  6  2        1 0.559784170614D-10 0.100000000000D+01
-.213100205264D-03 0.000000000000D+00 -.381444133676D-04 0.151316020562D-04 0.000000000000D+00  6 2 21 25 2 1 -1 2 0.12875678D+00 0.28618647D+00 0.25025434D+06 0.25025434D+06 0.25025434D+06 0.10904259D+01  1  2  5  6  6  2        1 -.262994734981D-03 0.100000000000D+01
  </mgrwgt>
  </event>
  <event>
  5     66 0.18337608E-05 0.13737559E+03 0.75467711E-02 0.92093633E-01
        2 -1    0    0  501    0 0.00000000E+00 0.00000000E+00 0.21463041E+04 0.21463041E+04 0.32000000E+00 0.0000E+00 0.9000E+01
        1 -1    0    0  502    0 0.00000000E+00 0.00000000E+00 -.20648157E+04 0.20648157E+04 0.32000000E+00 0.0000E+00 0.9000E+01
       25  1    1    2    0    0 -.51634852E+03 0.25535971E+03 0.20752061E+03 0.62491134E+03 0.12500000E+03 0.0000E+00 0.9000E+01
        2  1    1    2  501    0 0.63179557E+03 -.18091744E+03 0.16649533E+04 0.17899627E+04 0.32000000E+00 0.0000E+00 0.9000E+01
        1  1    1    2  502    0 -.11544705E+03 -.74442265E+02 -.17909855E+04 0.17962458E+04 0.32000000E+00 0.0000E+00 0.9000E+01
#aMCatNLO 1  0  0  4  4 0.52618551D+03 0.00000000D+00  -5  6  0 0.00000000D+00 0.00000000D+00 0.00000000D+00 0.00000000D+00 0.00000000D+00
  <mgrwgt>
 0.2198200997D-01    3    2    0
 0.210516566088037D+04 0.000000000000000D+00 0.000000000000000D+00 0.210516566088037D+04
 0.210516566088037D+04 -.000000000000000D+00 -.000000000000000D+00 -.210516566088037D+04
 0.621017864399255D+03 -.516325384603062D+03 0.255360066496212D+03 0.195544167789688D+03
 0.175802916845703D+04 0.631779555012642D+03 -.180912858699343D+03 0.163058016931735D+04
 0.183128428890446D+04 -.115454170409580D+03 -.744472077968696D+02 -.182612433710703D+04
 0.000000000000000D+00 0.000000000000000D+00 0.000000000000000D+00 0.000000000000000D+00
 0.210516566088037D+04 0.000000000000000D+00 0.000000000000000D+00 0.210516566088037D+04
 0.210516566088037D+04 -.000000000000000D+00 -.000000000000000D+00 -.210516566088037D+04
 0.629277858975973D+03 -.467252948886816D+03 0.241307958354492D+03 0.322196795124882D+03
 0.556062622503245D+03 0.338188729692363D+03 -.263476078986744D+03 -.354138926208378D+03
 0.149358825259209D+04 0.150426320723518D+02 -.111815542053361D+03 -.148932094326802D+04
 0.153140258768944D+04 0.114021587122101D+03 0.133983662685614D+03 0.152126307435151D+04
0.155955457759D+00 0.000000000000D+00 0.000000000000D+00 0.309094288209D-04 0.000000000000D+00  6 2 1 25 2 1 21 0 0.33020063D+00 0.31766395D+00 0.47884719D+06 0.47884719D+06 0.47884719D+06 0.10698397D+01  1  2  2  3  6  4        2 0.349417377380D-01 0.100000000000D+01
0.425061563894D-01 0.000000000000D+00 -.598910021808D-03 0.309094288209D-04 0.000000000000D+00  6 2 1 25 2 1 21 2 0.33020063D+00 0.31766395D+00 0.47884719D+06 0.47884719D+06 0.47884719D+06 0.10698397D+01  1  2  3  3  6  4        2 0.109001678117D-01 0.100000000000D+01
-.930437467221D-01 0.000000000000D+00 0.000000000000D+00 0.309094288209D-04 0.000000000000D+00  6 2 1 25 2 1 21 2 0.33020063D+00 0.31766395D+00 0.47884719D+06 0.47884719D+06 0.47884719D+06 0.10698397D+01  1  2 15  3  6  4        2 -.238598955834D-01 0.100000000000D+01
  </mgrwgt>
  </event>
  <event>
  5     66 0.18337608E-05 0.13757474E+03 0.75467711E-02 0.93654925E-01
        2 -1    0    0  501    0 0.00000000E+00 0.00000000E+00 0.32020736E+03 0.32020752E+03 0.32000000E+00 0.0000E+00 0.9000E+01
        1 -1    0    0  502    0 -.00000000E+00 -.00000000E+00 -.12429253E+04 0.12429253E+04 0.32000000E+00 0.0000E+00 0.9000E+01
       25  1    1    2    0    0 -.40414717E+03 -.20116351E+03 -.23585423E+03 0.52445582E+03 0.12500000E+03 0.0000E+00 0.9000E+01
        2  1    1    2  501    0 0.47698580E+03 0.84475289E+02 -.18537858E+03 0.51866834E+03 0.32000000E+00 0.0000E+00 0.9000E+01
        1  1    1    2  502    0 -.72838625E+02 0.11668822E+03 -.50148510E+03 0.52000867E+03 0.32000000E+00 0.0000E+00 0.9000E+01
#aMCatNLO 1  0  0  5  1 0.41965844D+03 0.00000000D+00  -5  6  0 0.00000000D+00 0.00000000D+00 0.00000000D+00 0.00000000D+00 0.00000000D+00
  <mgrwgt>
 0.8452690651D-03    1    2    0
 0.630867634102518D+03 0.000000000000000D+00 0.000000000000000D+00 0.630867634102518D+03
 0.630867634102518D+03 -.000000000000000D+00 -.000000000000000D+00 -.630867634102518D+03
 0.477237938555236D+03 -.404109622668639D+03 -.201176867050139D+03 0.914020296653824D+02
 0.506961929815416D+03 0.476953365253966D+03 0.844695458035533D+02 0.149635495410778D+03
 0.277535399834385D+03 -.728437425853266D+02 0.116707321246586D+03 -.241037525076160D+03
 0.000000000000000D+00 0.000000000000000D+00 0.000000000000000D+00 0.000000000000000D+00
 0.630867634102518D+03 0.000000000000000D+00 0.000000000000000D+00 0.630867634102518D+03
 0.630867634102518D+03 -.000000000000000D+00 -.000000000000000D+00 -.630867634102518D+03
 0.475589526073795D+03 -.408226097522910D+03 -.194581616227351D+03 0.777807510806165D+02
 0.500004707575607D+03 0.472602994388529D+03 0.914395354294922D+02 0.135240262692745D+03
 0.261513314395418D+03 -.511690469263605D+02 0.117708212325790D+03 -.227850211748401D+03
 0.246277201602158D+02 -.132078499392586D+02 -.145661315279316D+02 0.148291979750397D+02
0.500405668130D-04 0.000000000000D+00 0.000000000000D+00 0.358426322016D-07 0.000000000000D+00  6 2 1 25 2 1 21 2 0.49262686D-01 0.19121929D+00 0.29721775D+06 0.29721775D+06 0.29721775D+06 0.10848514D+01  1  2 14  4  6  5        1 0.845269065122D-03 0.100000000000D+01
  </mgrwgt>
  </event>
  <event>
  5     66 0.18337608E-05 0.28923331E+02 0.75467711E-02 0.86242175E-01
        2 -1    0    0  501    0 0.00000000E+00 0.00000000E+00 0.73078081E+03 0.73078088E+03 0.32000000E+00 0.0000E+00 0.9000E+01
        1 -1    0    0  502    0 0.00000000E+00 0.00000000E+00 -.10890298E+04 0.10890298E+04 0.32000000E+00 0.0000E+00 0.9000E+01
       25  1    1    2    0    0 -.45859693E+03 -.33005353E+03 -.19874986E+02 0.57902201E+03 0.12500000E+03 0.0000E+00 0.9000E+01
        2  1    1    2  501    0 0.22238933E+02 0.18508381E+02 0.35953972E+03 0.36070215E+03 0.32000000E+00 0.0000E+00 0.9000E+01
        1  1    1    2  502    0 0.43635799E+03 0.31154515E+03 -.69791368E+03 0.88008652E+03 0.32000000E+00 0.0000E+00 0.9000E+01
#aMCatNLO 1  0  0  2  4 0.16525539D+02 0.00000000D+00  -5  6  0 0.00000000D+00 0.00000000D+00 0.00000000D+00 0.00000000D+00 0.00000000D+00
  <mgrwgt>
 0.1100721979D-01    5    2    0
 0.892099857001618D+03 0.000000000000000D+00 0.000000000000000D+00 0.892099857001618D+03
 0.892099857001618D+03 0.000000000000000D+00 0.000000000000000D+00 -.892099857001618D+03
 0.586689881542377D+03 -.458666089643194D+03 -.330102341226287D+03 0.961138888639610D+02
 0.439943006616658D+03 0.222313439718128D+02 0.185020646806909D+02 0.438991218612245D+03
 0.757566825844200D+03 0.436434745671381D+03 0.311600276545596D+03 -.535105107476206D+03
 0.000000000000000D+00 -.000000000000000D+00 0.000000000000000D+00 -.000000000000000D+00
 0.130677158241199D+04 0.000000000000000D+00 0.000000000000000D+00 0.130677158241199D+04
 0.150109050933928D+04 0.000000000000000D+00 0.000000000000000D+00 -.150109050933928D+04
 0.761975652401088D+03 -.411335486105837D+03 -.621729147691810D+03 0.961138888639610D+02
 0.477530099996433D+03 0.544295093229497D+02 -.179886450014454D+03 0.438991218612245D+03
 0.724568326023765D+03 0.488449384954647D+03 -.888714617789861D+01 -.535105107476206D+03
 0.843788013329989D+03 -.131543408171759D+03 0.810502743884162D+03 -.194318926927285D+03
0.151007518731D-02 0.000000000000D+00 0.000000000000D+00 0.801867771014D-05 0.000000000000D+00  6 2 1 25 2 1 21 0 0.11242783D+00 0.16754305D+00 0.32715102D+06 0.32715102D+06 0.32715102D+06 0.10817790D+01  1  2  2  2  6  2        1 0.108245007490D-01 0.100000000000D+01
0.864044752224D-03 0.000000000000D+00 -.579908633121D-05 0.801867771014D-05 0.000000000000D+00  6 2 1 25 2 1 21 2 0.11242783D+00 0.16754305D+00 0.32715102D+06 0.32715102D+06 0.32715102D+06 0.10817790D+01  1  2  3  2  6  2        1 0.724807402029D-02 0.100000000000D+01
-.844492508765D-03 0.000000000000D+00 0.000000000000D+00 0.801867771014D-05 0.000000000000D+00  6 2 1 25 2 1 21 2 0.11242783D+00 0.16754305D+00 0.32715102D+06 0.32715102D+06 0.32715102D+06 0.10817790D+01  1  2 15  2  6  2        1 -.708405924272D-02 0.100000000000D+01
-.544584315046D-05 0.000000000000D+00 -.755342060801D-03 0.801867771014D-05 0.000000000000D+00  6 2 1 25 2 1 21 2 0.11242783D+00 0.34496390D+00 0.32715102D+06 0.32715102D+06 0.32715102D+06 0.10817790D+01  1  2  5  2  6  2        1 -.752089737407D-05 0.100000000000D+01
0.458394711069D-04 0.000000000000D+00 -.589865282909D-04 0.801867771014D-05 0.000000000000D+00  6 2 21 25 2 1 -1 2 0.11242783D+00 0.34496390D+00 0.32715102D+06 0.32715102D+06 0.32715102D+06 0.10817790D+01  1  2  5  6  6  2        1 0.262251643458D-04 0.100000000000D+01
  </mgrwgt>
  </event>
  <event>
  6     66 0.18337608E-05 0.16393156E+03 0.75467711E-02 0.89528200E-01
        2 -1    0    0  501    0 0.00000000E+00 0.00000000E+00 0.70345603E+03 0.70345610E+03 0.32000000E+00 0.0000E+00 0.9000E+01
        1 -1    0    0  502    0 -.00000000E+00 -.00000000E+00 -.32298738E+04 0.32298739E+04 0.32000000E+00 0.0000E+00 0.9000E+01
       25  1    1    2    0    0 -.70574915E+03 -.77536417E+02 -.13502700E+04 0.15306691E+04 0.12500000E+03 0.0000E+00 0.9000E+01
        2  1    1    2  501    0 0.67193035E+03 0.24638434E+03 0.39806511E+03 0.81893319E+03 0.32000000E+00 0.0000E+00 0.9000E+01
        1  1    1    2  503    0 0.17050920E+02 -.68872173E+02 -.56558406E+03 0.57001714E+03 0.32000000E+00 0.0000E+00 0.9000E+01
       21  1    1    2  502  503 0.16767874E+02 -.99975750E+02 -.10086289E+04 0.10137106E+04 0.75000000E+00 0.0000E+00 0.9000E+01
#aMCatNLO 2  0  0  5  2 0.94896527D+01 0.00000000D+00  -5  6  0 0.00000000D+00 0.00000000D+00 0.00000000D+00 0.00000000D+00 0.00000000D+00
  <mgrwgt>
 0.9982554971D-04    3    2    0
 0.150734016981174D+04 0.000000000000000D+00 0.000000000000000D+00 0.150734016981174D+04
 0.150734016981174D+04 -.000000000000000D+00 -.000000000000000D+00 -.150734016981174D+04
 0.865538340045146D+03 -.705756412229828D+03 -.775382704961946D+02 -.478985721387440D+03
 0.140220092803163D+04 0.671934272731104D+03 0.246415440435104D+03 0.120579899088416D+04
 0.746941071546713D+03 0.338221394987243D+02 -.168877169938909D+03 -.726813269496716D+03
 0.000000000000000D+00 0.000000000000000D+00 0.000000000000000D+00 -.000000000000000D+00
 0.150734016981174D+04 0.000000000000000D+00 0.000000000000000D+00 0.150734016981174D+04
 0.150734016981174D+04 -.000000000000000D+00 -.000000000000000D+00 -.150734016981174D+04
 0.865577475848508D+03 -.705753016406216D+03 -.775552261675334D+02 -.479058695176181D+03
 0.140209708340895D+04 0.671939773750341D+03 0.246387973321130D+03 0.120568077796693D+04
 0.270074021402170D+03 0.170520294616861D+02 -.689277042865191D+02 -.260572786202565D+03
 0.476931758963853D+03 0.167612131941889D+02 -.999050428670769D+02 -.466049296588184D+03
-.206183677862D-02 0.000000000000D+00 0.000000000000D+00 0.767282321583D-06 0.000000000000D+00  6 2 1 25 2 1 21 2 0.10822401D+00 0.49690367D+00 0.64715309D+06 0.64715309D+06 0.64715309D+06 0.10606812D+01  1  2 13  4  6  5        1 -.526582847146D-03 0.100000000000D+01
-.975483379021D-08 0.000000000000D+00 0.000000000000D+00 0.767282321583D-06 0.000000000000D+00  6 2 1 25 2 1 21 2 0.10822401D+00 0.49690367D+00 0.64715309D+06 0.64715309D+06 0.64715309D+06 0.10606812D+01  1  2 13  4  6  5        1 -.249133597963D-08 0.100000000000D+01
0.245271378436D-02 0.000000000000D+00 0.000000000000D+00 0.767282321583D-06 0.123921778778D-07  6 2 1 25 2 1 21 2 0.10822401D+00 0.49690367D+00 0.64715309D+06 0.64715309D+06 0.64715309D+06 0.10606812D+01  1  2  1  4  6  5        1 0.626410888194D-03 0.100000000000D+01
  </mgrwgt>
  </event>
  <event>
  6     66 -.18337608E-05 0.46713063E+02 0.75467711E-02 0.92596069E-01
        2 -1    0    0  503    0 0.00000000E+00 0.00000000E+00 0.84252960E+03 0.84252966E+03 0.32000000E+00 0.0000E+00 0.9000E+01
        1 -1    0    0  502    0 0.00000000E+00 0.00000000E+00 -.12896760E+04 0.12896760E+04 0.32000000E+00 0.0000E+00 0.9000E+01
       25  1    1    2    0    0 -.50121807E+03 -.18961302E+03 -.17826994E+03 0.57842702E+03 0.12500000E+03 0.0000E+00 0.9000E+01
        2  1    1    2  501    0 0.49999122E+03 0.24753186E+03 0.21088620E+02 0.55830823E+03 0.32000000E+00 0.0000E+00 0.9000E+01
        1  1    1    2  502    0 0.31531179E+02 -.53409843E+02 -.64055133E+03 0.64354715E+03 0.32000000E+00 0.0000E+00 0.9000E+01
       21  1    1    2  503  501 -.30304331E+02 -.45089995E+01 0.35058629E+03 0.35192327E+03 0.75000000E+00 0.0000E+00 0.9000E+01
#aMCatNLO 2  0  0  1  4 0.30637943D+02 0.00000000D+00  -5  6  0 0.00000000D+00 0.00000000D+00 0.00000000D+00 0.00000000D+00 0.00000000D+00
  <mgrwgt>
 -.2740297957D-02    3    2    0
 0.795627008710430D+03 0.000000000000000D+00 0.000000000000000D+00 0.795627008710430D+03
 0.795627008710430D+03 0.000000000000000D+00 0.000000000000000D+00 -.795627008710430D+03
 0.567828080039806D+03 -.511901918513655D+03 -.191181376867403D+03 0.906081422545200D+02
 0.624932416601576D+03 0.487956989474105D+03 0.245728220515742D+03 0.303407553276151D+03
 0.398493520779478D+03 0.239449290395494D+02 -.545468436483384D+02 -.394015695530671D+03
 0.000000000000000D+00 -.000000000000000D+00 -.000000000000000D+00 0.000000000000000D+00
 0.136474185307160D+04 0.000000000000000D+00 0.000000000000000D+00 0.136474185307160D+04
 0.796186920999503D+03 0.000000000000000D+00 0.000000000000000D+00 -.796186920999503D+03
 0.557642769669956D+03 -.501186005015128D+03 -.189586949707359D+03 0.906081422545200D+02
 0.635037343700267D+03 0.499953503613619D+03 0.247513189008864D+03 0.303407553276151D+03
 0.398868827603022D+03 0.315368324233220D+02 -.534172398163196D+02 -.394015695530671D+03
 0.569379833097860D+03 -.303043310218130D+02 -.450899948518543D+01 0.568554932072099D+03
-.315397567871D-02 0.000000000000D+00 0.000000000000D+00 0.108177935751D-05 0.000000000000D+00  6 2 1 25 2 1 21 2 0.12976195D+00 0.19827210D+00 0.36046211D+06 0.36046211D+06 0.36046211D+06 0.10787013D+01  1  2 13  1  6  1        2 -.156780230154D-01 0.100000000000D+01
-.193708691463D-06 0.000000000000D+00 0.000000000000D+00 0.108177935751D-05 0.000000000000D+00  6 2 1 25 2 1 21 2 0.12966331D+00 0.19827210D+00 0.36046211D+06 0.36046211D+06 0.36046211D+06 0.10787013D+01  1  2 13  1  6  1        2 -.963867929449D-06 0.100000000000D+01
0.260293241773D-02 0.000000000000D+00 0.000000000000D+00 0.108177935751D-05 0.676034898591D-08  6 2 1 25 2 1 21 2 0.12961991D+00 0.19841163D+00 0.36046211D+06 0.36046211D+06 0.36046211D+06 0.10787013D+01  1  2  1  1  6  1        2 0.129386889261D-01 0.100000000000D+01
  </mgrwgt>
  </event>
  <event>
  5     66 0.18337608E-05 0.65059530E+02 0.75467711E-02 0.89600329E-01
        2 -1    0    0  501    0 0.00000000E+00 0.00000000E+00 0.15741801E+04 0.15741801E+04 0.32000000E+00 0.0000E+00 0.9000E+01
        1 -1    0    0  502    0 0.00000000E+00 0.00000000E+00 -.65906187E+03 0.65906194E+03 0.32000000E+00 0.0000E+00 0.9000E+01
       25  1    1    2    0    0 0.55125047E+03 0.63344435E+02 0.10586588E+02 0.56888195E+03 0.12500000E+03 0.0000E+00 0.9000E+01
        2  1    1    2  501    0 0.55692031E+02 0.33650278E+02 0.10341520E+04 0.10361971E+04 0.32000000E+00 0.0000E+00 0.9000E+01
        1  1    1    2  502    0 -.60694250E+03 -.96994713E+02 -.12962041E+03 0.62816298E+03 0.32000000E+00 0.0000E+00 0.9000E+01
#aMCatNLO 1  0  0  4  1 0.66684936D+01 0.00000000D+00  -5  6  0 0.00000000D+00 0.00000000D+00 0.00000000D+00 0.00000000D+00 0.00000000D+00
  <mgrwgt>
 0.3634029704D-02    6    2    0
 0.101856868776570D+04 0.000000000000000D+00 0.000000000000000D+00 0.101856868776570D+04
 0.101856868776570D+04 -.000000000000000D+00 -.000000000000000D+00 -.101856868776570D+04
 0.618952402753236D+03 0.551336374850070D+03 0.633584774297006D+02 -.243907732511655D+03
 0.671291709990941D+03 0.556841312325011D+02 0.336455046413942D+02 0.668131586926459D+03
 0.746893262787222D+03 -.607020506082571D+03 -.970039820710948D+02 -.424223854414804D+03
 0.000000000000000D+00 0.000000000000000D+00 0.000000000000000D+00 0.000000000000000D+00
 0.101856868776570D+04 0.000000000000000D+00 0.000000000000000D+00 0.101856868776570D+04
 0.101856868776570D+04 -.000000000000000D+00 -.000000000000000D+00 -.101856868776570D+04
 0.607399983745828D+03 0.554724504146269D+03 0.654056552779989D+02 -.203254926168503D+03
 0.359155407441527D+03 0.421457475451090D+02 -.190467841845164D+03 0.301559851242168D+03
 0.716713358913812D+03 -.602976897958439D+03 -.945607503478519D+02 -.375706220160897D+03
 0.353868625430232D+03 0.610664626706102D+01 0.219622936915017D+03 0.277401295087232D+03
0.763069720515D-03 0.000000000000D+00 0.000000000000D+00 0.262031579972D-05 0.000000000000D+00  6 2 1 25 2 1 21 0 0.24218156D+00 0.10139414D+00 0.38978184D+06 0.38978184D+06 0.38978184D+06 0.10762387D+01  1  2  2  3  6  4        2 0.382524004470D-02 0.100000000000D+01
0.291612983430D-03 0.000000000000D+00 -.293038864765D-05 0.262031579972D-05 0.000000000000D+00  6 2 1 25 2 1 21 2 0.24218156D+00 0.10139414D+00 0.38978184D+06 0.38978184D+06 0.38978184D+06 0.10762387D+01  1  2  3  3  6  4        2 0.169324015154D-02 0.100000000000D+01
-.522740064638D-03 0.000000000000D+00 0.000000000000D+00 0.262031579972D-05 0.000000000000D+00  6 2 1 25 2 1 21 2 0.24218156D+00 0.10139414D+00 0.38978184D+06 0.38978184D+06 0.38978184D+06 0.10762387D+01  1  2 15  3  6  4        2 -.303527111810D-02 0.100000000000D+01
-.618362083354D-04 0.000000000000D+00 0.000000000000D+00 0.262031579972D-05 0.000000000000D+00  6 2 1 25 2 1 21 2 0.24218156D+00 0.10139414D+00 0.38978184D+06 0.38978184D+06 0.38978184D+06 0.10762387D+01  1  2  4  3  6  4        2 -.359049688190D-03 0.100000000000D+01
-.409801664174D-03 0.000000000000D+00 0.000000000000D+00 0.262031579972D-05 0.000000000000D+00  6 2 1 25 2 1 21 2 0.24218156D+00 0.10139414D+00 0.38978184D+06 0.38978184D+06 0.38978184D+06 0.10762387D+01  1  2  5  3  6  4        2 -.237949841529D-02 0.100000000000D+01
0.669834351420D-03 0.000000000000D+00 -.000000000000D+00 0.262031579972D-05 0.000000000000D+00  6 2 1 25 2 1 21 2 0.24218156D+00 0.10139414D+00 0.38978184D+06 0.38978184D+06 0.38978184D+06 0.10762387D+01  1  2  6  3  6  4        2 0.388936872895D-02 0.100000000000D+01
  </mgrwgt>
  </event>
  <event>
  6     66 0.18337608E-05 0.18787413E+03 0.75467711E-02 0.91120491E-01
        2 -1    0    0  501    0 0.00000000E+00 0.00000000E+00 0.19228998E+04 0.19228998E+04 0.32000000E+00 0.0000E+00 0.9000E+01
        1 -1    0    0  502    0 -.00000000E+00 -.00000000E+00 -.26557184E+04 0.26557184E+04 0.32000000E+00 0.0000E+00 0.9000E+01
       25  1    1    2    0    0 0.49353284E+03 0.47250353E+03 -.65101620E+02 0.69763706E+03 0.12500000E+03 0.0000E+00 0.9000E+01
        2  1    1    2  503    0 -.12621798E+03 -.12197447E+03 0.14465528E+04 0.14571629E+04 0.32000000E+00 0.0000E+00 0.9000E+01
        1  1    1    2  502    0 -.35992250E+03 -.33720204E+03 -.22417829E+04 0.22953954E+04 0.32000000E+00 0.0000E+00 0.9000E+01
       21  1    1    2  501  503 -.73923547E+01 -.13327016E+02 0.12751314E+03 0.12842282E+03 0.75000000E+00 0.0000E+00 0.9000E+01
#aMCatNLO 2  0  0  4  1 0.41765163D+01 0.00000000D+00  -5  6  0 0.00000000D+00 0.00000000D+00 0.00000000D+00 0.00000000D+00 0.00000000D+00
  <mgrwgt>
 0.3320431731D-03    6    2    0
 0.225979653367384D+04 0.000000000000000D+00 0.000000000000000D+00 0.225979653367384D+04
 0.225979653367384D+04 -.000000000000000D+00 -.000000000000000D+00 -.225979653367384D+04
 0.696304950071520D+03 0.493606320085373D+03 0.472571699981700D+03 0.473748102084306D+02
 0.186130909633803D+04 -.133600090409109D+03 -.135291114015689D+03 0.185157200303465D+04
 0.196197902093813D+04 -.360006229676265D+03 -.337280585966011D+03 -.189894681324308D+04
 0.000000000000000D+00 0.000000000000000D+00 0.000000000000000D+00 0.000000000000000D+00
 0.225979653367384D+04 0.000000000000000D+00 0.000000000000000D+00 0.225979653367384D+04
 0.225979653367384D+04 -.000000000000000D+00 -.000000000000000D+00 -.225979653367384D+04
 0.696304628088633D+03 0.493605609518223D+03 0.472570980420650D+03 0.473846580029727D+02
 0.171389930350044D+04 -.126452155014323D+03 -.122198848954262D+03 0.170485428009134D+04
 0.196195288037770D+04 -.360008231829023D+03 -.337282613460725D+03 -.189891906528288D+04
 0.147436255380913D+03 -.714522267487852D+01 -.130895180056641D+02 0.146680127188558D+03
-.639605683107D-01 0.000000000000D+00 0.000000000000D+00 0.460349740113D-04 0.000000000000D+00  6 2 1 25 2 1 21 2 0.29583074D+00 0.40857206D+00 0.47525347D+06 0.47525347D+06 0.47525347D+06 0.10700719D+01  1  2 13  3  6  4        2 -.856106973517D-02 0.100000000000D+01
-.609021258157D-09 0.000000000000D+00 0.000000000000D+00 0.460349740113D-04 0.000000000000D+00  6 2 1 25 2 1 21 2 0.29583074D+00 0.40857206D+00 0.47525347D+06 0.47525347D+06 0.47525347D+06 0.10700719D+01  1  2 13  3  6  4        2 -.815169970968D-10 0.100000000000D+01
-.202406178569D-01 0.000000000000D+00 0.000000000000D+00 0.460349740113D-04 0.000000000000D+00  6 2 1 25 2 1 21 2 0.29583074D+00 0.40857206D+00 0.47482300D+06 0.47482300D+06 0.47482300D+06 0.10700998D+01  1  2  8  3  6  4        2 -.270958911166D-02 0.100000000000D+01
-.188182620641D-01 0.000000000000D+00 0.000000000000D+00 0.460349740113D-04 0.000000000000D+00  6 2 1 25 2 1 21 2 0.29583074D+00 0.40857206D+00 0.47482300D+06 0.47482300D+06 0.47482300D+06 0.10700998D+01  1  2  9  3  6  4        2 -.251917991583D-02 0.100000000000D+01
0.203677125459D-01 0.000000000000D+00 0.000000000000D+00 0.460349740113D-04 0.000000000000D+00  6 2 1 25 2 1 21 2 0.29583074D+00 0.40857206D+00 0.47482300D+06 0.47482300D+06 0.47482300D+06 0.10700998D+01  1  2 10  3  6  4        2 0.272660313701D-02 0.100000000000D+01
0.851352150828D-01 0.000000000000D+00 0.000000000000D+00 0.460349740113D-04 0.139640387370D-04  6 2 1 25 2 1 21 2 0.29583074D+00 0.40857206D+00 0.47525347D+06 0.47525347D+06 0.47525347D+06 0.10700719D+01  1  2  1  3  6  4        2 0.113952788803D-01 0.100000000000D+01
  </mgrwgt>
  </event>
  <event>
  5     66 -.18337608E-05 0.11644275E+03 0.75467711E-02 0.93376535E-01
        2 -1    0    0  501    0 0.00000000E+00 0.00000000E+00 0.24703447E+04 0.24703447E+04 0.32000000E+00 0.0000E+00 0.9000E+01
        1 -1    0    0  502    0 0.00000000E+00 0.00000000E+00 -.81128558E+03 0.81128564E+03 0.32000000E+00 0.0000E+00 0.9000E+01
       25  1    1    2    0    0 0.28659652E+02 0.46285812E+03 0.26148325E+03 0.54686151E+03 0.12500000E+03 0.0000E+00 0.9000E+01
        2  1    1    2  501    0 0.55799187E+02 -.38271287E+03 0.20428171E+04 0.20791067E+04 0.32000000E+00 0.0000E+00 0.9000E+01
        1  1    1    2  502    0 -.84458839E+02 -.80145248E+02 -.64524124E+03 0.65566219E+03 0.32000000E+00 0.0000E+00 0.9000E+01
#aMCatNLO 1  0  0  4  5 0.47660415D+03 0.00000000D+00  -5  6  0 0.00000000D+00 0.00000000D+00 0.00000000D+00 0.00000000D+00 0.00000000D+00
  <mgrwgt>
 -.4349006375D-02    4    2    0
 0.141568187744237D+04 0.000000000000000D+00 0.000000000000000D+00 0.141568187744237D+04
 0.141568187744237D+04 -.000000000000000D+00 -.000000000000000D+00 -.141568187744237D+04
 0.480604775035124D+03 0.286682029163007D+02 0.462854959939541D+03 -.173023116223679D+02
 0.121270577103657D+04 0.557976600220268D+02 -.382702402055751D+03 0.114938278206271D+04
 0.113805320881304D+04 -.844658629383275D+02 -.801525578837906D+02 -.113208047044034D+04
 0.000000000000000D+00 0.000000000000000D+00 0.000000000000000D+00 0.000000000000000D+00
 0.141568187744237D+04 0.000000000000000D+00 0.000000000000000D+00 0.141568187744237D+04
 0.141568187744237D+04 -.000000000000000D+00 -.000000000000000D+00 -.141568187744237D+04
 0.477613507921812D+03 0.290893586384204D+02 0.459966356610457D+03 -.862687370292011D+01
 0.319351364917086D+03 -.137646059032173D+03 -.543323538229250D+02 0.282996204984057D+03
 0.111816901615143D+04 -.834742090351217D+02 -.869540676713874D+02 -.111165327113378D+04
 0.916229865894399D+03 0.192030909428874D+03 -.318679935116145D+03 0.837283939852639D+03
0.544618463959D-02 0.000000000000D+00 0.000000000000D+00 0.712058772324D-04 0.000000000000D+00  6 2 1 25 2 1 21 0 0.38005304D+00 0.12481317D+00 0.24181049D+06 0.24181049D+06 0.24181049D+06 0.10915490D+01  1  2  2  3  6  4        2 0.651605970374D-02 0.100000000000D+01
0.121064284805D-02 0.000000000000D+00 -.209147830294D-04 0.712058772324D-04 0.000000000000D+00  6 2 1 25 2 1 21 2 0.38005304D+00 0.12481317D+00 0.24181049D+06 0.24181049D+06 0.24181049D+06 0.10915490D+01  1  2  3  3  6  4        2 0.172581873365D-02 0.100000000000D+01
-.349122394730D-02 0.000000000000D+00 0.000000000000D+00 0.712058772324D-04 0.000000000000D+00  6 2 1 25 2 1 21 2 0.38005304D+00 0.12481317D+00 0.24181049D+06 0.24181049D+06 0.24181049D+06 0.10915490D+01  1  2 15  3  6  4        2 -.497687629453D-02 0.100000000000D+01
-.534114317879D-02 0.000000000000D+00 0.000000000000D+00 0.712058772324D-04 0.000000000000D+00  6 2 1 25 2 1 21 2 0.38005304D+00 0.12481317D+00 0.24181049D+06 0.24181049D+06 0.24181049D+06 0.10915490D+01  1  2  5  3  6  4        2 -.761400851779D-02 0.100000000000D+01
  </mgrwgt>
  </event>
  <event>
  5     66 0.18337608E-05 0.36505428E+02 0.75467711E-02 0.93396152E-01
        2 -1    0    0  501    0 0.00000000E+00 0.00000000E+00 0.52880757E+03 0.52880767E+03 0.32000000E+00 0.0000E+00 0.9000E+01
        1 -1    0    0  502    0 -.00000000E+00 -.00000000E+00 -.12207892E+04 0.12207893E+04 0.32000000E+00 0.0000E+00 0.9000E+01
       25  1    1    2    0    0 -.11351160E+03 0.53220906E+03 -.81556165E+03 0.98838109E+03 0.12500000E+03 0.0000E+00 0.9000E+01
        2  1    1    2  501    0 0.10725278E+03 -.49623625E+03 0.29416975E+03 0.58676190E+03 0.32000000E+00 0.0000E+00 0.9000E+01
        1  1    1    2  502    0 0.62588254E+01 -.35972812E+02 -.17058977E+03 0.17445397E+03 0.32000000E+00 0.0000E+00 0.9000E+01
#aMCatNLO 1  0  0  5  2 0.13962522D+02 0.00000000D+00  -5  6  0 0.00000000D+00 0.00000000D+00 0.00000000D+00 0.00000000D+00 0.00000000D+00
  <mgrwgt>
 0.8698364100D-02    8    2    0
 0.803469178409082D+03 0.000000000000000D+00 0.000000000000000D+00 0.803469178409082D+03
 0.803469178409082D+03 -.000000000000000D+00 -.000000000000000D+00 -.803469178409082D+03
 0.724957824489141D+03 -.113511713601307D+03 0.532208305707718D+03 -.462394050025563D+03
 0.765538982419536D+03 0.107254274754207D+03 -.496243173156592D+03 0.572965240871001D+03
 0.116441549909487D+03 0.625743884710042D+01 -.359651325511266D+02 -.110571190845438D+03
 0.000000000000000D+00 0.000000000000000D+00 -.000000000000000D+00 0.000000000000000D+00
 0.803469178409082D+03 0.000000000000000D+00 0.000000000000000D+00 0.803469178409082D+03
 0.803469178409082D+03 -.000000000000000D+00 -.000000000000000D+00 -.803469178409082D+03
 0.725922023995821D+03 -.113372442664768D+03 0.531407834809714D+03 -.464855017472400D+03
 0.764168307276192D+03 0.107401112390066D+03 -.497087134266911D+03 0.570370567130745D+03
 0.231510227284620D+02 0.405380654957964D+01 0.730093631624223D+01 -.215924254019441D+02
 0.936970028176883D+02 0.191752372512295D+01 -.416216368590449D+02 -.839231242564007D+02
0.350172639699D-03 0.000000000000D+00 0.000000000000D+00 0.825962238577D-06 0.000000000000D+00  6 2 1 25 2 1 21 0 0.81355022D-01 0.18781374D+00 0.30390835D+06 0.30390835D+06 0.30390835D+06 0.10841362D+01  1  2  2  4  6  5        1 0.297147364346D-02 0.100000000000D+01
0.858665825108D-04 0.000000000000D+00 -.134475513902D-05 0.825962238577D-06 0.000000000000D+00  6 2 1 25 2 1 21 2 0.81355022D-01 0.18781374D+00 0.30390835D+06 0.30390835D+06 0.30390835D+06 0.10841362D+01  1  2  3  4  6  5        1 0.856409658487D-03 0.100000000000D+01
-.204686128239D-03 0.000000000000D+00 0.000000000000D+00 0.825962238577D-06 0.000000000000D+00  6 2 1 25 2 1 21 2 0.81355022D-01 0.18781374D+00 0.30390835D+06 0.30390835D+06 0.30390835D+06 0.10841362D+01  1  2 15  4  6  5        1 -.204148310153D-02 0.100000000000D+01
0.207229794925D-03 0.000000000000D+00 0.000000000000D+00 0.825962238577D-06 0.000000000000D+00  6 2 1 25 2 1 21 2 0.81355022D-01 0.18781374D+00 0.31143852D+06 0.31143852D+06 0.31143852D+06 0.10833516D+01  1  2 12  4  6  5        1 0.206170236290D-02 0.100000000000D+01
0.366112475903D-07 0.000000000000D+00 0.000000000000D+00 0.825962238577D-06 0.000000000000D+00  6 2 1 25 2 1 21 2 0.81355022D-01 0.18781374D+00 0.31143852D+06 0.31143852D+06 0.31143852D+06 0.10833516D+01  1  2 12  4  6  5        1 0.364240555722D-06 0.100000000000D+01
-.127338154310D-03 0.000000000000D+00 0.000000000000D+00 0.825962238577D-06 0.000000000000D+00  6 2 1 25 2 1 21 2 0.81355022D-01 0.18781374D+00 0.30390835D+06 0.30390835D+06 0.30390835D+06 0.10841362D+01  1  2  4  4  6  5        1 -.127003570023D-02 0.100000000000D+01
-.215583096369D-03 0.000000000000D+00 0.000000000000D+00 0.825962238577D-06 0.000000000000D+00  6 2 1 25 2 1 21 2 0.81355022D-01 0.18781374D+00 0.30390835D+06 0.30390835D+06 0.30390835D+06 0.10841362D+01  1  2  5  4  6  5        1 -.215016646218D-02 0.100000000000D+01
0.829188660485D-03 0.000000000000D+00 -.000000000000D+00 0.825962238577D-06 0.000000000000D+00  6 2 1 25 2 1 21 2 0.81355022D-01 0.18781374D+00 0.30390835D+06 0.30390835D+06 0.30390835D+06 0.10841362D+01  1  2  6  4  6  5        1 0.827009945876D-02 0.100000000000D+01
  </mgrwgt>
  </event>
  <event>
  5     66 0.18337608E-05 0.12676753E+03 0.75467711E-02 0.93103586E-01
        2 -1    0    0  501    0 0.00000000E+00 0.00000000E+00 0.37358194E+03 0.37358208E+03 0.32000000E+00 0.0000E+00 0.9000E+01
        1 -1    0    0  502    0 -.00000000E+00 -.00000000E+00 -.18779132E+04 0.18779132E+04 0.32000000E+00 0.0000E+00 0.9000E+01
       25  1    1    2    0    0 0.43181005E+03 -.35111365E+03 -.12373424E+03 0.58367446E+03 0.12500000E+03 0.0000E+00 0.9000E+01
        2  1    1    2  501    0 -.54273680E+02 0.11467413E+03 0.73772564E+02 0.14675926E+03 0.32000000E+00 0.0000E+00 0.9000E+01
        1  1    1    2  502    0 -.37753637E+03 0.23643952E+03 -.14543696E+04 0.15210616E+04 0.32000000E+00 0.0000E+00 0.9000E+01
#aMCatNLO 1  0  0  4  1 0.26447259D+02 0.00000000D+00  -5  6  0 0.00000000D+00 0.00000000D+00 0.00000000D+00 0.00000000D+00 0.00000000D+00
  <mgrwgt>
 0.4530305203D-03    8    2    0
 0.837588593327219D+03 0.000000000000000D+00 0.000000000000000D+00 0.837588593327219D+03
 0.837588593327219D+03 -.000000000000000D+00 -.000000000000000D+00 -.837588593327219D+03
 0.673486259585530D+03 0.431843959030091D+03 -.351080317413090D+03 0.358067238971744D+03
 0.263286898948746D+03 -.542301975556948D+02 0.114582255134908D+03 0.230759579734659D+03
 0.738404028120162D+03 -.377613761474396D+03 0.236498062278183D+03 -.588826818706403D+03
 0.000000000000000D+00 -.000000000000000D+00 0.000000000000000D+00 0.000000000000000D+00
 0.837588593327219D+03 0.000000000000000D+00 0.000000000000000D+00 0.837588593327219D+03
 0.837588593327219D+03 -.000000000000000D+00 -.000000000000000D+00 -.837588593327219D+03
 0.673947163985395D+03 0.430981805588321D+03 -.349258685000100D+03 0.361735862263874D+03
 0.220693540590952D+03 -.207304157393445D+02 0.897390959986556D+02 0.200556185073381D+03
 0.736334579153252D+03 -.378557370964654D+03 0.238491802080613D+03 -.584811584773650D+03
 0.442019029248382D+02 -.316940188843222D+02 0.210277869208311D+02 0.225195374363945D+02
0.252482847695D-04 0.000000000000D+00 0.000000000000D+00 0.228527983775D-06 0.000000000000D+00  6 2 1 25 2 1 21 0 0.57474158D-01 0.28890974D+00 0.32646414D+06 0.32646414D+06 0.32646414D+06 0.10818460D+01  1  2  2  3  6  4        2 0.113413877586D-03 0.100000000000D+01
0.239987645876D-05 0.000000000000D+00 -.969600615408D-07 0.228527983775D-06 0.000000000000D+00  6 2 1 25 2 1 21 2 0.57474158D-01 0.28890974D+00 0.32646414D+06 0.32646414D+06 0.32646414D+06 0.10818460D+01  1  2  3  3  6  4        2 0.126169414306D-04 0.100000000000D+01
-.158360609544D-04 0.000000000000D+00 0.000000000000D+00 0.228527983775D-06 0.000000000000D+00  6 2 1 25 2 1 21 2 0.57474158D-01 0.28890974D+00 0.32646414D+06 0.32646414D+06 0.32646414D+06 0.10818460D+01  1  2 15  3  6  4        2 -.832553912615D-04 0.100000000000D+01
0.641001799656D-04 0.000000000000D+00 0.000000000000D+00 0.228527983775D-06 0.000000000000D+00  6 2 1 25 2 1 21 2 0.57474158D-01 0.28890974D+00 0.32844211D+06 0.32844211D+06 0.32844211D+06 0.10816534D+01  1  2 12  3  6  4        2 0.336771307145D-03 0.100000000000D+01
0.223695041831D-07 0.000000000000D+00 0.000000000000D+00 0.228527983775D-06 0.000000000000D+00  6 2 1 25 2 1 21 2 0.57474158D-01 0.28890974D+00 0.32844211D+06 0.32844211D+06 0.32844211D+06 0.10816534D+01  1  2 12  3  6  4        2 0.117525522830D-06 0.100000000000D+01
-.250940405478D-04 0.000000000000D+00 0.000000000000D+00 0.228527983775D-06 0.000000000000D+00  6 2 1 25 2 1 21 2 0.57474158D-01 0.28890974D+00 0.32646414D+06 0.32646414D+06 0.32646414D+06 0.10818460D+01  1  2  4  3  6  4        2 -.131927640980D-03 0.100000000000D+01
-.142605500118D-03 0.000000000000D+00 0.000000000000D+00 0.228527983775D-06 0.000000000000D+00  6 2 1 25 2 1 21 2 0.57474158D-01 0.28890974D+00 0.32646414D+06 0.32646414D+06 0.32646414D+06 0.10818460D+01  1  2  5  3  6  4        2 -.749724110216D-03 0.100000000000D+01
0.181654583651D-03 0.000000000000D+00 -.000000000000D+00 0.228527983775D-06 0.000000000000D+00  6 2 1 25 2 1 21 2 0.57474158D-01 0.28890974D+00 0.32646414D+06 0.32646414D+06 0.32646414D+06 0.10818460D+01  1  2  6  3  6  4        2 0.955018011097D-03 0.100000000000D+01
  </mgrwgt>
  </event>
  <event>
  6     66 0.18337608E-05 0.71793393E+02 0.75467711E-02 0.92397066E-01
        2 -1    0    0  501    0 0.00000000E+00 0.00000000E+00 0.21956164E+04 0.21956165E+04 0.32000000E+00 0.0000E+00 0.9000E+01
        1 -1    0    0  502    0 0.00000000E+00 0.00000000E+00 -.12640769E+04 0.12640769E+04 0.32000000E+00 0.0000E+00 0.9000E+01
       25  1    1    2    0    0 0.54526000E+03 -.20225696E+03 0.24919648E+03 0.64493428E+03 0.12500000E+03 0.0000E+00 0.9000E+01
        2  1    1    2  503    0 -.40833950E+03 0.13545400E+03 0.15748714E+04 0.16325774E+04 0.32000000E+00 0.0000E+00 0.9000E+01
        1  1    1    2  502    0 -.11300326E+03 -.13899625E+02 -.10216888E+04 0.10280132E+04 0.32000000E+00 0.0000E+00 0.9000E+01
       21  1    1    2  501  503 -.23917233E+02 0.80702587E+02 0.12916051E+03 0.15416855E+03 0.75000000E+00 0.0000E+00 0.9000E+01
#aMCatNLO 2  0  0  4  2 0.65105734D+02 0.00000000D+00  -5  6  0 0.00000000D+00 0.00000000D+00 0.00000000D+00 0.00000000D+00 0.00000000D+00
  <mgrwgt>
 0.2362527917D-02    3    2    0
 0.166596161104248D+04 0.000000000000000D+00 0.000000000000000D+00 0.166596161104248D+04
 0.166596161104248D+04 -.000000000000000D+00 -.000000000000000D+00 -.166596161104248D+04
 0.600820243218965D+03 0.546397188591252D+03 -.202803997717735D+03 0.753698578410260D+02
 0.137039210632711D+04 -.435977300482679D+03 0.218017111996600D+03 0.128076807323736D+04
 0.136071087253889D+04 -.110419888108573D+03 -.152131142788653D+02 -.135613793107839D+04
 0.000000000000000D+00 0.000000000000000D+00 0.000000000000000D+00 0.000000000000000D+00
 0.166596161104248D+04 0.000000000000000D+00 0.000000000000000D+00 0.166596161104248D+04
 0.166596161104248D+04 -.000000000000000D+00 -.000000000000000D+00 -.166596161104248D+04
 0.600008132769335D+03 0.545238086672929D+03 -.202224371089324D+03 0.787749450530740D+02
 0.125467198748592D+04 -.408275964750131D+03 0.135401697953308D+03 0.117863434235584D+04
 0.135324336452840D+04 -.113039537698247D+03 -.139031184663506D+02 -.134844220115436D+04
 0.123999737301314D+03 -.239225842245509D+02 0.807257916023670D+02 0.910329137454436D+02
-.528019767810D-09 0.000000000000D+00 0.000000000000D+00 0.566387291030D-04 0.000000000000D+00  6 2 1 25 2 1 21 2 0.33778715D+00 0.19447337D+00 0.37395948D+06 0.37395948D+06 0.37395948D+06 0.10775415D+01  1  2 13  3  6  4        2 -.457698012340D-09 0.100000000000D+01
-.369553290426D-03 0.000000000000D+00 0.000000000000D+00 0.566387291030D-04 0.000000000000D+00  6 2 1 25 2 1 21 2 0.33778715D+00 0.19447337D+00 0.35699863D+06 0.35699863D+06 0.35699863D+06 0.10790066D+01  1  2  8  3  6  4        2 -.322462817040D-03 0.100000000000D+01
0.309751929769D-02 0.000000000000D+00 0.000000000000D+00 0.566387291030D-04 0.136279718387D-07  6 2 1 25 2 1 21 2 0.33778715D+00 0.19447337D+00 0.37395948D+06 0.37395948D+06 0.37395948D+06 0.10775415D+01  1  2  1  3  6  4        2 0.268499119194D-02 0.100000000000D+01
  </mgrwgt>
  </event>
  <event>
  5     66 0.18337608E-05 0.76438832E+02 0.75467711E-02 0.91357295E-01
        2 -1    0    0  501    0 0.00000000E+00 0.00000000E+00 0.21538008E+04 0.21538008E+04 0.32000000E+00 0.0000E+00 0.9000E+01
        1 -1    0    0  502    0 0.00000000E+00 0.00000000E+00 -.41592481E+03 0.41592493E+03 0.32000000E+00 0.0000E+00 0.9000E+01
       25  1    1    2    0    0 0.41135056E+03 0.25316080E+03 0.34087228E+03 0.60425044E+03 0.12500000E+03 0.0000E+00 0.9000E+01
        2  1    1    2  501    0 -.45820335E+03 -.19277371E+03 0.16384602E+04 0.17122103E+04 0.32000000E+00 0.0000E+00 0.9000E+01
        1  1    1    2  502    0 0.46852792E+02 -.60387098E+02 -.24145657E+03 0.25326500E+03 0.32000000E+00 0.0000E+00 0.9000E+01
#aMCatNLO 1  0  0  5  2 0.80310969D+02 0.00000000D+00  -5  6  0 0.00000000D+00 0.00000000D+00 0.00000000D+00 0.00000000D+00 0.00000000D+00
  <mgrwgt>
 0.2361941970D-02    6    2    0
 0.946477348429432D+03 0.000000000000000D+00 0.000000000000000D+00 0.946477348429432D+03
 0.946477348429432D+03 -.000000000000000D+00 -.000000000000000D+00 -.946477348429432D+03
 0.507310932041536D+03 0.411333872510357D+03 0.253161616880747D+03 -.919403221269703D+02
 0.820107535579180D+03 -.458190469623457D+03 -.192768286151637D+03 0.652286939401788D+03
 0.565536229238150D+03 0.468565971131004D+02 -.603933307291097D+02 -.560346617274817D+03
 0.000000000000000D+00 0.000000000000000D+00 0.000000000000000D+00 -.000000000000000D+00
 0.946477348429432D+03 0.000000000000000D+00 0.000000000000000D+00 0.946477348429432D+03
 0.946477348429432D+03 -.000000000000000D+00 -.000000000000000D+00 -.946477348429432D+03
 0.515245394273851D+03 0.414239493454662D+03 0.249416570559109D+03 -.126687934363828D+03
 0.776462625065950D+03 -.453653773132086D+03 -.198615620966832D+03 0.598033692491726D+03
 0.274991358328393D+03 0.122878868526749D+03 -.168881823044697D+03 -.178885328269202D+03
 0.326255319190671D+03 -.834645888493260D+02 0.118080873452420D+03 -.292460429858696D+03
0.649964346467D-03 0.000000000000D+00 0.000000000000D+00 0.641189873296D-05 0.000000000000D+00  6 2 1 25 2 1 21 0 0.33135398D+00 0.63988444D-01 0.28753117D+06 0.28753117D+06 0.28753117D+06 0.10859185D+01  1  2  2  4  6  5        1 0.306862061136D-02 0.100000000000D+01
0.178144524520D-03 0.000000000000D+00 -.249603422997D-05 0.641189873296D-05 0.000000000000D+00  6 2 1 25 2 1 21 2 0.33135398D+00 0.63988444D-01 0.28753117D+06 0.28753117D+06 0.28753117D+06 0.10859185D+01  1  2  3  4  6  5        1 0.991792023869D-03 0.100000000000D+01
-.458843280718D-03 0.000000000000D+00 0.000000000000D+00 0.641189873296D-05 0.000000000000D+00  6 2 1 25 2 1 21 2 0.33135398D+00 0.63988444D-01 0.28753117D+06 0.28753117D+06 0.28753117D+06 0.10859185D+01  1  2 15  4  6  5        1 -.255453883440D-02 0.100000000000D+01
-.226320894087D-04 0.000000000000D+00 0.000000000000D+00 0.641189873296D-05 0.000000000000D+00  6 2 1 25 2 1 21 2 0.33135398D+00 0.63988444D-01 0.28753117D+06 0.28753117D+06 0.28753117D+06 0.10859185D+01  1  2  4  4  6  5        1 -.126000649301D-03 0.100000000000D+01
-.253326165074D-03 0.000000000000D+00 0.000000000000D+00 0.641189873296D-05 0.000000000000D+00  6 2 1 25 2 1 21 2 0.33135398D+00 0.63988444D-01 0.28753117D+06 0.28753117D+06 0.28753117D+06 0.10859185D+01  1  2  5  4  6  5        1 -.141035415281D-02 0.100000000000D+01
0.429724218743D-03 0.000000000000D+00 -.000000000000D+00 0.641189873296D-05 0.000000000000D+00  6 2 1 25 2 1 21 2 0.33135398D+00 0.63988444D-01 0.28753117D+06 0.28753117D+06 0.28753117D+06 0.10859185D+01  1  2  6  4  6  5        1 0.239242297096D-02 0.100000000000D+01
  </mgrwgt>
  </event>
  <event>
  5     66 0.18337608E-05 0.67433600E+02 0.75467711E-02 0.82905136E-01
        2 -1    0    0  501    0 0.00000000E+00 0.00000000E+00 0.15392475E+04 0.15392475E+04 0.32000000E+00 0.0000E+00 0.9000E+01
        1 -1    0    0  502    0 0.00000000E+00 0.00000000E+00 -.16890922E+04 0.16890923E+04 0.32000000E+00 0.0000E+00 0.9000E+01
       25  1    1    2    0    0 0.66709570E+03 0.87839226E+03 0.39312845E+03 0.11776097E+04 0.12500000E+03 0.0000E+00 0.9000E+01
        2  1    1    2  501    0 0.58727793E+02 -.33194005E+02 0.51198900E+03 0.51641421E+03 0.32000000E+00 0.0000E+00 0.9000E+01
        1  1    1    2  502    0 -.72582350E+03 -.84519825E+03 -.10549622E+04 0.15343159E+04 0.32000000E+00 0.0000E+00 0.9000E+01
#aMCatNLO 1  0  0  2  2 0.76000011D+01 0.00000000D+00  -5  6  0 0.00000000D+00 0.00000000D+00 0.00000000D+00 0.00000000D+00 0.00000000D+00
  <mgrwgt>
 0.4478587696D-02    7    2    0
 0.161243017747100D+04 0.000000000000000D+00 0.000000000000000D+00 0.161243017747100D+04
 0.161243017747100D+04 0.000000000000000D+00 0.000000000000000D+00 -.161243017747100D+04
 0.119730824356435D+04 0.667182594443043D+03 0.878465766966511D+03 0.448427599560217D+03
 0.540552818836645D+03 0.587051710078178D+02 -.331812184473897D+02 0.536330177774412D+03
 0.148699929254101D+04 -.725887765450861D+03 -.845284548519121D+03 -.984757777334629D+03
 0.000000000000000D+00 -.000000000000000D+00 -.000000000000000D+00 -.000000000000000D+00
 0.207339697605867D+04 0.000000000000000D+00 0.000000000000000D+00 0.207339697605867D+04
 0.214108893829438D+04 0.000000000000000D+00 0.000000000000000D+00 -.214108893829438D+04
 0.153224339110101D+04 0.823964467355122D+03 0.120504773932885D+04 0.448427599560217D+03
 0.558719855902198D+03 0.121845954496882D+03 0.983431805494610D+02 0.536330177774412D+03
 0.124954306878643D+04 -.568704354350174D+03 -.517866158456327D+03 -.984757777334629D+03
 0.873979598563419D+03 -.377106067501830D+03 -.785524761421981D+03 -.676919622357023D+02
0.338898522137D-02 0.000000000000D+00 0.000000000000D+00 0.818833172674D-06 0.000000000000D+00  6 2 1 25 2 1 21 0 0.23680731D+00 0.25986035D+00 0.13130702D+07 0.13130702D+07 0.13130702D+07 0.10400795D+01  1  2  2  2  6  2        1 0.270933843498D-02 0.100000000000D+01
0.137787103028D-02 0.000000000000D+00 -.130145955904D-04 0.818833172674D-06 0.000000000000D+00  6 2 1 25 2 1 21 2 0.23680731D+00 0.25986035D+00 0.13130702D+07 0.13130702D+07 0.13130702D+07 0.10400795D+01  1  2  3  2  6  2        1 0.119161303985D-02 0.100000000000D+01
-.187520274242D-02 0.000000000000D+00 0.000000000000D+00 0.818833172674D-06 0.000000000000D+00  6 2 1 25 2 1 21 2 0.23680731D+00 0.25986035D+00 0.13130702D+07 0.13130702D+07 0.13130702D+07 0.10400795D+01  1  2 15  2  6  2        1 -.162171639517D-02 0.100000000000D+01
-.186071421835D-03 0.000000000000D+00 0.000000000000D+00 0.818833172674D-06 0.000000000000D+00  6 2 1 25 2 1 21 2 0.23680731D+00 0.25986035D+00 0.13130702D+07 0.13130702D+07 0.13130702D+07 0.10400795D+01  1  2  4  2  6  2        1 -.160918640227D-03 0.100000000000D+01
-.282056738924D-02 0.000000000000D+00 -.198865257953D-02 0.818833172674D-06 0.000000000000D+00  6 2 1 25 2 1 21 2 0.23680731D+00 0.38875644D+00 0.13130702D+07 0.13130702D+07 0.13130702D+07 0.10400795D+01  1  2  5  2  6  2        1 -.649813718077D-03 0.100000000000D+01
0.348605668472D-02 0.000000000000D+00 0.183755027140D-02 0.818833172674D-06 0.000000000000D+00  6 2 1 25 2 1 21 2 0.23680731D+00 0.25986035D+00 0.13130702D+07 0.13130702D+07 0.13130702D+07 0.10400795D+01  1  2  6  2  6  2        1 0.301481815923D-02 0.100000000000D+01
-.664275281446D-04 0.000000000000D+00 -.951471565832D-04 0.818833172674D-06 0.000000000000D+00  6 2 21 25 2 1 -1 2 0.23680731D+00 0.38875644D+00 0.13130702D+07 0.13130702D+07 0.13130702D+07 0.10400795D+01  1  2  5  6  6  2        1 -.473318450555D-05 0.100000000000D+01
  </mgrwgt>
  </event>
  <event>
  5     66 0.18337608E-05 0.16803510E+02 0.75467711E-02 0.94387603E-01
        2 -1    0    0  501    0 0.00000000E+00 0.00000000E+00 0.54355183E+03 0.54355193E+03 0.32000000E+00 0.0000E+00 0.9000E+01
        1 -1    0    0  502    0 0.00000000E+00 0.00000000E+00 -.79302331E+03 0.79302337E+03 0.32000000E+00 0.0000E+00 0.9000E+01
       25  1    1    2    0    0 -.33073924E+03 -.36569257E+03 0.14503708E+03 0.52894258E+03 0.12500000E+03 0.0000E+00 0.9000E+01
        2  1    1    2  501    0 0.33591355E+03 0.34970891E+03 -.78549801E+02 0.49122745E+03 0.32000000E+00 0.0000E+00 0.9000E+01
        1  1    1    2  502    0 -.51743129E+01 0.15983661E+02 -.31595876E+03 0.31640526E+03 0.32000000E+00 0.0000E+00 0.9000E+01
#aMCatNLO 1  0  0  1  2 0.95040017D+01 0.00000000D+00  -5  6  0 0.00000000D+00 0.00000000D+00 0.00000000D+00 0.00000000D+00 0.00000000D+00
  <mgrwgt>
 0.9964029865D-02    6    2    0
 0.656543506975666D+03 0.000000000000000D+00 0.000000000000000D+00 0.656543506975666D+03
 0.656543506975666D+03 0.000000000000000D+00 0.000000000000000D+00 -.656543506975666D+03
 0.565943627929387D+03 -.330697842036252D+03 -.365653398499226D+03 0.248200965816832D+03
 0.485032162931705D+03 0.335872961293052D+03 0.349666651485379D+03 0.133710803395841D+02
 0.262111223090239D+03 -.517511925679935D+01 0.159867470138477D+02 -.261572046156416D+03
 0.000000000000000D+00 0.000000000000000D+00 -.000000000000000D+00 -.000000000000000D+00
 0.660385303668045D+03 0.000000000000000D+00 0.000000000000000D+00 0.660385303668045D+03
 0.662464985324352D+03 0.000000000000000D+00 0.000000000000000D+00 -.662464985324352D+03
 0.566590082411376D+03 -.334176215949112D+03 -.363485706388097D+03 0.248200965816832D+03
 0.484320248958174D+03 0.332895769434567D+03 0.351522011336456D+03 0.133710803395841D+02
 0.262211076671760D+03 -.678548104362330D+01 0.169903103537339D+02 -.261572046156416D+03
 0.972888095108673D+01 0.806592755816769D+01 -.502661530209257D+01 -.207968165630659D+01
0.579485141099D-03 0.000000000000D+00 0.000000000000D+00 0.505382224847D-06 0.000000000000D+00  6 2 1 25 2 1 21 0 0.83623371D-01 0.12200360D+00 0.25515915D+06 0.25515915D+06 0.25515915D+06 0.10897924D+01  1  2  2  1  6  1        2 0.102543833546D-01 0.100000000000D+01
0.376796879762D-03 0.000000000000D+00 -.222537552376D-05 0.505382224847D-06 0.000000000000D+00  6 2 1 25 2 1 21 2 0.83623371D-01 0.12200360D+00 0.25515915D+06 0.25515915D+06 0.25515915D+06 0.10897924D+01  1  2  3  1  6  1        2 0.791884901860D-02 0.100000000000D+01
-.368639044229D-03 0.000000000000D+00 0.000000000000D+00 0.505382224847D-06 0.000000000000D+00  6 2 1 25 2 1 21 2 0.83623371D-01 0.12200360D+00 0.25515915D+06 0.25515915D+06 0.25515915D+06 0.10897924D+01  1  2 15  1  6  1        2 -.774740208958D-02 0.100000000000D+01
-.219803107491D-04 0.000000000000D+00 0.000000000000D+00 0.505382224847D-06 0.000000000000D+00  6 2 1 25 2 1 21 2 0.83623371D-01 0.12200360D+00 0.25515915D+06 0.25515915D+06 0.25515915D+06 0.10897924D+01  1  2  4  1  6  1        2 -.461943215438D-03 0.100000000000D+01
0.658723780526D-08 0.000000000000D+00 0.000000000000D+00 0.505382224847D-06 0.159065622496D-07  6 2 1 25 2 1 21 2 0.84112697D-01 0.12310397D+00 0.26074724D+06 0.26074724D+06 0.26074724D+06 0.10890866D+01  1  2 11  1  6  1        2 0.135291755862D-06 0.100000000000D+01
0.217294102354D-09 0.000000000000D+00 0.000000000000D+00 0.505382224847D-06 0.414715286483D-10  6 21 1 25 2 1 -2 2 0.84112697D-01 0.12310397D+00 0.26074724D+06 0.26074724D+06 0.26074724D+06 0.10890866D+01  1  2 11  5  6  1        2 0.750461861853D-08 0.100000000000D+01
  </mgrwgt>
  </event>
  <event>
  5     66 -.18337608E-05 0.20744617E+02 0.75467711E-02 0.94139808E-01
        2 -1    0    0  501    0 0.00000000E+00 0.00000000E+00 0.11569541E+04 0.11569541E+04 0.32000000E+00 0.0000E+00 0.9000E+01
        1 -1    0    0  502    0 0.00000000E+00 0.00000000E+00 -.42476921E+03 0.42476933E+03 0.32000000E+00 0.0000E+00 0.9000E+01
       25  1    1    2    0    0 0.19432188E+03 -.46210509E+03 -.65204798E+02 0.52074828E+03 0.12500000E+03 0.0000E+00 0.9000E+01
        2  1    1    2  501    0 -.21481125E+03 0.45878378E+03 0.85828745E+03 0.99663628E+03 0.32000000E+00 0.0000E+00 0.9000E+01
        1  1    1    2  502    0 0.20489373E+02 0.33213103E+01 -.60897801E+02 0.64338870E+02 0.32000000E+00 0.0000E+00 0.9000E+01
#aMCatNLO 1  0  0  4  2 0.14904740D+03 0.00000000D+00  -5  6  0 0.00000000D+00 0.00000000D+00 0.00000000D+00 0.00000000D+00 0.00000000D+00
  <mgrwgt>
 -.1874584590D-02    1    2    0
 0.701026809975697D+03 0.000000000000000D+00 0.000000000000000D+00 0.701026809975697D+03
 0.701026809975697D+03 -.000000000000000D+00 -.000000000000000D+00 -.701026809975697D+03
 0.621600120500707D+03 0.194339845223813D+03 -.462115422940716D+03 -.345605367789912D+03
 0.676154117070064D+03 -.214817264875363D+03 0.458796625492013D+03 0.447820934279995D+03
 0.104299382380624D+03 0.204774196515497D+02 0.331879744870321D+01 -.102215566490082D+03
 0.000000000000000D+00 0.000000000000000D+00 0.000000000000000D+00 0.000000000000000D+00
 0.701026809975697D+03 0.000000000000000D+00 0.000000000000000D+00 0.701026809975697D+03
 0.701026809975697D+03 -.000000000000000D+00 -.000000000000000D+00 -.701026809975697D+03
 0.604261011670555D+03 0.188667750883476D+03 -.450001230236844D+03 -.333780980265531D+03
 0.164946655071982D+03 -.781917267784133D+02 0.198349039484174D+02 0.143875048108428D+03
 0.102247389547025D+03 0.195217218605686D+02 0.535993190661881D+01 -.100223261644870D+03
 0.530598563661833D+03 -.129997745965632D+03 0.424806394381808D+03 0.290129193801973D+03
-.968307538138D-04 0.000000000000D+00 0.000000000000D+00 0.126936290717D-05 0.000000000000D+00  6 2 1 25 2 1 21 2 0.17799294D+00 0.65349122D-01 0.27248806D+06 0.27248806D+06 0.27248806D+06 0.10876561D+01  1  2 14  3  6  4        2 -.187458459034D-02 0.100000000000D+01
  </mgrwgt>
  </event>
  <event>
  5     66 0.18337608E-05 0.58043216E+02 0.75467711E-02 0.87074017E-01
        2 -1    0    0  501    0 0.00000000E+00 0.00000000E+00 0.12327695E+04 0.12327695E+04 0.32000000E+00 0.0000E+00 0.9000E+01
        1 -1    0    0  502    0 0.00000000E+00 0.00000000E+00 -.18865196E+04 0.18865196E+04 0.32000000E+00 0.0000E+00 0.9000E+01
       25  1    1    2    0    0 -.12934464E+03 -.91196905E+03 -.14881395E+03 0.94137569E+03 0.12500000E+03 0.0000E+00 0.9000E+01
        2  1    1    2  501    0 -.15572883E+02 -.55925596E+02 0.65652897E+03 0.65909073E+03 0.32000000E+00 0.0000E+00 0.9000E+01
        1  1    1    2  502    0 0.14491752E+03 0.96789465E+03 -.11614652E+04 0.15188228E+04 0.32000000E+00 0.0000E+00 0.9000E+01
#aMCatNLO 1  0  0  1  4 0.11151758D+03 0.00000000D+00  -5  6  0 0.00000000D+00 0.00000000D+00 0.00000000D+00 0.00000000D+00 0.00000000D+00
  <mgrwgt>
 0.5294654139D-02    7    2    0
 0.152500620291682D+04 0.000000000000000D+00 0.000000000000000D+00 0.152500620291682D+04
 0.152500620291682D+04 0.000000000000000D+00 0.000000000000000D+00 -.152500620291682D+04
 0.930967507783765D+03 -.129360590964576D+03 -.912071319601488D+03 0.496713802386476D+02
 0.814641970216304D+03 -.155701746191501D+02 -.559158702092211D+02 0.812571550547382D+03
 0.130440292783357D+04 0.144930765583726D+03 0.967987189810709D+03 -.862242930786030D+03
 0.000000000000000D+00 -.000000000000000D+00 -.000000000000000D+00 0.000000000000000D+00
 0.169853491032835D+04 0.000000000000000D+00 0.000000000000000D+00 0.169853491032835D+04
 0.154404763954438D+04 0.000000000000000D+00 0.000000000000000D+00 -.154404763954438D+04
 0.897919045469604D+03 -.125524505269625D+03 -.878868570822195D+03 0.496713802386476D+02
 0.813090036171240D+03 -.121560101627438D+02 -.263650067114502D+02 0.812571550547382D+03
 0.134104135149630D+04 0.150479579389960D+03 0.101601423755730D+04 -.862242930786030D+03
 0.190532116735592D+03 -.127990639575908D+02 -.110780660023659D+03 0.154487270783963D+03
0.156943189409D-02 0.000000000000D+00 0.000000000000D+00 0.319329913933D-05 0.000000000000D+00  6 2 1 25 2 1 21 0 0.18965685D+00 0.29023379D+00 0.96674274D+06 0.96674274D+06 0.96674274D+06 0.10488432D+01  1  2  2  1  6  1        2 0.141396846385D-02 0.100000000000D+01
0.837084509389D-03 0.000000000000D+00 -.602703171420D-05 0.319329913933D-05 0.000000000000D+00  6 2 1 25 2 1 21 2 0.18965685D+00 0.29023379D+00 0.96674274D+06 0.96674274D+06 0.96674274D+06 0.10488432D+01  1  2  3  1  6  1        2 0.829636128854D-03 0.100000000000D+01
-.991532507550D-03 0.000000000000D+00 0.000000000000D+00 0.319329913933D-05 0.000000000000D+00  6 2 1 25 2 1 21 2 0.18965685D+00 0.29023379D+00 0.96674274D+06 0.96674274D+06 0.96674274D+06 0.10488432D+01  1  2 15  1  6  1        2 -.982709848253D-03 0.100000000000D+01
-.109281348274D-03 0.000000000000D+00 0.000000000000D+00 0.319329913933D-05 0.000000000000D+00  6 2 1 25 2 1 21 2 0.18965685D+00 0.29023379D+00 0.96674274D+06 0.96674274D+06 0.96674274D+06 0.10488432D+01  1  2  4  1  6  1        2 -.108308962501D-03 0.100000000000D+01
-.229578969362D-01 0.000000000000D+00 -.300865104703D-02 0.319329913933D-05 0.000000000000D+00  6 2 1 25 2 1 21 2 0.21237446D+00 0.29023379D+00 0.96674274D+06 0.96674274D+06 0.96674274D+06 0.10488432D+01  1  2  5  1  6  1        2 -.186946238080D-01 0.100000000000D+01
0.231689985711D-01 0.000000000000D+00 0.298949866500D-02 0.319329913933D-05 0.000000000000D+00  6 2 1 25 2 1 21 2 0.18965685D+00 0.29023379D+00 0.96674274D+06 0.96674274D+06 0.96674274D+06 0.10488432D+01  1  2  6  1  6  1        2 0.229628407507D-01 0.100000000000D+01
-.401969238889D-03 0.000000000000D+00 -.543141707011D-04 0.319329913933D-05 0.000000000000D+00  6 21 1 25 2 1 -2 2 0.21237446D+00 0.29023379D+00 0.96674274D+06 0.96674274D+06 0.96674274D+06 0.10488432D+01  1  2  5  5  6  1        2 -.126148585811D-03 0.100000000000D+01
  </mgrwgt>
  </event>
  <event>
  5     66 0.18337608E-05 0.99810440E+02 0.75467711E-02 0.94604081E-01
        2 -1    0    0  501    0 0.00000000E+00 0.00000000E+00 0.24799945E+04 0.24799946E+04 0.32000000E+00 0.0000E+00 0.9000E+01
        1 -1    0    0  502    0 0.00000000E+00 0.00000000E+00 -.26571154E+03 0.26571173E+03 0.32000000E+00 0.0000E+00 0.9000E+01
       25  1    1    2    0    0 -.45153570E+03 -.19139865E+03 0.54334300E+03 0.74253926E+03 0.12500000E+03 0.0000E+00 0.9000E+01
        2  1    1    2  501    0 0.37496848E+03 0.12739422E+03 0.17982866E+04 0.18413759E+04 0.32000000E+00 0.0000E+00 0.9000E+01
        1  1    1    2  502    0 0.76567224E+02 0.64004432E+02 -.12734658E+03 0.16179110E+03 0.32000000E+00 0.0000E+00 0.9000E+01
#aMCatNLO 1  0  0  5  2 0.13580630D+02 0.00000000D+00  -5  6  0 0.00000000D+00 0.00000000D+00 0.00000000D+00 0.00000000D+00 0.00000000D+00
  <mgrwgt>
 0.6212301134D-03    1    2    0
 0.811765645013333D+03 0.000000000000000D+00 0.000000000000000D+00 0.811765645013333D+03
 0.811765645013333D+03 -.000000000000000D+00 -.000000000000000D+00 -.811765645013333D+03
 0.514705969800792D+03 -.451526536043679D+03 -.191400595303181D+03 -.937381177246392D+02
 0.661460137702433D+03 0.374947263458183D+03 0.127387011396480D+03 0.529826964887608D+03
 0.447365182523440D+03 0.765792725854956D+02 0.640135839067012D+02 -.436088847162969D+03
 0.000000000000000D+00 0.000000000000000D+00 0.000000000000000D+00 0.000000000000000D+00
 0.811765645013333D+03 0.000000000000000D+00 0.000000000000000D+00 0.811765645013333D+03
 0.811765645013333D+03 -.000000000000000D+00 -.000000000000000D+00 -.811765645013333D+03
 0.514565569114357D+03 -.450224792894277D+03 -.190312451716727D+03 -.101151033127969D+03
 0.655118029133009D+03 0.376612369841224D+03 0.128778894912288D+03 0.520344838739527D+03
 0.437578189456979D+03 0.759376087148072D+02 0.482080260639990D+02 -.428233741891199D+03
 0.162695023223208D+02 -.232518566175401D+01 0.133255307404399D+02 0.903993627964092D+01
0.921193457694D-04 0.000000000000D+00 0.000000000000D+00 0.279428469651D-05 0.000000000000D+00  6 2 1 25 2 1 21 2 0.38153764D+00 0.40878715D-01 0.25095328D+06 0.25095328D+06 0.25095328D+06 0.10903348D+01  1  2 14  4  6  5        1 0.621230113447D-03 0.100000000000D+01
  </mgrwgt>
  </event>
  <event>
  5     66 0.18337608E-05 0.58453410E+02 0.75467711E-02 0.94481549E-01
        2 -1    0    0  501    0 0.00000000E+00 0.00000000E+00 0.12018896E+04 0.12018896E+04 0.32000000E+00 0.0000E+00 0.9000E+01
        1 -1    0    0  502    0 -.00000000E+00 -.00000000E+00 -.14357518E+04 0.14357519E+04 0.32000000E+00 0.0000E+00 0.9000E+01
       25  1    1    2    0    0 0.42114195E+03 0.20786778E+03 0.41339128E+03 0.63803362E+03 0.12500000E+03 0.0000E+00 0.9000E+01
        2  1    1    2  501    0 -.39105521E+03 -.25797582E+03 0.59426127E+03 0.75671809E+03 0.32000000E+00 0.0000E+00 0.9000E+01
        1  1    1    2  502    0 -.30086737E+02 0.50108044E+02 -.12415148E+04 0.12428898E+04 0.32000000E+00 0.0000E+00 0.9000E+01
#aMCatNLO 1  0  0  4  1 0.14232920D+01 0.00000000D+00  -5  6  0 0.00000000D+00 0.00000000D+00 0.00000000D+00 0.00000000D+00 0.00000000D+00
  <mgrwgt>
 0.6639497930D-02    3    2    0
 0.131362677371394D+04 0.000000000000000D+00 0.000000000000000D+00 0.131362677371394D+04
 0.131362677371394D+04 -.000000000000000D+00 -.000000000000000D+00 -.131362677371394D+04
 0.677411622842628D+03 0.421091539540889D+03 0.207826596850144D+03 0.471965600156467D+03
 0.812495449402235D+03 -.391001250638203D+03 -.257940224241527D+03 0.663877788464813D+03
 0.113734647518302D+04 -.300902889026858D+02 0.501136273913833D+02 -.113584338862128D+04
 0.000000000000000D+00 0.000000000000000D+00 0.000000000000000D+00 -.000000000000000D+00
 0.131362677371394D+04 0.000000000000000D+00 0.000000000000000D+00 0.131362677371394D+04
 0.131362677371394D+04 -.000000000000000D+00 -.000000000000000D+00 -.131362677371394D+04
 0.688167711071517D+03 0.396331353880189D+03 0.191492511393491D+03 0.514005714533527D+03
 0.197259936882340D+03 0.148106449183759D+03 0.132303241066284D+00 0.130291768369516D+03
 0.107043779156246D+04 -.701210267630077D+02 0.237056875615449D+02 -.106787553000715D+04
 0.671388107911565D+03 -.474316776300941D+03 -.215330502196102D+03 0.423578047104107D+03
0.432416202675D-02 0.000000000000D+00 0.000000000000D+00 0.362301326738D-04 0.000000000000D+00  6 2 1 25 2 1 21 0 0.18490610D+00 0.22088490D+00 0.25644517D+06 0.25644517D+06 0.25644517D+06 0.10896285D+01  1  2  2  3  6  4        2 0.896144055661D-02 0.100000000000D+01
0.185220293473D-02 0.000000000000D+00 -.166059207607D-04 0.362301326738D-04 0.000000000000D+00  6 2 1 25 2 1 21 2 0.18490610D+00 0.22088490D+00 0.25644517D+06 0.25644517D+06 0.25644517D+06 0.10896285D+01  1  2  3  3  6  4        2 0.455744366047D-02 0.100000000000D+01
-.279586988222D-02 0.000000000000D+00 0.000000000000D+00 0.362301326738D-04 0.000000000000D+00  6 2 1 25 2 1 21 2 0.18490610D+00 0.22088490D+00 0.25644517D+06 0.25644517D+06 0.25644517D+06 0.10896285D+01  1  2 15  3  6  4        2 -.687938628715D-02 0.100000000000D+01
  </mgrwgt>
  </event>
  <event>
  5     66 0.18337608E-05 0.14483062E+03 0.75467711E-02 0.94530231E-01
        2 -1    0    0  501    0 0.00000000E+00 0.00000000E+00 0.30846052E+04 0.30846052E+04 0.32000000E+00 0.0000E+00 0.9000E+01
        1 -1    0    0  502    0 0.00000000E+00 0.00000000E+00 -.21393260E+04 0.21393260E+04 0.32000000E+00 0.0000E+00 0.9000E+01
       25  1    1    2    0    0 -.18979970E+03 -.43925572E+03 0.74731671E+02 0.50017931E+03 0.12500000E+03 0.0000E+00 0.9000E+01
        2  1    1    2  501    0 -.99742654E+01 0.14448826E+03 0.27787942E+04 0.27825660E+04 0.32000000E+00 0.0000E+00 0.9000E+01
        1  1    1    2  502    0 0.19977397E+03 0.29476747E+03 -.19082466E+04 0.19411859E+04 0.32000000E+00 0.0000E+00 0.9000E+01
#aMCatNLO 1  0  0  2  4 0.10288039D+02 0.00000000D+00  -5  6  0 0.00000000D+00 0.00000000D+00 0.00000000D+00 0.00000000D+00 0.00000000D+00
  <mgrwgt>
 0.1442124204D+00    7    2    0
 0.256884724503825D+04 0.000000000000000D+00 0.000000000000000D+00 0.256884724503825D+04
 0.256884724503825D+04 0.000000000000000D+00 0.000000000000000D+00 -.256884724503825D+04
 0.494839593451095D+03 -.189809473730146D+03 -.439268994751543D+03 -.160105333795935D+02
 0.231798007294284D+04 -.997416204476777D+01 0.144486758973472D+03 0.231345103927724D+04
 0.232487482368256D+04 0.199783635774914D+03 0.294782235778070D+03 -.229744050589765D+04
 0.000000000000000D+00 -.000000000000000D+00 -.000000000000000D+00 -.000000000000000D+00
 0.257323471767487D+04 0.000000000000000D+00 0.000000000000000D+00 0.257323471767487D+04
 0.257489050391678D+04 0.000000000000000D+00 0.000000000000000D+00 -.257489050391678D+04
 0.494385918095380D+03 -.188822735430873D+03 -.439183416599848D+03 -.160105333795935D+02
 0.231798982133018D+04 -.534984838164207D+01 0.144887817913253D+03 0.231345103927724D+04
 0.232532905134558D+04 0.204422147630260D+03 0.295184526103162D+03 -.229744050589765D+04
 0.104204308205010D+02 -.102495638177450D+02 -.888927416566594D+00 -.165578624190930D+01
0.399383870781D+00 0.000000000000D+00 0.000000000000D+00 0.947996843494D-03 0.000000000000D+00  6 2 1 25 2 1 21 0 0.47455465D+00 0.32912708D+00 0.24776260D+06 0.24776260D+06 0.24776260D+06 0.10907529D+01  1  2  2  2  6  2        1 0.237787007533D-01 0.100000000000D+01
0.856794780462D-01 0.000000000000D+00 -.153373922399D-02 0.947996843494D-03 0.000000000000D+00  6 2 1 25 2 1 21 2 0.47455465D+00 0.32912708D+00 0.24776260D+06 0.24776260D+06 0.24776260D+06 0.10907529D+01  1  2  3  2  6  2        1 0.606914062183D-02 0.100000000000D+01
-.250492021876D+00 0.000000000000D+00 0.000000000000D+00 0.947996843494D-03 0.000000000000D+00  6 2 1 25 2 1 21 2 0.47455465D+00 0.32912708D+00 0.24776260D+06 0.24776260D+06 0.24776260D+06 0.10907529D+01  1  2 15  2  6  2        1 -.177437040944D-01 0.100000000000D+01
-.169455248619D+03 0.000000000000D+00 -.196379108654D+02 0.947996843494D-03 0.000000000000D+00  6 2 1 25 2 1 21 2 0.47455465D+00 0.33022144D+00 0.24776260D+06 0.24776260D+06 0.24776260D+06 0.10907529D+01  1  2  5  2  6  2        1 -.118725536780D+02 0.100000000000D+01
0.169519611451D+03 0.000000000000D+00 0.196378026681D+02 0.947996843494D-03 0.000000000000D+00  6 2 1 25 2 1 21 2 0.47455465D+00 0.32912708D+00 0.24776260D+06 0.24776260D+06 0.24776260D+06 0.10907529D+01  1  2  6  2  6  2        1 0.120079905190D+02 0.100000000000D+01
0.411249781997D-11 0.000000000000D+00 0.000000000000D+00 0.947996843494D-03 0.000000000000D+00  6 2 21 25 2 1 -1 2 0.47455465D+00 0.33021256D+00 0.25424726D+06 0.25424726D+06 0.25424726D+06 0.10899091D+01  1  2 12  6  6  2        1 0.129770692750D-12 0.100000000000D+01
-.104866899710D+00 0.000000000000D+00 -.121622305920D-01 0.947996843494D-03 0.000000000000D+00  6 2 21 25 2 1 -1 2 0.47455465D+00 0.33022144D+00 0.24776260D+06 0.24776260D+06 0.24776260D+06 0.10907529D+01  1  2  5  6  6  2        1 -.332855793922D-02 0.100000000000D+01
  </mgrwgt>
  </event>
  <event>
  5     66 0.18337608E-05 0.11357662E+03 0.75467711E-02 0.94667343E-01
        2 -1    0    0  501    0 0.00000000E+00 0.00000000E+00 0.16441100E+04 0.16441100E+04 0.32000000E+00 0.0000E+00 0.9000E+01
        1 -1    0    0  502    0 0.00000000E+00 0.00000000E+00 -.16895806E+04 0.16895807E+04 0.32000000E+00 0.0000E+00 0.9000E+01
       25  1    1    2    0    0 0.38534634E+03 -.26144961E+03 -.11133028E+03 0.49484051E+03 0.12500000E+03 0.0000E+00 0.9000E+01
        2  1    1    2  501    0 -.31587171E+02 0.10909838E+03 0.14232985E+04 0.14278232E+04 0.32000000E+00 0.0000E+00 0.9000E+01
        1  1    1    2  502    0 -.35375917E+03 0.15235123E+03 -.13574389E+04 0.14110269E+04 0.32000000E+00 0.0000E+00 0.9000E+01
#aMCatNLO 1  0  0  2  5 0.94282822D+01 0.00000000D+00  -5  6  0 0.00000000D+00 0.00000000D+00 0.00000000D+00 0.00000000D+00 0.00000000D+00
  <mgrwgt>
 0.2463888306D-01   13    2    0
 0.166669025959640D+04 0.000000000000000D+00 0.000000000000000D+00 0.166669025959640D+04
 0.166669025959640D+04 0.000000000000000D+00 0.000000000000000D+00 -.166669025959640D+04
 0.493385139983459D+03 0.385371806787900D+03 -.261459615753213D+03 -.104553030657695D+03
 0.144733996511902D+04 -.315864885527337D+02 0.109096024664804D+03 0.144287675349421D+04
 0.139265541409033D+04 -.353785318235166D+03 0.152363591088408D+03 -.133832372283651D+04
 0.000000000000000D+00 0.000000000000000D+00 -.000000000000000D+00 -.000000000000000D+00
 0.166700114864931D+04 0.000000000000000D+00 0.000000000000000D+00 0.166700114864931D+04
 0.173974591748047D+04 0.000000000000000D+00 0.000000000000000D+00 -.173974591748047D+04
 0.492094590416282D+03 0.384390843315939D+03 -.260469632149548D+03 -.104553030657695D+03
 0.144762782780909D+04 -.344681892815913D+02 0.112004223138835D+03 0.144287675349421D+04
 0.139367143462787D+04 -.356558875899746D+03 0.155162652103660D+03 -.133832372283651D+04
 0.733532132765293D+02 0.663622186539846D+01 -.669724309294675D+01 -.727447688311619D+02
0.350226916240D-03 0.000000000000D+00 0.000000000000D+00 0.168959440772D-03 0.000000000000D+00  6 2 1 25 2 1 21 0 0.25294000D+00 0.25993548D+00 0.24056877D+06 0.24056877D+06 0.24056877D+06 0.10917177D+01  1  2  2  2  6  2        1 0.280117523431D-03 0.100000000000D+01
0.856927772837D-04 0.000000000000D+00 -.134496357523D-05 0.168959440772D-03 0.000000000000D+00  6 2 1 25 2 1 21 2 0.25294000D+00 0.25993548D+00 0.24056877D+06 0.24056877D+06 0.24056877D+06 0.10917177D+01  1  2  3  2  6  2        1 0.816875181707D-04 0.100000000000D+01
-.225432495711D-03 0.000000000000D+00 0.000000000000D+00 0.168959440772D-03 0.000000000000D+00  6 2 1 25 2 1 21 2 0.25294000D+00 0.25993548D+00 0.24056877D+06 0.24056877D+06 0.24056877D+06 0.10917177D+01  1  2 15  2  6  2        1 -.214895836888D-03 0.100000000000D+01
0.530118915286D-01 0.000000000000D+00 0.000000000000D+00 0.168959440772D-03 0.000000000000D+00  6 2 1 25 2 1 21 2 0.25294000D+00 0.27283895D+00 0.24816959D+06 0.24816959D+06 0.24816959D+06 0.10906993D+01  1  2 12  2  6  2        1 0.442653366650D-01 0.100000000000D+01
0.505357045350D-09 0.000000000000D+00 0.000000000000D+00 0.168959440772D-03 0.000000000000D+00  6 2 1 25 2 1 21 2 0.25294000D+00 0.27135665D+00 0.24816959D+06 0.24816959D+06 0.24816959D+06 0.10906993D+01  1  2 12  2  6  2        1 0.428222162575D-09 0.100000000000D+01
-.276370256368D-01 0.000000000000D+00 0.000000000000D+00 0.168959440772D-03 0.000000000000D+00  6 2 1 25 2 1 21 2 0.25294000D+00 0.25993548D+00 0.24056877D+06 0.24056877D+06 0.24056877D+06 0.10917177D+01  1  2  4  2  6  2        1 -.263452779272D-01 0.100000000000D+01
-.648270481508D-01 0.000000000000D+00 -.149833474371D-02 0.168959440772D-03 0.000000000000D+00  6 2 1 25 2 1 21 2 0.25294000D+00 0.27134729D+00 0.24056877D+06 0.24056877D+06 0.24056877D+06 0.10917177D+01  1  2  5  2  6  2        1 -.551849876023D-01 0.100000000000D+01
0.648329549538D-01 0.000000000000D+00 0.149695278176D-02 0.168959440772D-03 0.000000000000D+00  6 2 1 25 2 1 21 2 0.25294000D+00 0.25993548D+00 0.24056877D+06 0.24056877D+06 0.24056877D+06 0.10917177D+01  1  2  6  2  6  2        1 0.618026787522D-01 0.100000000000D+01
0.124550236993D-05 0.000000000000D+00 0.000000000000D+00 0.168959440772D-03 0.538124104093D-05  6 2 1 25 2 1 21 2 0.25298718D+00 0.27132918D+00 0.24816959D+06 0.24816959D+06 0.24816959D+06 0.10906993D+01  1  2 11  2  6  2        1 0.105527808391D-05 0.100000000000D+01
0.129169226512D-02 0.000000000000D+00 0.000000000000D+00 0.168959440772D-03 0.000000000000D+00  6 2 21 25 2 1 -1 2 0.25294000D+00 0.27283895D+00 0.24816959D+06 0.24816959D+06 0.24816959D+06 0.10906993D+01  1  2 12  6  6  2        1 0.661417114347D-03 0.100000000000D+01
0.110153137737D-10 0.000000000000D+00 0.000000000000D+00 0.168959440772D-03 0.000000000000D+00  6 2 21 25 2 1 -1 2 0.25294000D+00 0.27135665D+00 0.24816959D+06 0.24816959D+06 0.24816959D+06 0.10906993D+01  1  2 12  6  6  2        1 0.577081550745D-11 0.100000000000D+01
-.134375750678D-02 0.000000000000D+00 -.113296042807D-04 0.168959440772D-03 0.000000000000D+00  6 2 21 25 2 1 -1 2 0.25294000D+00 0.27134729D+00 0.24056877D+06 0.24056877D+06 0.24056877D+06 0.10917177D+01  1  2  5  6  6  2        1 -.708259449743D-03 0.100000000000D+01
0.202082504242D-07 0.000000000000D+00 0.000000000000D+00 0.168959440772D-03 0.835391561633D-07  6 2 21 25 2 1 -1 2 0.25298718D+00 0.27132918D+00 0.24816959D+06 0.24816959D+06 0.24816959D+06 0.10906993D+01  1  2 11  6  6  2        1 0.105873278049D-07 0.100000000000D+01
  </mgrwgt>
  </event>
  <event>
  5     66 0.18337608E-05 0.65021188E+02 0.75467711E-02 0.94396757E-01
        2 -1    0    0  501    0 0.00000000E+00 0.00000000E+00 0.18731618E+04 0.18731618E+04 0.32000000E+00 0.0000E+00 0.9000E+01
        1 -1    0    0  502    0 0.00000000E+00 0.00000000E+00 -.17137103E+04 0.17137103E+04 0.32000000E+00 0.0000E+00 0.9000E+01
       25  1    1    2    0    0 0.31642950E+03 0.37234572E+03 -.13223841E+02 0.50454815E+03 0.12500000E+03 0.0000E+00 0.9000E+01
        2  1    1    2  501    0 -.65013960E+02 -.10723840E+01 0.15922709E+04 0.15935980E+04 0.32000000E+00 0.0000E+00 0.9000E+01
        1  1    1    2  502    0 -.25141554E+03 -.37127334E+03 -.14195955E+04 0.14887260E+04 0.32000000E+00 0.0000E+00 0.9000E+01
#aMCatNLO 1  0  0  4  1 0.81780857D+01 0.00000000D+00  -5  6  0 0.00000000D+00 0.00000000D+00 0.00000000D+00 0.00000000D+00 0.00000000D+00
  <mgrwgt>
 0.1066715882D+00    9    2    0
 0.179166314688622D+04 0.000000000000000D+00 0.000000000000000D+00 0.179166314688622D+04
 0.179166314688622D+04 -.000000000000000D+00 -.000000000000000D+00 -.179166314688622D+04
 0.505663659632598D+03 0.316446778772245D+03 0.372372477688119D+03 -.356498350362620D+02
 0.152428388187558D+04 -.650123446131397D+02 -.107235734271871D+01 0.152289645007247D+04
 0.155337875226426D+04 -.251434434159107D+03 -.371300120345400D+03 -.148724661503621D+04
 0.000000000000000D+00 -.000000000000000D+00 0.000000000000000D+00 0.000000000000000D+00
 0.179166314688622D+04 0.000000000000000D+00 0.000000000000000D+00 0.179166314688622D+04
 0.179166314688622D+04 -.000000000000000D+00 -.000000000000000D+00 -.179166314688622D+04
 0.505660601403128D+03 0.316445442542782D+03 0.372372455647451D+03 -.356185342253528D+02
 0.135480798435098D+04 -.537618736266565D+02 -.807239160682541D+01 0.135371679900158D+04
 0.155328737433240D+04 -.251438538894818D+03 -.371300188051672D+03 -.148715046272114D+04
 0.169570333685924D+03 -.112450300213093D+02 0.700012401104615D+01 0.169052197944912D+03
0.226491379504D-03 0.000000000000D+00 0.000000000000D+00 0.417575657280D-03 0.000000000000D+00  6 2 1 25 2 1 21 0 0.28817875D+00 0.26364775D+00 0.25900438D+06 0.25900438D+06 0.25900438D+06 0.10893049D+01  1  2  2  3  6  4        2 0.130292558991D-03 0.100000000000D+01
0.941230039458D-04 0.000000000000D+00 -.869786533846D-06 0.417575657280D-03 0.000000000000D+00  6 2 1 25 2 1 21 2 0.28817875D+00 0.26364775D+00 0.25900438D+06 0.25900438D+06 0.25900438D+06 0.10893049D+01  1  2  3  3  6  4        2 0.642484495615D-04 0.100000000000D+01
-.152194286278D-03 0.000000000000D+00 0.000000000000D+00 0.417575657280D-03 0.000000000000D+00  6 2 1 25 2 1 21 2 0.28817875D+00 0.26364775D+00 0.25900438D+06 0.25900438D+06 0.25900438D+06 0.10893049D+01  1  2 15  3  6  4        2 -.103887960600D-03 0.100000000000D+01
0.202785157287D+00 0.000000000000D+00 0.000000000000D+00 0.417575657280D-03 0.000000000000D+00  6 2 1 25 2 1 21 2 0.28817875D+00 0.26364775D+00 0.26032453D+06 0.26032453D+06 0.26032453D+06 0.10891394D+01  1  2 12  3  6  4        2 0.138316806646D+00 0.100000000000D+01
0.956755329730D-09 0.000000000000D+00 0.000000000000D+00 0.417575657280D-03 0.000000000000D+00  6 2 1 25 2 1 21 2 0.28817875D+00 0.26364775D+00 0.26032453D+06 0.26032453D+06 0.26032453D+06 0.10891394D+01  1  2 12  3  6  4        2 0.652588896149D-09 0.100000000000D+01
-.915840133973D-01 0.000000000000D+00 0.000000000000D+00 0.417575657280D-03 0.000000000000D+00  6 2 1 25 2 1 21 2 0.28817875D+00 0.26364775D+00 0.25900438D+06 0.25900438D+06 0.25900438D+06 0.10893049D+01  1  2  4  3  6  4        2 -.625153322644D-01 0.100000000000D+01
-.381666157671D+00 0.000000000000D+00 0.000000000000D+00 0.417575657280D-03 0.000000000000D+00  6 2 1 25 2 1 21 2 0.28817875D+00 0.26364775D+00 0.25900438D+06 0.25900438D+06 0.25900438D+06 0.10893049D+01  1  2  5  3  6  4        2 -.260525672285D+00 0.100000000000D+01
0.426470307512D+00 0.000000000000D+00 -.000000000000D+00 0.417575657280D-03 0.000000000000D+00  6 2 1 25 2 1 21 2 0.28817875D+00 0.26364775D+00 0.25900438D+06 0.25900438D+06 0.25900438D+06 0.10893049D+01  1  2  6  3  6  4        2 0.291109026412D+00 0.100000000000D+01
0.287509463089D-03 0.000000000000D+00 0.000000000000D+00 0.417575657280D-03 0.910302797227D-05  6 2 1 25 2 1 21 2 0.28817875D+00 0.26364775D+00 0.26032453D+06 0.26032453D+06 0.26032453D+06 0.10891394D+01  1  2 11  3  6  4        2 0.196106023473D-03 0.100000000000D+01
  </mgrwgt>
  </event>
  <event>
  5     66 0.18337608E-05 0.81392618E+02 0.75467711E-02 0.87530566E-01
        2 -1    0    0  501    0 0.00000000E+00 0.00000000E+00 0.17410176E+04 0.17410177E+04 0.32000000E+00 0.0000E+00 0.9000E+01
        1 -1    0    0  502    0 0.00000000E+00 0.00000000E+00 -.24260710E+04 0.24260710E+04 0.32000000E+00 0.0000E+00 0.9000E+01
       25  1    1    2    0    0 -.13452797E+03 -.53768369E+03 0.12272114E+04 0.13523588E+04 0.12500000E+03 0.0000E+00 0.9000E+01
        2  1    1    2  501    0 0.12778438E+03 0.45657731E+03 0.32574513E+03 0.57524054E+03 0.32000000E+00 0.0000E+00 0.9000E+01
        1  1    1    2  502    0 0.67435894E+01 0.81106373E+02 -.22380099E+04 0.22394893E+04 0.32000000E+00 0.0000E+00 0.9000E+01
#aMCatNLO 1  0  0  1  1 0.21029053D+03 0.00000000D+00  -5  6  0 0.00000000D+00 0.00000000D+00 0.00000000D+00 0.00000000D+00 0.00000000D+00
  <mgrwgt>
 0.3653516324D-02    7    2    0
 0.205519646499075D+04 0.000000000000000D+00 0.000000000000000D+00 0.205519646499075D+04
 0.205519646499075D+04 0.000000000000000D+00 0.000000000000000D+00 -.205519646499075D+04
 0.157569077878994D+04 -.134484905414157D+03 -.537534197561206D+03 0.146974393246974D+04
 0.637247217731946D+03 0.127740765240598D+03 0.456421468539033D+03 0.425964501407718D+03
 0.189745493345962D+04 0.674414017355970D+01 0.811127290221737D+02 -.189570843387746D+04
 0.000000000000000D+00 0.000000000000000D+00 0.000000000000000D+00 0.000000000000000D+00
 0.368399195832973D+04 0.000000000000000D+00 0.000000000000000D+00 0.368399195832973D+04
 0.212925911158509D+04 0.000000000000000D+00 0.000000000000000D+00 -.212925911158509D+04
 0.166204600032116D+04 -.284640174716634D+03 -.711058823930353D+03 0.146974393246974D+04
 0.582603054800092D+03 0.711682398387532D+02 0.391044300100547D+03 0.425964501407718D+03
 0.190724660837263D+04 -.169705035162496D+03 -.122798045242131D+03 -.189570843387746D+04
 0.166135540642094D+04 0.383176970040377D+03 0.442812569071936D+03 0.155473284674463D+04
0.898003917615D-02 0.000000000000D+00 0.000000000000D+00 0.135910885056D-04 0.000000000000D+00  6 2 1 25 2 1 21 0 0.26784887D+00 0.37324170D+00 0.31549532D+06 0.31549532D+06 0.31549532D+06 0.10829374D+01  1  2  2  1  6  1        2 0.199245077479D-02 0.100000000000D+01
0.318251733035D-02 0.000000000000D+00 -.344857149350D-04 0.135910885056D-04 0.000000000000D+00  6 2 1 25 2 1 21 2 0.26784887D+00 0.37324170D+00 0.31549532D+06 0.31549532D+06 0.31549532D+06 0.10829374D+01  1  2  3  1  6  1        2 0.828107762645D-03 0.100000000000D+01
-.528978110725D-02 0.000000000000D+00 0.000000000000D+00 0.135910885056D-04 0.000000000000D+00  6 2 1 25 2 1 21 2 0.26784887D+00 0.37324170D+00 0.31549532D+06 0.31549532D+06 0.31549532D+06 0.10829374D+01  1  2 15  1  6  1        2 -.137642889038D-02 0.100000000000D+01
-.149187180111D-01 0.000000000000D+00 0.000000000000D+00 0.135910885056D-04 0.000000000000D+00  6 2 1 25 2 1 21 2 0.26784887D+00 0.37324170D+00 0.31549532D+06 0.31549532D+06 0.31549532D+06 0.10829374D+01  1  2  4  1  6  1        2 -.388192896103D-02 0.100000000000D+01
-.297291140518D-01 0.000000000000D+00 -.437154681577D-02 0.135910885056D-04 0.000000000000D+00  6 2 1 25 2 1 21 2 0.48358211D+00 0.37324170D+00 0.31549532D+06 0.31549532D+06 0.31549532D+06 0.10829374D+01  1  2  5  1  6  1        2 -.117902820398D-02 0.100000000000D+01
0.279552325213D-01 0.000000000000D+00 0.370577796939D-02 0.135910885056D-04 0.000000000000D+00  6 2 1 25 2 1 21 2 0.26784887D+00 0.37324170D+00 0.31549532D+06 0.31549532D+06 0.31549532D+06 0.10829374D+01  1  2  6  1  6  1        2 0.727409866294D-02 0.100000000000D+01
-.169158066764D-02 0.000000000000D+00 -.283069382258D-03 0.135910885056D-04 0.000000000000D+00  6 21 1 25 2 1 -2 2 0.48358211D+00 0.37324170D+00 0.31549532D+06 0.31549532D+06 0.31549532D+06 0.10829374D+01  1  2  5  5  6  1        2 -.375482065472D-05 0.100000000000D+01
  </mgrwgt>
  </event>
  <event>
  5     66 0.18337608E-05 0.17112546E+02 0.75467711E-02 0.88673247E-01
        2 -1    0    0  501    0 0.00000000E+00 0.00000000E+00 0.57887727E+03 0.57887736E+03 0.32000000E+00 0.0000E+00 0.9000E+01
        1 -1    0    0  502    0 0.00000000E+00 0.00000000E+00 -.15618246E+04 0.15618246E+04 0.32000000E+00 0.0000E+00 0.9000E+01
       25  1    1    2    0    0 0.63507453E+03 0.16318719E+03 -.18076911E+03 0.69155780E+03 0.12500000E+03 0.0000E+00 0.9000E+01
        2  1    1    2  501    0 -.15131642E+02 -.80094773E+01 0.23243832E+03 0.23306821E+03 0.32000000E+00 0.0000E+00 0.9000E+01
        1  1    1    2  502    0 -.61994288E+03 -.15517772E+03 -.10346165E+04 0.12160760E+04 0.32000000E+00 0.0000E+00 0.9000E+01
#aMCatNLO 1  0  0  2  4 0.58229842D+03 0.00000000D+00  -5  6  0 0.00000000D+00 0.00000000D+00 0.00000000D+00 0.00000000D+00 0.00000000D+00
  <mgrwgt>
 0.1193545514D-02    4    2    0
 0.950844296525826D+03 0.000000000000000D+00 0.000000000000000D+00 0.950844296525826D+03
 0.950844296525826D+03 0.000000000000000D+00 0.000000000000000D+00 -.950844296525826D+03
 0.685166377447649D+03 0.635170714481823D+03 0.163209965220990D+03 0.154105922994374D+03
 0.382322093592770D+03 -.151244364370176D+02 -.800566327159251D+01 0.381938927090711D+03
 0.834200122011233D+03 -.620046278044806D+03 -.155204301949398D+03 -.536044850085084D+03
 0.000000000000000D+00 -.000000000000000D+00 -.000000000000000D+00 0.000000000000000D+00
 0.128458944908388D+04 0.000000000000000D+00 0.000000000000000D+00 0.128458944908388D+04
 0.109140813812298D+04 0.000000000000000D+00 0.000000000000000D+00 -.109140813812298D+04
 0.833711516968042D+03 0.784939175860035D+03 0.198926489496434D+03 0.154105922994374D+03
 0.386866970017606D+03 0.607212013126781D+02 0.100818735632327D+02 0.381938927090711D+03
 0.720598783167852D+03 -.466735837069049D+03 -.118643092490474D+03 -.536044850085084D+03
 0.434820317053361D+03 -.378924540103664D+03 -.903652705691929D+02 0.193181310960892D+03
0.224385504127D-03 0.000000000000D+00 0.000000000000D+00 0.513443315437D-05 0.000000000000D+00  6 2 1 25 2 1 21 0 0.89058051D-01 0.24028071D+00 0.43817734D+06 0.43817734D+06 0.43817734D+06 0.10725852D+01  1  2  2  2  6  2        1 0.982714236855D-03 0.100000000000D+01
0.176777588081D-03 0.000000000000D+00 -.861699417909D-06 0.513443315437D-05 0.000000000000D+00  6 2 1 25 2 1 21 2 0.89058051D-01 0.24028071D+00 0.43817734D+06 0.43817734D+06 0.43817734D+06 0.10725852D+01  1  2  3  2  6  2        1 0.890683193331D-03 0.100000000000D+01
-.131822515384D-03 0.000000000000D+00 0.000000000000D+00 0.513443315437D-05 0.000000000000D+00  6 2 1 25 2 1 21 2 0.89058051D-01 0.24028071D+00 0.43817734D+06 0.43817734D+06 0.43817734D+06 0.10725852D+01  1  2 15  2  6  2        1 -.664179776575D-03 0.100000000000D+01
-.311051448305D-05 0.000000000000D+00 0.000000000000D+00 0.513443315437D-05 0.000000000000D+00  6 2 1 25 2 1 21 2 0.89058051D-01 0.24028071D+00 0.43817734D+06 0.43817734D+06 0.43817734D+06 0.10725852D+01  1  2  4  2  6  2        1 -.156721392273D-04 0.100000000000D+01
  </mgrwgt>
  </event>
  <event>
  5     66 0.18337608E-05 0.44698563E+02 0.75467711E-02 0.89216550E-01
        2 -1    0    0  501    0 0.00000000E+00 0.00000000E+00 0.96219628E+03 0.96219634E+03 0.32000000E+00 0.0000E+00 0.9000E+01
        1 -1    0    0  502    0 0.00000000E+00 0.00000000E+00 -.57769960E+03 0.57769968E+03 0.32000000E+00 0.0000E+00 0.9000E+01
       25  1    1    2    0    0 -.49524177E+03 -.59344937E+02 0.34646690E+03 0.62004076E+03 0.12500000E+03 0.0000E+00 0.9000E+01
        2  1    1    2  501    0 0.50965605E+03 0.17042146E+02 0.34110127E+03 0.61350624E+03 0.32000000E+00 0.0000E+00 0.9000E+01
        1  1    1    2  502    0 -.14414286E+02 0.42302792E+02 -.30307148E+03 0.30634902E+03 0.32000000E+00 0.0000E+00 0.9000E+01
#aMCatNLO 1  0  0  2  1 0.30550100D+00 0.00000000D+00  -5  6  0 0.00000000D+00 0.00000000D+00 0.00000000D+00 0.00000000D+00 0.00000000D+00
  <mgrwgt>
 0.3097860772D-02    4    2    0
 0.745560535527640D+03 0.000000000000000D+00 0.000000000000000D+00 0.745560535527640D+03
 0.745560535527640D+03 0.000000000000000D+00 0.000000000000000D+00 -.745560535527640D+03
 0.550965840917512D+03 -.495179801964750D+03 -.593501323048634D+02 0.198022431505845D+03
 0.545554258351141D+03 0.509595965784529D+03 0.170401365092840D+02 0.194038744092364D+03
 0.394600971786627D+03 -.144161638197786D+02 0.423099957955794D+02 -.392061175598209D+03
 0.000000000000000D+00 0.000000000000000D+00 -.000000000000000D+00 0.000000000000000D+00
 0.103174602086425D+04 0.000000000000000D+00 0.000000000000000D+00 0.103174602086425D+04
 0.965092301675203D+03 0.000000000000000D+00 0.000000000000000D+00 -.965092301675203D+03
 0.602744315644257D+03 -.546622994251945D+03 0.983164727653230D+02 0.198022431505845D+03
 0.526928686061113D+03 0.461774642534192D+03 0.163606190278877D+03 0.194038744092364D+03
 0.424374350694355D+03 -.509337455999483D+02 0.154231571589494D+03 -.392061175598209D+03
 0.442790970139728D+03 0.135782097317701D+03 -.416154234633694D+03 0.666537191890461D+02
0.367105678859D-03 0.000000000000D+00 0.000000000000D+00 0.118188950351D-05 0.000000000000D+00  6 2 1 25 2 1 21 0 0.14803021D+00 0.88876872D-01 0.28554574D+06 0.28554574D+06 0.28554574D+06 0.10861421D+01  1  2  2  2  6  2        1 0.511734611189D-02 0.100000000000D+01
0.143824995454D-03 0.000000000000D+00 -.140978246796D-05 0.118188950351D-05 0.000000000000D+00  6 2 1 25 2 1 21 2 0.14803021D+00 0.88876872D-01 0.28554574D+06 0.28554574D+06 0.28554574D+06 0.10861421D+01  1  2  3  2  6  2        1 0.236516441061D-02 0.100000000000D+01
-.240573369235D-03 0.000000000000D+00 0.000000000000D+00 0.118188950351D-05 0.000000000000D+00  6 2 1 25 2 1 21 2 0.14803021D+00 0.88876872D-01 0.28554574D+06 0.28554574D+06 0.28554574D+06 0.10861421D+01  1  2 15  2  6  2        1 -.395616609798D-02 0.100000000000D+01
-.260559727134D-04 0.000000000000D+00 0.000000000000D+00 0.118188950351D-05 0.000000000000D+00  6 2 1 25 2 1 21 2 0.14803021D+00 0.88876872D-01 0.28554574D+06 0.28554574D+06 0.28554574D+06 0.10861421D+01  1  2  4  2  6  2        1 -.428483652310D-03 0.100000000000D+01
  </mgrwgt>
  </event>
  <event>
  5     66 -.18337608E-05 0.28390371E+03 0.75467711E-02 0.90874981E-01
        2 -1    0    0  501    0 0.00000000E+00 0.00000000E+00 0.12378830E+04 0.12378830E+04 0.32000000E+00 0.0000E+00 0.9000E+01
        1 -1    0    0  502    0 -.00000000E+00 -.00000000E+00 -.20978545E+04 0.20978545E+04 0.32000000E+00 0.0000E+00 0.9000E+01
       25  1    1    2    0    0 -.48999947E+03 0.42466112E+03 -.88461273E+02 0.66624841E+03 0.12500000E+03 0.0000E+00 0.9000E+01
        2  1    1    2  501    0 0.15873835E+03 -.23539815E+03 0.90584272E+03 0.94929515E+03 0.32000000E+00 0.0000E+00 0.9000E+01
        1  1    1    2  502    0 0.33126112E+03 -.18926297E+03 -.16773529E+04 0.17201940E+04 0.32000000E+00 0.0000E+00 0.9000E+01
#aMCatNLO 1  0  0  4  2 0.11192755D+03 0.00000000D+00  -5  6  0 0.00000000D+00 0.00000000D+00 0.00000000D+00 0.00000000D+00 0.00000000D+00
  <mgrwgt>
 -.1333620587D-02    5    2    0
 0.161148953215399D+04 0.000000000000000D+00 0.000000000000000D+00 0.161148953215399D+04
 0.161148953215399D+04 -.000000000000000D+00 -.000000000000000D+00 -.161148953215399D+04
 0.665985764725118D+03 -.490021395542424D+03 0.424667138837221D+03 0.863069633283642D+02
 0.122414140033566D+04 0.158729648983081D+03 -.235385253260030D+03 0.119076481687072D+04
 0.133285189924720D+04 0.331291746559343D+03 -.189281885577191D+03 -.127707178019909D+04
 0.000000000000000D+00 0.000000000000000D+00 0.000000000000000D+00 0.000000000000000D+00
 0.161148953215399D+04 0.000000000000000D+00 0.000000000000000D+00 0.161148953215399D+04
 0.161148953215399D+04 -.000000000000000D+00 -.000000000000000D+00 -.161148953215399D+04
 0.665553655829242D+03 -.489386952943854D+03 0.423726303695834D+03 0.910664517386336D+02
 0.397931618175796D+03 -.604402756070707D+02 -.911208815827618D+02 0.382614075496614D+03
 0.132434137061388D+04 0.332557827440622D+03 -.191159397250636D+03 -.126757384091428D+04
 0.835152419689060D+03 0.217269401110303D+03 -.141446024862436D+03 0.793893313679034D+03
0.673372885060D-03 0.000000000000D+00 0.000000000000D+00 0.502189219598D-05 0.000000000000D+00  6 2 1 25 2 1 21 0 0.19044354D+00 0.32274685D+00 0.43945320D+06 0.43945320D+06 0.43945320D+06 0.10724949D+01  1  2  2  3  6  4        2 0.461419663035D-03 0.100000000000D+01
0.800682802001D-04 0.000000000000D+00 -.258592918178D-05 0.502189219598D-05 0.000000000000D+00  6 2 1 25 2 1 21 2 0.19044354D+00 0.32274685D+00 0.43945320D+06 0.43945320D+06 0.43945320D+06 0.10724949D+01  1  2  3  3  6  4        2 0.631090240633D-04 0.100000000000D+01
-.418291479000D-03 0.000000000000D+00 0.000000000000D+00 0.502189219598D-05 0.000000000000D+00  6 2 1 25 2 1 21 2 0.19044354D+00 0.32274685D+00 0.43945320D+06 0.43945320D+06 0.43945320D+06 0.10724949D+01  1  2 15  3  6  4        2 -.329693193706D-03 0.100000000000D+01
0.734811282318D-09 0.000000000000D+00 0.000000000000D+00 0.502189219598D-05 0.000000000000D+00  6 2 1 25 2 1 21 2 0.19044354D+00 0.32274685D+00 0.49806630D+06 0.49806630D+06 0.49806630D+06 0.10686294D+01  1  2 12  3  6  4        2 0.569313358940D-09 0.100000000000D+01
-.193919803308D-02 0.000000000000D+00 0.000000000000D+00 0.502189219598D-05 0.000000000000D+00  6 2 1 25 2 1 21 2 0.19044354D+00 0.32274685D+00 0.43945320D+06 0.43945320D+06 0.43945320D+06 0.10724949D+01  1  2  5  3  6  4        2 -.152845665009D-02 0.100000000000D+01
  </mgrwgt>
  </event>
  <event>
  5     66 0.18337608E-05 0.22504445E+03 0.75467711E-02 0.93563809E-01
        2 -1    0    0  501    0 0.00000000E+00 0.00000000E+00 0.11939070E+04 0.11939071E+04 0.32000000E+00 0.0000E+00 0.9000E+01
        1 -1    0    0  502    0 0.00000000E+00 0.00000000E+00 -.17872063E+04 0.17872063E+04 0.32000000E+00 0.0000E+00 0.9000E+01
       25  1    1    2    0    0 -.46517546E+03 0.68355212E+02 0.14954433E+03 0.50896871E+03 0.12500000E+03 0.0000E+00 0.9000E+01
        2  1    1    2  501    0 0.24130895E+03 -.38880063E+02 0.83919930E+03 0.87406935E+03 0.32000000E+00 0.0000E+00 0.9000E+01
        1  1    1    2  502    0 0.22386651E+03 -.29475149E+02 -.15820429E+04 0.15980753E+04 0.32000000E+00 0.0000E+00 0.9000E+01
#aMCatNLO 1  0  0  2  4 0.12677799D+03 0.00000000D+00  -5  6  0 0.00000000D+00 0.00000000D+00 0.00000000D+00 0.00000000D+00 0.00000000D+00
  <mgrwgt>
 0.3323973196D-01    9    2    0
 0.146073893838275D+04 0.000000000000000D+00 0.000000000000000D+00 0.146073893838275D+04
 0.146073893838275D+04 0.000000000000000D+00 0.000000000000000D+00 -.146073893838275D+04
 0.549778121880691D+03 -.465180881573178D+03 0.683554409795213D+02 0.256057150663587D+03
 0.106226082490958D+04 0.241291495102263D+03 -.388772510949801D+02 0.103376256165340D+04
 0.130943892997522D+04 0.223889386470916D+03 -.294781898845412D+02 -.128981971231698D+04
 0.000000000000000D+00 0.000000000000000D+00 0.000000000000000D+00 -.000000000000000D+00
 0.149225621869034D+04 0.000000000000000D+00 0.000000000000000D+00 0.149225621869034D+04
 0.159541912236868D+04 0.000000000000000D+00 0.000000000000000D+00 -.159541912236868D+04
 0.549208367479409D+03 -.467384550791610D+03 0.446234040024669D+02 0.256057150663587D+03
 0.106397228234592D+04 0.237028008248664D+03 -.847921401420745D+02 0.103376256165340D+04
 0.131104670843785D+04 0.218634832757453D+03 -.860662031774706D+02 -.128981971231698D+04
 0.163447982795834D+03 0.117217097854925D+02 0.126234939317078D+03 -.103162903678336D+03
0.974783228245D-02 0.000000000000D+00 0.000000000000D+00 0.473410579646D-04 0.000000000000D+00  6 2 1 25 2 1 21 0 0.18367801D+00 0.27495482D+00 0.22883488D+06 0.22883488D+06 0.22883488D+06 0.10933611D+01  1  2  2  2  6  2        1 0.119985584747D-01 0.100000000000D+01
0.122344237784D-02 0.000000000000D+00 -.374342426278D-04 0.473410579646D-04 0.000000000000D+00  6 2 1 25 2 1 21 2 0.18367801D+00 0.27495482D+00 0.22883488D+06 0.22883488D+06 0.22883488D+06 0.10933611D+01  1  2  3  2  6  2        1 0.180024565036D-02 0.100000000000D+01
-.647209702873D-02 0.000000000000D+00 0.000000000000D+00 0.473410579646D-04 0.000000000000D+00  6 2 1 25 2 1 21 2 0.18367801D+00 0.27495482D+00 0.22883488D+06 0.22883488D+06 0.22883488D+06 0.10933611D+01  1  2 15  2  6  2        1 -.952342728658D-02 0.100000000000D+01
0.266462429275D-08 0.000000000000D+00 0.000000000000D+00 0.473410579646D-04 0.000000000000D+00  6 2 1 25 2 1 21 2 0.18367801D+00 0.30428151D+00 0.30214026D+06 0.30214026D+06 0.30214026D+06 0.10843235D+01  1  2 12  2  6  2        1 0.282159683642D-08 0.100000000000D+01
-.809649926426D-03 0.000000000000D+00 0.000000000000D+00 0.473410579646D-04 0.000000000000D+00  6 2 1 25 2 1 21 2 0.18367801D+00 0.27495482D+00 0.22883488D+06 0.22883488D+06 0.22883488D+06 0.10933611D+01  1  2  4  2  6  2        1 -.119136690437D-02 0.100000000000D+01
-.804589115994D-01 0.000000000000D+00 -.186844906795D-01 0.473410579646D-04 0.000000000000D+00  6 2 1 25 2 1 21 2 0.18367801D+00 0.30291673D+00 0.22883488D+06 0.22883488D+06 0.22883488D+06 0.10933611D+01  1  2  5  2  6  2        1 -.897523391729D-01 0.100000000000D+01
0.819710656647D-01 0.000000000000D+00 0.185972002446D-01 0.473410579646D-04 0.000000000000D+00  6 2 1 25 2 1 21 2 0.18367801D+00 0.27495482D+00 0.22883488D+06 0.22883488D+06 0.22883488D+06 0.10933611D+01  1  2  6  2  6  2        1 0.120617085930D+00 0.100000000000D+01
0.437821197584D-10 0.000000000000D+00 0.000000000000D+00 0.473410579646D-04 0.000000000000D+00  6 2 21 25 2 1 -1 2 0.18367801D+00 0.30428151D+00 0.30214026D+06 0.30214026D+06 0.30214026D+06 0.10843235D+01  1  2 12  6  6  2        1 0.237984137502D-10 0.100000000000D+01
-.121309003596D-02 0.000000000000D+00 -.295188184721D-03 0.473410579646D-04 0.000000000000D+00  6 2 21 25 2 1 -1 2 0.18367801D+00 0.30291673D+00 0.22883488D+06 0.22883488D+06 0.22883488D+06 0.10933611D+01  1  2  5  6  6  2        1 -.709027578854D-03 0.100000000000D+01
  </mgrwgt>
  </event>
  <event>
  5     66 0.18337608E-05 0.21421200E+03 0.75467711E-02 0.94233393E-01
        2 -1    0    0  501    0 0.00000000E+00 0.00000000E+00 0.10763671E+04 0.10763672E+04 0.32000000E+00 0.0000E+00 0.9000E+01
        1 -1    0    0  502    0 0.00000000E+00 0.00000000E+00 -.34763972E+03 0.34763987E+03 0.32000000E+00 0.0000E+00 0.9000E+01
       25  1    1    2    0    0 0.39677833E+03 0.29629539E+03 0.37965072E+03 0.63638327E+03 0.12500000E+03 0.0000E+00 0.9000E+01
        2  1    1    2  501    0 -.13089635E+03 -.16969423E+03 0.43152674E+03 0.48181471E+03 0.32000000E+00 0.0000E+00 0.9000E+01
        1  1    1    2  502    0 -.26588198E+03 -.12660115E+03 -.82450046E+02 0.30580908E+03 0.32000000E+00 0.0000E+00 0.9000E+01
#aMCatNLO 1  0  0  2  5 0.18226579D+02 0.00000000D+00  -5  6  0 0.00000000D+00 0.00000000D+00 0.00000000D+00 0.00000000D+00 0.00000000D+00
  <mgrwgt>
 0.4494624742D-02   11    2    0
 0.611709176464354D+03 0.000000000000000D+00 0.000000000000000D+00 0.611709176464354D+03
 0.611709176464354D+03 0.000000000000000D+00 0.000000000000000D+00 -.611709176464354D+03
 0.514605565077878D+03 0.396797742695644D+03 0.296267729096872D+03 0.630148529836123D+02
 0.303630504908884D+03 -.130834768052622D+03 -.169614397231762D+03 0.215185276521297D+03
 0.405182282941945D+03 -.265962974643022D+03 -.126653331865111D+03 -.278200129504909D+03
 0.000000000000000D+00 -.000000000000000D+00 -.000000000000000D+00 -.000000000000000D+00
 0.614547388067224D+03 0.000000000000000D+00 0.000000000000000D+00 0.614547388067224D+03
 0.641756174184877D+03 0.000000000000000D+00 0.000000000000000D+00 -.641756174184877D+03
 0.521272451148133D+03 0.404387445123035D+03 0.297657337984973D+03 0.630148529836123D+02
 0.301291790532958D+03 -.126402605054487D+03 -.168802906510664D+03 0.215185276521297D+03
 0.400989874195561D+03 -.260056288062093D+03 -.125571868625859D+03 -.278200129504909D+03
 0.327494463754490D+02 -.179285520064553D+02 -.328256284845001D+01 -.272087861176535D+02
0.239459565818D-04 0.000000000000D+00 0.000000000000D+00 0.402871883567D-07 0.000000000000D+00  6 2 1 25 2 1 21 0 0.16559496D+00 0.53483050D-01 0.25985771D+06 0.25985771D+06 0.25985771D+06 0.10891978D+01  1  2  2  2  6  2        1 0.574488947178D-03 0.100000000000D+01
0.111623037367D-05 0.000000000000D+00 -.919587783894D-07 0.402871883567D-07 0.000000000000D+00  6 2 1 25 2 1 21 2 0.16559496D+00 0.53483050D-01 0.25985771D+06 0.25985771D+06 0.25985771D+06 0.10891978D+01  1  2  3  2  6  2        1 0.317699736635D-04 0.100000000000D+01
-.128309022820D-04 0.000000000000D+00 0.000000000000D+00 0.402871883567D-07 0.000000000000D+00  6 2 1 25 2 1 21 2 0.16559496D+00 0.53483050D-01 0.25985771D+06 0.25985771D+06 0.25985771D+06 0.10891978D+01  1  2 15  2  6  2        1 -.365191126486D-03 0.100000000000D+01
0.243029197240D-03 0.000000000000D+00 0.000000000000D+00 0.402871883567D-07 0.000000000000D+00  6 2 1 25 2 1 21 2 0.16559496D+00 0.57302431D-01 0.26798560D+06 0.26798560D+06 0.26798560D+06 0.10881966D+01  1  2 12  2  6  2        1 0.628666992451D-02 0.100000000000D+01
0.126375044480D-05 0.000000000000D+00 0.000000000000D+00 0.402871883567D-07 0.000000000000D+00  6 2 1 25 2 1 21 2 0.16559496D+00 0.56401926D-01 0.26798560D+06 0.26798560D+06 0.26798560D+06 0.10881966D+01  1  2 12  2  6  2        1 0.333957717987D-04 0.100000000000D+01
-.135883069645D-03 0.000000000000D+00 0.000000000000D+00 0.402871883567D-07 0.000000000000D+00  6 2 1 25 2 1 21 2 0.16559496D+00 0.53483050D-01 0.25985771D+06 0.25985771D+06 0.25985771D+06 0.10891978D+01  1  2  4  2  6  2        1 -.386748259656D-02 0.100000000000D+01
-.117385073014D-02 0.000000000000D+00 -.110989762135D-03 0.402871883567D-07 0.000000000000D+00  6 2 1 25 2 1 21 2 0.16559496D+00 0.56278159D-01 0.25985771D+06 0.25985771D+06 0.25985771D+06 0.10891978D+01  1  2  5  2  6  2        1 -.312008740859D-01 0.100000000000D+01
0.117811962269D-02 0.000000000000D+00 0.110845905035D-03 0.402871883567D-07 0.000000000000D+00  6 2 1 25 2 1 21 2 0.16559496D+00 0.53483050D-01 0.25985771D+06 0.25985771D+06 0.25985771D+06 0.10891978D+01  1  2  6  2  6  2        1 0.335314557534D-01 0.100000000000D+01
0.542018556234D-05 0.000000000000D+00 0.000000000000D+00 0.402871883567D-07 0.000000000000D+00  6 2 21 25 2 1 -1 2 0.16559496D+00 0.57302431D-01 0.26798560D+06 0.26798560D+06 0.26798560D+06 0.10881966D+01  1  2 12  6  6  2        1 0.539368005049D-03 0.100000000000D+01
0.222075154623D-07 0.000000000000D+00 0.000000000000D+00 0.402871883567D-07 0.000000000000D+00  6 2 21 25 2 1 -1 2 0.16559496D+00 0.56401926D-01 0.26798560D+06 0.26798560D+06 0.26798560D+06 0.10881966D+01  1  2 12  6  6  2        1 0.228928557876D-05 0.100000000000D+01
-.103020301061D-04 0.000000000000D+00 -.983650293196D-06 0.402871883567D-07 0.000000000000D+00  6 2 21 25 2 1 -1 2 0.16559496D+00 0.56278159D-01 0.25985771D+06 0.25985771D+06 0.25985771D+06 0.10891978D+01  1  2  5  6  6  2        1 -.107126511015D-02 0.100000000000D+01
  </mgrwgt>
  </event>
  <event>
  5     66 0.18337608E-05 0.85408197E+02 0.75467711E-02 0.90864215E-01
        2 -1    0    0  501    0 0.00000000E+00 0.00000000E+00 0.18632175E+04 0.18632175E+04 0.32000000E+00 0.0000E+00 0.9000E+01
        1 -1    0    0  502    0 -.00000000E+00 -.00000000E+00 -.21931094E+04 0.21931094E+04 0.32000000E+00 0.0000E+00 0.9000E+01
       25  1    1    2    0    0 0.51035808E+03 0.34279243E+03 0.21504113E+03 0.66320412E+03 0.12500000E+03 0.0000E+00 0.9000E+01
        2  1    1    2  501    0 -.58178117E+03 -.38961464E+03 0.13370011E+04 0.15092518E+04 0.32000000E+00 0.0000E+00 0.9000E+01
        1  1    1    2  502    0 0.71423084E+02 0.46822211E+02 -.18819342E+04 0.18838710E+04 0.32000000E+00 0.0000E+00 0.9000E+01
#aMCatNLO 1  0  0  5  2 0.25342334D+01 0.00000000D+00  -5  6  0 0.00000000D+00 0.00000000D+00 0.00000000D+00 0.00000000D+00 0.00000000D+00
  <mgrwgt>
 0.2623931013D-01    9    2    0
 0.202144497316002D+04 0.000000000000000D+00 0.000000000000000D+00 0.202144497316002D+04
 0.202144497316002D+04 -.000000000000000D+00 -.000000000000000D+00 -.202144497316002D+04
 0.682965794196751D+03 0.510333628011065D+03 0.342776117908442D+03 0.269965548089903D+03
 0.162330978461023D+04 -.581761529393363D+03 -.389601485208202D+03 0.146454732339135D+04
 0.173661436751306D+04 0.714279013822997D+02 0.468253672997615D+02 -.173451287148126D+04
 0.000000000000000D+00 0.000000000000000D+00 0.000000000000000D+00 -.000000000000000D+00
 0.202144497316002D+04 0.000000000000000D+00 0.000000000000000D+00 0.202144497316002D+04
 0.202144497316002D+04 -.000000000000000D+00 -.000000000000000D+00 -.202144497316002D+04
 0.682962788048658D+03 0.510333980743560D+03 0.342776349146211D+03 0.269956982542818D+03
 0.162329098442025D+04 -.581760691002832D+03 -.389600935591823D+03 0.146452696441204D+04
 0.167086844184041D+04 0.707626590898759D+02 0.465523415620567D+02 -.166872013097218D+04
 0.657677320107315D+02 0.664051169398269D+00 0.272244883555526D+00 -.657638159826754D+02
0.837605929826D-04 0.000000000000D+00 0.000000000000D+00 0.553457030478D-04 0.000000000000D+00  6 2 1 25 2 1 21 0 0.28664884D+00 0.33740145D+00 0.49908637D+06 0.49908637D+06 0.49908637D+06 0.10685665D+01  1  2  2  4  6  5        1 0.219702097671D-04 0.100000000000D+01
0.354459700507D-04 0.000000000000D+00 -.321662731724D-06 0.553457030478D-04 0.000000000000D+00  6 2 1 25 2 1 21 2 0.28664884D+00 0.33740145D+00 0.49908637D+06 0.49908637D+06 0.49908637D+06 0.10685665D+01  1  2  3  4  6  5        1 0.106160869233D-04 0.100000000000D+01
-.542039361108D-04 0.000000000000D+00 0.000000000000D+00 0.553457030478D-04 0.000000000000D+00  6 2 1 25 2 1 21 2 0.28664884D+00 0.33740145D+00 0.49908637D+06 0.49908637D+06 0.49908637D+06 0.10685665D+01  1  2 15  4  6  5        1 -.162341077564D-04 0.100000000000D+01
0.609320834733D-03 0.000000000000D+00 0.000000000000D+00 0.553457030478D-04 0.000000000000D+00  6 2 1 25 2 1 21 2 0.28664884D+00 0.33740145D+00 0.49909427D+06 0.49909427D+06 0.49909427D+06 0.10685661D+01  1  2 12  4  6  5        1 0.182491474266D-03 0.100000000000D+01
0.103182134915D-10 0.000000000000D+00 0.000000000000D+00 0.553457030478D-04 0.000000000000D+00  6 2 1 25 2 1 21 2 0.28664884D+00 0.33740145D+00 0.49909427D+06 0.49909427D+06 0.49909427D+06 0.10685661D+01  1  2 12  4  6  5        1 0.309030298083D-11 0.100000000000D+01
-.346705533197D+00 0.000000000000D+00 0.000000000000D+00 0.553457030478D-04 0.000000000000D+00  6 2 1 25 2 1 21 2 0.28664884D+00 0.33740145D+00 0.49908637D+06 0.49908637D+06 0.49908637D+06 0.10685665D+01  1  2  4  4  6  5        1 -.103838491990D+00 0.100000000000D+01
-.759430521368D+00 0.000000000000D+00 0.000000000000D+00 0.553457030478D-04 0.000000000000D+00  6 2 1 25 2 1 21 2 0.28664884D+00 0.33740145D+00 0.49908637D+06 0.49908637D+06 0.49908637D+06 0.10685665D+01  1  2  5  4  6  5        1 -.227449845934D+00 0.100000000000D+01
0.788735287226D+00 0.000000000000D+00 -.000000000000D+00 0.553457030478D-04 0.000000000000D+00  6 2 1 25 2 1 21 2 0.28664884D+00 0.33740145D+00 0.49908637D+06 0.49908637D+06 0.49908637D+06 0.10685665D+01  1  2  6  4  6  5        1 0.236226638928D+00 0.100000000000D+01
0.404348054308D+00 0.000000000000D+00 0.000000000000D+00 0.553457030478D-04 0.988604070825D-03  6 2 1 25 2 1 21 2 0.28664884D+00 0.33740145D+00 0.49909427D+06 0.49909427D+06 0.49909427D+06 0.10685661D+01  1  2 11  4  6  5        1 0.121102165462D+00 0.100000000000D+01
  </mgrwgt>
  </event>
  <event>
  5     66 -.18337608E-05 0.33675331E+02 0.75467711E-02 0.92185772E-01
        2 -1    0    0  501    0 0.00000000E+00 0.00000000E+00 0.36024731E+04 0.36024731E+04 0.32000000E+00 0.0000E+00 0.9000E+01
        1 -1    0    0  502    0 0.00000000E+00 0.00000000E+00 -.66435381E+03 0.66435388E+03 0.32000000E+00 0.0000E+00 0.9000E+01
       25  1    1    2    0    0 -.38319769E+03 -.44390658E+03 0.11780902E+04 0.13218982E+04 0.12500000E+03 0.0000E+00 0.9000E+01
        2  1    1    2  501    0 0.41640426E+03 0.44948710E+03 0.23120598E+04 0.23918720E+04 0.32000000E+00 0.0000E+00 0.9000E+01
        1  1    1    2  502    0 -.33206576E+02 -.55805201E+01 -.55203066E+03 0.55305675E+03 0.32000000E+00 0.0000E+00 0.9000E+01
#aMCatNLO 1  0  0  4  4 0.62752518D+02 0.00000000D+00  -5  6  0 0.00000000D+00 0.00000000D+00 0.00000000D+00 0.00000000D+00 0.00000000D+00
  <mgrwgt>
 -.2977817776D-01    6    2    0
 0.154703487287054D+04 0.000000000000000D+00 0.000000000000000D+00 0.154703487287054D+04
 0.154703487287054D+04 -.000000000000000D+00 -.000000000000000D+00 -.154703487287054D+04
 0.704257185300938D+03 -.383163576831555D+03 -.443872594561550D+03 0.369480684522001D+03
 0.110286526083677D+04 0.416373220521436D+03 0.449453589857301D+03 0.917025951299939D+03
 0.128694729960336D+04 -.332096436898802D+02 -.558099529575009D+01 -.128650663582194D+04
 0.000000000000000D+00 0.000000000000000D+00 0.000000000000000D+00 0.000000000000000D+00
 0.154703487287054D+04 0.000000000000000D+00 0.000000000000000D+00 0.154703487287054D+04
 0.154703487287054D+04 -.000000000000000D+00 -.000000000000000D+00 -.154703487287054D+04
 0.704216097978751D+03 -.382539473454542D+03 -.443198906895256D+03 0.370855218149064D+03
 0.619224988276947D+03 0.227984442100180D+03 0.308051509017113D+03 0.486381484083363D+03
 0.128440506000426D+04 -.320702612747692D+02 -.435109026955604D+01 -.128399724474774D+04
 0.486223599481111D+03 0.186625292629132D+03 0.139498488147698D+03 0.426760542515314D+03
0.270156923268D-02 0.000000000000D+00 0.000000000000D+00 0.586648350499D-04 0.000000000000D+00  6 2 1 25 2 1 21 0 0.55422663D+00 0.10220828D+00 0.38807025D+06 0.38807025D+06 0.38807025D+06 0.10763769D+01  1  2  2  3  6  4        2 0.791029174579D-03 0.100000000000D+01
0.197871875508D-02 0.000000000000D+00 -.103747371930D-04 0.586648350499D-04 0.000000000000D+00  6 2 1 25 2 1 21 2 0.55422663D+00 0.10220828D+00 0.38807025D+06 0.38807025D+06 0.38807025D+06 0.10763769D+01  1  2  3  3  6  4        2 0.671257526747D-03 0.100000000000D+01
-.188152518473D-02 0.000000000000D+00 0.000000000000D+00 0.586648350499D-04 0.000000000000D+00  6 2 1 25 2 1 21 2 0.55422663D+00 0.10220828D+00 0.38807025D+06 0.38807025D+06 0.38807025D+06 0.10763769D+01  1  2 15  3  6  4        2 -.638285728465D-03 0.100000000000D+01
-.114763741725D+00 0.000000000000D+00 0.000000000000D+00 0.586648350499D-04 0.000000000000D+00  6 2 1 25 2 1 21 2 0.55422663D+00 0.10220828D+00 0.38807025D+06 0.38807025D+06 0.38807025D+06 0.10763769D+01  1  2  4  3  6  4        2 -.389322763696D-01 0.100000000000D+01
-.468910467484D-01 0.000000000000D+00 0.000000000000D+00 0.586648350499D-04 0.000000000000D+00  6 2 1 25 2 1 21 2 0.55422663D+00 0.10220828D+00 0.38807025D+06 0.38807025D+06 0.38807025D+06 0.10763769D+01  1  2  5  3  6  4        2 -.159072470436D-01 0.100000000000D+01
0.714463325586D-01 0.000000000000D+00 -.000000000000D+00 0.586648350499D-04 0.000000000000D+00  6 2 1 25 2 1 21 2 0.55422663D+00 0.10220828D+00 0.38807025D+06 0.38807025D+06 0.38807025D+06 0.10763769D+01  1  2  6  3  6  4        2 0.242373446784D-01 0.100000000000D+01
  </mgrwgt>
  </event>
  <event>
  5     66 0.18337608E-05 0.18586245E+02 0.75467711E-02 0.95393773E-01
        2 -1    0    0  501    0 0.00000000E+00 0.00000000E+00 0.13673779E+03 0.13673817E+03 0.32000000E+00 0.0000E+00 0.9000E+01
        1 -1    0    0  502    0 0.00000000E+00 0.00000000E+00 -.26733908E+04 0.26733908E+04 0.32000000E+00 0.0000E+00 0.9000E+01
       25  1    1    2    0    0 0.14582270E+03 0.43477414E+03 -.67751556E+03 0.82761413E+03 0.12500000E+03 0.0000E+00 0.9000E+01
        2  1    1    2  501    0 -.11095084E+02 -.14943620E+02 0.33971561E+02 0.38737347E+02 0.32000000E+00 0.0000E+00 0.9000E+01
        1  1    1    2  502    0 -.13472761E+03 -.41983052E+03 -.18931090E+04 0.19437775E+04 0.32000000E+00 0.0000E+00 0.9000E+01
#aMCatNLO 1  0  0  2  5 0.60015364D+02 0.00000000D+00  -5  6  0 0.00000000D+00 0.00000000D+00 0.00000000D+00 0.00000000D+00 0.00000000D+00
  <mgrwgt>
 0.2117350212D-01    3    2    0
 0.604610712762005D+03 0.000000000000000D+00 0.000000000000000D+00 0.604610712762005D+03
 0.604610712762005D+03 0.000000000000000D+00 0.000000000000000D+00 -.604610712762005D+03
 0.502191350315139D+03 0.145847046853586D+03 0.434869201955099D+03 0.161828824522599D+03
 0.161061500437279D+03 -.110796324660548D+02 -.149228092264126D+02 0.159985494443456D+03
 0.545968574771591D+03 -.134767414387531D+03 -.419946392728686D+03 -.321814318966055D+03
 0.000000000000000D+00 -.000000000000000D+00 0.000000000000000D+00 0.000000000000000D+00
 0.126040180359284D+04 0.000000000000000D+00 0.000000000000000D+00 0.126040180359284D+04
 0.973224277237800D+03 0.000000000000000D+00 0.000000000000000D+00 -.973224277237800D+03
 0.435374520164386D+03 0.312371545338541D+03 0.223967457512950D+03 0.161828824522599D+03
 0.192917825751943D+03 0.517919284809685D+02 -.945490624213809D+02 0.159985494443456D+03
 0.797378460833323D+03 0.103829358851394D+03 -.722127009708017D+03 -.321814318966055D+03
 0.807955274080988D+03 -.467992832670904D+03 0.592708614616448D+03 0.287177526355040D+03
0.605551940212D-02 0.000000000000D+00 0.000000000000D+00 0.200027414308D-05 0.000000000000D+00  6 2 1 25 2 1 21 0 0.21036614D-01 0.41129092D+00 0.21857021D+06 0.21857021D+06 0.21857021D+06 0.10948760D+01  1  2  2  2  6  2        1 0.250758080041D-01 0.100000000000D+01
0.294910066419D-02 0.000000000000D+00 -.232547889590D-04 0.200027414308D-05 0.000000000000D+00  6 2 1 25 2 1 21 2 0.21036614D-01 0.41129092D+00 0.21857021D+06 0.21857021D+06 0.21857021D+06 0.10948760D+01  1  2  3  2  6  2        1 0.146393914542D-01 0.100000000000D+01
-.373521891938D-02 0.000000000000D+00 0.000000000000D+00 0.200027414308D-05 0.000000000000D+00  6 2 1 25 2 1 21 2 0.21036614D-01 0.41129092D+00 0.21857021D+06 0.21857021D+06 0.21857021D+06 0.10948760D+01  1  2 15  2  6  2        1 -.185416973357D-01 0.100000000000D+01
  </mgrwgt>
  </event>
  <event>
  5     66 0.18337608E-05 0.52322497E+02 0.75467711E-02 0.91653466E-01
        2 -1    0    0  501    0 0.00000000E+00 0.00000000E+00 0.10730551E+04 0.10730551E+04 0.32000000E+00 0.0000E+00 0.9000E+01
        1 -1    0    0  502    0 -.00000000E+00 -.00000000E+00 -.11617999E+04 0.11618000E+04 0.32000000E+00 0.0000E+00 0.9000E+01
       25  1    1    2    0    0 0.32827047E+03 0.44075654E+03 -.44925184E+03 0.72074964E+03 0.12500000E+03 0.0000E+00 0.9000E+01
        2  1    1    2  501    0 0.34450163E+02 0.39386847E+02 0.77924413E+03 0.78099914E+03 0.32000000E+00 0.0000E+00 0.9000E+01
        1  1    1    2  502    0 -.36272064E+03 -.48014338E+03 -.41873716E+03 0.73310630E+03 0.32000000E+00 0.0000E+00 0.9000E+01
#aMCatNLO 1  0  0  4  4 0.91565487D+02 0.00000000D+00  -5  6  0 0.00000000D+00 0.00000000D+00 0.00000000D+00 0.00000000D+00 0.00000000D+00
  <mgrwgt>
 0.1583918075D-01    6    2    0
 0.111654618784067D+04 0.000000000000000D+00 0.000000000000000D+00 0.111654618784067D+04
 0.111654618784067D+04 -.000000000000000D+00 -.000000000000000D+00 -.111654618784067D+04
 0.703507350522528D+03 0.328314464389189D+03 0.440814908967417D+03 -.420938737519030D+03
 0.812510078830190D+03 0.344470566475780D+02 0.393832957807730D+02 0.810823645746968D+03
 0.717074946328626D+03 -.362761521036767D+03 -.480198204748190D+03 -.389884908227939D+03
 0.000000000000000D+00 0.000000000000000D+00 0.000000000000000D+00 0.000000000000000D+00
 0.111654618784067D+04 0.000000000000000D+00 0.000000000000000D+00 0.111654618784067D+04
 0.111654618784067D+04 -.000000000000000D+00 -.000000000000000D+00 -.111654618784067D+04
 0.696470535560836D+03 0.328866530153664D+03 0.441446085369952D+03 -.407944072098900D+03
 0.690276784164823D+03 -.259578784427674D+02 -.398344265253020D+02 0.688637383364481D+03
 0.709241387402140D+03 -.362199068997352D+03 -.479555153724777D+03 -.376645768006981D+03
 0.137103668553546D+03 0.592904172864553D+02 0.779434948801267D+02 0.959524567413995D+02
0.265461326869D-02 0.000000000000D+00 0.000000000000D+00 0.432224474996D-05 0.000000000000D+00  6 2 1 25 2 1 21 0 0.16508540D+00 0.17873846D+00 0.37077130D+06 0.37077130D+06 0.37077130D+06 0.10778113D+01  1  2  2  3  6  4        2 0.994139526730D-02 0.100000000000D+01
0.126766730579D-02 0.000000000000D+00 -.101944139275D-04 0.432224474996D-05 0.000000000000D+00  6 2 1 25 2 1 21 2 0.16508540D+00 0.17873846D+00 0.37077130D+06 0.37077130D+06 0.37077130D+06 0.10778113D+01  1  2  3  3  6  4        2 0.551489000090D-02 0.100000000000D+01
-.159429714237D-02 0.000000000000D+00 0.000000000000D+00 0.432224474996D-05 0.000000000000D+00  6 2 1 25 2 1 21 2 0.16508540D+00 0.17873846D+00 0.37077130D+06 0.37077130D+06 0.37077130D+06 0.10778113D+01  1  2 15  3  6  4        2 -.693586821147D-02 0.100000000000D+01
-.461898943940D-03 0.000000000000D+00 0.000000000000D+00 0.432224474996D-05 0.000000000000D+00  6 2 1 25 2 1 21 2 0.16508540D+00 0.17873846D+00 0.37077130D+06 0.37077130D+06 0.37077130D+06 0.10778113D+01  1  2  4  3  6  4        2 -.200945615283D-02 0.100000000000D+01
-.117337970017D-01 0.000000000000D+00 0.000000000000D+00 0.432224474996D-05 0.000000000000D+00  6 2 1 25 2 1 21 2 0.16508540D+00 0.17873846D+00 0.37077130D+06 0.37077130D+06 0.37077130D+06 0.10778113D+01  1  2  5  3  6  4        2 -.510469895860D-01 0.100000000000D+01
0.138780064639D-01 0.000000000000D+00 -.000000000000D+00 0.432224474996D-05 0.000000000000D+00  6 2 1 25 2 1 21 2 0.16508540D+00 0.17873846D+00 0.37077130D+06 0.37077130D+06 0.37077130D+06 0.10778113D+01  1  2  6  3  6  4        2 0.603752094342D-01 0.100000000000D+01
  </mgrwgt>
  </event>
  <event>
  5     66 0.18337608E-05 0.89302133E+02 0.75467711E-02 0.93237664E-01
        2 -1    0    0  501    0 0.00000000E+00 0.00000000E+00 0.29096744E+04 0.29096744E+04 0.32000000E+00 0.0000E+00 0.9000E+01
        1 -1    0    0  502    0 0.00000000E+00 0.00000000E+00 -.11892245E+04 0.11892246E+04 0.32000000E+00 0.0000E+00 0.9000E+01
       25  1    1    2    0    0 -.43226913E+03 -.18480206E+03 0.42404278E+03 0.64532603E+03 0.12500000E+03 0.0000E+00 0.9000E+01
        2  1    1    2  501    0 0.52082637E+03 0.19626469E+03 0.23404493E+04 0.24057188E+04 0.32000000E+00 0.0000E+00 0.9000E+01
        1  1    1    2  502    0 -.88557237E+02 -.11462636E+02 -.10440423E+04 0.10478541E+04 0.32000000E+00 0.0000E+00 0.9000E+01
#aMCatNLO 1  0  0  1  4 0.12057243D+04 0.00000000D+00  -5  6  0 0.00000000D+00 0.00000000D+00 0.00000000D+00 0.00000000D+00 0.00000000D+00
  <mgrwgt>
 0.7738605002D-02    4    2    0
 0.186017641313967D+04 0.000000000000000D+00 0.000000000000000D+00 0.186017641313967D+04
 0.186017641313967D+04 0.000000000000000D+00 0.000000000000000D+00 -.186017641313967D+04
 0.514897975152425D+03 -.432249486327107D+03 -.184796211112312D+03 0.168836212776033D+03
 0.156813643483868D+04 0.520812808267775D+03 0.196259584500741D+03 0.146604504450047D+04
 0.163731841628823D+04 -.885633219406678D+02 -.114633733884292D+02 -.163488125727650D+04
 0.000000000000000D+00 -.000000000000000D+00 0.000000000000000D+00 -.000000000000000D+00
 0.204215409927074D+04 0.000000000000000D+00 0.000000000000000D+00 0.204215409927074D+04
 0.208725980393533D+04 0.000000000000000D+00 0.000000000000000D+00 -.208725980393533D+04
 0.485234363452640D+03 -.385388953829202D+03 -.206874539267568D+03 0.168836212776033D+03
 0.161682021716760D+04 0.670041824203729D+03 0.125950371000719D+03 0.146604504450047D+04
 0.163831276151265D+04 0.649141883182051D+02 -.837742639251202D+02 -.163488125727650D+04
 0.389046561073183D+03 -.349567058692733D+03 0.164698432191969D+03 -.451057046645825D+02
0.397576247455D-01 0.000000000000D+00 0.000000000000D+00 0.113820041648D-03 0.000000000000D+00  6 2 1 25 2 1 21 0 0.44764221D+00 0.18295763D+00 0.32052386D+06 0.32052386D+06 0.32052386D+06 0.10824320D+01  1  2  2  1  6  1        2 0.129536668223D-01 0.100000000000D+01
0.137180705881D-01 0.000000000000D+00 -.152679747446D-03 0.113820041648D-03 0.000000000000D+00  6 2 1 25 2 1 21 2 0.44764221D+00 0.18295763D+00 0.32052386D+06 0.32052386D+06 0.32052386D+06 0.10824320D+01  1  2  3  1  6  1        2 0.523680706696D-02 0.100000000000D+01
-.269872160554D-01 0.000000000000D+00 0.000000000000D+00 0.113820041648D-03 0.000000000000D+00  6 2 1 25 2 1 21 2 0.44764221D+00 0.18295763D+00 0.32052386D+06 0.32052386D+06 0.32052386D+06 0.10824320D+01  1  2 15  1  6  1        2 -.103022391414D-01 0.100000000000D+01
-.391962389956D-03 0.000000000000D+00 0.000000000000D+00 0.113820041648D-03 0.000000000000D+00  6 2 1 25 2 1 21 2 0.44764221D+00 0.18295763D+00 0.32052386D+06 0.32052386D+06 0.32052386D+06 0.10824320D+01  1  2  4  1  6  1        2 -.149629745708D-03 0.100000000000D+01
  </mgrwgt>
  </event>
  <event>
  5     66 0.18337608E-05 0.38325869E+02 0.75467711E-02 0.90984549E-01
        2 -1    0    0  501    0 0.00000000E+00 0.00000000E+00 0.96901551E+03 0.96901556E+03 0.32000000E+00 0.0000E+00 0.9000E+01
        1 -1    0    0  502    0 0.00000000E+00 0.00000000E+00 -.10310834E+04 0.10310835E+04 0.32000000E+00 0.0000E+00 0.9000E+01
       25  1    1    2    0    0 -.58389434E+02 0.57594543E+03 -.43192578E+02 0.59381231E+03 0.12500000E+03 0.0000E+00 0.9000E+01
        2  1    1    2  501    0 0.31698723E+02 -.21554925E+02 0.58490361E+03 0.58615848E+03 0.32000000E+00 0.0000E+00 0.9000E+01
        1  1    1    2  502    0 0.26690711E+02 -.55439050E+03 -.60377898E+03 0.82012827E+03 0.32000000E+00 0.0000E+00 0.9000E+01
#aMCatNLO 1  0  0  1  5 0.40313109D+02 0.00000000D+00  -5  6  0 0.00000000D+00 0.00000000D+00 0.00000000D+00 0.00000000D+00 0.00000000D+00
  <mgrwgt>
 0.2960189935D-02    4    2    0
 0.999567882723580D+03 0.000000000000000D+00 0.000000000000000D+00 0.999567882723580D+03
 0.999567882723580D+03 0.000000000000000D+00 0.000000000000000D+00 -.999567882723580D+03
 0.592830845230044D+03 -.583903641179925D+02 0.576024710269841D+03 -.246882480723535D+02
 0.604487077510792D+03 0.316927730449252D+02 -.215508789930409D+02 0.603270879977550D+03
 0.801817842706324D+03 0.266975910730673D+02 -.554473831276800D+03 -.578582631905197D+03
 0.000000000000000D+00 0.000000000000000D+00 -.000000000000000D+00 -.000000000000000D+00
 0.108773432899173D+04 0.000000000000000D+00 0.000000000000000D+00 0.108773432899173D+04
 0.115855668555592D+04 0.000000000000000D+00 0.000000000000000D+00 -.115855668555592D+04
 0.657617089607842D+03 -.881704790128510D+02 0.639102255966955D+03 -.246882480723535D+02
 0.604565590553629D+03 0.289850951282414D+01 0.394385255197806D+02 0.603270879977550D+03
 0.749433638919545D+03 -.102463280351097D+02 -.476222563475990D+03 -.578582631905197D+03
 0.234674695466638D+03 0.955182975351366D+02 -.202318218010745D+03 -.708223565641872D+02
0.666395880313D-03 0.000000000000D+00 0.000000000000D+00 0.102986509652D-04 0.000000000000D+00  6 2 1 25 2 1 21 0 0.14907932D+00 0.15862823D+00 0.35150588D+06 0.35150588D+06 0.35150588D+06 0.10794973D+01  1  2  2  1  6  1        2 0.362436471331D-02 0.100000000000D+01
0.360695124145D-03 0.000000000000D+00 -.255913564647D-05 0.102986509652D-04 0.000000000000D+00  6 2 1 25 2 1 21 2 0.14907932D+00 0.15862823D+00 0.35150588D+06 0.35150588D+06 0.35150588D+06 0.10794973D+01  1  2  3  1  6  1        2 0.228603564781D-02 0.100000000000D+01
-.413042135814D-03 0.000000000000D+00 0.000000000000D+00 0.102986509652D-04 0.000000000000D+00  6 2 1 25 2 1 21 2 0.14907932D+00 0.15862823D+00 0.35150588D+06 0.35150588D+06 0.35150588D+06 0.10794973D+01  1  2 15  1  6  1        2 -.261780374425D-02 0.100000000000D+01
-.524477689019D-04 0.000000000000D+00 0.000000000000D+00 0.102986509652D-04 0.000000000000D+00  6 2 1 25 2 1 21 2 0.14907932D+00 0.15862823D+00 0.35150588D+06 0.35150588D+06 0.35150588D+06 0.10794973D+01  1  2  4  1  6  1        2 -.332406681798D-03 0.100000000000D+01
  </mgrwgt>
  </event>
  <event>
  5     66 0.18337608E-05 0.45971830E+02 0.75467711E-02 0.90775031E-01
        2 -1    0    0  501    0 0.00000000E+00 0.00000000E+00 0.11292205E+04 0.11292205E+04 0.32000000E+00 0.0000E+00 0.9000E+01
        1 -1    0    0  502    0 0.00000000E+00 0.00000000E+00 -.21907491E+04 0.21907492E+04 0.32000000E+00 0.0000E+00 0.9000E+01
       25  1    1    2    0    0 -.50936693E+03 0.21319333E+03 -.47527113E+02 0.56814601E+03 0.12500000E+03 0.0000E+00 0.9000E+01
        2  1    1    2  501    0 0.48099827E+03 -.17702349E+03 0.79301112E+03 0.94422634E+03 0.32000000E+00 0.0000E+00 0.9000E+01
        1  1    1    2  502    0 0.28368661E+02 -.36169842E+02 -.18070127E+04 0.18075973E+04 0.32000000E+00 0.0000E+00 0.9000E+01
#aMCatNLO 1  0  0  1  5 0.68902610D+02 0.00000000D+00  -5  6  0 0.00000000D+00 0.00000000D+00 0.00000000D+00 0.00000000D+00 0.00000000D+00
  <mgrwgt>
 0.1156330638D-01    7    2    0
 0.157284418736303D+04 0.000000000000000D+00 0.000000000000000D+00 0.157284418736303D+04
 0.157284418736303D+04 0.000000000000000D+00 0.000000000000000D+00 -.157284418736303D+04
 0.583590964104941D+03 -.509349621084139D+03 0.213189170947114D+03 0.141657171640762D+03
 0.126409302370119D+04 0.480978430129587D+03 -.177016187959482D+03 0.115553286042431D+04
 0.129800438691993D+04 0.283711909545519D+02 -.361729829876324D+02 -.129719003206507D+04
 0.000000000000000D+00 -.000000000000000D+00 0.000000000000000D+00 0.000000000000000D+00
 0.186190440487968D+04 0.000000000000000D+00 0.000000000000000D+00 0.186190440487968D+04
 0.160835106468824D+04 0.000000000000000D+00 0.000000000000000D+00 -.160835106468824D+04
 0.562918931673980D+03 -.498915976599366D+03 0.179635235000306D+03 0.141657171640762D+03
 0.128560332829691D+04 0.504181566342204D+03 -.251635995772506D+03 0.115553286042431D+04
 0.130308131366371D+04 0.520419883669710D+02 -.112296759425032D+03 -.129719003206507D+04
 0.318651895933317D+03 -.573075781098085D+02 0.184297520197231D+03 0.253553340191441D+03
0.729593269683D-02 0.000000000000D+00 0.000000000000D+00 0.159621071053D-03 0.000000000000D+00  6 2 1 25 2 1 21 0 0.17372623D+00 0.33703833D+00 0.31619681D+06 0.31619681D+06 0.31619681D+06 0.10828664D+01  1  2  2  1  6  1        2 0.514662519873D-02 0.100000000000D+01
0.411211041689D-02 0.000000000000D+00 -.280183026190D-04 0.159621071053D-03 0.000000000000D+00  6 2 1 25 2 1 21 2 0.17372623D+00 0.33703833D+00 0.31619681D+06 0.31619681D+06 0.31619681D+06 0.10828664D+01  1  2  3  1  6  1        2 0.340138840805D-02 0.100000000000D+01
-.430628429240D-02 0.000000000000D+00 0.000000000000D+00 0.159621071053D-03 0.000000000000D+00  6 2 1 25 2 1 21 2 0.17372623D+00 0.33703833D+00 0.31619681D+06 0.31619681D+06 0.31619681D+06 0.10828664D+01  1  2 15  1  6  1        2 -.356200198657D-02 0.100000000000D+01
-.463680432551D-02 0.000000000000D+00 0.000000000000D+00 0.159621071053D-03 0.000000000000D+00  6 2 1 25 2 1 21 2 0.17372623D+00 0.33703833D+00 0.31619681D+06 0.31619681D+06 0.31619681D+06 0.10828664D+01  1  2  4  1  6  1        2 -.383539615532D-02 0.100000000000D+01
-.468449660797D-01 0.000000000000D+00 -.941873101481D-02 0.159621071053D-03 0.000000000000D+00  6 2 1 25 2 1 21 2 0.20768484D+00 0.33703833D+00 0.31619681D+06 0.31619681D+06 0.31619681D+06 0.10828664D+01  1  2  5  1  6  1        2 -.289197203246D-01 0.100000000000D+01
0.479091200893D-01 0.000000000000D+00 0.927057931491D-02 0.159621071053D-03 0.000000000000D+00  6 2 1 25 2 1 21 2 0.17372623D+00 0.33703833D+00 0.31619681D+06 0.31619681D+06 0.31619681D+06 0.10828664D+01  1  2  6  1  6  1        2 0.396286843471D-01 0.100000000000D+01
-.113857226253D-02 0.000000000000D+00 -.246830500644D-03 0.159621071053D-03 0.000000000000D+00  6 21 1 25 2 1 -2 2 0.20768484D+00 0.33703833D+00 0.31619681D+06 0.31619681D+06 0.31619681D+06 0.10828664D+01  1  2  5  5  6  1        2 -.296273107071D-03 0.100000000000D+01
  </mgrwgt>
  </event>
  <event>
  5     66 0.18337608E-05 0.15002819E+02 0.75467711E-02 0.85246478E-01
        2 -1    0    0  501    0 0.00000000E+00 0.00000000E+00 0.30996431E+04 0.30996431E+04 0.32000000E+00 0.0000E+00 0.9000E+01
        1 -1    0    0  502    0 0.00000000E+00 0.00000000E+00 -.50327033E+03 0.50327043E+03 0.32000000E+00 0.0000E+00 0.9000E+01
       25  1    1    2    0    0 -.25750760E+03 0.44496675E+03 0.17621999E+04 0.18399128E+04 0.12500000E+03 0.0000E+00 0.9000E+01
        2  1    1    2  501    0 -.73821884E+01 -.13068073E+02 0.11603372E+04 0.11604343E+04 0.32000000E+00 0.0000E+00 0.9000E+01
        1  1    1    2  502    0 0.26488979E+03 -.43189868E+03 -.32616432E+03 0.60256645E+03 0.32000000E+00 0.0000E+00 0.9000E+01
#aMCatNLO 1  0  0  2  1 0.51736009D+03 0.00000000D+00  -5  6  0 0.00000000D+00 0.00000000D+00 0.00000000D+00 0.00000000D+00 0.00000000D+00
  <mgrwgt>
 0.1084367518D-01    3    2    0
 0.124898302988160D+04 0.000000000000000D+00 0.000000000000000D+00 0.124898302988160D+04
 0.124898302988160D+04 0.000000000000000D+00 0.000000000000000D+00 -.124898302988160D+04
 0.822333924027150D+03 -.257543512018394D+03 0.445015868336308D+03 0.629476209996855D+03
 0.467497203023360D+03 -.737912931944342D+01 -.130626582404331D+02 0.467256407387684D+03
 0.120813493271269D+04 0.264922641337837D+03 -.431953210095875D+03 -.109673261738454D+04
 0.000000000000000D+00 -.000000000000000D+00 -.000000000000000D+00 0.000000000000000D+00
 0.250451302992832D+04 0.000000000000000D+00 0.000000000000000D+00 0.250451302992832D+04
 0.164205356308165D+04 0.000000000000000D+00 0.000000000000000D+00 -.164205356308165D+04
 0.109105939181690D+04 -.229165408982173D+03 0.852073067785790D+03 0.629476209996855D+03
 0.505993482612502D+03 0.705899939827396D+01 0.194038719664343D+03 0.467256407387684D+03
 0.113894715174782D+04 0.299732910964973D+03 0.673673698744271D+02 -.109673261738454D+04
 0.141056656683275D+04 -.776265013810743D+02 -.111347915732456D+04 0.862459466846673D+03
0.108919023789D-01 0.000000000000D+00 0.000000000000D+00 0.767204720163D-04 0.000000000000D+00  6 2 1 25 2 1 21 0 0.47686818D+00 0.77426213D-01 0.27608123D+06 0.27608123D+06 0.27608123D+06 0.10872317D+01  1  2  2  2  6  2        1 0.108845518713D-01 0.100000000000D+01
0.763634299387D-02 0.000000000000D+00 -.418277730388D-04 0.767204720163D-04 0.000000000000D+00  6 2 1 25 2 1 21 2 0.47686818D+00 0.77426213D-01 0.27608123D+06 0.27608123D+06 0.27608123D+06 0.10872317D+01  1  2  3  2  6  2        1 0.902062106490D-02 0.100000000000D+01
-.767094686535D-02 0.000000000000D+00 0.000000000000D+00 0.767204720163D-04 0.000000000000D+00  6 2 1 25 2 1 21 2 0.47686818D+00 0.77426213D-01 0.27608123D+06 0.27608123D+06 0.27608123D+06 0.10872317D+01  1  2 15  2  6  2        1 -.906149775316D-02 0.100000000000D+01
  </mgrwgt>
  </event>
  <event>
  6     66 0.18337608E-05 0.75768992E+02 0.75467711E-02 0.90445774E-01
        2 -1    0    0  501    0 0.00000000E+00 0.00000000E+00 0.15245902E+04 0.15245902E+04 0.32000000E+00 0.0000E+00 0.9000E+01
        1 -1    0    0  502    0 0.00000000E+00 0.00000000E+00 -.79323349E+03 0.79323355E+03 0.32000000E+00 0.0000E+00 0.9000E+01
       25  1    1    2    0    0 -.42471192E+03 -.56135442E+03 -.87569992E+02 0.72027252E+03 0.12500000E+03 0.0000E+00 0.9000E+01
        2  1    1    2  503    0 0.88435589E+02 0.19740668E+03 0.37975970E+03 0.43704437E+03 0.32000000E+00 0.0000E+00 0.9000E+01
        1  1    1    2  502    0 -.27084130E+02 0.23370869E+01 -.27779842E+03 0.27912555E+03 0.32000000E+00 0.0000E+00 0.9000E+01
       21  1    1    2  501  503 0.36336046E+03 0.36161066E+03 0.71696539E+03 0.88138132E+03 0.75000000E+00 0.0000E+00 0.9000E+01
#aMCatNLO 2  0  0  4  1 0.64189869D+02 0.00000000D+00  -5  6  0 0.00000000D+00 0.00000000D+00 0.00000000D+00 0.00000000D+00 0.00000000D+00
  <mgrwgt>
 0.1854825515D-02    1    2    0
 0.109970727882016D+04 0.000000000000000D+00 0.000000000000000D+00 0.109970727882016D+04
 0.109970727882016D+04 -.000000000000000D+00 -.000000000000000D+00 -.109970727882016D+04
 0.791112417350089D+03 -.426152903035662D+03 -.563151491982346D+03 -.333898123980708D+03
 0.102038319310584D+04 0.453971267378596D+03 0.561708783528440D+03 0.720815643333673D+03
 0.387918947184397D+03 -.278183643429338D+02 0.144270845390508D+01 -.386917519352965D+03
 0.000000000000000D+00 0.000000000000000D+00 0.000000000000000D+00 0.000000000000000D+00
 0.109970727882016D+04 0.000000000000000D+00 0.000000000000000D+00 0.109970727882016D+04
 0.109970727882016D+04 -.000000000000000D+00 -.000000000000000D+00 -.109970727882016D+04
 0.788030822728068D+03 -.424677727532287D+03 -.561326224400376D+03 -.331555840105264D+03
 0.333912527917441D+03 0.883070651777608D+02 0.197185560807748D+03 0.254592405913532D+03
 0.386725923354635D+03 -.270947205924289D+02 0.233808902094238D+01 -.385768517702317D+03
 0.690745283640181D+03 0.363465382946955D+03 0.361802574571686D+03 0.462731951894050D+03
0.414992045901D-03 0.000000000000D+00 0.000000000000D+00 0.502216203940D-05 0.119006615616D-08  6 2 1 25 2 1 21 2 0.23455234D+00 0.12203593D+00 0.54094684D+06 0.54094684D+06 0.54094684D+06 0.10661028D+01  1  2  1  3  6  4        2 0.185482551518D-02 0.100000000000D+01
  </mgrwgt>
  </event>
  <event>
  5     66 0.18337608E-05 0.15390511E+03 0.75467711E-02 0.91592181E-01
        2 -1    0    0  501    0 0.00000000E+00 0.00000000E+00 0.28222370E+04 0.28222370E+04 0.32000000E+00 0.0000E+00 0.9000E+01
        1 -1    0    0  502    0 0.00000000E+00 0.00000000E+00 -.60567231E+03 0.60567240E+03 0.32000000E+00 0.0000E+00 0.9000E+01
       25  1    1    2    0    0 -.12020533E+03 0.45908402E+03 0.24230986E+03 0.54730844E+03 0.12500000E+03 0.0000E+00 0.9000E+01
        2  1    1    2  501    0 0.93677896E+02 -.30749644E+03 0.24033462E+04 0.24247479E+04 0.32000000E+00 0.0000E+00 0.9000E+01
        1  1    1    2  502    0 0.26527434E+02 -.15158758E+03 -.42909135E+03 0.45585304E+03 0.32000000E+00 0.0000E+00 0.9000E+01
#aMCatNLO 1  0  0  1  5 0.13491273D+03 0.00000000D+00  -5  6  0 0.00000000D+00 0.00000000D+00 0.00000000D+00 0.00000000D+00 0.00000000D+00
  <mgrwgt>
 0.9548492200D-02    4    2    0
 0.130742150019982D+04 0.000000000000000D+00 0.000000000000000D+00 0.130742150019982D+04
 0.130742150019982D+04 0.000000000000000D+00 0.000000000000000D+00 -.130742150019982D+04
 0.512075601026756D+03 -.120205684265266D+03 0.459090548702028D+03 -.146228871053919D+03
 0.114139717682854D+04 0.936757155175096D+02 -.307489284697015D+03 0.109519985180375D+04
 0.961370222544349D+03 0.265299687477562D+02 -.151601264005013D+03 -.948970980749831D+03
 0.000000000000000D+00 0.000000000000000D+00 -.000000000000000D+00 -.000000000000000D+00
 0.141038017733306D+04 0.000000000000000D+00 0.000000000000000D+00 0.141038017733306D+04
 0.159549334845812D+04 0.000000000000000D+00 0.000000000000000D+00 -.159549334845812D+04
 0.531228593820098D+03 -.184171846409238D+03 0.459648416893376D+03 -.146228871053919D+03
 0.113815121094715D+04 -.460859786343041D+02 -.306270380812166D+03 0.109519985180375D+04
 0.965197556483916D+03 -.915900843904987D+02 -.150571103398256D+03 -.948970980749831D+03
 0.371296164540011D+03 0.321847909434041D+03 -.280693268295442D+01 -.185113171125054D+03
0.207164088109D-01 0.000000000000D+00 0.000000000000D+00 0.387426425944D-04 0.000000000000D+00  6 2 1 25 2 1 21 0 0.43419031D+00 0.93180364D-01 0.23333725D+06 0.23333725D+06 0.23333725D+06 0.10927199D+01  1  2  2  1  6  1        2 0.240399558910D-01 0.100000000000D+01
0.320697152878D-02 0.000000000000D+00 -.795564645897D-04 0.387426425944D-04 0.000000000000D+00  6 2 1 25 2 1 21 2 0.43419031D+00 0.93180364D-01 0.23333725D+06 0.23333725D+06 0.23333725D+06 0.10927199D+01  1  2  3  1  6  1        2 0.444356945459D-02 0.100000000000D+01
-.135726138782D-01 0.000000000000D+00 0.000000000000D+00 0.387426425944D-04 0.000000000000D+00  6 2 1 25 2 1 21 2 0.43419031D+00 0.93180364D-01 0.23333725D+06 0.23333725D+06 0.23333725D+06 0.10927199D+01  1  2 15  1  6  1        2 -.188061702160D-01 0.100000000000D+01
-.930017522071D-04 0.000000000000D+00 0.000000000000D+00 0.387426425944D-04 0.000000000000D+00  6 2 1 25 2 1 21 2 0.43419031D+00 0.93180364D-01 0.23333725D+06 0.23333725D+06 0.23333725D+06 0.10927199D+01  1  2  4  1  6  1        2 -.128862929284D-03 0.100000000000D+01
  </mgrwgt>
  </event>
  <event>
  6     66 0.18337608E-05 0.90034407E+02 0.75467711E-02 0.93234549E-01
        2 -1    0    0  501    0 0.00000000E+00 0.00000000E+00 0.26711530E+04 0.26711530E+04 0.32000000E+00 0.0000E+00 0.9000E+01
        1 -1    0    0  502    0 0.00000000E+00 0.00000000E+00 -.13304691E+04 0.13304691E+04 0.32000000E+00 0.0000E+00 0.9000E+01
       25  1    1    2    0    0 0.49271304E+03 0.24333136E+03 0.11646733E+03 0.57547018E+03 0.12500000E+03 0.0000E+00 0.9000E+01
        2  1    1    2  501    0 -.14626043E+02 0.18687298E+02 0.22551026E+04 0.22552274E+04 0.32000000E+00 0.0000E+00 0.9000E+01
        1  1    1    2  503    0 -.24846621E+03 -.12994541E+03 -.64009205E+03 0.69881271E+03 0.32000000E+00 0.0000E+00 0.9000E+01
       21  1    1    2  502  503 -.22962079E+03 -.13207325E+03 -.39079397E+03 0.47211179E+03 0.75000000E+00 0.0000E+00 0.9000E+01
#aMCatNLO 2  0  0  5  1 0.15451761D+03 0.00000000D+00  -5  6  0 0.00000000D+00 0.00000000D+00 0.00000000D+00 0.00000000D+00 0.00000000D+00
  <mgrwgt>
 0.5863599695D-01    1    2    0
 0.188517547984223D+04 0.000000000000000D+00 0.000000000000000D+00 0.188517547984223D+04
 0.188517547984223D+04 -.000000000000000D+00 -.000000000000000D+00 -.188517547984223D+04
 0.569471751781473D+03 0.492884672258541D+03 0.243425536759717D+03 -.805095272802751D+02
 0.159303263823770D+04 -.141909546776105D+02 0.189254296673330D+02 0.159285700281219D+04
 0.160784656966528D+04 -.478693717580930D+03 -.262350966427050D+03 -.151234747553191D+04
 0.000000000000000D+00 0.000000000000000D+00 -.000000000000000D+00 0.000000000000000D+00
 0.188517547984223D+04 0.000000000000000D+00 0.000000000000000D+00 0.188517547984223D+04
 0.188517547984223D+04 -.000000000000000D+00 -.000000000000000D+00 -.188517547984223D+04
 0.569370394956216D+03 0.492729133252737D+03 0.243340292673591D+03 -.810009250449308D+02
 0.159165975123838D+04 -.146259086257663D+02 0.186870505441922D+02 0.159148284334172D+04
 0.969032703412435D+03 -.248395247993159D+03 -.129905652246440D+03 -.927603742215208D+03
 0.640288110077424D+03 -.229707976633812D+03 -.132121690971343D+03 -.582878176081582D+03
0.138166315906D+00 0.000000000000D+00 0.000000000000D+00 0.482837868283D-03 0.301001836123D-06  6 2 1 25 2 1 21 2 0.41094661D+00 0.20468756D+00 0.32070536D+06 0.32070536D+06 0.32070536D+06 0.10824139D+01  1  2  1  4  6  5        1 0.586359969487D-01 0.100000000000D+01
  </mgrwgt>
  </event>
  <event>
  5     66 0.18337608E-05 0.22612387E+03 0.75467711E-02 0.93967733E-01
        2 -1    0    0  501    0 0.00000000E+00 0.00000000E+00 0.55866902E+03 0.55866911E+03 0.32000000E+00 0.0000E+00 0.9000E+01
        1 -1    0    0  502    0 -.00000000E+00 -.00000000E+00 -.15503329E+04 0.15503329E+04 0.32000000E+00 0.0000E+00 0.9000E+01
       25  1    1    2    0    0 0.42952436E+03 -.29631518E+03 -.17800017E+03 0.56533435E+03 0.12500000E+03 0.0000E+00 0.9000E+01
        2  1    1    2  501    0 -.23213325E+03 0.18608267E+03 0.29096428E+03 0.41614051E+03 0.32000000E+00 0.0000E+00 0.9000E+01
        1  1    1    2  502    0 -.19739111E+03 0.11023252E+03 -.11046280E+04 0.11275272E+04 0.32000000E+00 0.0000E+00 0.9000E+01
#aMCatNLO 1  0  0  4  4 0.31669800D+03 0.00000000D+00  -5  6  0 0.00000000D+00 0.00000000D+00 0.00000000D+00 0.00000000D+00 0.00000000D+00
  <mgrwgt>
 0.5478192958D-02    4    2    0
 0.930657347212818D+03 0.000000000000000D+00 0.000000000000000D+00 0.930657347212818D+03
 0.930657347212818D+03 -.000000000000000D+00 -.000000000000000D+00 -.930657347212818D+03
 0.545751422058242D+03 0.429524871973189D+03 -.296308364081610D+03 0.996461359526271D+02
 0.626446525058083D+03 -.232100269291774D+03 0.186056231330897D+03 0.551314603955833D+03
 0.689116747309311D+03 -.197424602681415D+03 0.110252132750713D+03 -.650960739908460D+03
 0.000000000000000D+00 0.000000000000000D+00 0.000000000000000D+00 0.000000000000000D+00
 0.930657347212818D+03 0.000000000000000D+00 0.000000000000000D+00 0.930657347212818D+03
 0.930657347212818D+03 -.000000000000000D+00 -.000000000000000D+00 -.930657347212818D+03
 0.521968521785769D+03 0.372498468355092D+03 -.250594855105885D+03 0.235102631637317D+03
 0.317199831643390D+03 -.281230732445949D+03 0.198572223770851D+02 -.145364022515811D+03
 0.580868437797196D+03 -.265253894596812D+03 0.164625453669860D+03 -.489843825554810D+03
 0.441277903199281D+03 0.173986158687669D+03 0.661121790589400D+02 0.400105216433305D+03
0.288133576595D-02 0.000000000000D+00 0.000000000000D+00 0.137623307252D-05 0.000000000000D+00  6 2 1 25 2 1 21 0 0.85949090D-01 0.23851276D+00 0.28098992D+06 0.28098992D+06 0.28098992D+06 0.10866616D+01  1  2  2  3  6  4        2 0.136998032539D-01 0.100000000000D+01
0.279063474754D-03 0.000000000000D+00 -.110650880144D-04 0.137623307252D-05 0.000000000000D+00  6 2 1 25 2 1 21 2 0.85949090D-01 0.23851276D+00 0.28098992D+06 0.28098992D+06 0.28098992D+06 0.10866616D+01  1  2  3  3  6  4        2 0.156679462178D-02 0.100000000000D+01
-.171570049222D-02 0.000000000000D+00 0.000000000000D+00 0.137623307252D-05 0.000000000000D+00  6 2 1 25 2 1 21 2 0.85949090D-01 0.23851276D+00 0.28098992D+06 0.28098992D+06 0.28098992D+06 0.10866616D+01  1  2 15  3  6  4        2 -.963275579567D-02 0.100000000000D+01
-.277228325603D-04 0.000000000000D+00 0.000000000000D+00 0.137623307252D-05 0.000000000000D+00  6 2 1 25 2 1 21 2 0.85949090D-01 0.23851276D+00 0.28098992D+06 0.28098992D+06 0.28098992D+06 0.10866616D+01  1  2  4  3  6  4        2 -.155649122460D-03 0.100000000000D+01
  </mgrwgt>
  </event>
  <event>
  6     66 0.18337608E-05 0.51678553E+02 0.75467711E-02 0.93138678E-01
        2 -1    0    0  501    0 0.00000000E+00 0.00000000E+00 0.30610367E+04 0.30610367E+04 0.32000000E+00 0.0000E+00 0.9000E+01
       21 -1    0    0  502  503 0.00000000E+00 0.00000000E+00 -.13598372E+03 0.13598579E+03 0.75000000E+00 0.0000E+00 0.9000E+01
       25  1    1    2    0    0 0.47716421E+03 0.35402188E+02 0.16006587E+04 0.16753126E+04 0.12500000E+03 0.0000E+00 0.9000E+01
        2  1    1    2  501    0 -.55107891E+03 -.61681924E+02 0.13069752E+04 0.14197454E+04 0.32000000E+00 0.0000E+00 0.9000E+01
        1  1    1    2  502    0 0.83022513E+01 0.26604396E+02 -.11638816E+02 0.30204068E+02 0.32000000E+00 0.0000E+00 0.9000E+01
       -1  1    1    2    0  503 0.65612457E+02 -.32466053E+00 0.29057861E+02 0.71760446E+02 0.32000000E+00 0.0000E+00 0.9000E+01
#aMCatNLO 2  0  0  2  1 0.65613260D+02 0.00000000D+00  -5  6  0 0.00000000D+00 0.00000000D+00 0.00000000D+00 0.00000000D+00 0.00000000D+00
  <mgrwgt>
 0.1222994762D-03    1    2    0
 0.586551379088994D+03 0.000000000000000D+00 0.000000000000000D+00 0.586551379088994D+03
 0.586551379088994D+03 0.000000000000000D+00 0.000000000000000D+00 -.586551379088994D+03
 0.538391506404654D+03 0.506486635322550D+03 0.352573826723723D+02 0.128330118738389D+03
 0.525056838198910D+03 -.520899224729569D+03 -.618313448301110D+02 -.229252221814707D+02
 0.109654413574424D+03 0.144125894070190D+02 0.265739621577387D+02 -.105404896556918D+03
 0.000000000000000D+00 0.000000000000000D+00 -.000000000000000D+00 -.000000000000000D+00
 0.597304319061918D+03 0.000000000000000D+00 0.000000000000000D+00 0.597304319061918D+03
 0.696887959378747D+03 0.000000000000000D+00 0.000000000000000D+00 -.696887959378747D+03
 0.510914585255528D+03 0.477165337427984D+03 0.354024689627292D+02 0.128330118738389D+03
 0.554994615416669D+03 -.551079656030426D+03 -.616820074155614D+02 -.229252221814707D+02
 0.109027044916337D+03 0.830186133692759D+01 0.266041989798009D+02 -.105404896556918D+03
 0.119256032852130D+03 0.656124572655146D+02 -.324660526968657D+00 -.995836403168291D+02
0.221913653126D-05 0.000000000000D+00 0.000000000000D+00 0.812574186922D-07 0.354624019053D-11  6 2 21 25 2 1 -1 2 0.47092871D+00 0.20920725D-01 0.32634875D+06 0.32634875D+06 0.32634875D+06 0.10818573D+01  1  2  1  6  6  2        1 0.122299476214D-03 0.100000000000D+01
  </mgrwgt>
  </event>
  <event>
  5     66 0.18337608E-05 0.92787157E+02 0.75467711E-02 0.88290541E-01
        2 -1    0    0  501    0 0.00000000E+00 0.00000000E+00 0.53794380E+03 0.53794390E+03 0.32000000E+00 0.0000E+00 0.9000E+01
        1 -1    0    0  502    0 0.00000000E+00 0.00000000E+00 -.23068624E+04 0.23068624E+04 0.32000000E+00 0.0000E+00 0.9000E+01
       25  1    1    2    0    0 0.68783437E+02 -.58341012E+03 -.36458104E+03 0.70259723E+03 0.12500000E+03 0.0000E+00 0.9000E+01
        2  1    1    2  501    0 -.87961950E+02 0.49263879E+03 0.19727581E+03 0.53791089E+03 0.32000000E+00 0.0000E+00 0.9000E+01
        1  1    1    2  502    0 0.19178514E+02 0.90771333E+02 -.16016133E+04 0.16042982E+04 0.32000000E+00 0.0000E+00 0.9000E+01
#aMCatNLO 1  0  0  1  4 0.29779519D+01 0.00000000D+00  -5  6  0 0.00000000D+00 0.00000000D+00 0.00000000D+00 0.00000000D+00 0.00000000D+00
  <mgrwgt>
 0.3832094467D-02    6    2    0
 0.111398495625698D+04 0.000000000000000D+00 0.000000000000000D+00 0.111398495625698D+04
 0.111398495625698D+04 0.000000000000000D+00 0.000000000000000D+00 -.111398495625698D+04
 0.607648854936143D+03 0.687746751414418D+02 -.583384863049337D+03 0.924352558783786D+02
 0.843402785899212D+03 -.879553526883169D+02 0.492601835394983D+03 0.678922342364368D+03
 0.776918271678603D+03 0.191806775468751D+02 0.907830276543538D+02 -.771357598242747D+03
 0.000000000000000D+00 -.000000000000000D+00 0.000000000000000D+00 0.000000000000000D+00
 0.213143993235397D+04 0.000000000000000D+00 0.000000000000000D+00 0.213143993235397D+04
 0.120078709232293D+04 0.000000000000000D+00 0.000000000000000D+00 -.120078709232293D+04
 0.647483755236978D+03 0.204419226471999D+03 -.594372540259952D+03 0.924352558783786D+02
 0.835504636898148D+03 0.934873428842876D+02 0.477904350301629D+03 0.678922342364368D+03
 0.797989472491407D+03 0.189383931460814D+03 0.769959761594121D+02 -.771357598242747D+03
 0.105124916005037D+04 -.487290500817101D+03 0.394722137989108D+02 0.930652840031036D+03
0.122317775793D-02 0.000000000000D+00 0.000000000000D+00 0.704506212841D-05 0.000000000000D+00  6 2 1 25 2 1 21 0 0.82760594D-01 0.35490191D+00 0.35626383D+06 0.35626383D+06 0.35626383D+06 0.10790717D+01  1  2  2  1  6  1        2 0.186936056544D-02 0.100000000000D+01
0.351055718399D-03 0.000000000000D+00 -.469732466055D-05 0.704506212841D-05 0.000000000000D+00  6 2 1 25 2 1 21 2 0.82760594D-01 0.35490191D+00 0.35626383D+06 0.35626383D+06 0.35626383D+06 0.10790717D+01  1  2  3  1  6  1        2 0.624712478667D-03 0.100000000000D+01
-.730626177241D-03 0.000000000000D+00 0.000000000000D+00 0.704506212841D-05 0.000000000000D+00  6 2 1 25 2 1 21 2 0.82760594D-01 0.35490191D+00 0.35626383D+06 0.35626383D+06 0.35626383D+06 0.10790717D+01  1  2 15  1  6  1        2 -.130016765500D-02 0.100000000000D+01
-.263339104582D-02 0.000000000000D+00 -.708326119448D-03 0.704506212841D-05 0.000000000000D+00  6 2 1 25 2 1 21 2 0.16380474D+00 0.35490191D+00 0.35626383D+06 0.35626383D+06 0.35626383D+06 0.10790717D+01  1  2  5  1  6  1        2 -.195403387611D-02 0.100000000000D+01
0.262033592971D-02 0.000000000000D+00 0.570196254479D-03 0.704506212841D-05 0.000000000000D+00  6 2 1 25 2 1 21 2 0.82760594D-01 0.35490191D+00 0.35626383D+06 0.35626383D+06 0.35626383D+06 0.10790717D+01  1  2  6  1  6  1        2 0.466295367885D-02 0.100000000000D+01
-.152503944308D-03 0.000000000000D+00 -.523529745556D-04 0.704506212841D-05 0.000000000000D+00  6 21 1 25 2 1 -2 2 0.16380474D+00 0.35490191D+00 0.35626383D+06 0.35626383D+06 0.35626383D+06 0.10790717D+01  1  2  5  5  6  1        2 -.707307252025D-04 0.100000000000D+01
  </mgrwgt>
  </event>
  <event>
  5     66 0.18337608E-05 0.12261894E+03 0.75467711E-02 0.88202362E-01
        2 -1    0    0  501    0 0.00000000E+00 0.00000000E+00 0.13965461E+04 0.13965461E+04 0.32000000E+00 0.0000E+00 0.9000E+01
        1 -1    0    0  502    0 0.00000000E+00 0.00000000E+00 -.19796391E+04 0.19796392E+04 0.32000000E+00 0.0000E+00 0.9000E+01
       25  1    1    2    0    0 0.56756504E+03 0.64290954E+02 -.21243062E+03 0.62210543E+03 0.12500000E+03 0.0000E+00 0.9000E+01
        2  1    1    2  501    0 -.52216194E+03 -.17818507E+03 0.11252072E+04 0.12531937E+04 0.32000000E+00 0.0000E+00 0.9000E+01
        1  1    1    2  502    0 -.45403095E+02 0.11389412E+03 -.14958696E+04 0.15008862E+04 0.32000000E+00 0.0000E+00 0.9000E+01
#aMCatNLO 1  0  0  2  1 0.48810393D+03 0.00000000D+00  -5  6  0 0.00000000D+00 0.00000000D+00 0.00000000D+00 0.00000000D+00 0.00000000D+00
  <mgrwgt>
 0.4267672344D-02    7    2    0
 0.166272590134304D+04 0.000000000000000D+00 0.000000000000000D+00 0.166272590134304D+04
 0.166272590134304D+04 0.000000000000000D+00 0.000000000000000D+00 -.166272590134304D+04
 0.594329491524663D+03 0.567559499140776D+03 0.642800906766552D+02 -.106521497237117D+03
 0.146958307364112D+04 -.522152674581935D+03 -.178181909008267D+03 0.136208744288375D+04
 0.126153923752030D+04 -.454068245588409D+02 0.113901818331611D+03 -.125556594564663D+04
 0.000000000000000D+00 0.000000000000000D+00 0.000000000000000D+00 -.000000000000000D+00
 0.174846187766328D+04 0.000000000000000D+00 0.000000000000000D+00 0.174846187766328D+04
 0.221084575358731D+04 0.000000000000000D+00 0.000000000000000D+00 -.221084575358731D+04
 0.534550318322686D+03 0.507578442231631D+03 0.337096192051875D+02 -.106521497237117D+03
 0.154544378307070D+04 -.682350860338740D+03 -.259829921227815D+03 0.136208744288375D+04
 0.126919598841227D+04 -.179873020414683D+03 0.453685977430782D+02 -.125556594564663D+04
 0.610117541444930D+03 0.354645438521793D+03 0.180751704279549D+03 -.462383875924031D+03
0.280556897258D-02 0.000000000000D+00 0.000000000000D+00 0.277246733319D-04 0.000000000000D+00  6 2 1 25 2 1 21 0 0.21485325D+00 0.30455987D+00 0.39629676D+06 0.39629676D+06 0.39629676D+06 0.10757189D+01  1  2  2  2  6  2        1 0.189046701600D-02 0.100000000000D+01
0.708043505255D-03 0.000000000000D+00 -.107741235780D-04 0.277246733319D-04 0.000000000000D+00  6 2 1 25 2 1 21 2 0.21485325D+00 0.30455987D+00 0.39629676D+06 0.39629676D+06 0.39629676D+06 0.10757189D+01  1  2  3  2  6  2        1 0.552084726328D-03 0.100000000000D+01
-.188967465851D-02 0.000000000000D+00 0.000000000000D+00 0.277246733319D-04 0.000000000000D+00  6 2 1 25 2 1 21 2 0.21485325D+00 0.30455987D+00 0.39629676D+06 0.39629676D+06 0.39629676D+06 0.10757189D+01  1  2 15  2  6  2        1 -.147344126307D-02 0.100000000000D+01
-.523350055250D-04 0.000000000000D+00 0.000000000000D+00 0.277246733319D-04 0.000000000000D+00  6 2 1 25 2 1 21 2 0.21485325D+00 0.30455987D+00 0.39629676D+06 0.39629676D+06 0.39629676D+06 0.10757189D+01  1  2  4  2  6  2        1 -.408073190252D-04 0.100000000000D+01
-.591267652788D-02 0.000000000000D+00 -.191181408216D-02 0.277246733319D-04 0.000000000000D+00  6 2 1 25 2 1 21 2 0.21485325D+00 0.41107801D+00 0.39629676D+06 0.39629676D+06 0.39629676D+06 0.10757189D+01  1  2  5  2  6  2        1 -.154649327992D-02 0.100000000000D+01
0.628417975845D-02 0.000000000000D+00 0.182893983628D-02 0.277246733319D-04 0.000000000000D+00  6 2 1 25 2 1 21 2 0.21485325D+00 0.30455987D+00 0.39629676D+06 0.39629676D+06 0.39629676D+06 0.10757189D+01  1  2  6  2  6  2        1 0.489998091416D-02 0.100000000000D+01
-.185662305845D-03 0.000000000000D+00 -.738865864270D-04 0.277246733319D-04 0.000000000000D+00  6 2 21 25 2 1 -1 2 0.21485325D+00 0.41107801D+00 0.39629676D+06 0.39629676D+06 0.39629676D+06 0.10757189D+01  1  2  5  6  6  2        1 -.141184507275D-04 0.100000000000D+01
  </mgrwgt>
  </event>
  <event>
  5     66 0.18337608E-05 0.22399934E+03 0.75467711E-02 0.84229410E-01
        2 -1    0    0  501    0 0.00000000E+00 0.00000000E+00 0.15867074E+04 0.15867075E+04 0.32000000E+00 0.0000E+00 0.9000E+01
        1 -1    0    0  502    0 -.00000000E+00 -.00000000E+00 -.23528922E+04 0.23528922E+04 0.32000000E+00 0.0000E+00 0.9000E+01
       25  1    1    2    0    0 0.78753265E+03 0.50030331E+03 0.96052835E+03 0.13448981E+04 0.12500000E+03 0.0000E+00 0.9000E+01
        2  1    1    2  501    0 -.58694984E+03 -.40063647E+03 0.13177816E+03 0.72276226E+03 0.32000000E+00 0.0000E+00 0.9000E+01
        1  1    1    2  502    0 -.20058280E+03 -.99666843E+02 -.18584913E+04 0.18719394E+04 0.32000000E+00 0.0000E+00 0.9000E+01
#aMCatNLO 1  0  0  5  1 0.66023505D+02 0.00000000D+00  -5  6  0 0.00000000D+00 0.00000000D+00 0.00000000D+00 0.00000000D+00 0.00000000D+00
  <mgrwgt>
 0.7723595568D-05    4    2    0
 0.193218830796582D+04 0.000000000000000D+00 0.000000000000000D+00 0.193218830796582D+04
 0.193218830796582D+04 -.000000000000000D+00 -.000000000000000D+00 -.193218830796582D+04
 0.156158211616189D+04 0.787404385962143D+03 0.500212739704596D+03 0.124607192951348D+04
 0.762769418960601D+03 -.586804149576009D+03 -.400537024450770D+03 0.277575518707959D+03
 0.154002508080915D+04 -.200600236386133D+03 -.996757152538251D+02 -.152364744822144D+04
 0.000000000000000D+00 0.000000000000000D+00 0.000000000000000D+00 0.000000000000000D+00
 0.193218830796582D+04 0.000000000000000D+00 0.000000000000000D+00 0.193218830796582D+04
 0.193218830796582D+04 -.000000000000000D+00 -.000000000000000D+00 -.193218830796582D+04
 0.131688799429157D+04 0.749922827514319D+03 0.481588628315597D+03 0.961382928577002D+03
 0.743379650886538D+03 -.606416239410674D+03 -.410282023345635D+03 0.128613029085777D+03
 0.126071806776921D+04 -.143695164560518D+03 -.614695937905886D+03 -.109128852738571D+04
 0.543390902984323D+03 0.188576456873672D+00 0.543389332935925D+03 0.129256972292829D+01
0.650338942129D-04 0.000000000000D+00 0.000000000000D+00 0.898032418415D-07 0.000000000000D+00  6 2 1 25 2 1 21 0 0.24410884D+00 0.36198342D+00 0.87952782D+06 0.87952782D+06 0.87952782D+06 0.10515954D+01  1  2  2  4  6  5        1 0.178808969585D-04 0.100000000000D+01
0.116507250294D-04 0.000000000000D+00 -.249747277595D-06 0.898032418415D-07 0.000000000000D+00  6 2 1 25 2 1 21 2 0.24410884D+00 0.36198342D+00 0.87952782D+06 0.87952782D+06 0.87952782D+06 0.10515954D+01  1  2  3  4  6  5        1 0.354241806398D-05 0.100000000000D+01
-.396341546099D-04 0.000000000000D+00 0.000000000000D+00 0.898032418415D-07 0.000000000000D+00  6 2 1 25 2 1 21 2 0.24410884D+00 0.36198342D+00 0.87952782D+06 0.87952782D+06 0.87952782D+06 0.10515954D+01  1  2 15  4  6  5        1 -.120508161412D-04 0.100000000000D+01
-.542310894760D-05 0.000000000000D+00 0.000000000000D+00 0.898032418415D-07 0.000000000000D+00  6 2 1 25 2 1 21 2 0.24410884D+00 0.36198342D+00 0.87952782D+06 0.87952782D+06 0.87952782D+06 0.10515954D+01  1  2  4  4  6  5        1 -.164890331292D-05 0.100000000000D+01
  </mgrwgt>
  </event>
  <event>
  5     66 0.18337608E-05 0.26427834E+02 0.75467711E-02 0.89177557E-01
        2 -1    0    0  501    0 0.00000000E+00 0.00000000E+00 0.41229890E+04 0.41229891E+04 0.32000000E+00 0.0000E+00 0.9000E+01
        1 -1    0    0  502    0 0.00000000E+00 0.00000000E+00 -.64950289E+03 0.64950297E+03 0.32000000E+00 0.0000E+00 0.9000E+01
       25  1    1    2    0    0 0.56340021E+02 0.48410753E+03 0.40237104E+03 0.64425286E+03 0.12500000E+03 0.0000E+00 0.9000E+01
        2  1    1    2  501    0 -.37793616E+02 -.46528291E+03 0.35842012E+04 0.36144729E+04 0.32000000E+00 0.0000E+00 0.9000E+01
        1  1    1    2  502    0 -.18546406E+02 -.18824616E+02 -.51308605E+03 0.51376623E+03 0.32000000E+00 0.0000E+00 0.9000E+01
#aMCatNLO 1  0  0  2  1 0.16057875D+03 0.00000000D+00  -5  6  0 0.00000000D+00 0.00000000D+00 0.00000000D+00 0.00000000D+00 0.00000000D+00
  <mgrwgt>
 0.5096891918D-02    7    2    0
 0.163642706394341D+04 0.000000000000000D+00 0.000000000000000D+00 0.163642706394341D+04
 0.163642706394341D+04 0.000000000000000D+00 0.000000000000000D+00 -.163642706394341D+04
 0.512399238515590D+03 0.563406920959282D+02 0.484101937207948D+03 -.969485453063613D+02
 0.146670113041629D+04 -.377930546914387D+02 -.465276009743220D+03 0.139043235209014D+04
 0.129375375895495D+04 -.185476374044895D+02 -.188259274647284D+02 -.129348380678378D+04
 0.000000000000000D+00 0.000000000000000D+00 0.000000000000000D+00 -.000000000000000D+00
 0.168654466570164D+04 0.000000000000000D+00 0.000000000000000D+00 0.168654466570164D+04
 0.304912136262328D+04 0.000000000000000D+00 0.000000000000000D+00 -.304912136262328D+04
 0.506765079991367D+03 -.123273532005153D+02 0.481284595873072D+03 -.969485453063613D+02
 0.148780120644053D+04 -.236858010765396D+03 -.473443330170812D+03 0.139043235209014D+04
 0.130818895772617D+04 -.193858249327753D+03 -.260186447072478D+02 -.129348380678378D+04
 0.143291078416686D+04 0.443043613293665D+03 0.181773790049875D+02 -.136257669692164D+04
0.953063981952D-02 0.000000000000D+00 0.000000000000D+00 0.524682005302D-03 0.000000000000D+00  6 2 1 25 2 1 21 0 0.63430601D+00 0.99923529D-01 0.24819343D+06 0.24819343D+06 0.24819343D+06 0.10906961D+01  1  2  2  2  6  2        1 0.117314205413D-02 0.100000000000D+01
0.703904476434D-02 0.000000000000D+00 -.366001663820D-04 0.524682005302D-03 0.000000000000D+00  6 2 1 25 2 1 21 2 0.63430601D+00 0.99923529D-01 0.24819343D+06 0.24819343D+06 0.24819343D+06 0.10906961D+01  1  2  3  2  6  2        1 0.103074165035D-02 0.100000000000D+01
-.640489681952D-02 0.000000000000D+00 0.000000000000D+00 0.524682005302D-03 0.000000000000D+00  6 2 1 25 2 1 21 2 0.63430601D+00 0.99923529D-01 0.24819343D+06 0.24819343D+06 0.24819343D+06 0.10906961D+01  1  2 15  2  6  2        1 -.937882076202D-03 0.100000000000D+01
-.774884624739D-04 0.000000000000D+00 0.000000000000D+00 0.524682005302D-03 0.000000000000D+00  6 2 1 25 2 1 21 2 0.63430601D+00 0.99923529D-01 0.24819343D+06 0.24819343D+06 0.24819343D+06 0.10906961D+01  1  2  4  2  6  2        1 -.113467932606D-04 0.100000000000D+01
-.489788550979D-01 0.000000000000D+00 -.536380932382D-02 0.524682005302D-03 0.000000000000D+00  6 2 1 25 2 1 21 2 0.63430601D+00 0.18812211D+00 0.24819343D+06 0.24819343D+06 0.24819343D+06 0.10906961D+01  1  2  5  2  6  2        1 -.246429418141D-02 0.100000000000D+01
0.441556895312D-01 0.000000000000D+00 0.444424244286D-02 0.524682005302D-03 0.000000000000D+00  6 2 1 25 2 1 21 2 0.63430601D+00 0.99923529D-01 0.24819343D+06 0.24819343D+06 0.24819343D+06 0.10906961D+01  1  2  6  2  6  2        1 0.646580748147D-02 0.100000000000D+01
-.306814292372D-02 0.000000000000D+00 -.369187186272D-03 0.524682005302D-03 0.000000000000D+00  6 2 21 25 2 1 -1 2 0.63430601D+00 0.18812211D+00 0.24819343D+06 0.24819343D+06 0.24819343D+06 0.10906961D+01  1  2  5  6  6  2        1 -.159276217285D-03 0.100000000000D+01
  </mgrwgt>
  </event>
  <event>
  5     66 0.18337608E-05 0.10868702E+03 0.75467711E-02 0.92463726E-01
        2 -1    0    0  501    0 0.00000000E+00 0.00000000E+00 0.13171095E+04 0.13171096E+04 0.32000000E+00 0.0000E+00 0.9000E+01
        1 -1    0    0  502    0 0.00000000E+00 0.00000000E+00 -.84386251E+03 0.84386258E+03 0.32000000E+00 0.0000E+00 0.9000E+01
       25  1    1    2    0    0 -.57499629E+03 -.16459684E+03 -.14901325E+03 0.62892193E+03 0.12500000E+03 0.0000E+00 0.9000E+01
        2  1    1    2  501    0 0.90744656E+02 0.59838397E+02 0.93817313E+03 0.94444912E+03 0.32000000E+00 0.0000E+00 0.9000E+01
        1  1    1    2  502    0 0.48425163E+03 0.10475844E+03 -.31591288E+03 0.58760107E+03 0.32000000E+00 0.0000E+00 0.9000E+01
#aMCatNLO 1  0  0  4  1 0.90298860D+01 0.00000000D+00  -5  6  0 0.00000000D+00 0.00000000D+00 0.00000000D+00 0.00000000D+00 0.00000000D+00
  <mgrwgt>
 0.2219921268D-01    9    2    0
 0.105425777352958D+04 0.000000000000000D+00 0.000000000000000D+00 0.105425777352958D+04
 0.105425777352958D+04 -.000000000000000D+00 -.000000000000000D+00 -.105425777352958D+04
 0.678038656559647D+03 -.575057962290462D+03 -.164609473368377D+03 -.293808578964157D+03
 0.757301080351564D+03 0.907356005298914D+02 0.598324250848394D+02 0.749461178451955D+03
 0.673175810147940D+03 0.484322361760571D+03 0.104777048283538D+03 -.455652599487797D+03
 0.000000000000000D+00 0.000000000000000D+00 0.000000000000000D+00 0.000000000000000D+00
 0.105425777352958D+04 0.000000000000000D+00 0.000000000000000D+00 0.105425777352958D+04
 0.105425777352958D+04 -.000000000000000D+00 -.000000000000000D+00 -.105425777352958D+04
 0.677908380170039D+03 -.575029557059624D+03 -.164590742530248D+03 -.293573956416300D+03
 0.697156985509919D+03 0.781149528885797D+02 0.479485424267063D+02 0.691105530190322D+03
 0.673041352650885D+03 0.484350563163893D+03 0.104795644714726D+03 -.455419660521784D+03
 0.604088287283074D+02 0.125640410071517D+02 0.118465553888153D+02 0.578880867477612D+02
0.441893025838D-04 0.000000000000D+00 0.000000000000D+00 0.199669369776D-05 0.000000000000D+00  6 2 1 25 2 1 21 0 0.20263224D+00 0.12982501D+00 0.36923161D+06 0.36923161D+06 0.36923161D+06 0.10779425D+01  1  2  2  3  6  4        2 0.209830028827D-03 0.100000000000D+01
0.107948730068D-04 0.000000000000D+00 -.169698557233D-06 0.199669369776D-05 0.000000000000D+00  6 2 1 25 2 1 21 2 0.20263224D+00 0.12982501D+00 0.36923161D+06 0.36923161D+06 0.36923161D+06 0.10779425D+01  1  2  3  3  6  4        2 0.595606236213D-04 0.100000000000D+01
-.263571114112D-04 0.000000000000D+00 0.000000000000D+00 0.199669369776D-05 0.000000000000D+00  6 2 1 25 2 1 21 2 0.20263224D+00 0.12982501D+00 0.36923161D+06 0.36923161D+06 0.36923161D+06 0.10779425D+01  1  2 15  3  6  4        2 -.145425146875D-03 0.100000000000D+01
0.509377420154D-02 0.000000000000D+00 0.000000000000D+00 0.199669369776D-05 0.000000000000D+00  6 2 1 25 2 1 21 2 0.20263224D+00 0.12982501D+00 0.36937628D+06 0.36937628D+06 0.36937628D+06 0.10779302D+01  1  2 12  3  6  4        2 0.281036145637D-01 0.100000000000D+01
0.597898530541D-07 0.000000000000D+00 0.000000000000D+00 0.199669369776D-05 0.000000000000D+00  6 2 1 25 2 1 21 2 0.20263224D+00 0.12982501D+00 0.36937628D+06 0.36937628D+06 0.36937628D+06 0.10779302D+01  1  2 12  3  6  4        2 0.329875435889D-06 0.100000000000D+01
-.173824629598D-02 0.000000000000D+00 0.000000000000D+00 0.199669369776D-05 0.000000000000D+00  6 2 1 25 2 1 21 2 0.20263224D+00 0.12982501D+00 0.36923161D+06 0.36923161D+06 0.36923161D+06 0.10779425D+01  1  2  4  3  6  4        2 -.959075973671D-02 0.100000000000D+01
-.777879183841D-02 0.000000000000D+00 0.000000000000D+00 0.199669369776D-05 0.000000000000D+00  6 2 1 25 2 1 21 2 0.20263224D+00 0.12982501D+00 0.36923161D+06 0.36923161D+06 0.36923161D+06 0.10779425D+01  1  2  5  3  6  4        2 -.429194204161D-01 0.100000000000D+01
0.842395804451D-02 0.000000000000D+00 -.000000000000D+00 0.199669369776D-05 0.000000000000D+00  6 2 1 25 2 1 21 2 0.20263224D+00 0.12982501D+00 0.36923161D+06 0.36923161D+06 0.36923161D+06 0.10779425D+01  1  2  6  3  6  4        2 0.464791196873D-01 0.100000000000D+01
0.428330255648D-06 0.000000000000D+00 0.000000000000D+00 0.199669369776D-05 0.301697060977D-07  6 2 1 25 2 1 21 2 0.20263224D+00 0.12982501D+00 0.36937628D+06 0.36937628D+06 0.36937628D+06 0.10779302D+01  1  2 11  3  6  4        2 0.236320416540D-05 0.100000000000D+01
  </mgrwgt>
  </event>
  <event>
  5     66 0.18337608E-05 0.11189674E+03 0.75467711E-02 0.93600795E-01
        2 -1    0    0  501    0 0.00000000E+00 0.00000000E+00 0.53615551E+03 0.53615560E+03 0.32000000E+00 0.0000E+00 0.9000E+01
        1 -1    0    0  502    0 -.00000000E+00 -.00000000E+00 -.12825044E+04 0.12825045E+04 0.32000000E+00 0.0000E+00 0.9000E+01
       25  1    1    2    0    0 -.47779586E+03 0.10974075E+03 -.23334096E+03 0.55713995E+03 0.12500000E+03 0.0000E+00 0.9000E+01
        2  1    1    2  501    0 0.37187627E+00 -.11192326E+03 0.29916388E+03 0.31941523E+03 0.32000000E+00 0.0000E+00 0.9000E+01
        1  1    1    2  502    0 0.47742399E+03 0.21825084E+01 -.81217186E+03 0.94210491E+03 0.32000000E+00 0.0000E+00 0.9000E+01
#aMCatNLO 1  0  0  5  2 0.22850758D+02 0.00000000D+00  -5  6  0 0.00000000D+00 0.00000000D+00 0.00000000D+00 0.00000000D+00 0.00000000D+00
  <mgrwgt>
 0.6580133211D-02    8    2    0
 0.829229728182454D+03 0.000000000000000D+00 0.000000000000000D+00 0.829229728182454D+03
 0.829229728182454D+03 -.000000000000000D+00 -.000000000000000D+00 -.829229728182454D+03
 0.506023248703283D+03 -.477879672035764D+03 0.109726489251207D+03 -.506407344152058D+01
 0.484783159432112D+03 0.371786108836177D+00 -.111896125133369D+03 0.471692517032237D+03
 0.667653048229512D+03 0.477507885926927D+03 0.216963588216252D+01 -.466628443590717D+03
 0.000000000000000D+00 0.000000000000000D+00 0.000000000000000D+00 0.000000000000000D+00
 0.829229728182454D+03 0.000000000000000D+00 0.000000000000000D+00 0.829229728182454D+03
 0.829229728182454D+03 -.000000000000000D+00 -.000000000000000D+00 -.829229728182454D+03
 0.505524054058529D+03 -.477344655200141D+03 0.109728920188492D+03 -.558690056261936D+01
 0.484295948030292D+03 0.884341118499476D+00 -.111893796255096D+03 0.471191639971433D+03
 0.534628910997449D+03 0.371540244768235D+03 0.190297412460896D+02 -.383958054922651D+03
 0.134010543278637D+03 0.104920069313407D+03 -.168648651794854D+02 -.816466844861628D+02
0.421420067481D-04 0.000000000000D+00 0.000000000000D+00 0.105855207157D-05 0.000000000000D+00  6 2 1 25 2 1 21 0 0.82485473D-01 0.19730839D+00 0.29997938D+06 0.29997938D+06 0.29997938D+06 0.10845541D+01  1  2  2  4  6  5        1 0.318763324743D-03 0.100000000000D+01
0.736067795314D-05 0.000000000000D+00 -.161836402158D-06 0.105855207157D-05 0.000000000000D+00  6 2 1 25 2 1 21 2 0.82485473D-01 0.19730839D+00 0.29997938D+06 0.29997938D+06 0.29997938D+06 0.10845541D+01  1  2  3  4  6  5        1 0.654897561027D-04 0.100000000000D+01
-.253698462469D-04 0.000000000000D+00 0.000000000000D+00 0.105855207157D-05 0.000000000000D+00  6 2 1 25 2 1 21 2 0.82485473D-01 0.19730839D+00 0.29997938D+06 0.29997938D+06 0.29997938D+06 0.10845541D+01  1  2 15  4  6  5        1 -.225721741075D-03 0.100000000000D+01
0.213263603829D-02 0.000000000000D+00 0.000000000000D+00 0.105855207157D-05 0.000000000000D+00  6 2 1 25 2 1 21 2 0.82485473D-01 0.19730839D+00 0.30013118D+06 0.30013118D+06 0.30013118D+06 0.10845378D+01  1  2 12  4  6  5        1 0.189735837823D-01 0.100000000000D+01
0.853652499085D-07 0.000000000000D+00 0.000000000000D+00 0.105855207157D-05 0.000000000000D+00  6 2 1 25 2 1 21 2 0.82485473D-01 0.19730839D+00 0.30013118D+06 0.30013118D+06 0.30013118D+06 0.10845378D+01  1  2 12  4  6  5        1 0.759475452985D-06 0.100000000000D+01
-.188802520388D-02 0.000000000000D+00 0.000000000000D+00 0.105855207157D-05 0.000000000000D+00  6 2 1 25 2 1 21 2 0.82485473D-01 0.19730839D+00 0.29997938D+06 0.29997938D+06 0.29997938D+06 0.10845541D+01  1  2  4  4  6  5        1 -.167982230584D-01 0.100000000000D+01
-.216532731603D-02 0.000000000000D+00 0.000000000000D+00 0.105855207157D-05 0.000000000000D+00  6 2 1 25 2 1 21 2 0.82485473D-01 0.19730839D+00 0.29997938D+06 0.29997938D+06 0.29997938D+06 0.10845541D+01  1  2  5  4  6  5        1 -.192654479264D-01 0.100000000000D+01
0.264249542907D-02 0.000000000000D+00 -.000000000000D+00 0.105855207157D-05 0.000000000000D+00  6 2 1 25 2 1 21 2 0.82485473D-01 0.19730839D+00 0.29997938D+06 0.29997938D+06 0.29997938D+06 0.10845541D+01  1  2  6  4  6  5        1 0.235109295983D-01 0.100000000000D+01
  </mgrwgt>
  </event>
  <event>
  5     66 0.18337608E-05 0.60288319E+02 0.75467711E-02 0.93973999E-01
        2 -1    0    0  501    0 0.00000000E+00 0.00000000E+00 0.54221579E+03 0.54221589E+03 0.32000000E+00 0.0000E+00 0.9000E+01
        1 -1    0    0  502    0 0.00000000E+00 0.00000000E+00 -.35087738E+04 0.35087738E+04 0.32000000E+00 0.0000E+00 0.9000E+01
       25  1    1    2    0    0 0.14630958E+02 -.46859544E+03 -.12050467E+04 0.12990606E+04 0.12500000E+03 0.0000E+00 0.9000E+01
        2  1    1    2  501    0 -.64455085E+02 0.50253884E+03 0.36507814E+03 0.62448530E+03 0.32000000E+00 0.0000E+00 0.9000E+01
        1  1    1    2  502    0 0.49824126E+02 -.33943397E+02 -.21265894E+04 0.21274438E+04 0.32000000E+00 0.0000E+00 0.9000E+01
#aMCatNLO 1  0  0  1  4 0.86007022D+01 0.00000000D+00  -5  6  0 0.00000000D+00 0.00000000D+00 0.00000000D+00 0.00000000D+00 0.00000000D+00
  <mgrwgt>
 0.2267847091D-01   13    2    0
 0.137931606044524D+04 0.000000000000000D+00 0.000000000000000D+00 0.137931606044524D+04
 0.137931606044524D+04 0.000000000000000D+00 0.000000000000000D+00 -.137931606044524D+04
 0.611759892257018D+03 0.146302159027447D+02 -.468594523370359D+03 -.372599376306862D+03
 0.130963609312729D+04 -.644550007260168D+02 0.502538185360402D+03 0.120766204774257D+04
 0.837236135506183D+03 0.498247848232721D+02 -.339436619900430D+02 -.835062671435712D+03
 0.000000000000000D+00 0.000000000000000D+00 -.000000000000000D+00 0.000000000000000D+00
 0.147846264785029D+04 0.000000000000000D+00 0.000000000000000D+00 0.147846264785029D+04
 0.137950929873229D+04 0.000000000000000D+00 0.000000000000000D+00 -.137950929873229D+04
 0.611068348615418D+03 0.129254733037756D+02 -.467741556412496D+03 -.372599376306862D+03
 0.131052325063116D+04 -.681077600425706D+02 0.504365841338455D+03 0.120766204774257D+04
 0.837053928995052D+03 0.474906601272726D+02 -.327757840696907D+02 -.835062671435712D+03
 0.993264183409490D+02 0.769162661152250D+01 -.384850085626822D+01 0.989533491180032D+02
0.669237956430D-03 0.000000000000D+00 0.000000000000D+00 0.702851479925D-04 0.000000000000D+00  6 2 1 25 2 1 21 0 0.83417823D-01 0.53981136D+00 0.27675173D+06 0.27675173D+06 0.27675173D+06 0.10871532D+01  1  2  2  1  6  1        2 0.133474562189D-03 0.100000000000D+01
0.228765225472D-03 0.000000000000D+00 -.257004996709D-05 0.702851479925D-04 0.000000000000D+00  6 2 1 25 2 1 21 2 0.83417823D-01 0.53981136D+00 0.27675173D+06 0.27675173D+06 0.27675173D+06 0.10871532D+01  1  2  3  1  6  1        2 0.539249080334D-04 0.100000000000D+01
-.481334749813D-03 0.000000000000D+00 0.000000000000D+00 0.702851479925D-04 0.000000000000D+00  6 2 1 25 2 1 21 2 0.83417823D-01 0.53981136D+00 0.27675173D+06 0.27675173D+06 0.27675173D+06 0.10871532D+01  1  2 15  1  6  1        2 -.113461003802D-03 0.100000000000D+01
0.449641931388D+00 0.000000000000D+00 0.000000000000D+00 0.702851479925D-04 0.000000000000D+00  6 2 1 25 2 1 21 2 0.89576804D-01 0.53981136D+00 0.28067519D+06 0.28067519D+06 0.28067519D+06 0.10866978D+01  1  2 12  1  6  1        2 0.973989150889D-01 0.100000000000D+01
0.258920292378D-07 0.000000000000D+00 0.000000000000D+00 0.702851479925D-04 0.000000000000D+00  6 2 1 25 2 1 21 2 0.89423515D-01 0.53981136D+00 0.28067519D+06 0.28067519D+06 0.28067519D+06 0.10866978D+01  1  2 12  1  6  1        2 0.561978981792D-08 0.100000000000D+01
-.352684639527D+00 0.000000000000D+00 0.000000000000D+00 0.702851479925D-04 0.000000000000D+00  6 2 1 25 2 1 21 2 0.83417823D-01 0.53981136D+00 0.27675173D+06 0.27675173D+06 0.27675173D+06 0.10871532D+01  1  2  4  1  6  1        2 -.831353922435D-01 0.100000000000D+01
-.468490419262D+00 0.000000000000D+00 -.230358877835D-02 0.702851479925D-04 0.000000000000D+00  6 2 1 25 2 1 21 2 0.89419518D-01 0.53981136D+00 0.27675173D+06 0.27675173D+06 0.27675173D+06 0.10871532D+01  1  2  5  1  6  1        2 -.101908101012D+00 0.100000000000D+01
0.467527171223D+00 0.000000000000D+00 0.229804016668D-02 0.702851479925D-04 0.000000000000D+00  6 2 1 25 2 1 21 2 0.83417823D-01 0.53981136D+00 0.27675173D+06 0.27675173D+06 0.27675173D+06 0.10871532D+01  1  2  6  1  6  1        2 0.110206259100D+00 0.100000000000D+01
0.420902493783D-03 0.000000000000D+00 0.000000000000D+00 0.702851479925D-04 0.499337052842D-05  6 2 1 25 2 1 21 2 0.89413977D-01 0.53988699D+00 0.28067519D+06 0.28067519D+06 0.28067519D+06 0.10866978D+01  1  2 11  1  6  1        2 0.912819701650D-04 0.100000000000D+01
0.670462769022D-02 0.000000000000D+00 0.000000000000D+00 0.702851479925D-04 0.000000000000D+00  6 21 1 25 2 1 -2 2 0.89576804D-01 0.53981136D+00 0.28067519D+06 0.28067519D+06 0.28067519D+06 0.10866978D+01  1  2 12  5  6  1        2 0.224018632092D-02 0.100000000000D+01
0.377704632731D-09 0.000000000000D+00 0.000000000000D+00 0.702851479925D-04 0.000000000000D+00  6 21 1 25 2 1 -2 2 0.89423515D-01 0.53981136D+00 0.28067519D+06 0.28067519D+06 0.28067519D+06 0.10866978D+01  1  2 12  5  6  1        2 0.126743299715D-09 0.100000000000D+01
-.680745793200D-02 0.000000000000D+00 -.271187287430D-04 0.702851479925D-04 0.000000000000D+00  6 21 1 25 2 1 -2 2 0.89419518D-01 0.53981136D+00 0.27675173D+06 0.27675173D+06 0.27675173D+06 0.10871532D+01  1  2  5  5  6  1        2 -.229078095849D-02 0.100000000000D+01
0.643656085779D-05 0.000000000000D+00 0.000000000000D+00 0.702851479925D-04 0.757038899197D-07  6 21 1 25 2 1 -2 2 0.89413977D-01 0.53988699D+00 0.28067519D+06 0.28067519D+06 0.28067519D+06 0.10866978D+01  1  2 11  5  6  1        2 0.215843086882D-05 0.100000000000D+01
  </mgrwgt>
  </event>
  <event>
  5     66 0.18337608E-05 0.14041172E+02 0.75467711E-02 0.95198478E-01
        2 -1    0    0  501    0 0.00000000E+00 0.00000000E+00 0.24104662E+04 0.24104662E+04 0.32000000E+00 0.0000E+00 0.9000E+01
        1 -1    0    0  502    0 0.00000000E+00 0.00000000E+00 -.14798779E+03 0.14798814E+03 0.32000000E+00 0.0000E+00 0.9000E+01
       25  1    1    2    0    0 0.54089466E+02 -.45012744E+03 0.10286092E+04 0.11310183E+04 0.12500000E+03 0.0000E+00 0.9000E+01
        2  1    1    2  501    0 -.35537935E+01 -.13599687E+02 0.76814320E+03 0.76827187E+03 0.32000000E+00 0.0000E+00 0.9000E+01
        1  1    1    2  502    0 -.50535673E+02 0.46372712E+03 0.46572600E+03 0.65916425E+03 0.32000000E+00 0.0000E+00 0.9000E+01
#aMCatNLO 1  0  0  5  4 0.17478912D+03 0.00000000D+00  -5  6  0 0.00000000D+00 0.00000000D+00 0.00000000D+00 0.00000000D+00 0.00000000D+00
  <mgrwgt>
 0.3525362838D-01    4    2    0
 0.597260453873386D+03 0.000000000000000D+00 0.000000000000000D+00 0.597260453873386D+03
 0.597260453873386D+03 -.000000000000000D+00 -.000000000000000D+00 -.597260453873386D+03
 0.474349758281900D+03 0.541004756950646D+02 -.450257253908202D+03 0.610265271395130D+02
 0.190398470232011D+03 -.354995647552830D+01 -.135850037737206D+02 0.189880022509425D+03
 0.529772679232860D+03 -.505505192195363D+02 0.463842257681923D+03 -.250906549648938D+03
 0.000000000000000D+00 0.000000000000000D+00 0.000000000000000D+00 -.000000000000000D+00
 0.597260453873386D+03 0.000000000000000D+00 0.000000000000000D+00 0.597260453873386D+03
 0.597260453873386D+03 -.000000000000000D+00 -.000000000000000D+00 -.597260453873386D+03
 0.422466509541424D+03 0.485387846988797D+02 -.399224201270384D+03 0.334211786760098D+02
 0.178766207025156D+03 -.583936617434430D+01 0.742219812752708D+01 0.178516580607512D+03
 0.197929373094612D+03 0.800638294671628D+02 0.160289262016907D+03 0.841021547093448D+02
 0.395358818085580D+03 -.122763247991698D+03 0.231512741125950D+03 -.296039913992867D+03
0.338095239256D-02 0.000000000000D+00 0.000000000000D+00 0.174700493788D-05 0.000000000000D+00  6 2 1 25 2 1 21 0 0.37084098D+00 0.22767381D-01 0.22611813D+06 0.22611813D+06 0.22611813D+06 0.10937547D+01  1  2  2  4  6  5        1 0.456281468700D-01 0.100000000000D+01
0.218609979864D-02 0.000000000000D+00 -.129837474126D-04 0.174700493788D-05 0.000000000000D+00  6 2 1 25 2 1 21 2 0.37084098D+00 0.22767381D-01 0.22611813D+06 0.22611813D+06 0.22611813D+06 0.10937547D+01  1  2  3  4  6  5        1 0.352942234195D-01 0.100000000000D+01
-.211405277930D-02 0.000000000000D+00 0.000000000000D+00 0.174700493788D-05 0.000000000000D+00  6 2 1 25 2 1 21 2 0.37084098D+00 0.22767381D-01 0.22611813D+06 0.22611813D+06 0.22611813D+06 0.10937547D+01  1  2 15  4  6  5        1 -.341310360852D-01 0.100000000000D+01
-.714637522665D-03 0.000000000000D+00 0.000000000000D+00 0.174700493788D-05 0.000000000000D+00  6 2 1 25 2 1 21 2 0.37084098D+00 0.22767381D-01 0.22611813D+06 0.22611813D+06 0.22611813D+06 0.10937547D+01  1  2  5  4  6  5        1 -.115377058287D-01 0.100000000000D+01
  </mgrwgt>
  </event>
  <event>
  6     66 0.18337608E-05 0.14504790E+03 0.75467711E-02 0.93674628E-01
        2 -1    0    0  501    0 0.00000000E+00 0.00000000E+00 0.63959047E+03 0.63959055E+03 0.32000000E+00 0.0000E+00 0.9000E+01
        1 -1    0    0  502    0 -.00000000E+00 -.00000000E+00 -.22184299E+04 0.22184300E+04 0.32000000E+00 0.0000E+00 0.9000E+01
       25  1    1    2    0    0 0.52915934E+03 -.90380050E+02 -.22410044E+03 0.59499930E+03 0.12500000E+03 0.0000E+00 0.9000E+01
        2  1    1    2  503    0 -.13021004E+03 0.16646564E+02 0.35775488E+03 0.38107797E+03 0.32000000E+00 0.0000E+00 0.9000E+01
        1  1    1    2  502    0 -.38277050E+03 0.70020023E+02 -.17750588E+04 0.18172094E+04 0.32000000E+00 0.0000E+00 0.9000E+01
       21  1    1    2  501  503 -.16178800E+02 0.37134618E+01 0.62564897E+02 0.64733857E+02 0.75000000E+00 0.0000E+00 0.9000E+01
#aMCatNLO 2  0  0  4  1 0.53865487D+01 0.00000000D+00  -5  6  0 0.00000000D+00 0.00000000D+00 0.00000000D+00 0.00000000D+00 0.00000000D+00
  <mgrwgt>
 0.2864456874D-01    6    2    0
 0.119117034275584D+04 0.000000000000000D+00 0.000000000000000D+00 0.119117034275584D+04
 0.119117034275584D+04 -.000000000000000D+00 -.000000000000000D+00 -.119117034275584D+04
 0.565485460117262D+03 0.529287358507189D+03 -.904052231470240D+02 0.125819685885204D+03
 0.813008111704102D+03 -.146347283775585D+03 0.203542468018160D+02 0.799468802934367D+03
 0.100384711369031D+04 -.382940074731603D+03 0.700509763452079D+02 -.925288488819570D+03
 0.000000000000000D+00 0.000000000000000D+00 0.000000000000000D+00 0.000000000000000D+00
 0.119117034275584D+04 0.000000000000000D+00 0.000000000000000D+00 0.119117034275584D+04
 0.119117034275584D+04 -.000000000000000D+00 -.000000000000000D+00 -.119117034275584D+04
 0.565487042272622D+03 0.529281212158557D+03 -.904043683016605D+02 0.125853262278674D+03
 0.695021842503351D+03 -.130357294238159D+03 0.166641716587902D+02 0.682484170350188D+03
 0.100379644358197D+04 -.382950985409984D+03 0.700524938222312D+02 -.925228885752401D+03
 0.118035357153727D+03 -.159729325104125D+02 0.368770282063909D+01 0.116891453123539D+03
-.230053651031D-01 0.000000000000D+00 0.000000000000D+00 0.101768977668D-04 0.000000000000D+00  6 2 1 25 2 1 21 2 0.98398542D-01 0.34129692D+00 0.29616516D+06 0.29616516D+06 0.29616516D+06 0.10849655D+01  1  2 13  3  6  4        2 -.392788490481D-01 0.100000000000D+01
-.158184462409D-07 0.000000000000D+00 0.000000000000D+00 0.101768977668D-04 0.000000000000D+00  6 2 1 25 2 1 21 2 0.98398542D-01 0.34129692D+00 0.29616516D+06 0.29616516D+06 0.29616516D+06 0.10849655D+01  1  2 13  3  6  4        2 -.270080635229D-07 0.100000000000D+01
-.422476134124D-05 0.000000000000D+00 0.000000000000D+00 0.101768977668D-04 0.000000000000D+00  6 2 1 25 2 1 21 2 0.98398542D-01 0.34129692D+00 0.29613239D+06 0.29613239D+06 0.29613239D+06 0.10849690D+01  1  2  8  3  6  4        2 -.721336612253D-05 0.100000000000D+01
-.198434009098D-05 0.000000000000D+00 0.000000000000D+00 0.101768977668D-04 0.000000000000D+00  6 2 1 25 2 1 21 2 0.98398542D-01 0.34129692D+00 0.29613239D+06 0.29613239D+06 0.29613239D+06 0.10849690D+01  1  2  9  3  6  4        2 -.338806631469D-05 0.100000000000D+01
0.229309201978D-05 0.000000000000D+00 0.000000000000D+00 0.101768977668D-04 0.000000000000D+00  6 2 1 25 2 1 21 2 0.98398542D-01 0.34129692D+00 0.29613239D+06 0.29613239D+06 0.29613239D+06 0.10849690D+01  1  2 10  3  6  4        2 0.391522998705D-05 0.100000000000D+01
0.397862336370D-01 0.000000000000D+00 0.000000000000D+00 0.101768977668D-04 0.281014419995D-05  6 2 1 25 2 1 21 2 0.98398542D-01 0.34129692D+00 0.29616516D+06 0.29616516D+06 0.29616516D+06 0.10849655D+01  1  2  1  3  6  4        2 0.679301310029D-01 0.100000000000D+01
  </mgrwgt>
  </event>
  <event>
  5     66 0.18337608E-05 0.12106308E+03 0.75467711E-02 0.94185908E-01
        2 -1    0    0  501    0 0.00000000E+00 0.00000000E+00 0.61602617E+03 0.61602625E+03 0.32000000E+00 0.0000E+00 0.9000E+01
        1 -1    0    0  502    0 0.00000000E+00 0.00000000E+00 -.16452578E+04 0.16452579E+04 0.32000000E+00 0.0000E+00 0.9000E+01
       25  1    1    2    0    0 -.49755756E+03 -.11883681E+03 -.25461253E+02 0.52721816E+03 0.12500000E+03 0.0000E+00 0.9000E+01
        2  1    1    2  501    0 0.37700051E+03 0.10798402E+03 0.25611090E+03 0.46838321E+03 0.32000000E+00 0.0000E+00 0.9000E+01
        1  1    1    2  502    0 0.12055705E+03 0.10852783E+02 -.12598813E+04 0.12656827E+04 0.32000000E+00 0.0000E+00 0.9000E+01
#aMCatNLO 1  0  0  1  5 0.12051460D+03 0.00000000D+00  -5  6  0 0.00000000D+00 0.00000000D+00 0.00000000D+00 0.00000000D+00 0.00000000D+00
  <mgrwgt>
 0.1994067660D-02    7    2    0
 0.100673830230422D+04 0.000000000000000D+00 0.000000000000000D+00 0.100673830230422D+04
 0.100673830230422D+04 0.000000000000000D+00 0.000000000000000D+00 -.100673830230422D+04
 0.579116415486005D+03 -.497520142526558D+03 -.118822716370320D+03 0.241051223892540D+03
 0.656848388178548D+03 0.376944665495832D+03 0.107968026121796D+03 0.526977636662463D+03
 0.777511800943879D+03 0.120575477030726D+03 0.108546902485242D+02 -.768028860555003D+03
 0.000000000000000D+00 -.000000000000000D+00 0.000000000000000D+00 0.000000000000000D+00
 0.145061449156890D+04 0.000000000000000D+00 0.000000000000000D+00 0.145061449156890D+04
 0.120987966101815D+04 0.000000000000000D+00 0.000000000000000D+00 -.120987966101815D+04
 0.511330057740063D+03 -.383821131134402D+03 -.201020085322518D+03 0.241051223892540D+03
 0.742340098731139D+03 0.522835685017646D+03 0.249782183755487D+01 0.526977636662463D+03
 0.827590556664821D+03 0.287936787947169D+03 -.110137209797773D+03 -.768028860555003D+03
 0.579233439451025D+03 -.426951341830413D+03 0.308659473282736D+03 0.240734830550750D+03
0.521423202544D-03 0.000000000000D+00 0.000000000000D+00 0.485639620057D-05 0.000000000000D+00  6 2 1 25 2 1 21 0 0.94773265D-01 0.25311660D+00 0.27025964D+06 0.27025964D+06 0.27025964D+06 0.10879223D+01  1  2  2  1  6  1        2 0.191563478333D-02 0.100000000000D+01
0.103469892515D-03 0.000000000000D+00 -.200240239165D-05 0.485639620057D-05 0.000000000000D+00  6 2 1 25 2 1 21 2 0.94773265D-01 0.25311660D+00 0.27025964D+06 0.27025964D+06 0.27025964D+06 0.10879223D+01  1  2  3  1  6  1        2 0.449916740657D-03 0.100000000000D+01
-.330038329263D-03 0.000000000000D+00 0.000000000000D+00 0.485639620057D-05 0.000000000000D+00  6 2 1 25 2 1 21 2 0.94773265D-01 0.25311660D+00 0.27025964D+06 0.27025964D+06 0.27025964D+06 0.10879223D+01  1  2 15  1  6  1        2 -.143510122399D-02 0.100000000000D+01
-.312844869649D-04 0.000000000000D+00 0.000000000000D+00 0.485639620057D-05 0.000000000000D+00  6 2 1 25 2 1 21 2 0.94773265D-01 0.25311660D+00 0.27025964D+06 0.27025964D+06 0.27025964D+06 0.10879223D+01  1  2  4  1  6  1        2 -.136033913502D-03 0.100000000000D+01
-.247831122207D-03 0.000000000000D+00 -.338825490114D-03 0.485639620057D-05 0.000000000000D+00  6 2 1 25 2 1 21 2 0.15681779D+00 0.25311660D+00 0.27025964D+06 0.27025964D+06 0.27025964D+06 0.10879223D+01  1  2  5  1  6  1        2 -.562956702636D-03 0.100000000000D+01
0.404877199230D-03 0.000000000000D+00 0.299976244495D-03 0.485639620057D-05 0.000000000000D+00  6 2 1 25 2 1 21 2 0.94773265D-01 0.25311660D+00 0.27025964D+06 0.27025964D+06 0.27025964D+06 0.10879223D+01  1  2  6  1  6  1        2 0.176052207475D-02 0.100000000000D+01
0.135296754437D-05 0.000000000000D+00 -.192128740305D-04 0.485639620057D-05 0.000000000000D+00  6 21 1 25 2 1 -2 2 0.15681779D+00 0.25311660D+00 0.27025964D+06 0.27025964D+06 0.27025964D+06 0.10879223D+01  1  2  5  5  6  1        2 0.208590096972D-05 0.100000000000D+01
  </mgrwgt>
  </event>
  <event>
  5     66 -.18337608E-05 0.22297606E+02 0.75467711E-02 0.94807102E-01
        2 -1    0    0  501    0 0.00000000E+00 0.00000000E+00 0.23305149E+03 0.23305171E+03 0.32000000E+00 0.0000E+00 0.9000E+01
        1 -1    0    0  502    0 -.00000000E+00 -.00000000E+00 -.15178679E+04 0.15178679E+04 0.32000000E+00 0.0000E+00 0.9000E+01
       25  1    1    2    0    0 0.46558491E+03 -.13219055E+03 -.54272986E+03 0.73785117E+03 0.12500000E+03 0.0000E+00 0.9000E+01
        2  1    1    2  501    0 -.44546512E+03 0.12258629E+03 -.25939217E+03 0.52985938E+03 0.32000000E+00 0.0000E+00 0.9000E+01
        1  1    1    2  502    0 -.20119794E+02 0.96042654E+01 -.48269439E+03 0.48320909E+03 0.32000000E+00 0.0000E+00 0.9000E+01
#aMCatNLO 1  0  0  5  2 0.12032009D+03 0.00000000D+00  -5  6  0 0.00000000D+00 0.00000000D+00 0.00000000D+00 0.00000000D+00 0.00000000D+00
  <mgrwgt>
 -.1616590380D-02    1    2    0
 0.594761796544874D+03 0.000000000000000D+00 0.000000000000000D+00 0.594761796544874D+03
 0.594761796544874D+03 -.000000000000000D+00 -.000000000000000D+00 -.594761796544874D+03
 0.499857622537126D+03 0.465570338297906D+03 -.132187023834029D+03 -.186912694673134D+01
 0.499735046761337D+03 -.445447777754545D+03 0.122581515056928D+03 0.190486656806824D+03
 0.189930923791286D+03 -.201225605433610D+02 0.960550877710017D+01 -.188617529860093D+03
 0.000000000000000D+00 -.000000000000000D+00 0.000000000000000D+00 0.000000000000000D+00
 0.594761796544874D+03 0.000000000000000D+00 0.000000000000000D+00 0.594761796544874D+03
 0.594761796544874D+03 -.000000000000000D+00 -.000000000000000D+00 -.594761796544874D+03
 0.498074694775350D+03 0.463431097603481D+03 -.131165856809964D+03 -.219211623071998D+02
 0.494647682857767D+03 -.447579409293208D+03 0.123599049848788D+03 0.170505945379560D+03
 0.106332596205158D+03 0.390511553926411D+02 0.457746061068365D+02 -.876716243375979D+02
 0.904686192514736D+02 -.549028437029138D+02 -.382077991456610D+02 -.609131587347623D+02
-.101559965114D-03 0.000000000000D+00 0.000000000000D+00 0.928230021957D-06 0.000000000000D+00  6 2 1 25 2 1 21 2 0.35854095D-01 0.23351816D+00 0.24214183D+06 0.24214183D+06 0.24214183D+06 0.10915041D+01  1  2 14  4  6  5        1 -.161659038016D-02 0.100000000000D+01
  </mgrwgt>
  </event>
  <event>
  5     66 0.18337608E-05 0.18562755E+02 0.75467711E-02 0.95516433E-01
        2 -1    0    0  501    0 0.00000000E+00 0.00000000E+00 0.10604912E+04 0.10604913E+04 0.32000000E+00 0.0000E+00 0.9000E+01
        1 -1    0    0  502    0 0.00000000E+00 0.00000000E+00 -.14878673E+04 0.14878674E+04 0.32000000E+00 0.0000E+00 0.9000E+01
       25  1    1    2    0    0 0.27595695E+03 0.35980601E+03 0.27525943E+03 0.54498198E+03 0.12500000E+03 0.0000E+00 0.9000E+01
        2  1    1    2  501    0 -.27107923E+03 -.34189785E+03 0.57711499E+03 0.72349147E+03 0.32000000E+00 0.0000E+00 0.9000E+01
        1  1    1    2  502    0 -.48777231E+01 -.17908168E+02 -.12797506E+04 0.12798852E+04 0.32000000E+00 0.0000E+00 0.9000E+01
#aMCatNLO 1  0  0  2  5 0.38911497D+03 0.00000000D+00  -5  6  0 0.00000000D+00 0.00000000D+00 0.00000000D+00 0.00000000D+00 0.00000000D+00
  <mgrwgt>
 0.2037448643D-01    3    2    0
 0.125613308770521D+04 0.000000000000000D+00 0.000000000000000D+00 0.125613308770521D+04
 0.125613308770521D+04 0.000000000000000D+00 0.000000000000000D+00 -.125613308770521D+04
 0.599683390563768D+03 0.275925974870259D+03 0.359768306385126D+03 0.372057510380763D+03
 0.831964909357087D+03 -.271047662466314D+03 -.341858031177262D+03 0.708400918684257D+03
 0.108061787548957D+04 -.487831240394428D+01 -.179102752078639D+02 -.108045842906502D+04
 0.000000000000000D+00 -.000000000000000D+00 0.000000000000000D+00 0.000000000000000D+00
 0.220450748342719D+04 0.000000000000000D+00 0.000000000000000D+00 0.220450748342719D+04
 0.165670334262711D+04 0.000000000000000D+00 0.000000000000000D+00 -.165670334262711D+04
 0.540075844826124D+03 0.340168739405363D+03 0.148038359438647D+03 0.372057510380763D+03
 0.997362622956057D+03 -.167937238556676D+03 -.681687189246685D+03 0.708400918684257D+03
 0.117160047688102D+04 0.122068439857720D+03 -.436298700984633D+03 -.108045842906502D+04
 0.115217188139110D+04 -.294299940706408D+03 0.969947530792672D+03 0.547804140800079D+03
0.667563446722D-02 0.000000000000D+00 0.000000000000D+00 0.101370217145D-03 0.000000000000D+00  6 2 1 25 2 1 21 0 0.16315250D+00 0.22890267D+00 0.21397439D+06 0.21397439D+06 0.21397439D+06 0.10955797D+01  1  2  2  2  6  2        1 0.156440447026D-01 0.100000000000D+01
0.593614473774D-02 0.000000000000D+00 -.256361940890D-04 0.101370217145D-03 0.000000000000D+00  6 2 1 25 2 1 21 2 0.16315250D+00 0.22890267D+00 0.21397439D+06 0.21397439D+06 0.21397439D+06 0.10955797D+01  1  2  3  2  6  2        1 0.166974033833D-01 0.100000000000D+01
-.425441098880D-02 0.000000000000D+00 0.000000000000D+00 0.101370217145D-03 0.000000000000D+00  6 2 1 25 2 1 21 2 0.16315250D+00 0.22890267D+00 0.21397439D+06 0.21397439D+06 0.21397439D+06 0.10955797D+01  1  2 15  2  6  2        1 -.119669616521D-01 0.100000000000D+01
  </mgrwgt>
  </event>
  <event>
  5     66 0.18337608E-05 0.25899998E+03 0.75467711E-02 0.92119550E-01
        2 -1    0    0  501    0 0.00000000E+00 0.00000000E+00 0.76384153E+03 0.76384160E+03 0.32000000E+00 0.0000E+00 0.9000E+01
        1 -1    0    0  502    0 -.00000000E+00 -.00000000E+00 -.18028737E+04 0.18028737E+04 0.32000000E+00 0.0000E+00 0.9000E+01
       25  1    1    2    0    0 0.49078957E+03 0.36583617E+03 0.17524565E+02 0.62501409E+03 0.12500000E+03 0.0000E+00 0.9000E+01
        2  1    1    2  501    0 -.24793793E+03 -.27591728E+03 0.35089830E+03 0.51062049E+03 0.32000000E+00 0.0000E+00 0.9000E+01
        1  1    1    2  502    0 -.24285163E+03 -.89918892E+02 -.14074550E+04 0.14310807E+04 0.32000000E+00 0.0000E+00 0.9000E+01
#aMCatNLO 1  0  0  5  2 0.14798385D+02 0.00000000D+00  -5  6  0 0.00000000D+00 0.00000000D+00 0.00000000D+00 0.00000000D+00 0.00000000D+00
  <mgrwgt>
 0.1030329567D-02    8    2    0
 0.117350326588686D+04 0.000000000000000D+00 0.000000000000000D+00 0.117350326588686D+04
 0.117350326588686D+04 -.000000000000000D+00 -.000000000000000D+00 -.117350326588686D+04
 0.691328286283349D+03 0.490783023614435D+03 0.365806111458315D+03 0.296019783067098D+03
 0.713650946625666D+03 -.247898202644001D+03 -.275873063236638D+03 0.609703376836652D+03
 0.942027298864697D+03 -.242884820970434D+03 -.899330482216771D+02 -.905723159903751D+03
 0.000000000000000D+00 -.000000000000000D+00 0.000000000000000D+00 0.000000000000000D+00
 0.117350326588686D+04 0.000000000000000D+00 0.000000000000000D+00 0.117350326588686D+04
 0.117350326588686D+04 -.000000000000000D+00 -.000000000000000D+00 -.117350326588686D+04
 0.691232816458666D+03 0.490744871150671D+03 0.365791984732118D+03 0.295877511640255D+03
 0.713544800203367D+03 -.247937586823048D+03 -.275887646030488D+03 0.609556512314800D+03
 0.599557141699989D+03 -.140384898528347D+03 -.596858977122000D+02 -.579826215380897D+03
 0.342671773411690D+03 -.102422385799276D+03 -.302184409894297D+02 -.325607808574157D+03
0.375832090026D-05 0.000000000000D+00 0.000000000000D+00 0.852453275398D-06 0.000000000000D+00  6 2 1 25 2 1 21 0 0.11751409D+00 0.27736519D+00 0.39352768D+06 0.39352768D+06 0.39352768D+06 0.10759387D+01  1  2  2  4  6  5        1 0.815708696486D-05 0.100000000000D+01
0.370131137609D-06 0.000000000000D+00 -.144329418456D-07 0.852453275398D-06 0.000000000000D+00  6 2 1 25 2 1 21 2 0.11751409D+00 0.27736519D+00 0.39352768D+06 0.39352768D+06 0.39352768D+06 0.10759387D+01  1  2  3  4  6  5        1 0.929976410377D-06 0.100000000000D+01
-.244205096796D-05 0.000000000000D+00 0.000000000000D+00 0.852453275398D-06 0.000000000000D+00  6 2 1 25 2 1 21 2 0.11751409D+00 0.27736519D+00 0.39352768D+06 0.39352768D+06 0.39352768D+06 0.10759387D+01  1  2 15  4  6  5        1 -.613579772782D-05 0.100000000000D+01
0.891488658519D-03 0.000000000000D+00 0.000000000000D+00 0.852453275398D-06 0.000000000000D+00  6 2 1 25 2 1 21 2 0.11751409D+00 0.27736519D+00 0.39373614D+06 0.39373614D+06 0.39373614D+06 0.10759221D+01  1  2 12  4  6  5        1 0.223977417667D-02 0.100000000000D+01
0.915805484192D-08 0.000000000000D+00 0.000000000000D+00 0.852453275398D-06 0.000000000000D+00  6 2 1 25 2 1 21 2 0.11751409D+00 0.27736519D+00 0.39373614D+06 0.39373614D+06 0.39373614D+06 0.10759221D+01  1  2 12  4  6  5        1 0.230086771687D-07 0.100000000000D+01
-.866194388689D-03 0.000000000000D+00 0.000000000000D+00 0.852453275398D-06 0.000000000000D+00  6 2 1 25 2 1 21 2 0.11751409D+00 0.27736519D+00 0.39352768D+06 0.39352768D+06 0.39352768D+06 0.10759387D+01  1  2  4  4  6  5        1 -.217636471626D-02 0.100000000000D+01
-.905501955850D-03 0.000000000000D+00 0.000000000000D+00 0.852453275398D-06 0.000000000000D+00  6 2 1 25 2 1 21 2 0.11751409D+00 0.27736519D+00 0.39352768D+06 0.39352768D+06 0.39352768D+06 0.10759387D+01  1  2  5  4  6  5        1 -.227512730739D-02 0.100000000000D+01
0.128915294245D-02 0.000000000000D+00 -.000000000000D+00 0.852453275398D-06 0.000000000000D+00  6 2 1 25 2 1 21 2 0.11751409D+00 0.27736519D+00 0.39352768D+06 0.39352768D+06 0.39352768D+06 0.10759387D+01  1  2  6  4  6  5        1 0.323907313929D-02 0.100000000000D+01
  </mgrwgt>
  </event>
  <event>
  5     66 0.18337608E-05 0.31815419E+03 0.75467711E-02 0.92968338E-01
        2 -1    0    0  501    0 0.00000000E+00 0.00000000E+00 0.16341628E+04 0.16341628E+04 0.32000000E+00 0.0000E+00 0.9000E+01
        1 -1    0    0  502    0 0.00000000E+00 0.00000000E+00 -.72527997E+03 0.72528005E+03 0.32000000E+00 0.0000E+00 0.9000E+01
       25  1    1    2    0    0 0.12393202E+03 0.49095920E+03 0.35193896E+02 0.52274630E+03 0.12500000E+03 0.0000E+00 0.9000E+01
        2  1    1    2  501    0 -.28251802E+03 -.21518748E+03 0.12756049E+04 0.13241186E+04 0.32000000E+00 0.0000E+00 0.9000E+01
        1  1    1    2  502    0 0.15858601E+03 -.27577172E+03 -.40191601E+03 0.51257794E+03 0.32000000E+00 0.0000E+00 0.9000E+01
#aMCatNLO 1  0  0  5  4 0.14641060D+03 0.00000000D+00  -5  6  0 0.00000000D+00 0.00000000D+00 0.00000000D+00 0.00000000D+00 0.00000000D+00
  <mgrwgt>
 0.1357557339D-02    3    2    0
 0.108868069652541D+04 0.000000000000000D+00 0.000000000000000D+00 0.108868069652541D+04
 0.108868069652541D+04 -.000000000000000D+00 -.000000000000000D+00 -.108868069652541D+04
 0.551766876444228D+03 0.123909733085507D+03 0.490984964568501D+03 -.180005079248797D+03
 0.902341130604639D+03 -.282505952185066D+03 -.215178283288344D+03 0.829522880553603D+03
 0.723253386001946D+03 0.158596219099559D+03 -.275806681280157D+03 -.649517801304806D+03
 0.000000000000000D+00 0.000000000000000D+00 0.000000000000000D+00 0.000000000000000D+00
 0.108868069652541D+04 0.000000000000000D+00 0.000000000000000D+00 0.108868069652541D+04
 0.108868069652541D+04 -.000000000000000D+00 -.000000000000000D+00 -.108868069652541D+04
 0.557228667423558D+03 0.140630396310826D+03 0.461906902940291D+03 -.248483183431401D+03
 0.810762677342107D+03 -.256676964863092D+03 -.260096171713094D+03 0.723742382439916D+03
 0.172289505358903D+03 -.416841224623382D+02 -.100470141460214D+03 0.133610846364825D+03
 0.637080542926244D+03 0.157730691014604D+03 -.101340589766983D+03 -.608870045373340D+03
0.853443111660D-03 0.000000000000D+00 0.000000000000D+00 0.525163768573D-06 0.000000000000D+00  6 2 1 25 2 1 21 0 0.25140967D+00 0.11158154D+00 0.35691957D+06 0.35691957D+06 0.35691957D+06 0.10790136D+01  1  2  2  4  6  5        1 0.344461772242D-02 0.100000000000D+01
0.556009061850D-04 0.000000000000D+00 -.327744626551D-05 0.525163768573D-06 0.000000000000D+00  6 2 1 25 2 1 21 2 0.25140967D+00 0.11158154D+00 0.35691957D+06 0.35691957D+06 0.35691957D+06 0.10790136D+01  1  2  3  4  6  5        1 0.261277570074D-03 0.100000000000D+01
-.499735657288D-03 0.000000000000D+00 0.000000000000D+00 0.525163768573D-06 0.000000000000D+00  6 2 1 25 2 1 21 2 0.25140967D+00 0.11158154D+00 0.35691957D+06 0.35691957D+06 0.35691957D+06 0.10790136D+01  1  2 15  4  6  5        1 -.234833795301D-02 0.100000000000D+01
  </mgrwgt>
  </event>
  <event>
  5     66 0.18337608E-05 0.41530782E+02 0.75467711E-02 0.90239094E-01
        2 -1    0    0  501    0 0.00000000E+00 0.00000000E+00 0.15056242E+04 0.15056242E+04 0.32000000E+00 0.0000E+00 0.9000E+01
        1 -1    0    0  502    0 0.00000000E+00 0.00000000E+00 -.14317085E+04 0.14317086E+04 0.32000000E+00 0.0000E+00 0.9000E+01
       25  1    1    2    0    0 0.44588537E+03 0.26348496E+03 0.21120251E+03 0.57312266E+03 0.12500000E+03 0.0000E+00 0.9000E+01
        2  1    1    2  501    0 -.12570595E+02 -.39586137E+02 0.10654916E+04 0.10663009E+04 0.32000000E+00 0.0000E+00 0.9000E+01
        1  1    1    2  502    0 -.43331478E+03 -.22389882E+03 -.12027785E+04 0.12979093E+04 0.32000000E+00 0.0000E+00 0.9000E+01
#aMCatNLO 1  0  0  4  1 0.48660843D+03 0.00000000D+00  -5  6  0 0.00000000D+00 0.00000000D+00 0.00000000D+00 0.00000000D+00 0.00000000D+00
  <mgrwgt>
 0.1530240778D-01    4    2    0
 0.146820132183238D+04 0.000000000000000D+00 0.000000000000000D+00 0.146820132183238D+04
 0.146820132183238D+04 -.000000000000000D+00 -.000000000000000D+00 -.146820132183238D+04
 0.568057177757506D+03 0.445927274377636D+03 0.263504596397199D+03 0.196921687087797D+03
 0.103973457826384D+04 -.125695883320711D+02 -.395829675259117D+02 0.103890480187960D+04
 0.132861088764341D+04 -.433357686045565D+03 -.223921628871287D+03 -.123582648896740D+04
 0.000000000000000D+00 0.000000000000000D+00 0.000000000000000D+00 0.000000000000000D+00
 0.146820132183238D+04 0.000000000000000D+00 0.000000000000000D+00 0.146820132183238D+04
 0.146820132183238D+04 -.000000000000000D+00 -.000000000000000D+00 -.146820132183238D+04
 0.630890543872805D+03 0.444142609871103D+03 0.257884498479871D+03 0.344428230388849D+03
 0.892044273666383D+03 -.236022268291831D+03 -.615668476581849D+02 0.858047783238671D+03
 0.106418902793866D+04 -.436919430234684D+03 -.235137939290442D+03 -.941440305157297D+03
 0.349278798186916D+03 0.228799088655412D+03 0.388202884687556D+02 -.261035708470224D+03
0.121315552622D-01 0.000000000000D+00 0.000000000000D+00 0.187728818059D-03 0.000000000000D+00  6 2 1 25 2 1 21 0 0.23163450D+00 0.22026286D+00 0.28204294D+06 0.28204294D+06 0.28204294D+06 0.10865407D+01  1  2  2  3  6  4        2 0.169713286098D-01 0.100000000000D+01
0.644279430364D-02 0.000000000000D+00 -.465883665186D-04 0.187728818059D-03 0.000000000000D+00  6 2 1 25 2 1 21 2 0.23163450D+00 0.22026286D+00 0.28204294D+06 0.28204294D+06 0.28204294D+06 0.10865407D+01  1  2  3  3  6  4        2 0.106405875642D-01 0.100000000000D+01
-.705601156295D-02 0.000000000000D+00 0.000000000000D+00 0.187728818059D-03 0.000000000000D+00  6 2 1 25 2 1 21 2 0.23163450D+00 0.22026286D+00 0.28204294D+06 0.28204294D+06 0.28204294D+06 0.10865407D+01  1  2 15  3  6  4        2 -.116533456372D-01 0.100000000000D+01
-.397301528049D-03 0.000000000000D+00 0.000000000000D+00 0.187728818059D-03 0.000000000000D+00  6 2 1 25 2 1 21 2 0.23163450D+00 0.22026286D+00 0.28204294D+06 0.28204294D+06 0.28204294D+06 0.10865407D+01  1  2  4  3  6  4        2 -.656162760962D-03 0.100000000000D+01
  </mgrwgt>
  </event>
  <event>
  5     66 0.18337608E-05 0.73429517E+02 0.75467711E-02 0.85004766E-01
        2 -1    0    0  501    0 0.00000000E+00 0.00000000E+00 0.91264161E+03 0.91264166E+03 0.32000000E+00 0.0000E+00 0.9000E+01
        1 -1    0    0  502    0 0.00000000E+00 0.00000000E+00 -.13628881E+04 0.13628881E+04 0.32000000E+00 0.0000E+00 0.9000E+01
       25  1    1    2    0    0 -.54572314E+03 -.52773991E+02 -.39974000E+03 0.68993906E+03 0.12500000E+03 0.0000E+00 0.9000E+01
        2  1    1    2  501    0 0.49685636E+03 -.20264320E+01 0.68511315E+03 0.84631583E+03 0.32000000E+00 0.0000E+00 0.9000E+01
        1  1    1    2  502    0 0.48866775E+02 0.54800423E+02 -.73561961E+03 0.73927489E+03 0.32000000E+00 0.0000E+00 0.9000E+01
#aMCatNLO 1  0  0  1  2 0.15011230D+03 0.00000000D+00  -5  6  0 0.00000000D+00 0.00000000D+00 0.00000000D+00 0.00000000D+00 0.00000000D+00
  <mgrwgt>
 0.7784961984D-02    3    2    0
 0.111527057886273D+04 0.000000000000000D+00 0.000000000000000D+00 0.111527057886273D+04
 0.111527057886273D+04 0.000000000000000D+00 0.000000000000000D+00 -.111527057886273D+04
 0.623138578778340D+03 -.545719637244091D+03 -.527780115439212D+02 -.268479510178220D+03
 0.100166363976275D+04 0.496848681498497D+03 -.202640068181447D+01 0.869751302739037D+03
 0.605738939184360D+03 0.488709557455938D+02 0.548044122257357D+02 -.601271792560816D+03
 0.000000000000000D+00 0.000000000000000D+00 0.000000000000000D+00 -.000000000000000D+00
 0.169895735573982D+04 0.000000000000000D+00 0.000000000000000D+00 0.169895735573982D+04
 0.211924891635435D+04 0.000000000000000D+00 0.000000000000000D+00 -.211924891635435D+04
 0.100104043287447D+04 -.941314277076831D+03 -.168235348946926D+03 -.268479510178220D+03
 0.881130829660571D+03 0.382641322174168D+02 -.135867827493201D+03 0.869751302739037D+03
 0.655324961577386D+03 -.258281221476699D+03 -.348403124212306D+02 -.601271792560816D+03
 0.128071004798175D+04 0.116133136633611D+04 0.338943488861358D+03 -.420291560614530D+03
0.407841468585D-02 0.000000000000D+00 0.000000000000D+00 0.134939322900D-04 0.000000000000D+00  6 2 1 25 2 1 21 0 0.14040641D+00 0.20967509D+00 0.32070540D+06 0.32070540D+06 0.32070540D+06 0.10824139D+01  1  2  2  1  6  1        2 0.140187357437D-01 0.100000000000D+01
0.115594243734D-02 0.000000000000D+00 -.156621862649D-04 0.134939322900D-04 0.000000000000D+00  6 2 1 25 2 1 21 2 0.14040641D+00 0.20967509D+00 0.32070540D+06 0.32070540D+06 0.32070540D+06 0.10824139D+01  1  2  3  1  6  1        2 0.465522217329D-02 0.100000000000D+01
-.270385644988D-02 0.000000000000D+00 0.000000000000D+00 0.134939322900D-04 0.000000000000D+00  6 2 1 25 2 1 21 2 0.14040641D+00 0.20967509D+00 0.32070540D+06 0.32070540D+06 0.32070540D+06 0.10824139D+01  1  2 15  1  6  1        2 -.108889959330D-01 0.100000000000D+01
  </mgrwgt>
  </event>
  <event>
  6     66 0.18337608E-05 0.58736658E+02 0.75467711E-02 0.94701248E-01
        2 -1    0    0  501    0 0.00000000E+00 0.00000000E+00 0.24182905E+04 0.24182906E+04 0.32000000E+00 0.0000E+00 0.9000E+01
        1 -1    0    0  503    0 0.00000000E+00 0.00000000E+00 -.18283249E+03 0.18283277E+03 0.32000000E+00 0.0000E+00 0.9000E+01
       25  1    1    2    0    0 -.98494582E+02 0.45876945E+03 0.55651274E+03 0.73858108E+03 0.12500000E+03 0.0000E+00 0.9000E+01
        2  1    1    2  501    0 -.14873968E+02 0.13372933E+01 0.10652347E+04 0.10653394E+04 0.32000000E+00 0.0000E+00 0.9000E+01
        1  1    1    2  502    0 0.14396226E+03 -.40140085E+03 0.58761090E+03 0.72604025E+03 0.32000000E+00 0.0000E+00 0.9000E+01
       21  1    1    2  503  502 -.30593706E+02 -.58705891E+02 0.26099737E+02 0.71162598E+02 0.75000000E+00 0.0000E+00 0.9000E+01
#aMCatNLO 2  0  0  2  4 0.33264242D+03 0.00000000D+00  -5  6  0 0.00000000D+00 0.00000000D+00 0.00000000D+00 0.00000000D+00 0.00000000D+00
  <mgrwgt>
 0.1107253172D-01    1    2    0
 0.615437809767479D+03 0.000000000000000D+00 0.000000000000000D+00 0.615437809767479D+03
 0.615437809767479D+03 0.000000000000000D+00 0.000000000000000D+00 -.615437809767479D+03
 0.499814677865683D+03 -.111174658182064D+03 0.434608128172647D+03 -.181509455716074D+03
 0.277820377863535D+03 -.217569980931048D+02 -.118875631372770D+02 0.276711910175314D+03
 0.453240563805741D+03 0.132931656275169D+03 -.422720565035370D+03 -.952024544592401D+02
 0.000000000000000D+00 -.000000000000000D+00 -.000000000000000D+00 -.000000000000000D+00
 0.628974392440777D+03 0.000000000000000D+00 0.000000000000000D+00 0.628974392440777D+03
 0.702954704642329D+03 0.000000000000000D+00 0.000000000000000D+00 -.702954704642329D+03
 0.518502130271300D+03 -.985285432085919D+02 0.458874604608626D+03 -.181509455716074D+03
 0.277114145279737D+03 -.148654632324970D+02 0.133651940929722D+01 0.276711910175314D+03
 0.437038236997639D+03 0.143987712684571D+03 -.401505232666781D+03 -.952024544592401D+02
 0.992745845344302D+02 -.305937062434822D+02 -.587058913511421D+02 -.739803122015522D+02
0.923710220227D-03 0.000000000000D+00 0.000000000000D+00 0.893308618411D-06 0.271600844434D-08  6 2 1 25 2 1 21 2 0.37204390D+00 0.28128036D-01 0.24669196D+06 0.24669196D+06 0.24669196D+06 0.10908946D+01  1  2  1  2  6  2        1 0.110725317200D-01 0.100000000000D+01
  </mgrwgt>
  </event>
  <event>
  5     66 -.18337608E-05 0.44903966E+02 0.75467711E-02 0.95289600E-01
        2 -1    0    0  501    0 0.00000000E+00 0.00000000E+00 0.14360696E+04 0.14360696E+04 0.32000000E+00 0.0000E+00 0.9000E+01
        1 -1    0    0  502    0 0.00000000E+00 0.00000000E+00 -.66942171E+03 0.66942179E+03 0.32000000E+00 0.0000E+00 0.9000E+01
       25  1    1    2    0    0 0.45744659E+03 0.32800201E+02 0.59610546E+03 0.76243029E+03 0.12500000E+03 0.0000E+00 0.9000E+01
        2  1    1    2  501    0 -.37688318E+02 -.24440093E+02 0.68080063E+03 0.68228098E+03 0.32000000E+00 0.0000E+00 0.9000E+01
        1  1    1    2  502    0 -.41975827E+03 -.83601080E+01 -.51025820E+03 0.66078016E+03 0.32000000E+00 0.0000E+00 0.9000E+01
#aMCatNLO 1  0  0  5  2 0.56752313D+02 0.00000000D+00  -5  6  0 0.00000000D+00 0.00000000D+00 0.00000000D+00 0.00000000D+00 0.00000000D+00
  <mgrwgt>
 -.1093143399D-01    6    2    0
 0.980477586347472D+03 0.000000000000000D+00 0.000000000000000D+00 0.980477586347472D+03
 0.980477586347472D+03 -.000000000000000D+00 -.000000000000000D+00 -.980477586347472D+03
 0.585706400152729D+03 0.457501016617644D+03 0.327944528567087D+02 0.342117422584001D+03
 0.466249103110957D+03 -.376756022301849D+02 -.244318473316723D+02 0.464081738473220D+03
 0.908999669431258D+03 -.419825414387459D+03 -.836260552503650D+01 -.806199161057222D+03
 0.000000000000000D+00 -.000000000000000D+00 0.000000000000000D+00 0.000000000000000D+00
 0.980477586347472D+03 0.000000000000000D+00 0.000000000000000D+00 0.980477586347472D+03
 0.980477586347472D+03 -.000000000000000D+00 -.000000000000000D+00 -.980477586347472D+03
 0.585140761424630D+03 0.457203880464095D+03 0.327885341286989D+02 0.341546826070542D+03
 0.465816426166669D+03 -.379121406745813D+02 -.244365589990326D+02 0.463627508955676D+03
 0.592503512112647D+03 -.263230907158050D+03 -.330656715785177D+02 -.529789168203383D+03
 0.317494472990998D+03 -.156060832631464D+03 0.247136964488513D+02 -.275385166822834D+03
0.413627418738D-04 0.000000000000D+00 0.000000000000D+00 0.324233641041D-04 0.000000000000D+00  6 2 1 25 2 1 21 0 0.22093379D+00 0.10298796D+00 0.22100120D+06 0.22100120D+06 0.22100120D+06 0.10945103D+01  1  2  2  4  6  5        1 0.248784772561D-03 0.100000000000D+01
0.140036136709D-04 0.000000000000D+00 -.158843819855D-06 0.324233641041D-04 0.000000000000D+00  6 2 1 25 2 1 21 2 0.22093379D+00 0.10298796D+00 0.22100120D+06 0.22100120D+06 0.22100120D+06 0.10945103D+01  1  2  3  4  6  5        1 0.100900731728D-03 0.100000000000D+01
-.255227582266D-04 0.000000000000D+00 0.000000000000D+00 0.324233641041D-04 0.000000000000D+00  6 2 1 25 2 1 21 2 0.22093379D+00 0.10298796D+00 0.22100120D+06 0.22100120D+06 0.22100120D+06 0.10945103D+01  1  2 15  4  6  5        1 -.183900030470D-03 0.100000000000D+01
-.248289866294D-02 0.000000000000D+00 0.000000000000D+00 0.324233641041D-04 0.000000000000D+00  6 2 1 25 2 1 21 2 0.22093379D+00 0.10298796D+00 0.22100120D+06 0.22100120D+06 0.22100120D+06 0.10945103D+01  1  2  4  4  6  5        1 -.178901173500D-01 0.100000000000D+01
-.232751921301D-02 0.000000000000D+00 0.000000000000D+00 0.324233641041D-04 0.000000000000D+00  6 2 1 25 2 1 21 2 0.22093379D+00 0.10298796D+00 0.22100120D+06 0.22100120D+06 0.22100120D+06 0.10945103D+01  1  2  5  4  6  5        1 -.167705563165D-01 0.100000000000D+01
0.327027865606D-02 0.000000000000D+00 -.000000000000D+00 0.324233641041D-04 0.000000000000D+00  6 2 1 25 2 1 21 2 0.22093379D+00 0.10298796D+00 0.22100120D+06 0.22100120D+06 0.22100120D+06 0.10945103D+01  1  2  6  4  6  5        1 0.235634541986D-01 0.100000000000D+01
  </mgrwgt>
  </event>
  <event>
  5     66 0.18337608E-05 0.54341154E+02 0.75467711E-02 0.93718963E-01
        2 -1    0    0  501    0 0.00000000E+00 0.00000000E+00 0.85553443E+03 0.85553449E+03 0.32000000E+00 0.0000E+00 0.9000E+01
        1 -1    0    0  502    0 0.00000000E+00 0.00000000E+00 -.93059288E+03 0.93059293E+03 0.32000000E+00 0.0000E+00 0.9000E+01
       25  1    1    2    0    0 -.15050743E+03 -.45614312E+03 -.20948480E+03 0.53872805E+03 0.12500000E+03 0.0000E+00 0.9000E+01
        2  1    1    2  501    0 0.15391226E+03 0.51037597E+03 0.58621675E+03 0.79235270E+03 0.32000000E+00 0.0000E+00 0.9000E+01
        1  1    1    2  502    0 -.34048227E+01 -.54232857E+02 -.45179041E+03 0.45504667E+03 0.32000000E+00 0.0000E+00 0.9000E+01
#aMCatNLO 1  0  0  2  1 0.37338622D+00 0.00000000D+00  -5  6  0 0.00000000D+00 0.00000000D+00 0.00000000D+00 0.00000000D+00 0.00000000D+00
  <mgrwgt>
 0.1912070597D-02    6    2    0
 0.892274814977546D+03 0.000000000000000D+00 0.000000000000000D+00 0.892274814977546D+03
 0.892274814977546D+03 0.000000000000000D+00 0.000000000000000D+00 -.892274814977546D+03
 0.530382724108864D+03 -.150506568161552D+03 -.456138725739275D+03 -.186992165221759D+03
 0.817704967748029D+03 0.153911393102456D+03 0.510373108046117D+03 0.620058052069654D+03
 0.436461938098199D+03 -.340482494090392D+01 -.542343823068416D+02 -.433065886847895D+03
 0.000000000000000D+00 0.000000000000000D+00 -.000000000000000D+00 0.000000000000000D+00
 0.892569198760249D+03 0.000000000000000D+00 0.000000000000000D+00 0.892569198760249D+03
 0.892393239911632D+03 0.000000000000000D+00 0.000000000000000D+00 -.892393239911632D+03
 0.530336794565998D+03 -.150584398986620D+03 -.456059628336092D+03 -.186992165221759D+03
 0.817758515607660D+03 0.153791390151593D+03 0.510495063862199D+03 0.620058052069654D+03
 0.436454358843746D+03 -.346887561067140D+01 -.541692893099947D+02 -.433065886847895D+03
 0.412769654476134D+00 0.261884445698490D+00 -.266146216112720D+00 0.175958848616439D+00
0.392084623440D-03 0.000000000000D+00 0.000000000000D+00 0.572836705677D-05 0.000000000000D+00  6 2 1 25 2 1 21 0 0.13162069D+00 0.14316814D+00 0.29362465D+06 0.29362465D+06 0.29362465D+06 0.10852427D+01  1  2  2  2  6  2        1 0.305020259421D-02 0.100000000000D+01
0.128345123969D-03 0.000000000000D+00 -.150570819226D-05 0.572836705677D-05 0.000000000000D+00  6 2 1 25 2 1 21 2 0.13162069D+00 0.14316814D+00 0.29362465D+06 0.29362465D+06 0.29362465D+06 0.10852427D+01  1  2  3  2  6  2        1 0.117593147176D-02 0.100000000000D+01
-.269420794085D-03 0.000000000000D+00 0.000000000000D+00 0.572836705677D-05 0.000000000000D+00  6 2 1 25 2 1 21 2 0.13162069D+00 0.14316814D+00 0.29362465D+06 0.29362465D+06 0.29362465D+06 0.10852427D+01  1  2 15  2  6  2        1 -.246850352481D-02 0.100000000000D+01
-.861564193869D-02 0.000000000000D+00 0.000000000000D+00 0.572836705677D-05 0.000000000000D+00  6 2 1 25 2 1 21 2 0.13162069D+00 0.14316814D+00 0.29362465D+06 0.29362465D+06 0.29362465D+06 0.10852427D+01  1  2  4  2  6  2        1 -.789387566257D-01 0.100000000000D+01
0.862361942705D-02 0.000000000000D+00 0.000000000000D+00 0.572836705677D-05 0.468168680142D-04  6 2 1 25 2 1 21 2 0.13166411D+00 0.14318715D+00 0.29381191D+06 0.29381191D+06 0.29381191D+06 0.10852222D+01  1  2 11  2  6  2        1 0.789542487906D-01 0.100000000000D+01
0.104561049751D-04 0.000000000000D+00 0.000000000000D+00 0.572836705677D-05 0.598869634292D-08  6 2 21 25 2 1 -1 2 0.13166411D+00 0.14318715D+00 0.29381191D+06 0.29381191D+06 0.29381191D+06 0.10852222D+01  1  2 11  6  6  2        1 0.138947890692D-03 0.100000000000D+01
  </mgrwgt>
  </event>
  <event>
  5     66 0.18337608E-05 0.75787814E+02 0.75467711E-02 0.90524087E-01
        2 -1    0    0  501    0 0.00000000E+00 0.00000000E+00 0.78848954E+03 0.78848961E+03 0.32000000E+00 0.0000E+00 0.9000E+01
        1 -1    0    0  502    0 0.00000000E+00 0.00000000E+00 -.10392934E+04 0.10392935E+04 0.32000000E+00 0.0000E+00 0.9000E+01
       25  1    1    2    0    0 -.25180950E+02 -.66045923E+03 -.41385763E+03 0.78977440E+03 0.12500000E+03 0.0000E+00 0.9000E+01
        2  1    1    2  501    0 -.28818181E+02 0.70120843E+02 0.39443132E+03 0.40165108E+03 0.32000000E+00 0.0000E+00 0.9000E+01
        1  1    1    2  502    0 0.53999131E+02 0.59033838E+03 -.23137759E+03 0.63635761E+03 0.32000000E+00 0.0000E+00 0.9000E+01
#aMCatNLO 1  0  0  2  2 0.13734728D+03 0.00000000D+00  -5  6  0 0.00000000D+00 0.00000000D+00 0.00000000D+00 0.00000000D+00 0.00000000D+00
  <mgrwgt>
 0.5837103596D-02    7    2    0
 0.905246987464205D+03 0.000000000000000D+00 0.000000000000000D+00 0.905246987464205D+03
 0.905246987464205D+03 0.000000000000000D+00 0.000000000000000D+00 -.905246987464205D+03
 0.740031053968199D+03 -.251918765621944D+02 -.660552789963844D+03 -.308312085172702D+03
 0.459980997888057D+03 -.288090856016801D+02 0.700987109016994D+02 0.453694529099489D+03
 0.610481923072154D+03 0.540009621638746D+02 0.590454079062145D+03 -.145382443926788D+03
 0.000000000000000D+00 -.000000000000000D+00 0.000000000000000D+00 -.000000000000000D+00
 0.951670177684597D+03 0.000000000000000D+00 0.000000000000000D+00 0.951670177684597D+03
 0.101546667457861D+04 0.000000000000000D+00 0.000000000000000D+00 -.101546667457861D+04
 0.791969232380635D+03 -.206939037394683D+02 -.718404959282753D+03 -.308312085172702D+03
 0.455831473563449D+03 -.261202482404810D+02 0.355153373639238D+02 0.453694529099489D+03
 0.567895499317266D+03 0.574606936456837D+02 0.545955595106817D+03 -.145382443926788D+03
 0.151440647001858D+03 -.106465416657345D+02 0.136934026812013D+03 -.637964968940147D+02
0.398056724541D-03 0.000000000000D+00 0.000000000000D+00 0.271852342120D-06 0.000000000000D+00  6 2 1 25 2 1 21 0 0.12130609D+00 0.15989131D+00 0.44987467D+06 0.44987467D+06 0.44987467D+06 0.10717680D+01  1  2  2  2  6  2        1 0.278253116840D-02 0.100000000000D+01
0.112979515785D-03 0.000000000000D+00 -.152864263298D-05 0.271852342120D-06 0.000000000000D+00  6 2 1 25 2 1 21 2 0.12130609D+00 0.15989131D+00 0.44987467D+06 0.44987467D+06 0.44987467D+06 0.10717680D+01  1  2  3  2  6  2        1 0.907186067035D-03 0.100000000000D+01
-.229401460426D-03 0.000000000000D+00 0.000000000000D+00 0.271852342120D-06 0.000000000000D+00  6 2 1 25 2 1 21 2 0.12130609D+00 0.15989131D+00 0.44987467D+06 0.44987467D+06 0.44987467D+06 0.10717680D+01  1  2 15  2  6  2        1 -.184201363592D-02 0.100000000000D+01
-.142416362861D-03 0.000000000000D+00 0.000000000000D+00 0.271852342120D-06 0.000000000000D+00  6 2 1 25 2 1 21 2 0.12130609D+00 0.15989131D+00 0.44987467D+06 0.44987467D+06 0.44987467D+06 0.10717680D+01  1  2  4  2  6  2        1 -.114355367173D-02 0.100000000000D+01
-.255954409030D-02 0.000000000000D+00 -.608227393220D-03 0.271852342120D-06 0.000000000000D+00  6 2 1 25 2 1 21 2 0.12130609D+00 0.18483525D+00 0.44987467D+06 0.44987467D+06 0.44987467D+06 0.10717680D+01  1  2  5  2  6  2        1 -.156237442210D-01 0.100000000000D+01
0.262640780410D-02 0.000000000000D+00 0.601891487780D-03 0.271852342120D-06 0.000000000000D+00  6 2 1 25 2 1 21 2 0.12130609D+00 0.15989131D+00 0.44987467D+06 0.44987467D+06 0.44987467D+06 0.10717680D+01  1  2  6  2  6  2        1 0.210891377050D-01 0.100000000000D+01
-.528209489057D-04 0.000000000000D+00 -.134953135862D-04 0.271852342120D-06 0.000000000000D+00  6 2 21 25 2 1 -1 2 0.12130609D+00 0.18483525D+00 0.44987467D+06 0.44987467D+06 0.44987467D+06 0.10717680D+01  1  2  5  6  6  2        1 -.332439816159D-03 0.100000000000D+01
  </mgrwgt>
  </event>
  <event>
  5     66 0.18337608E-05 0.22399830E+03 0.75467711E-02 0.88416567E-01
        2 -1    0    0  501    0 0.00000000E+00 0.00000000E+00 0.18749910E+04 0.18749910E+04 0.32000000E+00 0.0000E+00 0.9000E+01
        1 -1    0    0  502    0 0.00000000E+00 0.00000000E+00 -.16392219E+04 0.16392219E+04 0.32000000E+00 0.0000E+00 0.9000E+01
       25  1    1    2    0    0 0.47152295E+03 -.19607180E+03 0.55305915E+02 0.52864146E+03 0.12500000E+03 0.0000E+00 0.9000E+01
        2  1    1    2  501    0 -.18943689E+03 0.11954785E+03 0.15597008E+04 0.15757045E+04 0.32000000E+00 0.0000E+00 0.9000E+01
        1  1    1    2  502    0 -.28208606E+03 0.76523955E+02 -.13792376E+04 0.14098670E+04 0.32000000E+00 0.0000E+00 0.9000E+01
#aMCatNLO 1  0  0  5  2 0.41791725D+01 0.00000000D+00  -5  6  0 0.00000000D+00 0.00000000D+00 0.00000000D+00 0.00000000D+00 0.00000000D+00
  <mgrwgt>
 0.6426127924D-02    6    2    0
 0.175314755636645D+04 0.000000000000000D+00 0.000000000000000D+00 0.175314755636645D+04
 0.175314755636645D+04 -.000000000000000D+00 -.000000000000000D+00 -.175314755636645D+04
 0.526134734422875D+03 0.471539717732658D+03 -.196074806132903D+03 0.199430129814538D+02
 0.147434489011905D+04 -.189431634492363D+03 0.119544530626098D+03 0.145722943151417D+04
 0.150581548819098D+04 -.282108083240295D+03 0.765302755068053D+02 -.147717244449562D+04
 0.000000000000000D+00 0.000000000000000D+00 0.000000000000000D+00 0.000000000000000D+00
 0.175314755636645D+04 0.000000000000000D+00 0.000000000000000D+00 0.175314755636645D+04
 0.175314755636645D+04 -.000000000000000D+00 -.000000000000000D+00 -.175314755636645D+04
 0.516063606335052D+03 0.460376808035490D+03 -.193046532200553D+03 -.385081395543061D+02
 0.132479102261748D+04 -.219412973170425D+03 0.127677867617865D+03 0.130024134795543D+04
 0.100771901311306D+04 -.174575551103490D+03 -.464136869264118D+03 -.877267321251722D+03
 0.657721470667313D+03 -.663882837615749D+02 0.529505533846806D+03 -.384465887149399D+03
0.132340037998D-01 0.000000000000D+00 0.000000000000D+00 0.719726882818D-04 0.000000000000D+00  6 2 1 25 2 1 21 0 0.28846016D+00 0.25218799D+00 0.27147191D+06 0.27147191D+06 0.27147191D+06 0.10877772D+01  1  2  2  4  6  5        1 0.847756135336D-02 0.100000000000D+01
0.189070199793D-02 0.000000000000D+00 -.508220591846D-04 0.719726882818D-04 0.000000000000D+00  6 2 1 25 2 1 21 2 0.28846016D+00 0.25218799D+00 0.27147191D+06 0.27147191D+06 0.27147191D+06 0.10877772D+01  1  2  3  4  6  5        1 0.143312036743D-02 0.100000000000D+01
-.801566100175D-02 0.000000000000D+00 0.000000000000D+00 0.719726882818D-04 0.000000000000D+00  6 2 1 25 2 1 21 2 0.28846016D+00 0.25218799D+00 0.27147191D+06 0.27147191D+06 0.27147191D+06 0.10877772D+01  1  2 15  4  6  5        1 -.607573644744D-02 0.100000000000D+01
-.101680517328D-03 0.000000000000D+00 0.000000000000D+00 0.719726882818D-04 0.000000000000D+00  6 2 1 25 2 1 21 2 0.28846016D+00 0.25218799D+00 0.27147191D+06 0.27147191D+06 0.27147191D+06 0.10877772D+01  1  2  4  4  6  5        1 -.770721248050D-04 0.100000000000D+01
-.679100251769D-02 0.000000000000D+00 0.000000000000D+00 0.719726882818D-04 0.000000000000D+00  6 2 1 25 2 1 21 2 0.28846016D+00 0.25218799D+00 0.27147191D+06 0.27147191D+06 0.27147191D+06 0.10877772D+01  1  2  5  4  6  5        1 -.514746587991D-02 0.100000000000D+01
0.103112055301D-01 0.000000000000D+00 -.000000000000D+00 0.719726882818D-04 0.000000000000D+00  6 2 1 25 2 1 21 2 0.28846016D+00 0.25218799D+00 0.27147191D+06 0.27147191D+06 0.27147191D+06 0.10877772D+01  1  2  6  4  6  5        1 0.781572065517D-02 0.100000000000D+01
  </mgrwgt>
  </event>
  <event>
  5     66 0.18337608E-05 0.50182660E+02 0.75467711E-02 0.88677846E-01
        2 -1    0    0  501    0 0.00000000E+00 0.00000000E+00 0.11813490E+04 0.11813490E+04 0.32000000E+00 0.0000E+00 0.9000E+01
        1 -1    0    0  502    0 -.00000000E+00 -.00000000E+00 -.13437761E+04 0.13437761E+04 0.32000000E+00 0.0000E+00 0.9000E+01
       25  1    1    2    0    0 -.24617580E+03 -.78207752E+03 -.16976394E+03 0.84657697E+03 0.12500000E+03 0.0000E+00 0.9000E+01
        2  1    1    2  501    0 -.37025173E+02 -.33889910E+02 0.61846068E+03 0.62049424E+03 0.32000000E+00 0.0000E+00 0.9000E+01
        1  1    1    2  502    0 0.28320097E+03 0.81596743E+03 -.61112386E+03 0.10580539E+04 0.32000000E+00 0.0000E+00 0.9000E+01
#aMCatNLO 1  0  0  4  1 0.16407701D+02 0.00000000D+00  -5  6  0 0.00000000D+00 0.00000000D+00 0.00000000D+00 0.00000000D+00 0.00000000D+00
  <mgrwgt>
 0.2446087525D-02    8    2    0
 0.125994785780860D+04 0.000000000000000D+00 0.000000000000000D+00 0.125994785780860D+04
 0.125994785780860D+04 -.000000000000000D+00 -.000000000000000D+00 -.125994785780860D+04
 0.837486428762430D+03 -.246213112030451D+03 -.782179015840681D+03 -.115471247520902D+03
 0.661503361518149D+03 -.370171625033407D+02 -.338825775332652D+02 0.659597148204656D+03
 0.102090592533662D+04 0.283230274533792D+03 0.816061593373946D+03 -.544125900683753D+03
 0.000000000000000D+00 -.000000000000000D+00 0.000000000000000D+00 0.000000000000000D+00
 0.125994785780860D+04 0.000000000000000D+00 0.000000000000000D+00 0.125994785780860D+04
 0.125994785780860D+04 -.000000000000000D+00 -.000000000000000D+00 -.125994785780860D+04
 0.837466664152915D+03 -.246228256453235D+03 -.782192877845342D+03 -.115201393825915D+03
 0.331363114023893D+03 -.268140018308356D+01 -.211824844638724D+02 0.330674501255551D+03
 0.102071201978056D+04 0.283211814837545D+03 0.816044696830639D+03 -.543796973176129D+03
 0.330353917659832D+03 -.343021582012258D+02 -.126693345214243D+02 0.328323865746493D+03
0.121415891694D-04 0.000000000000D+00 0.000000000000D+00 0.200683251571D-05 0.000000000000D+00  6 2 1 25 2 1 21 0 0.18174600D+00 0.20673479D+00 0.75993511D+06 0.75993511D+06 0.75993511D+06 0.10558937D+01  1  2  2  3  6  4        2 0.278976066243D-04 0.100000000000D+01
0.647142504967D-05 0.000000000000D+00 -.466268993643D-07 0.200683251571D-05 0.000000000000D+00  6 2 1 25 2 1 21 2 0.18174600D+00 0.20673479D+00 0.75993511D+06 0.75993511D+06 0.75993511D+06 0.10558937D+01  1  2  3  3  6  4        2 0.165779841688D-04 0.100000000000D+01
-.771179780794D-05 0.000000000000D+00 0.000000000000D+00 0.200683251571D-05 0.000000000000D+00  6 2 1 25 2 1 21 2 0.18174600D+00 0.20673479D+00 0.75993511D+06 0.75993511D+06 0.75993511D+06 0.10558937D+01  1  2 15  3  6  4        2 -.197554728661D-04 0.100000000000D+01
0.711595302901D-03 0.000000000000D+00 0.000000000000D+00 0.200683251571D-05 0.000000000000D+00  6 2 1 25 2 1 21 2 0.18174600D+00 0.20673479D+00 0.76668991D+06 0.76668991D+06 0.76668991D+06 0.10556319D+01  1  2 12  3  6  4        2 0.182100730607D-02 0.100000000000D+01
0.469960407229D-08 0.000000000000D+00 0.000000000000D+00 0.200683251571D-05 0.000000000000D+00  6 2 1 25 2 1 21 2 0.18174600D+00 0.20673479D+00 0.76668991D+06 0.76668991D+06 0.76668991D+06 0.10556319D+01  1  2 12  3  6  4        2 0.120265174831D-07 0.100000000000D+01
-.338931332778D-03 0.000000000000D+00 0.000000000000D+00 0.200683251571D-05 0.000000000000D+00  6 2 1 25 2 1 21 2 0.18174600D+00 0.20673479D+00 0.75993511D+06 0.75993511D+06 0.75993511D+06 0.10558937D+01  1  2  4  3  6  4        2 -.868247445654D-03 0.100000000000D+01
-.956701998488D-03 0.000000000000D+00 0.000000000000D+00 0.200683251571D-05 0.000000000000D+00  6 2 1 25 2 1 21 2 0.18174600D+00 0.20673479D+00 0.75993511D+06 0.75993511D+06 0.75993511D+06 0.10558937D+01  1  2  5  3  6  4        2 -.245080341092D-02 0.100000000000D+01
0.152998676811D-02 0.000000000000D+00 -.000000000000D+00 0.200683251571D-05 0.000000000000D+00  6 2 1 25 2 1 21 2 0.18174600D+00 0.20673479D+00 0.75993511D+06 0.75993511D+06 0.75993511D+06 0.10558937D+01  1  2  6  3  6  4        2 0.391939893077D-02 0.100000000000D+01
  </mgrwgt>
  </event>
  <event>
  5     66 0.18337608E-05 0.25883076E+02 0.75467711E-02 0.92732736E-01
        2 -1    0    0  501    0 0.00000000E+00 0.00000000E+00 0.32392884E+04 0.32392884E+04 0.32000000E+00 0.0000E+00 0.9000E+01
        1 -1    0    0  502    0 0.00000000E+00 0.00000000E+00 -.41156782E+03 0.41156794E+03 0.32000000E+00 0.0000E+00 0.9000E+01
       25  1    1    2    0    0 0.38601620E+03 -.39481861E+03 0.26374126E+03 0.62455960E+03 0.12500000E+03 0.0000E+00 0.9000E+01
        2  1    1    2  501    0 -.40404548E+03 0.41338886E+03 0.27644108E+04 0.28242008E+04 0.32000000E+00 0.0000E+00 0.9000E+01
        1  1    1    2  502    0 0.18029283E+02 -.18570244E+02 -.20043145E+03 0.20209596E+03 0.32000000E+00 0.0000E+00 0.9000E+01
#aMCatNLO 1  0  0  5  2 0.27467518D+02 0.00000000D+00  -5  6  0 0.00000000D+00 0.00000000D+00 0.00000000D+00 0.00000000D+00 0.00000000D+00
  <mgrwgt>
 0.6514057640D-02    4    2    0
 0.115463722283822D+04 0.000000000000000D+00 0.000000000000000D+00 0.115463722283822D+04
 0.115463722283822D+04 -.000000000000000D+00 -.000000000000000D+00 -.115463722283822D+04
 0.664435685187763D+03 0.386014543802572D+03 -.394816915418492D+03 -.347796140035010D+03
 0.107988979197914D+04 -.404044157342346D+03 0.413387501067547D+03 0.912151881925043D+03
 0.564948968509539D+03 0.180296135397731D+02 -.185705856490537D+02 -.564355741890033D+03
 0.000000000000000D+00 0.000000000000000D+00 0.000000000000000D+00 0.000000000000000D+00
 0.115463722283822D+04 0.000000000000000D+00 0.000000000000000D+00 0.115463722283822D+04
 0.115463722283822D+04 -.000000000000000D+00 -.000000000000000D+00 -.115463722283822D+04
 0.669090566178034D+03 0.386277384853373D+03 -.395087642921066D+03 -.356023485335389D+03
 0.106838935738749D+04 -.403620726646133D+03 0.412951365484656D+03 0.898897823862562D+03
 0.274681606704823D+02 0.605272686430101D+01 -.267632462241387D+02 0.126214090803553D+01
 0.544326361440442D+03 0.112906149284580D+02 0.889952366054917D+01 -.544136479435208D+03
0.736673244939D-02 0.000000000000D+00 0.000000000000D+00 0.308683622263D-04 0.000000000000D+00  6 2 1 25 2 1 21 0 0.49835207D+00 0.63318137D-01 0.34226633D+06 0.34226633D+06 0.34226633D+06 0.10803420D+01  1  2  2  4  6  5        1 0.773424014442D-02 0.100000000000D+01
0.457945531543D-02 0.000000000000D+00 -.282901923108D-04 0.308683622263D-04 0.000000000000D+00  6 2 1 25 2 1 21 2 0.49835207D+00 0.63318137D-01 0.34226633D+06 0.34226633D+06 0.34226633D+06 0.10803420D+01  1  2  3  4  6  5        1 0.561150195188D-02 0.100000000000D+01
-.533592305647D-02 0.000000000000D+00 0.000000000000D+00 0.308683622263D-04 0.000000000000D+00  6 2 1 25 2 1 21 2 0.49835207D+00 0.63318137D-01 0.34226633D+06 0.34226633D+06 0.34226633D+06 0.10803420D+01  1  2 15  4  6  5        1 -.653845066368D-02 0.100000000000D+01
-.239303320246D-03 0.000000000000D+00 0.000000000000D+00 0.308683622263D-04 0.000000000000D+00  6 2 1 25 2 1 21 2 0.49835207D+00 0.63318137D-01 0.34226633D+06 0.34226633D+06 0.34226633D+06 0.10803420D+01  1  2  4  4  6  5        1 -.293233792264D-03 0.100000000000D+01
  </mgrwgt>
  </event>
  <event>
  5     66 -.18337608E-05 0.14544173E+02 0.75467711E-02 0.91787597E-01
        2 -1    0    0  501    0 0.00000000E+00 0.00000000E+00 0.31934449E+04 0.31934449E+04 0.32000000E+00 0.0000E+00 0.9000E+01
        1 -1    0    0  502    0 0.00000000E+00 0.00000000E+00 -.61489302E+03 0.61489310E+03 0.32000000E+00 0.0000E+00 0.9000E+01
       25  1    1    2    0    0 -.49145424E+03 -.39249839E+03 0.29065175E+04 0.29764159E+04 0.12500000E+03 0.0000E+00 0.9000E+01
        2  1    1    2  501    0 -.25522734E+01 -.14452097E+02 0.74452227E+02 0.75885530E+02 0.32000000E+00 0.0000E+00 0.9000E+01
        1  1    1    2  502    0 0.49400651E+03 0.40695049E+03 -.40241787E+03 0.75603663E+03 0.32000000E+00 0.0000E+00 0.9000E+01
#aMCatNLO 1  0  0  5  4 0.38488425D+02 0.00000000D+00  -5  6  0 0.00000000D+00 0.00000000D+00 0.00000000D+00 0.00000000D+00 0.00000000D+00
  <mgrwgt>
 -.4033816241D-03    6    2    0
 0.140129482158729D+04 0.000000000000000D+00 0.000000000000000D+00 0.140129482158729D+04
 0.140129482158729D+04 -.000000000000000D+00 -.000000000000000D+00 -.140129482158729D+04
 0.137067527424030D+04 -.491532388970298D+03 -.392667123674803D+03 0.121133568757460D+04
 0.343057615706418D+02 -.252939318618412D+01 -.143225393125033D+02 0.310701193221592D+02
 0.139760860736364D+04 0.494061782156482D+03 0.406989662987307D+03 -.124240580689676D+04
 0.000000000000000D+00 0.000000000000000D+00 0.000000000000000D+00 0.000000000000000D+00
 0.140129482158729D+04 0.000000000000000D+00 0.000000000000000D+00 0.140129482158729D+04
 0.140129482158729D+04 -.000000000000000D+00 -.000000000000000D+00 -.140129482158729D+04
 0.136898209674105D+04 -.490931316819085D+03 -.392171982862282D+03 0.120982418525242D+04
 0.342652175237572D+02 -.251434893052224D+01 -.143101464159813D+02 0.310322878782592D+02
 0.113567008866216D+04 0.376478827356748D+03 0.306876844682508D+03 -.102656555807786D+04
 0.263672240247617D+03 0.116966838392860D+03 0.996052845957547D+02 -.214290915052819D+03
0.227393751411D-04 0.000000000000D+00 0.000000000000D+00 0.908394262931D-06 0.000000000000D+00  6 2 1 25 2 1 21 0 0.49129923D+00 0.94598934D-01 0.41994891D+06 0.41994891D+06 0.41994891D+06 0.10739072D+01  1  2  2  4  6  5        1 0.142819636150D-04 0.100000000000D+01
0.873410507509D-05 0.000000000000D+00 -.873251879566D-07 0.908394262931D-06 0.000000000000D+00  6 2 1 25 2 1 21 2 0.49129923D+00 0.94598934D-01 0.41994891D+06 0.41994891D+06 0.41994891D+06 0.10739072D+01  1  2  3  4  6  5        1 0.632646828374D-05 0.100000000000D+01
-.167982847272D-04 0.000000000000D+00 0.000000000000D+00 0.908394262931D-06 0.000000000000D+00  6 2 1 25 2 1 21 2 0.49129923D+00 0.94598934D-01 0.41994891D+06 0.41994891D+06 0.41994891D+06 0.10739072D+01  1  2 15  4  6  5        1 -.121676822794D-04 0.100000000000D+01
-.933287249686D-03 0.000000000000D+00 0.000000000000D+00 0.908394262931D-06 0.000000000000D+00  6 2 1 25 2 1 21 2 0.49129923D+00 0.94598934D-01 0.41994891D+06 0.41994891D+06 0.41994891D+06 0.10739072D+01  1  2  4  4  6  5        1 -.676017993143D-03 0.100000000000D+01
-.176994541289D-02 0.000000000000D+00 0.000000000000D+00 0.908394262931D-06 0.000000000000D+00  6 2 1 25 2 1 21 2 0.49129923D+00 0.94598934D-01 0.41994891D+06 0.41994891D+06 0.41994891D+06 0.10739072D+01  1  2  5  4  6  5        1 -.128204360062D-02 0.100000000000D+01
0.213468482146D-02 0.000000000000D+00 -.000000000000D+00 0.908394262931D-06 0.000000000000D+00  6 2 1 25 2 1 21 2 0.49129923D+00 0.94598934D-01 0.41994891D+06 0.41994891D+06 0.41994891D+06 0.10739072D+01  1  2  6  4  6  5        1 0.154623922000D-02 0.100000000000D+01
  </mgrwgt>
  </event>
  <event>
  5     66 0.18337608E-05 0.24452097E+03 0.75467711E-02 0.93507330E-01
        2 -1    0    0  501    0 0.00000000E+00 0.00000000E+00 0.18333329E+04 0.18333329E+04 0.32000000E+00 0.0000E+00 0.9000E+01
        1 -1    0    0  502    0 0.00000000E+00 0.00000000E+00 -.10163577E+04 0.10163578E+04 0.32000000E+00 0.0000E+00 0.9000E+01
       25  1    1    2    0    0 0.18295958E+03 0.46631733E+03 0.10119134E+03 0.52610907E+03 0.12500000E+03 0.0000E+00 0.9000E+01
        2  1    1    2  501    0 -.13989912E+03 -.21714335E+03 0.14883947E+04 0.15106428E+04 0.32000000E+00 0.0000E+00 0.9000E+01
        1  1    1    2  502    0 -.43060464E+02 -.24917398E+03 -.77261082E+03 0.81293878E+03 0.32000000E+00 0.0000E+00 0.9000E+01
#aMCatNLO 1  0  0  1  4 0.48113135D+02 0.00000000D+00  -5  6  0 0.00000000D+00 0.00000000D+00 0.00000000D+00 0.00000000D+00 0.00000000D+00
  <mgrwgt>
 0.2883158555D-02   11    2    0
 0.136503557820607D+04 0.000000000000000D+00 0.000000000000000D+00 0.136503557820607D+04
 0.136503557820607D+04 0.000000000000000D+00 0.000000000000000D+00 -.136503557820607D+04
 0.518887154087961D+03 0.182959447335972D+03 0.466333946128386D+03 -.517433087108433D+02
 0.113138754706855D+04 -.139893924686478D+03 -.217135291584137D+03 0.110150793762291D+04
 0.107979645525563D+04 -.430655226494946D+02 -.249198654544249D+03 -.104976462891207D+04
 0.000000000000000D+00 0.000000000000000D+00 0.000000000000000D+00 0.000000000000000D+00
 0.182206602585286D+04 0.000000000000000D+00 0.000000000000000D+00 0.182206602585286D+04
 0.136651438648209D+04 0.000000000000000D+00 0.000000000000000D+00 -.136651438648209D+04
 0.510196910156528D+03 0.178707865524279D+03 0.458325229435036D+03 -.517433087108433D+02
 0.113609915908517D+04 -.149261871944720D+03 -.234781720351699D+03 0.110150793762291D+04
 0.108419901275549D+04 -.520059038020657D+02 -.266039675828277D+03 -.104976462891207D+04
 0.458085330337768D+03 0.225599102225061D+02 0.424961667449392D+02 0.455551639370776D+03
0.293304422962D-04 0.000000000000D+00 0.000000000000D+00 0.196955500393D-04 0.000000000000D+00  6 2 1 25 2 1 21 0 0.28205122D+00 0.15636273D+00 0.26393477D+06 0.26393477D+06 0.26393477D+06 0.10886914D+01  1  2  2  1  6  1        2 0.538909454928D-04 0.100000000000D+01
0.359387386150D-05 0.000000000000D+00 -.112636621300D-06 0.196955500393D-04 0.000000000000D+00  6 2 1 25 2 1 21 2 0.28205122D+00 0.15636273D+00 0.26393477D+06 0.26393477D+06 0.26393477D+06 0.10886914D+01  1  2  3  1  6  1        2 0.782653586180D-05 0.100000000000D+01
-.205468058548D-04 0.000000000000D+00 0.000000000000D+00 0.196955500393D-04 0.000000000000D+00  6 2 1 25 2 1 21 2 0.28205122D+00 0.15636273D+00 0.26393477D+06 0.26393477D+06 0.26393477D+06 0.10886914D+01  1  2 15  1  6  1        2 -.447456752978D-04 0.100000000000D+01
0.250786633144D-02 0.000000000000D+00 0.000000000000D+00 0.196955500393D-04 0.000000000000D+00  6 2 1 25 2 1 21 2 0.39176436D+00 0.15636273D+00 0.30523741D+06 0.30523741D+06 0.30523741D+06 0.10839962D+01  1  2 12  1  6  1        2 0.213751895469D-02 0.100000000000D+01
0.521352913206D-09 0.000000000000D+00 0.000000000000D+00 0.196955500393D-04 0.000000000000D+00  6 2 1 25 2 1 21 2 0.37665077D+00 0.15636273D+00 0.30523741D+06 0.30523741D+06 0.30523741D+06 0.10839962D+01  1  2 12  1  6  1        2 0.506558790811D-09 0.100000000000D+01
-.117091405630D-02 0.000000000000D+00 0.000000000000D+00 0.196955500393D-04 0.000000000000D+00  6 2 1 25 2 1 21 2 0.28205122D+00 0.15636273D+00 0.26393477D+06 0.26393477D+06 0.26393477D+06 0.10886914D+01  1  2  4  1  6  1        2 -.254995061204D-02 0.100000000000D+01
-.297826112116D-02 0.000000000000D+00 -.219786597512D-04 0.196955500393D-04 0.000000000000D+00  6 2 1 25 2 1 21 2 0.37659470D+00 0.15636273D+00 0.26393477D+06 0.26393477D+06 0.26393477D+06 0.10886914D+01  1  2  5  1  6  1        2 -.295654498249D-02 0.100000000000D+01
0.286495717825D-02 0.000000000000D+00 0.210912321199D-04 0.196955500393D-04 0.000000000000D+00  6 2 1 25 2 1 21 2 0.28205122D+00 0.15636273D+00 0.26393477D+06 0.26393477D+06 0.26393477D+06 0.10886914D+01  1  2  6  1  6  1        2 0.623914220761D-02 0.100000000000D+01
0.103514420048D-03 0.000000000000D+00 0.000000000000D+00 0.196955500393D-04 0.000000000000D+00  6 21 1 25 2 1 -2 2 0.39176436D+00 0.15636273D+00 0.30523741D+06 0.30523741D+06 0.30523741D+06 0.10839962D+01  1  2 12  5  6  1        2 0.979318584570D-05 0.100000000000D+01
0.196269088450D-10 0.000000000000D+00 0.000000000000D+00 0.196955500393D-04 0.000000000000D+00  6 21 1 25 2 1 -2 2 0.37665077D+00 0.15636273D+00 0.30523741D+06 0.30523741D+06 0.30523741D+06 0.10839962D+01  1  2 12  5  6  1        2 0.234995103409D-11 0.100000000000D+01
-.111613040974D-03 0.000000000000D+00 -.827102421925D-06 0.196955500393D-04 0.000000000000D+00  6 21 1 25 2 1 -2 2 0.37659470D+00 0.15636273D+00 0.26393477D+06 0.26393477D+06 0.26393477D+06 0.10886914D+01  1  2  5  5  6  1        2 -.137725137031D-04 0.100000000000D+01
  </mgrwgt>
  </event>
  <event>
  5     66 -.18337608E-05 0.48598479E+02 0.75467711E-02 0.93115831E-01
        2 -1    0    0  501    0 0.00000000E+00 0.00000000E+00 0.30844144E+04 0.30844144E+04 0.32000000E+00 0.0000E+00 0.9000E+01
        1 -1    0    0  502    0 0.00000000E+00 0.00000000E+00 -.69610560E+03 0.69610567E+03 0.32000000E+00 0.0000E+00 0.9000E+01
       25  1    1    2    0    0 0.21957643E+03 -.46990923E+03 0.81278500E+03 0.97225148E+03 0.12500000E+03 0.0000E+00 0.9000E+01
        2  1    1    2  501    0 0.42648370E+02 0.23310462E+02 0.20827759E+04 0.20833430E+04 0.32000000E+00 0.0000E+00 0.9000E+01
        1  1    1    2  502    0 -.26222480E+03 0.44659877E+03 -.50725215E+03 0.72492562E+03 0.32000000E+00 0.0000E+00 0.9000E+01
#aMCatNLO 1  0  0  2  2 0.50618339D+02 0.00000000D+00  -5  6  0 0.00000000D+00 0.00000000D+00 0.00000000D+00 0.00000000D+00 0.00000000D+00
  <mgrwgt>
 -.9208293284D-02    7    2    0
 0.146529119885237D+04 0.000000000000000D+00 0.000000000000000D+00 0.146529119885237D+04
 0.146529119885237D+04 0.000000000000000D+00 0.000000000000000D+00 -.146529119885237D+04
 0.591921689458966D+03 0.219605857197550D+03 -.469952264197532D+03 0.256250704022642D+03
 0.990087153726200D+03 0.426443176235626D+02 0.233082466209918D+02 0.988893704999442D+03
 0.134857355451958D+04 -.262250174821112D+03 0.446644017576540D+03 -.124514440902208D+04
 0.000000000000000D+00 -.000000000000000D+00 0.000000000000000D+00 -.000000000000000D+00
 0.146984084005646D+04 0.000000000000000D+00 0.000000000000000D+00 0.146984084005646D+04
 0.161340676975211D+04 0.000000000000000D+00 0.000000000000000D+00 -.161340676975211D+04
 0.600447399952618D+03 0.226849466237056D+03 -.477270338975431D+03 0.256250704022642D+03
 0.990466870996359D+03 0.546761282131772D+02 0.111527466308486D+02 0.988893704999442D+03
 0.134010524552767D+04 -.245916525925565D+03 0.430142455528996D+03 -.124514440902208D+04
 0.152228093331917D+03 -.356090685246682D+02 0.359751368155868D+02 -.143565929695649D+03
0.222146396164D-02 0.000000000000D+00 0.000000000000D+00 0.121822340125D-03 0.000000000000D+00  6 2 1 25 2 1 21 0 0.47452530D+00 0.10709318D+00 0.30256700D+06 0.30256700D+06 0.30256700D+06 0.10842782D+01  1  2  2  2  6  2        1 0.140473063896D-02 0.100000000000D+01
0.103705044925D-02 0.000000000000D+00 -.853100653758D-05 0.121822340125D-03 0.000000000000D+00  6 2 1 25 2 1 21 2 0.47452530D+00 0.10709318D+00 0.30256700D+06 0.30256700D+06 0.30256700D+06 0.10842782D+01  1  2  3  2  6  2        1 0.770965820728D-03 0.100000000000D+01
-.146497739457D-02 0.000000000000D+00 0.000000000000D+00 0.121822340125D-03 0.000000000000D+00  6 2 1 25 2 1 21 2 0.47452530D+00 0.10709318D+00 0.30256700D+06 0.30256700D+06 0.30256700D+06 0.10842782D+01  1  2 15  2  6  2        1 -.108909600316D-02 0.100000000000D+01
-.247736527883D-01 0.000000000000D+00 0.000000000000D+00 0.121822340125D-03 0.000000000000D+00  6 2 1 25 2 1 21 2 0.47452530D+00 0.10709318D+00 0.30256700D+06 0.30256700D+06 0.30256700D+06 0.10842782D+01  1  2  4  2  6  2        1 -.184172713759D-01 0.100000000000D+01
-.937932125020D-01 0.000000000000D+00 -.520087021259D-02 0.121822340125D-03 0.000000000000D+00  6 2 1 25 2 1 21 2 0.47452530D+00 0.11808449D+00 0.30256700D+06 0.30256700D+06 0.30256700D+06 0.10842782D+01  1  2  5  2  6  2        1 -.599441153143D-01 0.100000000000D+01
0.938776558043D-01 0.000000000000D+00 0.517614605849D-02 0.121822340125D-03 0.000000000000D+00  6 2 1 25 2 1 21 2 0.47452530D+00 0.10709318D+00 0.30256700D+06 0.30256700D+06 0.30256700D+06 0.10842782D+01  1  2  6  2  6  2        1 0.697906876252D-01 0.100000000000D+01
-.147779675029D-02 0.000000000000D+00 -.827912399306D-04 0.121822340125D-03 0.000000000000D+00  6 2 21 25 2 1 -1 2 0.47452530D+00 0.11808449D+00 0.30256700D+06 0.30256700D+06 0.30256700D+06 0.10842782D+01  1  2  5  6  6  2        1 -.172419467564D-02 0.100000000000D+01
  </mgrwgt>
  </event>
  <event>
  6     66 0.18337608E-05 0.10921314E+03 0.75467711E-02 0.90943368E-01
        2 -1    0    0  503    0 0.00000000E+00 0.00000000E+00 0.14149610E+04 0.14149610E+04 0.32000000E+00 0.0000E+00 0.9000E+01
        1 -1    0    0  502    0 0.00000000E+00 0.00000000E+00 -.25193798E+04 0.25193799E+04 0.32000000E+00 0.0000E+00 0.9000E+01
       25  1    1    2    0    0 -.10625631E+03 0.57485299E+03 -.45446411E+03 0.75093874E+03 0.12500000E+03 0.0000E+00 0.9000E+01
        2  1    1    2  501    0 0.33737255E+02 -.67400405E+03 0.85366411E+03 0.10881922E+04 0.32000000E+00 0.0000E+00 0.9000E+01
        1  1    1    2  502    0 -.48710042E+01 0.12712752E+02 -.17880102E+04 0.17880621E+04 0.32000000E+00 0.0000E+00 0.9000E+01
       21  1    1    2  503  501 0.77390060E+02 0.86438306E+02 0.28439137E+03 0.30714788E+03 0.75000000E+00 0.0000E+00 0.9000E+01
#aMCatNLO 2  0  0  1  2 0.11602070D+03 0.00000000D+00  -5  6  0 0.00000000D+00 0.00000000D+00 0.00000000D+00 0.00000000D+00 0.00000000D+00
  <mgrwgt>
 0.1796087628D-01    1    2    0
 0.167438603578068D+04 0.000000000000000D+00 0.000000000000000D+00 0.167438603578068D+04
 0.167438603578068D+04 0.000000000000000D+00 0.000000000000000D+00 -.167438603578068D+04
 0.637251017518874D+03 -.916811531813002D+02 0.591122381498569D+03 -.180645386245116D+03
 0.151606254505361D+04 0.689438435347647D+02 -.634672281459525D+03 0.137509399027850D+04
 0.119545850898886D+04 0.227373096465355D+02 0.435498999609565D+02 -.119444860403339D+04
 0.000000000000000D+00 0.000000000000000D+00 0.000000000000000D+00 0.000000000000000D+00
 0.211814710712716D+04 0.000000000000000D+00 0.000000000000000D+00 0.211814710712716D+04
 0.168299120800317D+04 0.000000000000000D+00 0.000000000000000D+00 -.168299120800317D+04
 0.624494091602092D+03 -.106256233649105D+03 0.574843220091341D+03 -.180645386245116D+03
 0.153176099039472D+04 0.337368330540356D+02 -.673995605097277D+03 0.137509399027850D+04
 0.119452619845303D+04 -.487065901209336D+01 0.127140785799169D+02 -.119444860403339D+04
 0.450357034680491D+03 0.773900596071633D+02 0.864383064260192D+02 0.435155899123988D+03
0.567230353154D-01 0.000000000000D+00 0.000000000000D+00 0.923287391620D-04 0.355858470215D-07  6 2 1 25 2 1 21 2 0.21768627D+00 0.38759683D+00 0.49159118D+06 0.49159118D+06 0.49159118D+06 0.10690314D+01  1  2  1  1  6  1        2 0.179608762768D-01 0.100000000000D+01
  </mgrwgt>
  </event>
  <event>
  5     66 0.18337608E-05 0.48695563E+02 0.75467711E-02 0.92414770E-01
        2 -1    0    0  501    0 0.00000000E+00 0.00000000E+00 0.58906365E+03 0.58906374E+03 0.32000000E+00 0.0000E+00 0.9000E+01
        1 -1    0    0  502    0 0.00000000E+00 0.00000000E+00 -.11094314E+04 0.11094314E+04 0.32000000E+00 0.0000E+00 0.9000E+01
       25  1    1    2    0    0 0.21693322E+03 -.41354317E+03 -.11570795E+03 0.49708279E+03 0.12500000E+03 0.0000E+00 0.9000E+01
        2  1    1    2  501    0 -.24552611E+03 0.37413502E+03 0.27155149E+03 0.52345047E+03 0.32000000E+00 0.0000E+00 0.9000E+01
        1  1    1    2  502    0 0.28592898E+02 0.39408153E+02 -.67621129E+03 0.67796192E+03 0.32000000E+00 0.0000E+00 0.9000E+01
#aMCatNLO 1  0  0  2  4 0.86144080D+02 0.00000000D+00  -5  6  0 0.00000000D+00 0.00000000D+00 0.00000000D+00 0.00000000D+00 0.00000000D+00
  <mgrwgt>
 0.8717243212D-02    7    2    0
 0.808409440010169D+03 0.000000000000000D+00 0.000000000000000D+00 0.808409440010169D+03
 0.808409440010169D+03 0.000000000000000D+00 0.000000000000000D+00 -.808409440010169D+03
 0.484933606055698D+03 0.216911444327646D+03 -.413521960595900D+03 0.385307112158649D+02
 0.637244763728415D+03 -.245508184389214D+03 0.374107694746449D+03 0.453707012320388D+03
 0.494640510236225D+03 0.285967400615679D+02 0.394142658494516D+02 -.492237723536253D+03
 0.000000000000000D+00 -.000000000000000D+00 -.000000000000000D+00 -.000000000000000D+00
 0.846476135515844D+03 0.000000000000000D+00 0.000000000000000D+00 0.846476135515844D+03
 0.110397263433492D+04 0.000000000000000D+00 0.000000000000000D+00 -.110397263433492D+04
 0.505578672065108D+03 0.275113978472952D+03 -.403500281027289D+03 0.385307112158649D+02
 0.620434009380810D+03 -.171606938182968D+03 0.386832477611591D+03 0.453707012320388D+03
 0.502343147706291D+03 0.871795326987267D+02 0.495014207245002D+02 -.492237723536253D+03
 0.322092940698551D+03 -.190686572988711D+03 -.328336173088019D+02 -.257496498819073D+03
0.352253127530D-03 0.000000000000D+00 0.000000000000D+00 0.749895338477D-05 0.000000000000D+00  6 2 1 25 2 1 21 0 0.90625187D-01 0.17068176D+00 0.23988817D+06 0.23988817D+06 0.23988817D+06 0.10918106D+01  1  2  2  2  6  2        1 0.320447014110D-02 0.100000000000D+01
0.136607648422D-03 0.000000000000D+00 -.135274476009D-05 0.749895338477D-05 0.000000000000D+00  6 2 1 25 2 1 21 2 0.90625187D-01 0.17068176D+00 0.23988817D+06 0.23988817D+06 0.23988817D+06 0.10918106D+01  1  2  3  2  6  2        1 0.148139551335D-02 0.100000000000D+01
-.215408965295D-03 0.000000000000D+00 0.000000000000D+00 0.749895338477D-05 0.000000000000D+00  6 2 1 25 2 1 21 2 0.90625187D-01 0.17068176D+00 0.23988817D+06 0.23988817D+06 0.23988817D+06 0.10918106D+01  1  2 15  2  6  2        1 -.233592978437D-02 0.100000000000D+01
-.169093875767D-04 0.000000000000D+00 0.000000000000D+00 0.749895338477D-05 0.000000000000D+00  6 2 1 25 2 1 21 2 0.90625187D-01 0.17068176D+00 0.23988817D+06 0.23988817D+06 0.23988817D+06 0.10918106D+01  1  2  4  2  6  2        1 -.183368143577D-03 0.100000000000D+01
-.116963430557D-02 0.000000000000D+00 -.265995835412D-03 0.749895338477D-05 0.000000000000D+00  6 2 1 25 2 1 21 2 0.90625187D-01 0.23754132D+00 0.23988817D+06 0.23988817D+06 0.23988817D+06 0.10918106D+01  1  2  5  2  6  2        1 -.634732891671D-02 0.100000000000D+01
0.120502406991D-02 0.000000000000D+00 0.252098213763D-03 0.749895338477D-05 0.000000000000D+00  6 2 1 25 2 1 21 2 0.90625187D-01 0.17068176D+00 0.23988817D+06 0.23988817D+06 0.23988817D+06 0.10918106D+01  1  2  6  2  6  2        1 0.130674766110D-01 0.100000000000D+01
-.415725665394D-04 0.000000000000D+00 -.110265644257D-04 0.749895338477D-05 0.000000000000D+00  6 2 21 25 2 1 -1 2 0.90625187D-01 0.23754132D+00 0.23988817D+06 0.23988817D+06 0.23988817D+06 0.10918106D+01  1  2  5  6  6  2        1 -.169472208803D-03 0.100000000000D+01
  </mgrwgt>
  </event>
  <event>
  6     66 0.18337608E-05 0.46598768E+02 0.75467711E-02 0.92246292E-01
        2 -1    0    0  501    0 0.00000000E+00 0.00000000E+00 0.14695016E+04 0.14695016E+04 0.32000000E+00 0.0000E+00 0.9000E+01
        1 -1    0    0  502    0 -.00000000E+00 -.00000000E+00 -.14824128E+04 0.14824129E+04 0.32000000E+00 0.0000E+00 0.9000E+01
       25  1    1    2    0    0 0.44045429E+03 0.35452733E+03 0.49959896E+03 0.76479653E+03 0.12500000E+03 0.0000E+00 0.9000E+01
        2  1    1    2  503    0 -.37613317E+03 -.39669375E+03 0.45737888E+03 0.71276758E+03 0.32000000E+00 0.0000E+00 0.9000E+01
        1  1    1    2  502    0 -.39561910E+02 -.22678597E+02 -.12169087E+04 0.12177628E+04 0.32000000E+00 0.0000E+00 0.9000E+01
       21  1    1    2  501  503 -.24759210E+02 0.64845012E+02 0.24701961E+03 0.25658750E+03 0.75000000E+00 0.0000E+00 0.9000E+01
#aMCatNLO 2  0  0  4  2 0.53972405D+03 0.00000000D+00  -5  6  0 0.00000000D+00 0.00000000D+00 0.00000000D+00 0.00000000D+00 0.00000000D+00
  <mgrwgt>
 0.7447393644D-03    1    2    0
 0.147594311125675D+04 0.000000000000000D+00 0.000000000000000D+00 0.147594311125675D+04
 0.147594311125675D+04 -.000000000000000D+00 -.000000000000000D+00 -.147594311125675D+04
 0.765277109620837D+03 0.451499577469857D+03 0.363666752117509D+03 0.483651402829007D+03
 0.942827551375420D+03 -.429898356165500D+03 -.355859159765084D+03 0.759918057036454D+03
 0.124378156151724D+04 -.216012213043571D+02 -.780759235242436D+01 -.124356945986546D+04
 0.000000000000000D+00 0.000000000000000D+00 0.000000000000000D+00 0.000000000000000D+00
 0.147594311125675D+04 0.000000000000000D+00 0.000000000000000D+00 0.147594311125675D+04
 0.147594311125675D+04 -.000000000000000D+00 -.000000000000000D+00 -.147594311125675D+04
 0.767170275773372D+03 0.440286693077847D+03 0.354385005488202D+03 0.503472072526265D+03
 0.714294745312553D+03 -.375913193021621D+03 -.396524607683682D+03 0.460080960261035D+03
 0.121265616486579D+04 -.395749230474807D+02 -.226857753192693D+02 -.121179790198323D+04
 0.257765036561776D+03 -.247985770087451D+02 0.648253775147499D+02 0.248244869195931D+03
0.485703666813D-03 0.000000000000D+00 0.000000000000D+00 0.571324957588D-04 0.153422569697D-07  6 2 1 25 2 1 21 2 0.22607717D+00 0.22806352D+00 0.38456254D+06 0.38456254D+06 0.38456254D+06 0.10766620D+01  1  2  1  3  6  4        2 0.744739364356D-03 0.100000000000D+01
  </mgrwgt>
  </event>
  <event>
  6     66 0.18337608E-05 0.73550642E+02 0.75467711E-02 0.94864865E-01
        2 -1    0    0  503    0 0.00000000E+00 0.00000000E+00 0.16762965E+04 0.16762965E+04 0.32000000E+00 0.0000E+00 0.9000E+01
        1 -1    0    0  502    0 0.00000000E+00 0.00000000E+00 -.87688106E+03 0.87688112E+03 0.32000000E+00 0.0000E+00 0.9000E+01
       25  1    1    2    0    0 0.12980399E+03 0.44772434E+03 -.62919104E+03 0.79297701E+03 0.12500000E+03 0.0000E+00 0.9000E+01
        2  1    1    2  501    0 -.12304465E+03 -.34605776E+03 0.94524337E+03 0.10140913E+04 0.32000000E+00 0.0000E+00 0.9000E+01
        1  1    1    2  502    0 0.15607925E+02 0.78605501E+01 -.12568107E+03 0.12689062E+03 0.32000000E+00 0.0000E+00 0.9000E+01
       21  1    1    2  503  501 -.22367275E+02 -.10952713E+03 0.60904419E+03 0.61921877E+03 0.75000000E+00 0.0000E+00 0.9000E+01
#aMCatNLO 2  0  0  1  4 0.11613884D+03 0.00000000D+00  -5  6  0 0.00000000D+00 0.00000000D+00 0.00000000D+00 0.00000000D+00 0.00000000D+00
  <mgrwgt>
 0.1298138324D-01    1    2    0
 0.960658535327782D+03 0.000000000000000D+00 0.000000000000000D+00 0.960658535327782D+03
 0.960658535327782D+03 0.000000000000000D+00 0.000000000000000D+00 -.960658535327782D+03
 0.833737545136520D+03 0.119982335971420D+03 0.399528054396002D+03 -.710967556907949D+03
 0.948283275743187D+03 -.133945042149615D+03 -.399429524739270D+03 0.849562211673946D+03
 0.139296249775856D+03 0.139627061781949D+02 -.985296567319551D-01 -.138594654765997D+03
 0.000000000000000D+00 -.000000000000000D+00 -.000000000000000D+00 0.000000000000000D+00
 0.151866374151417D+04 0.000000000000000D+00 0.000000000000000D+00 0.151866374151417D+04
 0.967898273679144D+03 0.000000000000000D+00 0.000000000000000D+00 -.967898273679144D+03
 0.859319951805331D+03 0.129828989528330D+03 0.447744733160662D+03 -.710967556907949D+03
 0.925557675556872D+03 -.123046970051338D+03 -.346064303907669D+03 0.849562211673946D+03
 0.139688758345068D+03 0.155852551627984D+02 0.784669992998935D+01 -.138594654765997D+03
 0.561995629486046D+03 -.223672746397905D+02 -.109527129182983D+03 0.550765467835030D+03
0.375841576003D-02 0.000000000000D+00 0.000000000000D+00 0.189315531784D-04 0.352611223698D-07  6 2 1 25 2 1 21 2 0.25789171D+00 0.13490475D+00 0.23969868D+06 0.23969868D+06 0.23969868D+06 0.10918365D+01  1  2  1  1  6  1        2 0.129813832385D-01 0.100000000000D+01
  </mgrwgt>
  </event>
  <event>
  5     66 -.18337608E-05 0.28734652E+03 0.75467711E-02 0.92042362E-01
        2 -1    0    0  501    0 0.00000000E+00 0.00000000E+00 0.15567283E+04 0.15567284E+04 0.32000000E+00 0.0000E+00 0.9000E+01
        1 -1    0    0  502    0 -.00000000E+00 -.00000000E+00 -.22461213E+04 0.22461213E+04 0.32000000E+00 0.0000E+00 0.9000E+01
       25  1    1    2    0    0 0.24900547E+02 -.48030482E+03 -.17406521E+04 0.18101954E+04 0.12500000E+03 0.0000E+00 0.9000E+01
        2  1    1    2  501    0 0.25322521E+03 0.40810102E+03 0.14350082E+04 0.15132475E+04 0.32000000E+00 0.0000E+00 0.9000E+01
        1  1    1    2  502    0 -.27812576E+03 0.72203799E+02 -.38374905E+03 0.47940667E+03 0.32000000E+00 0.0000E+00 0.9000E+01
#aMCatNLO 1  0  0  5  2 0.27580070D+02 0.00000000D+00  -5  6  0 0.00000000D+00 0.00000000D+00 0.00000000D+00 0.00000000D+00 0.00000000D+00
  <mgrwgt>
 -.1692018059D-02    8    2    0
 0.186991996595665D+04 0.000000000000000D+00 0.000000000000000D+00 0.186991996595665D+04
 0.186991996595665D+04 -.000000000000000D+00 -.000000000000000D+00 -.186991996595665D+04
 0.151982684660022D+04 0.249014066374636D+02 -.480306547139946D+03 -.143629181727417D+04
 0.180326824877132D+04 0.253225114222585D+03 0.408100857489184D+03 0.173813322523630D+04
 0.416744836541757D+03 -.278126520860049D+03 0.722056896507623D+02 -.301841407962125D+03
 0.000000000000000D+00 0.000000000000000D+00 0.000000000000000D+00 -.000000000000000D+00
 0.186991996595665D+04 0.000000000000000D+00 0.000000000000000D+00 0.186991996595665D+04
 0.186991996595665D+04 -.000000000000000D+00 -.000000000000000D+00 -.186991996595665D+04
 0.152103990080687D+04 0.235939295160210D+02 -.479967107064384D+03 -.143771077845052D+04
 0.180152096480877D+04 0.251675168165791D+03 0.408503246026624D+03 0.173645112063656D+04
 0.309366969761896D+03 -.225011555529424D+03 0.404236090820256D+02 -.208431412427855D+03
 0.107912096535756D+03 -.502575421523888D+02 0.310402519557348D+02 -.903089297581791D+02
0.289773939044D-03 0.000000000000D+00 0.000000000000D+00 0.112141282547D-06 0.000000000000D+00  6 2 1 25 2 1 21 0 0.23949667D+00 0.34555712D+00 0.39977608D+06 0.39977608D+06 0.39977608D+06 0.10754452D+01  1  2  2  4  6  5        1 0.105232991914D-03 0.100000000000D+01
-.124029001774D-06 0.000000000000D+00 -.111280822516D-05 0.112141282547D-06 0.000000000000D+00  6 2 1 25 2 1 21 2 0.23949667D+00 0.34555712D+00 0.39977608D+06 0.39977608D+06 0.39977608D+06 0.10754452D+01  1  2  3  4  6  5        1 -.520945602268D-07 0.100000000000D+01
-.185497504419D-03 0.000000000000D+00 0.000000000000D+00 0.112141282547D-06 0.000000000000D+00  6 2 1 25 2 1 21 2 0.23949667D+00 0.34555712D+00 0.39977608D+06 0.39977608D+06 0.39977608D+06 0.10754452D+01  1  2 15  4  6  5        1 -.779125106038D-04 0.100000000000D+01
0.272666968723D-02 0.000000000000D+00 0.000000000000D+00 0.112141282547D-06 0.000000000000D+00  6 2 1 25 2 1 21 2 0.23949667D+00 0.34555712D+00 0.39944291D+06 0.39944291D+06 0.39944291D+06 0.10754713D+01  1  2 12  4  6  5        1 0.114539674679D-02 0.100000000000D+01
0.895442873131D-07 0.000000000000D+00 0.000000000000D+00 0.112141282547D-06 0.000000000000D+00  6 2 1 25 2 1 21 2 0.23949667D+00 0.34555712D+00 0.39944291D+06 0.39944291D+06 0.39944291D+06 0.10754713D+01  1  2 12  4  6  5        1 0.376150202066D-07 0.100000000000D+01
-.902476204446D-02 0.000000000000D+00 0.000000000000D+00 0.112141282547D-06 0.000000000000D+00  6 2 1 25 2 1 21 2 0.23949667D+00 0.34555712D+00 0.39977608D+06 0.39977608D+06 0.39977608D+06 0.10754452D+01  1  2  4  4  6  5        1 -.379057319767D-02 0.100000000000D+01
-.371097766177D-02 0.000000000000D+00 0.000000000000D+00 0.112141282547D-06 0.000000000000D+00  6 2 1 25 2 1 21 2 0.23949667D+00 0.34555712D+00 0.39977608D+06 0.39977608D+06 0.39977608D+06 0.10754452D+01  1  2  5  4  6  5        1 -.155868181261D-02 0.100000000000D+01
0.591528742450D-02 0.000000000000D+00 -.000000000000D+00 0.112141282547D-06 0.000000000000D+00  6 2 1 25 2 1 21 2 0.23949667D+00 0.34555712D+00 0.39977608D+06 0.39977608D+06 0.39977608D+06 0.10754452D+01  1  2  6  4  6  5        1 0.248453420238D-02 0.100000000000D+01
  </mgrwgt>
  </event>
  <event>
  5     66 0.18337608E-05 0.22219891E+02 0.75467711E-02 0.91858873E-01
        2 -1    0    0  501    0 0.00000000E+00 0.00000000E+00 0.15345584E+04 0.15345584E+04 0.32000000E+00 0.0000E+00 0.9000E+01
        1 -1    0    0  502    0 0.00000000E+00 0.00000000E+00 -.90954770E+03 0.90954776E+03 0.32000000E+00 0.0000E+00 0.9000E+01
       25  1    1    2    0    0 -.16372908E+03 0.61457820E+03 0.50360661E+03 0.82082775E+03 0.12500000E+03 0.0000E+00 0.9000E+01
        2  1    1    2  501    0 -.24267281E+01 -.22093030E+02 0.74608995E+03 0.74642100E+03 0.32000000E+00 0.0000E+00 0.9000E+01
        1  1    1    2  502    0 0.16615581E+03 -.59248517E+03 -.62468587E+03 0.87685744E+03 0.32000000E+00 0.0000E+00 0.9000E+01
#aMCatNLO 1  0  0  1  5 0.31215066D+03 0.00000000D+00  -5  6  0 0.00000000D+00 0.00000000D+00 0.00000000D+00 0.00000000D+00 0.00000000D+00
  <mgrwgt>
 0.1528349235D-01    3    2    0
 0.118142040286238D+04 0.000000000000000D+00 0.000000000000000D+00 0.118142040286238D+04
 0.118142040286238D+04 0.000000000000000D+00 0.000000000000000D+00 -.118142040286238D+04
 0.715971140248974D+03 -.163751134595358D+03 0.614650484448284D+03 0.303940819166559D+03
 0.574583843922809D+03 -.242607116696532D+01 -.220870492609394D+02 0.574154047386892D+03
 0.107228582155297D+04 0.166177205762323D+03 -.592563435187345D+03 -.878094866553450D+03
 0.000000000000000D+00 -.000000000000000D+00 0.000000000000000D+00 -.000000000000000D+00
 0.189279466932355D+04 0.000000000000000D+00 0.000000000000000D+00 0.189279466932355D+04
 0.269079378627722D+04 0.000000000000000D+00 0.000000000000000D+00 -.269079378627722D+04
 0.451389341628895D+03 0.854394309461020D+01 0.309312652856175D+03 0.303940819166559D+03
 0.700426515745314D+03 0.185757452590109D+03 -.355582061746097D+03 0.574154047386892D+03
 0.167953532786803D+04 0.572328729724903D+03 -.131233690339819D+04 -.878094866553450D+03
 0.175223727035853D+04 -.766630125409622D+03 0.135860631228811D+04 -.797999116953671D+03
0.430240603853D-02 0.000000000000D+00 0.000000000000D+00 0.243716583166D-04 0.000000000000D+00  6 2 1 25 2 1 21 0 0.23608591D+00 0.13993042D+00 0.41338383D+06 0.41338383D+06 0.41338383D+06 0.10743987D+01  1  2  2  1  6  1        2 0.135474112109D-01 0.100000000000D+01
0.313692234832D-02 0.000000000000D+00 -.165223720375D-04 0.243716583166D-04 0.000000000000D+00  6 2 1 25 2 1 21 2 0.23608591D+00 0.13993042D+00 0.41338383D+06 0.41338383D+06 0.41338383D+06 0.10743987D+01  1  2  3  1  6  1        2 0.114019639112D-01 0.100000000000D+01
-.265928956920D-02 0.000000000000D+00 0.000000000000D+00 0.243716583166D-04 0.000000000000D+00  6 2 1 25 2 1 21 2 0.23608591D+00 0.13993042D+00 0.41338383D+06 0.41338383D+06 0.41338383D+06 0.10743987D+01  1  2 15  1  6  1        2 -.966588277633D-02 0.100000000000D+01
  </mgrwgt>
  </event>
  <event>
  5     66 -.18337608E-05 0.48398182E+02 0.75467711E-02 0.94156511E-01
        2 -1    0    0  501    0 0.00000000E+00 0.00000000E+00 0.16271713E+04 0.16271713E+04 0.32000000E+00 0.0000E+00 0.9000E+01
        1 -1    0    0  502    0 0.00000000E+00 0.00000000E+00 -.20102183E+04 0.20102184E+04 0.32000000E+00 0.0000E+00 0.9000E+01
       25  1    1    2    0    0 0.40583941E+03 -.27091783E+03 0.28938187E+03 0.58092079E+03 0.12500000E+03 0.0000E+00 0.9000E+01
        2  1    1    2  501    0 -.31742604E+02 -.36538941E+02 0.11600661E+04 0.11610755E+04 0.32000000E+00 0.0000E+00 0.9000E+01
        1  1    1    2  502    0 -.37409681E+03 0.30745677E+03 -.18324951E+04 0.18953934E+04 0.32000000E+00 0.0000E+00 0.9000E+01
#aMCatNLO 1  0  0  2  5 0.11133647D+02 0.00000000D+00  -5  6  0 0.00000000D+00 0.00000000D+00 0.00000000D+00 0.00000000D+00 0.00000000D+00
  <mgrwgt>
 -.9232587823D-01   11    2    0
 0.180858223657792D+04 0.000000000000000D+00 0.000000000000000D+00 0.180858223657792D+04
 0.180858223657792D+04 0.000000000000000D+00 0.000000000000000D+00 -.180858223657792D+04
 0.614889989185182D+03 0.405868074279005D+03 -.270944820864860D+03 0.352597091774328D+03
 0.129033163406025D+04 -.317405504551444D+02 -.365365772961064D+02 0.128942364715127D+04
 0.171194284991041D+04 -.374127523823861D+03 0.307481398160966D+03 -.164202073892560D+04
 0.000000000000000D+00 -.000000000000000D+00 -.000000000000000D+00 -.000000000000000D+00
 0.180861726387362D+04 0.000000000000000D+00 0.000000000000000D+00 0.180861726387362D+04
 0.297977611215080D+04 0.000000000000000D+00 0.000000000000000D+00 -.297977611215080D+04
 0.615956291600204D+03 0.407726235123858D+03 -.270576719667243D+03 0.352597091774328D+03
 0.129022005767089D+04 -.278447917511132D+02 -.357648284733106D+02 0.128942364715127D+04
 0.171100525854808D+04 -.368960031953924D+03 0.308505077005168D+03 -.164202073892560D+04
 0.117121176820524D+04 -.109214114188216D+02 -.216352886461424D+01 -.117115884827718D+04
0.497595931270D-03 0.000000000000D+00 0.000000000000D+00 0.460932041592D-03 0.000000000000D+00  6 2 1 25 2 1 21 0 0.25033405D+00 0.30926436D+00 0.26854049D+06 0.26854049D+06 0.26854049D+06 0.10881294D+01  1  2  2  2  6  2        1 0.246819223569D-03 0.100000000000D+01
0.231538990092D-03 0.000000000000D+00 -.191089939609D-05 0.460932041592D-03 0.000000000000D+00  6 2 1 25 2 1 21 2 0.25033405D+00 0.30926436D+00 0.26854049D+06 0.26854049D+06 0.26854049D+06 0.10881294D+01  1  2  3  2  6  2        1 0.135983869264D-03 0.100000000000D+01
-.322229618927D-03 0.000000000000D+00 0.000000000000D+00 0.460932041592D-03 0.000000000000D+00  6 2 1 25 2 1 21 2 0.25033405D+00 0.30926436D+00 0.26854049D+06 0.26854049D+06 0.26854049D+06 0.10881294D+01  1  2 15  2  6  2        1 -.189246875249D-03 0.100000000000D+01
0.321757024936D+01 0.000000000000D+00 0.000000000000D+00 0.460932041592D-03 0.000000000000D+00  6 2 1 25 2 1 21 2 0.25033405D+00 0.50972678D+00 0.27167832D+06 0.27167832D+06 0.27167832D+06 0.10877525D+01  1  2 12  2  6  2        1 0.222034273756D+00 0.100000000000D+01
0.772298289383D-08 0.000000000000D+00 0.000000000000D+00 0.460932041592D-03 0.000000000000D+00  6 2 1 25 2 1 21 2 0.25033405D+00 0.50953926D+00 0.27167832D+06 0.27167832D+06 0.27167832D+06 0.10877525D+01  1  2 12  2  6  2        1 0.534119234002D-09 0.100000000000D+01
-.300909062688D+01 0.000000000000D+00 0.000000000000D+00 0.460932041592D-03 0.000000000000D+00  6 2 1 25 2 1 21 2 0.25033405D+00 0.30926436D+00 0.26854049D+06 0.26854049D+06 0.26854049D+06 0.10881294D+01  1  2  4  2  6  2        1 -.176725218611D+01 0.100000000000D+01
-.321594376290D+01 0.000000000000D+00 -.239433832372D-03 0.460932041592D-03 0.000000000000D+00  6 2 1 25 2 1 21 2 0.25033405D+00 0.50953827D+00 0.26854049D+06 0.26854049D+06 0.26854049D+06 0.10881294D+01  1  2  5  2  6  2        1 -.222870078081D+00 0.100000000000D+01
0.285300064143D+01 0.000000000000D+00 0.212402266070D-03 0.460932041592D-03 0.000000000000D+00  6 2 1 25 2 1 21 2 0.25033405D+00 0.30926436D+00 0.26854049D+06 0.26854049D+06 0.26854049D+06 0.10881294D+01  1  2  6  2  6  2        1 0.167557984977D+01 0.100000000000D+01
0.181220610906D+00 0.000000000000D+00 0.000000000000D+00 0.460932041592D-03 0.000000000000D+00  6 2 21 25 2 1 -1 2 0.25033405D+00 0.50972678D+00 0.27167832D+06 0.27167832D+06 0.27167832D+06 0.10877525D+01  1  2 12  6  6  2        1 0.203886672926D-02 0.100000000000D+01
0.434975329073D-09 0.000000000000D+00 0.000000000000D+00 0.460932041592D-03 0.000000000000D+00  6 2 21 25 2 1 -1 2 0.25033405D+00 0.50953926D+00 0.27167832D+06 0.27167832D+06 0.27167832D+06 0.10877525D+01  1  2 12  6  6  2        1 0.491090916784D-11 0.100000000000D+01
-.181113688020D+00 0.000000000000D+00 -.134851009071D-04 0.460932041592D-03 0.000000000000D+00  6 2 21 25 2 1 -1 2 0.25033405D+00 0.50953827D+00 0.26854049D+06 0.26854049D+06 0.26854049D+06 0.10881294D+01  1  2  5  6  6  2        1 -.205016104737D-02 0.100000000000D+01
  </mgrwgt>
  </event>
  <event>
  5     66 0.18337608E-05 0.49588644E+03 0.75467711E-02 0.79157405E-01
        2 -1    0    0  501    0 0.00000000E+00 0.00000000E+00 0.15410549E+04 0.15410549E+04 0.32000000E+00 0.0000E+00 0.9000E+01
        1 -1    0    0  502    0 0.00000000E+00 0.00000000E+00 -.14152177E+04 0.14152177E+04 0.32000000E+00 0.0000E+00 0.9000E+01
       25  1    1    2    0    0 0.36297088E+03 -.39609243E+03 -.22728712E+03 0.59659157E+03 0.12500000E+03 0.0000E+00 0.9000E+01
        2  1    1    2  501    0 -.48489993E+03 -.10385939E+03 0.12393510E+04 0.13348804E+04 0.32000000E+00 0.0000E+00 0.9000E+01
        1  1    1    2  502    0 0.12192905E+03 0.49995182E+03 -.88622671E+03 0.10248007E+04 0.32000000E+00 0.0000E+00 0.9000E+01
#aMCatNLO 1  0  0  1  5 0.24410650D+04 0.00000000D+00  -5  6  0 0.00000000D+00 0.00000000D+00 0.00000000D+00 0.00000000D+00 0.00000000D+00
  <mgrwgt>
 0.2452770872D-03    3    2    0
 0.147679660927886D+04 0.000000000000000D+00 0.000000000000000D+00 0.147679660927886D+04
 0.147679660927886D+04 0.000000000000000D+00 0.000000000000000D+00 -.147679660927886D+04
 0.606822714603993D+03 0.362963308684028D+03 -.396131378221246D+03 -.252876204291820D+03
 0.128325945428700D+04 -.484888740646244D+03 -.103856993704472D+03 0.118357570990205D+04
 0.106351104966673D+04 0.121925431962215D+03 0.499988371925718D+03 -.930699505610225D+03
 0.000000000000000D+00 0.000000000000000D+00 0.000000000000000D+00 -.000000000000000D+00
 0.312766764251360D+04 0.000000000000000D+00 0.000000000000000D+00 0.312766764251360D+04
 0.314523706801403D+04 0.000000000000000D+00 0.000000000000000D+00 -.314523706801403D+04
 0.930711745209082D+03 0.977402278838065D+02 -.881532657265922D+03 -.252876204291820D+03
 0.193228634330401D+04 -.103956701627655D+04 -.111900825292709D+04 0.118357570990205D+04
 0.968778412306246D+03 -.228642367505399D+03 -.141607592271810D+03 -.930699505610225D+03
 0.244112820970829D+04 0.117046915589815D+04 0.214214850246482D+04 -.175694255004264D+02
0.512267500093D-03 0.000000000000D+00 0.000000000000D+00 0.113120544086D-06 0.000000000000D+00  6 2 1 25 2 1 21 0 0.23708537D+00 0.21772581D+00 0.61007726D+06 0.61007726D+06 0.61007726D+06 0.10624561D+01  1  2  2  1  6  1        2 0.664542533289D-03 0.100000000000D+01
0.226220077952D-04 0.000000000000D+00 -.196724208349D-05 0.113120544086D-06 0.000000000000D+00  6 2 1 25 2 1 21 2 0.23708537D+00 0.21772581D+00 0.61007726D+06 0.61007726D+06 0.61007726D+06 0.10624561D+01  1  2  3  1  6  1        2 0.331267737004D-04 0.100000000000D+01
-.308935014789D-03 0.000000000000D+00 0.000000000000D+00 0.113120544086D-06 0.000000000000D+00  6 2 1 25 2 1 21 2 0.23708537D+00 0.21772581D+00 0.61007726D+06 0.61007726D+06 0.61007726D+06 0.10624561D+01  1  2 15  1  6  1        2 -.452392219812D-03 0.100000000000D+01
  </mgrwgt>
  </event>
  <event>
  6     66 -.18337608E-05 0.15264115E+03 0.75467711E-02 0.93257950E-01
        2 -1    0    0  501    0 0.00000000E+00 0.00000000E+00 0.16297841E+04 0.16297841E+04 0.32000000E+00 0.0000E+00 0.9000E+01
        1 -1    0    0  502    0 0.00000000E+00 0.00000000E+00 -.41824388E+03 0.41824400E+03 0.32000000E+00 0.0000E+00 0.9000E+01
       25  1    1    2    0    0 0.32376574E+03 0.43675507E+03 0.89425844E+03 0.10539936E+04 0.12500000E+03 0.0000E+00 0.9000E+01
        2  1    1    2  503    0 -.21933280E+03 -.22748203E+03 0.49880801E+03 0.59047819E+03 0.32000000E+00 0.0000E+00 0.9000E+01
        1  1    1    2  502    0 -.32854868E+02 -.17415840E+03 -.24448408E+03 0.30196549E+03 0.32000000E+00 0.0000E+00 0.9000E+01
       21  1    1    2  501  503 -.71578072E+02 -.35114643E+02 0.62957852E+02 0.10159091E+03 0.75000000E+00 0.0000E+00 0.9000E+01
#aMCatNLO 2  0  0  4  1 0.37236729D+02 0.00000000D+00  -5  6  0 0.00000000D+00 0.00000000D+00 0.00000000D+00 0.00000000D+00 0.00000000D+00
  <mgrwgt>
 -.1181884798D-02    4    2    0
 0.825619395345948D+03 0.000000000000000D+00 0.000000000000000D+00 0.825619395345948D+03
 0.825619395345948D+03 -.000000000000000D+00 -.000000000000000D+00 -.825619395345948D+03
 0.653463480383852D+03 0.326423680127022D+03 0.439247195233581D+03 0.334513083043311D+03
 0.442750455068053D+03 -.296037225281665D+03 -.267224082501208D+03 0.192305008884035D+03
 0.555024855239991D+03 -.303864548453573D+02 -.172023112732372D+03 -.526818091927346D+03
 0.000000000000000D+00 -.000000000000000D+00 0.000000000000000D+00 0.000000000000000D+00
 0.825619395345948D+03 0.000000000000000D+00 0.000000000000000D+00 0.825619395345948D+03
 0.825619395345948D+03 -.000000000000000D+00 -.000000000000000D+00 -.825619395345948D+03
 0.651195242314965D+03 0.323478106601474D+03 0.436588312783728D+03 0.336426519917542D+03
 0.365862413478967D+03 -.218971328763893D+03 -.227166680076034D+03 0.185208429179837D+03
 0.554330593455595D+03 -.328910853538942D+02 -.174283968910211D+03 -.525191090486101D+03
 0.798505414423691D+02 -.716156924836870D+02 -.351376637974825D+02 0.355614138872185D+01
-.222204849757D-03 0.000000000000D+00 0.000000000000D+00 0.113001803226D-06 0.000000000000D+00  6 2 1 25 2 1 21 2 0.25073603D+00 0.64345224D-01 0.31934454D+06 0.31934454D+06 0.31934454D+06 0.10825498D+01  1  2 13  3  6  4        2 -.234866683356D-02 0.100000000000D+01
-.113750430190D-06 0.000000000000D+00 0.000000000000D+00 0.113001803226D-06 0.000000000000D+00  6 2 1 25 2 1 21 2 0.25073603D+00 0.64345224D-01 0.31934454D+06 0.31934454D+06 0.31934454D+06 0.10825498D+01  1  2 13  3  6  4        2 -.120232237498D-05 0.100000000000D+01
-.149349264410D-06 0.000000000000D+00 0.000000000000D+00 0.113001803226D-06 0.000000000000D+00  6 2 1 25 2 1 21 2 0.25073603D+00 0.64345224D-01 0.32196797D+06 0.32196797D+06 0.32196797D+06 0.10822885D+01  1  2  8  3  6  4        2 -.157721929521D-05 0.100000000000D+01
0.110650966213D-03 0.000000000000D+00 0.000000000000D+00 0.113001803226D-06 0.181670666866D-09  6 2 1 25 2 1 21 2 0.25073603D+00 0.64345224D-01 0.31934454D+06 0.31934454D+06 0.31934454D+06 0.10825498D+01  1  2  1  3  6  4        2 0.116956157676D-02 0.100000000000D+01
  </mgrwgt>
  </event>
  <event>
  5     66 0.18337608E-05 0.52297797E+02 0.75467711E-02 0.86597822E-01
        2 -1    0    0  501    0 0.00000000E+00 0.00000000E+00 0.35143400E+04 0.35143400E+04 0.32000000E+00 0.0000E+00 0.9000E+01
        1 -1    0    0  502    0 0.00000000E+00 0.00000000E+00 -.12886136E+04 0.12886137E+04 0.32000000E+00 0.0000E+00 0.9000E+01
       25  1    1    2    0    0 0.62621894E+02 0.95079730E+03 0.29094142E+03 0.10040961E+04 0.12500000E+03 0.0000E+00 0.9000E+01
        2  1    1    2  501    0 0.51686712E+02 -.79872931E+01 0.26245612E+04 0.26250823E+04 0.32000000E+00 0.0000E+00 0.9000E+01
        1  1    1    2  502    0 -.11430861E+03 -.94281000E+03 -.68977624E+03 0.11737753E+04 0.32000000E+00 0.0000E+00 0.9000E+01
#aMCatNLO 1  0  0  1  5 0.24410650D+04 0.00000000D+00  -5  6  0 0.00000000D+00 0.00000000D+00 0.00000000D+00 0.00000000D+00 0.00000000D+00
  <mgrwgt>
 0.2594014655D-01    7    2    0
 0.212805697764717D+04 0.000000000000000D+00 0.000000000000000D+00 0.212805697764717D+04
 0.212805697764717D+04 0.000000000000000D+00 0.000000000000000D+00 -.212805697764717D+04
 0.981010925435539D+03 0.626305558057815D+02 0.950862186795503D+03 -.196712864413658D+03
 0.158977879159214D+04 0.516843172434319D+02 -.798692299996439D+01 0.158891835743950D+04
 0.168532423826666D+04 -.114314873049213D+03 -.942875263795538D+03 -.139220549302585D+04
 0.000000000000000D+00 -.000000000000000D+00 -.000000000000000D+00 0.000000000000000D+00
 0.238229865671156D+04 0.000000000000000D+00 0.000000000000000D+00 0.238229865671156D+04
 0.217209811536138D+04 0.000000000000000D+00 0.000000000000000D+00 -.217209811536138D+04
 0.102788649005045D+04 0.630142336198576D+02 0.999129066619377D+03 -.196712864413658D+03
 0.159125118331057D+04 0.522918597778952D+02 0.684422616518702D+02 0.158891835743950D+04
 0.164189332950767D+04 -.113679410255783D+03 -.862933695224802D+03 -.139220549302585D+04
 0.293365769204252D+03 -.162668314196959D+01 -.204637633046445D+03 0.210200541350175D+03
0.587377423447D-01 0.000000000000D+00 0.000000000000D+00 0.292756417254D-04 0.000000000000D+00  6 2 1 25 2 1 21 0 0.54066770D+00 0.19824825D+00 0.96350291D+06 0.96350291D+06 0.96350291D+06 0.10489405D+01  1  2  2  1  6  1        2 0.572345401231D-02 0.100000000000D+01
0.411988657959D-01 0.000000000000D+00 -.225568396606D-03 0.292756417254D-04 0.000000000000D+00  6 2 1 25 2 1 21 2 0.54066770D+00 0.19824825D+00 0.96350291D+06 0.96350291D+06 0.96350291D+06 0.10489405D+01  1  2  3  1  6  1        2 0.441700525848D-02 0.100000000000D+01
-.356927197115D-01 0.000000000000D+00 0.000000000000D+00 0.292756417254D-04 0.000000000000D+00  6 2 1 25 2 1 21 2 0.54066770D+00 0.19824825D+00 0.96350291D+06 0.96350291D+06 0.96350291D+06 0.10489405D+01  1  2 15  1  6  1        2 -.382668133235D-02 0.100000000000D+01
-.202774761474D-02 0.000000000000D+00 0.000000000000D+00 0.292756417254D-04 0.000000000000D+00  6 2 1 25 2 1 21 2 0.54066770D+00 0.19824825D+00 0.96350291D+06 0.96350291D+06 0.96350291D+06 0.10489405D+01  1  2  4  1  6  1        2 -.217398506103D-03 0.100000000000D+01
-.328335029637D+00 0.000000000000D+00 -.619011026456D-01 0.292756417254D-04 0.000000000000D+00  6 2 1 25 2 1 21 2 0.60772777D+00 0.19824825D+00 0.96350291D+06 0.96350291D+06 0.96350291D+06 0.10489405D+01  1  2  5  1  6  1        2 -.162628579927D-01 0.100000000000D+01
0.336830532042D+00 0.000000000000D+00 0.627333354541D-01 0.292756417254D-04 0.000000000000D+00  6 2 1 25 2 1 21 2 0.54066770D+00 0.19824825D+00 0.96350291D+06 0.96350291D+06 0.96350291D+06 0.10489405D+01  1  2  6  1  6  1        2 0.361122133463D-01 0.100000000000D+01
-.582193992969D-02 0.000000000000D+00 -.114906446975D-02 0.292756417254D-04 0.000000000000D+00  6 21 1 25 2 1 -2 2 0.60772777D+00 0.19824825D+00 0.96350291D+06 0.96350291D+06 0.96350291D+06 0.10489405D+01  1  2  5  5  6  1        2 -.558823702201D-05 0.100000000000D+01
  </mgrwgt>
  </event>
  <event>
  5     66 0.18337608E-05 0.10988031E+02 0.75467711E-02 0.94949076E-01
        2 -1    0    0  501    0 0.00000000E+00 0.00000000E+00 0.23708464E+03 0.23708486E+03 0.32000000E+00 0.0000E+00 0.9000E+01
        1 -1    0    0  502    0 -.00000000E+00 -.00000000E+00 -.13794652E+04 0.13794653E+04 0.32000000E+00 0.0000E+00 0.9000E+01
       25  1    1    2    0    0 0.44630614E+03 -.83445419E+02 -.22364676E+03 0.52133980E+03 0.12500000E+03 0.0000E+00 0.9000E+01
        2  1    1    2  501    0 -.28771126E+01 0.10637096E+02 0.37267244E+02 0.38863549E+02 0.32000000E+00 0.0000E+00 0.9000E+01
        1  1    1    2  502    0 -.44342903E+03 0.72808324E+02 -.95600107E+03 0.10563468E+04 0.32000000E+00 0.0000E+00 0.9000E+01
#aMCatNLO 1  0  0  4  1 0.37236729D+02 0.00000000D+00  -5  6  0 0.00000000D+00 0.00000000D+00 0.00000000D+00 0.00000000D+00 0.00000000D+00
  <mgrwgt>
 0.1510251018D-01    6    2    0
 0.571883048497732D+03 0.000000000000000D+00 0.000000000000000D+00 0.571883048497732D+03
 0.571883048497732D+03 -.000000000000000D+00 -.000000000000000D+00 -.571883048497732D+03
 0.513647985255936D+03 0.446424948788550D+03 -.834440363048198D+02 0.204819702816359D+03
 0.918879041456282D+02 -.286894112333315D+01 0.106068844803581D+02 0.912285597098153D+02
 0.538230207593900D+03 -.443556007665217D+03 0.728371518244616D+02 -.296048262526175D+03
 0.000000000000000D+00 0.000000000000000D+00 0.000000000000000D+00 0.000000000000000D+00
 0.571883048497732D+03 0.000000000000000D+00 0.000000000000000D+00 0.571883048497732D+03
 0.571883048497732D+03 -.000000000000000D+00 -.000000000000000D+00 -.571883048497732D+03
 0.516116515741425D+03 0.446208392031293D+03 -.826433950894991D+02 0.211705923275654D+03
 0.492839268046691D+02 -.104490029956272D+02 0.284785863307376D+02 0.388419090453607D+02
 0.534619242684420D+03 -.443781625073617D+03 0.736712915592214D+02 -.288873925260620D+03
 0.437464117649494D+02 0.802223603795154D+01 -.195064828004600D+02 0.383260929396052D+02
0.502128261852D-03 0.000000000000D+00 0.000000000000D+00 0.107751913495D-05 0.000000000000D+00  6 2 1 25 2 1 21 0 0.36474579D-01 0.21222544D+00 0.21693673D+06 0.21693673D+06 0.21693673D+06 0.10951243D+01  1  2  2  3  6  4        2 0.819250648723D-02 0.100000000000D+01
0.279562776971D-03 0.000000000000D+00 -.192830473892D-05 0.107751913495D-05 0.000000000000D+00  6 2 1 25 2 1 21 2 0.36474579D-01 0.21222544D+00 0.21693673D+06 0.21693673D+06 0.21693673D+06 0.10951243D+01  1  2  3  3  6  4        2 0.547026387123D-02 0.100000000000D+01
-.324059756796D-03 0.000000000000D+00 0.000000000000D+00 0.107751913495D-05 0.000000000000D+00  6 2 1 25 2 1 21 2 0.36474579D-01 0.21222544D+00 0.21693673D+06 0.21693673D+06 0.21693673D+06 0.10951243D+01  1  2 15  3  6  4        2 -.634094566854D-02 0.100000000000D+01
-.888845433515D-04 0.000000000000D+00 0.000000000000D+00 0.107751913495D-05 0.000000000000D+00  6 2 1 25 2 1 21 2 0.36474579D-01 0.21222544D+00 0.21693673D+06 0.21693673D+06 0.21693673D+06 0.10951243D+01  1  2  4  3  6  4        2 -.173922262282D-02 0.100000000000D+01
-.343255687782D-03 0.000000000000D+00 0.000000000000D+00 0.107751913495D-05 0.000000000000D+00  6 2 1 25 2 1 21 2 0.36474579D-01 0.21222544D+00 0.21693673D+06 0.21693673D+06 0.21693673D+06 0.10951243D+01  1  2  5  3  6  4        2 -.671655650231D-02 0.100000000000D+01
0.829779191914D-03 0.000000000000D+00 -.000000000000D+00 0.107751913495D-05 0.000000000000D+00  6 2 1 25 2 1 21 2 0.36474579D-01 0.21222544D+00 0.21693673D+06 0.21693673D+06 0.21693673D+06 0.10951243D+01  1  2  6  3  6  4        2 0.162364646102D-01 0.100000000000D+01
  </mgrwgt>
  </event>
  <event>
  5     66 0.18337608E-05 0.86418250E+02 0.75467711E-02 0.93187705E-01
        2 -1    0    0  501    0 0.00000000E+00 0.00000000E+00 0.77895776E+03 0.77895783E+03 0.32000000E+00 0.0000E+00 0.9000E+01
        1 -1    0    0  502    0 -.00000000E+00 -.00000000E+00 -.10104805E+04 0.10104805E+04 0.32000000E+00 0.0000E+00 0.9000E+01
       25  1    1    2    0    0 0.16046488E+03 0.47301990E+03 0.89310583E+02 0.52258796E+03 0.12500000E+03 0.0000E+00 0.9000E+01
        2  1    1    2  501    0 -.24682532E+03 -.47020578E+03 0.32013590E+03 0.62008331E+03 0.32000000E+00 0.0000E+00 0.9000E+01
        1  1    1    2  502    0 0.86360440E+02 -.28141171E+01 -.64096918E+03 0.64676706E+03 0.32000000E+00 0.0000E+00 0.9000E+01
#aMCatNLO 1  0  0  5  1 0.10746233D+02 0.00000000D+00  -5  6  0 0.00000000D+00 0.00000000D+00 0.00000000D+00 0.00000000D+00 0.00000000D+00
  <mgrwgt>
 0.2430917656D-02    5    2    0
 0.887198791975303D+03 0.000000000000000D+00 0.000000000000000D+00 0.887198791975303D+03
 0.887198791975303D+03 -.000000000000000D+00 -.000000000000000D+00 -.887198791975303D+03
 0.538656842520390D+03 0.160430341702159D+03 0.472978323288058D+03 0.158366047986878D+03
 0.667049500875576D+03 -.246802711245654D+03 -.470162718862293D+03 0.403720789819111D+03
 0.568691240554641D+03 0.863723695434949D+02 -.281560442576460D+01 -.562086837805988D+03
 0.000000000000000D+00 0.000000000000000D+00 0.000000000000000D+00 0.000000000000000D+00
 0.887198791975303D+03 0.000000000000000D+00 0.000000000000000D+00 0.887198791975303D+03
 0.887198791975303D+03 -.000000000000000D+00 -.000000000000000D+00 -.887198791975303D+03
 0.537612515876294D+03 0.161075109614812D+03 0.472957304860544D+03 0.154170081625670D+03
 0.663644951852237D+03 -.246005523183045D+03 -.470188705948778D+03 0.398532916433019D+03
 0.562048049652019D+03 0.809185642768114D+02 0.698156339718625D+01 -.556148769526238D+03
 0.110920665700560D+02 0.401184929142120D+01 -.975016230895182D+01 0.344577146754860D+01
0.620673622027D-03 0.000000000000D+00 0.000000000000D+00 0.161114100704D-05 0.000000000000D+00  6 2 1 25 2 1 21 0 0.11983966D+00 0.15545854D+00 0.32051022D+06 0.32051022D+06 0.32051022D+06 0.10824334D+01  1  2  2  4  6  5        1 0.470697618459D-02 0.100000000000D+01
0.161082929885D-03 0.000000000000D+00 -.238355013570D-05 0.161114100704D-05 0.000000000000D+00  6 2 1 25 2 1 21 2 0.11983966D+00 0.15545854D+00 0.32051022D+06 0.32051022D+06 0.32051022D+06 0.10824334D+01  1  2  3  4  6  5        1 0.143129967191D-02 0.100000000000D+01
-.379760372321D-03 0.000000000000D+00 0.000000000000D+00 0.161114100704D-05 0.000000000000D+00  6 2 1 25 2 1 21 2 0.11983966D+00 0.15545854D+00 0.32051022D+06 0.32051022D+06 0.32051022D+06 0.10824334D+01  1  2 15  4  6  5        1 -.337435441916D-02 0.100000000000D+01
0.524092094564D-08 0.000000000000D+00 0.000000000000D+00 0.161114100704D-05 0.000000000000D+00  6 2 1 25 2 1 21 2 0.11983966D+00 0.15545854D+00 0.32344904D+06 0.32344904D+06 0.32344904D+06 0.10821420D+01  1  2 12  4  6  5        1 0.465239427005D-07 0.100000000000D+01
-.374825202472D-04 0.000000000000D+00 0.000000000000D+00 0.161114100704D-05 0.000000000000D+00  6 2 1 25 2 1 21 2 0.11983966D+00 0.15545854D+00 0.32051022D+06 0.32051022D+06 0.32051022D+06 0.10824334D+01  1  2  4  4  6  5        1 -.333050305023D-03 0.100000000000D+01
  </mgrwgt>
  </event>
  <event>
  5     66 0.18337608E-05 0.34364130E+02 0.75467711E-02 0.91530136E-01
        2 -1    0    0  501    0 0.00000000E+00 0.00000000E+00 0.35827597E+04 0.35827597E+04 0.32000000E+00 0.0000E+00 0.9000E+01
        1 -1    0    0  502    0 0.00000000E+00 0.00000000E+00 -.10203458E+04 0.10203459E+04 0.32000000E+00 0.0000E+00 0.9000E+01
       25  1    1    2    0    0 0.50865230E+03 -.36827840E+03 0.18391197E+04 0.19473938E+04 0.12500000E+03 0.0000E+00 0.9000E+01
        2  1    1    2  501    0 0.27178878E+02 0.21040132E+02 0.15838092E+04 0.15841822E+04 0.32000000E+00 0.0000E+00 0.9000E+01
        1  1    1    2  502    0 -.53583118E+03 0.34723827E+03 -.86051507E+03 0.10715296E+04 0.32000000E+00 0.0000E+00 0.9000E+01
#aMCatNLO 1  0  0  4  2 0.22685337D+02 0.00000000D+00  -5  6  0 0.00000000D+00 0.00000000D+00 0.00000000D+00 0.00000000D+00 0.00000000D+00
  <mgrwgt>
 0.1358123452D-02    7    2    0
 0.191197646633930D+04 0.000000000000000D+00 0.000000000000000D+00 0.191197646633930D+04
 0.191197646633930D+04 -.000000000000000D+00 -.000000000000000D+00 -.191197646633930D+04
 0.111196532680212D+04 0.508701287693114D+03 -.368302790505226D+03 0.909075322740413D+03
 0.845491247512534D+03 0.271732974518404D+02 0.210358116174165D+02 0.844792611328657D+03
 0.186649635836394D+04 -.535874585144954D+03 0.347266978887810D+03 -.175386793406907D+04
 0.000000000000000D+00 0.000000000000000D+00 0.000000000000000D+00 0.000000000000000D+00
 0.191197646633930D+04 0.000000000000000D+00 0.000000000000000D+00 0.191197646633930D+04
 0.191197646633930D+04 -.000000000000000D+00 -.000000000000000D+00 -.191197646633930D+04
 0.111225776794116D+04 0.508712702609521D+03 -.368293953814295D+03 0.909430201902825D+03
 0.401184560306206D+03 -.641001323604661D+01 -.194863831016007D+01 0.401128615243458D+03
 0.186593404641379D+04 -.535855429970652D+03 0.347281807586418D+03 -.175327241746872D+04
 0.444576558017442D+03 0.335527405971780D+02 0.229607845380367D+02 0.442713600322435D+03
0.201926288904D-03 0.000000000000D+00 0.000000000000D+00 0.144095934409D-03 0.000000000000D+00  6 2 1 25 2 1 21 0 0.55119380D+00 0.15697628D+00 0.43117114D+06 0.43117114D+06 0.43117114D+06 0.10730861D+01  1  2  2  3  6  4        2 0.300251333191D-04 0.100000000000D+01
0.102016892119D-03 0.000000000000D+00 -.775450117804D-06 0.144095934409D-03 0.000000000000D+00  6 2 1 25 2 1 21 2 0.55119380D+00 0.15697628D+00 0.43117114D+06 0.43117114D+06 0.43117114D+06 0.10730861D+01  1  2  3  3  6  4        2 0.174676033526D-04 0.100000000000D+01
-.149945434645D-03 0.000000000000D+00 0.000000000000D+00 0.144095934409D-03 0.000000000000D+00  6 2 1 25 2 1 21 2 0.55119380D+00 0.15697628D+00 0.43117114D+06 0.43117114D+06 0.43117114D+06 0.10730861D+01  1  2 15  3  6  4        2 -.256740557620D-04 0.100000000000D+01
0.122728853274D-09 0.000000000000D+00 0.000000000000D+00 0.144095934409D-03 0.000000000000D+00  6 2 1 25 2 1 21 2 0.55119380D+00 0.15697628D+00 0.43974198D+06 0.43974198D+06 0.43974198D+06 0.10724745D+01  1  2 12  3  6  4        2 0.209455372224D-10 0.100000000000D+01
-.148463048523D-02 0.000000000000D+00 0.000000000000D+00 0.144095934409D-03 0.000000000000D+00  6 2 1 25 2 1 21 2 0.55119380D+00 0.15697628D+00 0.43117114D+06 0.43117114D+06 0.43117114D+06 0.10730861D+01  1  2  4  3  6  4        2 -.254202376711D-03 0.100000000000D+01
-.125814792975D-01 0.000000000000D+00 0.000000000000D+00 0.144095934409D-03 0.000000000000D+00  6 2 1 25 2 1 21 2 0.55119380D+00 0.15697628D+00 0.43117114D+06 0.43117114D+06 0.43117114D+06 0.10730861D+01  1  2  5  3  6  4        2 -.215423431742D-02 0.100000000000D+01
0.218705953089D-01 0.000000000000D+00 -.000000000000D+00 0.144095934409D-03 0.000000000000D+00  6 2 1 25 2 1 21 2 0.55119380D+00 0.15697628D+00 0.43117114D+06 0.43117114D+06 0.43117114D+06 0.10730861D+01  1  2  6  3  6  4        2 0.374474144436D-02 0.100000000000D+01
  </mgrwgt>
  </event>
  <event>
  5     66 0.18337608E-05 0.17023268E+03 0.75467711E-02 0.93521104E-01
        2 -1    0    0  501    0 0.00000000E+00 0.00000000E+00 0.49684193E+03 0.49684203E+03 0.32000000E+00 0.0000E+00 0.9000E+01
        1 -1    0    0  502    0 -.00000000E+00 -.00000000E+00 -.19660536E+04 0.19660536E+04 0.32000000E+00 0.0000E+00 0.9000E+01
       25  1    1    2    0    0 -.15220516E-01 -.52032845E+03 -.37881915E+03 0.65564521E+03 0.12500000E+03 0.0000E+00 0.9000E+01
        2  1    1    2  501    0 -.10280658E+03 0.13571172E+03 0.30874256E+03 0.35257472E+03 0.32000000E+00 0.0000E+00 0.9000E+01
        1  1    1    2  502    0 0.10282180E+03 0.38461674E+03 -.13991351E+04 0.14546757E+04 0.32000000E+00 0.0000E+00 0.9000E+01
#aMCatNLO 1  0  0  4  2 0.22685337D+02 0.00000000D+00  -5  6  0 0.00000000D+00 0.00000000D+00 0.00000000D+00 0.00000000D+00 0.00000000D+00
  <mgrwgt>
 0.4877390281D-03    1    2    0
 0.988341050070217D+03 0.000000000000000D+00 0.000000000000000D+00 0.988341050070217D+03
 0.988341050070217D+03 -.000000000000000D+00 -.000000000000000D+00 -.988341050070217D+03
 0.535396436021543D+03 -.388540548556625D-01 -.520371447106938D+03 0.154239823250743D+02
 0.668689850945589D+03 -.102792928415836D+03 0.135693696115104D+03 0.646658295748189D+03
 0.772595813173302D+03 0.102831782470692D+03 0.384677750991834D+03 -.662082278073263D+03
 0.000000000000000D+00 0.000000000000000D+00 -.000000000000000D+00 0.000000000000000D+00
 0.988341050070217D+03 0.000000000000000D+00 0.000000000000000D+00 0.988341050070217D+03
 0.988341050070217D+03 -.000000000000000D+00 -.000000000000000D+00 -.988341050070217D+03
 0.530551486788686D+03 -.547768601522518D+01 -.513191816925901D+03 0.496390383659479D+02
 0.636626648510886D+03 -.852636213803061D+02 0.179471609556461D+03 0.604825219238196D+03
 0.735886931280685D+03 0.951349860450534D+02 0.394838048702347D+03 -.613662631546711D+03
 0.736170335601777D+02 -.439367864952217D+01 -.611178413329074D+02 -.408016260574333D+02
0.144918391467D-03 0.000000000000D+00 0.000000000000D+00 0.191975901187D-05 0.000000000000D+00  6 2 1 25 2 1 21 2 0.76437230D-01 0.30246980D+00 0.30447881D+06 0.30447881D+06 0.30447881D+06 0.10840760D+01  1  2 14  3  6  4        2 0.487739028115D-03 0.100000000000D+01
  </mgrwgt>
  </event>
  <event>
  5     66 -.18337608E-05 0.45533838E+02 0.75467711E-02 0.93502023E-01
        2 -1    0    0  501    0 0.00000000E+00 0.00000000E+00 0.73316251E+03 0.73316258E+03 0.32000000E+00 0.0000E+00 0.9000E+01
        1 -1    0    0  502    0 -.00000000E+00 -.00000000E+00 -.93541200E+03 0.93541205E+03 0.32000000E+00 0.0000E+00 0.9000E+01
       25  1    1    2    0    0 -.44926054E+03 0.21926282E+03 0.26729416E+03 0.58050184E+03 0.12500000E+03 0.0000E+00 0.9000E+01
        2  1    1    2  501    0 -.44355881E+02 0.10469097E+02 0.21138187E+03 0.21623932E+03 0.32000000E+00 0.0000E+00 0.9000E+01
        1  1    1    2  502    0 0.49361642E+03 -.22973192E+03 -.68092553E+03 0.87183347E+03 0.32000000E+00 0.0000E+00 0.9000E+01
#aMCatNLO 1  0  0  4  1 0.39602763D+01 0.00000000D+00  -5  6  0 0.00000000D+00 0.00000000D+00 0.00000000D+00 0.00000000D+00 0.00000000D+00
  <mgrwgt>
 -.3022794029D+00    9    2    0
 0.828135926481854D+03 0.000000000000000D+00 0.000000000000000D+00 0.828135926481854D+03
 0.828135926481854D+03 -.000000000000000D+00 -.000000000000000D+00 -.828135926481854D+03
 0.617648685804897D+03 -.449385076206386D+03 0.219313704513389D+03 0.340322569589662D+03
 0.243439407271405D+03 -.443161875846951D+02 0.104597283693002D+02 0.239143083974953D+03
 0.795183759887407D+03 0.493701263791081D+03 -.229773432882689D+03 -.579465653564615D+03
 0.000000000000000D+00 0.000000000000000D+00 0.000000000000000D+00 0.000000000000000D+00
 0.828135926481854D+03 0.000000000000000D+00 0.000000000000000D+00 0.828135926481854D+03
 0.828135926481854D+03 -.000000000000000D+00 -.000000000000000D+00 -.828135926481854D+03
 0.617704742493938D+03 -.449399886772587D+03 0.219317200177341D+03 0.340402491728043D+03
 0.199532943340969D+03 -.400014428409487D+02 0.982010316243715D+01 0.195235359560792D+03
 0.795095650560244D+03 0.493682198042003D+03 -.229768932889179D+03 -.579362769217355D+03
 0.439385165685572D+02 -.428086842846807D+01 0.631629549400740D+00 0.437249179285204D+02
0.676489296929D-04 0.000000000000D+00 0.000000000000D+00 0.226271713190D-05 0.000000000000D+00  6 2 1 25 2 1 21 0 0.11279424D+00 0.14390955D+00 0.30554253D+06 0.30554253D+06 0.30554253D+06 0.10839641D+01  1  2  2  3  6  4        2 0.634618511156D-03 0.100000000000D+01
0.187381326124D-04 0.000000000000D+00 -.259789702393D-06 0.226271713190D-05 0.000000000000D+00  6 2 1 25 2 1 21 2 0.11279424D+00 0.14390955D+00 0.30554253D+06 0.30554253D+06 0.30554253D+06 0.10839641D+01  1  2  3  3  6  4        2 0.206541797341D-03 0.100000000000D+01
-.385210524474D-04 0.000000000000D+00 0.000000000000D+00 0.226271713190D-05 0.000000000000D+00  6 2 1 25 2 1 21 2 0.11279424D+00 0.14390955D+00 0.30554253D+06 0.30554253D+06 0.30554253D+06 0.10839641D+01  1  2 15  3  6  4        2 -.424599802581D-03 0.100000000000D+01
0.836592095156D-03 0.000000000000D+00 0.000000000000D+00 0.226271713190D-05 0.000000000000D+00  6 2 1 25 2 1 21 2 0.11279424D+00 0.14390955D+00 0.30553025D+06 0.30553025D+06 0.30553025D+06 0.10839654D+01  1  2 12  3  6  4        2 0.922140666155D-02 0.100000000000D+01
0.279968032452D-07 0.000000000000D+00 0.000000000000D+00 0.226271713190D-05 0.000000000000D+00  6 2 1 25 2 1 21 2 0.11279424D+00 0.14390955D+00 0.30553025D+06 0.30553025D+06 0.30553025D+06 0.10839654D+01  1  2 12  3  6  4        2 0.308597116135D-06 0.100000000000D+01
-.795817943959D-01 0.000000000000D+00 0.000000000000D+00 0.226271713190D-05 0.000000000000D+00  6 2 1 25 2 1 21 2 0.11279424D+00 0.14390955D+00 0.30554253D+06 0.30554253D+06 0.30554253D+06 0.10839641D+01  1  2  4  3  6  4        2 -.877193431713D+00 0.100000000000D+01
-.153292222218D-01 0.000000000000D+00 0.000000000000D+00 0.226271713190D-05 0.000000000000D+00  6 2 1 25 2 1 21 2 0.11279424D+00 0.14390955D+00 0.30554253D+06 0.30554253D+06 0.30554253D+06 0.10839641D+01  1  2  5  3  6  4        2 -.168966949643D+00 0.100000000000D+01
0.201775957271D-01 0.000000000000D+00 -.000000000000D+00 0.226271713190D-05 0.000000000000D+00  6 2 1 25 2 1 21 2 0.11279424D+00 0.14390955D+00 0.30554253D+06 0.30554253D+06 0.30554253D+06 0.10839641D+01  1  2  6  3  6  4        2 0.222408335650D+00 0.100000000000D+01
0.464350615031D-01 0.000000000000D+00 0.000000000000D+00 0.226271713190D-05 0.231283713131D-05  6 2 1 25 2 1 21 2 0.11279424D+00 0.14390955D+00 0.30553025D+06 0.30553025D+06 0.30553025D+06 0.10839654D+01  1  2 11  3  6  4        2 0.511834367015D+00 0.100000000000D+01
  </mgrwgt>
  </event>
  <event>
  5     66 0.18337608E-05 0.11348360E+03 0.75467711E-02 0.94837698E-01
        2 -1    0    0  501    0 0.00000000E+00 0.00000000E+00 0.42952826E+03 0.42952838E+03 0.32000000E+00 0.0000E+00 0.9000E+01
        1 -1    0    0  502    0 0.00000000E+00 0.00000000E+00 -.18190055E+04 0.18190055E+04 0.32000000E+00 0.0000E+00 0.9000E+01
       25  1    1    2    0    0 -.11021664E+03 -.46119521E+03 -.10081847E+04 0.11211200E+04 0.12500000E+03 0.0000E+00 0.9000E+01
        2  1    1    2  501    0 0.13856154E+03 0.35131524E+03 0.27131794E+03 0.46501099E+03 0.32000000E+00 0.0000E+00 0.9000E+01
        1  1    1    2  502    0 -.28344900E+02 0.10987997E+03 -.65261047E+03 0.66240288E+03 0.32000000E+00 0.0000E+00 0.9000E+01
#aMCatNLO 1  0  0  2  4 0.74943567D+02 0.00000000D+00  -5  6  0 0.00000000D+00 0.00000000D+00 0.00000000D+00 0.00000000D+00 0.00000000D+00
  <mgrwgt>
 0.6977403562D-03    7    2    0
 0.883919924389498D+03 0.000000000000000D+00 0.000000000000000D+00 0.883919924389498D+03
 0.883919924389498D+03 0.000000000000000D+00 0.000000000000000D+00 -.883919924389498D+03
 0.633543891642110D+03 -.110214813626285D+03 -.461198977236464D+03 -.401124744799411D+03
 0.804694823734949D+03 0.138560428834855D+03 0.351312424897396D+03 0.710573252395298D+03
 0.329601133401937D+03 -.283456152085701D+02 0.109886552339068D+03 -.309448507595888D+03
 0.000000000000000D+00 -.000000000000000D+00 -.000000000000000D+00 -.000000000000000D+00
 0.938355556688031D+03 0.000000000000000D+00 0.000000000000000D+00 0.938355556688031D+03
 0.110823924233264D+04 0.000000000000000D+00 0.000000000000000D+00 -.110823924233264D+04
 0.584273827537629D+03 -.776551975989862D+02 -.398521661821464D+03 -.401124744799411D+03
 0.853844626727333D+03 0.182903196083759D+03 0.436672326159847D+03 0.710573252395298D+03
 0.341654351555509D+03 -.103989056951354D+02 0.144433998227000D+03 -.309448507595888D+03
 0.266821993200202D+03 -.948490927896370D+02 -.182584662565382D+03 -.169883685644611D+03
0.771177473863D-04 0.000000000000D+00 0.000000000000D+00 0.180483018281D-05 0.000000000000D+00  6 2 1 25 2 1 21 0 0.66081282D-01 0.27984701D+00 0.24084430D+06 0.24084430D+06 0.24084430D+06 0.10916802D+01  1  2  2  2  6  2        1 0.329880152749D-03 0.100000000000D+01
0.784181031001D-05 0.000000000000D+00 -.296152455532D-06 0.180483018281D-05 0.000000000000D+00  6 2 1 25 2 1 21 2 0.66081282D-01 0.27984701D+00 0.24084430D+06 0.24084430D+06 0.24084430D+06 0.10916802D+01  1  2  3  2  6  2        1 0.399768941687D-04 0.100000000000D+01
-.543574558458D-04 0.000000000000D+00 0.000000000000D+00 0.180483018281D-05 0.000000000000D+00  6 2 1 25 2 1 21 2 0.66081282D-01 0.27984701D+00 0.24084430D+06 0.24084430D+06 0.24084430D+06 0.10916802D+01  1  2 15  2  6  2        1 -.277109771050D-03 0.100000000000D+01
-.468125478800D-05 0.000000000000D+00 0.000000000000D+00 0.180483018281D-05 0.000000000000D+00  6 2 1 25 2 1 21 2 0.66081282D-01 0.27984701D+00 0.24084430D+06 0.24084430D+06 0.24084430D+06 0.10916802D+01  1  2  4  2  6  2        1 -.238646460241D-04 0.100000000000D+01
-.208622101020D-03 0.000000000000D+00 -.633608395433D-04 0.180483018281D-05 0.000000000000D+00  6 2 1 25 2 1 21 2 0.66081282D-01 0.35853430D+00 0.24084430D+06 0.24084430D+06 0.24084430D+06 0.10916802D+01  1  2  5  2  6  2        1 -.484427693997D-03 0.100000000000D+01
0.219447145495D-03 0.000000000000D+00 0.614643475302D-04 0.180483018281D-05 0.000000000000D+00  6 2 1 25 2 1 21 2 0.66081282D-01 0.27984701D+00 0.24084430D+06 0.24084430D+06 0.24084430D+06 0.10916802D+01  1  2  6  2  6  2        1 0.111872322388D-02 0.100000000000D+01
-.596769541323D-05 0.000000000000D+00 -.213027056400D-05 0.180483018281D-05 0.000000000000D+00  6 2 21 25 2 1 -1 2 0.66081282D-01 0.35853430D+00 0.24084430D+06 0.24084430D+06 0.24084430D+06 0.10916802D+01  1  2  5  6  6  2        1 -.543780356061D-05 0.100000000000D+01
  </mgrwgt>
  </event>
  <event>
  5     66 0.18337608E-05 0.10352596E+03 0.75467711E-02 0.93099235E-01
        2 -1    0    0  501    0 0.00000000E+00 0.00000000E+00 0.20814938E+04 0.20814939E+04 0.32000000E+00 0.0000E+00 0.9000E+01
        1 -1    0    0  502    0 0.00000000E+00 0.00000000E+00 -.83491931E+03 0.83491937E+03 0.32000000E+00 0.0000E+00 0.9000E+01
       25  1    1    2    0    0 0.52971029E+03 -.17124151E+02 0.45027744E+02 0.54638698E+03 0.12500000E+03 0.0000E+00 0.9000E+01
        2  1    1    2  501    0 -.84978048E+02 -.59137589E+02 0.16968499E+04 0.17000054E+04 0.32000000E+00 0.0000E+00 0.9000E+01
        1  1    1    2  502    0 -.44473224E+03 0.76261740E+02 -.49530316E+03 0.67002086E+03 0.32000000E+00 0.0000E+00 0.9000E+01
#aMCatNLO 1  0  0  2  5 0.33675215D+02 0.00000000D+00  -5  6  0 0.00000000D+00 0.00000000D+00 0.00000000D+00 0.00000000D+00 0.00000000D+00
  <mgrwgt>
 0.2093909476D-02   11    2    0
 0.131828658686185D+04 0.000000000000000D+00 0.000000000000000D+00 0.131828658686185D+04
 0.131828658686185D+04 0.000000000000000D+00 0.000000000000000D+00 -.131828658686185D+04
 0.583111315852440D+03 0.529752363565455D+03 -.171321616534508D+02 -.208477166637160D+03
 0.107812254044287D+04 -.849744833164228D+02 -.591351086149583D+02 0.107314052589826D+04
 0.975339317428402D+03 -.444777880249033D+03 0.762672702684091D+02 -.864663359261096D+03
 0.000000000000000D+00 0.000000000000000D+00 -.000000000000000D+00 -.000000000000000D+00
 0.131893038821335D+04 0.000000000000000D+00 0.000000000000000D+00 0.131893038821335D+04
 0.184704733192313D+04 0.000000000000000D+00 0.000000000000000D+00 -.184704733192313D+04
 0.576798335638204D+03 0.522878594188108D+03 -.143724293636104D+02 -.208477166637160D+03
 0.107893624760753D+04 -.977574829434917D+02 -.540028944111915D+02 0.107314052589826D+04
 0.981053637400208D+03 -.456371709100854D+03 0.809220473039463D+02 -.864663359261096D+03
 0.529189499490541D+03 0.312505978562379D+02 -.125467235291443D+02 -.528116943709782D+03
0.162625881942D-04 0.000000000000D+00 0.000000000000D+00 0.244820780535D-04 0.000000000000D+00  6 2 1 25 2 1 21 0 0.32022983D+00 0.12844913D+00 0.30215083D+06 0.30215083D+06 0.30215083D+06 0.10843224D+01  1  2  2  2  6  2        1 0.302134477114D-04 0.100000000000D+01
0.442659614192D-05 0.000000000000D+00 -.624526207036D-07 0.244820780535D-04 0.000000000000D+00  6 2 1 25 2 1 21 2 0.32022983D+00 0.12844913D+00 0.30215083D+06 0.30215083D+06 0.30215083D+06 0.10843224D+01  1  2  3  2  6  2        1 0.966935226819D-05 0.100000000000D+01
-.993823158217D-05 0.000000000000D+00 0.000000000000D+00 0.244820780535D-04 0.000000000000D+00  6 2 1 25 2 1 21 2 0.32022983D+00 0.12844913D+00 0.30215083D+06 0.30215083D+06 0.30215083D+06 0.10843224D+01  1  2 15  2  6  2        1 -.217088388030D-04 0.100000000000D+01
0.439790474433D-02 0.000000000000D+00 0.000000000000D+00 0.244820780535D-04 0.000000000000D+00  6 2 1 25 2 1 21 2 0.32022983D+00 0.18082286D+00 0.32870274D+06 0.32870274D+06 0.32870274D+06 0.10816282D+01  1  2 12  2  6  2        1 0.519297010576D-02 0.100000000000D+01
0.817541822932D-09 0.000000000000D+00 0.000000000000D+00 0.244820780535D-04 0.000000000000D+00  6 2 1 25 2 1 21 2 0.32022983D+00 0.17999986D+00 0.32870274D+06 0.32870274D+06 0.32870274D+06 0.10816282D+01  1  2 12  2  6  2        1 0.973913236394D-09 0.100000000000D+01
-.319096206097D-02 0.000000000000D+00 0.000000000000D+00 0.244820780535D-04 0.000000000000D+00  6 2 1 25 2 1 21 2 0.32022983D+00 0.12844913D+00 0.30215083D+06 0.30215083D+06 0.30215083D+06 0.10843224D+01  1  2  4  2  6  2        1 -.697026230826D-02 0.100000000000D+01
-.447616313751D-02 0.000000000000D+00 -.127117639997D-04 0.244820780535D-04 0.000000000000D+00  6 2 1 25 2 1 21 2 0.32022983D+00 0.17999981D+00 0.30215083D+06 0.30215083D+06 0.30215083D+06 0.10843224D+01  1  2  5  2  6  2        1 -.539483265344D-02 0.100000000000D+01
0.423761084582D-02 0.000000000000D+00 0.120209300297D-04 0.244820780535D-04 0.000000000000D+00  6 2 1 25 2 1 21 2 0.32022983D+00 0.12844913D+00 0.30215083D+06 0.30215083D+06 0.30215083D+06 0.10843224D+01  1  2  6  2  6  2        1 0.925653724216D-02 0.100000000000D+01
0.186836248879D-03 0.000000000000D+00 0.000000000000D+00 0.244820780535D-04 0.000000000000D+00  6 2 21 25 2 1 -1 2 0.32022983D+00 0.18082286D+00 0.32870274D+06 0.32870274D+06 0.32870274D+06 0.10816282D+01  1  2 12  6  6  2        1 0.237074156726D-03 0.100000000000D+01
0.343971532098D-10 0.000000000000D+00 0.000000000000D+00 0.244820780535D-04 0.000000000000D+00  6 2 21 25 2 1 -1 2 0.32022983D+00 0.17999986D+00 0.32870274D+06 0.32870274D+06 0.32870274D+06 0.10816282D+01  1  2 12  6  6  2        1 0.442982434317D-10 0.100000000000D+01
-.187988751498D-03 0.000000000000D+00 -.534832871662D-06 0.244820780535D-04 0.000000000000D+00  6 2 21 25 2 1 -1 2 0.32022983D+00 0.17999981D+00 0.30215083D+06 0.30215083D+06 0.30215083D+06 0.10843224D+01  1  2  5  6  6  2        1 -.245752046640D-03 0.100000000000D+01
  </mgrwgt>
  </event>
  <event>
  6     66 0.18337608E-05 0.25842451E+02 0.75467711E-02 0.93673990E-01
        2 -1    0    0  501    0 0.00000000E+00 0.00000000E+00 0.16890842E+04 0.16890842E+04 0.32000000E+00 0.0000E+00 0.9000E+01
        1 -1    0    0  503    0 0.00000000E+00 0.00000000E+00 -.44501245E+03 0.44501256E+03 0.32000000E+00 0.0000E+00 0.9000E+01
       25  1    1    2    0    0 0.23924051E+03 -.46375944E+03 0.56871605E+03 0.78190267E+03 0.12500000E+03 0.0000E+00 0.9000E+01
        2  1    1    2  501    0 -.20668520E+03 0.41896040E+03 0.81992136E+03 0.94367247E+03 0.32000000E+00 0.0000E+00 0.9000E+01
        1  1    1    2  502    0 0.18995530E+02 0.20111525E+02 -.26961288E+03 0.27102862E+03 0.32000000E+00 0.0000E+00 0.9000E+01
       21  1    1    2  503  502 -.51550836E+02 0.24687515E+02 0.12504721E+03 0.13749302E+03 0.75000000E+00 0.0000E+00 0.9000E+01
#aMCatNLO 2  0  0  2  4 0.57157345D+02 0.00000000D+00  -5  6  0 0.00000000D+00 0.00000000D+00 0.00000000D+00 0.00000000D+00 0.00000000D+00
  <mgrwgt>
 0.3388926425D-02    2    2    0
 0.826278361894820D+03 0.000000000000000D+00 0.000000000000000D+00 0.826278361894820D+03
 0.826278361894820D+03 0.000000000000000D+00 0.000000000000000D+00 -.826278361894820D+03
 0.545178957545871D+03 0.221992777653921D+03 -.455467100231459D+03 0.157683299772188D+03
 0.597565386405796D+03 -.225092837695259D+03 0.427738515720771D+03 0.351365006250759D+03
 0.509812379837973D+03 0.310006004133751D+01 0.277285845106874D+02 -.509048306022947D+03
 0.000000000000000D+00 -.000000000000000D+00 0.000000000000000D+00 0.000000000000000D+00
 0.896439075212113D+03 0.000000000000000D+00 0.000000000000000D+00 0.896439075212113D+03
 0.838495996493426D+03 0.000000000000000D+00 0.000000000000000D+00 -.838495996493426D+03
 0.559234141583381D+03 0.239213488128216D+03 -.463714038156046D+03 0.157683299772188D+03
 0.584511048519075D+03 -.206661151163854D+03 0.418911645604301D+03 0.351365006250759D+03
 0.509799695114627D+03 0.189984990880104D+02 0.201148777410709D+02 -.509048306022947D+03
 0.813901864884563D+02 -.515508360523722D+02 0.246875148106742D+02 0.579430787186863D+02
-.334507026515D-05 0.000000000000D+00 0.000000000000D+00 0.611393519247D-05 0.000000000000D+00  6 2 1 25 2 1 21 2 0.23952049D+00 0.67465753D-01 0.26683867D+06 0.26683867D+06 0.26683867D+06 0.10883358D+01  1  2  8  2  6  2        1 -.370280035190D-04 0.100000000000D+01
0.377094550415D-03 0.000000000000D+00 0.000000000000D+00 0.611393519247D-05 0.301527373410D-07  6 2 1 25 2 1 21 2 0.25985859D+00 0.68463325D-01 0.29619917D+06 0.29619917D+06 0.29619917D+06 0.10849618D+01  1  2  1  2  6  2        1 0.342595442805D-02 0.100000000000D+01
  </mgrwgt>
  </event>
  <event>
  6     66 0.18337608E-05 0.45378517E+02 0.75467711E-02 0.94109482E-01
        2 -1    0    0  501    0 0.00000000E+00 0.00000000E+00 0.23036730E+04 0.23036730E+04 0.32000000E+00 0.0000E+00 0.9000E+01
        1 -1    0    0  502    0 0.00000000E+00 0.00000000E+00 -.57891327E+03 0.57891336E+03 0.32000000E+00 0.0000E+00 0.9000E+01
       25  1    1    2    0    0 0.48528067E+03 -.17405726E+03 0.73284165E+02 0.53552668E+03 0.12500000E+03 0.0000E+00 0.9000E+01
        2  1    1    2  503    0 -.25266719E+03 0.77693555E+02 0.11733064E+04 0.12027157E+04 0.32000000E+00 0.0000E+00 0.9000E+01
        1  1    1    2  502    0 -.24166653E+02 0.63193539E+01 -.31669741E+03 0.31768115E+03 0.32000000E+00 0.0000E+00 0.9000E+01
       21  1    1    2  501  503 -.20844682E+03 0.90044349E+02 0.79486658E+03 0.82666288E+03 0.75000000E+00 0.0000E+00 0.9000E+01
#aMCatNLO 2  0  0  4  1 0.39767975D+02 0.00000000D+00  -5  6  0 0.00000000D+00 0.00000000D+00 0.00000000D+00 0.00000000D+00 0.00000000D+00
  <mgrwgt>
 0.3883228750D-02    1    2    0
 0.115482770122879D+04 0.000000000000000D+00 0.000000000000000D+00 0.115482770122879D+04
 0.115482770122879D+04 -.000000000000000D+00 -.000000000000000D+00 -.115482770122879D+04
 0.613888557808831D+03 0.485474036542146D+03 -.174126637460516D+03 -.308592020925323D+03
 0.106211670015650D+04 -.461516952995067D+03 0.167884479937365D+03 0.941758349177556D+03
 0.633650144492243D+03 -.239570835470787D+02 0.624215752315182D+01 -.633166328252233D+03
 0.000000000000000D+00 0.000000000000000D+00 0.000000000000000D+00 0.000000000000000D+00
 0.115482770122879D+04 0.000000000000000D+00 0.000000000000000D+00 0.115482770122879D+04
 0.115482770122879D+04 -.000000000000000D+00 -.000000000000000D+00 -.115482770122879D+04
 0.613480606967127D+03 0.485261504854701D+03 -.174049325518701D+03 -.308158334817333D+03
 0.624576793635656D+03 -.252533715921613D+03 0.776441912751715D+02 0.565945468249586D+03
 0.633211975192380D+03 -.241764538488459D+02 0.632195712484987D+01 -.632718687462637D+03
 0.438386026662407D+03 -.208551335084242D+03 0.900831771186793D+02 0.374931554030382D+03
0.133526345599D-02 0.000000000000D+00 0.000000000000D+00 0.688523515951D-04 0.140548876091D-06  6 2 1 25 2 1 21 2 0.35441124D+00 0.89063589D-01 0.27396523D+06 0.27396523D+06 0.27396523D+06 0.10874809D+01  1  2  1  3  6  4        2 0.388322875018D-02 0.100000000000D+01
  </mgrwgt>
  </event>
  <event>
  5     66 0.18337608E-05 0.74182756E+02 0.75467711E-02 0.95001198E-01
        2 -1    0    0  501    0 0.00000000E+00 0.00000000E+00 0.15826312E+04 0.15826313E+04 0.32000000E+00 0.0000E+00 0.9000E+01
        1 -1    0    0  502    0 0.00000000E+00 0.00000000E+00 -.52136847E+03 0.52136857E+03 0.32000000E+00 0.0000E+00 0.9000E+01
       25  1    1    2    0    0 -.35974686E+02 -.47036523E+03 0.39429929E+03 0.62740303E+03 0.12500000E+03 0.0000E+00 0.9000E+01
        2  1    1    2  501    0 0.35537795E+02 0.65132789E+02 0.96859221E+03 0.97142997E+03 0.32000000E+00 0.0000E+00 0.9000E+01
        1  1    1    2  502    0 0.43689094E+00 0.40523244E+03 -.30162874E+03 0.50516683E+03 0.32000000E+00 0.0000E+00 0.9000E+01
#aMCatNLO 1  0  0  2  1 0.12349099D+03 0.00000000D+00  -5  6  0 0.00000000D+00 0.00000000D+00 0.00000000D+00 0.00000000D+00 0.00000000D+00
  <mgrwgt>
 0.2687831447D-03    1    2    0
 0.908368956826818D+03 0.000000000000000D+00 0.000000000000000D+00 0.908368956826818D+03
 0.908368956826818D+03 0.000000000000000D+00 0.000000000000000D+00 -.908368956826818D+03
 0.496346511682149D+03 -.359699315722292D+02 -.470420928097226D+03 0.902506182243186D+02
 0.559112331984835D+03 0.355309070530360D+02 0.651201649881392D+02 0.554169214711018D+03
 0.761279069986653D+03 0.439024519193197D+00 0.405300763109086D+03 -.644419832935336D+03
 0.000000000000000D+00 -.000000000000000D+00 0.000000000000000D+00 -.000000000000000D+00
 0.125321813039876D+04 0.000000000000000D+00 0.000000000000000D+00 0.125321813039876D+04
 0.477259202061205D+04 0.000000000000000D+00 0.000000000000000D+00 -.477259202061205D+04
 0.850633220922806D+03 0.270005637991829D+03 -.791772478620128D+03 0.902506182243186D+02
 0.678482616821799D+03 0.316658982097183D+03 -.230135246872585D+03 0.554169214711018D+03
 0.729910862528180D+03 0.339172917750853D+03 0.495447072914865D+02 -.644419832935336D+03
 0.376678345073802D+04 -.925837537839865D+03 0.972363018201227D+03 -.351937389021330D+04
0.314385059557D-04 0.000000000000D+00 0.000000000000D+00 0.128900777390D-04 0.000000000000D+00  6 2 1 25 2 1 21 2 0.24348174D+00 0.80210544D-01 0.23404124D+06 0.23404124D+06 0.23404124D+06 0.10926208D+01  1  2 14  2  6  2        1 0.268783144708D-03 0.100000000000D+01
  </mgrwgt>
  </event>
  <event>
  5     66 -.18337608E-05 0.56460969E+02 0.75467711E-02 0.84744774E-01
        2 -1    0    0  501    0 0.00000000E+00 0.00000000E+00 0.24334082E+04 0.24334082E+04 0.32000000E+00 0.0000E+00 0.9000E+01
        1 -1    0    0  502    0 0.00000000E+00 0.00000000E+00 -.18802270E+04 0.18802270E+04 0.32000000E+00 0.0000E+00 0.9000E+01
       25  1    1    2    0    0 0.11236554E+04 0.64582816E+03 -.15367665E+02 0.13021354E+04 0.12500000E+03 0.0000E+00 0.9000E+01
        2  1    1    2  501    0 0.16447229E+02 -.54018004E+02 0.14516022E+04 0.14527001E+04 0.32000000E+00 0.0000E+00 0.9000E+01
        1  1    1    2  502    0 -.11401027E+04 -.59181016E+03 -.88305330E+03 0.15587997E+04 0.32000000E+00 0.0000E+00 0.9000E+01
#aMCatNLO 1  0  0  5  2 0.14360023D+03 0.00000000D+00  -5  6  0 0.00000000D+00 0.00000000D+00 0.00000000D+00 0.00000000D+00 0.00000000D+00
  <mgrwgt>
 -.1289966491D-02    6    2    0
 0.213900909603992D+04 0.000000000000000D+00 0.000000000000000D+00 0.213900909603992D+04
 0.213900909603992D+04 -.000000000000000D+00 -.000000000000000D+00 -.213900909603992D+04
 0.131504244825083D+04 0.112373791783580D+04 0.645868556374658D+03 -.183789391984759D+03
 0.127696793695366D+04 0.164456428742505D+02 -.540127938086232D+02 0.127571911914149D+04
 0.168600780687535D+04 -.114018356071005D+04 -.591855762566035D+03 -.109192972715673D+04
 0.000000000000000D+00 0.000000000000000D+00 0.000000000000000D+00 -.000000000000000D+00
 0.213900909603992D+04 0.000000000000000D+00 0.000000000000000D+00 0.213900909603992D+04
 0.213900909603992D+04 -.000000000000000D+00 -.000000000000000D+00 -.213900909603992D+04
 0.130968149752428D+04 0.111822836712861D+04 0.643008613951732D+03 -.189065772392057D+03
 0.127191210190249D+04 0.110952959003463D+02 -.567900954619297D+02 0.127059520478881D+04
 0.788207711970655D+03 -.511980868333960D+03 -.406900680354742D+03 -.439975935702019D+03
 0.908216880682416D+03 -.617342794694996D+03 -.179317838135060D+03 -.641553496694732D+03
0.102854067305D-02 0.000000000000D+00 0.000000000000D+00 0.398863676180D-05 0.000000000000D+00  6 2 1 25 2 1 21 0 0.37437050D+00 0.28926569D+00 0.17466815D+07 0.17466815D+07 0.17466815D+07 0.10321113D+01  1  2  2  4  6  5        1 0.185285513117D-03 0.100000000000D+01
0.727026680805D-03 0.000000000000D+00 -.394986700550D-05 0.398863676180D-05 0.000000000000D+00  6 2 1 25 2 1 21 2 0.37437050D+00 0.28926569D+00 0.17466815D+07 0.17466815D+07 0.17466815D+07 0.10321113D+01  1  2  3  4  6  5        1 0.139515809580D-03 0.100000000000D+01
-.593787184255D-03 0.000000000000D+00 0.000000000000D+00 0.398863676180D-05 0.000000000000D+00  6 2 1 25 2 1 21 2 0.37437050D+00 0.28926569D+00 0.17466815D+07 0.17466815D+07 0.17466815D+07 0.10321113D+01  1  2 15  4  6  5        1 -.113947262070D-03 0.100000000000D+01
-.112902251830D-01 0.000000000000D+00 0.000000000000D+00 0.398863676180D-05 0.000000000000D+00  6 2 1 25 2 1 21 2 0.37437050D+00 0.28926569D+00 0.17466815D+07 0.17466815D+07 0.17466815D+07 0.10321113D+01  1  2  4  4  6  5        1 -.216658473250D-02 0.100000000000D+01
-.534523789618D-02 0.000000000000D+00 0.000000000000D+00 0.398863676180D-05 0.000000000000D+00  6 2 1 25 2 1 21 2 0.37437050D+00 0.28926569D+00 0.17466815D+07 0.17466815D+07 0.17466815D+07 0.10321113D+01  1  2  5  4  6  5        1 -.102574666402D-02 0.100000000000D+01
0.881458179296D-02 0.000000000000D+00 -.000000000000D+00 0.398863676180D-05 0.000000000000D+00  6 2 1 25 2 1 21 2 0.37437050D+00 0.28926569D+00 0.17466815D+07 0.17466815D+07 0.17466815D+07 0.10321113D+01  1  2  6  4  6  5        1 0.169151084469D-02 0.100000000000D+01
  </mgrwgt>
  </event>
  <event>
  6     66 -.18337608E-05 0.14120981E+03 0.75467711E-02 0.94349926E-01
        2 -1    0    0  501    0 0.00000000E+00 0.00000000E+00 0.75065306E+03 0.75065313E+03 0.32000000E+00 0.0000E+00 0.9000E+01
        1 -1    0    0  502    0 -.00000000E+00 -.00000000E+00 -.96471398E+03 0.96471403E+03 0.32000000E+00 0.0000E+00 0.9000E+01
       25  1    1    2    0    0 -.43891951E+03 -.11834742E+03 -.36645973E+03 0.59713833E+03 0.12500000E+03 0.0000E+00 0.9000E+01
        2  1    1    2  503    0 0.76649332E+02 -.78198887E+02 0.42950916E+03 0.44324756E+03 0.32000000E+00 0.0000E+00 0.9000E+01
        1  1    1    2  502    0 0.33802242E+03 0.22488831E+03 -.38579984E+03 0.56006743E+03 0.32000000E+00 0.0000E+00 0.9000E+01
       21  1    1    2  501  503 0.24247752E+02 -.28342000E+02 0.10868949E+03 0.11491384E+03 0.75000000E+00 0.0000E+00 0.9000E+01
#aMCatNLO 2  0  0  4  1 0.75912310D+01 0.00000000D+00  -5  6  0 0.00000000D+00 0.00000000D+00 0.00000000D+00 0.00000000D+00 0.00000000D+00
  <mgrwgt>
 -.2129084124D-01    3    2    0
 0.850979203381617D+03 0.000000000000000D+00 0.000000000000000D+00 0.850979203381617D+03
 0.850979203381617D+03 -.000000000000000D+00 -.000000000000000D+00 -.850979203381617D+03
 0.555896084950308D+03 -.439140382078498D+03 -.118465860354390D+03 -.294137760278285D+03
 0.629889409631988D+03 0.100884496160554D+03 -.106527594006174D+03 0.612564166856193D+03
 0.516172912180938D+03 0.338255885917943D+03 0.224993454360564D+03 -.318426406577908D+03
 0.000000000000000D+00 0.000000000000000D+00 -.000000000000000D+00 0.000000000000000D+00
 0.850979203381617D+03 0.000000000000000D+00 0.000000000000000D+00 0.850979203381617D+03
 0.850979203381617D+03 -.000000000000000D+00 -.000000000000000D+00 -.850979203381617D+03
 0.555840592987985D+03 -.439125691631471D+03 -.118481372529562D+03 -.294048560829548D+03
 0.500834636169123D+03 0.766568930499939D+02 -.782035347958961D+02 0.488715930454499D+03
 0.516124482436281D+03 0.338269526657241D+03 0.224979050609808D+03 -.318343580886933D+03
 0.129158695169845D+03 0.241992719242361D+02 -.282941432843494D+02 0.123676211261982D+03
-.592683790476D-02 0.000000000000D+00 0.000000000000D+00 0.649053236726D-06 0.000000000000D+00  6 2 1 25 2 1 21 2 0.11548510D+00 0.14841754D+00 0.26249529D+06 0.26249529D+06 0.26249529D+06 0.10888692D+01  1  2 13  3  6  4        2 -.611045304271D-01 0.100000000000D+01
-.380402328439D-06 0.000000000000D+00 0.000000000000D+00 0.649053236726D-06 0.000000000000D+00  6 2 1 25 2 1 21 2 0.11548510D+00 0.14841754D+00 0.26249529D+06 0.26249529D+06 0.26249529D+06 0.10888692D+01  1  2 13  3  6  4        2 -.392187301664D-05 0.100000000000D+01
0.386211177542D-02 0.000000000000D+00 0.000000000000D+00 0.649053236726D-06 0.293662095666D-07  6 2 1 25 2 1 21 2 0.11548510D+00 0.14841754D+00 0.26249529D+06 0.26249529D+06 0.26249529D+06 0.10888692D+01  1  2  1  3  6  4        2 0.398176110577D-01 0.100000000000D+01
  </mgrwgt>
  </event>
  <event>
  6     66 0.18337608E-05 0.43545502E+02 0.75467711E-02 0.94788300E-01
        2 -1    0    0  501    0 0.00000000E+00 0.00000000E+00 0.13183834E+04 0.13183834E+04 0.32000000E+00 0.0000E+00 0.9000E+01
        1 -1    0    0  502    0 0.00000000E+00 0.00000000E+00 -.60853188E+03 0.60853197E+03 0.32000000E+00 0.0000E+00 0.9000E+01
       25  1    1    2    0    0 0.85671451E+02 -.46014844E+03 0.69065124E+03 0.84362333E+03 0.12500000E+03 0.0000E+00 0.9000E+01
        2  1    1    2  503    0 -.38918787E+02 0.40163815E+03 0.31624401E+03 0.51267753E+03 0.32000000E+00 0.0000E+00 0.9000E+01
        1  1    1    2  502    0 -.72563594E+01 -.14125038E+02 -.42117098E+03 0.42147037E+03 0.32000000E+00 0.0000E+00 0.9000E+01
       21  1    1    2  501  503 -.39496304E+02 0.72635334E+02 0.12412725E+03 0.14914418E+03 0.75000000E+00 0.0000E+00 0.9000E+01
#aMCatNLO 2  0  0  4  4 0.45625598D+02 0.00000000D+00  -5  6  0 0.00000000D+00 0.00000000D+00 0.00000000D+00 0.00000000D+00 0.00000000D+00
  <mgrwgt>
 0.1107700705D+00    1    2    0
 0.895699977471390D+03 0.000000000000000D+00 0.000000000000000D+00 0.895699977471390D+03
 0.895699977471390D+03 -.000000000000000D+00 -.000000000000000D+00 -.895699977471390D+03
 0.635641490482022D+03 0.862625971022665D+02 -.463689668771425D+03 0.407388953996084D+03
 0.533343843994391D+03 -.796377094500936D+02 0.481668168388130D+03 0.214730684164793D+03
 0.622414620466367D+03 -.662488765217299D+01 -.179784996167043D+02 -.622119638160877D+03
 0.000000000000000D+00 0.000000000000000D+00 0.000000000000000D+00 0.000000000000000D+00
 0.895699977471390D+03 0.000000000000000D+00 0.000000000000000D+00 0.895699977471390D+03
 0.895699977471390D+03 -.000000000000000D+00 -.000000000000000D+00 -.895699977471390D+03
 0.633822473525709D+03 0.856131290249320D+02 -.459761528429414D+03 0.409140143546264D+03
 0.425669427175517D+03 -.388393330962841D+02 0.401208833545526D+03 0.136811692927203D+03
 0.620608336077294D+03 -.726082829527748D+01 -.141321764755338D+02 -.620404923230915D+03
 0.111299718164261D+03 -.395129676333705D+02 0.726848713594227D+02 0.744530867574491D+02
0.116033994360D-01 0.000000000000D+00 0.000000000000D+00 0.431237057890D-05 0.149929209161D-07  6 2 1 25 2 1 21 2 0.20282822D+00 0.93620299D-01 0.24294314D+06 0.24294314D+06 0.24294314D+06 0.10913959D+01  1  2  1  3  6  4        2 0.110770070484D+00 0.100000000000D+01
  </mgrwgt>
  </event>
  <event>
  5     66 0.18337608E-05 0.14366024E+03 0.75467711E-02 0.88355761E-01
        2 -1    0    0  501    0 0.00000000E+00 0.00000000E+00 0.16025964E+04 0.16025965E+04 0.32000000E+00 0.0000E+00 0.9000E+01
        1 -1    0    0  502    0 0.00000000E+00 0.00000000E+00 -.23975526E+04 0.23975526E+04 0.32000000E+00 0.0000E+00 0.9000E+01
       25  1    1    2    0    0 0.25921536E+03 0.36874390E+03 -.25900346E+03 0.53467042E+03 0.12500000E+03 0.0000E+00 0.9000E+01
        2  1    1    2  501    0 0.13838767E+03 0.38571069E+02 0.14205819E+04 0.14278277E+04 0.32000000E+00 0.0000E+00 0.9000E+01
        1  1    1    2  502    0 -.39760302E+03 -.40731497E+03 -.19565346E+04 0.20376509E+04 0.32000000E+00 0.0000E+00 0.9000E+01
#aMCatNLO 1  0  0  1  4 0.34268672D+01 0.00000000D+00  -5  6  0 0.00000000D+00 0.00000000D+00 0.00000000D+00 0.00000000D+00 0.00000000D+00
  <mgrwgt>
 0.8323573690D-02    4    2    0
 0.196018093875121D+04 0.000000000000000D+00 0.000000000000000D+00 0.196018093875121D+04
 0.196018093875121D+04 0.000000000000000D+00 0.000000000000000D+00 -.196018093875121D+04
 0.493059445081647D+03 0.259239293377296D+03 0.368768652667674D+03 -.155843787053350D+03
 0.174492130632794D+04 0.138385624499567D+03 0.385704999538439D+02 0.173899744126964D+04
 0.168238112609284D+04 -.397624917876863D+03 -.407339152621517D+03 -.158315365421629D+04
 0.000000000000000D+00 -.000000000000000D+00 -.000000000000000D+00 -.000000000000000D+00
 0.224985425184747D+04 0.000000000000000D+00 0.000000000000000D+00 0.224985425184747D+04
 0.226627539357304D+04 0.000000000000000D+00 0.000000000000000D+00 -.226627539357304D+04
 0.561800356052490D+03 0.306230358274535D+03 0.426532908189537D+03 -.155843787053350D+03
 0.177903526344991D+04 0.295368070590924D+03 0.231542805397411D+03 0.173899744126964D+04
 0.161879324181593D+04 -.250566798122260D+03 -.226566428601617D+03 -.158315365421629D+04
 0.556500784102190D+03 -.351031630743198D+03 -.431509284985331D+03 -.164211417255697D+02
0.613940565642D-01 0.000000000000D+00 0.000000000000D+00 0.420769275982D-04 0.000000000000D+00  6 2 1 25 2 1 21 0 0.24655330D+00 0.36885424D+00 0.34850107D+06 0.34850107D+06 0.34850107D+06 0.10797693D+01  1  2  2  1  6  1        2 0.167978076895D-01 0.100000000000D+01
0.137122066453D-01 0.000000000000D+00 -.235769342633D-03 0.420769275982D-04 0.000000000000D+00  6 2 1 25 2 1 21 2 0.24655330D+00 0.36885424D+00 0.34850107D+06 0.34850107D+06 0.34850107D+06 0.10797693D+01  1  2  3  1  6  1        2 0.437416951934D-02 0.100000000000D+01
-.393581591115D-01 0.000000000000D+00 0.000000000000D+00 0.420769275982D-04 0.000000000000D+00  6 2 1 25 2 1 21 2 0.24655330D+00 0.36885424D+00 0.34850107D+06 0.34850107D+06 0.34850107D+06 0.10797693D+01  1  2 15  1  6  1        2 -.125551827197D-01 0.100000000000D+01
-.919192584237D-03 0.000000000000D+00 0.000000000000D+00 0.420769275982D-04 0.000000000000D+00  6 2 1 25 2 1 21 2 0.24655330D+00 0.36885424D+00 0.34850107D+06 0.34850107D+06 0.34850107D+06 0.10797693D+01  1  2  4  1  6  1        2 -.293220798692D-03 0.100000000000D+01
  </mgrwgt>
  </event>
  <event>
  5     66 0.18337608E-05 0.54427906E+02 0.75467711E-02 0.94630111E-01
        2 -1    0    0  501    0 0.00000000E+00 0.00000000E+00 0.28923652E+03 0.28923670E+03 0.32000000E+00 0.0000E+00 0.9000E+01
        1 -1    0    0  502    0 0.00000000E+00 0.00000000E+00 -.27245688E+04 0.27245688E+04 0.32000000E+00 0.0000E+00 0.9000E+01
       25  1    1    2    0    0 0.46595325E+03 -.68586289E+02 -.12128788E+04 0.13071023E+04 0.12500000E+03 0.0000E+00 0.9000E+01
        2  1    1    2  501    0 -.41490009E+03 0.49730111E+02 0.60822878E+02 0.42227324E+03 0.32000000E+00 0.0000E+00 0.9000E+01
        1  1    1    2  502    0 -.51053169E+02 0.18856179E+02 -.12832764E+04 0.12844300E+04 0.32000000E+00 0.0000E+00 0.9000E+01
#aMCatNLO 1  0  0  2  4 0.28884307D+02 0.00000000D+00  -5  6  0 0.00000000D+00 0.00000000D+00 0.00000000D+00 0.00000000D+00 0.00000000D+00
  <mgrwgt>
 0.1110862506D-01    9    2    0
 0.887719047386297D+03 0.000000000000000D+00 0.000000000000000D+00 0.887719047386297D+03
 0.887719047386297D+03 0.000000000000000D+00 0.000000000000000D+00 -.887719047386297D+03
 0.555106173178231D+03 0.465951881971153D+03 -.685869074204011D+02 -.265899498530227D+03
 0.800228490422284D+03 -.414895093904267D+03 0.497295122927768D+02 0.682462214005157D+03
 0.420103431172079D+03 -.510567880668858D+02 0.188573951276244D+02 -.416562715474930D+03
 0.000000000000000D+00 0.000000000000000D+00 -.000000000000000D+00 -.000000000000000D+00
 0.890425391950509D+03 0.000000000000000D+00 0.000000000000000D+00 0.890425391950509D+03
 0.968402743075509D+03 0.000000000000000D+00 0.000000000000000D+00 -.968402743075509D+03
 0.547528031218945D+03 0.457159659796013D+03 -.668165182201327D+02 -.265899498530227D+03
 0.807111132627145D+03 -.427711753337104D+03 0.523102563858425D+02 0.682462214005157D+03
 0.421033872368518D+03 -.577638773472968D+02 0.202079249698809D+02 -.416562715474930D+03
 0.831550988114097D+02 0.283159708883879D+02 -.570166313559077D+01 -.779773511249999D+02
0.584600473004D-03 0.000000000000D+00 0.000000000000D+00 0.140743866746D-04 0.000000000000D+00  6 2 1 25 2 1 21 0 0.44497942D-01 0.41916445D+00 0.23019420D+06 0.23019420D+06 0.23019420D+06 0.10931661D+01  1  2  2  2  6  2        1 0.942273884701D-03 0.100000000000D+01
0.169443879947D-03 0.000000000000D+00 -.224501974517D-05 0.140743866746D-04 0.000000000000D+00  6 2 1 25 2 1 21 2 0.44497942D-01 0.41916445D+00 0.23019420D+06 0.23019420D+06 0.23019420D+06 0.10931661D+01  1  2  3  2  6  2        1 0.326374448941D-03 0.100000000000D+01
-.369194402038D-03 0.000000000000D+00 0.000000000000D+00 0.140743866746D-04 0.000000000000D+00  6 2 1 25 2 1 21 2 0.44497942D-01 0.41916445D+00 0.23019420D+06 0.23019420D+06 0.23019420D+06 0.10931661D+01  1  2 15  2  6  2        1 -.711124058036D-03 0.100000000000D+01
0.312209494476D-07 0.000000000000D+00 0.000000000000D+00 0.140743866746D-04 0.000000000000D+00  6 2 1 25 2 1 21 2 0.44497942D-01 0.45799831D+00 0.24980367D+06 0.24980367D+06 0.24980367D+06 0.10904848D+01  1  2 12  2  6  2        1 0.390439975465D-07 0.100000000000D+01
-.445700043729D-03 0.000000000000D+00 0.000000000000D+00 0.140743866746D-04 0.000000000000D+00  6 2 1 25 2 1 21 2 0.44497942D-01 0.41916445D+00 0.23019420D+06 0.23019420D+06 0.23019420D+06 0.10931661D+01  1  2  4  2  6  2        1 -.858485453773D-03 0.100000000000D+01
-.174089978539D-01 0.000000000000D+00 -.985018870753D-03 0.140743866746D-04 0.000000000000D+00  6 2 1 25 2 1 21 2 0.44497942D-01 0.45763001D+00 0.23019420D+06 0.23019420D+06 0.23019420D+06 0.10931661D+01  1  2  5  2  6  2        1 -.220940540853D-01 0.100000000000D+01
0.174320345389D-01 0.000000000000D+00 0.981234549596D-03 0.140743866746D-04 0.000000000000D+00  6 2 1 25 2 1 21 2 0.44497942D-01 0.41916445D+00 0.23019420D+06 0.23019420D+06 0.23019420D+06 0.10931661D+01  1  2  6  2  6  2        1 0.335767256295D-01 0.100000000000D+01
0.468266932646D-09 0.000000000000D+00 0.000000000000D+00 0.140743866746D-04 0.000000000000D+00  6 2 21 25 2 1 -1 2 0.44497942D-01 0.45799831D+00 0.24980367D+06 0.24980367D+06 0.24980367D+06 0.10904848D+01  1  2 12  6  6  2        1 0.133610130584D-09 0.100000000000D+01
-.250911755312D-03 0.000000000000D+00 -.142837939526D-04 0.140743866746D-04 0.000000000000D+00  6 2 21 25 2 1 -1 2 0.44497942D-01 0.45763001D+00 0.23019420D+06 0.23019420D+06 0.23019420D+06 0.10931661D+01  1  2  5  6  6  2        1 -.731244855728D-04 0.100000000000D+01
  </mgrwgt>
  </event>
  <event>
  5     66 0.18337608E-05 0.71382005E+02 0.75467711E-02 0.90375635E-01
        4 -1    0    0  501    0 0.00000000E+00 0.00000000E+00 0.97848788E+03 0.97848911E+03 0.15500000E+01 0.0000E+00 0.9000E+01
        3 -1    0    0  502    0 0.00000000E+00 0.00000000E+00 -.14559527E+04 0.14559528E+04 0.50000000E+00 0.0000E+00 0.9000E+01
       25  1    1    2    0    0 0.53159963E+03 0.45844900E+03 -.67443947E+03 0.98146179E+03 0.12500000E+03 0.0000E+00 0.9000E+01
        4  1    1    2  501    0 -.47025480E+03 -.42203585E+03 0.70110658E+03 0.94382555E+03 0.15500000E+01 0.0000E+00 0.9000E+01
        3  1    1    2  502    0 -.61344825E+02 -.36413149E+02 -.50413189E+03 0.50915452E+03 0.50000000E+00 0.0000E+00 0.9000E+01
#aMCatNLO 1  0  0  1  4 0.52445535D+02 0.00000000D+00  -5  6  0 0.00000000D+00 0.00000000D+00 0.00000000D+00 0.00000000D+00 0.00000000D+00
  <mgrwgt>
 0.1279475211D-05    4    2    0
 0.119358017570324D+04 0.000000000000000D+00 0.000000000000000D+00 0.119358017570324D+04
 0.119358017570324D+04 0.000000000000000D+00 0.000000000000000D+00 -.119358017570324D+04
 0.865779085751500D+03 0.531598841364635D+03 0.458438377277478D+03 -.491106252682323D+03
 0.110266014585117D+04 -.470216762397175D+03 -.422001706598957D+03 0.903698043174160D+03
 0.418721119803817D+03 -.613820789674604D+02 -.364366706785206D+02 -.412591790491837D+03
 0.000000000000000D+00 0.000000000000000D+00 0.000000000000000D+00 -.000000000000000D+00
 0.120666619981817D+04 0.000000000000000D+00 0.000000000000000D+00 0.120666619981817D+04
 0.124759794587721D+04 0.000000000000000D+00 0.000000000000000D+00 -.124759794587721D+04
 0.852993530212664D+03 0.526192842499407D+03 0.440350659887530D+03 -.491106252682323D+03
 0.111476754440232D+04 -.477191164633920D+03 -.445337082681530D+03 0.903698043174160D+03
 0.419975317348808D+03 -.640200032312088D+02 -.452627969445965D+02 -.412591790491837D+03
 0.665277537315876D+02 0.150183253657219D+02 0.502492197385970D+02 -.409317460590467D+02
0.451751919181D-03 0.000000000000D+00 0.000000000000D+00 0.276182716063D-05 0.000000000000D+00  6 4 3 25 4 3 21 0 0.15053670D+00 0.22399282D+00 0.50141243D+06 0.50141243D+06 0.50141243D+06 0.10684238D+01  1  2  2  1  6  1        4 0.209662472168D-05 0.100000000000D+01
0.116891025504D-03 0.000000000000D+00 -.173484631867D-05 0.276182716063D-05 0.000000000000D+00  6 4 3 25 4 3 21 2 0.15053670D+00 0.22399282D+00 0.50141243D+06 0.50141243D+06 0.50141243D+06 0.10684238D+01  1  2  3  1  6  1        4 0.619282762658D-06 0.100000000000D+01
-.267397275336D-03 0.000000000000D+00 0.000000000000D+00 0.276182716063D-05 0.000000000000D+00  6 4 3 25 4 3 21 2 0.15053670D+00 0.22399282D+00 0.50141243D+06 0.50141243D+06 0.50141243D+06 0.10684238D+01  1  2 15  1  6  1        4 -.141665728985D-05 0.100000000000D+01
-.373257293836D-05 0.000000000000D+00 0.000000000000D+00 0.276182716063D-05 0.000000000000D+00  6 4 3 25 4 3 21 2 0.15053670D+00 0.22399282D+00 0.50141243D+06 0.50141243D+06 0.50141243D+06 0.10684238D+01  1  2  4  1  6  1        4 -.197749833328D-07 0.100000000000D+01
  </mgrwgt>
  </event>
  <event>
  6     66 0.18337608E-05 0.25616845E+02 0.75467711E-02 0.90438949E-01
        2 -1    0    0  501    0 0.00000000E+00 0.00000000E+00 0.14966745E+04 0.14966745E+04 0.32000000E+00 0.0000E+00 0.9000E+01
       21 -1    0    0  502  503 0.00000000E+00 0.00000000E+00 -.49483618E+03 0.49483675E+03 0.75000000E+00 0.0000E+00 0.9000E+01
       25  1    1    2    0    0 0.55834138E+03 0.39329468E+03 0.63376939E+03 0.94006087E+03 0.12500000E+03 0.0000E+00 0.9000E+01
        2  1    1    2  501    0 -.59723527E+03 -.34661769E+03 0.52675446E+03 0.86850685E+03 0.32000000E+00 0.0000E+00 0.9000E+01
        1  1    1    2  502    0 -.21408978E+01 -.46080741E+02 -.10991181E+03 0.11920036E+03 0.32000000E+00 0.0000E+00 0.9000E+01
       -1  1    1    2    0  503 0.41034795E+02 -.59625226E+00 -.48773747E+02 0.63743162E+02 0.32000000E+00 0.0000E+00 0.9000E+01
#aMCatNLO 2  0  0  2  4 0.41039127D+02 0.00000000D+00  -5  6  0 0.00000000D+00 0.00000000D+00 0.00000000D+00 0.00000000D+00 0.00000000D+00
  <mgrwgt>
 0.2566723912D-04    2    2    0
 0.807901593169833D+03 0.000000000000000D+00 0.000000000000000D+00 0.807901593169833D+03
 0.807901593169833D+03 0.000000000000000D+00 0.000000000000000D+00 -.807901593169833D+03
 0.723495721795384D+03 0.576507377596162D+03 0.393021678272135D+03 0.144893973103007D+03
 0.678621105126718D+03 -.579790592652573D+03 -.346856198668290D+03 0.637200944786695D+02
 0.213686359417563D+03 0.328321505641134D+01 -.461654796038456D+02 -.208614067581676D+03
 0.000000000000000D+00 0.000000000000000D+00 -.000000000000000D+00 -.000000000000000D+00
 0.812223742369372D+03 0.000000000000000D+00 0.000000000000000D+00 0.812223742369372D+03
 0.911828606102133D+03 0.000000000000000D+00 0.000000000000000D+00 -.911828606102133D+03
 0.709233143118120D+03 0.558317582675108D+03 0.393285983390530D+03 0.144893973103007D+03
 0.693436271517493D+03 -.597210107895315D+03 -.346603086026910D+03 0.637200944786695D+02
 0.213654855714239D+03 -.214227001262209D+01 -.460866450991277D+02 -.208614067581676D+03
 0.107728078121653D+03 0.410347952328293D+02 -.596252264492519D+00 -.996048637327612D+02
-.590074072206D-08 0.000000000000D+00 0.000000000000D+00 0.102302160785D-06 0.000000000000D+00  6 2 21 25 2 1 -1 2 0.22903230D+00 0.76518395D-01 0.54166118D+06 0.54166118D+06 0.54166118D+06 0.10660625D+01  1  2 13  6  6  2        1 -.158820376526D-06 0.100000000000D+01
0.957505133379D-06 0.000000000000D+00 0.000000000000D+00 0.102302160785D-06 0.451533445966D-11  6 2 21 25 2 1 -1 2 0.23025759D+00 0.76128667D-01 0.54166118D+06 0.54166118D+06 0.54166118D+06 0.10660625D+01  1  2  1  6  6  2        1 0.258260594973D-04 0.100000000000D+01
  </mgrwgt>
  </event>
  <event>
  5     66 0.18337608E-05 0.13357587E+03 0.75467711E-02 0.93898310E-01
        2 -1    0    0  501    0 0.00000000E+00 0.00000000E+00 0.12292980E+04 0.12292980E+04 0.32000000E+00 0.0000E+00 0.9000E+01
        1 -1    0    0  502    0 -.00000000E+00 -.00000000E+00 -.13220000E+04 0.13220000E+04 0.32000000E+00 0.0000E+00 0.9000E+01
       25  1    1    2    0    0 -.22097953E+03 -.47573849E+03 -.64191243E+02 0.54305117E+03 0.12500000E+03 0.0000E+00 0.9000E+01
        2  1    1    2  501    0 0.14361072E+03 0.36686755E+03 0.94593023E+03 0.10246951E+04 0.32000000E+00 0.0000E+00 0.9000E+01
        1  1    1    2  502    0 0.77368815E+02 0.10887093E+03 -.97444098E+03 0.98355180E+03 0.32000000E+00 0.0000E+00 0.9000E+01
#aMCatNLO 1  0  0  4  1 0.23361539D+01 0.00000000D+00  -5  6  0 0.00000000D+00 0.00000000D+00 0.00000000D+00 0.00000000D+00 0.00000000D+00
  <mgrwgt>
 0.2945077184D-01    3    2    0
 0.127480664474316D+04 0.000000000000000D+00 0.000000000000000D+00 0.127480664474316D+04
 0.127480664474316D+04 -.000000000000000D+00 -.000000000000000D+00 -.127480664474316D+04
 0.541067912773060D+03 -.220981908130850D+03 -.475735990564716D+03 -.444043893421866D+02
 0.105972517128829D+04 0.143605268759147D+03 0.366853627673399D+03 0.983775066419899D+03
 0.948820205424976D+03 0.773766393717032D+02 0.108882362891317D+03 -.939370677077712D+03
 0.000000000000000D+00 0.000000000000000D+00 -.000000000000000D+00 0.000000000000000D+00
 0.127480664474316D+04 0.000000000000000D+00 0.000000000000000D+00 0.127480664474316D+04
 0.127480664474316D+04 -.000000000000000D+00 -.000000000000000D+00 -.127480664474316D+04
 0.486979940526200D+03 -.188363753557206D+03 -.392409741905815D+03 0.179047907773739D+03
 0.587703822462580D+03 -.529070815976442D+03 0.198178916275180D+03 -.161879497661517D+03
 0.650711218524898D+03 0.128126964917697D+03 0.238529006033497D+03 -.591703037051365D+03
 0.824218307972648D+03 0.589307604615951D+03 -.442981804028621D+02 0.574534626939143D+03
0.229977164178D-01 0.000000000000D+00 0.000000000000D+00 0.214174935113D-04 0.000000000000D+00  6 2 1 25 2 1 21 0 0.18912277D+00 0.20338462D+00 0.28450387D+06 0.28450387D+06 0.28450387D+06 0.10862601D+01  1  2  2  3  6  4        2 0.545896533945D-01 0.100000000000D+01
0.447357022471D-02 0.000000000000D+00 -.883172864821D-04 0.214174935113D-04 0.000000000000D+00  6 2 1 25 2 1 21 2 0.18912277D+00 0.20338462D+00 0.28450387D+06 0.28450387D+06 0.28450387D+06 0.10862601D+01  1  2  3  3  6  4        2 0.125298975235D-01 0.100000000000D+01
-.134489470635D-01 0.000000000000D+00 0.000000000000D+00 0.214174935113D-04 0.000000000000D+00  6 2 1 25 2 1 21 2 0.18912277D+00 0.20338462D+00 0.28450387D+06 0.28450387D+06 0.28450387D+06 0.10862601D+01  1  2 15  3  6  4        2 -.376687790824D-01 0.100000000000D+01
  </mgrwgt>
  </event>
  <event>
  6     66 0.18337608E-05 0.16115756E+03 0.75467711E-02 0.92658587E-01
        2 -1    0    0  501    0 0.00000000E+00 0.00000000E+00 0.54066842E+03 0.54066852E+03 0.32000000E+00 0.0000E+00 0.9000E+01
        1 -1    0    0  502    0 -.00000000E+00 -.00000000E+00 -.21253697E+04 0.21253698E+04 0.32000000E+00 0.0000E+00 0.9000E+01
       25  1    1    2    0    0 0.55924467E+03 -.35831988E+02 -.58521567E+03 0.81984201E+03 0.12500000E+03 0.0000E+00 0.9000E+01
        2  1    1    2  503    0 -.19082366E+03 0.10955720E+03 0.70352739E+02 0.23101095E+03 0.32000000E+00 0.0000E+00 0.9000E+01
        1  1    1    2  502    0 -.29093816E+02 0.33100804E+02 -.12259152E+04 0.12267071E+04 0.32000000E+00 0.0000E+00 0.9000E+01
       21  1    1    2  501  503 -.33932720E+03 -.10682602E+03 0.15607686E+03 0.38847818E+03 0.75000000E+00 0.0000E+00 0.9000E+01
#aMCatNLO 2  0  0  4  1 0.15557432D+02 0.00000000D+00  -5  6  0 0.00000000D+00 0.00000000D+00 0.00000000D+00 0.00000000D+00 0.00000000D+00
  <mgrwgt>
 0.3131576958D-02    1    2    0
 0.107197036337964D+04 0.000000000000000D+00 0.000000000000000D+00 0.107197036337964D+04
 0.107197036337964D+04 -.000000000000000D+00 -.000000000000000D+00 -.107197036337964D+04
 0.592393975820113D+03 0.563673418835528D+03 -.358698127194637D+02 -.127637204692439D+03
 0.925594057097987D+03 -.539307313776200D+03 0.277835587754475D+01 0.752239496823471D+03
 0.625952693841173D+03 -.243661050593276D+02 0.330914568419189D+02 -.624602292131032D+03
 0.000000000000000D+00 0.000000000000000D+00 0.000000000000000D+00 0.000000000000000D+00
 0.107197036337964D+04 0.000000000000000D+00 0.000000000000000D+00 0.107197036337964D+04
 0.107197036337964D+04 -.000000000000000D+00 -.000000000000000D+00 -.107197036337964D+04
 0.586799334285240D+03 0.559187277782245D+03 -.358467014134523D+02 -.121379821559673D+03
 0.338829286161056D+03 -.190565622132664D+03 0.109481759535788D+03 0.257883254885906D+03
 0.619563590853504D+03 -.291045662509043D+02 0.331158680285760D+02 -.617992966480484D+03
 0.598748515459474D+03 -.339517089398676D+03 -.106750926150912D+03 0.481489533154250D+03
0.133441755185D-02 0.000000000000D+00 0.000000000000D+00 0.196583299490D-04 0.171995926408D-08  6 2 1 25 2 1 21 2 0.83179766D-01 0.32697997D+00 0.35633508D+06 0.35633508D+06 0.35633508D+06 0.10790654D+01  1  2  1  3  6  4        2 0.313157695756D-02 0.100000000000D+01
  </mgrwgt>
  </event>
  <event>
  5     66 0.18337608E-05 0.20331129E+03 0.75467711E-02 0.89787880E-01
        2 -1    0    0  501    0 0.00000000E+00 0.00000000E+00 0.96237026E+03 0.96237031E+03 0.32000000E+00 0.0000E+00 0.9000E+01
        1 -1    0    0  502    0 0.00000000E+00 0.00000000E+00 -.25808777E+04 0.25808778E+04 0.32000000E+00 0.0000E+00 0.9000E+01
       25  1    1    2    0    0 0.37002536E+03 -.40971140E+03 -.25524951E+03 0.62093438E+03 0.12500000E+03 0.0000E+00 0.9000E+01
        2  1    1    2  501    0 -.31192454E+03 0.36688541E+02 0.73030914E+03 0.79498083E+03 0.32000000E+00 0.0000E+00 0.9000E+01
        1  1    1    2  502    0 -.58100826E+02 0.37302285E+03 -.20935671E+04 0.21273329E+04 0.32000000E+00 0.0000E+00 0.9000E+01
#aMCatNLO 1  0  0  2  4 0.22368067D+03 0.00000000D+00  -5  6  0 0.00000000D+00 0.00000000D+00 0.00000000D+00 0.00000000D+00 0.00000000D+00
  <mgrwgt>
 0.1514756994D-02    9    2    0
 0.157599496299943D+04 0.000000000000000D+00 0.000000000000000D+00 0.157599496299943D+04
 0.157599496299943D+04 0.000000000000000D+00 0.000000000000000D+00 -.157599496299943D+04
 0.566967185734416D+03 0.370020930260932D+03 -.409742230227897D+03 0.319782056455352D+02
 0.126861506683238D+04 -.311911817346926D+03 0.366870449889709D+02 0.122912540724023D+04
 0.131640767343206D+04 -.581091129140056D+02 0.373055185238926D+03 -.126110361288576D+04
 0.000000000000000D+00 0.000000000000000D+00 0.000000000000000D+00 -.000000000000000D+00
 0.158963264175593D+04 0.000000000000000D+00 0.000000000000000D+00 0.158963264175593D+04
 0.287289622433589D+04 0.000000000000000D+00 0.000000000000000D+00 -.287289622433589D+04
 0.543727397270246D+03 0.330716600634594D+03 -.411847553071117D+03 0.319782056455352D+02
 0.129376928996098D+04 -.402587328806005D+03 0.318300425312184D+02 0.122912540724023D+04
 0.132242001002749D+04 -.151489736791022D+03 0.368053284368680D+03 -.126110361288576D+04
 0.130261216883310D+04 0.223360464962432D+03 0.119642261712178D+02 -.128326358257996D+04
0.415545965334D-03 0.000000000000D+00 0.000000000000D+00 0.403417787989D-05 0.000000000000D+00  6 2 1 25 2 1 21 0 0.14805697D+00 0.39705812D+00 0.39543998D+06 0.39543998D+06 0.39543998D+06 0.10757868D+01  1  2  2  2  6  2        1 0.196506032758D-03 0.100000000000D+01
0.408756133751D-04 0.000000000000D+00 -.159580592265D-05 0.403417787989D-05 0.000000000000D+00  6 2 1 25 2 1 21 2 0.14805697D+00 0.39705812D+00 0.39543998D+06 0.39543998D+06 0.39543998D+06 0.10757868D+01  1  2  3  2  6  2        1 0.223703869625D-04 0.100000000000D+01
-.254119024373D-03 0.000000000000D+00 0.000000000000D+00 0.403417787989D-05 0.000000000000D+00  6 2 1 25 2 1 21 2 0.14805697D+00 0.39705812D+00 0.39543998D+06 0.39543998D+06 0.39543998D+06 0.10757868D+01  1  2 15  2  6  2        1 -.139074143245D-03 0.100000000000D+01
0.248819385271D-08 0.000000000000D+00 0.000000000000D+00 0.403417787989D-05 0.000000000000D+00  6 2 1 25 2 1 21 2 0.14805697D+00 0.72477798D+00 0.61490773D+06 0.61490773D+06 0.61490773D+06 0.10622183D+01  1  2 12  2  6  2        1 0.164644487648D-10 0.100000000000D+01
-.222220430177D-02 0.000000000000D+00 0.000000000000D+00 0.403417787989D-05 0.000000000000D+00  6 2 1 25 2 1 21 2 0.14805697D+00 0.39705812D+00 0.39543998D+06 0.39543998D+06 0.39543998D+06 0.10757868D+01  1  2  4  2  6  2        1 -.121616695226D-02 0.100000000000D+01
-.571526896693D-02 0.000000000000D+00 -.159758782586D-03 0.403417787989D-05 0.000000000000D+00  6 2 1 25 2 1 21 2 0.14805697D+00 0.72441943D+00 0.39543998D+06 0.39543998D+06 0.39543998D+06 0.10757868D+01  1  2  5  2  6  2        1 -.413209243300D-04 0.100000000000D+01
0.491990694480D-02 0.000000000000D+00 0.134671372960D-03 0.403417787989D-05 0.000000000000D+00  6 2 1 25 2 1 21 2 0.14805697D+00 0.39705812D+00 0.39543998D+06 0.39543998D+06 0.39543998D+06 0.10757868D+01  1  2  6  2  6  2        1 0.269256441891D-02 0.100000000000D+01
0.163740395326D-09 0.000000000000D+00 0.000000000000D+00 0.403417787989D-05 0.000000000000D+00  6 2 21 25 2 1 -1 2 0.14805697D+00 0.72477798D+00 0.61490773D+06 0.61490773D+06 0.61490773D+06 0.10622183D+01  1  2 12  6  6  2        1 0.491463728192D-13 0.100000000000D+01
-.367168435359D-03 0.000000000000D+00 -.105056124831D-04 0.403417787989D-05 0.000000000000D+00  6 2 21 25 2 1 -1 2 0.14805697D+00 0.72441943D+00 0.39543998D+06 0.39543998D+06 0.39543998D+06 0.10757868D+01  1  2  5  6  6  2        1 -.121841339775D-06 0.100000000000D+01
  </mgrwgt>
  </event>
  <event>
  5     66 0.18337608E-05 0.99021043E+02 0.75467711E-02 0.91446893E-01
        2 -1    0    0  501    0 0.00000000E+00 0.00000000E+00 0.23306942E+04 0.23306942E+04 0.32000000E+00 0.0000E+00 0.9000E+01
        1 -1    0    0  502    0 0.00000000E+00 0.00000000E+00 -.13286374E+04 0.13286374E+04 0.32000000E+00 0.0000E+00 0.9000E+01
       25  1    1    2    0    0 -.39428121E+03 -.25390573E+03 0.19839111E+03 0.52431844E+03 0.12500000E+03 0.0000E+00 0.9000E+01
        2  1    1    2  501    0 -.77281247E+02 0.61914588E+02 0.19124003E+04 0.19149623E+04 0.32000000E+00 0.0000E+00 0.9000E+01
        1  1    1    2  502    0 0.47156246E+03 0.19199114E+03 -.11087345E+04 0.12200509E+04 0.32000000E+00 0.0000E+00 0.9000E+01
#aMCatNLO 1  0  0  1  4 0.14358172D+03 0.00000000D+00  -5  6  0 0.00000000D+00 0.00000000D+00 0.00000000D+00 0.00000000D+00 0.00000000D+00
  <mgrwgt>
 0.6231389325D-01    7    2    0
 0.175972938775238D+04 0.000000000000000D+00 0.000000000000000D+00 0.175972938775238D+04
 0.175972938775238D+04 0.000000000000000D+00 0.000000000000000D+00 -.175972938775238D+04
 0.488712517645664D+03 -.394318726750625D+03 -.253919301722205D+03 0.570320510786451D+02
 0.144652413456862D+04 -.772787232449493D+02 0.619125661872440D+02 0.144313093826279D+04
 0.158422212329047D+04 0.471597449995574D+03 0.192006735534961D+03 -.150016298934144D+04
 0.000000000000000D+00 -.000000000000000D+00 -.000000000000000D+00 0.000000000000000D+00
 0.238641974109736D+04 0.000000000000000D+00 0.000000000000000D+00 0.238641974109736D+04
 0.177300974914764D+04 0.000000000000000D+00 0.000000000000000D+00 -.177300974914764D+04
 0.475862687869460D+03 -.392701180100904D+03 -.230983605486337D+03 0.570320510786451D+02
 0.145085557736931D+04 -.724199555519601D+02 0.130806542077373D+03 0.144313093826279D+04
 0.159674234484203D+04 0.476931775809560D+03 0.267643797695619D+03 -.150016298934144D+04
 0.635968880164202D+03 -.118106401566962D+02 -.167466734286654D+03 0.613409991949724D+03
0.102998179730D-01 0.000000000000D+00 0.000000000000D+00 0.109255742200D-03 0.000000000000D+00  6 2 1 25 2 1 21 0 0.35856835D+00 0.20440575D+00 0.29897970D+06 0.29897970D+06 0.29897970D+06 0.10846613D+01  1  2  2  1  6  1        2 0.593381280913D-02 0.100000000000D+01
0.300238201633D-02 0.000000000000D+00 -.395540130208D-04 0.109255742200D-03 0.000000000000D+00  6 2 1 25 2 1 21 2 0.35856835D+00 0.20440575D+00 0.29897970D+06 0.29897970D+06 0.29897970D+06 0.10846613D+01  1  2  3  1  6  1        2 0.203497261779D-02 0.100000000000D+01
-.554857316174D-02 0.000000000000D+00 0.000000000000D+00 0.109255742200D-03 0.000000000000D+00  6 2 1 25 2 1 21 2 0.35856835D+00 0.20440575D+00 0.29897970D+06 0.29897970D+06 0.29897970D+06 0.10846613D+01  1  2 15  1  6  1        2 -.376074543164D-02 0.100000000000D+01
-.268460314446D-02 0.000000000000D+00 0.000000000000D+00 0.109255742200D-03 0.000000000000D+00  6 2 1 25 2 1 21 2 0.35856835D+00 0.20440575D+00 0.29897970D+06 0.29897970D+06 0.29897970D+06 0.10846613D+01  1  2  4  1  6  1        2 -.181958653459D-02 0.100000000000D+01
-.134229153115D+00 0.000000000000D+00 -.659403213741D-02 0.109255742200D-03 0.000000000000D+00  6 2 1 25 2 1 21 2 0.48707864D+00 0.20440575D+00 0.29897970D+06 0.29897970D+06 0.29897970D+06 0.10846613D+01  1  2  5  1  6  1        2 -.283867805307D-01 0.100000000000D+01
0.130382203288D+00 0.000000000000D+00 0.629634287653D-02 0.109255742200D-03 0.000000000000D+00  6 2 1 25 2 1 21 2 0.35856835D+00 0.20440575D+00 0.29897970D+06 0.29897970D+06 0.29897970D+06 0.10846613D+01  1  2  6  1  6  1        2 0.883712372692D-01 0.100000000000D+01
-.511451357522D-02 0.000000000000D+00 -.258751817049D-03 0.109255742200D-03 0.000000000000D+00  6 21 1 25 2 1 -2 2 0.48707864D+00 0.20440575D+00 0.29897970D+06 0.29897970D+06 0.29897970D+06 0.10846613D+01  1  2  5  5  6  1        2 -.590169539648D-04 0.100000000000D+01
  </mgrwgt>
  </event>
  <event>
  6     66 0.18337608E-05 0.67030834E+02 0.75467711E-02 0.93122900E-01
        2 -1    0    0  501    0 0.00000000E+00 0.00000000E+00 0.15805758E+04 0.15805759E+04 0.32000000E+00 0.0000E+00 0.9000E+01
        1 -1    0    0  502    0 0.00000000E+00 0.00000000E+00 -.73417951E+03 0.73417958E+03 0.32000000E+00 0.0000E+00 0.9000E+01
       25  1    1    2    0    0 0.47231323E+03 0.97484837E+02 0.10091487E+04 0.11254284E+04 0.12500000E+03 0.0000E+00 0.9000E+01
        2  1    1    2  501    0 0.69069317E+02 0.49180042E+02 0.38601490E+03 0.39521748E+03 0.32000000E+00 0.0000E+00 0.9000E+01
        1  1    1    2  503    0 -.49659810E+03 -.13832149E+03 -.44585887E+03 0.68156639E+03 0.32000000E+00 0.0000E+00 0.9000E+01
       21  1    1    2  502  503 -.44784440E+02 -.83433876E+01 -.10290840E+03 0.11254315E+03 0.75000000E+00 0.0000E+00 0.9000E+01
#aMCatNLO 2  0  0  5  2 0.43380070D+02 0.00000000D+00  -5  6  0 0.00000000D+00 0.00000000D+00 0.00000000D+00 0.00000000D+00 0.00000000D+00
  <mgrwgt>
 0.2346244791D-01    3    2    0
 0.107723094454848D+04 0.000000000000000D+00 0.000000000000000D+00 0.107723094454848D+04
 0.107723094454848D+04 -.000000000000000D+00 -.000000000000000D+00 -.107723094454848D+04
 0.815523103635540D+03 0.473784758952102D+03 0.979053470847838D+02 0.644511813514888D+03
 0.273602460695518D+03 0.694647885669738D+02 0.492624344843997D+02 0.260011850108141D+03
 0.106533632476589D+04 -.543249547519077D+03 -.147167781569184D+03 -.904523663623029D+03
 0.000000000000000D+00 0.000000000000000D+00 0.000000000000000D+00 -.000000000000000D+00
 0.107723094454848D+04 0.000000000000000D+00 0.000000000000000D+00 0.107723094454848D+04
 0.107723094454848D+04 -.000000000000000D+00 -.000000000000000D+00 -.107723094454848D+04
 0.812925092406946D+03 0.472438119396998D+03 0.975405387627095D+02 0.642269626016480D+03
 0.272750925100161D+03 0.690129835404671D+02 0.491400392725557D+02 0.259259583788389D+03
 0.907381924011844D+03 -.496641436863736D+03 -.138332299375332D+03 -.746694994065779D+03
 0.161403947578001D+03 -.448096660737290D+02 -.834827865993278D+01 -.154834215739090D+03
-.455802319967D-02 0.000000000000D+00 0.000000000000D+00 0.109702001742D-05 0.000000000000D+00  6 2 1 25 2 1 21 2 0.24316552D+00 0.11295070D+00 0.32728813D+06 0.32728813D+06 0.32728813D+06 0.10817656D+01  1  2 13  4  6  5        1 -.227154224490D-01 0.100000000000D+01
-.132289172963D-06 0.000000000000D+00 0.000000000000D+00 0.109702001742D-05 0.000000000000D+00  6 2 1 25 2 1 21 2 0.24316552D+00 0.11295070D+00 0.32728813D+06 0.32728813D+06 0.32728813D+06 0.10817656D+01  1  2 13  4  6  5        1 -.659278006635D-06 0.100000000000D+01
0.926607505935D-02 0.000000000000D+00 0.000000000000D+00 0.109702001742D-05 0.978047371801D-08  6 2 1 25 2 1 21 2 0.24316552D+00 0.11295070D+00 0.32728813D+06 0.32728813D+06 0.32728813D+06 0.10817656D+01  1  2  1  4  6  5        1 0.461785296381D-01 0.100000000000D+01
  </mgrwgt>
  </event>
  <event>
  5     66 0.18337608E-05 0.13655735E+03 0.75467711E-02 0.94699169E-01
        2 -1    0    0  501    0 0.00000000E+00 0.00000000E+00 0.92778861E+03 0.92778866E+03 0.32000000E+00 0.0000E+00 0.9000E+01
        1 -1    0    0  502    0 0.00000000E+00 0.00000000E+00 -.27117835E+04 0.27117835E+04 0.32000000E+00 0.0000E+00 0.9000E+01
       25  1    1    2    0    0 0.49815234E+02 -.46661450E+03 0.21557081E+03 0.53132515E+03 0.12500000E+03 0.0000E+00 0.9000E+01
        2  1    1    2  501    0 0.60020454E+02 0.12268024E+03 0.53292603E+03 0.55014830E+03 0.32000000E+00 0.0000E+00 0.9000E+01
        1  1    1    2  502    0 -.10983569E+03 0.34393425E+03 -.25324917E+04 0.25580987E+04 0.32000000E+00 0.0000E+00 0.9000E+01
#aMCatNLO 1  0  0  2  5 0.81140599D+01 0.00000000D+00  -5  6  0 0.00000000D+00 0.00000000D+00 0.00000000D+00 0.00000000D+00 0.00000000D+00
  <mgrwgt>
 0.5234989444D-02   13    2    0
 0.158617841511929D+04 0.000000000000000D+00 0.000000000000000D+00 0.158617841511929D+04
 0.158617841511929D+04 0.000000000000000D+00 0.000000000000000D+00 -.158617841511929D+04
 0.730914251073945D+03 0.498333189975877D+02 -.466631953943265D+03 0.546243446001653D+03
 0.930742301878716D+03 0.600124279878492D+02 0.122663840399592D+03 0.920670040379243D+03
 0.151070027728591D+04 -.109845746985437D+03 0.343968113543672D+03 -.146691348638090D+04
 0.000000000000000D+00 -.000000000000000D+00 -.000000000000000D+00 -.000000000000000D+00
 0.158624947523307D+04 0.000000000000000D+00 0.000000000000000D+00 0.158624947523307D+04
 0.183605554065320D+04 0.000000000000000D+00 0.000000000000000D+00 -.183605554065320D+04
 0.730415102599072D+03 0.514386811807155D+02 -.465675189250448D+03 0.546243446001653D+03
 0.931037823140361D+03 0.620577105235706D+02 0.123882789081440D+03 0.920670040379243D+03
 0.151091428130477D+04 -.106526313394264D+03 0.345946431516752D+03 -.146691348638090D+04
 0.249937808842069D+03 -.697007831002237D+01 -.415403134774382D+01 -.249806065420135D+03
0.871563790713D-04 0.000000000000D+00 0.000000000000D+00 0.584103898238D-04 0.000000000000D+00  6 2 1 25 2 1 21 0 0.14273671D+00 0.41719747D+00 0.24171334D+06 0.24171334D+06 0.24171334D+06 0.10915621D+01  1  2  2  2  6  2        1 0.365516183468D-04 0.100000000000D+01
0.112549962628D-04 0.000000000000D+00 -.334703444436D-06 0.584103898238D-04 0.000000000000D+00  6 2 1 25 2 1 21 2 0.14273671D+00 0.41719747D+00 0.24171334D+06 0.24171334D+06 0.24171334D+06 0.10915621D+01  1  2  3  2  6  2        1 0.562405696051D-05 0.100000000000D+01
-.600217723125D-04 0.000000000000D+00 0.000000000000D+00 0.584103898238D-04 0.000000000000D+00  6 2 1 25 2 1 21 2 0.14273671D+00 0.41719747D+00 0.24171334D+06 0.24171334D+06 0.24171334D+06 0.10915621D+01  1  2 15  2  6  2        1 -.299925347351D-04 0.100000000000D+01
0.147837112166D+00 0.000000000000D+00 0.000000000000D+00 0.584103898238D-04 0.000000000000D+00  6 2 1 25 2 1 21 2 0.14273671D+00 0.48364410D+00 0.24678227D+06 0.24678227D+06 0.24678227D+06 0.10908826D+01  1  2 12  2  6  2        1 0.354652397459D-01 0.100000000000D+01
0.570437093640D-08 0.000000000000D+00 0.000000000000D+00 0.584103898238D-04 0.000000000000D+00  6 2 1 25 2 1 21 2 0.14273671D+00 0.48293588D+00 0.24678227D+06 0.24678227D+06 0.24678227D+06 0.10908826D+01  1  2 12  2  6  2        1 0.137953949375D-08 0.100000000000D+01
-.136466190604D+00 0.000000000000D+00 0.000000000000D+00 0.584103898238D-04 0.000000000000D+00  6 2 1 25 2 1 21 2 0.14273671D+00 0.41719747D+00 0.24171334D+06 0.24171334D+06 0.24171334D+06 0.10915621D+01  1  2  4  2  6  2        1 -.681913713003D-01 0.100000000000D+01
-.150250991888D+00 0.000000000000D+00 -.916220031353D-04 0.584103898238D-04 0.000000000000D+00  6 2 1 25 2 1 21 2 0.14273671D+00 0.48292546D+00 0.24171334D+06 0.24171334D+06 0.24171334D+06 0.10915621D+01  1  2  5  2  6  2        1 -.364578130149D-01 0.100000000000D+01
0.148671411725D+00 0.000000000000D+00 0.906501125528D-04 0.584103898238D-04 0.000000000000D+00  6 2 1 25 2 1 21 2 0.14273671D+00 0.41719747D+00 0.24171334D+06 0.24171334D+06 0.24171334D+06 0.10915621D+01  1  2  6  2  6  2        1 0.742902501623D-01 0.100000000000D+01
0.495511173959D-03 0.000000000000D+00 0.000000000000D+00 0.584103898238D-04 0.502072099175D-05  6 2 1 25 2 1 21 2 0.14274311D+00 0.48292028D+00 0.24678227D+06 0.24678227D+06 0.24678227D+06 0.10908826D+01  1  2 11  2  6  2        1 0.119847890019D-03 0.100000000000D+01
0.333196983718D-02 0.000000000000D+00 0.000000000000D+00 0.584103898238D-04 0.000000000000D+00  6 2 21 25 2 1 -1 2 0.14273671D+00 0.48364410D+00 0.24678227D+06 0.24678227D+06 0.24678227D+06 0.10908826D+01  1  2 12  6  6  2        1 0.155454322016D-03 0.100000000000D+01
0.127529151849D-09 0.000000000000D+00 0.000000000000D+00 0.584103898238D-04 0.000000000000D+00  6 2 21 25 2 1 -1 2 0.14273671D+00 0.48293588D+00 0.24678227D+06 0.24678227D+06 0.24678227D+06 0.10908826D+01  1  2 12  6  6  2        1 0.602554450051D-11 0.100000000000D+01
-.335805945845D-02 0.000000000000D+00 -.204809189665D-05 0.584103898238D-04 0.000000000000D+00  6 2 21 25 2 1 -1 2 0.14273671D+00 0.48292546D+00 0.24171334D+06 0.24171334D+06 0.24171334D+06 0.10915621D+01  1  2  5  6  6  2        1 -.159370371536D-03 0.100000000000D+01
0.120080668800D-04 0.000000000000D+00 0.000000000000D+00 0.584103898238D-04 0.121336249543D-06  6 2 21 25 2 1 -1 2 0.14274311D+00 0.48292028D+00 0.24678227D+06 0.24678227D+06 0.24678227D+06 0.10908826D+01  1  2 11  6  6  2        1 0.567484540071D-06 0.100000000000D+01
  </mgrwgt>
  </event>
  <event>
  5     66 0.18337608E-05 0.25366312E+03 0.75467711E-02 0.94441814E-01
        2 -1    0    0  501    0 0.00000000E+00 0.00000000E+00 0.13954767E+04 0.13954768E+04 0.32000000E+00 0.0000E+00 0.9000E+01
        1 -1    0    0  502    0 0.00000000E+00 0.00000000E+00 -.67280798E+03 0.67280806E+03 0.32000000E+00 0.0000E+00 0.9000E+01
       25  1    1    2    0    0 -.37440992E+03 0.29332843E+03 -.20932174E+03 0.53447633E+03 0.12500000E+03 0.0000E+00 0.9000E+01
        2  1    1    2  501    0 0.12639299E+03 -.24024995E+03 0.11608596E+04 0.11921788E+04 0.32000000E+00 0.0000E+00 0.9000E+01
        1  1    1    2  502    0 0.24801694E+03 -.53078475E+02 -.22886906E+03 0.34162973E+03 0.32000000E+00 0.0000E+00 0.9000E+01
#aMCatNLO 1  0  0  5  2 0.19789879D+02 0.00000000D+00  -5  6  0 0.00000000D+00 0.00000000D+00 0.00000000D+00 0.00000000D+00 0.00000000D+00
  <mgrwgt>
 0.1306195685D-01    8    2    0
 0.968962338139284D+03 0.000000000000000D+00 0.000000000000000D+00 0.968962338139284D+03
 0.968962338139284D+03 -.000000000000000D+00 -.000000000000000D+00 -.968962338139284D+03
 0.648472395661325D+03 -.374434420960627D+03 0.293334272503015D+03 -.422664544183381D+03
 0.839456012504101D+03 0.126389436025301D+03 -.240243198137485D+03 0.794352134219557D+03
 0.449996268113140D+03 0.248044984935327D+03 -.530910743655301D+02 -.371687590036176D+03
 0.000000000000000D+00 0.000000000000000D+00 -.000000000000000D+00 0.000000000000000D+00
 0.968962338139284D+03 0.000000000000000D+00 0.000000000000000D+00 0.968962338139284D+03
 0.968962338139284D+03 -.000000000000000D+00 -.000000000000000D+00 -.968962338139284D+03
 0.648640036450123D+03 -.373882627635917D+03 0.293216167714708D+03 -.423491389084570D+03
 0.838595573453137D+03 0.127103281364168D+03 -.240395988229094D+03 0.793282459484019D+03
 0.369826145181960D+03 0.190806876391910D+03 -.323202614272799D+02 -.315149986963323D+03
 0.808629211933476D+02 0.559724698798390D+02 -.204999180583340D+02 -.546410834361257D+02
0.992007274986D-04 0.000000000000D+00 0.000000000000D+00 0.758754047882D-06 0.000000000000D+00  6 2 1 25 2 1 21 0 0.21468874D+00 0.10350893D+00 0.25853568D+06 0.25853568D+06 0.25853568D+06 0.10893639D+01  1  2  2  4  6  5        1 0.618517262317D-03 0.100000000000D+01
0.615772048252D-05 0.000000000000D+00 -.380956913746D-06 0.758754047882D-06 0.000000000000D+00  6 2 1 25 2 1 21 2 0.21468874D+00 0.10350893D+00 0.25853568D+06 0.25853568D+06 0.25853568D+06 0.10893639D+01  1  2  3  4  6  5        1 0.455620136652D-04 0.100000000000D+01
-.587585216286D-04 0.000000000000D+00 0.000000000000D+00 0.758754047882D-06 0.000000000000D+00  6 2 1 25 2 1 21 2 0.21468874D+00 0.10350893D+00 0.25853568D+06 0.25853568D+06 0.25853568D+06 0.10893639D+01  1  2 15  4  6  5        1 -.434764223707D-03 0.100000000000D+01
0.275227007007D-02 0.000000000000D+00 0.000000000000D+00 0.758754047882D-06 0.000000000000D+00  6 2 1 25 2 1 21 2 0.21468874D+00 0.10350893D+00 0.25825500D+06 0.25825500D+06 0.25825500D+06 0.10893993D+01  1  2 12  4  6  5        1 0.203669839380D-01 0.100000000000D+01
0.876858129949D-07 0.000000000000D+00 0.000000000000D+00 0.758754047882D-06 0.000000000000D+00  6 2 1 25 2 1 21 2 0.21468874D+00 0.10350893D+00 0.25825500D+06 0.25825500D+06 0.25825500D+06 0.10893993D+01  1  2 12  4  6  5        1 0.648880923526D-06 0.100000000000D+01
-.163005166264D-02 0.000000000000D+00 0.000000000000D+00 0.758754047882D-06 0.000000000000D+00  6 2 1 25 2 1 21 2 0.21468874D+00 0.10350893D+00 0.25853568D+06 0.25853568D+06 0.25853568D+06 0.10893639D+01  1  2  4  4  6  5        1 -.120610275083D-01 0.100000000000D+01
-.288858582362D-02 0.000000000000D+00 0.000000000000D+00 0.758754047882D-06 0.000000000000D+00  6 2 1 25 2 1 21 2 0.21468874D+00 0.10350893D+00 0.25853568D+06 0.25853568D+06 0.25853568D+06 0.10893639D+01  1  2  5  4  6  5        1 -.213731342860D-01 0.100000000000D+01
0.350028107875D-02 0.000000000000D+00 -.000000000000D+00 0.758754047882D-06 0.000000000000D+00  6 2 1 25 2 1 21 2 0.21468874D+00 0.10350893D+00 0.25853568D+06 0.25853568D+06 0.25853568D+06 0.10893639D+01  1  2  6  4  6  5        1 0.258991707719D-01 0.100000000000D+01
  </mgrwgt>
  </event>
  <event>
  6     66 0.18337608E-05 0.59599947E+02 0.75467711E-02 0.93743304E-01
        2 -1    0    0  501    0 0.00000000E+00 0.00000000E+00 0.17567037E+04 0.17567037E+04 0.32000000E+00 0.0000E+00 0.9000E+01
        1 -1    0    0  502    0 0.00000000E+00 0.00000000E+00 -.52984507E+03 0.52984517E+03 0.32000000E+00 0.0000E+00 0.9000E+01
       25  1    1    2    0    0 0.20769231E+02 -.45496691E+03 0.55624472E+02 0.47554740E+03 0.12500000E+03 0.0000E+00 0.9000E+01
        2  1    1    2  503    0 0.38766772E+02 0.45421783E+03 0.99940406E+03 0.10984650E+04 0.32000000E+00 0.0000E+00 0.9000E+01
        1  1    1    2  502    0 0.58194411E+01 -.62442378E+02 -.26193946E+03 0.26934235E+03 0.32000000E+00 0.0000E+00 0.9000E+01
       21  1    1    2  501  503 -.65355444E+02 0.63191456E+02 0.43376952E+03 0.44319414E+03 0.75000000E+00 0.0000E+00 0.9000E+01
#aMCatNLO 2  0  0  4  5 0.10283509D+03 0.00000000D+00  -5  6  0 0.00000000D+00 0.00000000D+00 0.00000000D+00 0.00000000D+00 0.00000000D+00
  <mgrwgt>
 0.1314064982D-01    1    2    0
 0.964769877121295D+03 0.000000000000000D+00 0.000000000000000D+00 0.964769877121295D+03
 0.964769877121295D+03 -.000000000000000D+00 -.000000000000000D+00 -.964769877121295D+03
 0.535299634398431D+03 0.210169926768250D+02 -.459809532974898D+03 -.243010654069575D+03
 0.901528187115752D+03 -.270700762972861D+02 0.526777299809376D+03 0.731112822715493D+03
 0.492711932728407D+03 0.605308362046115D+01 -.669677668344780D+02 -.488102168645918D+03
 0.000000000000000D+00 0.000000000000000D+00 0.000000000000000D+00 0.000000000000000D+00
 0.964769877121295D+03 0.000000000000000D+00 0.000000000000000D+00 0.964769877121295D+03
 0.964769877121295D+03 -.000000000000000D+00 -.000000000000000D+00 -.964769877121295D+03
 0.528018075057569D+03 0.207654882992631D+02 -.454915317109109D+03 -.236217984799447D+03
 0.666070789502536D+03 0.387938134483342D+02 0.454130533892413D+03 0.485706490437650D+03
 0.485917145013988D+03 0.582161047290350D+01 -.624633539798671D+02 -.481850505945187D+03
 0.249533744668497D+03 -.653809122205008D+02 0.632481371965631D+02 0.232362000306984D+03
0.200545869485D-02 0.000000000000D+00 0.000000000000D+00 0.686152253953D-05 0.662359160236D-08  6 2 1 25 2 1 21 2 0.27026211D+00 0.81514636D-01 0.29252882D+06 0.29252882D+06 0.29252882D+06 0.10853631D+01  1  2  1  3  6  4        2 0.131406498193D-01 0.100000000000D+01
  </mgrwgt>
  </event>
  <event>
  6     66 0.18337608E-05 0.21520812E+03 0.75467711E-02 0.90158827E-01
        2 -1    0    0  503    0 0.00000000E+00 0.00000000E+00 0.13866717E+04 0.13866717E+04 0.32000000E+00 0.0000E+00 0.9000E+01
        1 -1    0    0  502    0 0.00000000E+00 0.00000000E+00 -.16791606E+04 0.16791607E+04 0.32000000E+00 0.0000E+00 0.9000E+01
       25  1    1    2    0    0 0.69439768E+02 -.72542978E+03 -.65528706E+03 0.98797590E+03 0.12500000E+03 0.0000E+00 0.9000E+01
        2  1    1    2  501    0 -.10309343E+03 0.51510807E+03 0.23705331E+03 0.57633233E+03 0.32000000E+00 0.0000E+00 0.9000E+01
        1  1    1    2  502    0 -.19595725E+02 -.93922292E+01 -.67200630E+03 0.67235763E+03 0.32000000E+00 0.0000E+00 0.9000E+01
       21  1    1    2  503  501 0.53249384E+02 0.21971394E+03 0.79775110E+03 0.82916650E+03 0.75000000E+00 0.0000E+00 0.9000E+01
#aMCatNLO 2  0  0  1  2 0.22607457D+03 0.00000000D+00  -5  6  0 0.00000000D+00 0.00000000D+00 0.00000000D+00 0.00000000D+00 0.00000000D+00
  <mgrwgt>
 0.8480815217D-02    1    2    0
 0.969915082105674D+03 0.000000000000000D+00 0.000000000000000D+00 0.969915082105674D+03
 0.969915082105674D+03 0.000000000000000D+00 0.000000000000000D+00 -.969915082105674D+03
 0.690581571010366D+03 0.893593888110516D+02 -.643224657544690D+03 -.198884000806945D+03
 0.853248696759335D+03 -.805806960015927D+02 0.607977564240382D+03 0.593214439586339D+03
 0.395999896441647D+03 -.877869280945893D+01 0.352470933043085D+02 -.394330438779394D+03
 0.000000000000000D+00 0.000000000000000D+00 0.000000000000000D+00 0.000000000000000D+00
 0.236222299170113D+04 0.000000000000000D+00 0.000000000000000D+00 0.236222299170113D+04
 0.985700377217033D+03 0.000000000000000D+00 0.000000000000000D+00 -.985700377217033D+03
 0.765657195126593D+03 0.694395307912570D+02 -.725416601847266D+03 -.198884000806945D+03
 0.792373424488853D+03 -.103091124766276D+03 0.515096585600101D+03 0.593214439586339D+03
 0.394928872132420D+03 -.195977900208050D+02 -.939391942356587D+01 -.394330438779394D+03
 0.139496387717030D+04 0.532493839958244D+02 0.219713935670731D+03 0.137652261448410D+04
0.710710254739D-02 0.000000000000D+00 0.000000000000D+00 0.443101380483D-05 0.188861592656D-08  6 2 1 25 2 1 21 2 0.21333409D+00 0.25833238D+00 0.57190994D+06 0.57190994D+06 0.57190994D+06 0.10644103D+01  1  2  1  1  6  1        2 0.848081521686D-02 0.100000000000D+01
  </mgrwgt>
  </event>
  <event>
  5     66 0.18337608E-05 0.10272480E+03 0.75467711E-02 0.93557812E-01
        2 -1    0    0  501    0 0.00000000E+00 0.00000000E+00 0.19581699E+04 0.19581699E+04 0.32000000E+00 0.0000E+00 0.9000E+01
        1 -1    0    0  502    0 0.00000000E+00 0.00000000E+00 -.96660628E+03 0.96660633E+03 0.32000000E+00 0.0000E+00 0.9000E+01
       25  1    1    2    0    0 0.11114673E+03 -.43856729E+03 -.68106295E+02 0.47429772E+03 0.12500000E+03 0.0000E+00 0.9000E+01
        2  1    1    2  501    0 -.20119594E+03 0.48799191E+03 0.17112722E+04 0.17908291E+04 0.32000000E+00 0.0000E+00 0.9000E+01
        1  1    1    2  502    0 0.90049208E+02 -.49424624E+02 -.65160236E+03 0.65964945E+03 0.32000000E+00 0.0000E+00 0.9000E+01
#aMCatNLO 1  0  0  1  5 0.16705044D+03 0.00000000D+00  -5  6  0 0.00000000D+00 0.00000000D+00 0.00000000D+00 0.00000000D+00 0.00000000D+00
  <mgrwgt>
 0.1909220151D-01    7    2    0
 0.137578319699030D+04 0.000000000000000D+00 0.000000000000000D+00 0.137578319699030D+04
 0.137578319699030D+04 0.000000000000000D+00 0.000000000000000D+00 -.137578319699030D+04
 0.528679685056754D+03 0.111142449954710D+03 -.438563443652542D+03 -.243283108952095D+03
 0.128687474301290D+04 -.201194939064582D+03 0.487989485891366D+03 0.117364111310008D+04
 0.936011965910956D+03 0.900524891098717D+02 -.494260422388235D+02 -.930358004147981D+03
 0.000000000000000D+00 -.000000000000000D+00 -.000000000000000D+00 0.000000000000000D+00
 0.193419103043655D+04 0.000000000000000D+00 0.000000000000000D+00 0.193419103043655D+04
 0.144949103134581D+04 0.000000000000000D+00 0.000000000000000D+00 -.144949103134581D+04
 0.482717118463066D+03 0.132609465529549D+03 -.374991833254880D+03 -.243283108952095D+03
 0.135129071391619D+04 -.145199568349740D+03 0.653812065129108D+03 0.117364111310008D+04
 0.941886516378989D+03 0.129911104271586D+03 0.686097576243280D+02 -.930358004147981D+03
 0.607787713024113D+03 -.117321001451396D+03 -.347429989498556D+03 0.484699999090733D+03
0.570012037112D-02 0.000000000000D+00 0.000000000000D+00 0.226366750725D-04 0.000000000000D+00  6 2 1 25 2 1 21 0 0.30125691D+00 0.14870866D+00 0.30246744D+06 0.30246744D+06 0.30246744D+06 0.10842888D+01  1  2  2  1  6  1        2 0.968205603958D-02 0.100000000000D+01
0.132099026151D-02 0.000000000000D+00 -.218899631013D-04 0.226366750725D-04 0.000000000000D+00  6 2 1 25 2 1 21 2 0.30125691D+00 0.14870866D+00 0.30246744D+06 0.30246744D+06 0.30246744D+06 0.10842888D+01  1  2  3  1  6  1        2 0.263798975083D-02 0.100000000000D+01
-.375396428349D-02 0.000000000000D+00 0.000000000000D+00 0.226366750725D-04 0.000000000000D+00  6 2 1 25 2 1 21 2 0.30125691D+00 0.14870866D+00 0.30246744D+06 0.30246744D+06 0.30246744D+06 0.10842888D+01  1  2 15  1  6  1        2 -.749658766863D-02 0.100000000000D+01
-.137246941659D-02 0.000000000000D+00 0.000000000000D+00 0.226366750725D-04 0.000000000000D+00  6 2 1 25 2 1 21 2 0.30125691D+00 0.14870866D+00 0.30246744D+06 0.30246744D+06 0.30246744D+06 0.10842888D+01  1  2  4  1  6  1        2 -.274079254010D-02 0.100000000000D+01
-.117574487098D-01 0.000000000000D+00 -.356398192590D-02 0.226366750725D-04 0.000000000000D+00  6 2 1 25 2 1 21 2 0.42969805D+00 0.14870866D+00 0.30246744D+06 0.30246744D+06 0.30246744D+06 0.10842888D+01  1  2  5  1  6  1        2 -.781705265594D-02 0.100000000000D+01
0.124436673306D-01 0.000000000000D+00 0.335048778342D-02 0.226366750725D-04 0.000000000000D+00  6 2 1 25 2 1 21 2 0.30125691D+00 0.14870866D+00 0.30246744D+06 0.30246744D+06 0.30246744D+06 0.10842888D+01  1  2  6  1  6  1        2 0.248497417713D-01 0.100000000000D+01
-.410319416865D-03 0.000000000000D+00 -.155581708931D-03 0.226366750725D-04 0.000000000000D+00  6 21 1 25 2 1 -2 2 0.42969805D+00 0.14870866D+00 0.30246744D+06 0.30246744D+06 0.30246744D+06 0.10842888D+01  1  2  5  5  6  1        2 -.231531860249D-04 0.100000000000D+01
  </mgrwgt>
  </event>
  <event>
  6     66 0.18337608E-05 0.68583900E+02 0.75467711E-02 0.94816799E-01
        2 -1    0    0  501    0 0.00000000E+00 0.00000000E+00 0.16974990E+04 0.16974990E+04 0.32000000E+00 0.0000E+00 0.9000E+01
        1 -1    0    0  503    0 0.00000000E+00 0.00000000E+00 -.58128544E+03 0.58128553E+03 0.32000000E+00 0.0000E+00 0.9000E+01
       25  1    1    2    0    0 -.45532484E+03 -.70327102E+02 0.55738919E+03 0.73387623E+03 0.12500000E+03 0.0000E+00 0.9000E+01
        2  1    1    2  501    0 -.15923738E+02 -.98910758E+00 0.92092457E+03 0.92106281E+03 0.32000000E+00 0.0000E+00 0.9000E+01
        1  1    1    2  502    0 0.41048396E+03 0.21126754E+02 -.23268575E+03 0.47232000E+03 0.32000000E+00 0.0000E+00 0.9000E+01
       21  1    1    2  503  502 0.60764617E+02 0.50189456E+02 -.12941445E+03 0.15152552E+03 0.75000000E+00 0.0000E+00 0.9000E+01
#aMCatNLO 2  0  0  2  4 0.36444347D+03 0.00000000D+00  -5  6  0 0.00000000D+00 0.00000000D+00 0.00000000D+00 0.00000000D+00 0.00000000D+00
  <mgrwgt>
 0.5328098073D-01    1    2    0
 0.861311588124423D+03 0.000000000000000D+00 0.000000000000000D+00 0.861311588124423D+03
 0.861311588124423D+03 0.000000000000000D+00 0.000000000000000D+00 -.861311588124423D+03
 0.485206519875848D+03 -.437987283706994D+03 -.559496840348183D+02 0.157598030119048D+03
 0.470773971765057D+03 0.680050413788546D+00 0.127216517303756D+02 0.470601561408516D+03
 0.766642684607940D+03 0.437307233293206D+03 0.432280323044427D+02 -.628199591527563D+03
 0.000000000000000D+00 0.000000000000000D+00 0.000000000000000D+00 -.000000000000000D+00
 0.867864313571985D+03 0.000000000000000D+00 0.000000000000000D+00 0.867864313571985D+03
 0.113696398031169D+04 0.000000000000000D+00 0.000000000000000D+00 -.113696398031169D+04
 0.502793952631528D+03 -.455403770429699D+03 -.703350949657790D+02 0.157598030119048D+03
 0.470871778005574D+03 -.159192945812101D+02 -.988828617336965D+00 0.470601561408516D+03
 0.750759369946588D+03 0.410558447769769D+03 0.211344678683306D+02 -.628199591527563D+03
 0.280403193299989D+03 0.607646172411403D+02 0.501894557147853D+02 -.269099666739709D+03
0.843269808725D-02 0.000000000000D+00 0.000000000000D+00 0.321861632693D-04 0.728089827883D-07  6 2 1 25 2 1 21 2 0.26115355D+00 0.89428488D-01 0.24172974D+06 0.24172974D+06 0.24172974D+06 0.10915599D+01  1  2  1  2  6  2        1 0.532809807324D-01 0.100000000000D+01
  </mgrwgt>
  </event>
  <event>
  5     66 0.18337608E-05 0.11742791E+02 0.75467711E-02 0.91864752E-01
        2 -1    0    0  501    0 0.00000000E+00 0.00000000E+00 0.21525102E+04 0.21525103E+04 0.32000000E+00 0.0000E+00 0.9000E+01
        1 -1    0    0  502    0 0.00000000E+00 0.00000000E+00 -.16067250E+04 0.16067250E+04 0.32000000E+00 0.0000E+00 0.9000E+01
       25  1    1    2    0    0 0.16183465E+02 -.61887059E+03 -.25007746E+03 0.67928377E+03 0.12500000E+03 0.0000E+00 0.9000E+01
        2  1    1    2  501    0 -.89313730E+01 0.60963556E+03 0.18899190E+04 0.19858321E+04 0.32000000E+00 0.0000E+00 0.9000E+01
        1  1    1    2  502    0 -.72520917E+01 0.92350316E+01 -.10940563E+04 0.10941194E+04 0.32000000E+00 0.0000E+00 0.9000E+01
#aMCatNLO 1  0  0  2  2 0.17505520D+03 0.00000000D+00  -5  6  0 0.00000000D+00 0.00000000D+00 0.00000000D+00 0.00000000D+00 0.00000000D+00
  <mgrwgt>
 0.2936794815D-01    7    2    0
 0.185970215457578D+04 0.000000000000000D+00 0.000000000000000D+00 0.185970215457578D+04
 0.185970215457578D+04 0.000000000000000D+00 0.000000000000000D+00 -.185970215457578D+04
 0.723226278490167D+03 0.161837503338133D+02 -.618866879459063D+03 -.352382067694244D+03
 0.172975969723140D+04 -.893131110120297D+01 0.609631336152954D+03 0.161874595777980D+04
 0.126641833343000D+04 -.725243923261031D+01 0.923554330610932D+01 -.126636389008556D+04
 0.000000000000000D+00 0.000000000000000D+00 0.000000000000000D+00 -.000000000000000D+00
 0.187310370327529D+04 0.000000000000000D+00 0.000000000000000D+00 0.187310370327529D+04
 0.187610827522841D+04 0.000000000000000D+00 0.000000000000000D+00 -.187610827522841D+04
 0.725051634532685D+03 0.108904293863889D+02 -.621114441672247D+03 -.352382067694244D+03
 0.172798734402644D+04 -.215690546446246D+02 0.604265306937981D+03 0.161874595777980D+04
 0.126648261786569D+04 -.165099564140057D+02 0.530476978765690D+01 -.126636389008556D+04
 0.296903820788846D+02 0.271885816722414D+02 0.115443649466086D+02 -.300457195312906D+01
0.121901817645D-01 0.000000000000D+00 0.000000000000D+00 0.340304862837D-03 0.000000000000D+00  6 2 1 25 2 1 21 0 0.33115543D+00 0.24718847D+00 0.39250945D+06 0.39250945D+06 0.39250945D+06 0.10760200D+01  1  2  2  2  6  2        1 0.558919591844D-02 0.100000000000D+01
0.146364260912D-01 0.000000000000D+00 -.468135077242D-04 0.340304862837D-03 0.000000000000D+00  6 2 1 25 2 1 21 2 0.33115543D+00 0.24718847D+00 0.39250945D+06 0.39250945D+06 0.39250945D+06 0.10760200D+01  1  2  3  2  6  2        1 0.776988971431D-02 0.100000000000D+01
-.802740744291D-02 0.000000000000D+00 0.000000000000D+00 0.340304862837D-03 0.000000000000D+00  6 2 1 25 2 1 21 2 0.33115543D+00 0.24718847D+00 0.39250945D+06 0.39250945D+06 0.39250945D+06 0.10760200D+01  1  2 15  2  6  2        1 -.426142762822D-02 0.100000000000D+01
-.778934931938D-04 0.000000000000D+00 0.000000000000D+00 0.340304862837D-03 0.000000000000D+00  6 2 1 25 2 1 21 2 0.33115543D+00 0.24718847D+00 0.39250945D+06 0.39250945D+06 0.39250945D+06 0.10760200D+01  1  2  4  2  6  2        1 -.413505214871D-04 0.100000000000D+01
-.116927292203D+01 0.000000000000D+00 -.169630419282D+00 0.340304862837D-03 0.000000000000D+00  6 2 1 25 2 1 21 2 0.33115543D+00 0.25048018D+00 0.39250945D+06 0.39250945D+06 0.39250945D+06 0.10760200D+01  1  2  5  2  6  2        1 -.600561562162D+00 0.100000000000D+01
0.117142925743D+01 0.000000000000D+00 0.169615577762D+00 0.340304862837D-03 0.000000000000D+00  6 2 1 25 2 1 21 2 0.33115543D+00 0.24718847D+00 0.39250945D+06 0.39250945D+06 0.39250945D+06 0.10760200D+01  1  2  6  2  6  2        1 0.621864660241D+00 0.100000000000D+01
-.283259388007D-02 0.000000000000D+00 -.412522450653D-03 0.340304862837D-03 0.000000000000D+00  6 2 21 25 2 1 -1 2 0.33115543D+00 0.25048018D+00 0.39250945D+06 0.39250945D+06 0.39250945D+06 0.10760200D+01  1  2  5  6  6  2        1 -.991457414640D-03 0.100000000000D+01
  </mgrwgt>
  </event>
  <event>
  5     66 0.18337608E-05 0.47778891E+02 0.75467711E-02 0.91870823E-01
        2 -1    0    0  501    0 0.00000000E+00 0.00000000E+00 0.19364496E+04 0.19364496E+04 0.32000000E+00 0.0000E+00 0.9000E+01
        1 -1    0    0  502    0 0.00000000E+00 0.00000000E+00 -.21024364E+04 0.21024364E+04 0.32000000E+00 0.0000E+00 0.9000E+01
       25  1    1    2    0    0 -.33493685E+03 -.48002717E+03 -.46387007E+02 0.60032120E+03 0.12500000E+03 0.0000E+00 0.9000E+01
        2  1    1    2  501    0 0.37088498E+03 0.44855856E+03 0.16081080E+04 0.17101965E+04 0.32000000E+00 0.0000E+00 0.9000E+01
        1  1    1    2  502    0 -.35948125E+02 0.31468613E+02 -.17277079E+04 0.17283684E+04 0.32000000E+00 0.0000E+00 0.9000E+01
#aMCatNLO 1  0  0  2  4 0.46745774D+02 0.00000000D+00  -5  6  0 0.00000000D+00 0.00000000D+00 0.00000000D+00 0.00000000D+00 0.00000000D+00
  <mgrwgt>
 0.3870692175D-01    4    2    0
 0.201773689374268D+04 0.000000000000000D+00 0.000000000000000D+00 0.201773689374268D+04
 0.201773689374268D+04 0.000000000000000D+00 0.000000000000000D+00 -.201773689374268D+04
 0.598909504937848D+03 -.334928640107845D+03 -.480021854278521D+03 -.216661153744272D+02
 0.177775810395692D+04 0.370878923610084D+03 0.448551239698983D+03 0.167978405920846D+04
 0.165880617859058D+04 -.359502835022391D+02 0.314706145795377D+02 -.165811794383403D+04
 0.000000000000000D+00 -.000000000000000D+00 -.000000000000000D+00 0.000000000000000D+00
 0.205877934095538D+04 0.000000000000000D+00 0.000000000000000D+00 0.205877934095538D+04
 0.203122671890440D+04 0.000000000000000D+00 0.000000000000000D+00 -.203122671890440D+04
 0.593002243417849D+03 -.328745376328035D+03 -.476952531900317D+03 -.216661153744272D+02
 0.178403573671042D+04 0.389356391322380D+03 0.457723305967136D+03 0.167978405920846D+04
 0.165870654311101D+04 -.187400695082455D+02 0.400136263006166D+02 -.165811794383403D+04
 0.542615366205001D+02 -.418709454860998D+02 -.207844003674356D+02 0.275526220509785D+02
0.151051781993D+00 0.000000000000D+00 0.000000000000D+00 0.348206915410D-03 0.000000000000D+00  6 2 1 25 2 1 21 0 0.29791532D+00 0.32345176D+00 0.37719139D+06 0.37719139D+06 0.37719139D+06 0.10772706D+01  1  2  2  2  6  2        1 0.427108258174D-01 0.100000000000D+01
0.886540312358D-01 0.000000000000D+00 -.580078615701D-03 0.348206915410D-03 0.000000000000D+00  6 2 1 25 2 1 21 2 0.29791532D+00 0.32345176D+00 0.37719139D+06 0.37719139D+06 0.37719139D+06 0.10772706D+01  1  2  3  2  6  2        1 0.290911051966D-01 0.100000000000D+01
-.991576511427D-01 0.000000000000D+00 0.000000000000D+00 0.348206915410D-03 0.000000000000D+00  6 2 1 25 2 1 21 2 0.29791532D+00 0.32345176D+00 0.37719139D+06 0.37719139D+06 0.37719139D+06 0.10772706D+01  1  2 15  2  6  2        1 -.325377833385D-01 0.100000000000D+01
-.169812471803D-02 0.000000000000D+00 0.000000000000D+00 0.348206915410D-03 0.000000000000D+00  6 2 1 25 2 1 21 2 0.29791532D+00 0.32345176D+00 0.37719139D+06 0.37719139D+06 0.37719139D+06 0.10772706D+01  1  2  4  2  6  2        1 -.557225927807D-03 0.100000000000D+01
  </mgrwgt>
  </event>
  <event>
  6     66 0.18337608E-05 0.20773776E+02 0.75467711E-02 0.93558662E-01
        2 -1    0    0  501    0 0.00000000E+00 0.00000000E+00 0.19462503E+03 0.19462529E+03 0.32000000E+00 0.0000E+00 0.9000E+01
        1 -1    0    0  502    0 -.00000000E+00 -.00000000E+00 -.22703871E+04 0.22703871E+04 0.32000000E+00 0.0000E+00 0.9000E+01
       25  1    1    2    0    0 0.49137394E+03 0.22935053E+03 -.10164607E+04 0.11588215E+04 0.12500000E+03 0.0000E+00 0.9000E+01
        2  1    1    2  503    0 -.27135181E+02 -.72743751E+01 0.63059431E+02 0.69034983E+02 0.32000000E+00 0.0000E+00 0.9000E+01
        1  1    1    2  502    0 -.44832565E+03 -.21423433E+03 -.10360757E+04 0.11490628E+04 0.32000000E+00 0.0000E+00 0.9000E+01
       21  1    1    2  501  503 -.15913106E+02 -.78418225E+01 -.86285087E+02 0.88093131E+02 0.75000000E+00 0.0000E+00 0.9000E+01
#aMCatNLO 2  0  0  4  2 0.22244512D+02 0.00000000D+00  -5  6  0 0.00000000D+00 0.00000000D+00 0.00000000D+00 0.00000000D+00 0.00000000D+00
  <mgrwgt>
 0.3169763576D-01    3    2    0
 0.664736420923674D+03 0.000000000000000D+00 0.000000000000000D+00 0.664736420923674D+03
 0.664736420923674D+03 -.000000000000000D+00 -.000000000000000D+00 -.664736420923674D+03
 0.569207184316953D+03 0.495964447003413D+03 0.231008495279094D+03 -.950061108325214D+02
 0.246114017644203D+03 -.510963037711459D+02 -.179422194511467D+02 0.240081973881974D+03
 0.514151639886191D+03 -.444868143232267D+03 -.213066275827947D+03 -.145075863049453D+03
 0.000000000000000D+00 0.000000000000000D+00 0.000000000000000D+00 -.000000000000000D+00
 0.664736420923674D+03 0.000000000000000D+00 0.000000000000000D+00 0.664736420923674D+03
 0.664736420923674D+03 -.000000000000000D+00 -.000000000000000D+00 -.664736420923674D+03
 0.561813890021969D+03 0.491670388170058D+03 0.229500657329224D+03 -.748299719616046D+02
 0.225764103024590D+03 -.269689329561828D+02 -.721356135387692D+01 0.224031407178316D+03
 0.513265343333175D+03 -.448768856554440D+03 -.214435992407759D+03 -.126747904179289D+03
 0.286295054676140D+02 -.159325986594353D+02 -.785110356758861D+01 -.224535310374226D+02
-.128846040969D-05 0.000000000000D+00 0.000000000000D+00 0.272909274312D-06 0.000000000000D+00  6 2 1 25 2 1 21 2 0.29942334D-01 0.34929034D+00 0.30242107D+06 0.30242107D+06 0.30242107D+06 0.10842937D+01  1  2 13  3  6  4        2 -.774675066891D-05 0.100000000000D+01
-.212499409023D-02 0.000000000000D+00 0.000000000000D+00 0.272909274312D-06 0.000000000000D+00  6 2 1 25 2 1 21 2 0.29942334D-01 0.34929034D+00 0.30726892D+06 0.30726892D+06 0.30726892D+06 0.10837835D+01  1  2  8  3  6  4        2 -.127538945076D-01 0.100000000000D+01
0.739458654792D-02 0.000000000000D+00 0.000000000000D+00 0.272909274312D-06 0.370430828895D-07  6 2 1 25 2 1 21 2 0.29942334D-01 0.34929034D+00 0.30242107D+06 0.30242107D+06 0.30242107D+06 0.10842937D+01  1  2  1  3  6  4        2 0.444592770221D-01 0.100000000000D+01
  </mgrwgt>
  </event>
  <event>
  5     66 0.18337608E-05 0.39449374E+02 0.75467711E-02 0.94476960E-01
        2 -1    0    0  501    0 0.00000000E+00 0.00000000E+00 0.75754891E+03 0.75754898E+03 0.32000000E+00 0.0000E+00 0.9000E+01
        1 -1    0    0  502    0 0.00000000E+00 0.00000000E+00 -.59822730E+03 0.59822738E+03 0.32000000E+00 0.0000E+00 0.9000E+01
       25  1    1    2    0    0 0.48778776E+03 -.77377684E+02 0.28003917E+03 0.58135285E+03 0.12500000E+03 0.0000E+00 0.9000E+01
        2  1    1    2  501    0 -.25793999E+02 0.29911163E+02 0.20396720E+03 0.20775642E+03 0.32000000E+00 0.0000E+00 0.9000E+01
        1  1    1    2  502    0 -.46199376E+03 0.47466521E+02 -.32468475E+03 0.56666709E+03 0.32000000E+00 0.0000E+00 0.9000E+01
#aMCatNLO 1  0  0  4  1 0.11311396D+02 0.00000000D+00  -5  6  0 0.00000000D+00 0.00000000D+00 0.00000000D+00 0.00000000D+00 0.00000000D+00
  <mgrwgt>
 0.4893534201D-01    8    2    0
 0.673191310727344D+03 0.000000000000000D+00 0.000000000000000D+00 0.673191310727344D+03
 0.673191310727344D+03 -.000000000000000D+00 -.000000000000000D+00 -.673191310727344D+03
 0.552419345192856D+03 0.487872945984927D+03 -.773621759595609D+02 0.213394506138499D+03
 0.184846728819063D+03 -.257629373253883D+02 0.298751430581485D+02 0.180588094964013D+03
 0.609116547442770D+03 -.462110008659539D+03 0.474870329014124D+02 -.393982601102512D+03
 0.000000000000000D+00 -.000000000000000D+00 0.000000000000000D+00 0.000000000000000D+00
 0.673191310727344D+03 0.000000000000000D+00 0.000000000000000D+00 0.673191310727344D+03
 0.673191310727344D+03 -.000000000000000D+00 -.000000000000000D+00 -.673191310727344D+03
 0.552599492747777D+03 0.487764876353760D+03 -.772368565656357D+02 0.214152031903880D+03
 0.139630371656818D+03 -.116603907803387D+02 0.146007677535503D+02 0.138374468587517D+03
 0.608678130351530D+03 -.462229107644232D+03 0.476251421224561D+02 -.393147763890965D+03
 0.454746266985640D+02 -.138753779291890D+02 0.150109466896293D+02 0.406212633995674D+02
0.140341778538D-03 0.000000000000D+00 0.000000000000D+00 0.132664874041D-05 0.000000000000D+00  6 2 1 25 2 1 21 0 0.11654600D+00 0.92034980D-01 0.25681169D+06 0.25681169D+06 0.25681169D+06 0.10895819D+01  1  2  2  3  6  4        2 0.256103093351D-02 0.100000000000D+01
0.403413329096D-04 0.000000000000D+00 -.538949382423D-06 0.132664874041D-05 0.000000000000D+00  6 2 1 25 2 1 21 2 0.11654600D+00 0.92034980D-01 0.25681169D+06 0.25681169D+06 0.25681169D+06 0.10895819D+01  1  2  3  3  6  4        2 0.873972677188D-03 0.100000000000D+01
-.827919717024D-04 0.000000000000D+00 0.000000000000D+00 0.132664874041D-05 0.000000000000D+00  6 2 1 25 2 1 21 2 0.11654600D+00 0.92034980D-01 0.25681169D+06 0.25681169D+06 0.25681169D+06 0.10895819D+01  1  2 15  3  6  4        2 -.179364230033D-02 0.100000000000D+01
0.156256605195D-02 0.000000000000D+00 0.000000000000D+00 0.132664874041D-05 0.000000000000D+00  6 2 1 25 2 1 21 2 0.11654600D+00 0.92034980D-01 0.25665346D+06 0.25665346D+06 0.25665346D+06 0.10896020D+01  1  2 12  3  6  4        2 0.338540713891D-01 0.100000000000D+01
0.266824393522D-06 0.000000000000D+00 0.000000000000D+00 0.132664874041D-05 0.000000000000D+00  6 2 1 25 2 1 21 2 0.11654600D+00 0.92034980D-01 0.25665346D+06 0.25665346D+06 0.25665346D+06 0.10896020D+01  1  2 12  3  6  4        2 0.578093454378D-05 0.100000000000D+01
-.498078478320D-03 0.000000000000D+00 0.000000000000D+00 0.132664874041D-05 0.000000000000D+00  6 2 1 25 2 1 21 2 0.11654600D+00 0.92034980D-01 0.25681169D+06 0.25681169D+06 0.25681169D+06 0.10895819D+01  1  2  4  3  6  4        2 -.107905948998D-01 0.100000000000D+01
-.233638865703D-02 0.000000000000D+00 0.000000000000D+00 0.132664874041D-05 0.000000000000D+00  6 2 1 25 2 1 21 2 0.11654600D+00 0.92034980D-01 0.25681169D+06 0.25681169D+06 0.25681169D+06 0.10895819D+01  1  2  5  3  6  4        2 -.506165687216D-01 0.100000000000D+01
0.345456735041D-02 0.000000000000D+00 -.000000000000D+00 0.132664874041D-05 0.000000000000D+00  6 2 1 25 2 1 21 2 0.11654600D+00 0.92034980D-01 0.25681169D+06 0.25681169D+06 0.25681169D+06 0.10895819D+01  1  2  6  3  6  4        2 0.748412919952D-01 0.100000000000D+01
  </mgrwgt>
  </event>
  <event>
  5     66 -.18337608E-05 0.28594726E+02 0.75467711E-02 0.85264056E-01
        2 -1    0    0  501    0 0.00000000E+00 0.00000000E+00 0.43560088E+04 0.43560088E+04 0.32000000E+00 0.0000E+00 0.9000E+01
        1 -1    0    0  502    0 0.00000000E+00 0.00000000E+00 -.25294126E+04 0.25294127E+04 0.32000000E+00 0.0000E+00 0.9000E+01
       25  1    1    2    0    0 -.12202197E+04 0.10348917E+03 0.59377782E+03 0.13666906E+04 0.12500000E+03 0.0000E+00 0.9000E+01
        2  1    1    2  501    0 0.12421117E+04 -.85095558E+02 0.32608758E+04 0.34904719E+04 0.32000000E+00 0.0000E+00 0.9000E+01
        1  1    1    2  502    0 -.21892058E+02 -.18393611E+02 -.20280574E+04 0.20282590E+04 0.32000000E+00 0.0000E+00 0.9000E+01
#aMCatNLO 1  0  0  4  2 0.13488028D+03 0.00000000D+00  -5  6  0 0.00000000D+00 0.00000000D+00 0.00000000D+00 0.00000000D+00 0.00000000D+00
  <mgrwgt>
 -.1067731973D-01    6    2    0
 0.331935894951079D+04 0.000000000000000D+00 0.000000000000000D+00 0.331935894951079D+04
 0.331935894951079D+04 -.000000000000000D+00 -.000000000000000D+00 -.331935894951079D+04
 0.125410041945281D+04 -.122019481542402D+04 0.103488344752872D+03 0.239911727484038D+03
 0.272292311619330D+04 0.124208781600455D+04 -.850939195639372D+02 0.242162903411858D+04
 0.266169436337546D+04 -.218930005805298D+02 -.183944251889348D+02 -.266154076160262D+04
 0.000000000000000D+00 0.000000000000000D+00 0.000000000000000D+00 0.000000000000000D+00
 0.331935894951079D+04 0.000000000000000D+00 0.000000000000000D+00 0.331935894951079D+04
 0.331935894951079D+04 -.000000000000000D+00 -.000000000000000D+00 -.331935894951079D+04
 0.125324531799105D+04 -.121877705693445D+04 0.103391215849973D+03 0.242675851789471D+03
 0.195091923967428D+04 0.993979224989686D+03 -.121774304310290D+03 0.167429453765755D+04
 0.265581097953580D+04 -.188862599341805D+02 -.186004133190922D+02 -.265567868779959D+04
 0.778742361820446D+03 0.243684091878946D+03 0.369835017794085D+02 0.738708298352572D+03
0.613212561944D-01 0.000000000000D+00 0.000000000000D+00 0.128548645486D-03 0.000000000000D+00  6 2 1 25 2 1 21 0 0.67015520D+00 0.38914041D+00 0.15681710D+07 0.15681710D+07 0.15681710D+07 0.10350997D+01  1  2  2  3  6  4        2 0.159386849031D-03 0.100000000000D+01
0.717601333454D-01 0.000000000000D+00 -.235489770044D-03 0.128548645486D-03 0.000000000000D+00  6 2 1 25 2 1 21 2 0.67015520D+00 0.38914041D+00 0.15681710D+07 0.15681710D+07 0.15681710D+07 0.10350997D+01  1  2  3  3  6  4        2 0.199843059198D-03 0.100000000000D+01
-.397842072477D-01 0.000000000000D+00 0.000000000000D+00 0.128548645486D-03 0.000000000000D+00  6 2 1 25 2 1 21 2 0.67015520D+00 0.38914041D+00 0.15681710D+07 0.15681710D+07 0.15681710D+07 0.10350997D+01  1  2 15  3  6  4        2 -.110794076230D-03 0.100000000000D+01
-.447568313767D+01 0.000000000000D+00 0.000000000000D+00 0.128548645486D-03 0.000000000000D+00  6 2 1 25 2 1 21 2 0.67015520D+00 0.38914041D+00 0.15681710D+07 0.15681710D+07 0.15681710D+07 0.10350997D+01  1  2  4  3  6  4        2 -.124642216860D-01 0.100000000000D+01
-.170149988902D+01 0.000000000000D+00 0.000000000000D+00 0.128548645486D-03 0.000000000000D+00  6 2 1 25 2 1 21 2 0.67015520D+00 0.38914041D+00 0.15681710D+07 0.15681710D+07 0.15681710D+07 0.10350997D+01  1  2  5  3  6  4        2 -.473846587508D-02 0.100000000000D+01
0.225393605743D+01 0.000000000000D+00 -.000000000000D+00 0.128548645486D-03 0.000000000000D+00  6 2 1 25 2 1 21 2 0.67015520D+00 0.38914041D+00 0.15681710D+07 0.15681710D+07 0.15681710D+07 0.10350997D+01  1  2  6  3  6  4        2 0.627693199490D-02 0.100000000000D+01
  </mgrwgt>
  </event>
  <event>
  5     66 0.18337608E-05 0.41358175E+02 0.75467711E-02 0.92323520E-01
        2 -1    0    0  501    0 0.00000000E+00 0.00000000E+00 0.13389620E+04 0.13389621E+04 0.32000000E+00 0.0000E+00 0.9000E+01
        1 -1    0    0  502    0 0.00000000E+00 0.00000000E+00 -.14775026E+04 0.14775026E+04 0.32000000E+00 0.0000E+00 0.9000E+01
       25  1    1    2    0    0 0.33319936E+03 0.30636957E+03 0.23639008E+03 0.52572749E+03 0.12500000E+03 0.0000E+00 0.9000E+01
        2  1    1    2  501    0 0.23898424E+02 -.33759170E+02 0.91956688E+03 0.92049669E+03 0.32000000E+00 0.0000E+00 0.9000E+01
        1  1    1    2  502    0 -.35709778E+03 -.27261040E+03 -.12944975E+04 0.13702405E+04 0.32000000E+00 0.0000E+00 0.9000E+01
#aMCatNLO 1  0  0  2  2 0.16243441D+03 0.00000000D+00  -5  6  0 0.00000000D+00 0.00000000D+00 0.00000000D+00 0.00000000D+00 0.00000000D+00
  <mgrwgt>
 0.6429673078D-01    7    2    0
 0.140652763816209D+04 0.000000000000000D+00 0.000000000000000D+00 0.140652763816209D+04
 0.140652763816209D+04 0.000000000000000D+00 0.000000000000000D+00 -.140652763816209D+04
 0.538086150631776D+03 0.333238099288129D+03 0.306395234642369D+03 0.262651927221191D+03
 0.966810398667557D+03 0.238962057996566D+02 -.337560363255334D+02 0.965925384453525D+03
 0.130815872702484D+04 -.357134305087785D+03 -.272639198316835D+03 -.122857731167472D+04
 0.000000000000000D+00 -.000000000000000D+00 -.000000000000000D+00 -.000000000000000D+00
 0.149233204709693D+04 0.000000000000000D+00 0.000000000000000D+00 0.149233204709693D+04
 0.166562117086377D+04 0.000000000000000D+00 0.000000000000000D+00 -.166562117086377D+04
 0.585745643763820D+03 0.379146725972173D+03 0.338725086906577D+03 0.262651927221191D+03
 0.971659570130247D+03 0.103082872861011D+03 0.220089349293882D+02 0.965925384453525D+03
 0.126972966773007D+04 -.251827339634312D+03 -.198479745477306D+03 -.122857731167472D+04
 0.330818336336570D+03 -.230402259198872D+03 -.162254276358659D+03 -.173289123766841D+03
0.194332882380D-01 0.000000000000D+00 0.000000000000D+00 0.230428369248D-03 0.000000000000D+00  6 2 1 25 2 1 21 0 0.20599417D+00 0.22730810D+00 0.23054100D+06 0.23054100D+06 0.23054100D+06 0.10931165D+01  1  2  2  2  6  2        1 0.317790743730D-01 0.100000000000D+01
0.937575434179D-02 0.000000000000D+00 -.746289437361D-04 0.230428369248D-03 0.000000000000D+00  6 2 1 25 2 1 21 2 0.20599417D+00 0.22730810D+00 0.23054100D+06 0.23054100D+06 0.23054100D+06 0.10931165D+01  1  2  3  2  6  2        1 0.183203626332D-01 0.100000000000D+01
-.126292419898D-01 0.000000000000D+00 0.000000000000D+00 0.230428369248D-03 0.000000000000D+00  6 2 1 25 2 1 21 2 0.20599417D+00 0.22730810D+00 0.23054100D+06 0.23054100D+06 0.23054100D+06 0.10931165D+01  1  2 15  2  6  2        1 -.246777256103D-01 0.100000000000D+01
-.197078713634D-02 0.000000000000D+00 0.000000000000D+00 0.230428369248D-03 0.000000000000D+00  6 2 1 25 2 1 21 2 0.20599417D+00 0.22730810D+00 0.23054100D+06 0.23054100D+06 0.23054100D+06 0.10931165D+01  1  2  4  2  6  2        1 -.385094720855D-02 0.100000000000D+01
-.484338980372D-01 0.000000000000D+00 -.208459058119D-01 0.230428369248D-03 0.000000000000D+00  6 2 1 25 2 1 21 2 0.20599417D+00 0.27664875D+00 0.23054100D+06 0.23054100D+06 0.23054100D+06 0.10931165D+01  1  2  5  2  6  2        1 -.579087753830D-01 0.100000000000D+01
0.519197592974D-01 0.000000000000D+00 0.204500557859D-01 0.230428369248D-03 0.000000000000D+00  6 2 1 25 2 1 21 2 0.20599417D+00 0.22730810D+00 0.23054100D+06 0.23054100D+06 0.23054100D+06 0.10931165D+01  1  2  6  2  6  2        1 0.101451977460D+00 0.100000000000D+01
-.113427838884D-02 0.000000000000D+00 -.588373986349D-03 0.230428369248D-03 0.000000000000D+00  6 2 21 25 2 1 -1 2 0.20599417D+00 0.27664875D+00 0.23054100D+06 0.23054100D+06 0.23054100D+06 0.10931165D+01  1  2  5  6  6  2        1 -.817235489444D-03 0.100000000000D+01
  </mgrwgt>
  </event>
  <event>
  5     66 0.18337608E-05 0.20709262E+03 0.75467711E-02 0.86180065E-01
        2 -1    0    0  501    0 0.00000000E+00 0.00000000E+00 0.20696965E+04 0.20696965E+04 0.32000000E+00 0.0000E+00 0.9000E+01
        1 -1    0    0  502    0 0.00000000E+00 0.00000000E+00 -.16176747E+04 0.16176748E+04 0.32000000E+00 0.0000E+00 0.9000E+01
       25  1    1    2    0    0 -.54346423E+03 0.89045571E+02 0.34265918E+02 0.56575758E+03 0.12500000E+03 0.0000E+00 0.9000E+01
        2  1    1    2  501    0 0.61208228E+03 0.10633513E+03 0.17066415E+04 0.18161986E+04 0.32000000E+00 0.0000E+00 0.9000E+01
        1  1    1    2  502    0 -.68618042E+02 -.19538070E+03 -.12888857E+04 0.13054151E+04 0.32000000E+00 0.0000E+00 0.9000E+01
#aMCatNLO 1  0  0  1  4 0.27274299D+02 0.00000000D+00  -5  6  0 0.00000000D+00 0.00000000D+00 0.00000000D+00 0.00000000D+00 0.00000000D+00
  <mgrwgt>
 0.1988947187D-02    7    2    0
 0.182978025390145D+04 0.000000000000000D+00 0.000000000000000D+00 0.182978025390145D+04
 0.182978025390145D+04 0.000000000000000D+00 0.000000000000000D+00 -.182978025390145D+04
 0.565810076639637D+03 -.543451003871469D+03 0.890597964253409D+02 -.352902518937008D+02
 0.161917291308941D+04 0.612072150101725D+03 0.106333372929980D+03 0.149525309541684D+04
 0.147457751807385D+04 -.686211462302558D+02 -.195393169355321D+03 -.145996284352314D+04
 0.000000000000000D+00 -.000000000000000D+00 0.000000000000000D+00 0.000000000000000D+00
 0.215489152307609D+04 0.000000000000000D+00 0.000000000000000D+00 0.215489152307609D+04
 0.214889448647992D+04 0.000000000000000D+00 0.000000000000000D+00 -.214889448647992D+04
 0.525145871230985D+03 -.508768377073043D+03 0.790712859963278D+01 -.352902518937008D+02
 0.166375381454854D+04 0.716439812905603D+03 -.137872878242810D+03 0.149525309541684D+04
 0.151887308579993D+04 0.265437688484150D+02 -.418066232353868D+03 -.145996284352314D+04
 0.596013237976554D+03 -.234215204680975D+03 0.548031981997045D+03 0.599703659617764D+01
0.328595111995D-02 0.000000000000D+00 0.000000000000D+00 0.568463970592D-05 0.000000000000D+00  6 2 1 25 2 1 21 0 0.31841485D+00 0.24887304D+00 0.48514084D+06 0.48514084D+06 0.48514084D+06 0.10694376D+01  1  2  2  1  6  1        2 0.161624785912D-02 0.100000000000D+01
0.524749274019D-03 0.000000000000D+00 -.126189175114D-04 0.568463970592D-05 0.000000000000D+00  6 2 1 25 2 1 21 2 0.31841485D+00 0.24887304D+00 0.48514084D+06 0.48514084D+06 0.48514084D+06 0.10694376D+01  1  2  3  1  6  1        2 0.295195426692D-03 0.100000000000D+01
-.217983909455D-02 0.000000000000D+00 0.000000000000D+00 0.568463970592D-05 0.000000000000D+00  6 2 1 25 2 1 21 2 0.31841485D+00 0.24887304D+00 0.48514084D+06 0.48514084D+06 0.48514084D+06 0.10694376D+01  1  2 15  1  6  1        2 -.122625902215D-02 0.100000000000D+01
-.512586695932D-04 0.000000000000D+00 0.000000000000D+00 0.568463970592D-05 0.000000000000D+00  6 2 1 25 2 1 21 2 0.31841485D+00 0.24887304D+00 0.48514084D+06 0.48514084D+06 0.48514084D+06 0.10694376D+01  1  2  4  1  6  1        2 -.288353421174D-04 0.100000000000D+01
-.340555465849D-02 0.000000000000D+00 -.275145505319D-02 0.568463970592D-05 0.000000000000D+00  6 2 1 25 2 1 21 2 0.40326806D+00 0.24887304D+00 0.48514084D+06 0.48514084D+06 0.48514084D+06 0.10694376D+01  1  2  5  1  6  1        2 -.925829324826D-03 0.100000000000D+01
0.401796420494D-02 0.000000000000D+00 0.267641839547D-02 0.568463970592D-05 0.000000000000D+00  6 2 1 25 2 1 21 2 0.31841485D+00 0.24887304D+00 0.48514084D+06 0.48514084D+06 0.48514084D+06 0.10694376D+01  1  2  6  1  6  1        2 0.226028832556D-02 0.100000000000D+01
-.685216580384D-04 0.000000000000D+00 -.892945148238D-04 0.568463970592D-05 0.000000000000D+00  6 21 1 25 2 1 -2 2 0.40326806D+00 0.24887304D+00 0.48514084D+06 0.48514084D+06 0.48514084D+06 0.10694376D+01  1  2  5  5  6  1        2 -.186073505726D-05 0.100000000000D+01
  </mgrwgt>
  </event>
  <event>
  5     66 0.18337608E-05 0.45629335E+02 0.75467711E-02 0.83105331E-01
        2 -1    0    0  501    0 0.00000000E+00 0.00000000E+00 0.36875434E+04 0.36875434E+04 0.32000000E+00 0.0000E+00 0.9000E+01
        1 -1    0    0  502    0 0.00000000E+00 0.00000000E+00 -.18044403E+04 0.18044404E+04 0.32000000E+00 0.0000E+00 0.9000E+01
       25  1    1    2    0    0 0.23379685E+03 -.46158349E+03 0.52188733E+03 0.74546071E+03 0.12500000E+03 0.0000E+00 0.9000E+01
        2  1    1    2  501    0 0.13792118E+02 0.43496152E+02 0.30188225E+04 0.30191674E+04 0.32000000E+00 0.0000E+00 0.9000E+01
        1  1    1    2  502    0 -.24758897E+03 0.41808734E+03 -.16576068E+04 0.17273557E+04 0.32000000E+00 0.0000E+00 0.9000E+01
#aMCatNLO 1  0  0  4  2 0.14622097D+03 0.00000000D+00  -5  6  0 0.00000000D+00 0.00000000D+00 0.00000000D+00 0.00000000D+00 0.00000000D+00
  <mgrwgt>
 0.6665957444D-01    4    2    0
 0.257952557037106D+04 0.000000000000000D+00 0.000000000000000D+00 0.257952557037106D+04
 0.257952557037106D+04 -.000000000000000D+00 -.000000000000000D+00 -.257952557037106D+04
 0.603120673970145D+03 0.233810855709595D+03 -.461605791751496D+03 0.283517414181250D+03
 0.211205479737671D+04 0.137917815092607D+02 0.434950918404513D+02 0.211156184632858D+04
 0.244387566939526D+04 -.247602637218858D+03 0.418110699911040D+03 -.239507926050983D+04
 0.000000000000000D+00 0.000000000000000D+00 0.000000000000000D+00 -.000000000000000D+00
 0.257952557037106D+04 0.000000000000000D+00 0.000000000000000D+00 0.257952557037106D+04
 0.257952557037106D+04 -.000000000000000D+00 -.000000000000000D+00 -.257952557037106D+04
 0.742251007915751D+03 0.235361270870440D+03 -.456716253023921D+03 0.520890482875229D+03
 0.160009251003671D+04 -.107685286755050D+04 0.479604908404110D+02 0.118253276218555D+04
 0.173121490643116D+04 -.242791235422746D+03 0.433284400485012D+03 -.165843965719218D+04
 0.108549271635849D+04 0.108428283210280D+04 -.245286383015079D+02 -.449835878686058D+02
0.205430468148D+01 0.000000000000D+00 0.000000000000D+00 0.254759971890D-02 0.000000000000D+00  6 2 1 25 2 1 21 0 0.56731437D+00 0.27760621D+00 0.28296135D+06 0.28296135D+06 0.28296135D+06 0.10864356D+01  1  2  2  3  6  4        2 0.769735309718D-01 0.100000000000D+01
0.113471542142D+01 0.000000000000D+00 -.788907088773D-02 0.254759971890D-02 0.000000000000D+00  6 2 1 25 2 1 21 2 0.56731437D+00 0.27760621D+00 0.28296135D+06 0.28296135D+06 0.28296135D+06 0.10864356D+01  1  2  3  3  6  4        2 0.501847223726D-01 0.100000000000D+01
-.135671612353D+01 0.000000000000D+00 0.000000000000D+00 0.254759971890D-02 0.000000000000D+00  6 2 1 25 2 1 21 2 0.56731437D+00 0.27760621D+00 0.28296135D+06 0.28296135D+06 0.28296135D+06 0.10864356D+01  1  2 15  3  6  4        2 -.600030815766D-01 0.100000000000D+01
-.112058392962D-01 0.000000000000D+00 0.000000000000D+00 0.254759971890D-02 0.000000000000D+00  6 2 1 25 2 1 21 2 0.56731437D+00 0.27760621D+00 0.28296135D+06 0.28296135D+06 0.28296135D+06 0.10864356D+01  1  2  4  3  6  4        2 -.495597330762D-03 0.100000000000D+01
  </mgrwgt>
  </event>
  <event>
  5     66 0.18337608E-05 0.52051675E+02 0.75467711E-02 0.92490522E-01
        2 -1    0    0  501    0 0.00000000E+00 0.00000000E+00 0.17402219E+04 0.17402219E+04 0.32000000E+00 0.0000E+00 0.9000E+01
        1 -1    0    0  502    0 0.00000000E+00 0.00000000E+00 -.47265584E+03 0.47265594E+03 0.32000000E+00 0.0000E+00 0.9000E+01
       25  1    1    2    0    0 0.81018834E+02 -.55498393E+03 0.56331073E+03 0.80468328E+03 0.12500000E+03 0.0000E+00 0.9000E+01
        2  1    1    2  501    0 -.13046597E+03 0.57122112E+03 0.97226865E+03 0.11351746E+04 0.32000000E+00 0.0000E+00 0.9000E+01
        1  1    1    2  502    0 0.49447134E+02 -.16237187E+02 -.26801332E+03 0.27301998E+03 0.32000000E+00 0.0000E+00 0.9000E+01
#aMCatNLO 1  0  0  2  5 0.43507709D+02 0.00000000D+00  -5  6  0 0.00000000D+00 0.00000000D+00 0.00000000D+00 0.00000000D+00 0.00000000D+00
  <mgrwgt>
 0.1150103240D-01    5    2    0
 0.906932291499856D+03 0.000000000000000D+00 0.000000000000000D+00 0.906932291499856D+03
 0.906932291499856D+03 0.000000000000000D+00 0.000000000000000D+00 -.906932291499856D+03
 0.588022027273229D+03 0.810024688768307D+02 -.554939616327035D+03 0.125002107282956D+03
 0.705395781718304D+03 -.130456237068811D+03 0.571178511190131D+03 0.392835191181300D+03
 0.520446774008178D+03 0.494537681919803D+02 -.162388948630959D+02 -.517837298464256D+03
 0.000000000000000D+00 0.000000000000000D+00 0.000000000000000D+00 -.000000000000000D+00
 0.298559805883650D+04 0.000000000000000D+00 0.000000000000000D+00 0.298559805883650D+04
 0.398726855108019D+04 0.000000000000000D+00 0.000000000000000D+00 -.398726855108019D+04
 0.208502553737279D+04 -.311989323685915D+03 -.205395803914723D+04 0.125002107282956D+03
 0.512451750882059D+03 -.309504336038241D+03 -.111778242628731D+03 0.392835191181300D+03
 0.105293168685161D+04 -.181864533020061D+03 -.898573848453653D+03 -.517837298464256D+03
 0.332245763481023D+04 0.803358192744216D+03 0.306431013022961D+04 -.100167049224369D+04
0.231551252892D-02 0.000000000000D+00 0.000000000000D+00 0.254269994516D-05 0.000000000000D+00  6 2 1 25 2 1 21 0 0.26772645D+00 0.72716293D-01 0.36755162D+06 0.36755162D+06 0.36755162D+06 0.10780864D+01  1  2  2  2  6  2        1 0.152483846118D-01 0.100000000000D+01
0.954859835010D-03 0.000000000000D+00 -.889217779950D-05 0.254269994516D-05 0.000000000000D+00  6 2 1 25 2 1 21 2 0.26772645D+00 0.72716293D-01 0.36755162D+06 0.36755162D+06 0.36755162D+06 0.10780864D+01  1  2  3  2  6  2        1 0.730841875590D-02 0.100000000000D+01
-.144488841876D-02 0.000000000000D+00 0.000000000000D+00 0.254269994516D-05 0.000000000000D+00  6 2 1 25 2 1 21 2 0.26772645D+00 0.72716293D-01 0.36755162D+06 0.36755162D+06 0.36755162D+06 0.10780864D+01  1  2 15  2  6  2        1 -.110590572906D-01 0.100000000000D+01
0.109912736970D-01 0.000000000000D+00 -.326376426603D-02 0.254269994516D-05 0.000000000000D+00  6 2 1 25 2 1 21 2 0.26772645D+00 0.82332319D+00 0.36755162D+06 0.36755162D+06 0.36755162D+06 0.10780864D+01  1  2  5  2  6  2        1 0.326563271292D-05 0.100000000000D+01
0.254038396477D-02 0.000000000000D+00 -.928878629424D-03 0.254269994516D-05 0.000000000000D+00  6 2 21 25 2 1 -1 2 0.26772645D+00 0.82332319D+00 0.36755162D+06 0.36755162D+06 0.36755162D+06 0.10780864D+01  1  2  5  6  6  2        1 0.206881849154D-07 0.100000000000D+01
  </mgrwgt>
  </event>
  <event>
  5     66 0.18337608E-05 0.25333076E+02 0.75467711E-02 0.81452893E-01
        2 -1    0    0  501    0 0.00000000E+00 0.00000000E+00 0.18870857E+04 0.18870857E+04 0.32000000E+00 0.0000E+00 0.9000E+01
        1 -1    0    0  502    0 0.00000000E+00 0.00000000E+00 -.62896441E+03 0.62896449E+03 0.32000000E+00 0.0000E+00 0.9000E+01
       25  1    1    2    0    0 -.66925503E+03 0.44895937E+03 0.45141708E+03 0.93213154E+03 0.12500000E+03 0.0000E+00 0.9000E+01
        2  1    1    2  501    0 0.65730960E+03 -.47129643E+03 0.10577798E+04 0.13315684E+04 0.32000000E+00 0.0000E+00 0.9000E+01
        1  1    1    2  502    0 0.11945426E+02 0.22337059E+02 -.25107555E+03 0.25235030E+03 0.32000000E+00 0.0000E+00 0.9000E+01
#aMCatNLO 1  0  0  2  5 0.43507709D+02 0.00000000D+00  -5  6  0 0.00000000D+00 0.00000000D+00 0.00000000D+00 0.00000000D+00 0.00000000D+00
  <mgrwgt>
 0.3253414405D-02    5    2    0
 0.108945393659788D+04 0.000000000000000D+00 0.000000000000000D+00 0.108945393659788D+04
 0.108945393659788D+04 0.000000000000000D+00 0.000000000000000D+00 -.108945393659788D+04
 0.815679436533425D+03 -.669234311277970D+03 0.448941416046716D+03 -.168814913368547D+02
 0.926799024682968D+03 0.657287510782408D+03 -.471280590533245D+03 0.452575038318954D+03
 0.436429411979375D+03 0.119468004955623D+02 0.223391744865289D+02 -.435693546982099D+03
 0.000000000000000D+00 0.000000000000000D+00 -.000000000000000D+00 -.000000000000000D+00
 0.175556742452783D+04 0.000000000000000D+00 0.000000000000000D+00 0.175556742452783D+04
 0.296863587774831D+04 0.000000000000000D+00 0.000000000000000D+00 -.296863587774831D+04
 0.160543312392578D+04 -.127647079942814D+04 0.965467673646105D+03 -.168814913368547D+02
 0.556862315833218D+03 0.285172097094933D+03 -.154752539637352D+03 0.452575038318954D+03
 0.546542395033293D+03 -.234591240646889D+03 0.232048857998997D+03 -.435693546982099D+03
 0.201536546748385D+04 0.122588994298009D+04 -.104276399200775D+04 -.121306845322048D+04
0.899468018307D-03 0.000000000000D+00 0.000000000000D+00 0.200439180065D-05 0.000000000000D+00  6 2 1 25 2 1 21 0 0.29032089D+00 0.96763764D-01 0.68031338D+06 0.68031338D+06 0.68031338D+06 0.10591849D+01  1  2  2  2  6  2        1 0.315125041896D-02 0.100000000000D+01
0.633648891054D-03 0.000000000000D+00 -.345419402567D-05 0.200439180065D-05 0.000000000000D+00  6 2 1 25 2 1 21 2 0.29032089D+00 0.96763764D-01 0.68031338D+06 0.68031338D+06 0.68031338D+06 0.10591849D+01  1  2  3  2  6  2        1 0.249051643139D-02 0.100000000000D+01
-.631856707876D-03 0.000000000000D+00 0.000000000000D+00 0.200439180065D-05 0.000000000000D+00  6 2 1 25 2 1 21 2 0.29032089D+00 0.96763764D-01 0.68031338D+06 0.68031338D+06 0.68031338D+06 0.10591849D+01  1  2 15  2  6  2        1 -.248347237005D-02 0.100000000000D+01
0.371149861729D-03 0.000000000000D+00 -.532400752982D-03 0.200439180065D-05 0.000000000000D+00  6 2 1 25 2 1 21 2 0.29032089D+00 0.35199203D+00 0.68031338D+06 0.68031338D+06 0.68031338D+06 0.10591849D+01  1  2  5  2  6  2        1 0.886232866806D-04 0.100000000000D+01
0.705168893758D-04 0.000000000000D+00 -.809365022413D-04 0.200439180065D-05 0.000000000000D+00  6 2 21 25 2 1 -1 2 0.29032089D+00 0.35199203D+00 0.68031338D+06 0.68031338D+06 0.68031338D+06 0.10591849D+01  1  2  5  6  6  2        1 0.649663770751D-05 0.100000000000D+01
  </mgrwgt>
  </event>
  <event>
  5     66 0.18337608E-05 0.60498520E+02 0.75467711E-02 0.93185255E-01
        2 -1    0    0  501    0 0.00000000E+00 0.00000000E+00 0.22096082E+04 0.22096082E+04 0.32000000E+00 0.0000E+00 0.9000E+01
        1 -1    0    0  502    0 0.00000000E+00 0.00000000E+00 -.67251210E+03 0.67251217E+03 0.32000000E+00 0.0000E+00 0.9000E+01
       25  1    1    2    0    0 -.60036846E+02 0.55701922E+03 0.26949489E+03 0.63413510E+03 0.12500000E+03 0.0000E+00 0.9000E+01
        2  1    1    2  501    0 -.71742123E+01 -.60076442E+02 0.16288340E+04 0.16299573E+04 0.32000000E+00 0.0000E+00 0.9000E+01
        1  1    1    2  502    0 0.67211059E+02 -.49694278E+03 -.36123272E+03 0.61802801E+03 0.32000000E+00 0.0000E+00 0.9000E+01
#aMCatNLO 1  0  0  4  1 0.15251696D+02 0.00000000D+00  -5  6  0 0.00000000D+00 0.00000000D+00 0.00000000D+00 0.00000000D+00 0.00000000D+00
  <mgrwgt>
 0.1979940842D-01    8    2    0
 0.121901123640663D+04 0.000000000000000D+00 0.000000000000000D+00 0.121901123640663D+04
 0.121901123640663D+04 -.000000000000000D+00 -.000000000000000D+00 -.121901123640663D+04
 0.579781563924351D+03 -.600447425818855D+02 0.557073446745504D+03 -.811508822251790D+02
 0.899862794018377D+03 -.717364665342509D+01 -.600717047994863D+02 0.897826807983998D+03
 0.958378114870530D+03 0.672183892353106D+02 -.497001741946018D+03 -.816675925758819D+03
 0.000000000000000D+00 0.000000000000000D+00 -.000000000000000D+00 0.000000000000000D+00
 0.121901123640663D+04 0.000000000000000D+00 0.000000000000000D+00 0.121901123640663D+04
 0.121901123640663D+04 -.000000000000000D+00 -.000000000000000D+00 -.121901123640663D+04
 0.579752224691505D+03 -.600458956147082D+02 0.557063791314913D+03 -.810065729458505D+02
 0.624111734120219D+03 -.103692067141381D+02 -.274145887270086D+02 0.623423111974200D+03
 0.958183009965832D+03 0.672164834194513D+02 -.497017701138495D+03 -.816437400967710D+03
 0.275975504035703D+03 0.319861890939490D+01 -.326315014494101D+02 0.274020861939360D+03
0.466333595062D-04 0.000000000000D+00 0.000000000000D+00 0.316396258301D-04 0.000000000000D+00  6 2 1 25 2 1 21 0 0.33993973D+00 0.10346341D+00 0.32268048D+06 0.32268048D+06 0.32268048D+06 0.10822179D+01  1  2  2  3  6  4        2 0.102655694457D-03 0.100000000000D+01
0.198141113583D-04 0.000000000000D+00 -.179084379349D-06 0.316396258301D-04 0.000000000000D+00  6 2 1 25 2 1 21 2 0.33993973D+00 0.10346341D+00 0.32268048D+06 0.32268048D+06 0.32268048D+06 0.10822179D+01  1  2  3  3  6  4        2 0.510846428381D-04 0.100000000000D+01
-.312584476390D-04 0.000000000000D+00 0.000000000000D+00 0.316396258301D-04 0.000000000000D+00  6 2 1 25 2 1 21 2 0.33993973D+00 0.10346341D+00 0.32268048D+06 0.32268048D+06 0.32268048D+06 0.10822179D+01  1  2 15  3  6  4        2 -.805903734181D-04 0.100000000000D+01
0.677281305621D-02 0.000000000000D+00 0.000000000000D+00 0.316396258301D-04 0.000000000000D+00  6 2 1 25 2 1 21 2 0.33993973D+00 0.10346341D+00 0.32359328D+06 0.32359328D+06 0.32359328D+06 0.10821277D+01  1  2 12  3  6  4        2 0.174553417307D-01 0.100000000000D+01
0.224260701370D-08 0.000000000000D+00 0.000000000000D+00 0.316396258301D-04 0.000000000000D+00  6 2 1 25 2 1 21 2 0.33993973D+00 0.10346341D+00 0.32359328D+06 0.32359328D+06 0.32359328D+06 0.10821277D+01  1  2 12  3  6  4        2 0.577979511127D-08 0.100000000000D+01
-.296593114525D-02 0.000000000000D+00 0.000000000000D+00 0.316396258301D-04 0.000000000000D+00  6 2 1 25 2 1 21 2 0.33993973D+00 0.10346341D+00 0.32268048D+06 0.32268048D+06 0.32268048D+06 0.10822179D+01  1  2  4  3  6  4        2 -.764674884974D-02 0.100000000000D+01
-.109679168136D-01 0.000000000000D+00 0.000000000000D+00 0.316396258301D-04 0.000000000000D+00  6 2 1 25 2 1 21 2 0.33993973D+00 0.10346341D+00 0.32268048D+06 0.32268048D+06 0.32268048D+06 0.10822179D+01  1  2  5  3  6  4        2 -.282774282918D-01 0.100000000000D+01
0.148146622279D-01 0.000000000000D+00 -.000000000000D+00 0.316396258301D-04 0.000000000000D+00  6 2 1 25 2 1 21 2 0.33993973D+00 0.10346341D+00 0.32268048D+06 0.32268048D+06 0.32268048D+06 0.10822179D+01  1  2  6  3  6  4        2 0.381950880861D-01 0.100000000000D+01
  </mgrwgt>
  </event>
  <event>
  6     66 0.18337608E-05 0.24769281E+02 0.75467711E-02 0.94920810E-01
        2 -1    0    0  501    0 0.00000000E+00 0.00000000E+00 0.28859697E+04 0.28859697E+04 0.32000000E+00 0.0000E+00 0.9000E+01
        1 -1    0    0  502    0 0.00000000E+00 0.00000000E+00 -.86790323E+03 0.86790329E+03 0.32000000E+00 0.0000E+00 0.9000E+01
       25  1    1    2    0    0 0.46456957E+03 0.10159048E+03 0.29086785E+03 0.57129206E+03 0.12500000E+03 0.0000E+00 0.9000E+01
        2  1    1    2  501    0 -.44163337E+03 -.78192887E+02 0.24339089E+04 0.24748873E+04 0.32000000E+00 0.0000E+00 0.9000E+01
        1  1    1    2  503    0 -.16761166E+02 -.22333625E+02 -.42700973E+03 0.42792188E+03 0.32000000E+00 0.0000E+00 0.9000E+01
       21  1    1    2  502  503 -.61750349E+01 -.10639646E+01 -.27970060E+03 0.27977178E+03 0.75000000E+00 0.0000E+00 0.9000E+01
#aMCatNLO 2  0  0  5  2 0.86862998D+01 0.00000000D+00  -5  6  0 0.00000000D+00 0.00000000D+00 0.00000000D+00 0.00000000D+00 0.00000000D+00
  <mgrwgt>
 0.2420217461D-01    3    2    0
 0.158263784306110D+04 0.000000000000000D+00 0.000000000000000D+00 0.158263784306110D+04
 0.158263784306110D+04 -.000000000000000D+00 -.000000000000000D+00 -.158263784306110D+04
 0.492078644609042D+03 0.464569644196216D+03 0.101590927866012D+03 -.192541306476363D+02
 0.138337810419707D+04 -.441631562033704D+03 -.781917641765469D+02 0.130865678869691D+04
 0.128981893731608D+04 -.229380821625104D+02 -.233991636894639D+02 -.128940265804927D+04
 0.000000000000000D+00 0.000000000000000D+00 0.000000000000000D+00 -.000000000000000D+00
 0.158263784306110D+04 0.000000000000000D+00 0.000000000000000D+00 0.158263784306110D+04
 0.158263784306110D+04 -.000000000000000D+00 -.000000000000000D+00 -.158263784306110D+04
 0.492078998246754D+03 0.464569306068844D+03 0.101590582941896D+03 -.192731375693507D+02
 0.138332791562974D+04 -.441632512591820D+03 -.781927338419617D+02 0.130860335562640D+04
 0.779197333046932D+03 -.167512579331041D+02 -.223221408783442D+02 -.778697374601788D+03
 0.510671439198772D+03 -.618553554391840D+01 -.107570822158854D+01 -.510632843455258D+03
-.112954824461D+00 0.000000000000D+00 0.000000000000D+00 0.466230588242D-03 0.000000000000D+00  6 2 1 25 2 1 21 2 0.44399534D+00 0.13352358D+00 0.23735874D+06 0.23735874D+06 0.23735874D+06 0.10921585D+01  1  2 13  4  6  5        1 -.819429269645D-01 0.100000000000D+01
-.662626731970D-09 0.000000000000D+00 0.000000000000D+00 0.466230588242D-03 0.000000000000D+00  6 2 1 25 2 1 21 2 0.44399534D+00 0.13352358D+00 0.23735874D+06 0.23735874D+06 0.23735874D+06 0.10921585D+01  1  2 13  4  6  5        1 -.480701680175D-09 0.100000000000D+01
0.146316488974D+00 0.000000000000D+00 0.000000000000D+00 0.466230588242D-03 0.709136397569D-04  6 2 1 25 2 1 21 2 0.44399534D+00 0.13352358D+00 0.23735874D+06 0.23735874D+06 0.23735874D+06 0.10921585D+01  1  2  1  4  6  5        1 0.106145102052D+00 0.100000000000D+01
  </mgrwgt>
  </event>
  <event>
  5     66 0.18337608E-05 0.53361723E+02 0.75467711E-02 0.93251136E-01
        2 -1    0    0  501    0 0.00000000E+00 0.00000000E+00 0.33999481E+03 0.33999496E+03 0.32000000E+00 0.0000E+00 0.9000E+01
        1 -1    0    0  502    0 0.00000000E+00 0.00000000E+00 -.27409253E+04 0.27409253E+04 0.32000000E+00 0.0000E+00 0.9000E+01
       25  1    1    2    0    0 0.46100181E+03 -.11593605E+03 -.11007644E+04 0.12055169E+04 0.12500000E+03 0.0000E+00 0.9000E+01
        2  1    1    2  501    0 -.50549866E+03 0.14538906E+03 0.46166564E+02 0.52801357E+03 0.32000000E+00 0.0000E+00 0.9000E+01
        1  1    1    2  502    0 0.44496856E+02 -.29453006E+02 -.13463327E+04 0.13473898E+04 0.32000000E+00 0.0000E+00 0.9000E+01
#aMCatNLO 1  0  0  2  4 0.29761825D+02 0.00000000D+00  -5  6  0 0.00000000D+00 0.00000000D+00 0.00000000D+00 0.00000000D+00 0.00000000D+00
  <mgrwgt>
 0.1554149778D-01    7    2    0
 0.965350004753724D+03 0.000000000000000D+00 0.000000000000000D+00 0.965350004753724D+03
 0.965350004753724D+03 0.000000000000000D+00 0.000000000000000D+00 -.965350004753724D+03
 0.554843996497115D+03 0.461001130322632D+03 -.115935703306842D+03 -.257417425573511D+03
 0.899988842825397D+03 -.505498126731457D+03 0.145388900551988D+03 0.730283252359979D+03
 0.475867170184936D+03 0.444969964088256D+02 -.294531972451455D+02 -.472865826786468D+03
 0.000000000000000D+00 -.000000000000000D+00 0.000000000000000D+00 -.000000000000000D+00
 0.983560015409074D+03 0.000000000000000D+00 0.000000000000000D+00 0.983560015409074D+03
 0.100747427085416D+04 0.000000000000000D+00 0.000000000000000D+00 -.100747427085416D+04
 0.563090685278844D+03 0.467063026822378D+03 -.130516350831697D+03 -.257417425573511D+03
 0.891071677133125D+03 -.495786268182152D+03 0.122029018652885D+03 0.730283252359979D+03
 0.477308184639538D+03 0.496655008315313D+02 -.418849735417670D+02 -.472865826786468D+03
 0.595637392117271D+02 -.209422594717573D+02 0.503723057205781D+02 -.239142554450863D+02
0.254859597940D-02 0.000000000000D+00 0.000000000000D+00 0.986341379417D-05 0.000000000000D+00  6 2 1 25 2 1 21 0 0.52306907D-01 0.42168083D+00 0.28668991D+06 0.28668991D+06 0.28668991D+06 0.10860130D+01  1  2  2  2  6  2        1 0.329539800541D-02 0.100000000000D+01
0.843549648294D-03 0.000000000000D+00 -.978727962162D-05 0.986341379417D-05 0.000000000000D+00  6 2 1 25 2 1 21 2 0.52306907D-01 0.42168083D+00 0.28668991D+06 0.28668991D+06 0.28668991D+06 0.10860130D+01  1  2  3  2  6  2        1 0.128643427239D-02 0.100000000000D+01
-.177834983434D-02 0.000000000000D+00 0.000000000000D+00 0.986341379417D-05 0.000000000000D+00  6 2 1 25 2 1 21 2 0.52306907D-01 0.42168083D+00 0.28668991D+06 0.28668991D+06 0.28668991D+06 0.10860130D+01  1  2 15  2  6  2        1 -.271202789288D-02 0.100000000000D+01
-.187257828408D-03 0.000000000000D+00 0.000000000000D+00 0.986341379417D-05 0.000000000000D+00  6 2 1 25 2 1 21 2 0.52306907D-01 0.42168083D+00 0.28668991D+06 0.28668991D+06 0.28668991D+06 0.10860130D+01  1  2  4  2  6  2        1 -.285572863109D-03 0.100000000000D+01
-.435826926375D-01 0.000000000000D+00 -.750792280749D-02 0.986341379417D-05 0.000000000000D+00  6 2 1 25 2 1 21 2 0.52306907D-01 0.44282130D+00 0.28668991D+06 0.28668991D+06 0.28668991D+06 0.10860130D+01  1  2  5  2  6  2        1 -.528911491745D-01 0.100000000000D+01
0.439063933220D-01 0.000000000000D+00 0.749894877806D-02 0.986341379417D-05 0.000000000000D+00  6 2 1 25 2 1 21 2 0.52306907D-01 0.42168083D+00 0.28668991D+06 0.28668991D+06 0.28668991D+06 0.10860130D+01  1  2  6  2  6  2        1 0.669583459147D-01 0.100000000000D+01
-.365654321138D-03 0.000000000000D+00 -.640816110235D-04 0.986341379417D-05 0.000000000000D+00  6 2 21 25 2 1 -1 2 0.52306907D-01 0.44282130D+00 0.28668991D+06 0.28668991D+06 0.28668991D+06 0.10860130D+01  1  2  5  6  6  2        1 -.109930485213D-03 0.100000000000D+01
  </mgrwgt>
  </event>
  <event>
  6     66 0.18337608E-05 0.45512973E+03 0.75467711E-02 0.88225931E-01
        2 -1    0    0  501    0 0.00000000E+00 0.00000000E+00 0.55590356E+03 0.55590365E+03 0.32000000E+00 0.0000E+00 0.9000E+01
        1 -1    0    0  502    0 -.00000000E+00 -.00000000E+00 -.28688757E+04 0.28688757E+04 0.32000000E+00 0.0000E+00 0.9000E+01
       25  1    1    2    0    0 0.28241120E+03 0.56407092E+03 -.80047939E+03 0.10268030E+04 0.12500000E+03 0.0000E+00 0.9000E+01
        2  1    1    2  501    0 -.23856975E+02 -.24142903E+02 0.26988025E+03 0.27200641E+03 0.32000000E+00 0.0000E+00 0.9000E+01
        1  1    1    2  503    0 0.37611339E+03 -.28577319E+03 -.80174634E+03 0.93055086E+03 0.32000000E+00 0.0000E+00 0.9000E+01
       21  1    1    2  502  503 -.63466762E+03 -.25415483E+03 -.98062662E+03 0.11954191E+04 0.75000000E+00 0.0000E+00 0.9000E+01
#aMCatNLO 2  0  0  5  4 0.47929075D+03 0.00000000D+00  -5  6  0 0.00000000D+00 0.00000000D+00 0.00000000D+00 0.00000000D+00 0.00000000D+00
  <mgrwgt>
 0.6208054931D-03    1    2    0
 0.126286119103058D+04 0.000000000000000D+00 0.000000000000000D+00 0.126286119103058D+04
 0.126286119103058D+04 -.000000000000000D+00 -.000000000000000D+00 -.126286119103058D+04
 0.762930482369343D+03 0.334281223371212D+03 0.672390561643188D+03 -.508420814180741D+02
 0.707170633614788D+03 0.243689880001998D+02 0.765613584887083D+02 0.702591499989397D+03
 0.105562126607703D+04 -.358650211371412D+03 -.748951920131896D+03 -.651749418571323D+03
 0.000000000000000D+00 0.000000000000000D+00 0.000000000000000D+00 0.000000000000000D+00
 0.126286119103058D+04 0.000000000000000D+00 0.000000000000000D+00 0.126286119103058D+04
 0.126286119103058D+04 -.000000000000000D+00 -.000000000000000D+00 -.126286119103058D+04
 0.659335858889542D+03 0.282457125746162D+03 0.564168800733115D+03 -.145018313368294D+03
 0.615916647910545D+03 -.238412539602050D+02 -.241137621203147D+02 0.614982469879729D+03
 0.527137770335014D+03 0.376118841794452D+03 -.285304308099900D+03 -.234542741393989D+03
 0.723332104926058D+03 -.634734713580410D+03 -.254750730512901D+03 -.235421415117446D+03
0.100947019016D-02 0.000000000000D+00 0.000000000000D+00 0.143514076264D-05 0.648801943624D-11  6 2 1 25 2 1 21 2 0.85523633D-01 0.44136549D+00 0.84009460D+06 0.84009460D+06 0.84009460D+06 0.10529386D+01  1  2  1  4  6  5        1 0.620805493098D-03 0.100000000000D+01
  </mgrwgt>
  </event>
  <event>
  5     66 0.18337608E-05 0.25528944E+02 0.75467711E-02 0.87319498E-01
        2 -1    0    0  501    0 0.00000000E+00 0.00000000E+00 0.16775979E+04 0.16775980E+04 0.32000000E+00 0.0000E+00 0.9000E+01
        1 -1    0    0  502    0 0.00000000E+00 0.00000000E+00 -.81395461E+03 0.81395467E+03 0.32000000E+00 0.0000E+00 0.9000E+01
       25  1    1    2    0    0 -.45034465E+03 0.43360104E+03 0.23719867E+03 0.68022671E+03 0.12500000E+03 0.0000E+00 0.9000E+01
        2  1    1    2  501    0 0.46527010E+03 -.41289303E+03 0.11391801E+04 0.12979554E+04 0.32000000E+00 0.0000E+00 0.9000E+01
        1  1    1    2  502    0 -.14925450E+02 -.20708006E+02 -.51273540E+03 0.51337051E+03 0.32000000E+00 0.0000E+00 0.9000E+01
#aMCatNLO 1  0  0  2  4 0.24740077D+03 0.00000000D+00  -5  6  0 0.00000000D+00 0.00000000D+00 0.00000000D+00 0.00000000D+00 0.00000000D+00
  <mgrwgt>
 0.9508327400D-02    7    2    0
 0.116854125925694D+04 0.000000000000000D+00 0.000000000000000D+00 0.116854125925694D+04
 0.116854125925694D+04 0.000000000000000D+00 0.000000000000000D+00 -.116854125925694D+04
 0.637506822657193D+03 -.450323184562570D+03 0.433585520601718D+03 0.160458855559722D+01
 0.962731108598354D+03 0.465250092472771D+03 -.412875272362205D+03 0.734797624104030D+03
 0.736844587258329D+03 -.149269079102014D+02 -.207102482395129D+02 -.736402212659627D+03
 0.000000000000000D+00 -.000000000000000D+00 0.000000000000000D+00 -.000000000000000D+00
 0.131290132811731D+04 0.000000000000000D+00 0.000000000000000D+00 0.131290132811731D+04
 0.170573857180065D+04 0.000000000000000D+00 0.000000000000000D+00 -.170573857180065D+04
 0.519720628151398D+03 -.363559951411943D+03 0.349722916536787D+03 0.160458855559722D+01
 0.111492667706161D+04 0.621022673514186D+03 -.563440135077377D+03 0.734797624104030D+03
 0.753815863926021D+03 0.968354947049084D+02 -.128736260866137D+03 -.736402212659627D+03
 0.630176730778932D+03 -.354298216807152D+03 0.342453479406727D+03 -.392837243683336D+03
0.141260154357D-02 0.000000000000D+00 0.000000000000D+00 0.199317320470D-04 0.000000000000D+00  6 2 1 25 2 1 21 0 0.25809200D+00 0.12522379D+00 0.41284841D+06 0.41284841D+06 0.41284841D+06 0.10744392D+01  1  2  2  2  6  2        1 0.445930475089D-02 0.100000000000D+01
0.108269697441D-02 0.000000000000D+00 -.542476187385D-05 0.199317320470D-04 0.000000000000D+00  6 2 1 25 2 1 21 2 0.25809200D+00 0.12522379D+00 0.41284841D+06 0.41284841D+06 0.41284841D+06 0.10744392D+01  1  2  3  2  6  2        1 0.394564568750D-02 0.100000000000D+01
-.861731004690D-03 0.000000000000D+00 0.000000000000D+00 0.199317320470D-04 0.000000000000D+00  6 2 1 25 2 1 21 2 0.25809200D+00 0.12522379D+00 0.41284841D+06 0.41284841D+06 0.41284841D+06 0.10744392D+01  1  2 15  2  6  2        1 -.314038489329D-02 0.100000000000D+01
-.208212128101D-04 0.000000000000D+00 0.000000000000D+00 0.199317320470D-04 0.000000000000D+00  6 2 1 25 2 1 21 2 0.25809200D+00 0.12522379D+00 0.41284841D+06 0.41284841D+06 0.41284841D+06 0.10744392D+01  1  2  4  2  6  2        1 -.758782286039D-04 0.100000000000D+01
-.165297315077D-02 0.000000000000D+00 -.922536282716D-03 0.199317320470D-04 0.000000000000D+00  6 2 1 25 2 1 21 2 0.25809200D+00 0.19498365D+00 0.41284841D+06 0.41284841D+06 0.41284841D+06 0.10744392D+01  1  2  5  2  6  2        1 -.271194309866D-02 0.100000000000D+01
0.195069276461D-02 0.000000000000D+00 0.838932983585D-03 0.199317320470D-04 0.000000000000D+00  6 2 1 25 2 1 21 2 0.25809200D+00 0.12522379D+00 0.41284841D+06 0.41284841D+06 0.41284841D+06 0.10744392D+01  1  2  6  2  6  2        1 0.710886118301D-02 0.100000000000D+01
-.488802830349D-04 0.000000000000D+00 -.473596546069D-04 0.199317320470D-04 0.000000000000D+00  6 2 21 25 2 1 -1 2 0.25809200D+00 0.19498365D+00 0.41284841D+06 0.41284841D+06 0.41284841D+06 0.10744392D+01  1  2  5  6  6  2        1 -.772780012057D-04 0.100000000000D+01
  </mgrwgt>
  </event>
  <event>
  6     66 0.18337608E-05 0.85439038E+02 0.75467711E-02 0.93844313E-01
        2 -1    0    0  503    0 0.00000000E+00 0.00000000E+00 0.22755897E+04 0.22755897E+04 0.32000000E+00 0.0000E+00 0.9000E+01
        1 -1    0    0  502    0 0.00000000E+00 0.00000000E+00 -.20739812E+03 0.20739837E+03 0.32000000E+00 0.0000E+00 0.9000E+01
       25  1    1    2    0    0 -.25187772E+03 0.41382277E+03 0.43421115E+03 0.66246208E+03 0.12500000E+03 0.0000E+00 0.9000E+01
        2  1    1    2  501    0 0.14902812E+03 -.38848815E+03 0.10539592E+04 0.11331207E+04 0.32000000E+00 0.0000E+00 0.9000E+01
        1  1    1    2  502    0 -.38662821E+01 -.46578504E+02 -.37777154E+02 0.60097595E+02 0.32000000E+00 0.0000E+00 0.9000E+01
       21  1    1    2  503  501 0.10671589E+03 0.21243880E+02 0.61779841E+03 0.62730776E+03 0.75000000E+00 0.0000E+00 0.9000E+01
#aMCatNLO 2  0  0  1  4 0.34226393D+02 0.00000000D+00  -5  6  0 0.00000000D+00 0.00000000D+00 0.00000000D+00 0.00000000D+00 0.00000000D+00
  <mgrwgt>
 0.5337152741D-02    1    2    0
 0.576209510925194D+03 0.000000000000000D+00 0.000000000000000D+00 0.576209510925194D+03
 0.576209510925194D+03 0.000000000000000D+00 0.000000000000000D+00 -.576209510925194D+03
 0.504544391914820D+03 -.204639208653161D+03 0.423224855800856D+03 -.133953570787975D+03
 0.504763296721187D+03 0.195256115907905D+03 -.379281032382676D+03 0.269827599389187D+03
 0.143111333214380D+03 0.938309274525565D+01 -.439438234181801D+02 -.135874028601212D+03
 0.000000000000000D+00 0.000000000000000D+00 0.000000000000000D+00 0.000000000000000D+00
 0.796743860460952D+03 0.000000000000000D+00 0.000000000000000D+00 0.796743860460952D+03
 0.592351501957688D+03 0.000000000000000D+00 0.000000000000000D+00 -.592351501957688D+03
 0.517936507714120D+03 -.251875866409892D+03 0.413821476987984D+03 -.133953570787975D+03
 0.495918949678518D+03 0.149026514148523D+03 -.388483937040970D+03 0.269827599389187D+03
 0.143689005934085D+03 -.386653320842910D+01 -.465814201044869D+02 -.135874028601212D+03
 0.231550899091917D+03 0.106715885469798D+03 0.212438801574736D+02 0.204392358503265D+03
0.443745080533D-03 0.000000000000D+00 0.000000000000D+00 0.422651645842D-06 0.195284091554D-09  6 2 1 25 2 1 21 2 0.35009039D+00 0.31907392D-01 0.28727101D+06 0.28727101D+06 0.28727101D+06 0.10859477D+01  1  2  1  1  6  1        2 0.533715274103D-02 0.100000000000D+01
  </mgrwgt>
  </event>
  <event>
  6     66 -.18337608E-05 0.12962979E+03 0.75467711E-02 0.91206739E-01
        2 -1    0    0  501    0 0.00000000E+00 0.00000000E+00 0.15678365E+04 0.15678366E+04 0.32000000E+00 0.0000E+00 0.9000E+01
        1 -1    0    0  502    0 0.00000000E+00 0.00000000E+00 -.68978673E+03 0.68978681E+03 0.32000000E+00 0.0000E+00 0.9000E+01
       25  1    1    2    0    0 0.58271692E+02 0.52148475E+03 0.64175322E+03 0.83834010E+03 0.12500000E+03 0.0000E+00 0.9000E+01
        2  1    1    2  503    0 -.79790971E+01 0.10107008E+03 0.50198492E+03 0.51212087E+03 0.32000000E+00 0.0000E+00 0.9000E+01
        1  1    1    2  502    0 -.25987310E+02 -.67124072E+03 -.38625983E+03 0.77487819E+03 0.32000000E+00 0.0000E+00 0.9000E+01
       21  1    1    2  501  503 -.24305285E+02 0.48685890E+02 0.12057149E+03 0.13228420E+03 0.75000000E+00 0.0000E+00 0.9000E+01
#aMCatNLO 2  0  0  4  1 0.26384222D+02 0.00000000D+00  -5  6  0 0.00000000D+00 0.00000000D+00 0.00000000D+00 0.00000000D+00 0.00000000D+00
  <mgrwgt>
 -.1562538396D-02    6    2    0
 0.103993891575694D+04 0.000000000000000D+00 0.000000000000000D+00 0.103993891575694D+04
 0.103993891575694D+04 -.000000000000000D+00 -.000000000000000D+00 -.103993891575694D+04
 0.638490476571735D+03 0.583636058848226D+02 0.521464633282306D+03 0.341633450377262D+03
 0.435029534717998D+03 -.325255135503328D+02 0.150874491436432D+03 0.406730469572963D+03
 0.100635782022415D+04 -.258380923344898D+02 -.672339124718737D+03 -.748363919950225D+03
 0.000000000000000D+00 -.000000000000000D+00 0.000000000000000D+00 0.000000000000000D+00
 0.103993891575694D+04 0.000000000000000D+00 0.000000000000000D+00 0.103993891575694D+04
 0.103993891575694D+04 -.000000000000000D+00 -.000000000000000D+00 -.103993891575694D+04
 0.639649632624281D+03 0.582520863207834D+02 0.521981933569774D+03 0.343027998831602D+03
 0.343326963818790D+03 -.792943518674580D+01 0.100845883904360D+03 0.328086323765859D+03
 0.100418779258172D+04 -.260135153328042D+02 -.671525398730492D+03 -.746170261167008D+03
 0.927134424890913D+02 -.243091358012334D+02 0.486975812563578D+02 0.750559385695474D+02
-.427819575529D-03 0.000000000000D+00 0.000000000000D+00 0.197988179632D-06 0.000000000000D+00  6 2 1 25 2 1 21 2 0.24120563D+00 0.10612104D+00 0.46751824D+06 0.46751824D+06 0.46751824D+06 0.10705782D+01  1  2 13  3  6  4        2 -.228948197108D-02 0.100000000000D+01
-.575961032025D-07 0.000000000000D+00 0.000000000000D+00 0.197988179632D-06 0.000000000000D+00  6 2 1 25 2 1 21 2 0.24120563D+00 0.10612104D+00 0.46751824D+06 0.46751824D+06 0.46751824D+06 0.10705782D+01  1  2 13  3  6  4        2 -.308226288438D-06 0.100000000000D+01
-.247659921723D-05 0.000000000000D+00 0.000000000000D+00 0.197988179632D-06 0.000000000000D+00  6 2 1 25 2 1 21 2 0.24120563D+00 0.10612104D+00 0.46688524D+06 0.46688524D+06 0.46688524D+06 0.10706200D+01  1  2  8  3  6  4        2 -.132555737248D-04 0.100000000000D+01
-.155779261875D-05 0.000000000000D+00 0.000000000000D+00 0.197988179632D-06 0.000000000000D+00  6 2 1 25 2 1 21 2 0.24120563D+00 0.10612104D+00 0.46688524D+06 0.46688524D+06 0.46688524D+06 0.10706200D+01  1  2  9  3  6  4        2 -.833781855464D-05 0.100000000000D+01
0.192417434583D-05 0.000000000000D+00 0.000000000000D+00 0.197988179632D-06 0.000000000000D+00  6 2 1 25 2 1 21 2 0.24120563D+00 0.10612104D+00 0.46688524D+06 0.46688524D+06 0.46688524D+06 0.10706200D+01  1  2 10  3  6  4        2 0.102988140847D-04 0.100000000000D+01
0.138007026287D-03 0.000000000000D+00 0.000000000000D+00 0.197988179632D-06 0.306549567940D-09  6 2 1 25 2 1 21 2 0.24120563D+00 0.10612104D+00 0.46751824D+06 0.46751824D+06 0.46751824D+06 0.10705782D+01  1  2  1  3  6  4        2 0.738546379455D-03 0.100000000000D+01
  </mgrwgt>
  </event>
  <event>
  5     66 0.18337608E-05 0.86254606E+02 0.75467711E-02 0.94437280E-01
        2 -1    0    0  501    0 0.00000000E+00 0.00000000E+00 0.17958334E+04 0.17958335E+04 0.32000000E+00 0.0000E+00 0.9000E+01
        1 -1    0    0  502    0 0.00000000E+00 0.00000000E+00 -.48936407E+03 0.48936417E+03 0.32000000E+00 0.0000E+00 0.9000E+01
       25  1    1    2    0    0 -.34625660E+03 0.30491105E+03 0.25608599E+03 0.54228168E+03 0.12500000E+03 0.0000E+00 0.9000E+01
        2  1    1    2  501    0 0.80348735E+02 0.31395608E+02 0.12619023E+04 0.12648474E+04 0.32000000E+00 0.0000E+00 0.9000E+01
        1  1    1    2  502    0 0.26590786E+03 -.33630666E+03 -.21151889E+03 0.47806852E+03 0.32000000E+00 0.0000E+00 0.9000E+01
#aMCatNLO 1  0  0  2  5 0.17137680D+02 0.00000000D+00  -5  6  0 0.00000000D+00 0.00000000D+00 0.00000000D+00 0.00000000D+00 0.00000000D+00
  <mgrwgt>
 0.1556254750D-01   11    2    0
 0.937452134859474D+03 0.000000000000000D+00 0.000000000000000D+00 0.937452134859474D+03
 0.937452134859474D+03 0.000000000000000D+00 0.000000000000000D+00 -.937452134859474D+03
 0.482553418776850D+03 -.346291142678665D+03 0.304961725806602D+03 -.656779435472043D+02
 0.662243868579905D+03 0.803393067976346D+02 0.313919245099397D+02 0.656602683767373D+03
 0.730106982362192D+03 0.265951835881030D+03 -.336353650316541D+03 -.590924740220169D+03
 0.000000000000000D+00 -.000000000000000D+00 -.000000000000000D+00 -.000000000000000D+00
 0.937846183905745D+03 0.000000000000000D+00 0.000000000000000D+00 0.937846183905745D+03
 0.114438770642241D+04 0.000000000000000D+00 0.000000000000000D+00 -.114438770642241D+04
 0.479904571952705D+03 -.341951267935136D+03 0.305678157986585D+03 -.656779435472043D+02
 0.663042809392625D+03 0.863152332661845D+02 0.323784382413947D+02 0.656602683767373D+03
 0.732035210760928D+03 0.272544865432973D+03 -.335265264403644D+03 -.590924740220169D+03
 0.207251298221902D+03 -.169088307640208D+02 -.279133182433601D+01 -.206541522516669D+03
0.603439818358D-04 0.000000000000D+00 0.000000000000D+00 0.875577424418D-05 0.000000000000D+00  6 2 1 25 2 1 21 0 0.27628208D+00 0.75286790D-01 0.24656757D+06 0.24656757D+06 0.24656757D+06 0.10909111D+01  1  2  2  2  6  2        1 0.360762401514D-03 0.100000000000D+01
0.155556803660D-04 0.000000000000D+00 -.231736779185D-06 0.875577424418D-05 0.000000000000D+00  6 2 1 25 2 1 21 2 0.27628208D+00 0.75286790D-01 0.24656757D+06 0.24656757D+06 0.24656757D+06 0.10909111D+01  1  2  3  2  6  2        1 0.110676398725D-03 0.100000000000D+01
-.386741257607D-04 0.000000000000D+00 0.000000000000D+00 0.875577424418D-05 0.000000000000D+00  6 2 1 25 2 1 21 2 0.27628208D+00 0.75286790D-01 0.24656757D+06 0.24656757D+06 0.24656757D+06 0.10909111D+01  1  2 15  2  6  2        1 -.275160768434D-03 0.100000000000D+01
0.180339662084D-01 0.000000000000D+00 0.000000000000D+00 0.875577424418D-05 0.000000000000D+00  6 2 1 25 2 1 21 2 0.27628208D+00 0.92135696D-01 0.25846240D+06 0.25846240D+06 0.25846240D+06 0.10893731D+01  1  2 12  2  6  2        1 0.957560811859D-01 0.100000000000D+01
0.418651314926D-07 0.000000000000D+00 0.000000000000D+00 0.875577424418D-05 0.000000000000D+00  6 2 1 25 2 1 21 2 0.27628208D+00 0.91926673D-01 0.25846240D+06 0.25846240D+06 0.25846240D+06 0.10893731D+01  1  2 12  2  6  2        1 0.223029347459D-06 0.100000000000D+01
-.154745245945D-01 0.000000000000D+00 0.000000000000D+00 0.875577424418D-05 0.000000000000D+00  6 2 1 25 2 1 21 2 0.27628208D+00 0.75286790D-01 0.24656757D+06 0.24656757D+06 0.24656757D+06 0.10909111D+01  1  2  4  2  6  2        1 -.110098987238D+00 0.100000000000D+01
-.183817774733D-01 0.000000000000D+00 -.763929763854D-04 0.875577424418D-05 0.000000000000D+00  6 2 1 25 2 1 21 2 0.27628208D+00 0.91921716D-01 0.24656757D+06 0.24656757D+06 0.24656757D+06 0.10909111D+01  1  2  5  2  6  2        1 -.984817105556D-01 0.100000000000D+01
0.180378963042D-01 0.000000000000D+00 0.748955994001D-04 0.875577424418D-05 0.000000000000D+00  6 2 1 25 2 1 21 2 0.27628208D+00 0.75286790D-01 0.24656757D+06 0.24656757D+06 0.24656757D+06 0.10909111D+01  1  2  6  2  6  2        1 0.128337003368D+00 0.100000000000D+01
0.519941315961D-03 0.000000000000D+00 0.000000000000D+00 0.875577424418D-05 0.000000000000D+00  6 2 21 25 2 1 -1 2 0.27628208D+00 0.92135696D-01 0.25846240D+06 0.25846240D+06 0.25846240D+06 0.10893731D+01  1  2 12  6  6  2        1 0.668421216478D-02 0.100000000000D+01
0.119660622192D-08 0.000000000000D+00 0.000000000000D+00 0.875577424418D-05 0.000000000000D+00  6 2 21 25 2 1 -1 2 0.27628208D+00 0.91926673D-01 0.25846240D+06 0.25846240D+06 0.25846240D+06 0.10893731D+01  1  2 12  6  6  2        1 0.154716259922D-07 0.100000000000D+01
-.524409581296D-03 0.000000000000D+00 -.218304275452D-05 0.875577424418D-05 0.000000000000D+00  6 2 21 25 2 1 -1 2 0.27628208D+00 0.91921716D-01 0.24656757D+06 0.24656757D+06 0.24656757D+06 0.10909111D+01  1  2  5  6  6  2        1 -.683056795664D-02 0.100000000000D+01
  </mgrwgt>
  </event>
  <event>
  5     66 0.18337608E-05 0.87575476E+02 0.75467711E-02 0.93938854E-01
        2 -1    0    0  501    0 0.00000000E+00 0.00000000E+00 0.12733584E+04 0.12733585E+04 0.32000000E+00 0.0000E+00 0.9000E+01
        1 -1    0    0  502    0 0.00000000E+00 0.00000000E+00 -.57087507E+03 0.57087516E+03 0.32000000E+00 0.0000E+00 0.9000E+01
       25  1    1    2    0    0 0.38798273E+03 0.26729588E+03 0.45633877E+03 0.66771832E+03 0.12500000E+03 0.0000E+00 0.9000E+01
        2  1    1    2  501    0 -.35356458E+03 -.34780998E+03 0.61918937E+03 0.79333176E+03 0.32000000E+00 0.0000E+00 0.9000E+01
        1  1    1    2  502    0 -.34418147E+02 0.80514102E+02 -.37304478E+03 0.38318356E+03 0.32000000E+00 0.0000E+00 0.9000E+01
#aMCatNLO 1  0  0  4  1 0.63533144D+02 0.00000000D+00  -5  6  0 0.00000000D+00 0.00000000D+00 0.00000000D+00 0.00000000D+00 0.00000000D+00
  <mgrwgt>
 0.1929273806D-01    8    2    0
 0.852601144895110D+03 0.000000000000000D+00 0.000000000000000D+00 0.852601144895110D+03
 0.852601144895110D+03 -.000000000000000D+00 -.000000000000000D+00 -.852601144895110D+03
 0.534159210455247D+03 0.387944652086472D+03 0.267240395140136D+03 0.218592269389893D+03
 0.602854906940180D+03 -.353520160876163D+03 -.347766281606382D+03 0.342806283567871D+03
 0.568188172394792D+03 -.344244912103093D+02 0.805258864662461D+02 -.561398552957764D+03
 0.000000000000000D+00 0.000000000000000D+00 -.000000000000000D+00 0.000000000000000D+00
 0.852601144895110D+03 0.000000000000000D+00 0.000000000000000D+00 0.852601144895110D+03
 0.852601144895110D+03 -.000000000000000D+00 -.000000000000000D+00 -.852601144895110D+03
 0.530109563862697D+03 0.382951799826248D+03 0.262328806333305D+03 0.223433806923393D+03
 0.513511997616588D+03 -.315935896336670D+03 -.243064029092940D+03 0.323726673079668D+03
 0.562732502742145D+03 -.397300305489134D+02 0.753066998627724D+02 -.556253804724785D+03
 0.988482255687888D+02 -.272858729406641D+02 -.945714771031381D+02 0.909332472172398D+01
0.429918610220D-03 0.000000000000D+00 0.000000000000D+00 0.147107534029D-05 0.000000000000D+00  6 2 1 25 2 1 21 0 0.19590131D+00 0.87826945D-01 0.28668576D+06 0.28668576D+06 0.28668576D+06 0.10860135D+01  1  2  2  3  6  4        2 0.397711031622D-02 0.100000000000D+01
0.105814851280D-03 0.000000000000D+00 -.165100066341D-05 0.147107534029D-05 0.000000000000D+00  6 2 1 25 2 1 21 2 0.19590131D+00 0.87826945D-01 0.28668576D+06 0.28668576D+06 0.28668576D+06 0.10860135D+01  1  2  3  3  6  4        2 0.115451203400D-02 0.100000000000D+01
-.261321929372D-03 0.000000000000D+00 0.000000000000D+00 0.147107534029D-05 0.000000000000D+00  6 2 1 25 2 1 21 2 0.19590131D+00 0.87826945D-01 0.28668576D+06 0.28668576D+06 0.28668576D+06 0.10860135D+01  1  2 15  3  6  4        2 -.285120007784D-02 0.100000000000D+01
0.197000858888D-02 0.000000000000D+00 0.000000000000D+00 0.147107534029D-05 0.000000000000D+00  6 2 1 25 2 1 21 2 0.19590131D+00 0.87826945D-01 0.28244573D+06 0.28244573D+06 0.28244573D+06 0.10864946D+01  1  2 12  3  6  4        2 0.215279026222D-01 0.100000000000D+01
0.669622395418D-07 0.000000000000D+00 0.000000000000D+00 0.147107534029D-05 0.000000000000D+00  6 2 1 25 2 1 21 2 0.19590131D+00 0.87826945D-01 0.28244573D+06 0.28244573D+06 0.28244573D+06 0.10864946D+01  1  2 12  3  6  4        2 0.731751414873D-06 0.100000000000D+01
-.796510159745D-03 0.000000000000D+00 0.000000000000D+00 0.147107534029D-05 0.000000000000D+00  6 2 1 25 2 1 21 2 0.19590131D+00 0.87826945D-01 0.28668576D+06 0.28668576D+06 0.28668576D+06 0.10860135D+01  1  2  4  3  6  4        2 -.869046786440D-02 0.100000000000D+01
-.215903907917D-02 0.000000000000D+00 0.000000000000D+00 0.147107534029D-05 0.000000000000D+00  6 2 1 25 2 1 21 2 0.19590131D+00 0.87826945D-01 0.28668576D+06 0.28668576D+06 0.28668576D+06 0.10860135D+01  1  2  5  3  6  4        2 -.235565855702D-01 0.100000000000D+01
0.254161368360D-02 0.000000000000D+00 -.000000000000D+00 0.147107534029D-05 0.000000000000D+00  6 2 1 25 2 1 21 2 0.19590131D+00 0.87826945D-01 0.28668576D+06 0.28668576D+06 0.28668576D+06 0.10860135D+01  1  2  6  3  6  4        2 0.277307348447D-01 0.100000000000D+01
  </mgrwgt>
  </event>
  <event>
  5     66 0.18337608E-05 0.63125750E+02 0.75467711E-02 0.91367622E-01
        2 -1    0    0  501    0 0.00000000E+00 0.00000000E+00 0.33770888E+04 0.33770888E+04 0.32000000E+00 0.0000E+00 0.9000E+01
        1 -1    0    0  502    0 0.00000000E+00 0.00000000E+00 -.44870789E+03 0.44870801E+03 0.32000000E+00 0.0000E+00 0.9000E+01
       25  1    1    2    0    0 0.39401628E+03 -.41745796E+03 0.12031443E+04 0.13389180E+04 0.12500000E+03 0.0000E+00 0.9000E+01
        2  1    1    2  501    0 -.62918599E+02 0.52497480E+01 0.19217768E+04 0.19228137E+04 0.32000000E+00 0.0000E+00 0.9000E+01
        1  1    1    2  502    0 -.33109768E+03 0.41220822E+03 -.19654029E+03 0.56406513E+03 0.32000000E+00 0.0000E+00 0.9000E+01
#aMCatNLO 1  0  0  1  4 0.15543453D+03 0.00000000D+00  -5  6  0 0.00000000D+00 0.00000000D+00 0.00000000D+00 0.00000000D+00 0.00000000D+00
  <mgrwgt>
 0.4807795759D-02    7    2    0
 0.123098604390158D+04 0.000000000000000D+00 0.000000000000000D+00 0.123098604390158D+04
 0.123098604390158D+04 0.000000000000000D+00 0.000000000000000D+00 -.123098604390158D+04
 0.649647880356798D+03 0.394047718378986D+03 -.417507602302464D+03 0.277184354017401D+03
 0.701992328680469D+03 -.629071577323512D+02 0.524879335919858D+01 0.699148317026178D+03
 0.111033187876588D+04 -.331140560646635D+03 0.412258808943265D+03 -.976332671043579D+03
 0.000000000000000D+00 0.000000000000000D+00 0.000000000000000D+00 0.000000000000000D+00
 0.132530627829004D+04 0.000000000000000D+00 0.000000000000000D+00 0.132530627829004D+04
 0.127714861002701D+04 0.000000000000000D+00 0.000000000000000D+00 -.127714861002701D+04
 0.642643903796165D+03 0.364332923510998D+03 -.433354983610735D+03 0.277184354017401D+03
 0.705712527023293D+03 -.952757462623214D+02 -.120138990848806D+02 0.699148317026178D+03
 0.111696177766111D+04 -.382354671053504D+03 0.384945494495454D+03 -.976332671043579D+03
 0.137136679836484D+03 0.113297493804828D+03 0.604233882001622D+02 0.481576682630267D+02
0.174179636039D-02 0.000000000000D+00 0.000000000000D+00 0.243671746710D-04 0.000000000000D+00  6 2 1 25 2 1 21 0 0.51955213D+00 0.69031993D-01 0.34777879D+06 0.34777879D+06 0.34777879D+06 0.10798351D+01  1  2  2  1  6  1        2 0.130787226580D-02 0.100000000000D+01
0.613300815686D-03 0.000000000000D+00 -.668895664942D-05 0.243671746710D-04 0.000000000000D+00  6 2 1 25 2 1 21 2 0.51955213D+00 0.69031993D-01 0.34777879D+06 0.34777879D+06 0.34777879D+06 0.10798351D+01  1  2  3  1  6  1        2 0.536977865071D-03 0.100000000000D+01
-.113489368926D-02 0.000000000000D+00 0.000000000000D+00 0.243671746710D-04 0.000000000000D+00  6 2 1 25 2 1 21 2 0.51955213D+00 0.69031993D-01 0.34777879D+06 0.34777879D+06 0.34777879D+06 0.10798351D+01  1  2 15  1  6  1        2 -.993660492135D-03 0.100000000000D+01
-.522727091986D-04 0.000000000000D+00 0.000000000000D+00 0.243671746710D-04 0.000000000000D+00  6 2 1 25 2 1 21 2 0.51955213D+00 0.69031993D-01 0.34777879D+06 0.34777879D+06 0.34777879D+06 0.10798351D+01  1  2  4  1  6  1        2 -.457675696315D-04 0.100000000000D+01
-.114214405186D-01 0.000000000000D+00 -.264938469650D-02 0.243671746710D-04 0.000000000000D+00  6 2 1 25 2 1 21 2 0.56454465D+00 0.69031993D-01 0.34777879D+06 0.34777879D+06 0.34777879D+06 0.10798351D+01  1  2  5  1  6  1        2 -.617267986996D-02 0.100000000000D+01
0.116238812371D-01 0.000000000000D+00 0.265774392822D-02 0.243671746710D-04 0.000000000000D+00  6 2 1 25 2 1 21 2 0.51955213D+00 0.69031993D-01 0.34777879D+06 0.34777879D+06 0.34777879D+06 0.10798351D+01  1  2  6  1  6  1        2 0.101773334893D-01 0.100000000000D+01
-.151541396193D-03 0.000000000000D+00 -.365820286305D-04 0.243671746710D-04 0.000000000000D+00  6 21 1 25 2 1 -2 2 0.56454465D+00 0.69031993D-01 0.34777879D+06 0.34777879D+06 0.34777879D+06 0.10798351D+01  1  2  5  5  6  1        2 -.227992922134D-05 0.100000000000D+01
  </mgrwgt>
  </event>
  <event>
  5     66 0.18337608E-05 0.44051200E+02 0.75467711E-02 0.93409685E-01
        2 -1    0    0  501    0 0.00000000E+00 0.00000000E+00 0.78727729E+03 0.78727735E+03 0.32000000E+00 0.0000E+00 0.9000E+01
        1 -1    0    0  502    0 0.00000000E+00 0.00000000E+00 -.11728233E+04 0.11728233E+04 0.32000000E+00 0.0000E+00 0.9000E+01
       25  1    1    2    0    0 0.50375391E+03 0.57799922E+02 0.82368096E+02 0.52869493E+03 0.12500000E+03 0.0000E+00 0.9000E+01
        2  1    1    2  501    0 -.54653500E+03 -.47322358E+02 0.32476439E+03 0.63750444E+03 0.32000000E+00 0.0000E+00 0.9000E+01
        1  1    1    2  502    0 0.42781088E+02 -.10477565E+02 -.79267846E+03 0.79390129E+03 0.32000000E+00 0.0000E+00 0.9000E+01
#aMCatNLO 1  0  0  2  4 0.67762389D+02 0.00000000D+00  -5  6  0 0.00000000D+00 0.00000000D+00 0.00000000D+00 0.00000000D+00 0.00000000D+00
  <mgrwgt>
 0.1717409743D-01    7    2    0
 0.960904379229079D+03 0.000000000000000D+00 0.000000000000000D+00 0.960904379229079D+03
 0.960904379229079D+03 0.000000000000000D+00 0.000000000000000D+00 -.960904379229079D+03
 0.555743170627966D+03 0.503698562397449D+03 0.577970778460598D+02 0.190191292468464D+03
 0.715294451980718D+03 -.546485220825470D+03 -.473180478228577D+02 0.459087201742727D+03
 0.650771135849473D+03 0.427866584280214D+02 -.104790300232020D+02 -.649278494211190D+03
 0.000000000000000D+00 0.000000000000000D+00 0.000000000000000D+00 -.000000000000000D+00
 0.101966854527124D+04 0.000000000000000D+00 0.000000000000000D+00 0.101966854527124D+04
 0.157035898833800D+04 0.000000000000000D+00 0.000000000000000D+00 -.157035898833800D+04
 0.491489517374557D+03 0.435617604964892D+03 0.123296508529114D+01 0.190191292468464D+03
 0.802301725749674D+03 -.645144670592019D+03 -.129287873923479D+03 0.459087201742727D+03
 0.655672890715151D+03 -.421457173271840D+02 -.810439083743408D+02 -.649278494211190D+03
 0.640563399769852D+03 0.251672782954311D+03 0.209098817212529D+03 -.550690443066760D+03
0.107129726392D-02 0.000000000000D+00 0.000000000000D+00 0.688484092401D-05 0.000000000000D+00  6 2 1 25 2 1 21 0 0.12111959D+00 0.18043436D+00 0.31067619D+06 0.31067619D+06 0.31067619D+06 0.10834301D+01  1  2  2  2  6  2        1 0.609063847133D-02 0.100000000000D+01
0.528423972984D-03 0.000000000000D+00 -.411406357252D-05 0.688484092401D-05 0.000000000000D+00  6 2 1 25 2 1 21 2 0.12111959D+00 0.18043436D+00 0.31067619D+06 0.31067619D+06 0.31067619D+06 0.10834301D+01  1  2  3  2  6  2        1 0.352644495347D-02 0.100000000000D+01
-.654933038592D-03 0.000000000000D+00 0.000000000000D+00 0.688484092401D-05 0.000000000000D+00  6 2 1 25 2 1 21 2 0.12111959D+00 0.18043436D+00 0.31067619D+06 0.31067619D+06 0.31067619D+06 0.10834301D+01  1  2 15  2  6  2        1 -.437070501506D-02 0.100000000000D+01
-.272263087100D-04 0.000000000000D+00 0.000000000000D+00 0.688484092401D-05 0.000000000000D+00  6 2 1 25 2 1 21 2 0.12111959D+00 0.18043436D+00 0.31067619D+06 0.31067619D+06 0.31067619D+06 0.10834301D+01  1  2  4  2  6  2        1 -.181695161197D-03 0.100000000000D+01
-.255206522600D-02 0.000000000000D+00 -.604136366206D-03 0.688484092401D-05 0.000000000000D+00  6 2 1 25 2 1 21 2 0.12111959D+00 0.30077404D+00 0.31067619D+06 0.31067619D+06 0.31067619D+06 0.10834301D+01  1  2  5  2  6  2        1 -.503137427228D-02 0.100000000000D+01
0.258675969283D-02 0.000000000000D+00 0.533019700648D-03 0.688484092401D-05 0.000000000000D+00  6 2 1 25 2 1 21 2 0.12111959D+00 0.18043436D+00 0.31067619D+06 0.31067619D+06 0.31067619D+06 0.10834301D+01  1  2  6  2  6  2        1 0.172627778658D-01 0.100000000000D+01
-.118489331330D-03 0.000000000000D+00 -.346580491210D-04 0.688484092401D-05 0.000000000000D+00  6 2 21 25 2 1 -1 2 0.12111959D+00 0.30077404D+00 0.31067619D+06 0.31067619D+06 0.31067619D+06 0.10834301D+01  1  2  5  6  6  2        1 -.121989409533D-03 0.100000000000D+01
  </mgrwgt>
  </event>
  <event>
  5     66 -.18337608E-05 0.66821204E+02 0.75467711E-02 0.87457596E-01
        2 -1    0    0  501    0 0.00000000E+00 0.00000000E+00 0.47658061E+03 0.47658072E+03 0.32000000E+00 0.0000E+00 0.9000E+01
        1 -1    0    0  502    0 -.00000000E+00 -.00000000E+00 -.26450004E+04 0.26450004E+04 0.32000000E+00 0.0000E+00 0.9000E+01
       25  1    1    2    0    0 0.49203614E+03 -.85612786E+03 -.11121992E+04 0.14925369E+04 0.12500000E+03 0.0000E+00 0.9000E+01
        2  1    1    2  501    0 -.28136526E+02 0.60663970E+02 0.11871164E+03 0.13625101E+03 0.32000000E+00 0.0000E+00 0.9000E+01
        1  1    1    2  502    0 -.46389961E+03 0.79546389E+03 -.11749322E+04 0.14927932E+04 0.32000000E+00 0.0000E+00 0.9000E+01
#aMCatNLO 1  0  0  4  1 0.13879685D+02 0.00000000D+00  -5  6  0 0.00000000D+00 0.00000000D+00 0.00000000D+00 0.00000000D+00 0.00000000D+00
  <mgrwgt>
 -.1697557842D-02    8    2    0
 0.112274489721009D+04 0.000000000000000D+00 0.000000000000000D+00 0.112274489721009D+04
 0.112274489721009D+04 -.000000000000000D+00 -.000000000000000D+00 -.112274489721009D+04
 0.100092180186093D+04 0.492091661084612D+03 -.856218774094299D+03 -.104664518438561D+03
 0.303819060285521D+03 -.281154143801209D+02 0.606184527447999D+02 0.296379736240245D+03
 0.940748932273729D+03 -.463976246704491D+03 0.795600321349499D+03 -.191715217801684D+03
 0.000000000000000D+00 0.000000000000000D+00 0.000000000000000D+00 0.000000000000000D+00
 0.112274489721009D+04 0.000000000000000D+00 0.000000000000000D+00 0.112274489721009D+04
 0.112274489721009D+04 -.000000000000000D+00 -.000000000000000D+00 -.112274489721009D+04
 0.100074150388972D+04 0.492039181032596D+03 -.856105624079500D+03 -.104111297925281D+03
 0.157865179585415D+03 -.233059526201465D+02 0.417350998160821D+02 0.150454075854875D+03
 0.940757387288706D+03 -.464025576454023D+03 0.795706679130696D+03 -.191195206324800D+03
 0.146125723656337D+03 -.470765195842645D+01 0.186638451327217D+02 0.144852428395206D+03
0.179697699872D-04 0.000000000000D+00 0.000000000000D+00 0.606727482551D-07 0.000000000000D+00  6 2 1 25 2 1 21 0 0.73320104D-01 0.40692315D+00 0.98333268D+06 0.98333268D+06 0.98333268D+06 0.10483502D+01  1  2  2  3  6  4        2 0.171305479293D-04 0.100000000000D+01
0.564019909155D-05 0.000000000000D+00 -.690086483000D-07 0.606727482551D-07 0.000000000000D+00  6 2 1 25 2 1 21 2 0.73320104D-01 0.40692315D+00 0.98333268D+06 0.98333268D+06 0.98333268D+06 0.10483502D+01  1  2  3  3  6  4        2 0.590929868574D-05 0.100000000000D+01
-.112000999920D-04 0.000000000000D+00 0.000000000000D+00 0.606727482551D-07 0.000000000000D+00  6 2 1 25 2 1 21 2 0.73320104D-01 0.40692315D+00 0.98333268D+06 0.98333268D+06 0.98333268D+06 0.10483502D+01  1  2 15  3  6  4        2 -.117344680726D-04 0.100000000000D+01
0.419128368581D-03 0.000000000000D+00 0.000000000000D+00 0.606727482551D-07 0.000000000000D+00  6 2 1 25 2 1 21 2 0.73320104D-01 0.40692315D+00 0.98355302D+06 0.98355302D+06 0.98355302D+06 0.10483437D+01  1  2 12  3  6  4        2 0.439113343064D-03 0.100000000000D+01
0.214543216464D-06 0.000000000000D+00 0.000000000000D+00 0.606727482551D-07 0.000000000000D+00  6 2 1 25 2 1 21 2 0.73320104D-01 0.40692315D+00 0.98355302D+06 0.98355302D+06 0.98355302D+06 0.10483437D+01  1  2 12  3  6  4        2 0.224773115053D-06 0.100000000000D+01
-.250707952115D-02 0.000000000000D+00 0.000000000000D+00 0.606727482551D-07 0.000000000000D+00  6 2 1 25 2 1 21 2 0.73320104D-01 0.40692315D+00 0.98333268D+06 0.98333268D+06 0.98333268D+06 0.10483502D+01  1  2  4  3  6  4        2 -.262669481678D-02 0.100000000000D+01
-.438805172281D-03 0.000000000000D+00 0.000000000000D+00 0.606727482551D-07 0.000000000000D+00  6 2 1 25 2 1 21 2 0.73320104D-01 0.40692315D+00 0.98333268D+06 0.98333268D+06 0.98333268D+06 0.10483502D+01  1  2  5  3  6  4        2 -.459741010161D-03 0.100000000000D+01
0.895508858548D-03 0.000000000000D+00 -.000000000000D+00 0.606727482551D-07 0.000000000000D+00  6 2 1 25 2 1 21 2 0.73320104D-01 0.40692315D+00 0.98333268D+06 0.98333268D+06 0.98333268D+06 0.10483502D+01  1  2  6  3  6  4        2 0.938234490484D-03 0.100000000000D+01
  </mgrwgt>
  </event>
  <event>
  5     66 0.18337608E-05 0.27057735E+02 0.75467711E-02 0.91093395E-01
        2 -1    0    0  501    0 0.00000000E+00 0.00000000E+00 0.41075513E+04 0.41075513E+04 0.32000000E+00 0.0000E+00 0.9000E+01
        1 -1    0    0  502    0 0.00000000E+00 0.00000000E+00 -.55012700E+03 0.55012709E+03 0.32000000E+00 0.0000E+00 0.9000E+01
       25  1    1    2    0    0 0.45780846E+03 0.71324176E+02 0.50878630E+03 0.69940276E+03 0.12500000E+03 0.0000E+00 0.9000E+01
        2  1    1    2  501    0 0.42523053E+01 0.26722506E+02 0.33807494E+04 0.33808577E+04 0.32000000E+00 0.0000E+00 0.9000E+01
        1  1    1    2  502    0 -.46206076E+03 -.98046682E+02 -.33211145E+03 0.57741789E+03 0.32000000E+00 0.0000E+00 0.9000E+01
#aMCatNLO 1  0  0  2  4 0.67762389D+02 0.00000000D+00  -5  6  0 0.00000000D+00 0.00000000D+00 0.00000000D+00 0.00000000D+00 0.00000000D+00
  <mgrwgt>
 0.1191769952D-01    4    2    0
 0.150322157835733D+04 0.000000000000000D+00 0.000000000000000D+00 0.150322157835733D+04
 0.150322157835733D+04 0.000000000000000D+00 0.000000000000000D+00 -.150322157835733D+04
 0.481543627872524D+03 0.457848573404965D+03 0.713330992805643D+02 -.393133351764930D+02
 0.123735985822411D+04 0.425215025890735D+01 0.267215310440742D+02 0.123706398288093D+04
 0.128753967061802D+04 -.462100723663872D+03 -.980546303246385D+02 -.119775064770444D+04
 0.000000000000000D+00 -.000000000000000D+00 0.000000000000000D+00 0.000000000000000D+00
 0.174745091842657D+04 0.000000000000000D+00 0.000000000000000D+00 0.174745091842657D+04
 0.163877739655325D+04 0.000000000000000D+00 0.000000000000000D+00 -.163877739655325D+04
 0.524195168885510D+03 0.505952694249622D+03 0.402729182175493D+02 -.393133351764930D+02
 0.124415981047511D+04 0.122942333441948D+03 -.499151170296447D+02 0.123706398288093D+04
 0.125764191380712D+04 -.340365614206580D+03 -.176657346164302D+03 -.119775064770444D+04
 0.360231421812082D+03 -.288529413484990D+03 0.186299544976397D+03 0.108673521873314D+03
0.673336059473D-01 0.000000000000D+00 0.000000000000D+00 0.317119392814D-03 0.000000000000D+00  6 2 1 25 2 1 21 0 0.63193098D+00 0.84634931D-01 0.23979794D+06 0.23979794D+06 0.23979794D+06 0.10918230D+01  1  2  2  2  6  2        1 0.109168682718D-01 0.100000000000D+01
0.493281718770D-01 0.000000000000D+00 -.258578776183D-03 0.317119392814D-03 0.000000000000D+00  6 2 1 25 2 1 21 2 0.63193098D+00 0.84634931D-01 0.23979794D+06 0.23979794D+06 0.23979794D+06 0.10918230D+01  1  2  3  2  6  2        1 0.953379198859D-02 0.100000000000D+01
-.438824706880D-01 0.000000000000D+00 0.000000000000D+00 0.317119392814D-03 0.000000000000D+00  6 2 1 25 2 1 21 2 0.63193098D+00 0.84634931D-01 0.23979794D+06 0.23979794D+06 0.23979794D+06 0.10918230D+01  1  2 15  2  6  2        1 -.848128628256D-02 0.100000000000D+01
-.267365462195D-03 0.000000000000D+00 0.000000000000D+00 0.317119392814D-03 0.000000000000D+00  6 2 1 25 2 1 21 2 0.63193098D+00 0.84634931D-01 0.23979794D+06 0.23979794D+06 0.23979794D+06 0.10918230D+01  1  2  4  2  6  2        1 -.516744611548D-04 0.100000000000D+01
  </mgrwgt>
  </event>
  <event>
  5     66 0.18337608E-05 0.31420745E+02 0.75467711E-02 0.94349687E-01
        2 -1    0    0  501    0 0.00000000E+00 0.00000000E+00 0.10187515E+04 0.10187516E+04 0.32000000E+00 0.0000E+00 0.9000E+01
        1 -1    0    0  502    0 -.00000000E+00 -.00000000E+00 -.19893993E+04 0.19893993E+04 0.32000000E+00 0.0000E+00 0.9000E+01
       25  1    1    2    0    0 0.19118129E+02 0.50414654E+03 -.47964370E+03 0.70725690E+03 0.12500000E+03 0.0000E+00 0.9000E+01
        2  1    1    2  501    0 -.16558065E+02 -.47283217E+03 0.84290804E+03 0.96661187E+03 0.32000000E+00 0.0000E+00 0.9000E+01
        1  1    1    2  502    0 -.25600635E+01 -.31314376E+02 -.13339121E+04 0.13342821E+04 0.32000000E+00 0.0000E+00 0.9000E+01
#aMCatNLO 1  0  0  5  2 0.43010336D+01 0.00000000D+00  -5  6  0 0.00000000D+00 0.00000000D+00 0.00000000D+00 0.00000000D+00 0.00000000D+00
  <mgrwgt>
 0.3117495651D-01    9    2    0
 0.142362343277700D+04 0.000000000000000D+00 0.000000000000000D+00 0.142362343277700D+04
 0.142362343277700D+04 -.000000000000000D+00 -.000000000000000D+00 -.142362343277700D+04
 0.583687403923497D+03 0.191181215725826D+02 0.504143985830722D+03 -.265592402898126D+03
 0.130857849127333D+04 -.165579093715135D+02 -.472827719221872D+03 0.122005633123879D+04
 0.954980970357175D+03 -.256021220106893D+01 -.313162666088481D+02 -.954463928340668D+03
 0.000000000000000D+00 0.000000000000000D+00 -.000000000000000D+00 0.000000000000000D+00
 0.142362343277700D+04 0.000000000000000D+00 0.000000000000000D+00 0.142362343277700D+04
 0.142362343277700D+04 -.000000000000000D+00 -.000000000000000D+00 -.142362343277700D+04
 0.583690816674577D+03 0.191181001142327D+02 0.504143723354273D+03 -.265600402711945D+03
 0.130856198301565D+04 -.165579574789007D+02 -.472828307666753D+03 0.122003839648880D+04
 0.519487159789314D+03 -.362020410533996D+01 -.133572654627827D+02 -.519302789100502D+03
 0.435506906074460D+03 0.106006147000812D+01 -.179581502247361D+02 -.435135204676356D+03
0.180308354799D-04 0.000000000000D+00 0.000000000000D+00 0.224194149342D-03 0.000000000000D+00  6 2 1 25 2 1 21 0 0.15673101D+00 0.30606144D+00 0.26229734D+06 0.26229734D+06 0.26229734D+06 0.10888937D+01  1  2  2  4  6  5        1 0.205148986443D-04 0.100000000000D+01
0.109592138926D-04 0.000000000000D+00 -.692431558709D-07 0.224194149342D-03 0.000000000000D+00  6 2 1 25 2 1 21 2 0.15673101D+00 0.30606144D+00 0.26229734D+06 0.26229734D+06 0.26229734D+06 0.10888937D+01  1  2  3  4  6  5        1 0.147844076402D-04 0.100000000000D+01
-.116091610250D-04 0.000000000000D+00 0.000000000000D+00 0.224194149342D-03 0.000000000000D+00  6 2 1 25 2 1 21 2 0.15673101D+00 0.30606144D+00 0.26229734D+06 0.26229734D+06 0.26229734D+06 0.10888937D+01  1  2 15  4  6  5        1 -.156612117106D-04 0.100000000000D+01
0.694820848860D-02 0.000000000000D+00 0.000000000000D+00 0.224194149342D-03 0.000000000000D+00  6 2 1 25 2 1 21 2 0.15673101D+00 0.30606144D+00 0.26250642D+06 0.26250642D+06 0.26250642D+06 0.10888678D+01  1  2 12  4  6  5        1 0.937240046838D-02 0.100000000000D+01
0.104555134868D-09 0.000000000000D+00 0.000000000000D+00 0.224194149342D-03 0.000000000000D+00  6 2 1 25 2 1 21 2 0.15673101D+00 0.30606144D+00 0.26250642D+06 0.26250642D+06 0.26250642D+06 0.10888678D+01  1  2 12  4  6  5        1 0.141033850182D-09 0.100000000000D+01
-.304986081736D-01 0.000000000000D+00 0.000000000000D+00 0.224194149342D-03 0.000000000000D+00  6 2 1 25 2 1 21 2 0.15673101D+00 0.30606144D+00 0.26229734D+06 0.26229734D+06 0.26229734D+06 0.10888937D+01  1  2  4  4  6  5        1 -.411438137913D-01 0.100000000000D+01
-.446718843755D-01 0.000000000000D+00 0.000000000000D+00 0.224194149342D-03 0.000000000000D+00  6 2 1 25 2 1 21 2 0.15673101D+00 0.30606144D+00 0.26229734D+06 0.26229734D+06 0.26229734D+06 0.10888937D+01  1  2  5  4  6  5        1 -.602641170374D-01 0.100000000000D+01
0.689436543412D-01 0.000000000000D+00 -.000000000000D+00 0.224194149342D-03 0.000000000000D+00  6 2 1 25 2 1 21 2 0.15673101D+00 0.30606144D+00 0.26229734D+06 0.26229734D+06 0.26229734D+06 0.10888937D+01  1  2  6  4  6  5        1 0.930076828477D-01 0.100000000000D+01
0.223762236216D-01 0.000000000000D+00 0.000000000000D+00 0.224194149342D-03 0.165098087995D-04  6 2 1 25 2 1 21 2 0.15673101D+00 0.30606144D+00 0.26250642D+06 0.26250642D+06 0.26250642D+06 0.10888678D+01  1  2 11  4  6  5        1 0.301831657896D-01 0.100000000000D+01
  </mgrwgt>
  </event>
  <event>
  5     66 0.18337608E-05 0.52913466E+02 0.75467711E-02 0.95219470E-01
        2 -1    0    0  501    0 0.00000000E+00 0.00000000E+00 0.30840362E+03 0.30840379E+03 0.32000000E+00 0.0000E+00 0.9000E+01
        1 -1    0    0  502    0 0.00000000E+00 0.00000000E+00 -.20636631E+04 0.20636631E+04 0.32000000E+00 0.0000E+00 0.9000E+01
       25  1    1    2    0    0 0.45841442E+03 -.36176840E+02 -.83121012E+03 0.95811680E+03 0.12500000E+03 0.0000E+00 0.9000E+01
        2  1    1    2  501    0 -.41466513E+03 0.65931074E+02 0.63792409E+02 0.42469242E+03 0.32000000E+00 0.0000E+00 0.9000E+01
        1  1    1    2  502    0 -.43749290E+02 -.29754234E+02 -.98784175E+03 0.98925767E+03 0.32000000E+00 0.0000E+00 0.9000E+01
#aMCatNLO 1  0  0  2  5 0.23781105D+02 0.00000000D+00  -5  6  0 0.00000000D+00 0.00000000D+00 0.00000000D+00 0.00000000D+00 0.00000000D+00
  <mgrwgt>
 0.9976734512D-02    7    2    0
 0.797772774165280D+03 0.000000000000000D+00 0.000000000000000D+00 0.797772774165280D+03
 0.797772774165280D+03 0.000000000000000D+00 0.000000000000000D+00 -.797772774165280D+03
 0.509978723163654D+03 0.458410084867241D+03 -.361730419538259D+02 -.181672791599200D+03
 0.701545404227987D+03 -.414656501229105D+03 0.659297018542696D+02 0.562031328837864D+03
 0.384021420938918D+03 -.437535836381363D+02 -.297566599004437D+02 -.380358537238663D+03
 0.000000000000000D+00 0.000000000000000D+00 0.000000000000000D+00 -.000000000000000D+00
 0.100323106515321D+04 0.000000000000000D+00 0.000000000000000D+00 0.100323106515321D+04
 0.103476753390060D+04 0.000000000000000D+00 0.000000000000000D+00 -.103476753390060D+04
 0.497180519609263D+03 0.418891810527587D+03 -.151947744124125D+03 -.181672791599200D+03
 0.740198725403984D+03 -.471226741189884D+03 -.998012869756201D+02 0.562031328837864D+03
 0.405950966497082D+03 -.747500181657054D+02 -.120565356275367D+03 -.380358537238663D+03
 0.394668387543487D+03 0.127084948828002D+03 0.372314387375111D+03 -.315364687473927D+02
0.158038366198D-02 0.000000000000D+00 0.000000000000D+00 0.835379185725D-05 0.000000000000D+00  6 2 1 25 2 1 21 0 0.47446726D-01 0.31748664D+00 0.22529295D+06 0.22529295D+06 0.22529295D+06 0.10938753D+01  1  2  2  2  6  2        1 0.673478138633D-02 0.100000000000D+01
0.470876572995D-03 0.000000000000D+00 -.606908938657D-05 0.835379185725D-05 0.000000000000D+00  6 2 1 25 2 1 21 2 0.47446726D-01 0.31748664D+00 0.22529295D+06 0.22529295D+06 0.22529295D+06 0.10938753D+01  1  2  3  2  6  2        1 0.240106368647D-02 0.100000000000D+01
-.104468079972D-02 0.000000000000D+00 0.000000000000D+00 0.835379185725D-05 0.000000000000D+00  6 2 1 25 2 1 21 2 0.47446726D-01 0.31748664D+00 0.22529295D+06 0.22529295D+06 0.22529295D+06 0.10938753D+01  1  2 15  2  6  2        1 -.532696947781D-02 0.100000000000D+01
-.288662236117D-04 0.000000000000D+00 0.000000000000D+00 0.835379185725D-05 0.000000000000D+00  6 2 1 25 2 1 21 2 0.47446726D-01 0.31748664D+00 0.22529295D+06 0.22529295D+06 0.22529295D+06 0.10938753D+01  1  2  4  2  6  2        1 -.147192800098D-03 0.100000000000D+01
-.126570867114D-02 0.000000000000D+00 -.936653635061D-03 0.835379185725D-05 0.000000000000D+00  6 2 1 25 2 1 21 2 0.47446726D-01 0.45181304D+00 0.22529295D+06 0.22529295D+06 0.22529295D+06 0.10938753D+01  1  2  5  2  6  2        1 -.159993453284D-02 0.100000000000D+01
0.155388481444D-02 0.000000000000D+00 0.881229665650D-03 0.835379185725D-05 0.000000000000D+00  6 2 1 25 2 1 21 2 0.47446726D-01 0.31748664D+00 0.22529295D+06 0.22529295D+06 0.22529295D+06 0.10938753D+01  1  2  6  2  6  2        1 0.792347000230D-02 0.100000000000D+01
-.281946109687D-04 0.000000000000D+00 -.406983067377D-04 0.835379185725D-05 0.000000000000D+00  6 2 21 25 2 1 -1 2 0.47446726D-01 0.45181304D+00 0.22529295D+06 0.22529295D+06 0.22529295D+06 0.10938753D+01  1  2  5  6  6  2        1 -.848375224659D-05 0.100000000000D+01
  </mgrwgt>
  </event>
  <event>
  5     66 0.18337608E-05 0.13707710E+03 0.75467711E-02 0.89289644E-01
        2 -1    0    0  501    0 0.00000000E+00 0.00000000E+00 0.35008673E+04 0.35008673E+04 0.32000000E+00 0.0000E+00 0.9000E+01
        1 -1    0    0  502    0 0.00000000E+00 0.00000000E+00 -.98377956E+03 0.98377962E+03 0.32000000E+00 0.0000E+00 0.9000E+01
       25  1    1    2    0    0 -.56163520E+03 -.32124897E+03 0.72096610E+03 0.97675591E+03 0.12500000E+03 0.0000E+00 0.9000E+01
        2  1    1    2  501    0 0.10994141E+03 0.81884655E+02 0.25736880E+04 0.25773363E+04 0.32000000E+00 0.0000E+00 0.9000E+01
        1  1    1    2  502    0 0.45169379E+03 0.23936432E+03 -.77756637E+03 0.93055474E+03 0.32000000E+00 0.0000E+00 0.9000E+01
#aMCatNLO 1  0  0  1  4 0.31018952D+01 0.00000000D+00  -5  6  0 0.00000000D+00 0.00000000D+00 0.00000000D+00 0.00000000D+00 0.00000000D+00
  <mgrwgt>
 0.4405113266D-02    7    2    0
 0.185582376582806D+04 0.000000000000000D+00 0.000000000000000D+00 0.185582376582806D+04
 0.185582376582806D+04 0.000000000000000D+00 0.000000000000000D+00 -.185582376582806D+04
 0.691305058060283D+03 -.561665774424683D+03 -.321264127150076D+03 0.208802781940642D+03
 0.136865458938699D+04 0.109935326802022D+03 0.818801241483722D+02 0.136177283503544D+04
 0.165168788420884D+04 0.451730447622661D+03 0.239384003001704D+03 -.157057561697608D+04
 0.000000000000000D+00 -.000000000000000D+00 0.000000000000000D+00 0.000000000000000D+00
 0.206604187154898D+04 0.000000000000000D+00 0.000000000000000D+00 0.206604187154898D+04
 0.194964266568342D+04 0.000000000000000D+00 0.000000000000000D+00 -.194964266568342D+04
 0.684220896897809D+03 -.529074233175508D+03 -.359186706039128D+03 0.208802781940642D+03
 0.137297238627378D+04 0.174895096077929D+03 0.629480720536009D+01 0.136177283503544D+04
 0.166427694806442D+04 0.530298506787448D+03 0.147964471809337D+03 -.157057561697608D+04
 0.294214305996400D+03 -.176119369689869D+03 0.204927427024431D+03 0.116399205865560D+03
0.928817279933D-02 0.000000000000D+00 0.000000000000D+00 0.407780848528D-04 0.000000000000D+00  6 2 1 25 2 1 21 0 0.53859497D+00 0.15135071D+00 0.42728015D+06 0.42728015D+06 0.42728015D+06 0.10733681D+01  1  2  2  1  6  1        2 0.168990605406D-02 0.100000000000D+01
0.219236028663D-02 0.000000000000D+00 -.356690291815D-04 0.407780848528D-04 0.000000000000D+00  6 2 1 25 2 1 21 2 0.53859497D+00 0.15135071D+00 0.42728015D+06 0.42728015D+06 0.42728015D+06 0.10733681D+01  1  2  3  1  6  1        2 0.459559352803D-03 0.100000000000D+01
-.620759142909D-02 0.000000000000D+00 0.000000000000D+00 0.407780848528D-04 0.000000000000D+00  6 2 1 25 2 1 21 2 0.53859497D+00 0.15135071D+00 0.42728015D+06 0.42728015D+06 0.42728015D+06 0.10733681D+01  1  2 15  1  6  1        2 -.130122622500D-02 0.100000000000D+01
-.113898796564D-03 0.000000000000D+00 0.000000000000D+00 0.407780848528D-04 0.000000000000D+00  6 2 1 25 2 1 21 2 0.53859497D+00 0.15135071D+00 0.42728015D+06 0.42728015D+06 0.42728015D+06 0.10733681D+01  1  2  4  1  6  1        2 -.238752989430D-04 0.100000000000D+01
-.299180253031D-01 0.000000000000D+00 -.973666323954D-02 0.407780848528D-04 0.000000000000D+00  6 2 1 25 2 1 21 2 0.60614948D+00 0.15135071D+00 0.42728015D+06 0.42728015D+06 0.42728015D+06 0.10733681D+01  1  2  5  1  6  1        2 -.291050297098D-02 0.100000000000D+01
0.309717999875D-01 0.000000000000D+00 0.985669670983D-02 0.407780848528D-04 0.000000000000D+00  6 2 1 25 2 1 21 2 0.53859497D+00 0.15135071D+00 0.42728015D+06 0.42728015D+06 0.42728015D+06 0.10733681D+01  1  2  6  1  6  1        2 0.649226335845D-02 0.100000000000D+01
-.516561338338D-03 0.000000000000D+00 -.182357167028D-03 0.407780848528D-04 0.000000000000D+00  6 21 1 25 2 1 -2 2 0.60614948D+00 0.15135071D+00 0.42728015D+06 0.42728015D+06 0.42728015D+06 0.10733681D+01  1  2  5  5  6  1        2 -.101100470433D-05 0.100000000000D+01
  </mgrwgt>
  </event>
  <event>
  6     66 -.18337608E-05 0.13272478E+03 0.75467711E-02 0.91642961E-01
        2 -1    0    0  501    0 0.00000000E+00 0.00000000E+00 0.69445346E+03 0.69445353E+03 0.32000000E+00 0.0000E+00 0.9000E+01
        1 -1    0    0  502    0 -.00000000E+00 -.00000000E+00 -.22368064E+04 0.22368064E+04 0.32000000E+00 0.0000E+00 0.9000E+01
       25  1    1    2    0    0 -.47629070E+03 0.40390323E+03 0.14628859E+03 0.65346461E+03 0.12500000E+03 0.0000E+00 0.9000E+01
        2  1    1    2  501    0 0.10240422E+02 -.13703493E+03 0.23934571E+03 0.27598897E+03 0.32000000E+00 0.0000E+00 0.9000E+01
        1  1    1    2  503    0 0.44698236E+03 -.24850896E+03 -.18530600E+04 0.19223375E+04 0.32000000E+00 0.0000E+00 0.9000E+01
       21  1    1    2  502  503 0.19067918E+02 -.18359331E+02 -.74927265E+02 0.79468912E+02 0.75000000E+00 0.0000E+00 0.9000E+01
#aMCatNLO 2  0  0  5  2 0.80124345D+01 0.00000000D+00  -5  6  0 0.00000000D+00 0.00000000D+00 0.00000000D+00 0.00000000D+00 0.00000000D+00
  <mgrwgt>
 -.8542561354D-03    6    2    0
 0.124633787182793D+04 0.000000000000000D+00 0.000000000000000D+00 0.124633787182793D+04
 0.124633787182793D+04 -.000000000000000D+00 -.000000000000000D+00 -.124633787182793D+04
 0.859328319389442D+03 -.476441129472131D+03 0.403945496871104D+03 0.576759955449024D+03
 0.472572743675532D+03 0.101817500175521D+02 -.136952011353142D+03 0.452178589296230D+03
 0.116077468059089D+04 0.466259379454579D+03 -.266993485517962D+03 -.102893854474525D+04
 0.000000000000000D+00 0.000000000000000D+00 -.000000000000000D+00 0.000000000000000D+00
 0.124633787182793D+04 0.000000000000000D+00 0.000000000000000D+00 0.124633787182793D+04
 0.124633787182793D+04 -.000000000000000D+00 -.000000000000000D+00 -.124633787182793D+04
 0.859098445727821D+03 -.476341388438232D+03 0.403888382296120D+03 0.576539847503118D+03
 0.472467212670187D+03 0.102366020858711D+02 -.136983421219739D+03 0.452057542064068D+03
 0.111434184174420D+04 0.447164224048004D+03 -.248612232168991D+03 -.989946389967337D+03
 0.467682435136498D+02 0.189405623043565D+02 -.182927289073904D+02 -.386509995998494D+02
-.233292798422D-02 0.000000000000D+00 0.000000000000D+00 0.114403700883D-05 0.000000000000D+00  6 2 1 25 2 1 21 2 0.10683900D+00 0.34412407D+00 0.43048955D+06 0.43048955D+06 0.43048955D+06 0.10731353D+01  1  2 13  4  6  5        1 -.334066556908D-02 0.100000000000D+01
-.205758219486D-07 0.000000000000D+00 0.000000000000D+00 0.114403700883D-05 0.000000000000D+00  6 2 1 25 2 1 21 2 0.10683900D+00 0.34412407D+00 0.43048955D+06 0.43048955D+06 0.43048955D+06 0.10731353D+01  1  2 13  4  6  5        1 -.294638070288D-07 0.100000000000D+01
-.445249588609D-02 0.000000000000D+00 0.000000000000D+00 0.114403700883D-05 0.000000000000D+00  6 2 1 25 2 1 21 2 0.10683900D+00 0.34412407D+00 0.43010085D+06 0.43010085D+06 0.43010085D+06 0.10731634D+01  1  2  8  4  6  5        1 -.637654563189D-02 0.100000000000D+01
-.659940705152D-02 0.000000000000D+00 0.000000000000D+00 0.114403700883D-05 0.000000000000D+00  6 2 1 25 2 1 21 2 0.10683900D+00 0.34412407D+00 0.43010085D+06 0.43010085D+06 0.43010085D+06 0.10731634D+01  1  2  9  4  6  5        1 -.945119799862D-02 0.100000000000D+01
0.687065272725D-02 0.000000000000D+00 0.000000000000D+00 0.114403700883D-05 0.000000000000D+00  6 2 1 25 2 1 21 2 0.10683900D+00 0.34412407D+00 0.43010085D+06 0.43010085D+06 0.43010085D+06 0.10731634D+01  1  2 10  4  6  5        1 0.983965662340D-02 0.100000000000D+01
0.591811967618D-02 0.000000000000D+00 0.000000000000D+00 0.114403700883D-05 0.654513674547D-07  6 2 1 25 2 1 21 2 0.10683900D+00 0.34412407D+00 0.43048955D+06 0.43048955D+06 0.43048955D+06 0.10731353D+01  1  2  1  4  6  5        1 0.847452590464D-02 0.100000000000D+01
  </mgrwgt>
  </event>
  <event>
  5     66 0.18337608E-05 0.32751815E+02 0.75467711E-02 0.87988749E-01
        2 -1    0    0  501    0 0.00000000E+00 0.00000000E+00 0.17394564E+04 0.17394564E+04 0.32000000E+00 0.0000E+00 0.9000E+01
        1 -1    0    0  502    0 0.00000000E+00 0.00000000E+00 -.12477406E+04 0.12477406E+04 0.32000000E+00 0.0000E+00 0.9000E+01
       25  1    1    2    0    0 0.15447435E+03 0.91566725E+03 0.25143329E+03 0.97013016E+03 0.12500000E+03 0.0000E+00 0.9000E+01
        2  1    1    2  501    0 0.21204789E+02 -.24969087E+02 0.89635966E+03 0.89695811E+03 0.32000000E+00 0.0000E+00 0.9000E+01
        1  1    1    2  502    0 -.17567914E+03 -.89069816E+03 -.65607713E+03 0.11201088E+04 0.32000000E+00 0.0000E+00 0.9000E+01
#aMCatNLO 1  0  0  1  1 0.31889042D+00 0.00000000D+00  -5  6  0 0.00000000D+00 0.00000000D+00 0.00000000D+00 0.00000000D+00 0.00000000D+00
  <mgrwgt>
 0.7132848776D-02    9    2    0
 0.147322450518811D+04 0.000000000000000D+00 0.000000000000000D+00 0.147322450518811D+04
 0.147322450518811D+04 0.000000000000000D+00 0.000000000000000D+00 -.147322450518811D+04
 0.941688400996324D+03 0.154495051078877D+03 0.915757329254924D+03 0.931227022752098D+02
 0.759626659362244D+03 0.212006690306706D+02 -.249642352424128D+02 0.758920272627670D+03
 0.124513395001765D+04 -.175695720109548D+03 -.890793094012511D+03 -.852042974902879D+03
 0.000000000000000D+00 0.000000000000000D+00 -.000000000000000D+00 0.000000000000000D+00
 0.148159123538855D+04 0.000000000000000D+00 0.000000000000000D+00 0.148159123538855D+04
 0.147322755237522D+04 0.000000000000000D+00 0.000000000000000D+00 -.147322755237522D+04
 0.941730764817897D+03 0.154411056828251D+03 0.915815058434096D+03 0.931227022752098D+02
 0.759623242481299D+03 0.211329155218735D+02 -.249176683117036D+02 0.758920272627670D+03
 0.124509502033357D+04 -.175806776065678D+03 -.890716765345469D+03 -.852042974902879D+03
 0.836976013099859D+01 0.262803715553572D+00 -.180624776923955D+00 0.836368301333246D+01
0.963565803568D-05 0.000000000000D+00 0.000000000000D+00 0.695720206101D-05 0.000000000000D+00  6 2 1 25 2 1 21 0 0.26760868D+00 0.19196009D+00 0.88151346D+06 0.88151346D+06 0.88151346D+06 0.10515295D+01  1  2  2  1  6  1        2 0.123762948562D-04 0.100000000000D+01
0.717949522593D-05 0.000000000000D+00 -.370034639840D-07 0.695720206101D-05 0.000000000000D+00  6 2 1 25 2 1 21 2 0.26760868D+00 0.19196009D+00 0.88151346D+06 0.88151346D+06 0.88151346D+06 0.10515295D+01  1  2  3  1  6  1        2 0.101963812610D-04 0.100000000000D+01
-.579831724422D-05 0.000000000000D+00 0.000000000000D+00 0.695720206101D-05 0.000000000000D+00  6 2 1 25 2 1 21 2 0.26760868D+00 0.19196009D+00 0.88151346D+06 0.88151346D+06 0.88151346D+06 0.10515295D+01  1  2 15  1  6  1        2 -.823482033674D-05 0.100000000000D+01
-.618711519174D-01 0.000000000000D+00 0.000000000000D+00 0.695720206101D-05 0.000000000000D+00  6 2 1 25 2 1 21 2 0.26760868D+00 0.19196009D+00 0.88151346D+06 0.88151346D+06 0.88151346D+06 0.10515295D+01  1  2  4  1  6  1        2 -.878699454699D-01 0.100000000000D+01
-.433030453399D+00 0.000000000000D+00 -.314191025724D-03 0.695720206101D-05 0.000000000000D+00  6 2 1 25 2 1 21 2 0.26912869D+00 0.19196009D+00 0.88151346D+06 0.88151346D+06 0.88151346D+06 0.10515295D+01  1  2  5  1  6  1        2 -.607287323366D+00 0.100000000000D+01
0.433025292326D+00 0.000000000000D+00 0.314185986233D-03 0.695720206101D-05 0.000000000000D+00  6 2 1 25 2 1 21 2 0.26760868D+00 0.19196009D+00 0.88151346D+06 0.88151346D+06 0.88151346D+06 0.10515295D+01  1  2  6  1  6  1        2 0.614986268150D+00 0.100000000000D+01
0.622446289581D-01 0.000000000000D+00 0.000000000000D+00 0.695720206101D-05 0.543734625535D-02  6 2 1 25 2 1 21 2 0.26912849D+00 0.19196049D+00 0.88172823D+06 0.88172823D+06 0.88172823D+06 0.10515223D+01  1  2 11  1  6  1        2 0.872897000572D-01 0.100000000000D+01
-.455982741669D-03 0.000000000000D+00 -.330847087869D-06 0.695720206101D-05 0.000000000000D+00  6 21 1 25 2 1 -2 2 0.26912869D+00 0.19196009D+00 0.88151346D+06 0.88151346D+06 0.88151346D+06 0.10515295D+01  1  2  5  5  6  1        2 -.158637064343D-03 0.100000000000D+01
0.455461034166D-03 0.000000000000D+00 0.000000000000D+00 0.695720206101D-05 0.427252359774D-06  6 21 1 25 2 1 -2 2 0.26912849D+00 0.19196049D+00 0.88172823D+06 0.88172823D+06 0.88172823D+06 0.10515223D+01  1  2 11  5  6  1        2 0.158448613395D-03 0.100000000000D+01
  </mgrwgt>
  </event>
  <event>
  5     66 0.18337608E-05 0.95804266E+02 0.75467711E-02 0.92782678E-01
        2 -1    0    0  501    0 0.00000000E+00 0.00000000E+00 0.30752204E+04 0.30752204E+04 0.32000000E+00 0.0000E+00 0.9000E+01
        1 -1    0    0  502    0 0.00000000E+00 0.00000000E+00 -.15505776E+03 0.15505809E+03 0.32000000E+00 0.0000E+00 0.9000E+01
       25  1    1    2    0    0 0.52727601E+03 -.50334616E+02 0.10435868E+04 0.11769673E+04 0.12500000E+03 0.0000E+00 0.9000E+01
        2  1    1    2  501    0 0.96875437E+01 0.95381999E+02 0.11219933E+04 0.11260820E+04 0.32000000E+00 0.0000E+00 0.9000E+01
        1  1    1    2  502    0 -.53696356E+03 -.45047383E+02 0.75458247E+03 0.92722917E+03 0.32000000E+00 0.0000E+00 0.9000E+01
#aMCatNLO 1  0  0  4  1 0.72300967D+01 0.00000000D+00  -5  6  0 0.00000000D+00 0.00000000D+00 0.00000000D+00 0.00000000D+00 0.00000000D+00
  <mgrwgt>
 0.2007165868D-02    9    2    0
 0.690534100661866D+03 0.000000000000000D+00 0.000000000000000D+00 0.690534100661866D+03
 0.690534100661866D+03 -.000000000000000D+00 -.000000000000000D+00 -.690534100661866D+03
 0.546414968010631D+03 0.527399104288590D+03 -.502947608537389D+02 -.475913762389565D+02
 0.261317638109346D+03 0.968062899425421D+01 0.953139175689251D+02 0.243122295413208D+03
 0.573335595203755D+03 -.537079733282844D+03 -.450191567151863D+02 -.195530919174251D+03
 0.000000000000000D+00 0.000000000000000D+00 0.000000000000000D+00 0.000000000000000D+00
 0.690534100661866D+03 0.000000000000000D+00 0.000000000000000D+00 0.690534100661866D+03
 0.690534100661866D+03 -.000000000000000D+00 -.000000000000000D+00 -.690534100661866D+03
 0.546393310810145D+03 0.527409311809016D+03 -.501942592477913D+02 -.473350214299853D+02
 0.457381011331073D+02 -.445415189795229D+01 0.129887526739353D+02 0.436282790184035D+02
 0.573225617609366D+03 -.537069023676020D+03 -.449137116472470D+02 -.195261954812999D+03
 0.215711171771115D+03 0.141138637649563D+02 0.821192182211029D+02 0.198968697224580D+03
0.294924122291D-04 0.000000000000D+00 0.000000000000D+00 0.906185348028D-07 0.000000000000D+00  6 2 1 25 2 1 21 0 0.47311086D+00 0.23855067D-01 0.34757273D+06 0.34757273D+06 0.34757273D+06 0.10798539D+01  1  2  2  3  6  4        2 0.145134274172D-03 0.100000000000D+01
0.434099506784D-05 0.000000000000D+00 -.113258628490D-06 0.906185348028D-07 0.000000000000D+00  6 2 1 25 2 1 21 2 0.47311086D+00 0.23855067D-01 0.34757273D+06 0.34757273D+06 0.34757273D+06 0.10798539D+01  1  2  3  3  6  4        2 0.249103016740D-04 0.100000000000D+01
-.215573815843D-04 0.000000000000D+00 0.000000000000D+00 0.906185348028D-07 0.000000000000D+00  6 2 1 25 2 1 21 2 0.47311086D+00 0.23855067D-01 0.34757273D+06 0.34757273D+06 0.34757273D+06 0.10798539D+01  1  2 15  3  6  4        2 -.123704558558D-03 0.100000000000D+01
0.299150430591D-03 0.000000000000D+00 0.000000000000D+00 0.906185348028D-07 0.000000000000D+00  6 2 1 25 2 1 21 2 0.47311086D+00 0.23855067D-01 0.34829908D+06 0.34829908D+06 0.34829908D+06 0.10797877D+01  1  2 12  3  6  4        2 0.171620894419D-02 0.100000000000D+01
0.569668763908D-06 0.000000000000D+00 0.000000000000D+00 0.906185348028D-07 0.000000000000D+00  6 2 1 25 2 1 21 2 0.47311086D+00 0.23855067D-01 0.34829908D+06 0.34829908D+06 0.34829908D+06 0.10797877D+01  1  2 12  3  6  4        2 0.326815718070D-05 0.100000000000D+01
-.394381087542D-03 0.000000000000D+00 0.000000000000D+00 0.906185348028D-07 0.000000000000D+00  6 2 1 25 2 1 21 2 0.47311086D+00 0.23855067D-01 0.34757273D+06 0.34757273D+06 0.34757273D+06 0.10798539D+01  1  2  4  3  6  4        2 -.226311057987D-02 0.100000000000D+01
-.309224869391D-03 0.000000000000D+00 0.000000000000D+00 0.906185348028D-07 0.000000000000D+00  6 2 1 25 2 1 21 2 0.47311086D+00 0.23855067D-01 0.34757273D+06 0.34757273D+06 0.34757273D+06 0.10798539D+01  1  2  5  3  6  4        2 -.177445140141D-02 0.100000000000D+01
0.738185341082D-03 0.000000000000D+00 -.000000000000D+00 0.906185348028D-07 0.000000000000D+00  6 2 1 25 2 1 21 2 0.47311086D+00 0.23855067D-01 0.34757273D+06 0.34757273D+06 0.34757273D+06 0.10798539D+01  1  2  6  3  6  4        2 0.423599180611D-02 0.100000000000D+01
0.748114889971D-05 0.000000000000D+00 0.000000000000D+00 0.906185348028D-07 0.838311275759D-09  6 2 1 25 2 1 21 2 0.47311086D+00 0.23855067D-01 0.34829908D+06 0.34829908D+06 0.34829908D+06 0.10797877D+01  1  2 11  3  6  4        2 0.429189241986D-04 0.100000000000D+01
  </mgrwgt>
  </event>
  <event>
  5     66 -.18337608E-05 0.32485514E+03 0.75467711E-02 0.91471212E-01
        2 -1    0    0  501    0 0.00000000E+00 0.00000000E+00 0.20788169E+04 0.20788169E+04 0.32000000E+00 0.0000E+00 0.9000E+01
        1 -1    0    0  502    0 0.00000000E+00 0.00000000E+00 -.57774736E+03 0.57774745E+03 0.32000000E+00 0.0000E+00 0.9000E+01
       25  1    1    2    0    0 -.65041437E+03 -.81717211E+02 0.83499805E+03 0.10689075E+04 0.12500000E+03 0.0000E+00 0.9000E+01
        2  1    1    2  501    0 0.34166332E+03 -.19131509E+02 0.10385372E+04 0.10934621E+04 0.32000000E+00 0.0000E+00 0.9000E+01
        1  1    1    2  502    0 0.30875105E+03 0.10084872E+03 -.37246566E+03 0.49419475E+03 0.32000000E+00 0.0000E+00 0.9000E+01
#aMCatNLO 1  0  0  5  2 0.26415584D+02 0.00000000D+00  -5  6  0 0.00000000D+00 0.00000000D+00 0.00000000D+00 0.00000000D+00 0.00000000D+00
  <mgrwgt>
 -.2801870808D-02    8    2    0
 0.109591565749643D+04 0.000000000000000D+00 0.000000000000000D+00 0.109591565749643D+04
 0.109591565749643D+04 -.000000000000000D+00 -.000000000000000D+00 -.109591565749643D+04
 0.723750376243718D+03 -.650391513379673D+03 -.817346530712385D+02 0.280178394820061D+03
 0.613939249758898D+03 0.341591098193704D+03 -.191274642774999D+02 0.509775503667694D+03
 0.854141688990239D+03 0.308800415185969D+03 0.100862117348738D+03 -.789953898487754D+03
 0.000000000000000D+00 0.000000000000000D+00 0.000000000000000D+00 -.000000000000000D+00
 0.109591565749643D+04 0.000000000000000D+00 0.000000000000000D+00 0.109591565749643D+04
 0.109591565749643D+04 -.000000000000000D+00 -.000000000000000D+00 -.109591565749643D+04
 0.723169173983209D+03 -.650089591850813D+03 -.816360377741842D+02 0.279406038058114D+03
 0.613535377561170D+03 0.341847229238488D+03 -.190438053242562D+02 0.509120285256704D+03
 0.681073491533273D+03 0.269141828006900D+03 0.883284052308825D+02 -.619372158008249D+03
 0.174053271915204D+03 0.391005346054243D+02 0.123514378675579D+02 -.169154165306568D+03
0.696137623890D-05 0.000000000000D+00 0.000000000000D+00 0.242018419419D-06 0.000000000000D+00  6 2 1 25 2 1 21 0 0.31981799D+00 0.88884218D-01 0.44508937D+06 0.44508937D+06 0.44508937D+06 0.10720995D+01  1  2  2  4  6  5        1 0.222097415543D-04 0.100000000000D+01
0.528655633502D-06 0.000000000000D+00 -.267335177298D-07 0.242018419419D-06 0.000000000000D+00  6 2 1 25 2 1 21 2 0.31981799D+00 0.88884218D-01 0.44508937D+06 0.44508937D+06 0.44508937D+06 0.10720995D+01  1  2  3  4  6  5        1 0.193861445718D-05 0.100000000000D+01
-.487694933609D-05 0.000000000000D+00 0.000000000000D+00 0.242018419419D-06 0.000000000000D+00  6 2 1 25 2 1 21 2 0.31981799D+00 0.88884218D-01 0.44508937D+06 0.44508937D+06 0.44508937D+06 0.10720995D+01  1  2 15  4  6  5        1 -.178840891702D-04 0.100000000000D+01
0.408277403236D-03 0.000000000000D+00 0.000000000000D+00 0.242018419419D-06 0.000000000000D+00  6 2 1 25 2 1 21 2 0.31981799D+00 0.88884218D-01 0.44466242D+06 0.44466242D+06 0.44466242D+06 0.10721293D+01  1  2 12  4  6  5        1 0.149735192214D-02 0.100000000000D+01
0.228080963939D-07 0.000000000000D+00 0.000000000000D+00 0.242018419419D-06 0.000000000000D+00  6 2 1 25 2 1 21 2 0.31981799D+00 0.88884218D-01 0.44466242D+06 0.44466242D+06 0.44466242D+06 0.10721293D+01  1  2 12  4  6  5        1 0.836483888286D-07 0.100000000000D+01
-.127276563249D-02 0.000000000000D+00 0.000000000000D+00 0.242018419419D-06 0.000000000000D+00  6 2 1 25 2 1 21 2 0.31981799D+00 0.88884218D-01 0.44508937D+06 0.44508937D+06 0.44508937D+06 0.10720995D+01  1  2  4  4  6  5        1 -.466731403086D-02 0.100000000000D+01
-.440366322527D-03 0.000000000000D+00 0.000000000000D+00 0.242018419419D-06 0.000000000000D+00  6 2 1 25 2 1 21 2 0.31981799D+00 0.88884218D-01 0.44508937D+06 0.44508937D+06 0.44508937D+06 0.10720995D+01  1  2  5  4  6  5        1 -.161485183398D-02 0.100000000000D+01
0.539012898560D-03 0.000000000000D+00 -.000000000000D+00 0.242018419419D-06 0.000000000000D+00  6 2 1 25 2 1 21 2 0.31981799D+00 0.88884218D-01 0.44508937D+06 0.44508937D+06 0.44508937D+06 0.10720995D+01  1  2  6  4  6  5        1 0.197659521914D-02 0.100000000000D+01
  </mgrwgt>
  </event>
  <event>
  5     66 0.18337608E-05 0.90280482E+02 0.75467711E-02 0.90926021E-01
        2 -1    0    0  501    0 0.00000000E+00 0.00000000E+00 0.21406828E+04 0.21406828E+04 0.32000000E+00 0.0000E+00 0.9000E+01
        1 -1    0    0  502    0 0.00000000E+00 0.00000000E+00 -.20150473E+04 0.20150473E+04 0.32000000E+00 0.0000E+00 0.9000E+01
       25  1    1    2    0    0 0.26116186E+03 0.63140466E+03 0.85116882E+03 0.10986313E+04 0.12500000E+03 0.0000E+00 0.9000E+01
        2  1    1    2  501    0 -.71529817E+02 -.55102323E+02 0.11152566E+04 0.11189057E+04 0.32000000E+00 0.0000E+00 0.9000E+01
        1  1    1    2  502    0 -.18963204E+03 -.57630234E+03 -.18407899E+04 0.19381930E+04 0.32000000E+00 0.0000E+00 0.9000E+01
#aMCatNLO 1  0  0  1  4 0.15220785D+02 0.00000000D+00  -5  6  0 0.00000000D+00 0.00000000D+00 0.00000000D+00 0.00000000D+00 0.00000000D+00
  <mgrwgt>
 0.8545237247D-03   11    2    0
 0.207691527120320D+04 0.000000000000000D+00 0.000000000000000D+00 0.207691527120320D+04
 0.207691527120320D+04 0.000000000000000D+00 0.000000000000000D+00 -.207691527120320D+04
 0.107352363183125D+04 0.261167021952675D+03 0.631440784329875D+03 0.818475601731294D+03
 0.108553815484435D+04 -.715200981522856D+02 -.550948364968460D+02 0.108177748182080D+04
 0.199476875573079D+04 -.189646923800389D+03 -.576345947833029D+03 -.190025308355210D+04
 0.000000000000000D+00 0.000000000000000D+00 -.000000000000000D+00 0.000000000000000D+00
 0.266346148087834D+04 0.000000000000000D+00 0.000000000000000D+00 0.266346148087834D+04
 0.207702796106769D+04 0.000000000000000D+00 0.000000000000000D+00 -.207702796106769D+04
 0.107486325127384D+04 0.258888041139422D+03 0.634650045666551D+03 0.818475601731294D+03
 0.108553257628782D+04 -.738231416959667D+02 -.518516900173156D+02 0.108177748182080D+04
 0.199346260133776D+04 -.193877587659421D+03 -.570388325955604D+03 -.190025308355210D+04
 0.586631013046611D+03 0.881268821596578D+01 -.124100296936312D+02 0.586433519810647D+03
0.222453774561D-04 0.000000000000D+00 0.000000000000D+00 0.586272781730D-04 0.000000000000D+00  6 2 1 25 2 1 21 0 0.32933581D+00 0.31000728D+00 0.48419684D+06 0.48419684D+06 0.48419684D+06 0.10694976D+01  1  2  2  1  6  1        2 0.541585629756D-05 0.100000000000D+01
0.592559718658D-05 0.000000000000D+00 -.854281067740D-07 0.586272781730D-04 0.000000000000D+00  6 2 1 25 2 1 21 2 0.32933581D+00 0.31000728D+00 0.48419684D+06 0.48419684D+06 0.48419684D+06 0.10694976D+01  1  2  3  1  6  1        2 0.165013349822D-05 0.100000000000D+01
-.152702138688D-04 0.000000000000D+00 0.000000000000D+00 0.586272781730D-04 0.000000000000D+00  6 2 1 25 2 1 21 2 0.32933581D+00 0.31000728D+00 0.48419684D+06 0.48419684D+06 0.48419684D+06 0.10694976D+01  1  2 15  1  6  1        2 -.425238007857D-05 0.100000000000D+01
0.357988110377D-01 0.000000000000D+00 0.000000000000D+00 0.586272781730D-04 0.000000000000D+00  6 2 1 25 2 1 21 2 0.43315438D+00 0.31000728D+00 0.49322469D+06 0.49322469D+06 0.49322469D+06 0.10689294D+01  1  2 12  1  6  1        2 0.401509110096D-02 0.100000000000D+01
0.590803339908D-09 0.000000000000D+00 0.000000000000D+00 0.586272781730D-04 0.000000000000D+00  6 2 1 25 2 1 21 2 0.42235214D+00 0.31000728D+00 0.49322469D+06 0.49322469D+06 0.49322469D+06 0.10689294D+01  1  2 12  1  6  1        2 0.731405985470D-10 0.100000000000D+01
-.326672573879D-01 0.000000000000D+00 0.000000000000D+00 0.586272781730D-04 0.000000000000D+00  6 2 1 25 2 1 21 2 0.32933581D+00 0.31000728D+00 0.48419684D+06 0.48419684D+06 0.48419684D+06 0.10694976D+01  1  2  4  1  6  1        2 -.909703005678D-02 0.100000000000D+01
-.406836918127D-01 0.000000000000D+00 -.175636964743D-04 0.586272781730D-04 0.000000000000D+00  6 2 1 25 2 1 21 2 0.42235006D+00 0.31000728D+00 0.48419684D+06 0.48419684D+06 0.48419684D+06 0.10694976D+01  1  2  5  1  6  1        2 -.505222368495D-02 0.100000000000D+01
0.394613508725D-01 0.000000000000D+00 0.170339443594D-04 0.586272781730D-04 0.000000000000D+00  6 2 1 25 2 1 21 2 0.32933581D+00 0.31000728D+00 0.48419684D+06 0.48419684D+06 0.48419684D+06 0.10694976D+01  1  2  6  1  6  1        2 0.109890184752D-01 0.100000000000D+01
0.129580427811D-02 0.000000000000D+00 0.000000000000D+00 0.586272781730D-04 0.000000000000D+00  6 21 1 25 2 1 -2 2 0.43315438D+00 0.31000728D+00 0.49322469D+06 0.49322469D+06 0.49322469D+06 0.10689294D+01  1  2 12  5  6  1        2 0.117124665257D-04 0.100000000000D+01
0.199215465667D-10 0.000000000000D+00 0.000000000000D+00 0.586272781730D-04 0.000000000000D+00  6 21 1 25 2 1 -2 2 0.42235214D+00 0.31000728D+00 0.49322469D+06 0.49322469D+06 0.49322469D+06 0.10689294D+01  1  2 12  5  6  1        2 0.214940055280D-12 0.100000000000D+01
-.137151861961D-02 0.000000000000D+00 -.592229058032D-06 0.586272781730D-04 0.000000000000D+00  6 21 1 25 2 1 -2 2 0.42235006D+00 0.31000728D+00 0.48419684D+06 0.48419684D+06 0.48419684D+06 0.10694976D+01  1  2  5  5  6  1        2 -.148582593119D-04 0.100000000000D+01
  </mgrwgt>
  </event>
  <event>
  5     66 -.18337608E-05 0.93849687E+02 0.75467711E-02 0.93603660E-01
        2 -1    0    0  501    0 0.00000000E+00 0.00000000E+00 0.11871454E+04 0.11871455E+04 0.32000000E+00 0.0000E+00 0.9000E+01
        1 -1    0    0  502    0 0.00000000E+00 0.00000000E+00 -.99275391E+03 0.99275396E+03 0.32000000E+00 0.0000E+00 0.9000E+01
       25  1    1    2    0    0 0.47406670E+03 0.24189871E+03 -.53714774E+03 0.76642477E+03 0.12500000E+03 0.0000E+00 0.9000E+01
        2  1    1    2  501    0 -.49117873E+02 -.79977302E+02 0.91741306E+03 0.92220158E+03 0.32000000E+00 0.0000E+00 0.9000E+01
        1  1    1    2  502    0 -.42494883E+03 -.16192141E+03 -.18587381E+03 0.49127307E+03 0.32000000E+00 0.0000E+00 0.9000E+01
#aMCatNLO 1  0  0  5  2 0.81899054D+01 0.00000000D+00  -5  6  0 0.00000000D+00 0.00000000D+00 0.00000000D+00 0.00000000D+00 0.00000000D+00
  <mgrwgt>
 -.9383451140D-03    9    2    0
 0.108560736431016D+04 0.000000000000000D+00 0.000000000000000D+00 0.108560736431016D+04
 0.108560736431016D+04 -.000000000000000D+00 -.000000000000000D+00 -.108560736431016D+04
 0.817590561750815D+03 0.474119364167136D+03 0.241921097249690D+03 -.607876910148156D+03
 0.843697089905018D+03 -.491146095173885D+02 -.799719883561528D+02 0.838461099708576D+03
 0.509927076964480D+03 -.425004754649748D+03 -.161949108893537D+03 -.230584189560420D+03
 0.000000000000000D+00 0.000000000000000D+00 0.000000000000000D+00 -.000000000000000D+00
 0.108560736431016D+04 0.000000000000000D+00 0.000000000000000D+00 0.108560736431016D+04
 0.108560736431016D+04 -.000000000000000D+00 -.000000000000000D+00 -.108560736431016D+04
 0.817564199207257D+03 0.474028205235833D+03 0.241886360914318D+03 -.607926367967312D+03
 0.843655250298302D+03 -.492086784335166D+02 -.800078335484120D+02 0.838410063091807D+03
 0.333169687668399D+03 -.277542272059371D+03 -.112532088771361D+03 -.145975535614484D+03
 0.176825591446354D+03 -.147277254742946D+03 -.493464385945441D+02 -.845081595100107D+02
0.733819251215D-05 0.000000000000D+00 0.000000000000D+00 0.143030330846D-05 0.000000000000D+00  6 2 1 25 2 1 21 0 0.18263776D+00 0.15273138D+00 0.29998547D+06 0.29998547D+06 0.29998547D+06 0.10845534D+01  1  2  2  4  6  5        1 0.317782756479D-04 0.100000000000D+01
0.192731358794D-05 0.000000000000D+00 -.281805914371D-07 0.143030330846D-05 0.000000000000D+00  6 2 1 25 2 1 21 2 0.18263776D+00 0.15273138D+00 0.29998547D+06 0.29998547D+06 0.29998547D+06 0.10845534D+01  1  2  3  4  6  5        1 0.981737788684D-05 0.100000000000D+01
-.445663348840D-05 0.000000000000D+00 0.000000000000D+00 0.143030330846D-05 0.000000000000D+00  6 2 1 25 2 1 21 2 0.18263776D+00 0.15273138D+00 0.29998547D+06 0.29998547D+06 0.29998547D+06 0.10845534D+01  1  2 15  4  6  5        1 -.227012642533D-04 0.100000000000D+01
0.172127776799D-02 0.000000000000D+00 0.000000000000D+00 0.143030330846D-05 0.000000000000D+00  6 2 1 25 2 1 21 2 0.18263776D+00 0.15273138D+00 0.29997621D+06 0.29997621D+06 0.29997621D+06 0.10845544D+01  1  2 12  4  6  5        1 0.876790087771D-02 0.100000000000D+01
0.240539017024D-07 0.000000000000D+00 0.000000000000D+00 0.143030330846D-05 0.000000000000D+00  6 2 1 25 2 1 21 2 0.18263776D+00 0.15273138D+00 0.29997621D+06 0.29997621D+06 0.29997621D+06 0.10845544D+01  1  2 12  4  6  5        1 0.122526549620D-06 0.100000000000D+01
-.266070020781D-02 0.000000000000D+00 0.000000000000D+00 0.143030330846D-05 0.000000000000D+00  6 2 1 25 2 1 21 2 0.18263776D+00 0.15273138D+00 0.29998547D+06 0.29998547D+06 0.29998547D+06 0.10845534D+01  1  2  4  4  6  5        1 -.135531132802D-01 0.100000000000D+01
-.172593768088D-02 0.000000000000D+00 0.000000000000D+00 0.143030330846D-05 0.000000000000D+00  6 2 1 25 2 1 21 2 0.18263776D+00 0.15273138D+00 0.29998547D+06 0.29998547D+06 0.29998547D+06 0.10845534D+01  1  2  5  4  6  5        1 -.879160637292D-02 0.100000000000D+01
0.247187825528D-02 0.000000000000D+00 -.000000000000D+00 0.143030330846D-05 0.000000000000D+00  6 2 1 25 2 1 21 2 0.18263776D+00 0.15273138D+00 0.29998547D+06 0.29998547D+06 0.29998547D+06 0.10845534D+01  1  2  6  4  6  5        1 0.125912892817D-01 0.100000000000D+01
0.552971912289D-05 0.000000000000D+00 0.000000000000D+00 0.143030330846D-05 0.652387797561D-07  6 2 1 25 2 1 21 2 0.18263776D+00 0.15273138D+00 0.29997621D+06 0.29997621D+06 0.29997621D+06 0.10845544D+01  1  2 11  4  6  5        1 0.281674637602D-04 0.100000000000D+01
  </mgrwgt>
  </event>
  <event>
  5     66 0.18337608E-05 0.68609563E+02 0.75467711E-02 0.89226348E-01
        2 -1    0    0  501    0 0.00000000E+00 0.00000000E+00 0.19269332E+04 0.19269332E+04 0.32000000E+00 0.0000E+00 0.9000E+01
        1 -1    0    0  502    0 0.00000000E+00 0.00000000E+00 -.32220840E+03 0.32220856E+03 0.32000000E+00 0.0000E+00 0.9000E+01
       25  1    1    2    0    0 0.44969067E+03 0.53348695E+03 0.80485935E+03 0.10724988E+04 0.12500000E+03 0.0000E+00 0.9000E+01
        2  1    1    2  501    0 -.38324000E+03 -.55053246E+03 0.85633975E+03 0.10877852E+04 0.32000000E+00 0.0000E+00 0.9000E+01
        1  1    1    2  502    0 -.66450672E+02 0.17045505E+02 -.56474344E+02 0.88857723E+02 0.32000000E+00 0.0000E+00 0.9000E+01
#aMCatNLO 1  0  0  1  5 0.15017106D+03 0.00000000D+00  -5  6  0 0.00000000D+00 0.00000000D+00 0.00000000D+00 0.00000000D+00 0.00000000D+00
  <mgrwgt>
 0.7055218780D-03    7    2    0
 0.787955744998854D+03 0.000000000000000D+00 0.000000000000000D+00 0.787955744998854D+03
 0.787955744998854D+03 0.000000000000000D+00 0.000000000000000D+00 -.787955744998854D+03
 0.711084024568511D+03 0.449687188340797D+03 0.533470537263621D+03 0.566225088667316D+02
 0.680471176968313D+03 -.383228867039450D+03 -.550516464815483D+03 0.114491397578000D+03
 0.184356288460884D+03 -.664583213013468D+02 0.170459275518625D+02 -.171113906444732D+03
 0.000000000000000D+00 0.000000000000000D+00 0.000000000000000D+00 0.000000000000000D+00
 0.141952261821257D+04 0.000000000000000D+00 0.000000000000000D+00 0.141952261821257D+04
 0.809044139348204D+03 0.000000000000000D+00 0.000000000000000D+00 -.809044139348204D+03
 0.638821116363019D+03 0.428846138005606D+03 0.453158140298294D+03 0.566225088667316D+02
 0.763264653030947D+03 -.405518559990001D+03 -.636411304072079D+03 0.114491397578000D+03
 0.185778453215526D+03 -.721727945248193D+02 -.497518148966710D+01 -.171113906444732D+03
 0.640702534951279D+03 0.488452165092142D+02 0.188228345263453D+03 0.610478478864362D+03
0.368948097777D-04 0.000000000000D+00 0.000000000000D+00 0.340164630799D-07 0.000000000000D+00  6 2 1 25 2 1 21 0 0.29645127D+00 0.49570537D-01 0.52432507D+06 0.52432507D+06 0.52432507D+06 0.10670554D+01  1  2  2  1  6  1        2 0.317842662802D-03 0.100000000000D+01
0.762933753783D-05 0.000000000000D+00 -.141685784173D-06 0.340164630799D-07 0.000000000000D+00  6 2 1 25 2 1 21 2 0.29645127D+00 0.49570537D-01 0.52432507D+06 0.52432507D+06 0.52432507D+06 0.10670554D+01  1  2  3  1  6  1        2 0.748355003266D-04 0.100000000000D+01
-.234830421106D-04 0.000000000000D+00 0.000000000000D+00 0.340164630799D-07 0.000000000000D+00  6 2 1 25 2 1 21 2 0.29645127D+00 0.49570537D-01 0.52432507D+06 0.52432507D+06 0.52432507D+06 0.10670554D+01  1  2 15  1  6  1        2 -.230343092939D-03 0.100000000000D+01
-.111396178194D-03 0.000000000000D+00 0.000000000000D+00 0.340164630799D-07 0.000000000000D+00  6 2 1 25 2 1 21 2 0.29645127D+00 0.49570537D-01 0.52432507D+06 0.52432507D+06 0.52432507D+06 0.10670554D+01  1  2  4  1  6  1        2 -.109267530612D-02 0.100000000000D+01
-.211848203875D-03 0.000000000000D+00 -.172287168044D-04 0.340164630799D-07 0.000000000000D+00  6 2 1 25 2 1 21 2 0.53655327D+00 0.49570537D-01 0.52432507D+06 0.52432507D+06 0.52432507D+06 0.10670554D+01  1  2  5  1  6  1        2 -.229684656787D-03 0.100000000000D+01
0.190238645891D-03 0.000000000000D+00 0.145855827112D-04 0.340164630799D-07 0.000000000000D+00  6 2 1 25 2 1 21 2 0.29645127D+00 0.49570537D-01 0.52432507D+06 0.52432507D+06 0.52432507D+06 0.10670554D+01  1  2  6  1  6  1        2 0.186603413155D-02 0.100000000000D+01
-.128445816521D-04 0.000000000000D+00 -.111969903811D-05 0.340164630799D-07 0.000000000000D+00  6 21 1 25 2 1 -2 2 0.53655327D+00 0.49570537D-01 0.52432507D+06 0.52432507D+06 0.52432507D+06 0.10670554D+01  1  2  5  5  6  1        2 -.487360872477D-06 0.100000000000D+01
  </mgrwgt>
  </event>
  <event>
  5     66 0.18337608E-05 0.51377056E+02 0.75467711E-02 0.92076816E-01
        2 -1    0    0  501    0 0.00000000E+00 0.00000000E+00 0.28245110E+04 0.28245111E+04 0.32000000E+00 0.0000E+00 0.9000E+01
        1 -1    0    0  502    0 0.00000000E+00 0.00000000E+00 -.53385392E+03 0.53385401E+03 0.32000000E+00 0.0000E+00 0.9000E+01
       25  1    1    2    0    0 0.20789062E+03 0.52869486E+03 0.78787460E+03 0.97934067E+03 0.12500000E+03 0.0000E+00 0.9000E+01
        2  1    1    2  501    0 0.38589545E+02 0.33930057E+02 0.17250386E+04 0.17258038E+04 0.32000000E+00 0.0000E+00 0.9000E+01
        1  1    1    2  502    0 -.24648016E+03 -.56262492E+03 -.22225610E+03 0.65322059E+03 0.32000000E+00 0.0000E+00 0.9000E+01
#aMCatNLO 1  0  0  2  5 0.14410383D+02 0.00000000D+00  -5  6  0 0.00000000D+00 0.00000000D+00 0.00000000D+00 0.00000000D+00 0.00000000D+00
  <mgrwgt>
 0.1426694353D-01   11    2    0
 0.122795621685106D+04 0.000000000000000D+00 0.000000000000000D+00 0.122795621685106D+04
 0.122795621685106D+04 0.000000000000000D+00 0.000000000000000D+00 -.122795621685106D+04
 0.604448076969469D+03 0.207924223356115D+03 0.528766244497509D+03 0.164031258526676D+03
 0.750893076354980D+03 0.385836991846427D+02 0.339249171303947D+02 0.749133372820068D+03
 0.110057128037768D+04 -.246507922540757D+03 -.562691161627904D+03 -.913164631346744D+03
 0.000000000000000D+00 0.000000000000000D+00 0.000000000000000D+00 -.000000000000000D+00
 0.122843011677627D+04 0.000000000000000D+00 0.000000000000000D+00 0.122843011677627D+04
 0.134263991356471D+04 0.000000000000000D+00 0.000000000000000D+00 -.134263991356471D+04
 0.602459166653460D+03 0.204510255272555D+03 0.527827006887001D+03 0.164031258526676D+03
 0.750634915432501D+03 0.343363399384217D+02 0.327564001871332D+02 0.749133372820068D+03
 0.110286062864063D+04 -.252740751328082D+03 -.564405913223008D+03 -.913164631346744D+03
 0.115115319614381D+03 0.138941561171052D+02 0.382250614887408D+01 -.114209796788439D+03
0.140853078730D-03 0.000000000000D+00 0.000000000000D+00 0.197306889566D-04 0.000000000000D+00  6 2 1 25 2 1 21 0 0.43454017D+00 0.82131380D-01 0.38903998D+06 0.38903998D+06 0.38903998D+06 0.10762985D+01  1  2  2  2  6  2        1 0.187685215647D-03 0.100000000000D+01
0.642232847481D-04 0.000000000000D+00 -.540912909789D-06 0.197306889566D-04 0.000000000000D+00  6 2 1 25 2 1 21 2 0.43454017D+00 0.82131380D-01 0.38903998D+06 0.38903998D+06 0.38903998D+06 0.10762985D+01  1  2  3  2  6  2        1 0.991337908188D-04 0.100000000000D+01
-.920562838288D-04 0.000000000000D+00 0.000000000000D+00 0.197306889566D-04 0.000000000000D+00  6 2 1 25 2 1 21 2 0.43454017D+00 0.82131380D-01 0.38903998D+06 0.38903998D+06 0.38903998D+06 0.10762985D+01  1  2 15  2  6  2        1 -.142096257151D-03 0.100000000000D+01
0.406616210320D-01 0.000000000000D+00 0.000000000000D+00 0.197306889566D-04 0.000000000000D+00  6 2 1 25 2 1 21 2 0.43454017D+00 0.90016843D-01 0.39688422D+06 0.39688422D+06 0.39688422D+06 0.10756725D+01  1  2 12  2  6  2        1 0.548566737316D-01 0.100000000000D+01
0.147687581061D-07 0.000000000000D+00 0.000000000000D+00 0.197306889566D-04 0.000000000000D+00  6 2 1 25 2 1 21 2 0.43454017D+00 0.89827507D-01 0.39688422D+06 0.39688422D+06 0.39688422D+06 0.10756725D+01  1  2 12  2  6  2        1 0.199856629185D-07 0.100000000000D+01
-.313667723014D-01 0.000000000000D+00 0.000000000000D+00 0.197306889566D-04 0.000000000000D+00  6 2 1 25 2 1 21 2 0.43454017D+00 0.82131380D-01 0.38903998D+06 0.38903998D+06 0.38903998D+06 0.10762985D+01  1  2  4  2  6  2        1 -.484171287124D-01 0.100000000000D+01
-.427438218147D-01 0.000000000000D+00 -.368440783609D-03 0.197306889566D-04 0.000000000000D+00  6 2 1 25 2 1 21 2 0.43454017D+00 0.89817237D-01 0.38903998D+06 0.38903998D+06 0.38903998D+06 0.10762985D+01  1  2  5  2  6  2        1 -.580110105457D-01 0.100000000000D+01
0.426076528641D-01 0.000000000000D+00 0.366971457905D-03 0.197306889566D-04 0.000000000000D+00  6 2 1 25 2 1 21 2 0.43454017D+00 0.82131380D-01 0.38903998D+06 0.38903998D+06 0.38903998D+06 0.10762985D+01  1  2  6  2  6  2        1 0.657683293976D-01 0.100000000000D+01
0.629261370642D-03 0.000000000000D+00 0.000000000000D+00 0.197306889566D-04 0.000000000000D+00  6 2 21 25 2 1 -1 2 0.43454017D+00 0.90016843D-01 0.39688422D+06 0.39688422D+06 0.39688422D+06 0.10756725D+01  1  2 12  6  6  2        1 0.207599463911D-02 0.100000000000D+01
0.223953900833D-09 0.000000000000D+00 0.000000000000D+00 0.197306889566D-04 0.000000000000D+00  6 2 21 25 2 1 -1 2 0.43454017D+00 0.89827507D-01 0.39688422D+06 0.39688422D+06 0.39688422D+06 0.10756725D+01  1  2 12  6  6  2        1 0.742772848455D-09 0.100000000000D+01
-.646042338369D-03 0.000000000000D+00 -.543128074775D-05 0.197306889566D-04 0.000000000000D+00  6 2 21 25 2 1 -1 2 0.43454017D+00 0.89817237D-01 0.38903998D+06 0.38903998D+06 0.38903998D+06 0.10762985D+01  1  2  5  6  6  2        1 -.215065845936D-02 0.100000000000D+01
  </mgrwgt>
  </event>
  <event>
  5     66 0.18337608E-05 0.21154023E+03 0.75467711E-02 0.95135909E-01
        2 -1    0    0  501    0 0.00000000E+00 0.00000000E+00 0.17849612E+04 0.17849613E+04 0.32000000E+00 0.0000E+00 0.9000E+01
        1 -1    0    0  502    0 0.00000000E+00 0.00000000E+00 -.20918872E+03 0.20918897E+03 0.32000000E+00 0.0000E+00 0.9000E+01
       25  1    1    2    0    0 0.32663071E+03 0.33905362E+03 0.11438672E+04 0.12432627E+04 0.12500000E+03 0.0000E+00 0.9000E+01
        2  1    1    2  501    0 -.13107723E+03 -.16625445E+03 0.44162052E+03 0.48974541E+03 0.32000000E+00 0.0000E+00 0.9000E+01
        1  1    1    2  502    0 -.19555349E+03 -.17279916E+03 -.97152054E+01 0.26114212E+03 0.32000000E+00 0.0000E+00 0.9000E+01
#aMCatNLO 1  0  0  4  2 0.43335629D+02 0.00000000D+00  -5  6  0 0.00000000D+00 0.00000000D+00 0.00000000D+00 0.00000000D+00 0.00000000D+00
  <mgrwgt>
 0.3929122975D-02    8    2    0
 0.611059761647649D+03 0.000000000000000D+00 0.000000000000000D+00 0.611059761647649D+03
 0.611059761647649D+03 -.000000000000000D+00 -.000000000000000D+00 -.611059761647649D+03
 0.553801016947834D+03 0.326587161578059D+03 0.338979389345991D+03 0.263636806731271D+03
 0.229523378337701D+03 -.130971156373170D+03 -.166119916171199D+03 0.890601530040219D+02
 0.438795128009763D+03 -.195616005204889D+03 -.172859473174791D+03 -.352696959735293D+03
 0.000000000000000D+00 0.000000000000000D+00 -.000000000000000D+00 0.000000000000000D+00
 0.611059761647649D+03 0.000000000000000D+00 0.000000000000000D+00 0.611059761647649D+03
 0.611059761647649D+03 -.000000000000000D+00 -.000000000000000D+00 -.611059761647649D+03
 0.548575039757337D+03 0.321529214809003D+03 0.332564040222250D+03 0.267076201523318D+03
 0.769532248942929D+02 -.537327885803176D+02 -.174938943129447D+02 0.522355234948595D+02
 0.440458150998331D+03 -.199650214996267D+03 -.177976344789266D+03 -.349953704264243D+03
 0.156133107645337D+03 -.681462112324182D+02 -.137093801120039D+03 0.306419792460647D+02
0.166682063959D-03 0.000000000000D+00 0.000000000000D+00 0.219995964613D-07 0.000000000000D+00  6 2 1 25 2 1 21 0 0.27460944D+00 0.32182901D-01 0.23021329D+06 0.23021329D+06 0.23021329D+06 0.10931633D+01  1  2  2  3  6  4        2 0.315895522659D-02 0.100000000000D+01
0.641503054240D-05 0.000000000000D+00 -.640103013999D-06 0.219995964613D-07 0.000000000000D+00  6 2 1 25 2 1 21 2 0.27460944D+00 0.32182901D-01 0.23021329D+06 0.23021329D+06 0.23021329D+06 0.10931633D+01  1  2  3  3  6  4        2 0.145285887815D-03 0.100000000000D+01
-.105715426628D-03 0.000000000000D+00 0.000000000000D+00 0.219995964613D-07 0.000000000000D+00  6 2 1 25 2 1 21 2 0.27460944D+00 0.32182901D-01 0.23021329D+06 0.23021329D+06 0.23021329D+06 0.10931633D+01  1  2 15  3  6  4        2 -.239421457340D-02 0.100000000000D+01
0.123295465505D-03 0.000000000000D+00 0.000000000000D+00 0.219995964613D-07 0.000000000000D+00  6 2 1 25 2 1 21 2 0.27460944D+00 0.32182901D-01 0.22859796D+06 0.22859796D+06 0.22859796D+06 0.10933952D+01  1  2 12  3  6  4        2 0.279433651014D-02 0.100000000000D+01
0.107268400157D-05 0.000000000000D+00 0.000000000000D+00 0.219995964613D-07 0.000000000000D+00  6 2 1 25 2 1 21 2 0.27460944D+00 0.32182901D-01 0.22859796D+06 0.22859796D+06 0.22859796D+06 0.10933952D+01  1  2 12  3  6  4        2 0.243110325036D-04 0.100000000000D+01
-.125810532481D-03 0.000000000000D+00 0.000000000000D+00 0.219995964613D-07 0.000000000000D+00  6 2 1 25 2 1 21 2 0.27460944D+00 0.32182901D-01 0.23021329D+06 0.23021329D+06 0.23021329D+06 0.10931633D+01  1  2  4  3  6  4        2 -.284932313061D-02 0.100000000000D+01
-.115336683945D-03 0.000000000000D+00 0.000000000000D+00 0.219995964613D-07 0.000000000000D+00  6 2 1 25 2 1 21 2 0.27460944D+00 0.32182901D-01 0.23021329D+06 0.23021329D+06 0.23021329D+06 0.10931633D+01  1  2  5  3  6  4        2 -.261211422359D-02 0.100000000000D+01
0.249997943642D-03 0.000000000000D+00 -.000000000000D+00 0.219995964613D-07 0.000000000000D+00  6 2 1 25 2 1 21 2 0.27460944D+00 0.32182901D-01 0.23021329D+06 0.23021329D+06 0.23021329D+06 0.10931633D+01  1  2  6  3  6  4        2 0.566188624573D-02 0.100000000000D+01
  </mgrwgt>
  </event>
  <event>
  5     66 0.18337608E-05 0.40547250E+02 0.75467711E-02 0.89299125E-01
        2 -1    0    0  501    0 0.00000000E+00 0.00000000E+00 0.31159755E+04 0.31159755E+04 0.32000000E+00 0.0000E+00 0.9000E+01
        1 -1    0    0  502    0 0.00000000E+00 0.00000000E+00 -.23309459E+04 0.23309459E+04 0.32000000E+00 0.0000E+00 0.9000E+01
       25  1    1    2    0    0 0.67960539E+03 -.12441794E+03 0.21493221E+03 0.73427799E+03 0.12500000E+03 0.0000E+00 0.9000E+01
        2  1    1    2  501    0 -.71082821E+03 0.98551919E+02 0.25924208E+04 0.26899136E+04 0.32000000E+00 0.0000E+00 0.9000E+01
        1  1    1    2  502    0 0.31222824E+02 0.25866018E+02 -.20223234E+04 0.20227298E+04 0.32000000E+00 0.0000E+00 0.9000E+01
#aMCatNLO 1  0  0  1  4 0.10389299D+03 0.00000000D+00  -5  6  0 0.00000000D+00 0.00000000D+00 0.00000000D+00 0.00000000D+00 0.00000000D+00
  <mgrwgt>
 0.5806485203D-01    7    2    0
 0.269502695484237D+04 0.000000000000000D+00 0.000000000000000D+00 0.269502695484237D+04
 0.269502695484237D+04 0.000000000000000D+00 0.000000000000000D+00 -.269502695484237D+04
 0.710720423772640D+03 0.679593085983598D+03 -.124417756386145D+03 0.110326697343339D+03
 0.234068706173798D+04 -.710817446925079D+03 0.985504266671931D+02 0.222796819805360D+04
 0.233864642417412D+04 0.312243609414812D+02 0.258673297189515D+02 -.233829489539694D+04
 0.000000000000000D+00 0.000000000000000D+00 -.000000000000000D+00 0.000000000000000D+00
 0.286823033659066D+04 0.000000000000000D+00 0.000000000000000D+00 0.286823033659066D+04
 0.271957188359072D+04 0.000000000000000D+00 0.000000000000000D+00 -.271957188359072D+04
 0.697941819860763D+03 0.668424945606402D+03 -.111954883122372D+03 0.110326697343339D+03
 0.235436448209248D+04 -.748040702504375D+03 0.140089008837686D+03 0.222796819805360D+04
 0.233926923090156D+04 -.586303807463459D+01 0.672543053487154D+02 -.233829489539694D+04
 0.196226687326580D+03 0.854787949726078D+02 -.953884310640291D+02 0.148658452999947D+03
0.319529449304D+00 0.000000000000D+00 0.000000000000D+00 0.587873242036D-03 0.000000000000D+00  6 2 1 25 2 1 21 0 0.47938085D+00 0.35860706D+00 0.53309636D+06 0.53309636D+06 0.53309636D+06 0.10665487D+01  1  2  2  1  6  1        2 0.122512741489D-01 0.100000000000D+01
0.240801684302D+00 0.000000000000D+00 -.122707721936D-02 0.587873242036D-03 0.000000000000D+00  6 2 1 25 2 1 21 2 0.47938085D+00 0.35860706D+00 0.53309636D+06 0.53309636D+06 0.53309636D+06 0.10665487D+01  1  2  3  1  6  1        2 0.105024648818D-01 0.100000000000D+01
-.204096275852D+00 0.000000000000D+00 0.000000000000D+00 0.587873242036D-03 0.000000000000D+00  6 2 1 25 2 1 21 2 0.47938085D+00 0.35860706D+00 0.53309636D+06 0.53309636D+06 0.53309636D+06 0.10665487D+01  1  2 15  1  6  1        2 -.890157382354D-02 0.100000000000D+01
-.142724998271D+00 0.000000000000D+00 0.000000000000D+00 0.587873242036D-03 0.000000000000D+00  6 2 1 25 2 1 21 2 0.47938085D+00 0.35860706D+00 0.53309636D+06 0.53309636D+06 0.53309636D+06 0.10665487D+01  1  2  4  1  6  1        2 -.622489118564D-02 0.100000000000D+01
-.409559189268D+01 0.000000000000D+00 -.670331708379D+00 0.587873242036D-03 0.000000000000D+00  6 2 1 25 2 1 21 2 0.51135632D+00 0.35860706D+00 0.53309636D+06 0.53309636D+06 0.53309636D+06 0.10665487D+01  1  2  5  1  6  1        2 -.129702115367D+00 0.100000000000D+01
0.413165473967D+01 0.000000000000D+00 0.668936675236D+00 0.587873242036D-03 0.000000000000D+00  6 2 1 25 2 1 21 2 0.47938085D+00 0.35860706D+00 0.53309636D+06 0.53309636D+06 0.53309636D+06 0.10665487D+01  1  2  6  1  6  1        2 0.180200395745D+00 0.100000000000D+01
-.441568435245D-01 0.000000000000D+00 -.738523899024D-02 0.587873242036D-03 0.000000000000D+00  6 21 1 25 2 1 -2 2 0.51135632D+00 0.35860706D+00 0.53309636D+06 0.53309636D+06 0.53309636D+06 0.10665487D+01  1  2  5  5  6  1        2 -.607023670130D-04 0.100000000000D+01
  </mgrwgt>
  </event>
  <event>
  5     66 0.18337608E-05 0.57463126E+02 0.75467711E-02 0.93127544E-01
        2 -1    0    0  501    0 0.00000000E+00 0.00000000E+00 0.31393273E+04 0.31393273E+04 0.32000000E+00 0.0000E+00 0.9000E+01
        1 -1    0    0  502    0 0.00000000E+00 0.00000000E+00 -.13689155E+04 0.13689155E+04 0.32000000E+00 0.0000E+00 0.9000E+01
       25  1    1    2    0    0 0.30086551E+03 0.47384138E+03 0.22411376E+04 0.23137348E+04 0.12500000E+03 0.0000E+00 0.9000E+01
        2  1    1    2  501    0 -.56184350E+01 -.57212931E+02 0.81192045E+03 0.81395320E+03 0.32000000E+00 0.0000E+00 0.9000E+01
        1  1    1    2  502    0 -.29524708E+03 -.41662845E+03 -.12826463E+04 0.13805548E+04 0.32000000E+00 0.0000E+00 0.9000E+01
#aMCatNLO 1  0  0  4  1 0.43678558D+01 0.00000000D+00  -5  6  0 0.00000000D+00 0.00000000D+00 0.00000000D+00 0.00000000D+00 0.00000000D+00
  <mgrwgt>
 0.8422996629D-02    9    2    0
 0.207303491971599D+04 0.000000000000000D+00 0.000000000000000D+00 0.207303491971599D+04
 0.207303491971599D+04 -.000000000000000D+00 -.000000000000000D+00 -.207303491971599D+04
 0.155908337865174D+04 0.300885727742333D+03 0.473848990364399D+03 0.144915523487296D+04
 0.538122491735704D+03 -.561599024957889D+01 -.571880358871309D+02 0.535045610501321D+03
 0.204886396904455D+04 -.295269737492754D+03 -.416660954477268D+03 -.198420084537429D+04
 0.000000000000000D+00 0.000000000000000D+00 -.000000000000000D+00 0.000000000000000D+00
 0.207303491971599D+04 0.000000000000000D+00 0.000000000000000D+00 0.207303491971599D+04
 0.207303491971599D+04 -.000000000000000D+00 -.000000000000000D+00 -.207303491971599D+04
 0.155910715862585D+04 0.300885448852786D+03 0.473846150411920D+03 0.144918180518762D+04
 0.281579276066370D+03 -.654108344174389D+01 -.274616120860779D+02 0.280160601796724D+03
 0.204883096610518D+04 -.295270103988731D+03 -.416664686532365D+03 -.198416592863572D+04
 0.256552438634583D+03 0.925738577688334D+00 -.297198517934766D+02 0.254823521651380D+03
0.125168891856D-03 0.000000000000D+00 0.000000000000D+00 0.812164948718D-04 0.000000000000D+00  6 2 1 25 2 1 21 0 0.48297343D+00 0.21060238D+00 0.32672444D+06 0.32672444D+06 0.32672444D+06 0.10818206D+01  1  2  2  3  6  4        2 0.217690330203D-04 0.100000000000D+01
0.190865996826D-04 0.000000000000D+00 -.480681502453D-06 0.812164948718D-04 0.000000000000D+00  6 2 1 25 2 1 21 2 0.48297343D+00 0.21060238D+00 0.32672444D+06 0.32672444D+06 0.32672444D+06 0.10818206D+01  1  2  3  3  6  4        2 0.388491726419D-05 0.100000000000D+01
-.789115656112D-04 0.000000000000D+00 0.000000000000D+00 0.812164948718D-04 0.000000000000D+00  6 2 1 25 2 1 21 2 0.48297343D+00 0.21060238D+00 0.32672444D+06 0.32672444D+06 0.32672444D+06 0.10818206D+01  1  2 15  3  6  4        2 -.160617872584D-04 0.100000000000D+01
0.176801095833D-01 0.000000000000D+00 0.000000000000D+00 0.812164948718D-04 0.000000000000D+00  6 2 1 25 2 1 21 2 0.48297343D+00 0.21060238D+00 0.32701133D+06 0.32701133D+06 0.32701133D+06 0.10817926D+01  1  2 12  3  6  4        2 0.359812012985D-02 0.100000000000D+01
0.364216080028D-09 0.000000000000D+00 0.000000000000D+00 0.812164948718D-04 0.000000000000D+00  6 2 1 25 2 1 21 2 0.48297343D+00 0.21060238D+00 0.32701133D+06 0.32701133D+06 0.32701133D+06 0.10817926D+01  1  2 12  3  6  4        2 0.741224596481D-10 0.100000000000D+01
-.145140297935D+00 0.000000000000D+00 0.000000000000D+00 0.812164948718D-04 0.000000000000D+00  6 2 1 25 2 1 21 2 0.48297343D+00 0.21060238D+00 0.32672444D+06 0.32672444D+06 0.32672444D+06 0.10818206D+01  1  2  4  3  6  4        2 -.295420901865D-01 0.100000000000D+01
-.977776912379D-01 0.000000000000D+00 0.000000000000D+00 0.812164948718D-04 0.000000000000D+00  6 2 1 25 2 1 21 2 0.48297343D+00 0.21060238D+00 0.32672444D+06 0.32672444D+06 0.32672444D+06 0.10818206D+01  1  2  5  3  6  4        2 -.199018288779D-01 0.100000000000D+01
0.201503485498D+00 0.000000000000D+00 -.000000000000D+00 0.812164948718D-04 0.000000000000D+00  6 2 1 25 2 1 21 2 0.48297343D+00 0.21060238D+00 0.32672444D+06 0.32672444D+06 0.32672444D+06 0.10818206D+01  1  2  6  3  6  4        2 0.410143442323D-01 0.100000000000D+01
0.650813624217D-01 0.000000000000D+00 0.000000000000D+00 0.812164948718D-04 0.721222024243D-05  6 2 1 25 2 1 21 2 0.48297343D+00 0.21060238D+00 0.32701133D+06 0.32701133D+06 0.32701133D+06 0.10817926D+01  1  2 11  3  6  4        2 0.132448590946D-01 0.100000000000D+01
  </mgrwgt>
  </event>
  <event>
  6     66 -.18337608E-05 0.17385656E+03 0.75467711E-02 0.91219151E-01
        2 -1    0    0  501    0 0.00000000E+00 0.00000000E+00 0.12130932E+04 0.12130932E+04 0.32000000E+00 0.0000E+00 0.9000E+01
        1 -1    0    0  503    0 0.00000000E+00 0.00000000E+00 -.18940837E+04 0.18940837E+04 0.32000000E+00 0.0000E+00 0.9000E+01
       25  1    1    2    0    0 -.32463110E+03 0.51374431E+03 -.10909264E+03 0.62995617E+03 0.12500000E+03 0.0000E+00 0.9000E+01
        2  1    1    2  501    0 0.42234446E+03 -.37189796E+03 0.86288224E+03 0.10301693E+04 0.32000000E+00 0.0000E+00 0.9000E+01
        1  1    1    2  502    0 -.10343174E+03 -.14339118E+03 -.12796220E+04 0.12917785E+04 0.32000000E+00 0.0000E+00 0.9000E+01
       21  1    1    2  503  502 0.57183799E+01 0.15448309E+01 -.15515809E+03 0.15527293E+03 0.75000000E+00 0.0000E+00 0.9000E+01
#aMCatNLO 2  0  0  2  5 0.59233750D+01 0.00000000D+00  -5  6  0 0.00000000D+00 0.00000000D+00 0.00000000D+00 0.00000000D+00 0.00000000D+00
  <mgrwgt>
 -.7984819004D-02    6    2    0
 0.145234314268135D+04 0.000000000000000D+00 0.000000000000000D+00 0.145234314268135D+04
 0.145234314268135D+04 0.000000000000000D+00 0.000000000000000D+00 -.145234314268135D+04
 0.620070655617984D+03 -.323387157143102D+03 0.514074614188949D+03 0.326429163871609D+01
 0.120371294101095D+04 0.424698524003180D+03 -.371244721572635D+03 0.106335947109678D+04
 0.108090268873376D+04 -.101311366860079D+03 -.142829892616314D+03 -.106662376273549D+04
 0.000000000000000D+00 0.000000000000000D+00 0.000000000000000D+00 -.000000000000000D+00
 0.145241382432991D+04 0.000000000000000D+00 0.000000000000000D+00 0.145241382432991D+04
 0.158198485367472D+04 0.000000000000000D+00 0.000000000000000D+00 -.158198485367472D+04
 0.620435182847543D+03 -.324608231577749D+03 0.513744738666128D+03 0.326429163871609D+01
 0.120307679409180D+04 0.422329434456016D+03 -.371884735506927D+03 0.106335947109678D+04
 0.108118034803174D+04 -.103439582818372D+03 -.143404834103907D+03 -.106662376273549D+04
 0.129706353033543D+03 0.571837994010519D+01 0.154483094470576D+01 -.129571029344815D+03
-.242102813946D-01 0.000000000000D+00 0.000000000000D+00 0.356836674055D-05 0.000000000000D+00  6 2 1 25 2 1 21 2 0.18662050D+00 0.29277100D+00 0.46641667D+06 0.46641667D+06 0.46641667D+06 0.10706510D+01  1  2 13  2  6  2        1 -.264305796399D-01 0.100000000000D+01
-.218463286285D-07 0.000000000000D+00 0.000000000000D+00 0.356836674055D-05 0.000000000000D+00  6 2 1 25 2 1 21 2 0.18662050D+00 0.29140537D+00 0.46641667D+06 0.46641667D+06 0.46641667D+06 0.10706510D+01  1  2 13  2  6  2        1 -.241778066228D-07 0.100000000000D+01
-.787888441799D-03 0.000000000000D+00 0.000000000000D+00 0.356836674055D-05 0.000000000000D+00  6 2 1 25 2 1 21 2 0.18662050D+00 0.26751763D+00 0.46189636D+06 0.46189636D+06 0.46189636D+06 0.10709519D+01  1  2  8  2  6  2        1 -.110856882238D-02 0.100000000000D+01
-.123940801816D-02 0.000000000000D+00 0.000000000000D+00 0.356836674055D-05 0.000000000000D+00  6 2 1 25 2 1 21 2 0.18662050D+00 0.29140209D+00 0.46189636D+06 0.46189636D+06 0.46189636D+06 0.10709519D+01  1  2  9  2  6  2        1 -.137349618497D-02 0.100000000000D+01
0.123488962572D-02 0.000000000000D+00 0.000000000000D+00 0.356836674055D-05 0.000000000000D+00  6 2 1 25 2 1 21 2 0.18662050D+00 0.26751763D+00 0.46189636D+06 0.46189636D+06 0.46189636D+06 0.10709519D+01  1  2 10  2  6  2        1 0.173750503946D-02 0.100000000000D+01
0.173397805845D-01 0.000000000000D+00 0.000000000000D+00 0.356836674055D-05 0.409757191917D-06  6 2 1 25 2 1 21 2 0.18662959D+00 0.29139728D+00 0.46641667D+06 0.46641667D+06 0.46641667D+06 0.10706510D+01  1  2  1  2  6  2        1 0.191903447815D-01 0.100000000000D+01
  </mgrwgt>
  </event>
  <event>
  5     66 0.18337608E-05 0.16035987E+03 0.75467711E-02 0.90265566E-01
        2 -1    0    0  501    0 0.00000000E+00 0.00000000E+00 0.14457473E+04 0.14457473E+04 0.32000000E+00 0.0000E+00 0.9000E+01
        1 -1    0    0  502    0 -.00000000E+00 -.00000000E+00 -.18033979E+04 0.18033979E+04 0.32000000E+00 0.0000E+00 0.9000E+01
       25  1    1    2    0    0 -.71147133E+03 0.13883969E+03 -.11734856E+04 0.13849770E+04 0.12500000E+03 0.0000E+00 0.9000E+01
        2  1    1    2  501    0 0.59729554E+03 -.26243011E+02 0.12585313E+04 0.13933240E+04 0.32000000E+00 0.0000E+00 0.9000E+01
        1  1    1    2  502    0 0.11417579E+03 -.11259668E+03 -.44269634E+03 0.47084422E+03 0.32000000E+00 0.0000E+00 0.9000E+01
#aMCatNLO 1  0  0  4  1 0.26344924D+02 0.00000000D+00  -5  6  0 0.00000000D+00 0.00000000D+00 0.00000000D+00 0.00000000D+00 0.00000000D+00
  <mgrwgt>
 0.8848747793D-03    8    2    0
 0.161470049827460D+04 0.000000000000000D+00 0.000000000000000D+00 0.161470049827460D+04
 0.161470049827460D+04 -.000000000000000D+00 -.000000000000000D+00 -.161470049827460D+04
 0.126347458687544D+04 -.711473661462620D+03 0.138841580394380D+03 -.102726397594709D+04
 0.154122057413911D+04 0.597294674218234D+03 -.262429726191867D+02 0.142053202592843D+04
 0.424705835534653D+03 0.114178987244386D+03 -.112598607775194D+03 -.393268049981335D+03
 0.000000000000000D+00 0.000000000000000D+00 0.000000000000000D+00 0.000000000000000D+00
 0.161470049827460D+04 0.000000000000000D+00 0.000000000000000D+00 0.161470049827460D+04
 0.161470049827460D+04 -.000000000000000D+00 -.000000000000000D+00 -.161470049827460D+04
 0.126250932915257D+04 -.711087793915849D+03 0.138824626766796D+03 -.102634627613892D+04
 0.139009026843223D+04 0.524637717671586D+03 -.453049098856854D+02 0.128648889801917D+04
 0.424456611096419D+03 0.114308704709336D+03 -.112604307092512D+03 -.392959545952691D+03
 0.152344787867982D+03 0.721413715349278D+02 0.190845902114009D+02 0.132816924072434D+03
0.156088268197D-04 0.000000000000D+00 0.000000000000D+00 0.470029443988D-06 0.000000000000D+00  6 2 1 25 2 1 21 0 0.22242266D+00 0.27744583D+00 0.55787721D+06 0.55787721D+06 0.55787721D+06 0.10651647D+01  1  2  2  3  6  4        2 0.125963152863D-04 0.100000000000D+01
0.112068277604D-05 0.000000000000D+00 -.599420048861D-07 0.470029443988D-06 0.000000000000D+00  6 2 1 25 2 1 21 2 0.22242266D+00 0.27744583D+00 0.55787721D+06 0.55787721D+06 0.55787721D+06 0.10651647D+01  1  2  3  3  6  4        2 0.102609944263D-05 0.100000000000D+01
-.102192955781D-04 0.000000000000D+00 0.000000000000D+00 0.470029443988D-06 0.000000000000D+00  6 2 1 25 2 1 21 2 0.22242266D+00 0.27744583D+00 0.55787721D+06 0.55787721D+06 0.55787721D+06 0.10651647D+01  1  2 15  3  6  4        2 -.935680793973D-05 0.100000000000D+01
0.215874268335D-02 0.000000000000D+00 0.000000000000D+00 0.470029443988D-06 0.000000000000D+00  6 2 1 25 2 1 21 2 0.22242266D+00 0.27744583D+00 0.56016686D+06 0.56016686D+06 0.56016686D+06 0.10650402D+01  1  2 12  3  6  4        2 0.197544935926D-02 0.100000000000D+01
0.237001055584D-07 0.000000000000D+00 0.000000000000D+00 0.470029443988D-06 0.000000000000D+00  6 2 1 25 2 1 21 2 0.22242266D+00 0.27744583D+00 0.56016686D+06 0.56016686D+06 0.56016686D+06 0.10650402D+01  1  2 12  3  6  4        2 0.216877901663D-07 0.100000000000D+01
-.144292090639D-02 0.000000000000D+00 0.000000000000D+00 0.470029443988D-06 0.000000000000D+00  6 2 1 25 2 1 21 2 0.22242266D+00 0.27744583D+00 0.55787721D+06 0.55787721D+06 0.55787721D+06 0.10651647D+01  1  2  4  3  6  4        2 -.132114133407D-02 0.100000000000D+01
-.238306079425D-02 0.000000000000D+00 0.000000000000D+00 0.470029443988D-06 0.000000000000D+00  6 2 1 25 2 1 21 2 0.22242266D+00 0.27744583D+00 0.55787721D+06 0.55787721D+06 0.55787721D+06 0.10651647D+01  1  2  5  3  6  4        2 -.218193533889D-02 0.100000000000D+01
0.263019814013D-02 0.000000000000D+00 -.000000000000D+00 0.470029443988D-06 0.000000000000D+00  6 2 1 25 2 1 21 2 0.22242266D+00 0.27744583D+00 0.55787721D+06 0.55787721D+06 0.55787721D+06 0.10651647D+01  1  2  6  3  6  4        2 0.240821479842D-02 0.100000000000D+01
  </mgrwgt>
  </event>
  <event>
  5     66 -.18337608E-05 0.12523690E+02 0.75467711E-02 0.94361913E-01
        2 -1    0    0  501    0 0.00000000E+00 0.00000000E+00 0.73268160E+03 0.73268167E+03 0.32000000E+00 0.0000E+00 0.9000E+01
        1 -1    0    0  502    0 0.00000000E+00 0.00000000E+00 -.49635370E+03 0.49635380E+03 0.32000000E+00 0.0000E+00 0.9000E+01
       25  1    1    2    0    0 0.46213479E+03 -.19893599E+03 0.16305043E+03 0.54346530E+03 0.12500000E+03 0.0000E+00 0.9000E+01
        2  1    1    2  501    0 -.73731483E+01 0.10147216E+02 0.18108132E+03 0.18151550E+03 0.32000000E+00 0.0000E+00 0.9000E+01
        1  1    1    2  502    0 -.45476164E+03 0.18878877E+03 -.10780384E+03 0.50405468E+03 0.32000000E+00 0.0000E+00 0.9000E+01
#aMCatNLO 1  0  0  4  1 0.23709043D+01 0.00000000D+00  -5  6  0 0.00000000D+00 0.00000000D+00 0.00000000D+00 0.00000000D+00 0.00000000D+00
  <mgrwgt>
 -.4140926298D-01    8    2    0
 0.603050021954036D+03 0.000000000000000D+00 0.000000000000000D+00 0.603050021954036D+03
 0.603050021954036D+03 -.000000000000000D+00 -.000000000000000D+00 -.603050021954036D+03
 0.521984907485043D+03 0.462247655379058D+03 -.198976469348842D+03 0.598223485346574D+02
 0.149253812159461D+03 -.736173965622780D+01 0.101315148627629D+02 0.148727460947705D+03
 0.534861324263567D+03 -.454885915722831D+03 0.188844954486079D+03 -.208549809482362D+03
 0.000000000000000D+00 0.000000000000000D+00 0.000000000000000D+00 0.000000000000000D+00
 0.603050021954036D+03 0.000000000000000D+00 0.000000000000000D+00 0.603050021954036D+03
 0.603050021954036D+03 -.000000000000000D+00 -.000000000000000D+00 -.603050021954036D+03
 0.521987473329010D+03 0.462244824232024D+03 -.198972573013247D+03 0.598795455192996D+02
 0.256325220146643D+02 -.262383739279695D+01 0.366084053428129D+01 0.252337058069355D+02
 0.534842352343900D+03 -.454888816650525D+03 0.188848946856555D+03 -.208491202735779D+03
 0.123637696220497D+03 -.473217018870119D+01 0.646278562241074D+01 0.123377951409544D+03
0.450115048532D-04 0.000000000000D+00 0.000000000000D+00 0.884687509924D-06 0.000000000000D+00  6 2 1 25 2 1 21 0 0.11272026D+00 0.76362120D-01 0.26193774D+06 0.26193774D+06 0.26193774D+06 0.10889384D+01  1  2  2  3  6  4        2 0.111641944396D-02 0.100000000000D+01
0.291762362137D-04 0.000000000000D+00 -.172856030438D-06 0.884687509924D-06 0.000000000000D+00  6 2 1 25 2 1 21 2 0.11272026D+00 0.76362120D-01 0.26193774D+06 0.26193774D+06 0.26193774D+06 0.10889384D+01  1  2  3  3  6  4        2 0.858103601183D-03 0.100000000000D+01
-.267272115779D-04 0.000000000000D+00 0.000000000000D+00 0.884687509924D-06 0.000000000000D+00  6 2 1 25 2 1 21 2 0.11272026D+00 0.76362120D-01 0.26193774D+06 0.26193774D+06 0.26193774D+06 0.10889384D+01  1  2 15  3  6  4        2 -.786075226997D-03 0.100000000000D+01
0.483669726585D-05 0.000000000000D+00 0.000000000000D+00 0.884687509924D-06 0.000000000000D+00  6 2 1 25 2 1 21 2 0.11272026D+00 0.76362120D-01 0.26193292D+06 0.26193292D+06 0.26193292D+06 0.10889390D+01  1  2 12  3  6  4        2 0.142252553809D-03 0.100000000000D+01
0.197459986818D-08 0.000000000000D+00 0.000000000000D+00 0.884687509924D-06 0.000000000000D+00  6 2 1 25 2 1 21 2 0.11272026D+00 0.76362120D-01 0.26193292D+06 0.26193292D+06 0.26193292D+06 0.10889390D+01  1  2 12  3  6  4        2 0.580751406511D-07 0.100000000000D+01
-.432953017084D-02 0.000000000000D+00 0.000000000000D+00 0.884687509924D-06 0.000000000000D+00  6 2 1 25 2 1 21 2 0.11272026D+00 0.76362120D-01 0.26193774D+06 0.26193774D+06 0.26193774D+06 0.10889384D+01  1  2  4  3  6  4        2 -.127336007421D+00 0.100000000000D+01
-.138654026497D-02 0.000000000000D+00 0.000000000000D+00 0.884687509924D-06 0.000000000000D+00  6 2 1 25 2 1 21 2 0.11272026D+00 0.76362120D-01 0.26193774D+06 0.26193774D+06 0.26193774D+06 0.10889384D+01  1  2  5  3  6  4        2 -.407795983637D-01 0.100000000000D+01
0.426287415590D-02 0.000000000000D+00 -.000000000000D+00 0.884687509924D-06 0.000000000000D+00  6 2 1 25 2 1 21 2 0.11272026D+00 0.76362120D-01 0.26193774D+06 0.26193774D+06 0.26193774D+06 0.10889384D+01  1  2  6  3  6  4        2 0.125375584355D+00 0.100000000000D+01
  </mgrwgt>
  </event>
  <event>
  5     66 -.18337608E-05 0.23246263E+02 0.75467711E-02 0.90195731E-01
        2 -1    0    0  501    0 0.00000000E+00 0.00000000E+00 0.23071334E+04 0.23071334E+04 0.32000000E+00 0.0000E+00 0.9000E+01
        1 -1    0    0  502    0 0.00000000E+00 0.00000000E+00 -.28900233E+03 0.28900251E+03 0.32000000E+00 0.0000E+00 0.9000E+01
       25  1    1    2    0    0 -.64352136E+03 -.33337696E+03 0.12219006E+04 0.14261578E+04 0.12500000E+03 0.0000E+00 0.9000E+01
        2  1    1    2  501    0 -.20526296E+02 -.11078833E+02 0.23151690E+03 0.23268917E+03 0.32000000E+00 0.0000E+00 0.9000E+01
        1  1    1    2  502    0 0.66404766E+03 0.34445580E+03 0.56471352E+03 0.93728894E+03 0.32000000E+00 0.0000E+00 0.9000E+01
#aMCatNLO 1  0  0  1  4 0.66953425D+02 0.00000000D+00  -5  6  0 0.00000000D+00 0.00000000D+00 0.00000000D+00 0.00000000D+00 0.00000000D+00
  <mgrwgt>
 -.1914340644D-05    1    2    0
 0.816558130539971D+03 0.000000000000000D+00 0.000000000000000D+00 0.816558130539971D+03
 0.816558130539971D+03 0.000000000000000D+00 0.000000000000000D+00 -.816558130539971D+03
 0.757387907508688D+03 -.643694932623580D+03 -.333467899110247D+03 0.180187226012587D+03
 0.835191835904824D+02 -.204567481007969D+02 -.110412953500875D+02 0.802188586415525D+02
 0.792209169980771D+03 0.664151680724377D+03 0.344509194460334D+03 -.260406084654140D+03
 0.000000000000000D+00 -.000000000000000D+00 -.000000000000000D+00 0.000000000000000D+00
 0.817193070368104D+03 0.000000000000000D+00 0.000000000000000D+00 0.817193070368104D+03
 0.816559902948333D+03 0.000000000000000D+00 0.000000000000000D+00 -.816559902948333D+03
 0.757364008909901D+03 -.643681298563006D+03 -.333439936801528D+03 0.180187226012587D+03
 0.835184077600836D+02 -.204552446198546D+02 -.110382118374368D+02 0.802188586415525D+02
 0.792233845787611D+03 0.664165942064350D+03 0.344538443266210D+03 -.260406084654140D+03
 0.636710858841688D+00 -.293988814888635D-01 -.602946272456474D-01 0.633167419770974D+00
-.277721957063D-06 0.000000000000D+00 0.000000000000D+00 0.136201146808D-06 0.000000000000D+00  6 2 1 25 2 1 21 2 0.35494361D+00 0.44461912D-01 0.56781901D+06 0.56781901D+06 0.56781901D+06 0.10646281D+01  1  2 14  1  6  1        2 -.191434064361D-05 0.100000000000D+01
  </mgrwgt>
  </event>
  <event>
  5     66 0.18337608E-05 0.62011082E+02 0.75467711E-02 0.94471767E-01
        2 -1    0    0  501    0 0.00000000E+00 0.00000000E+00 0.10815390E+04 0.10815390E+04 0.32000000E+00 0.0000E+00 0.9000E+01
        1 -1    0    0  502    0 0.00000000E+00 0.00000000E+00 -.15500161E+04 0.15500162E+04 0.32000000E+00 0.0000E+00 0.9000E+01
       25  1    1    2    0    0 -.18170711E+03 -.44990321E+03 0.54977261E+03 0.74384494E+03 0.12500000E+03 0.0000E+00 0.9000E+01
        2  1    1    2  501    0 0.59895230E+02 0.16157373E+02 0.39734172E+03 0.40215550E+03 0.32000000E+00 0.0000E+00 0.9000E+01
        1  1    1    2  502    0 0.12181188E+03 0.43374583E+03 -.14155915E+04 0.14855547E+04 0.32000000E+00 0.0000E+00 0.9000E+01
#aMCatNLO 1  0  0  2  4 0.89426585D+02 0.00000000D+00  -5  6  0 0.00000000D+00 0.00000000D+00 0.00000000D+00 0.00000000D+00 0.00000000D+00
  <mgrwgt>
 0.4464058939D-02    7    2    0
 0.129475980760072D+04 0.000000000000000D+00 0.000000000000000D+00 0.129475980760072D+04
 0.129475980760072D+04 0.000000000000000D+00 0.000000000000000D+00 -.129475980760072D+04
 0.855558220417974D+03 -.181699125177060D+03 -.449949478466736D+03 0.693459272965740D+03
 0.480372605577898D+03 0.598709077808275D+02 0.161508116397673D+02 0.476353299426565D+03
 0.125358878920558D+04 0.121828217396233D+03 0.433798666826969D+03 -.116981257239231D+04
 0.000000000000000D+00 -.000000000000000D+00 -.000000000000000D+00 -.000000000000000D+00
 0.136155120106420D+04 0.000000000000000D+00 0.000000000000000D+00 0.136155120106420D+04
 0.168348518794510D+04 0.000000000000000D+00 0.000000000000000D+00 -.168348518794510D+04
 0.805460517688433D+03 -.149803302588784D+03 -.360298283129740D+03 0.693459272965740D+03
 0.487592145417380D+03 0.784583151719372D+02 0.683953739556232D+02 0.476353299426565D+03
 0.131351995673067D+04 0.171123293512316D+03 0.572354820561641D+03 -.116981257239231D+04
 0.438463769172813D+03 -.997783060954694D+02 -.280451911387524D+03 -.321933986880903D+03
0.109024318393D-02 0.000000000000D+00 0.000000000000D+00 0.323495504147D-04 0.000000000000D+00  6 2 1 25 2 1 21 0 0.16639062D+00 0.23846402D+00 0.25688941D+06 0.25688941D+06 0.25688941D+06 0.10895720D+01  1  2  2  2  6  2        1 0.222782540870D-02 0.100000000000D+01
0.221793440928D-03 0.000000000000D+00 -.418682089391D-05 0.323495504147D-04 0.000000000000D+00  6 2 1 25 2 1 21 2 0.16639062D+00 0.23846402D+00 0.25688941D+06 0.25688941D+06 0.25688941D+06 0.10895720D+01  1  2  3  2  6  2        1 0.538044719793D-03 0.100000000000D+01
-.697948934545D-03 0.000000000000D+00 0.000000000000D+00 0.323495504147D-04 0.000000000000D+00  6 2 1 25 2 1 21 2 0.16639062D+00 0.23846402D+00 0.25688941D+06 0.25688941D+06 0.25688941D+06 0.10895720D+01  1  2 15  2  6  2        1 -.169314176896D-02 0.100000000000D+01
-.153249046865D-03 0.000000000000D+00 0.000000000000D+00 0.323495504147D-04 0.000000000000D+00  6 2 1 25 2 1 21 2 0.16639062D+00 0.23846402D+00 0.25688941D+06 0.25688941D+06 0.25688941D+06 0.10895720D+01  1  2  4  2  6  2        1 -.371764106883D-03 0.100000000000D+01
-.262036017831D-02 0.000000000000D+00 -.855568360056D-03 0.323495504147D-04 0.000000000000D+00  6 2 1 25 2 1 21 2 0.16639062D+00 0.31588283D+00 0.25688941D+06 0.25688941D+06 0.25688941D+06 0.10895720D+01  1  2  5  2  6  2        1 -.294454905874D-02 0.100000000000D+01
0.278292439687D-02 0.000000000000D+00 0.822832371777D-03 0.323495504147D-04 0.000000000000D+00  6 2 1 25 2 1 21 2 0.16639062D+00 0.23846402D+00 0.25688941D+06 0.25688941D+06 0.25688941D+06 0.10895720D+01  1  2  6  2  6  2        1 0.675104624851D-02 0.100000000000D+01
-.793125659889D-04 0.000000000000D+00 -.315536816985D-04 0.323495504147D-04 0.000000000000D+00  6 2 21 25 2 1 -1 2 0.16639062D+00 0.31588283D+00 0.25688941D+06 0.25688941D+06 0.25688941D+06 0.10895720D+01  1  2  5  6  6  2        1 -.434025034424D-04 0.100000000000D+01
  </mgrwgt>
  </event>
  <event>
  5     66 -.18337608E-05 0.21933980E+03 0.75467711E-02 0.94318659E-01
        2 -1    0    0  501    0 0.00000000E+00 0.00000000E+00 0.69780476E+03 0.69780483E+03 0.32000000E+00 0.0000E+00 0.9000E+01
        1 -1    0    0  502    0 -.00000000E+00 -.00000000E+00 -.11353954E+04 0.11353954E+04 0.32000000E+00 0.0000E+00 0.9000E+01
       25  1    1    2    0    0 -.27879530E+03 -.36380229E+03 -.17464730E+03 0.50616757E+03 0.12500000E+03 0.0000E+00 0.9000E+01
        2  1    1    2  501    0 -.14174772E+02 0.22955832E+03 0.47171651E+03 0.52479950E+03 0.32000000E+00 0.0000E+00 0.9000E+01
        1  1    1    2  502    0 0.29297008E+03 0.13424397E+03 -.73465982E+03 0.80223318E+03 0.32000000E+00 0.0000E+00 0.9000E+01
#aMCatNLO 1  0  0  4  1 0.74144024D+01 0.00000000D+00  -5  6  0 0.00000000D+00 0.00000000D+00 0.00000000D+00 0.00000000D+00 0.00000000D+00
  <mgrwgt>
 -.8420254557D-02    9    2    0
 0.890103588620230D+03 0.000000000000000D+00 0.000000000000000D+00 0.890103588620230D+03
 0.890103588620230D+03 -.000000000000000D+00 -.000000000000000D+00 -.890103588620230D+03
 0.478325590749287D+03 -.278839264362474D+03 -.363808359884943D+03 -.553399737375905D+02
 0.656307533191631D+03 -.141733430815805D+02 0.229535184163161D+03 0.614696912064116D+03
 0.645574053299542D+03 0.293012607444054D+03 0.134273175721782D+03 -.559356938326525D+03
 0.000000000000000D+00 0.000000000000000D+00 0.000000000000000D+00 0.000000000000000D+00
 0.890103588620230D+03 0.000000000000000D+00 0.000000000000000D+00 0.890103588620230D+03
 0.890103588620230D+03 -.000000000000000D+00 -.000000000000000D+00 -.890103588620230D+03
 0.478309281588100D+03 -.278840238017858D+03 -.363792591680739D+03 -.552977463707130D+02
 0.341207446277840D+03 -.121670635650211D+02 0.124561345161469D+03 0.317425511342764D+03
 0.645528504373803D+03 0.293011293370113D+03 0.134294456953907D+03 -.559299947030310D+03
 0.315161945000718D+03 -.200399178723369D+01 0.104936789565363D+03 0.297172182058258D+03
0.711517263425D-05 0.000000000000D+00 0.000000000000D+00 0.991099903748D-06 0.000000000000D+00  6 2 1 25 2 1 21 0 0.10735459D+00 0.17467622D+00 0.26388712D+06 0.26388712D+06 0.26388712D+06 0.10886972D+01  1  2  2  3  6  4        2 0.504335003312D-04 0.100000000000D+01
0.583332176852D-06 0.000000000000D+00 -.273241363835D-07 0.991099903748D-06 0.000000000000D+00  6 2 1 25 2 1 21 2 0.10735459D+00 0.17467622D+00 0.26388712D+06 0.26388712D+06 0.26388712D+06 0.10886972D+01  1  2  3  3  6  4        2 0.490076461993D-05 0.100000000000D+01
-.421589660818D-05 0.000000000000D+00 0.000000000000D+00 0.991099903748D-06 0.000000000000D+00  6 2 1 25 2 1 21 2 0.10735459D+00 0.17467622D+00 0.26388712D+06 0.26388712D+06 0.26388712D+06 0.10886972D+01  1  2 15  3  6  4        2 -.354191278289D-04 0.100000000000D+01
0.278231485541D-02 0.000000000000D+00 0.000000000000D+00 0.991099903748D-06 0.000000000000D+00  6 2 1 25 2 1 21 2 0.10735459D+00 0.17467622D+00 0.26395591D+06 0.26395591D+06 0.26395591D+06 0.10886888D+01  1  2 12  3  6  4        2 0.233744913019D-01 0.100000000000D+01
0.694855522512D-07 0.000000000000D+00 0.000000000000D+00 0.991099903748D-06 0.000000000000D+00  6 2 1 25 2 1 21 2 0.10735459D+00 0.17467622D+00 0.26395591D+06 0.26395591D+06 0.26395591D+06 0.10886888D+01  1  2 12  3  6  4        2 0.583754722635D-06 0.100000000000D+01
-.548193911758D-02 0.000000000000D+00 0.000000000000D+00 0.991099903748D-06 0.000000000000D+00  6 2 1 25 2 1 21 2 0.10735459D+00 0.17467622D+00 0.26388712D+06 0.26388712D+06 0.26388712D+06 0.10886972D+01  1  2  4  3  6  4        2 -.460555654944D-01 0.100000000000D+01
-.284435897704D-02 0.000000000000D+00 0.000000000000D+00 0.991099903748D-06 0.000000000000D+00  6 2 1 25 2 1 21 2 0.10735459D+00 0.17467622D+00 0.26388712D+06 0.26388712D+06 0.26388712D+06 0.10886972D+01  1  2  5  3  6  4        2 -.238963911031D-01 0.100000000000D+01
0.447864538341D-02 0.000000000000D+00 -.000000000000D+00 0.991099903748D-06 0.000000000000D+00  6 2 1 25 2 1 21 2 0.10735459D+00 0.17467622D+00 0.26388712D+06 0.26388712D+06 0.26388712D+06 0.10886972D+01  1  2  6  3  6  4        2 0.376265663222D-01 0.100000000000D+01
0.607236946595D-04 0.000000000000D+00 0.000000000000D+00 0.991099903748D-06 0.418956697665D-07  6 2 1 25 2 1 21 2 0.10735459D+00 0.17467622D+00 0.26395591D+06 0.26395591D+06 0.26395591D+06 0.10886888D+01  1  2 11  3  6  4        2 0.510145525003D-03 0.100000000000D+01
  </mgrwgt>
  </event>
  <event>
  5     66 0.18337608E-05 0.98042854E+02 0.75467711E-02 0.92534516E-01
        2 -1    0    0  501    0 0.00000000E+00 0.00000000E+00 0.23109519E+04 0.23109520E+04 0.32000000E+00 0.0000E+00 0.9000E+01
        1 -1    0    0  502    0 0.00000000E+00 0.00000000E+00 -.12269848E+04 0.12269848E+04 0.32000000E+00 0.0000E+00 0.9000E+01
       25  1    1    2    0    0 -.35410267E+03 0.31625739E+03 0.63052567E+03 0.79912143E+03 0.12500000E+03 0.0000E+00 0.9000E+01
        2  1    1    2  501    0 -.74048146E+02 -.64272416E+02 0.15404983E+04 0.15436157E+04 0.32000000E+00 0.0000E+00 0.9000E+01
        1  1    1    2  502    0 0.42815082E+03 -.25198497E+03 -.10870568E+04 0.11951997E+04 0.32000000E+00 0.0000E+00 0.9000E+01
#aMCatNLO 1  0  0  1  2 0.15796883D+03 0.00000000D+00  -5  6  0 0.00000000D+00 0.00000000D+00 0.00000000D+00 0.00000000D+00 0.00000000D+00
  <mgrwgt>
 0.1898818547D-01    7    2    0
 0.168389516486594D+04 0.000000000000000D+00 0.000000000000000D+00 0.168389516486594D+04
 0.168389516486594D+04 0.000000000000000D+00 0.000000000000000D+00 -.168389516486594D+04
 0.636642131643786D+03 -.354146038705389D+03 0.316274866195948D+03 0.405264106560104D+03
 0.112567443839401D+04 -.740417136258448D+02 -.642668327162117D+02 0.112139669167946D+04
 0.160547375969408D+04 0.428187752331234D+03 -.252008033479736D+03 -.152666079823956D+04
 0.000000000000000D+00 -.000000000000000D+00 -.000000000000000D+00 0.000000000000000D+00
 0.245978455782088D+04 0.000000000000000D+00 0.000000000000000D+00 0.245978455782088D+04
 0.169380629109675D+04 0.000000000000000D+00 0.000000000000000D+00 -.169380629109675D+04
 0.644406140390103D+03 -.342280933882954D+03 0.343859040897172D+03 0.405264106560104D+03
 0.112277060585894D+04 -.532165529196118D+02 -.158521849150744D+02 0.112139669167946D+04
 0.160431637366821D+04 0.457916918063528D+03 -.182893220458396D+03 -.152666079823956D+04
 0.782097729000374D+03 -.624194312609628D+02 -.145113635523702D+03 0.765978266724124D+03
0.182338389421D-02 0.000000000000D+00 0.000000000000D+00 0.774531639126D-04 0.000000000000D+00  6 2 1 25 2 1 21 0 0.35553107D+00 0.18876689D+00 0.29478318D+06 0.29478318D+06 0.29478318D+06 0.10851160D+01  1  2  2  1  6  1        2 0.127057440400D-02 0.100000000000D+01
0.434225027834D-03 0.000000000000D+00 -.700227426179D-05 0.774531639126D-04 0.000000000000D+00  6 2 1 25 2 1 21 2 0.35553107D+00 0.18876689D+00 0.29478318D+06 0.29478318D+06 0.29478318D+06 0.10851160D+01  1  2  3  1  6  1        2 0.356278118712D-03 0.100000000000D+01
-.117734973020D-02 0.000000000000D+00 0.000000000000D+00 0.774531639126D-04 0.000000000000D+00  6 2 1 25 2 1 21 2 0.35553107D+00 0.18876689D+00 0.29478318D+06 0.29478318D+06 0.29478318D+06 0.10851160D+01  1  2 15  1  6  1        2 -.966005918711D-03 0.100000000000D+01
-.128723730202D-02 0.000000000000D+00 0.000000000000D+00 0.774531639126D-04 0.000000000000D+00  6 2 1 25 2 1 21 2 0.35553107D+00 0.18876689D+00 0.29478318D+06 0.29478318D+06 0.29478318D+06 0.10851160D+01  1  2  4  1  6  1        2 -.105616778145D-02 0.100000000000D+01
-.325515840505D-01 0.000000000000D+00 -.100272230915D-02 0.774531639126D-04 0.000000000000D+00  6 2 1 25 2 1 21 2 0.51995308D+00 0.18876689D+00 0.29478318D+06 0.29478318D+06 0.29478318D+06 0.10851160D+01  1  2  5  1  6  1        2 -.583770848398D-02 0.100000000000D+01
0.307523927812D-01 0.000000000000D+00 0.934397293169D-03 0.774531639126D-04 0.000000000000D+00  6 2 1 25 2 1 21 2 0.35553107D+00 0.18876689D+00 0.29478318D+06 0.29478318D+06 0.29478318D+06 0.10851160D+01  1  2  6  1  6  1        2 0.252320892248D-01 0.100000000000D+01
-.146091709354D-02 0.000000000000D+00 -.459850689597D-04 0.774531639126D-04 0.000000000000D+00  6 21 1 25 2 1 -2 2 0.51995308D+00 0.18876689D+00 0.29478318D+06 0.29478318D+06 0.29478318D+06 0.10851160D+01  1  2  5  5  6  1        2 -.108740936196D-04 0.100000000000D+01
  </mgrwgt>
  </event>
  <event>
  6     66 0.18337608E-05 0.86931141E+02 0.75467711E-02 0.94002131E-01
        2 -1    0    0  501    0 0.00000000E+00 0.00000000E+00 0.23173824E+04 0.23173824E+04 0.32000000E+00 0.0000E+00 0.9000E+01
        1 -1    0    0  503    0 0.00000000E+00 0.00000000E+00 -.77820566E+03 0.77820573E+03 0.32000000E+00 0.0000E+00 0.9000E+01
       25  1    1    2    0    0 -.23591813E+03 0.43494220E+03 0.42537208E+03 0.66437828E+03 0.12500000E+03 0.0000E+00 0.9000E+01
        2  1    1    2  501    0 -.14812156E+02 0.10880889E+02 0.16176699E+04 0.16177743E+04 0.32000000E+00 0.0000E+00 0.9000E+01
        1  1    1    2  502    0 0.25348040E+03 -.34974278E+03 -.16695863E+03 0.46308489E+03 0.32000000E+00 0.0000E+00 0.9000E+01
       21  1    1    2  503  502 -.27501125E+01 -.96080317E+02 -.33690658E+03 0.35035068E+03 0.75000000E+00 0.0000E+00 0.9000E+01
#aMCatNLO 2  0  0  2  4 0.96119668D+02 0.00000000D+00  -5  6  0 0.00000000D+00 0.00000000D+00 0.00000000D+00 0.00000000D+00 0.00000000D+00
  <mgrwgt>
 0.3691297078D-01    1    2    0
 0.100092472124480D+04 0.000000000000000D+00 0.000000000000000D+00 0.100092472124480D+04
 0.100092472124480D+04 0.000000000000000D+00 0.000000000000000D+00 -.100092472124480D+04
 0.491952046321095D+03 -.236643013779168D+03 0.410920618978803D+03 -.391936832551226D+02
 0.701913450582838D+03 -.157739696348608D+02 -.227824987190484D+02 0.701366260767640D+03
 0.807983945585668D+03 0.252416983414028D+03 -.388138120259755D+03 -.662172577512517D+03
 0.000000000000000D+00 -.000000000000000D+00 -.000000000000000D+00 -.000000000000000D+00
 0.100499287824403D+04 0.000000000000000D+00 0.000000000000000D+00 0.100499287824403D+04
 0.179444020501362D+04 0.000000000000000D+00 0.000000000000000D+00 -.179444020501362D+04
 0.511916170228484D+03 -.235953860767914D+03 0.434997466800683D+03 -.391936832551226D+02
 0.701606975345338D+03 -.148104563848752D+02 0.108796365621357D+02 0.701366260767640D+03
 0.790632582133740D+03 0.253514429648261D+03 -.349796785980106D+03 -.662172577512517D+03
 0.795277355550091D+03 -.275011249547235D+01 -.960803173827130D+02 -.789447326769586D+03
0.202266098354D-01 0.000000000000D+00 0.000000000000D+00 0.385594954134D-04 0.515580827853D-07  6 2 1 25 2 1 21 2 0.35652032D+00 0.11972393D+00 0.27926690D+06 0.27926690D+06 0.27926690D+06 0.10868604D+01  1  2  1  2  6  2        1 0.369129707753D-01 0.100000000000D+01
  </mgrwgt>
  </event>
  <event>
  6     66 0.18337608E-05 0.27723162E+02 0.75467711E-02 0.94512315E-01
        2 -1    0    0  501    0 0.00000000E+00 0.00000000E+00 0.14132063E+04 0.14132063E+04 0.32000000E+00 0.0000E+00 0.9000E+01
        1 -1    0    0  503    0 0.00000000E+00 0.00000000E+00 -.10439028E+04 0.10439028E+04 0.32000000E+00 0.0000E+00 0.9000E+01
       25  1    1    2    0    0 -.68051740E+02 -.48797401E+03 -.51069723E+03 0.72054586E+03 0.12500000E+03 0.0000E+00 0.9000E+01
        2  1    1    2  501    0 0.58842827E+02 0.45150813E+03 0.12671644E+04 0.13464872E+04 0.32000000E+00 0.0000E+00 0.9000E+01
        1  1    1    2  502    0 0.18681953E+02 0.28362122E+02 -.24126543E+03 0.24364428E+03 0.32000000E+00 0.0000E+00 0.9000E+01
       21  1    1    2  503  502 -.94730401E+01 0.81037553E+01 -.14589827E+03 0.14643181E+03 0.75000000E+00 0.0000E+00 0.9000E+01
#aMCatNLO 2  0  0  2  4 0.12466328D+02 0.00000000D+00  -5  6  0 0.00000000D+00 0.00000000D+00 0.00000000D+00 0.00000000D+00 0.00000000D+00
  <mgrwgt>
 0.3074376072D-01    2    2    0
 0.112623726461913D+04 0.000000000000000D+00 0.000000000000000D+00 0.112623726461913D+04
 0.112623726461913D+04 0.000000000000000D+00 0.000000000000000D+00 -.112623726461913D+04
 0.854567929302658D+03 -.716460881746231D+02 -.484895698874513D+03 -.688770168528592D+03
 0.109283071807198D+04 0.542502412871038D+02 0.455440923142356D+03 0.991922101381581D+03
 0.305075881863626D+03 0.173958468875193D+02 0.294547757321563D+02 -.303151932852989D+03
 0.000000000000000D+00 -.000000000000000D+00 0.000000000000000D+00 -.000000000000000D+00
 0.112646639260069D+04 0.000000000000000D+00 0.000000000000000D+00 0.112646639260069D+04
 0.130962457420666D+04 0.000000000000000D+00 0.000000000000000D+00 -.130962457420666D+04
 0.856024216587741D+03 -.680490699317934D+02 -.487972784498448D+03 -.688770168528592D+03
 0.109143706525682D+04 0.588433005284515D+02 0.451511769713789D+03 0.991922101381581D+03
 0.305047744598174D+03 0.186788095271158D+02 0.283572595040366D+02 -.303151932852989D+03
 0.183581940364622D+03 -.947304012377380D+01 0.810375528062247D+01 -.183158181605968D+03
-.183489619069D-07 0.000000000000D+00 0.000000000000D+00 0.265678469996D-04 0.000000000000D+00  6 2 1 25 2 1 21 2 0.21737198D+00 0.16061419D+00 0.25505369D+06 0.25505369D+06 0.25505369D+06 0.10898058D+01  1  2 13  2  6  2        1 -.648947020475D-07 0.100000000000D+01
0.869464855311D-02 0.000000000000D+00 0.000000000000D+00 0.265678469996D-04 0.919407780080D-06  6 2 1 25 2 1 21 2 0.21741621D+00 0.16060033D+00 0.25505369D+06 0.25505369D+06 0.25505369D+06 0.10898058D+01  1  2  1  2  6  2        1 0.307438256150D-01 0.100000000000D+01
  </mgrwgt>
  </event>
  <event>
  5     66 0.18337608E-05 0.39547508E+02 0.75467711E-02 0.92494382E-01
        2 -1    0    0  501    0 0.00000000E+00 0.00000000E+00 0.24884274E+04 0.24884274E+04 0.32000000E+00 0.0000E+00 0.9000E+01
        1 -1    0    0  502    0 0.00000000E+00 0.00000000E+00 -.11907756E+04 0.11907757E+04 0.32000000E+00 0.0000E+00 0.9000E+01
       25  1    1    2    0    0 0.32597964E+03 0.46069877E+03 -.72284558E+03 0.92554676E+03 0.12500000E+03 0.0000E+00 0.9000E+01
        2  1    1    2  501    0 -.17985083E+02 -.35222105E+02 0.21986553E+04 0.21990110E+04 0.32000000E+00 0.0000E+00 0.9000E+01
        1  1    1    2  502    0 -.30799456E+03 -.42547666E+03 -.17815803E+03 0.55464531E+03 0.32000000E+00 0.0000E+00 0.9000E+01
#aMCatNLO 1  0  0  1  4 0.15281430D+03 0.00000000D+00  -5  6  0 0.00000000D+00 0.00000000D+00 0.00000000D+00 0.00000000D+00 0.00000000D+00
  <mgrwgt>
 0.4102229234D-01    7    2    0
 0.172138283232669D+04 0.000000000000000D+00 0.000000000000000D+00 0.172138283232669D+04
 0.172138283232669D+04 0.000000000000000D+00 0.000000000000000D+00 -.172138283232669D+04
 0.126157006578350D+04 0.326001219374432D+03 0.460728958611953D+03 -.112133227124868D+04
 0.152128503037557D+04 -.179847699120562D+02 -.352214909510447D+02 0.152077090262511D+04
 0.659910568494313D+03 -.308016449462376D+03 -.425507467660908D+03 -.399438631376437D+03
 0.000000000000000D+00 0.000000000000000D+00 -.000000000000000D+00 0.000000000000000D+00
 0.186222851454383D+04 0.000000000000000D+00 0.000000000000000D+00 0.186222851454383D+04
 0.172813240291266D+04 0.000000000000000D+00 0.000000000000000D+00 -.172813240291266D+04
 0.125917291052314D+04 0.305243284087830D+03 0.468328830599683D+03 -.112133227124868D+04
 0.152160285899777D+04 -.430424891978772D+02 -.260473868675986D+02 0.152077090262511D+04
 0.662519450737452D+03 -.318906459676941D+03 -.421520429333970D+03 -.399438631376437D+03
 0.147065697198130D+03 0.567056647869882D+02 -.207610143981143D+02 0.134096111631170D+03
0.855394348819D-02 0.000000000000D+00 0.000000000000D+00 0.169553367727D-04 0.000000000000D+00  6 2 1 25 2 1 21 0 0.38283499D+00 0.18319626D+00 0.32656400D+06 0.32656400D+06 0.32656400D+06 0.10818362D+01  1  2  2  1  6  1        2 0.496220047883D-02 0.100000000000D+01
0.538835988099D-02 0.000000000000D+00 -.328493952997D-04 0.169553367727D-04 0.000000000000D+00  6 2 1 25 2 1 21 2 0.38283499D+00 0.18319626D+00 0.32656400D+06 0.32656400D+06 0.32656400D+06 0.10818362D+01  1  2  3  1  6  1        2 0.365836957435D-02 0.100000000000D+01
-.552285336789D-02 0.000000000000D+00 0.000000000000D+00 0.169553367727D-04 0.000000000000D+00  6 2 1 25 2 1 21 2 0.38283499D+00 0.18319626D+00 0.32656400D+06 0.32656400D+06 0.32656400D+06 0.10818362D+01  1  2 15  1  6  1        2 -.374968249540D-02 0.100000000000D+01
-.117984819588D-02 0.000000000000D+00 0.000000000000D+00 0.169553367727D-04 0.000000000000D+00  6 2 1 25 2 1 21 2 0.38283499D+00 0.18319626D+00 0.32656400D+06 0.32656400D+06 0.32656400D+06 0.10818362D+01  1  2  4  1  6  1        2 -.801045371411D-03 0.100000000000D+01
-.220750625698D+00 0.000000000000D+00 -.173663910477D-01 0.169553367727D-04 0.000000000000D+00  6 2 1 25 2 1 21 2 0.41462903D+00 0.18319626D+00 0.32656400D+06 0.32656400D+06 0.32656400D+06 0.10818362D+01  1  2  5  1  6  1        2 -.113282728873D+00 0.100000000000D+01
0.221486001221D+00 0.000000000000D+00 0.173112698010D-01 0.169553367727D-04 0.000000000000D+00  6 2 1 25 2 1 21 2 0.38283499D+00 0.18319626D+00 0.32656400D+06 0.32656400D+06 0.32656400D+06 0.10818362D+01  1  2  6  1  6  1        2 0.150375562491D+00 0.100000000000D+01
-.290439428442D-02 0.000000000000D+00 -.231394604070D-03 0.169553367727D-04 0.000000000000D+00  6 21 1 25 2 1 -2 2 0.41462903D+00 0.18319626D+00 0.32656400D+06 0.32656400D+06 0.32656400D+06 0.10818362D+01  1  2  5  5  6  1        2 -.140383461444D-03 0.100000000000D+01
  </mgrwgt>
  </event>
  <event>
  5     66 0.18337608E-05 0.25534477E+02 0.75467711E-02 0.89058604E-01
        2 -1    0    0  501    0 0.00000000E+00 0.00000000E+00 0.79865113E+03 0.79865120E+03 0.32000000E+00 0.0000E+00 0.9000E+01
        1 -1    0    0  502    0 0.00000000E+00 0.00000000E+00 -.15314907E+04 0.15314907E+04 0.32000000E+00 0.0000E+00 0.9000E+01
       25  1    1    2    0    0 -.50749300E+02 -.44773822E+03 -.24868001E+03 0.52963360E+03 0.12500000E+03 0.0000E+00 0.9000E+01
        2  1    1    2  501    0 -.93419650E+01 -.23766198E+02 0.60845066E+03 0.60898638E+03 0.32000000E+00 0.0000E+00 0.9000E+01
        1  1    1    2  502    0 0.60091265E+02 0.47150441E+03 -.10926102E+04 0.11915219E+04 0.32000000E+00 0.0000E+00 0.9000E+01
#aMCatNLO 1  0  0  2  5 0.48428071D+01 0.00000000D+00  -5  6  0 0.00000000D+00 0.00000000D+00 0.00000000D+00 0.00000000D+00 0.00000000D+00
  <mgrwgt>
 0.1177826875D+00    6    2    0
 0.110595066226400D+04 0.000000000000000D+00 0.000000000000000D+00 0.110595066226400D+04
 0.110595066226400D+04 0.000000000000000D+00 0.000000000000000D+00 -.110595066226400D+04
 0.475600862468072D+03 -.507567365119850D+02 -.447795415000349D+03 -.864534579047748D+02
 0.843069001424237D+03 -.934128480718371D+01 -.237644672249379D+02 0.842682224600784D+03
 0.893231460635693D+03 0.600980213191687D+02 0.471559882225287D+03 -.756228766696009D+03
 0.000000000000000D+00 -.000000000000000D+00 0.000000000000000D+00 -.000000000000000D+00
 0.122898112150493D+04 0.000000000000000D+00 0.000000000000000D+00 0.122898112150493D+04
 0.199346864050969D+04 0.000000000000000D+00 0.000000000000000D+00 -.199346864050969D+04
 0.580968332544052D+03 0.134643138569811D+02 -.560574451154959D+03 -.864534579047748D+02
 0.872897417906414D+03 0.949596605237312D+02 -.206928087515390D+03 0.842682224600784D+03
 0.825804974696449D+03 0.164585570284939D+03 0.288068565985282D+03 -.756228766696009D+03
 0.942779036867705D+03 -.273009544665651D+03 0.479433972685068D+03 -.764487519004767D+03
0.160748699965D-01 0.000000000000D+00 0.000000000000D+00 0.628021993921D-04 0.000000000000D+00  6 2 1 25 2 1 21 0 0.12286941D+00 0.23561396D+00 0.23453959D+06 0.23453959D+06 0.23453959D+06 0.10925509D+01  1  2  2  2  6  2        1 0.515965888840D-01 0.100000000000D+01
0.114954322842D-01 0.000000000000D+00 -.617317333972D-04 0.628021993921D-04 0.000000000000D+00  6 2 1 25 2 1 21 2 0.12286941D+00 0.23561396D+00 0.23453959D+06 0.23453959D+06 0.23453959D+06 0.10925509D+01  1  2  3  2  6  2        1 0.440435377868D-01 0.100000000000D+01
-.954308649507D-02 0.000000000000D+00 0.000000000000D+00 0.628021993921D-04 0.000000000000D+00  6 2 1 25 2 1 21 2 0.12286941D+00 0.23561396D+00 0.23453959D+06 0.23453959D+06 0.23453959D+06 0.10925509D+01  1  2 15  2  6  2        1 -.365633305698D-01 0.100000000000D+01
-.145513230386D-01 0.000000000000D+00 -.775471395528D-02 0.628021993921D-04 0.000000000000D+00  6 2 1 25 2 1 21 2 0.12286941D+00 0.43673927D+00 0.23453959D+06 0.23453959D+06 0.23453959D+06 0.10925509D+01  1  2  5  2  6  2        1 -.722010624523D-02 0.100000000000D+01
0.172252407171D-01 0.000000000000D+00 0.648087660202D-02 0.628021993921D-04 0.000000000000D+00  6 2 1 25 2 1 21 2 0.12286941D+00 0.23561396D+00 0.23453959D+06 0.23453959D+06 0.23453959D+06 0.10925509D+01  1  2  6  2  6  2        1 0.659966951792D-01 0.100000000000D+01
-.549596824534D-03 0.000000000000D+00 -.521879957387D-03 0.628021993921D-04 0.000000000000D+00  6 2 21 25 2 1 -1 2 0.12286941D+00 0.43673927D+00 0.23453959D+06 0.23453959D+06 0.23453959D+06 0.10925509D+01  1  2  5  6  6  2        1 -.706975450407D-04 0.100000000000D+01
  </mgrwgt>
  </event>
  <event>
  6     66 -.18337608E-05 0.69360613E+02 0.75467711E-02 0.94199323E-01
        2 -1    0    0  501    0 0.00000000E+00 0.00000000E+00 0.24576762E+04 0.24576762E+04 0.32000000E+00 0.0000E+00 0.9000E+01
        1 -1    0    0  502    0 0.00000000E+00 0.00000000E+00 -.42730899E+03 0.42730911E+03 0.32000000E+00 0.0000E+00 0.9000E+01
       25  1    1    2    0    0 0.25884917E+03 0.38039207E+03 -.36380230E+02 0.47817313E+03 0.12500000E+03 0.0000E+00 0.9000E+01
        2  1    1    2  503    0 -.15917134E+03 -.32453322E+03 0.16625583E+04 0.17013987E+04 0.32000000E+00 0.0000E+00 0.9000E+01
        1  1    1    2  502    0 -.45841712E+02 0.58212760E+02 -.13373923E+03 0.15289367E+03 0.32000000E+00 0.0000E+00 0.9000E+01
       21  1    1    2  501  503 -.53836117E+02 -.11407161E+03 0.53792837E+03 0.55251982E+03 0.75000000E+00 0.0000E+00 0.9000E+01
#aMCatNLO 2  0  0  4  1 0.69360594D+01 0.00000000D+00  -5  6  0 0.00000000D+00 0.00000000D+00 0.00000000D+00 0.00000000D+00 0.00000000D+00
  <mgrwgt>
 -.3800427517D-02    3    2    0
 0.102478647931466D+04 0.000000000000000D+00 0.000000000000000D+00 0.102478647931466D+04
 0.102478647931466D+04 -.000000000000000D+00 -.000000000000000D+00 -.102478647931466D+04
 0.709092401287508D+03 0.258868109121863D+03 0.380398771436911D+03 -.524853417948901D+03
 0.992681760692830D+03 -.213019708554208D+03 -.438630054003135D+03 0.864663725100634D+03
 0.347798796648974D+03 -.458484005676546D+02 0.582312825662235D+02 -.339810307151733D+03
 0.000000000000000D+00 0.000000000000000D+00 -.000000000000000D+00 0.000000000000000D+00
 0.102478647931466D+04 0.000000000000000D+00 0.000000000000000D+00 0.102478647931466D+04
 0.102478647931466D+04 -.000000000000000D+00 -.000000000000000D+00 -.102478647931466D+04
 0.709049016752377D+03 0.258858412340173D+03 0.380378804740377D+03 -.524814057950548D+03
 0.748411310082604D+03 -.159276236279089D+03 -.324745284451345D+03 0.655203075269753D+03
 0.347778921992463D+03 -.458531566978971D+02 0.582214891922711D+02 -.339791001645588D+03
 0.244333709801868D+03 -.537290193631863D+02 -.113855009481303D+03 0.209401984326382D+03
-.108491307034D-01 0.000000000000D+00 0.000000000000D+00 0.458141934092D-05 0.000000000000D+00  6 2 1 25 2 1 21 2 0.37810404D+00 0.65739855D-01 0.26961503D+06 0.26961503D+06 0.26961503D+06 0.10879998D+01  1  2 13  3  6  4        2 -.395422057906D-01 0.100000000000D+01
-.561951982549D-07 0.000000000000D+00 0.000000000000D+00 0.458141934092D-05 0.000000000000D+00  6 2 1 25 2 1 21 2 0.37810404D+00 0.65739855D-01 0.26961503D+06 0.26961503D+06 0.26961503D+06 0.10879998D+01  1  2 13  3  6  4        2 -.204816602785D-06 0.100000000000D+01
0.980646978057D-02 0.000000000000D+00 0.000000000000D+00 0.458141934092D-05 0.320663927608D-06  6 2 1 25 2 1 21 2 0.37810404D+00 0.65739855D-01 0.26961503D+06 0.26961503D+06 0.26961503D+06 0.10879998D+01  1  2  1  3  6  4        2 0.357419830901D-01 0.100000000000D+01
  </mgrwgt>
  </event>
  <event>
  6     66 0.18337608E-05 0.13409807E+02 0.75467711E-02 0.90753553E-01
        2 -1    0    0  501    0 0.00000000E+00 0.00000000E+00 0.25755657E+04 0.25755657E+04 0.32000000E+00 0.0000E+00 0.9000E+01
        1 -1    0    0  502    0 0.00000000E+00 0.00000000E+00 -.39513329E+03 0.39513342E+03 0.32000000E+00 0.0000E+00 0.9000E+01
       25  1    1    2    0    0 -.16439544E+03 -.68650696E+03 0.10450799E+04 0.12673337E+04 0.12500000E+03 0.0000E+00 0.9000E+01
        2  1    1    2  503    0 0.11108777E+03 0.56010170E+03 0.10663796E+04 0.12096363E+04 0.32000000E+00 0.0000E+00 0.9000E+01
        1  1    1    2  502    0 0.17772814E+02 0.14060801E+02 -.19937044E+03 0.20065456E+03 0.32000000E+00 0.0000E+00 0.9000E+01
       21  1    1    2  501  503 0.35534863E+02 0.11234446E+03 0.26834335E+03 0.29307460E+03 0.75000000E+00 0.0000E+00 0.9000E+01
#aMCatNLO 2  0  0  4  2 0.10942380D+03 0.00000000D+00  -5  6  0 0.00000000D+00 0.00000000D+00 0.00000000D+00 0.00000000D+00 0.00000000D+00
  <mgrwgt>
 0.1740090680D-01    1    2    0
 0.100880719384351D+04 0.000000000000000D+00 0.000000000000000D+00 0.100880719384351D+04
 0.100880719384351D+04 -.000000000000000D+00 -.000000000000000D+00 -.100880719384351D+04
 0.737023653956247D+03 -.164494307879736D+03 -.686926078169666D+03 0.169272124984084D+03
 0.769159222404916D+03 0.146805843906338D+03 0.673286431741494D+03 0.341671383698267D+03
 0.511431511325862D+03 0.176884639733982D+02 0.136396464281711D+02 -.510943508682351D+03
 0.000000000000000D+00 0.000000000000000D+00 0.000000000000000D+00 0.000000000000000D+00
 0.100880719384351D+04 0.000000000000000D+00 0.000000000000000D+00 0.100880719384351D+04
 0.100880719384351D+04 -.000000000000000D+00 -.000000000000000D+00 -.100880719384351D+04
 0.736489841379275D+03 -.164359577639590D+03 -.686308173321863D+03 0.169585691980818D+03
 0.628367778622669D+03 0.111036883758546D+03 0.559892284577845D+03 0.262749891201843D+03
 0.511228960163548D+03 0.177819706099832D+02 0.140684900492100D+02 -.510725884226425D+03
 0.141527807521534D+03 0.355407232710615D+02 0.112347398694808D+03 0.783903010437641D+02
0.544030605559D-02 0.000000000000D+00 0.000000000000D+00 0.258531567885D-05 0.295083204474D-07  6 2 1 25 2 1 21 2 0.39624089D+00 0.60789748D-01 0.50979957D+06 0.50979957D+06 0.50979957D+06 0.10679152D+01  1  2  1  3  6  4        2 0.174009068048D-01 0.100000000000D+01
  </mgrwgt>
  </event>
  <event>
  5     66 0.18337608E-05 0.57682704E+02 0.75467711E-02 0.82106551E-01
        2 -1    0    0  501    0 0.00000000E+00 0.00000000E+00 0.29143314E+04 0.29143314E+04 0.32000000E+00 0.0000E+00 0.9000E+01
        1 -1    0    0  502    0 0.00000000E+00 0.00000000E+00 -.45166136E+03 0.45166147E+03 0.32000000E+00 0.0000E+00 0.9000E+01
       25  1    1    2    0    0 -.62311267E+03 -.13426685E+03 0.70727517E+03 0.96029170E+03 0.12500000E+03 0.0000E+00 0.9000E+01
        2  1    1    2  501    0 0.67734001E+03 0.11461850E+03 0.20206572E+04 0.21342405E+04 0.32000000E+00 0.0000E+00 0.9000E+01
        1  1    1    2  502    0 -.54227342E+02 0.19648349E+02 -.26526237E+03 0.27146066E+03 0.32000000E+00 0.0000E+00 0.9000E+01
#aMCatNLO 1  0  0  1  5 0.28473940D+02 0.00000000D+00  -5  6  0 0.00000000D+00 0.00000000D+00 0.00000000D+00 0.00000000D+00 0.00000000D+00
  <mgrwgt>
 0.3450909229D-02    5    2    0
 0.114729729865693D+04 0.000000000000000D+00 0.000000000000000D+00 0.114729729865693D+04
 0.114729729865693D+04 0.000000000000000D+00 0.000000000000000D+00 -.114729729865693D+04
 0.649562931770182D+03 -.623082134021591D+03 -.134264603335372D+03 0.697659545689538D+01
 0.962062462290285D+03 0.677314556217522D+03 0.114614189410860D+03 0.673552344565438D+03
 0.682969203253385D+03 -.542324221959309D+02 0.196504139245122D+02 -.680528940022333D+03
 0.000000000000000D+00 -.000000000000000D+00 0.000000000000000D+00 0.000000000000000D+00
 0.244937754877331D+04 0.000000000000000D+00 0.000000000000000D+00 0.244937754877331D+04
 0.185922698373169D+04 0.000000000000000D+00 0.000000000000000D+00 -.185922698373169D+04
 0.832126377602843D+03 -.595828063794907D+03 -.567229718731902D+03 0.697659545689538D+01
 0.109646426730388D+04 0.715178926093826D+03 -.486908854176947D+03 0.673552344565438D+03
 0.796300850353570D+03 -.270228515590916D+02 -.412607769630569D+03 -.680528940022333D+03
 0.158371303724472D+04 -.923280107398277D+02 0.146674634253942D+04 0.590150565041626D+03
0.327421573832D-02 0.000000000000D+00 0.000000000000D+00 0.517331517765D-05 0.000000000000D+00  6 2 1 25 2 1 21 0 0.44835868D+00 0.69486373D-01 0.48591474D+06 0.48591474D+06 0.48591474D+06 0.10693886D+01  1  2  2  1  6  1        2 0.477268880940D-02 0.100000000000D+01
0.144570232199D-02 0.000000000000D+00 -.125738505559D-04 0.517331517765D-05 0.000000000000D+00  6 2 1 25 2 1 21 2 0.44835868D+00 0.69486373D-01 0.48591474D+06 0.48591474D+06 0.48591474D+06 0.10693886D+01  1  2  3  1  6  1        2 0.240993750289D-02 0.100000000000D+01
-.223862806534D-02 0.000000000000D+00 0.000000000000D+00 0.517331517765D-05 0.000000000000D+00  6 2 1 25 2 1 21 2 0.44835868D+00 0.69486373D-01 0.48591474D+06 0.48591474D+06 0.48591474D+06 0.10693886D+01  1  2 15  1  6  1        2 -.373171824355D-02 0.100000000000D+01
0.128906599628D-03 0.000000000000D+00 -.110964789897D-02 0.517331517765D-05 0.000000000000D+00  6 2 1 25 2 1 21 2 0.96624422D+00 0.69486373D-01 0.48591474D+06 0.48591474D+06 0.48591474D+06 0.10693886D+01  1  2  5  1  6  1        2 0.115725943657D-08 0.100000000000D+01
0.801957921656D-04 0.000000000000D+00 -.922330898611D-04 0.517331517765D-05 0.000000000000D+00  6 21 1 25 2 1 -2 2 0.96624422D+00 0.69486373D-01 0.48591474D+06 0.48591474D+06 0.48591474D+06 0.10693886D+01  1  2  5  5  6  1        2 0.315412071102D-11 0.100000000000D+01
  </mgrwgt>
  </event>
  <event>
  5     66 -.18337608E-05 0.49169351E+02 0.75467711E-02 0.93671229E-01
        2 -1    0    0  501    0 0.00000000E+00 0.00000000E+00 0.14205408E+04 0.14205408E+04 0.32000000E+00 0.0000E+00 0.9000E+01
        1 -1    0    0  502    0 0.00000000E+00 0.00000000E+00 -.51329012E+03 0.51329022E+03 0.32000000E+00 0.0000E+00 0.9000E+01
       25  1    1    2    0    0 0.46830591E+03 0.17302102E+03 0.40195709E+03 0.65302466E+03 0.12500000E+03 0.0000E+00 0.9000E+01
        2  1    1    2  501    0 -.47595852E+03 -.22158439E+03 0.81377338E+03 0.96843346E+03 0.32000000E+00 0.0000E+00 0.9000E+01
        1  1    1    2  502    0 0.76526057E+01 0.48563378E+02 -.30847979E+03 0.31237293E+03 0.32000000E+00 0.0000E+00 0.9000E+01
#aMCatNLO 1  0  0  1  5 0.28473940D+02 0.00000000D+00  -5  6  0 0.00000000D+00 0.00000000D+00 0.00000000D+00 0.00000000D+00 0.00000000D+00
  <mgrwgt>
 -.4100469611D-03    1    2    0
 0.853902618632816D+03 0.000000000000000D+00 0.000000000000000D+00 0.853902618632816D+03
 0.853902618632816D+03 0.000000000000000D+00 0.000000000000000D+00 -.853902618632816D+03
 0.525896809746495D+03 0.468268491197621D+03 0.172997186679288D+03 0.108346887606873D+03
 0.664245789401058D+03 -.475921736930506D+03 -.221567268914915D+03 0.406975324067284D+03
 0.517662638118078D+03 0.765324573288547D+01 0.485700822356270D+02 -.515322211674157D+03
 0.000000000000000D+00 -.000000000000000D+00 -.000000000000000D+00 0.000000000000000D+00
 0.110221906042410D+04 0.000000000000000D+00 0.000000000000000D+00 0.110221906042410D+04
 0.866090849991807D+03 0.000000000000000D+00 0.000000000000000D+00 -.866090849991807D+03
 0.548482242568066D+03 0.482364270411428D+03 0.201973842338184D+03 0.108346887606873D+03
 0.640980172011570D+03 -.458797262159181D+03 -.186364531892608D+03 0.406975324067284D+03
 0.521418088655828D+03 0.212859133452830D+02 0.765947206131695D+02 -.515322211674157D+03
 0.257429407180439D+03 -.448529215975301D+02 -.922040310587448D+02 0.236128210432290D+03
-.392146993440D-04 0.000000000000D+00 0.000000000000D+00 0.405203744984D-05 0.000000000000D+00  6 2 1 25 2 1 21 2 0.21854475D+00 0.78967721D-01 0.29634644D+06 0.29634644D+06 0.29634644D+06 0.10849458D+01  1  2 14  1  6  1        2 -.410046961082D-03 0.100000000000D+01
  </mgrwgt>
  </event>
  <event>
  5     66 -.18337608E-05 0.19118680E+02 0.75467711E-02 0.94274662E-01
        2 -1    0    0  501    0 0.00000000E+00 0.00000000E+00 0.18646521E+04 0.18646521E+04 0.32000000E+00 0.0000E+00 0.9000E+01
        1 -1    0    0  502    0 0.00000000E+00 0.00000000E+00 -.58973863E+03 0.58973872E+03 0.32000000E+00 0.0000E+00 0.9000E+01
       25  1    1    2    0    0 0.48267092E+03 0.10803608E+03 -.35597383E+03 0.62208149E+03 0.12500000E+03 0.0000E+00 0.9000E+01
        2  1    1    2  501    0 -.48592085E+03 -.12690624E+03 0.16937266E+04 0.17666166E+04 0.32000000E+00 0.0000E+00 0.9000E+01
        1  1    1    2  502    0 0.32499274E+01 0.18870166E+02 -.62839360E+02 0.65692714E+02 0.32000000E+00 0.0000E+00 0.9000E+01
#aMCatNLO 1  0  0  5  2 0.28043117D+01 0.00000000D+00  -5  6  0 0.00000000D+00 0.00000000D+00 0.00000000D+00 0.00000000D+00 0.00000000D+00
  <mgrwgt>
 -.7285904704D-01    9    2    0
 0.104864555656831D+04 0.000000000000000D+00 0.000000000000000D+00 0.104864555656831D+04
 0.104864555656831D+04 -.000000000000000D+00 -.000000000000000D+00 -.104864555656831D+04
 0.944605663239156D+03 0.482681535126634D+03 0.108067397416218D+03 -.794981026369163D+03
 0.103783777211465D+04 -.485928726627812D+03 -.126908301157452D+03 0.908226181610674D+03
 0.114847677782817D+03 0.324719150117823D+01 0.188409037412344D+02 -.113245155241511D+03
 0.000000000000000D+00 0.000000000000000D+00 0.000000000000000D+00 -.000000000000000D+00
 0.104864555656831D+04 0.000000000000000D+00 0.000000000000000D+00 0.104864555656831D+04
 0.104864555656831D+04 -.000000000000000D+00 -.000000000000000D+00 -.104864555656831D+04
 0.944670616052063D+03 0.482683662926238D+03 0.108079743367331D+03 -.795055232955513D+03
 0.103776367599974D+04 -.485926388979270D+03 -.126894737617652D+03 0.908144656584515D+03
 0.817441300254152D+02 0.226504478010138D+01 0.161684743625416D+02 -.800971460324521D+02
 0.331126910594059D+02 0.977681272930079D+00 0.264651988777911D+01 -.329922775965499D+02
0.170125094560D-04 0.000000000000D+00 0.000000000000D+00 0.691424767609D-05 0.000000000000D+00  6 2 1 25 2 1 21 0 0.28686956D+00 0.90729029D-01 0.26601226D+06 0.26601226D+06 0.26601226D+06 0.10884366D+01  1  2  2  4  6  5        1 0.712929186241D-04 0.100000000000D+01
0.526879513059D-05 0.000000000000D+00 -.653325158078D-07 0.691424767609D-05 0.000000000000D+00  6 2 1 25 2 1 21 2 0.28686956D+00 0.90729029D-01 0.26601226D+06 0.26601226D+06 0.26601226D+06 0.10884366D+01  1  2  3  4  6  5        1 0.261574605376D-04 0.100000000000D+01
-.120950004080D-04 0.000000000000D+00 0.000000000000D+00 0.691424767609D-05 0.000000000000D+00  6 2 1 25 2 1 21 2 0.28686956D+00 0.90729029D-01 0.26601226D+06 0.26601226D+06 0.26601226D+06 0.10884366D+01  1  2 15  4  6  5        1 -.600468395588D-04 0.100000000000D+01
0.323142721398D-05 0.000000000000D+00 0.000000000000D+00 0.691424767609D-05 0.000000000000D+00  6 2 1 25 2 1 21 2 0.28686956D+00 0.90729029D-01 0.26602668D+06 0.26602668D+06 0.26602668D+06 0.10884348D+01  1  2 12  4  6  5        1 0.160426396508D-04 0.100000000000D+01
0.303243121637D-10 0.000000000000D+00 0.000000000000D+00 0.691424767609D-05 0.000000000000D+00  6 2 1 25 2 1 21 2 0.28686956D+00 0.90729029D-01 0.26602668D+06 0.26602668D+06 0.26602668D+06 0.10884348D+01  1  2 12  4  6  5        1 0.150547105191D-09 0.100000000000D+01
-.232514752936D-01 0.000000000000D+00 0.000000000000D+00 0.691424767609D-05 0.000000000000D+00  6 2 1 25 2 1 21 2 0.28686956D+00 0.90729029D-01 0.26601226D+06 0.26601226D+06 0.26601226D+06 0.10884366D+01  1  2  4  4  6  5        1 -.115434275267D+00 0.100000000000D+01
-.178745841886D-02 0.000000000000D+00 0.000000000000D+00 0.691424767609D-05 0.000000000000D+00  6 2 1 25 2 1 21 2 0.28686956D+00 0.90729029D-01 0.26601226D+06 0.26601226D+06 0.26601226D+06 0.10884366D+01  1  2  5  4  6  5        1 -.887401614505D-02 0.100000000000D+01
0.342093153966D-02 0.000000000000D+00 -.000000000000D+00 0.691424767609D-05 0.000000000000D+00  6 2 1 25 2 1 21 2 0.28686956D+00 0.90729029D-01 0.26601226D+06 0.26601226D+06 0.26601226D+06 0.10884366D+01  1  2  6  4  6  5        1 0.169835568726D-01 0.100000000000D+01
0.693156831064D-02 0.000000000000D+00 0.000000000000D+00 0.691424767609D-05 0.122445695590D-04  6 2 1 25 2 1 21 2 0.28686956D+00 0.90729029D-01 0.26602668D+06 0.26602668D+06 0.26602668D+06 0.10884348D+01  1  2 11  4  6  5        1 0.344122411736D-01 0.100000000000D+01
  </mgrwgt>
  </event>
  <event>
  5     66 0.18337608E-05 0.89201592E+02 0.75467711E-02 0.92276113E-01
        2 -1    0    0  501    0 0.00000000E+00 0.00000000E+00 0.29789962E+03 0.29789980E+03 0.32000000E+00 0.0000E+00 0.9000E+01
        1 -1    0    0  502    0 0.00000000E+00 0.00000000E+00 -.29793421E+04 0.29793421E+04 0.32000000E+00 0.0000E+00 0.9000E+01
       25  1    1    2    0    0 -.30521809E+03 -.43880931E+03 -.50129037E+03 0.74339002E+03 0.12500000E+03 0.0000E+00 0.9000E+01
        2  1    1    2  501    0 0.27775142E+03 0.52366491E+03 -.32395450E+03 0.67551270E+03 0.32000000E+00 0.0000E+00 0.9000E+01
        1  1    1    2  502    0 0.27466674E+02 -.84855604E+02 -.18561976E+04 0.18583392E+04 0.32000000E+00 0.0000E+00 0.9000E+01
#aMCatNLO 1  0  0  2  4 0.77431987D+01 0.00000000D+00  -5  6  0 0.00000000D+00 0.00000000D+00 0.00000000D+00 0.00000000D+00 0.00000000D+00
  <mgrwgt>
 0.3113269993D-01   11    2    0
 0.942096173443811D+03 0.000000000000000D+00 0.000000000000000D+00 0.942096173443811D+03
 0.942096173443811D+03 0.000000000000000D+00 0.000000000000000D+00 -.942096173443811D+03
 0.579588817120242D+03 -.305198985146949D+03 -.438754556137978D+03 0.186134939934125D+03
 0.713854699096362D+03 0.277727985406555D+03 0.523620734200854D+03 0.397840450757502D+03
 0.590748830671017D+03 0.274709997403942D+02 -.848661780628765D+02 -.583975390691626D+03
 0.000000000000000D+00 0.000000000000000D+00 -.000000000000000D+00 -.000000000000000D+00
 0.943669463205775D+03 0.000000000000000D+00 0.000000000000000D+00 0.943669463205775D+03
 0.951679897455798D+03 0.000000000000000D+00 0.000000000000000D+00 -.951679897455798D+03
 0.578007975643304D+03 -.305569453146373D+03 -.436404987765741D+03 0.186134939934125D+03
 0.715808552301974D+03 0.277270447438321D+03 0.526522514492086D+03 0.397840450757502D+03
 0.590391729439039D+03 0.270929969823724D+02 -.824688230247937D+02 -.583975390691626D+03
 0.111411032772559D+02 0.120600872567894D+01 -.764870370155114D+01 -.801043425002327D+01
0.345143835220D-02 0.000000000000D+00 0.000000000000D+00 0.111886914996D-05 0.000000000000D+00  6 2 1 25 2 1 21 0 0.45830726D-01 0.45836034D+00 0.37871962D+06 0.37871962D+06 0.37871962D+06 0.10771434D+01  1  2  2  2  6  2        1 0.339783741109D-02 0.100000000000D+01
0.920889688677D-03 0.000000000000D+00 -.132544320570D-04 0.111886914996D-05 0.000000000000D+00  6 2 1 25 2 1 21 2 0.45830726D-01 0.45836034D+00 0.37871962D+06 0.37871962D+06 0.37871962D+06 0.10771434D+01  1  2  3  2  6  2        1 0.105185797987D-02 0.100000000000D+01
-.215298930284D-02 0.000000000000D+00 0.000000000000D+00 0.111886914996D-05 0.000000000000D+00  6 2 1 25 2 1 21 2 0.45830726D-01 0.45836034D+00 0.37871962D+06 0.37871962D+06 0.37871962D+06 0.10771434D+01  1  2 15  2  6  2        1 -.245918594443D-02 0.100000000000D+01
0.672639357318D-07 0.000000000000D+00 0.000000000000D+00 0.111886914996D-05 0.000000000000D+00  6 2 1 25 2 1 21 2 0.45830726D-01 0.46367027D+00 0.38243896D+06 0.38243896D+06 0.38243896D+06 0.10768360D+01  1  2 12  2  6  2        1 0.723155629121D-07 0.100000000000D+01
-.824622102264D-04 0.000000000000D+00 0.000000000000D+00 0.111886914996D-05 0.000000000000D+00  6 2 1 25 2 1 21 2 0.45830726D-01 0.45836034D+00 0.37871962D+06 0.37871962D+06 0.37871962D+06 0.10771434D+01  1  2  4  2  6  2        1 -.941899284255D-04 0.100000000000D+01
-.477323364540D+00 0.000000000000D+00 -.430716254861D-01 0.111886914996D-05 0.000000000000D+00  6 2 1 25 2 1 21 2 0.45830726D-01 0.46324429D+00 0.37871962D+06 0.37871962D+06 0.37871962D+06 0.10771434D+01  1  2  5  2  6  2        1 -.516275929060D+00 0.100000000000D+01
0.477755460965D+00 0.000000000000D+00 0.430692063327D-01 0.111886914996D-05 0.000000000000D+00  6 2 1 25 2 1 21 2 0.45830726D-01 0.45836034D+00 0.37871962D+06 0.37871962D+06 0.37871962D+06 0.10771434D+01  1  2  6  2  6  2        1 0.545701510421D+00 0.100000000000D+01
0.262111046480D-04 0.000000000000D+00 0.000000000000D+00 0.111886914996D-05 0.895350198961D-08  6 2 1 25 2 1 21 2 0.45907263D-01 0.46302313D+00 0.38243896D+06 0.38243896D+06 0.38243896D+06 0.10768360D+01  1  2 11  2  6  2        1 0.283318644628D-04 0.100000000000D+01
0.824302934014D-08 0.000000000000D+00 0.000000000000D+00 0.111886914996D-05 0.000000000000D+00  6 2 21 25 2 1 -1 2 0.45830726D-01 0.46367027D+00 0.38243896D+06 0.38243896D+06 0.38243896D+06 0.10768360D+01  1  2 12  6  6  2        1 0.191126121648D-08 0.100000000000D+01
-.931888443154D-03 0.000000000000D+00 -.842512077416D-04 0.111886914996D-05 0.000000000000D+00  6 2 21 25 2 1 -1 2 0.45830726D-01 0.46324429D+00 0.37871962D+06 0.37871962D+06 0.37871962D+06 0.10771434D+01  1  2  5  6  6  2        1 -.218053195116D-03 0.100000000000D+01
0.190631539186D-05 0.000000000000D+00 0.000000000000D+00 0.111886914996D-05 0.178276902848D-09  6 2 21 25 2 1 -1 2 0.45907263D-01 0.46302313D+00 0.38243896D+06 0.38243896D+06 0.38243896D+06 0.10768360D+01  1  2 11  6  6  2        1 0.446155583894D-06 0.100000000000D+01
  </mgrwgt>
  </event>
  <event>
  5     66 -.18337608E-05 0.11341640E+02 0.75467711E-02 0.90289735E-01
        2 -1    0    0  501    0 0.00000000E+00 0.00000000E+00 0.10226731E+04 0.10226732E+04 0.32000000E+00 0.0000E+00 0.9000E+01
        1 -1    0    0  502    0 0.00000000E+00 0.00000000E+00 -.14950599E+04 0.14950600E+04 0.32000000E+00 0.0000E+00 0.9000E+01
       25  1    1    2    0    0 -.69840966E+03 -.23769717E+03 -.84780774E+03 0.11307869E+04 0.12500000E+03 0.0000E+00 0.9000E+01
        2  1    1    2  501    0 0.69115327E+03 0.24641443E+03 0.72832381E+03 0.10338610E+04 0.32000000E+00 0.0000E+00 0.9000E+01
        1  1    1    2  502    0 0.72563957E+01 -.87172657E+01 -.35290287E+03 0.35308524E+03 0.32000000E+00 0.0000E+00 0.9000E+01
#aMCatNLO 1  0  0  1  5 0.55078992D+03 0.00000000D+00  -5  6  0 0.00000000D+00 0.00000000D+00 0.00000000D+00 0.00000000D+00 0.00000000D+00
  <mgrwgt>
 -.6614240716D-03    1    2    0
 0.123651029281525D+04 0.000000000000000D+00 0.000000000000000D+00 0.123651029281525D+04
 0.123651029281525D+04 0.000000000000000D+00 0.000000000000000D+00 -.123651029281525D+04
 0.989309367729292D+03 -.698412352910330D+03 -.237698822950754D+03 -.647168818738213D+03
 0.119167976253200D+04 0.691156086270284D+03 0.246415438957906D+03 0.938979953078372D+03
 0.292031455369208D+03 0.725626664004642D+01 -.871661600715206D+01 -.291811134340159D+03
 0.000000000000000D+00 0.000000000000000D+00 -.000000000000000D+00 0.000000000000000D+00
 0.355494051388131D+04 0.000000000000000D+00 0.000000000000000D+00 0.355494051388131D+04
 0.231080630844547D+04 0.000000000000000D+00 0.000000000000000D+00 -.231080630844547D+04
 0.152933475934513D+04 -.127072551140821D+04 0.538209067975035D+03 -.647168818738213D+03
 0.141075687190037D+04 0.998027013152440D+02 0.104813692814500D+04 0.938979953078372D+03
 0.382157679882554D+03 -.145940173171830D+03 0.198977938533152D+03 -.291811134340159D+03
 0.254349751119872D+04 0.131686298326480D+04 -.178532393465319D+04 0.124413420543585D+04
-.253471980715D-03 0.000000000000D+00 0.000000000000D+00 0.899297067076D-05 0.000000000000D+00  6 2 1 25 2 1 21 2 0.15733433D+00 0.23000923D+00 0.55754540D+06 0.55754540D+06 0.55754540D+06 0.10651827D+01  1  2 14  1  6  1        2 -.661424071552D-03 0.100000000000D+01
  </mgrwgt>
  </event>
  <event>
  5     66 0.18337608E-05 0.15062600E+03 0.75467711E-02 0.90949343E-01
        2 -1    0    0  501    0 0.00000000E+00 0.00000000E+00 0.10976340E+04 0.10976340E+04 0.32000000E+00 0.0000E+00 0.9000E+01
        1 -1    0    0  502    0 0.00000000E+00 0.00000000E+00 -.20692876E+04 0.20692876E+04 0.32000000E+00 0.0000E+00 0.9000E+01
       25  1    1    2    0    0 -.44869253E+03 -.32584181E+03 0.10008649E+03 0.57718297E+03 0.12500000E+03 0.0000E+00 0.9000E+01
        2  1    1    2  501    0 -.14961694E+03 0.17549726E+02 0.68871892E+03 0.70500147E+03 0.32000000E+00 0.0000E+00 0.9000E+01
        1  1    1    2  502    0 0.59830947E+03 0.30829208E+03 -.17604590E+04 0.18847372E+04 0.32000000E+00 0.0000E+00 0.9000E+01
#aMCatNLO 1  0  0  2  5 0.91334412D+01 0.00000000D+00  -5  6  0 0.00000000D+00 0.00000000D+00 0.00000000D+00 0.00000000D+00 0.00000000D+00
  <mgrwgt>
 0.1015917805D-01   13    2    0
 0.150709007808783D+04 0.000000000000000D+00 0.000000000000000D+00 0.150709007808783D+04
 0.150709007808783D+04 0.000000000000000D+00 0.000000000000000D+00 -.150709007808783D+04
 0.638795837916459D+03 -.448763505607197D+03 -.325870954964037D+03 0.291298059185703D+03
 0.962636183684061D+03 -.149600357904603D+03 0.175477804005748D+02 0.950778749476260D+03
 0.141274813457514D+04 0.598363863511801D+03 0.308323174563462D+03 -.124207680866196D+04
 0.000000000000000D+00 -.000000000000000D+00 -.000000000000000D+00 -.000000000000000D+00
 0.150730015590685D+04 0.000000000000000D+00 0.000000000000000D+00 0.150730015590685D+04
 0.160975032788144D+04 0.000000000000000D+00 0.000000000000000D+00 -.160975032788144D+04
 0.637128043979824D+03 -.447085935765536D+03 -.324910374073920D+03 0.291298059185703D+03
 0.962273638349427D+03 -.147069508916526D+03 0.189969511673254D+02 0.950778749476260D+03
 0.141479231169825D+04 0.602081480719260D+03 0.310451891924473D+03 -.124207680866196D+04
 0.102856489760789D+03 -.792603603719815D+01 -.453846901787885D+01 -.102450171974585D+03
0.816273189271D-04 0.000000000000D+00 0.000000000000D+00 0.334329163870D-05 0.000000000000D+00  6 2 1 25 2 1 21 0 0.16886677D+00 0.31835195D+00 0.48460157D+06 0.48460157D+06 0.48460157D+06 0.10694719D+01  1  2  2  2  6  2        1 0.702028856776D-04 0.100000000000D+01
0.147152609868D-04 0.000000000000D+00 -.313470397647D-06 0.334329163870D-05 0.000000000000D+00  6 2 1 25 2 1 21 2 0.16886677D+00 0.31835195D+00 0.48460157D+06 0.48460157D+06 0.48460157D+06 0.10694719D+01  1  2  3  2  6  2        1 0.144752514511D-04 0.100000000000D+01
-.471926267356D-04 0.000000000000D+00 0.000000000000D+00 0.334329163870D-05 0.000000000000D+00  6 2 1 25 2 1 21 2 0.16886677D+00 0.31835195D+00 0.48460157D+06 0.48460157D+06 0.48460157D+06 0.10694719D+01  1  2 15  2  6  2        1 -.464229033552D-04 0.100000000000D+01
0.374804589654D-01 0.000000000000D+00 0.000000000000D+00 0.334329163870D-05 0.000000000000D+00  6 2 1 25 2 1 21 2 0.16886677D+00 0.34044023D+00 0.49102991D+06 0.49102991D+06 0.49102991D+06 0.10690665D+01  1  2 12  2  6  2        1 0.294403861263D-01 0.100000000000D+01
0.319632284883D-07 0.000000000000D+00 0.000000000000D+00 0.334329163870D-05 0.000000000000D+00  6 2 1 25 2 1 21 2 0.16886677D+00 0.34007204D+00 0.49102991D+06 0.49102991D+06 0.49102991D+06 0.10690665D+01  1  2 12  2  6  2        1 0.252007142969D-07 0.100000000000D+01
-.272134542660D-01 0.000000000000D+00 0.000000000000D+00 0.334329163870D-05 0.000000000000D+00  6 2 1 25 2 1 21 2 0.16886677D+00 0.31835195D+00 0.48460157D+06 0.48460157D+06 0.48460157D+06 0.10694719D+01  1  2  4  2  6  2        1 -.267695961158D-01 0.100000000000D+01
-.388248606166D-01 0.000000000000D+00 -.212241158582D-03 0.334329163870D-05 0.000000000000D+00  6 2 1 25 2 1 21 2 0.16886677D+00 0.34005265D+00 0.48460157D+06 0.48460157D+06 0.48460157D+06 0.10694719D+01  1  2  5  2  6  2        1 -.306715565932D-01 0.100000000000D+01
0.387550239328D-01 0.000000000000D+00 0.211780530777D-03 0.334329163870D-05 0.000000000000D+00  6 2 1 25 2 1 21 2 0.16886677D+00 0.31835195D+00 0.48460157D+06 0.48460157D+06 0.48460157D+06 0.10694719D+01  1  2  6  2  6  2        1 0.381229199350D-01 0.100000000000D+01
0.387445810966D-05 0.000000000000D+00 0.000000000000D+00 0.334329163870D-05 0.186236851811D-06  6 2 1 25 2 1 21 2 0.16889031D+00 0.34003750D+00 0.49102991D+06 0.49102991D+06 0.49102991D+06 0.10690665D+01  1  2 11  2  6  2        1 0.305515433443D-05 0.100000000000D+01
0.563846096612D-03 0.000000000000D+00 0.000000000000D+00 0.334329163870D-05 0.000000000000D+00  6 2 21 25 2 1 -1 2 0.16886677D+00 0.34044023D+00 0.49102991D+06 0.49102991D+06 0.49102991D+06 0.10690665D+01  1  2 12  6  6  2        1 0.184177714016D-03 0.100000000000D+01
0.473814646466D-09 0.000000000000D+00 0.000000000000D+00 0.334329163870D-05 0.000000000000D+00  6 2 21 25 2 1 -1 2 0.16886677D+00 0.34007204D+00 0.49102991D+06 0.49102991D+06 0.49102991D+06 0.10690665D+01  1  2 12  6  6  2        1 0.155644899904D-09 0.100000000000D+01
-.572311061369D-03 0.000000000000D+00 -.238336018266D-05 0.334329163870D-05 0.000000000000D+00  6 2 21 25 2 1 -1 2 0.16886677D+00 0.34005265D+00 0.48460157D+06 0.48460157D+06 0.48460157D+06 0.10694719D+01  1  2  5  6  6  2        1 -.188508597667D-03 0.100000000000D+01
0.603541488300D-07 0.000000000000D+00 0.000000000000D+00 0.334329163870D-05 0.288795809202D-08  6 2 21 25 2 1 -1 2 0.16889031D+00 0.34003750D+00 0.49102991D+06 0.49102991D+06 0.49102991D+06 0.10690665D+01  1  2 11  6  6  2        1 0.198322064588D-07 0.100000000000D+01
  </mgrwgt>
  </event>
  <event>
  5     66 0.18337608E-05 0.15654854E+03 0.75467711E-02 0.94182300E-01
        2 -1    0    0  501    0 0.00000000E+00 0.00000000E+00 0.10937475E+04 0.10937476E+04 0.32000000E+00 0.0000E+00 0.9000E+01
        1 -1    0    0  502    0 -.00000000E+00 -.00000000E+00 -.20566942E+04 0.20566942E+04 0.32000000E+00 0.0000E+00 0.9000E+01
       25  1    1    2    0    0 0.27010328E+03 -.43351757E+03 -.12010414E+03 0.53939157E+03 0.12500000E+03 0.0000E+00 0.9000E+01
        2  1    1    2  501    0 -.16465278E+03 0.31283295E+03 0.84481574E+03 0.91579951E+03 0.32000000E+00 0.0000E+00 0.9000E+01
        1  1    1    2  502    0 -.10545050E+03 0.12068462E+03 -.16876583E+04 0.16952507E+04 0.32000000E+00 0.0000E+00 0.9000E+01
#aMCatNLO 1  0  0  5  2 0.34669123D+01 0.00000000D+00  -5  6  0 0.00000000D+00 0.00000000D+00 0.00000000D+00 0.00000000D+00 0.00000000D+00
  <mgrwgt>
 0.8586189844D-02    9    2    0
 0.149983477300570D+04 0.000000000000000D+00 0.000000000000000D+00 0.149983477300570D+04
 0.149983477300570D+04 -.000000000000000D+00 -.000000000000000D+00 -.149983477300570D+04
 0.527955981204599D+03 0.270106749764848D+03 -.433517229029219D+03 0.470921857212921D+02
 0.123298550954256D+04 -.164646715046563D+03 0.312821415130975D+03 0.118122287829256D+04
 0.123872805526423D+04 -.105460034718285D+03 0.120695813898243D+03 -.122831506401385D+04
 0.000000000000000D+00 -.000000000000000D+00 0.000000000000000D+00 0.000000000000000D+00
 0.149983477300570D+04 0.000000000000000D+00 0.000000000000000D+00 0.149983477300570D+04
 0.149983477300570D+04 -.000000000000000D+00 -.000000000000000D+00 -.149983477300570D+04
 0.527943426390090D+03 0.270101706918701D+03 -.433511457644621D+03 0.470334506383333D+02
 0.123285909707229D+04 -.164658491618161D+03 0.312834893060295D+03 0.118108571410202D+04
 0.122057795377439D+04 -.100526953702574D+03 0.118279494182967D+03 -.121066710291277D+04
 0.182890687746201D+02 -.491626159796550D+01 0.239707040135754D+01 -.174520618275918D+02
0.569696237378D-03 0.000000000000D+00 0.000000000000D+00 0.471495317839D-04 0.000000000000D+00  6 2 1 25 2 1 21 0 0.16826886D+00 0.31641450D+00 0.27021041D+06 0.27021041D+06 0.27021041D+06 0.10879283D+01  1  2  2  4  6  5        1 0.525370689652D-03 0.100000000000D+01
0.100393328253D-03 0.000000000000D+00 -.218778355600D-05 0.471495317839D-04 0.000000000000D+00  6 2 1 25 2 1 21 2 0.16826886D+00 0.31641450D+00 0.27021041D+06 0.27021041D+06 0.27021041D+06 0.10879283D+01  1  2  3  4  6  5        1 0.109579131146D-03 0.100000000000D+01
-.368094442220D-03 0.000000000000D+00 0.000000000000D+00 0.471495317839D-04 0.000000000000D+00  6 2 1 25 2 1 21 2 0.16826886D+00 0.31641450D+00 0.27021041D+06 0.27021041D+06 0.27021041D+06 0.10879283D+01  1  2 15  4  6  5        1 -.401774399356D-03 0.100000000000D+01
0.230755204801D-03 0.000000000000D+00 0.000000000000D+00 0.471495317839D-04 0.000000000000D+00  6 2 1 25 2 1 21 2 0.16826886D+00 0.31641450D+00 0.27043330D+06 0.27043330D+06 0.27043330D+06 0.10879015D+01  1  2 12  4  6  5        1 0.251840267972D-03 0.100000000000D+01
0.220852875612D-10 0.000000000000D+00 0.000000000000D+00 0.471495317839D-04 0.000000000000D+00  6 2 1 25 2 1 21 2 0.16826886D+00 0.31641450D+00 0.27043330D+06 0.27043330D+06 0.27043330D+06 0.10879015D+01  1  2 12  4  6  5        1 0.241033121764D-10 0.100000000000D+01
-.863799608510D-01 0.000000000000D+00 0.000000000000D+00 0.471495317839D-04 0.000000000000D+00  6 2 1 25 2 1 21 2 0.16826886D+00 0.31641450D+00 0.27021041D+06 0.27021041D+06 0.27021041D+06 0.10879283D+01  1  2  4  4  6  5        1 -.942835666790D-01 0.100000000000D+01
-.562870015401D+00 0.000000000000D+00 0.000000000000D+00 0.471495317839D-04 0.000000000000D+00  6 2 1 25 2 1 21 2 0.16826886D+00 0.31641450D+00 0.27021041D+06 0.27021041D+06 0.27021041D+06 0.10879283D+01  1  2  5  4  6  5        1 -.614371575373D+00 0.100000000000D+01
0.571241792425D+00 0.000000000000D+00 -.000000000000D+00 0.471495317839D-04 0.000000000000D+00  6 2 1 25 2 1 21 2 0.16826886D+00 0.31641450D+00 0.27021041D+06 0.27021041D+06 0.27021041D+06 0.10879283D+01  1  2  6  4  6  5        1 0.623509354430D+00 0.100000000000D+01
0.854399573570D-01 0.000000000000D+00 0.000000000000D+00 0.471495317839D-04 0.432637215346D-05  6 2 1 25 2 1 21 2 0.16826886D+00 0.31641450D+00 0.27043330D+06 0.27043330D+06 0.27043330D+06 0.10879015D+01  1  2 11  4  6  5        1 0.932469617526D-01 0.100000000000D+01
  </mgrwgt>
  </event>
  <event>
  5     66 0.18337608E-05 0.25419922E+03 0.75467711E-02 0.91161249E-01
        2 -1    0    0  501    0 0.00000000E+00 0.00000000E+00 0.14546171E+04 0.14546172E+04 0.32000000E+00 0.0000E+00 0.9000E+01
        1 -1    0    0  502    0 0.00000000E+00 0.00000000E+00 -.87527567E+03 0.87527572E+03 0.32000000E+00 0.0000E+00 0.9000E+01
       25  1    1    2    0    0 -.27457673E+03 -.52505522E+03 -.78707800E+02 0.61065152E+03 0.12500000E+03 0.0000E+00 0.9000E+01
        2  1    1    2  501    0 -.42030609E+02 0.25664131E+03 0.10897587E+04 0.11203596E+04 0.32000000E+00 0.0000E+00 0.9000E+01
        1  1    1    2  502    0 0.31660734E+03 0.26841391E+03 -.43170948E+03 0.59888180E+03 0.32000000E+00 0.0000E+00 0.9000E+01
#aMCatNLO 1  0  0  1  5 0.68258321D+02 0.00000000D+00  -5  6  0 0.00000000D+00 0.00000000D+00 0.00000000D+00 0.00000000D+00 0.00000000D+00
  <mgrwgt>
 0.2481815213D-02    9    2    0
 0.112835769566180D+04 0.000000000000000D+00 0.000000000000000D+00 0.112835769566180D+04
 0.112835769566180D+04 0.000000000000000D+00 0.000000000000000D+00 -.112835769566180D+04
 0.650667651744909D+03 -.274614391346090D+03 -.525080685150386D+03 -.237950841929276D+03
 0.876870576233144D+03 -.420278921007412D+02 0.256624722923706D+03 0.837424274387449D+03
 0.729177163345548D+03 0.316642283446831D+03 0.268455962226681D+03 -.599473432458173D+03
 0.000000000000000D+00 -.000000000000000D+00 -.000000000000000D+00 0.000000000000000D+00
 0.124209765128290D+04 0.000000000000000D+00 0.000000000000000D+00 0.124209765128290D+04
 0.113916130073882D+04 0.000000000000000D+00 0.000000000000000D+00 -.113916130073882D+04
 0.633462021425676D+03 -.269528484021431D+03 -.506342695923385D+03 -.237950841929276D+03
 0.884429643905982D+03 -.350521092980505D+02 0.282325573266176D+03 0.837424274387449D+03
 0.739855786416085D+03 0.322460516290022D+03 0.289892055607172D+03 -.599473432458173D+03
 0.123511500273979D+03 -.178799229705404D+02 -.658749329499637D+02 0.102936350544083D+03
0.230194146140D-03 0.000000000000D+00 0.000000000000D+00 0.484589254955D-06 0.000000000000D+00  6 2 1 25 2 1 21 0 0.22378726D+00 0.13465780D+00 0.41009174D+06 0.41009174D+06 0.41009174D+06 0.10746484D+01  1  2  2  1  6  1        2 0.856503712610D-03 0.100000000000D+01
0.211948456624D-04 0.000000000000D+00 -.884006132687D-06 0.484589254955D-06 0.000000000000D+00  6 2 1 25 2 1 21 2 0.22378726D+00 0.13465780D+00 0.41009174D+06 0.41009174D+06 0.41009174D+06 0.10746484D+01  1  2  3  1  6  1        2 0.910747602195D-04 0.100000000000D+01
-.139106491829D-03 0.000000000000D+00 0.000000000000D+00 0.484589254955D-06 0.000000000000D+00  6 2 1 25 2 1 21 2 0.22378726D+00 0.13465780D+00 0.41009174D+06 0.41009174D+06 0.41009174D+06 0.10746484D+01  1  2 15  1  6  1        2 -.597743932183D-03 0.100000000000D+01
0.559234321556D-07 0.000000000000D+00 0.000000000000D+00 0.484589254955D-06 0.000000000000D+00  6 2 1 25 2 1 21 2 0.24812557D+00 0.13465780D+00 0.47158035D+06 0.47158035D+06 0.47158035D+06 0.10703112D+01  1  2 12  1  6  1        2 0.193264786177D-06 0.100000000000D+01
-.216461041118D-03 0.000000000000D+00 0.000000000000D+00 0.484589254955D-06 0.000000000000D+00  6 2 1 25 2 1 21 2 0.22378726D+00 0.13465780D+00 0.41009174D+06 0.41009174D+06 0.41009174D+06 0.10746484D+01  1  2  4  1  6  1        2 -.930138286011D-03 0.100000000000D+01
-.395494687748D-02 0.000000000000D+00 -.475167212496D-03 0.484589254955D-06 0.000000000000D+00  6 2 1 25 2 1 21 2 0.24728552D+00 0.13465780D+00 0.41009174D+06 0.41009174D+06 0.41009174D+06 0.10746484D+01  1  2  5  1  6  1        2 -.139940333383D-01 0.100000000000D+01
0.398486983151D-02 0.000000000000D+00 0.472808403567D-03 0.484589254955D-06 0.000000000000D+00  6 2 1 25 2 1 21 2 0.22378726D+00 0.13465780D+00 0.41009174D+06 0.41009174D+06 0.41009174D+06 0.10746484D+01  1  2  6  1  6  1        2 0.171230812525D-01 0.100000000000D+01
0.933628789645D-09 0.000000000000D+00 0.000000000000D+00 0.484589254955D-06 0.000000000000D+00  6 21 1 25 2 1 -2 2 0.24812557D+00 0.13465780D+00 0.47158035D+06 0.47158035D+06 0.47158035D+06 0.10703112D+01  1  2 12  5  6  1        2 0.965186101130D-09 0.100000000000D+01
-.625902045288D-04 0.000000000000D+00 -.770765692938D-05 0.484589254955D-06 0.000000000000D+00  6 21 1 25 2 1 -2 2 0.24728552D+00 0.13465780D+00 0.41009174D+06 0.41009174D+06 0.41009174D+06 0.10746484D+01  1  2  5  5  6  1        2 -.671231857822D-04 0.100000000000D+01
  </mgrwgt>
  </event>
  <event>
  5     66 0.18337608E-05 0.11204337E+03 0.75467711E-02 0.89682517E-01
        2 -1    0    0  501    0 0.00000000E+00 0.00000000E+00 0.10526824E+04 0.10526824E+04 0.32000000E+00 0.0000E+00 0.9000E+01
        1 -1    0    0  502    0 -.00000000E+00 -.00000000E+00 -.16458458E+04 0.16458458E+04 0.32000000E+00 0.0000E+00 0.9000E+01
       25  1    1    2    0    0 -.34246047E+03 0.39663396E+03 -.21748711E+03 0.58096756E+03 0.12500000E+03 0.0000E+00 0.9000E+01
        2  1    1    2  501    0 0.23421468E+03 -.36775072E+03 0.81357750E+03 0.92304147E+03 0.32000000E+00 0.0000E+00 0.9000E+01
        1  1    1    2  502    0 0.10824579E+03 -.28883240E+02 -.11892538E+04 0.11945192E+04 0.32000000E+00 0.0000E+00 0.9000E+01
#aMCatNLO 1  0  0  5  1 0.53621973D+02 0.00000000D+00  -5  6  0 0.00000000D+00 0.00000000D+00 0.00000000D+00 0.00000000D+00 0.00000000D+00
  <mgrwgt>
 0.2738174453D-02    6    2    0
 0.131626476188535D+04 0.000000000000000D+00 0.000000000000000D+00 0.131626476188535D+04
 0.131626476188535D+04 -.000000000000000D+00 -.000000000000000D+00 -.131626476188535D+04
 0.546512435452524D+03 -.342463795601619D+03 0.396626808018546D+03 -.919595887735558D+02
 0.112946666084720D+04 0.234208110230408D+03 -.367740402739194D+03 0.104192537893116D+04
 0.956550427470977D+03 0.108255685371211D+03 -.288864052793520D+02 -.949965790157601D+03
 0.000000000000000D+00 0.000000000000000D+00 0.000000000000000D+00 -.000000000000000D+00
 0.131626476188535D+04 0.000000000000000D+00 0.000000000000000D+00 0.131626476188535D+04
 0.131626476188535D+04 -.000000000000000D+00 -.000000000000000D+00 -.131626476188535D+04
 0.551425123811202D+03 -.337560893728520D+03 0.395318542221090D+03 -.134983555930319D+03
 0.105417639623723D+04 0.243959291018812D+03 -.370342359017427D+03 0.956356772249100D+03
 0.633511280547759D+03 0.282963782875535D+03 0.173722123597107D+03 -.539526332939311D+03
 0.393416723174509D+03 -.189362180165827D+03 -.198698306800770D+03 -.281846883379469D+03
0.185779341276D-02 0.000000000000D+00 0.000000000000D+00 0.281939324789D-04 0.000000000000D+00  6 2 1 25 2 1 21 0 0.16195114D+00 0.25320705D+00 0.29525772D+06 0.29525772D+06 0.29525772D+06 0.10850642D+01  1  2  2  4  6  5        1 0.337844264253D-02 0.100000000000D+01
0.431048254029D-03 0.000000000000D+00 -.713441587323D-05 0.281939324789D-04 0.000000000000D+00  6 2 1 25 2 1 21 2 0.16195114D+00 0.25320705D+00 0.29525772D+06 0.29525772D+06 0.29525772D+06 0.10850642D+01  1  2  3  4  6  5        1 0.922902661315D-03 0.100000000000D+01
-.126648151427D-02 0.000000000000D+00 0.000000000000D+00 0.281939324789D-04 0.000000000000D+00  6 2 1 25 2 1 21 2 0.16195114D+00 0.25320705D+00 0.29525772D+06 0.29525772D+06 0.29525772D+06 0.10850642D+01  1  2 15  4  6  5        1 -.271162021676D-02 0.100000000000D+01
-.341258751608D-04 0.000000000000D+00 0.000000000000D+00 0.281939324789D-04 0.000000000000D+00  6 2 1 25 2 1 21 2 0.16195114D+00 0.25320705D+00 0.29525772D+06 0.29525772D+06 0.29525772D+06 0.10850642D+01  1  2  4  4  6  5        1 -.730657431303D-04 0.100000000000D+01
-.117574074549D-02 0.000000000000D+00 0.000000000000D+00 0.281939324789D-04 0.000000000000D+00  6 2 1 25 2 1 21 2 0.16195114D+00 0.25320705D+00 0.29525772D+06 0.29525772D+06 0.29525772D+06 0.10850642D+01  1  2  5  4  6  5        1 -.251733826291D-02 0.100000000000D+01
0.174625806763D-02 0.000000000000D+00 -.000000000000D+00 0.281939324789D-04 0.000000000000D+00  6 2 1 25 2 1 21 2 0.16195114D+00 0.25320705D+00 0.29525772D+06 0.29525772D+06 0.29525772D+06 0.10850642D+01  1  2  6  4  6  5        1 0.373885337174D-02 0.100000000000D+01
  </mgrwgt>
  </event>
  <event>
  5     66 0.18337608E-05 0.37408026E+02 0.75467711E-02 0.95223496E-01
        2 -1    0    0  501    0 0.00000000E+00 0.00000000E+00 0.93872444E+03 0.93872449E+03 0.32000000E+00 0.0000E+00 0.9000E+01
        1 -1    0    0  502    0 0.00000000E+00 0.00000000E+00 -.90164584E+03 0.90164590E+03 0.32000000E+00 0.0000E+00 0.9000E+01
       25  1    1    2    0    0 0.33031264E+03 -.32834981E+03 -.79829283E+02 0.48879214E+03 0.12500000E+03 0.0000E+00 0.9000E+01
        2  1    1    2  501    0 -.20535184E+02 0.31273093E+02 0.65904674E+03 0.66010787E+03 0.32000000E+00 0.0000E+00 0.9000E+01
        1  1    1    2  502    0 -.30977745E+03 0.29707672E+03 -.54213885E+03 0.69147038E+03 0.32000000E+00 0.0000E+00 0.9000E+01
#aMCatNLO 1  0  0  5  1 0.53621973D+02 0.00000000D+00  -5  6  0 0.00000000D+00 0.00000000D+00 0.00000000D+00 0.00000000D+00 0.00000000D+00
  <mgrwgt>
 0.3711820447D-01    4    2    0
 0.919998416794372D+03 0.000000000000000D+00 0.000000000000000D+00 0.919998416794372D+03
 0.919998416794372D+03 -.000000000000000D+00 -.000000000000000D+00 -.919998416794372D+03
 0.490546382109405D+03 0.330357614972383D+03 -.328392359951140D+03 -.896273237138441D+02
 0.646882544019929D+03 -.205326922450862D+02 0.312692975964998D+02 0.645800019614963D+03
 0.702567907459409D+03 -.309824922727297D+03 0.297123062354640D+03 -.556172695901118D+03
 0.000000000000000D+00 0.000000000000000D+00 0.000000000000000D+00 0.000000000000000D+00
 0.919998416794372D+03 0.000000000000000D+00 0.000000000000000D+00 0.919998416794372D+03
 0.919998416794372D+03 -.000000000000000D+00 -.000000000000000D+00 -.919998416794372D+03
 0.470947254151507D+03 0.308330883751062D+03 -.307268656355797D+03 -.129167933866870D+03
 0.599444739210659D+03 -.490846400128090D+02 0.586507041091144D+02 0.594545867355625D+03
 0.647991410440842D+03 -.201222655425129D+03 0.231360447563172D+03 -.570854319640432D+03
 0.121613429785735D+03 -.580235883131242D+02 0.172575046835105D+02 0.105476386151677D+03
0.555812771180D-02 0.000000000000D+00 0.000000000000D+00 0.247305468953D-04 0.000000000000D+00  6 2 1 25 2 1 21 0 0.14441915D+00 0.13871475D+00 0.22513509D+06 0.22513509D+06 0.22513509D+06 0.10938984D+01  1  2  2  4  6  5        1 0.407417346076D-01 0.100000000000D+01
0.286840215929D-02 0.000000000000D+00 -.213446739020D-04 0.247305468953D-04 0.000000000000D+00  6 2 1 25 2 1 21 2 0.14441915D+00 0.13871475D+00 0.22513509D+06 0.22513509D+06 0.22513509D+06 0.10938984D+01  1  2  3  4  6  5        1 0.251596745539D-01 0.100000000000D+01
-.326194944974D-02 0.000000000000D+00 0.000000000000D+00 0.247305468953D-04 0.000000000000D+00  6 2 1 25 2 1 21 2 0.14441915D+00 0.13871475D+00 0.22513509D+06 0.22513509D+06 0.22513509D+06 0.10938984D+01  1  2 15  4  6  5        1 -.286116039555D-01 0.100000000000D+01
-.195638431754D-04 0.000000000000D+00 0.000000000000D+00 0.247305468953D-04 0.000000000000D+00  6 2 1 25 2 1 21 2 0.14441915D+00 0.13871475D+00 0.22513509D+06 0.22513509D+06 0.22513509D+06 0.10938984D+01  1  2  4  4  6  5        1 -.171600737966D-03 0.100000000000D+01
  </mgrwgt>
  </event>
  <event>
  5     66 0.18337608E-05 0.76892101E+02 0.75467711E-02 0.93028340E-01
        2 -1    0    0  501    0 0.00000000E+00 0.00000000E+00 0.77194696E+03 0.77194702E+03 0.32000000E+00 0.0000E+00 0.9000E+01
        1 -1    0    0  502    0 0.00000000E+00 0.00000000E+00 -.11502015E+04 0.11502016E+04 0.32000000E+00 0.0000E+00 0.9000E+01
       25  1    1    2    0    0 0.45767469E+03 0.27167772E+03 0.77073840E+02 0.55212343E+03 0.12500000E+03 0.0000E+00 0.9000E+01
        2  1    1    2  501    0 -.56687959E+02 -.51983407E+02 0.39615200E+03 0.40354964E+03 0.32000000E+00 0.0000E+00 0.9000E+01
        1  1    1    2  502    0 -.40098673E+03 -.21969431E+03 -.85148039E+03 0.96647551E+03 0.32000000E+00 0.0000E+00 0.9000E+01
#aMCatNLO 1  0  0  1  5 0.77553782D+02 0.00000000D+00  -5  6  0 0.00000000D+00 0.00000000D+00 0.00000000D+00 0.00000000D+00 0.00000000D+00
  <mgrwgt>
 0.3416860961D-02    4    2    0
 0.942281625447222D+03 0.000000000000000D+00 0.000000000000000D+00 0.942281625447222D+03
 0.942281625447222D+03 0.000000000000000D+00 0.000000000000000D+00 -.942281625447222D+03
 0.578702155936696D+03 0.457726294972823D+03 0.271701407122205D+03 0.189568376962103D+03
 0.490969002620045D+03 -.566716466510060D+02 -.519684489970692D+02 0.484910472467263D+03
 0.814892092337704D+03 -.401054648321817D+03 -.219732958125136D+03 -.674478849429366D+03
 0.000000000000000D+00 -.000000000000000D+00 0.000000000000000D+00 -.000000000000000D+00
 0.961462048848981D+03 0.000000000000000D+00 0.000000000000000D+00 0.961462048848981D+03
 0.102487520689702D+04 0.000000000000000D+00 0.000000000000000D+00 -.102487520689702D+04
 0.587527081788080D+03 0.476897264991256D+03 0.257285640746294D+03 0.189568376962103D+03
 0.490805888884320D+03 -.405328152780248D+02 -.641041741288398D+02 0.484910472467263D+03
 0.807825356645137D+03 -.374379731798947D+03 -.239791377929709D+03 -.674478849429366D+03
 0.100178928428461D+03 -.619847179142838D+02 0.466099113122549D+02 -.634131580480360D+02
0.109278066574D-02 0.000000000000D+00 0.000000000000D+00 0.639260115555D-05 0.000000000000D+00  6 2 1 25 2 1 21 0 0.11876108D+00 0.17695409D+00 0.29212347D+06 0.29212347D+06 0.29212347D+06 0.10854078D+01  1  2  2  1  6  1        2 0.663365166628D-02 0.100000000000D+01
0.273634412436D-03 0.000000000000D+00 -.419656549222D-05 0.639260115555D-05 0.000000000000D+00  6 2 1 25 2 1 21 2 0.11876108D+00 0.17695409D+00 0.29212347D+06 0.29212347D+06 0.29212347D+06 0.10854078D+01  1  2  3  1  6  1        2 0.195693423914D-02 0.100000000000D+01
-.589331480377D-03 0.000000000000D+00 0.000000000000D+00 0.639260115555D-05 0.000000000000D+00  6 2 1 25 2 1 21 2 0.11876108D+00 0.17695409D+00 0.29212347D+06 0.29212347D+06 0.29212347D+06 0.10854078D+01  1  2 15  1  6  1        2 -.421468536025D-02 0.100000000000D+01
-.134100690655D-03 0.000000000000D+00 0.000000000000D+00 0.639260115555D-05 0.000000000000D+00  6 2 1 25 2 1 21 2 0.11876108D+00 0.17695409D+00 0.29212347D+06 0.29212347D+06 0.29212347D+06 0.10854078D+01  1  2  4  1  6  1        2 -.959039583874D-03 0.100000000000D+01
  </mgrwgt>
  </event>
  <event>
  5     66 0.18337608E-05 0.63110316E+02 0.75467711E-02 0.95095165E-01
        2 -1    0    0  501    0 0.00000000E+00 0.00000000E+00 0.39406439E+03 0.39406452E+03 0.32000000E+00 0.0000E+00 0.9000E+01
        1 -1    0    0  502    0 -.00000000E+00 -.00000000E+00 -.33788261E+04 0.33788262E+04 0.32000000E+00 0.0000E+00 0.9000E+01
       25  1    1    2    0    0 0.69598028E+02 0.46642225E+03 -.19345547E+04 0.19951242E+04 0.12500000E+03 0.0000E+00 0.9000E+01
        2  1    1    2  501    0 -.44424125E+01 -.62955883E+02 0.33120569E+03 0.33716537E+03 0.32000000E+00 0.0000E+00 0.9000E+01
        1  1    1    2  502    0 -.65155615E+02 -.40346637E+03 -.13814127E+04 0.14406011E+04 0.32000000E+00 0.0000E+00 0.9000E+01
#aMCatNLO 1  0  0  5  2 0.39564330D+02 0.00000000D+00  -5  6  0 0.00000000D+00 0.00000000D+00 0.00000000D+00 0.00000000D+00 0.00000000D+00
  <mgrwgt>
 0.3616751536D-01    8    2    0
 0.115389572687832D+04 0.000000000000000D+00 0.000000000000000D+00 0.115389572687832D+04
 0.115389572687832D+04 -.000000000000000D+00 -.000000000000000D+00 -.115389572687832D+04
 0.759692232806404D+03 0.696045356520445D+02 0.466463603636742D+03 -.582300784548043D+03
 0.979543652820450D+03 -.444226405303756D+01 -.629537787112680D+02 0.977508493987078D+03
 0.568555568129781D+03 -.651622715990069D+02 -.403509824925474D+03 -.395207709439035D+03
 0.000000000000000D+00 0.000000000000000D+00 -.000000000000000D+00 0.000000000000000D+00
 0.115389572687832D+04 0.000000000000000D+00 0.000000000000000D+00 0.115389572687832D+04
 0.115389572687832D+04 -.000000000000000D+00 -.000000000000000D+00 -.115389572687832D+04
 0.760041571583665D+03 0.691550930723735D+02 0.463680482481097D+03 -.585026643669855D+03
 0.976283278575430D+03 -.502067581100287D+01 -.665355265764693D+02 0.974000439703999D+03
 0.490191789781162D+03 -.780139964943158D+02 -.322011641586175D+03 -.361262106790653D+03
 0.812748138163774D+02 0.138795792329452D+02 -.751333143184526D+02 -.277116892434908D+02
0.123008413326D-01 0.000000000000D+00 0.000000000000D+00 0.129982939287D-04 0.000000000000D+00  6 2 1 25 2 1 21 0 0.60625302D-01 0.51981942D+00 0.23028468D+06 0.23028468D+06 0.23028468D+06 0.10931531D+01  1  2  2  4  6  5        1 0.454620916557D-02 0.100000000000D+01
0.456736274506D-02 0.000000000000D+00 -.472384696032D-04 0.129982939287D-04 0.000000000000D+00  6 2 1 25 2 1 21 2 0.60625302D-01 0.51981942D+00 0.23028468D+06 0.23028468D+06 0.23028468D+06 0.10931531D+01  1  2  3  4  6  5        1 0.201716810993D-02 0.100000000000D+01
-.733955376599D-02 0.000000000000D+00 0.000000000000D+00 0.129982939287D-04 0.000000000000D+00  6 2 1 25 2 1 21 2 0.60625302D-01 0.51981942D+00 0.23028468D+06 0.23028468D+06 0.23028468D+06 0.10931531D+01  1  2 15  4  6  5        1 -.324150163327D-02 0.100000000000D+01
0.103301739871D+00 0.000000000000D+00 0.000000000000D+00 0.129982939287D-04 0.000000000000D+00  6 2 1 25 2 1 21 2 0.60625302D-01 0.51981942D+00 0.23022916D+06 0.23022916D+06 0.23022916D+06 0.10931611D+01  1  2 12  4  6  5        1 0.456246089766D-01 0.100000000000D+01
0.107075988017D-06 0.000000000000D+00 0.000000000000D+00 0.129982939287D-04 0.000000000000D+00  6 2 1 25 2 1 21 2 0.60625302D-01 0.51981942D+00 0.23022916D+06 0.23022916D+06 0.23022916D+06 0.10931611D+01  1  2 12  4  6  5        1 0.472915566589D-07 0.100000000000D+01
-.487073789358D-01 0.000000000000D+00 0.000000000000D+00 0.129982939287D-04 0.000000000000D+00  6 2 1 25 2 1 21 2 0.60625302D-01 0.51981942D+00 0.23028468D+06 0.23028468D+06 0.23028468D+06 0.10931531D+01  1  2  4  4  6  5        1 -.215115323637D-01 0.100000000000D+01
-.127185968614D+00 0.000000000000D+00 0.000000000000D+00 0.129982939287D-04 0.000000000000D+00  6 2 1 25 2 1 21 2 0.60625302D-01 0.51981942D+00 0.23028468D+06 0.23028468D+06 0.23028468D+06 0.10931531D+01  1  2  5  4  6  5        1 -.561714701106D-01 0.100000000000D+01
0.146958523618D+00 0.000000000000D+00 -.000000000000D+00 0.129982939287D-04 0.000000000000D+00  6 2 1 25 2 1 21 2 0.60625302D-01 0.51981942D+00 0.23028468D+06 0.23028468D+06 0.23028468D+06 0.10931531D+01  1  2  6  4  6  5        1 0.649039859257D-01 0.100000000000D+01
  </mgrwgt>
  </event>
  <event>
  5     66 -.18337608E-05 0.15277428E+02 0.75467711E-02 0.92960031E-01
        2 -1    0    0  501    0 0.00000000E+00 0.00000000E+00 0.11997966E+04 0.11997967E+04 0.32000000E+00 0.0000E+00 0.9000E+01
        1 -1    0    0  502    0 0.00000000E+00 0.00000000E+00 -.87540311E+03 0.87540317E+03 0.32000000E+00 0.0000E+00 0.9000E+01
       25  1    1    2    0    0 0.56437220E+03 -.82628138E+02 -.40383140E+03 0.70996351E+03 0.12500000E+03 0.0000E+00 0.9000E+01
        2  1    1    2  501    0 -.55473966E+03 0.94487878E+02 0.97084112E+03 0.11221393E+04 0.32000000E+00 0.0000E+00 0.9000E+01
        1  1    1    2  502    0 -.96325462E+01 -.11859740E+02 -.24261620E+03 0.24309702E+03 0.32000000E+00 0.0000E+00 0.9000E+01
#aMCatNLO 1  0  0  4  2 0.31658848D+03 0.00000000D+00  -5  6  0 0.00000000D+00 0.00000000D+00 0.00000000D+00 0.00000000D+00 0.00000000D+00
  <mgrwgt>
 -.2616747150D-02    6    2    0
 0.102484428210810D+04 0.000000000000000D+00 0.000000000000000D+00 0.102484428210810D+04
 0.102484428210810D+04 -.000000000000000D+00 -.000000000000000D+00 -.102484428210810D+04
 0.782743712617473D+03 0.564375386644310D+03 -.826299503368103D+02 -.521263305729078D+03
 0.982462645044458D+03 -.554743462428814D+03 0.944885264730216D+02 0.805334997479435D+03
 0.284482206554260D+03 -.963192421549606D+01 -.118585761362113D+02 -.284071691750356D+03
 0.000000000000000D+00 0.000000000000000D+00 0.000000000000000D+00 0.000000000000000D+00
 0.102484428210810D+04 0.000000000000000D+00 0.000000000000000D+00 0.102484428210810D+04
 0.102484428210810D+04 -.000000000000000D+00 -.000000000000000D+00 -.102484428210810D+04
 0.782170755166337D+03 0.564039483289227D+03 -.825727364799400D+02 -.520775666403984D+03
 0.526785186654454D+03 -.276165321275766D+03 0.413047169301750D+02 0.446686991709562D+03
 0.284308518732148D+03 -.975401313274816D+01 -.118377809350577D+02 -.283894452207168D+03
 0.456424103663253D+03 -.278120148880713D+03 0.531058004848227D+02 0.357983126901590D+03
0.114493479788D-04 0.000000000000D+00 0.000000000000D+00 0.136992179512D-04 0.000000000000D+00  6 2 1 25 2 1 21 0 0.18458410D+00 0.13467741D+00 0.33752539D+06 0.33752539D+06 0.33752539D+06 0.10807852D+01  1  2  2  3  6  4        2 0.600424077898D-04 0.100000000000D+01
0.736335370806D-05 0.000000000000D+00 -.439685109213D-07 0.136992179512D-04 0.000000000000D+00  6 2 1 25 2 1 21 2 0.18458410D+00 0.13467741D+00 0.33752539D+06 0.33752539D+06 0.33752539D+06 0.10807852D+01  1  2  3  3  6  4        2 0.451057333204D-04 0.100000000000D+01
-.756690186986D-05 0.000000000000D+00 0.000000000000D+00 0.136992179512D-04 0.000000000000D+00  6 2 1 25 2 1 21 2 0.18458410D+00 0.13467741D+00 0.33752539D+06 0.33752539D+06 0.33752539D+06 0.10807852D+01  1  2 15  3  6  4        2 -.463526093321D-04 0.100000000000D+01
-.864220408513D-03 0.000000000000D+00 0.000000000000D+00 0.136992179512D-04 0.000000000000D+00  6 2 1 25 2 1 21 2 0.18458410D+00 0.13467741D+00 0.33752539D+06 0.33752539D+06 0.33752539D+06 0.10807852D+01  1  2  4  3  6  4        2 -.529395935900D-02 0.100000000000D+01
-.771031900046D-03 0.000000000000D+00 0.000000000000D+00 0.136992179512D-04 0.000000000000D+00  6 2 1 25 2 1 21 2 0.18458410D+00 0.13467741D+00 0.33752539D+06 0.33752539D+06 0.33752539D+06 0.10807852D+01  1  2  5  3  6  4        2 -.472311403795D-02 0.100000000000D+01
0.119847929380D-02 0.000000000000D+00 -.000000000000D+00 0.136992179512D-04 0.000000000000D+00  6 2 1 25 2 1 21 2 0.18458410D+00 0.13467741D+00 0.33752539D+06 0.33752539D+06 0.33752539D+06 0.10807852D+01  1  2  6  3  6  4        2 0.734153071538D-02 0.100000000000D+01
  </mgrwgt>
  </event>
  <event>
  6     66 -.18337608E-05 0.16809872E+03 0.75467711E-02 0.91921598E-01
        2 -1    0    0  501    0 0.00000000E+00 0.00000000E+00 0.11618462E+04 0.11618463E+04 0.32000000E+00 0.0000E+00 0.9000E+01
        1 -1    0    0  503    0 0.00000000E+00 0.00000000E+00 -.14925747E+04 0.14925747E+04 0.32000000E+00 0.0000E+00 0.9000E+01
       25  1    1    2    0    0 0.15583730E+03 0.44225934E+03 0.49817179E+03 0.69547015E+03 0.12500000E+03 0.0000E+00 0.9000E+01
        2  1    1    2  501    0 -.21960957E+03 0.11296744E+02 0.47898663E+03 0.52705244E+03 0.32000000E+00 0.0000E+00 0.9000E+01
        1  1    1    2  502    0 -.38658787E+02 -.46810172E+03 -.95657542E+03 0.10656690E+04 0.32000000E+00 0.0000E+00 0.9000E+01
       21  1    1    2  503  502 0.10243106E+03 0.14545637E+02 -.35131144E+03 0.36622942E+03 0.75000000E+00 0.0000E+00 0.9000E+01
#aMCatNLO 2  0  0  2  5 0.10345867D+03 0.00000000D+00  -5  6  0 0.00000000D+00 0.00000000D+00 0.00000000D+00 0.00000000D+00 0.00000000D+00
  <mgrwgt>
 -.2102101777D-03    3    2    0
 0.114287939448232D+04 0.000000000000000D+00 0.000000000000000D+00 0.114287939448232D+04
 0.114287939448232D+04 0.000000000000000D+00 0.000000000000000D+00 -.114287939448232D+04
 0.701660335004034D+03 0.186964890940057D+03 0.446754302889955D+03 0.492094450408716D+03
 0.513362806765175D+03 -.196337645131477D+03 0.145875686032904D+02 0.474109800907225D+03
 0.107073564719543D+04 0.937275419141915D+01 -.461341871493245D+03 -.966204251315941D+03
 0.000000000000000D+00 0.000000000000000D+00 0.000000000000000D+00 -.000000000000000D+00
 0.115144130409338D+04 0.000000000000000D+00 0.000000000000000D+00 0.115144130409338D+04
 0.150606132610619D+04 0.000000000000000D+00 0.000000000000000D+00 -.150606132610619D+04
 0.691157337539154D+03 0.155772887132632D+03 0.442324908574590D+03 0.492094450408716D+03
 0.522593988174089D+03 -.219537787496896D+03 0.112930518629273D+02 0.474109800907225D+03
 0.107434765350039D+04 -.386661584398203D+02 -.468163596953360D+03 -.966204251315941D+03
 0.369403650985942D+03 0.102431058804084D+03 0.145456365158418D+02 -.354620022012812D+03
-.211511116810D-03 0.000000000000D+00 0.000000000000D+00 0.673164498736D-06 0.000000000000D+00  6 2 1 25 2 1 21 2 0.17741640D+00 0.24461897D+00 0.40855782D+06 0.40855782D+06 0.40855782D+06 0.10747655D+01  1  2 13  2  6  2        1 -.412327811979D-03 0.100000000000D+01
-.481670152049D-08 0.000000000000D+00 0.000000000000D+00 0.673164498736D-06 0.000000000000D+00  6 2 1 25 2 1 21 2 0.17741640D+00 0.23109815D+00 0.40855782D+06 0.40855782D+06 0.40855782D+06 0.10747655D+01  1  2 13  2  6  2        1 -.107616859691D-07 0.100000000000D+01
0.901825278058D-04 0.000000000000D+00 0.000000000000D+00 0.673164498736D-06 0.155726425505D-09  6 2 1 25 2 1 21 2 0.17874552D+00 0.22962680D+00 0.40855782D+06 0.40855782D+06 0.40855782D+06 0.10747655D+01  1  2  1  2  6  2        1 0.202128395937D-03 0.100000000000D+01
  </mgrwgt>
  </event>
  <event>
  5     66 0.18337608E-05 0.93515509E+02 0.75467711E-02 0.94429261E-01
        2 -1    0    0  501    0 0.00000000E+00 0.00000000E+00 0.38133922E+04 0.38133922E+04 0.32000000E+00 0.0000E+00 0.9000E+01
        1 -1    0    0  502    0 0.00000000E+00 0.00000000E+00 -.22882133E+04 0.22882134E+04 0.32000000E+00 0.0000E+00 0.9000E+01
       25  1    1    2    0    0 0.32934287E+03 -.37339196E+03 -.43701641E+03 0.67416365E+03 0.12500000E+03 0.0000E+00 0.9000E+01
        2  1    1    2  501    0 -.81373886E+02 0.46081159E+02 0.36698842E+04 0.36710755E+04 0.32000000E+00 0.0000E+00 0.9000E+01
        1  1    1    2  502    0 -.24796898E+03 0.32731080E+03 -.17076890E+04 0.17563664E+04 0.32000000E+00 0.0000E+00 0.9000E+01
#aMCatNLO 1  0  0  2  1 0.73573770D+03 0.00000000D+00  -5  6  0 0.00000000D+00 0.00000000D+00 0.00000000D+00 0.00000000D+00 0.00000000D+00
  <mgrwgt>
 0.3989134755D-01    7    2    0
 0.295395580953216D+04 0.000000000000000D+00 0.000000000000000D+00 0.295395580953216D+04
 0.295395580953216D+04 0.000000000000000D+00 0.000000000000000D+00 -.295395580953216D+04
 0.809084283678226D+03 0.329349157373055D+03 -.373400103358087D+03 -.625374986264191D+03
 0.284401581001324D+04 -.813737365206152D+02 0.460810744876385D+02 0.284247792905838D+04
 0.225481152537286D+04 -.247975420852440D+03 0.327319028870449D+03 -.221710294279419D+04
 0.000000000000000D+00 0.000000000000000D+00 0.000000000000000D+00 -.000000000000000D+00
 0.338167639089959D+04 0.000000000000000D+00 0.000000000000000D+00 0.338167639089959D+04
 0.363362467722842D+04 0.000000000000000D+00 0.000000000000000D+00 -.363362467722842D+04
 0.770629568122303D+03 0.197988921398035D+03 -.384644569470406D+03 -.625374986264191D+03
 0.289688020214411D+04 -.558754784996896D+03 0.521714803065982D+01 0.284247792905838D+04
 0.232328022006244D+04 -.628664120461063D+03 0.294731989494958D+03 -.221710294279419D+04
 0.102451107779915D+04 0.989429984059924D+03 0.846954319447878D+02 -.251948286328832D+03
0.428364425422D+01 0.000000000000D+00 0.000000000000D+00 0.204807908010D-02 0.000000000000D+00  6 2 1 25 2 1 21 0 0.58667572D+00 0.35203282D+00 0.25882972D+06 0.25882972D+06 0.25882972D+06 0.10893269D+01  1  2  2  2  6  2        1 0.619512114739D-01 0.100000000000D+01
0.137518272041D+01 0.000000000000D+00 -.164503218456D-01 0.204807908010D-02 0.000000000000D+00  6 2 1 25 2 1 21 2 0.58667572D+00 0.35203282D+00 0.25882972D+06 0.25882972D+06 0.25882972D+06 0.10893269D+01  1  2  3  2  6  2        1 0.236000686610D-01 0.100000000000D+01
-.248086333514D+01 0.000000000000D+00 0.000000000000D+00 0.204807908010D-02 0.000000000000D+00  6 2 1 25 2 1 21 2 0.58667572D+00 0.35203282D+00 0.25882972D+06 0.25882972D+06 0.25882972D+06 0.10893269D+01  1  2 15  2  6  2        1 -.425751023329D-01 0.100000000000D+01
-.191977187780D-01 0.000000000000D+00 0.000000000000D+00 0.204807908010D-02 0.000000000000D+00  6 2 1 25 2 1 21 2 0.58667572D+00 0.35203282D+00 0.25882972D+06 0.25882972D+06 0.25882972D+06 0.10893269D+01  1  2  4  2  6  2        1 -.329459841643D-03 0.100000000000D+01
0.154805957664D+01 0.000000000000D+00 -.273920464706D+01 0.204807908010D-02 0.000000000000D+00  6 2 1 25 2 1 21 2 0.58667572D+00 0.47384680D+00 0.25882972D+06 0.25882972D+06 0.25882972D+06 0.10893269D+01  1  2  5  2  6  2        1 0.727305353959D-02 0.100000000000D+01
-.591140314209D+00 0.000000000000D+00 0.262255904196D+01 0.204807908010D-02 0.000000000000D+00  6 2 1 25 2 1 21 2 0.58667572D+00 0.35203282D+00 0.25882972D+06 0.25882972D+06 0.25882972D+06 0.10893269D+01  1  2  6  2  6  2        1 -.101447987941D-01 0.100000000000D+01
0.119946764135D+00 0.000000000000D+00 -.105159107438D+00 0.204807908010D-02 0.000000000000D+00  6 2 21 25 2 1 -1 2 0.58667572D+00 0.47384680D+00 0.25882972D+06 0.25882972D+06 0.25882972D+06 0.10893269D+01  1  2  5  6  6  2        1 0.116374845004D-03 0.100000000000D+01
  </mgrwgt>
  </event>
  <event>
  6     66 0.18337608E-05 0.18613179E+03 0.75467711E-02 0.94606149E-01
        2 -1    0    0  501    0 0.00000000E+00 0.00000000E+00 0.94923648E+03 0.94923653E+03 0.32000000E+00 0.0000E+00 0.9000E+01
        1 -1    0    0  502    0 -.00000000E+00 -.00000000E+00 -.13760586E+04 0.13760587E+04 0.32000000E+00 0.0000E+00 0.9000E+01
       25  1    1    2    0    0 -.46828065E+03 0.82369784E+02 0.11752580E+03 0.50547884E+03 0.12500000E+03 0.0000E+00 0.9000E+01
        2  1    1    2  501    0 0.17969556E+03 0.57745025E+02 0.60110027E+03 0.63003700E+03 0.32000000E+00 0.0000E+00 0.9000E+01
        1  1    1    2  503    0 0.27816066E+03 -.13100127E+03 -.10822493E+04 0.11250770E+04 0.32000000E+00 0.0000E+00 0.9000E+01
       21  1    1    2  502  503 0.10424425E+02 -.91135372E+01 -.63198944E+02 0.64702350E+02 0.75000000E+00 0.0000E+00 0.9000E+01
#aMCatNLO 2  0  0  5  2 0.55444790D+01 0.00000000D+00  -5  6  0 0.00000000D+00 0.00000000D+00 0.00000000D+00 0.00000000D+00 0.00000000D+00
  <mgrwgt>
 0.7980830968D-02    6    2    0
 0.114289332112111D+04 0.000000000000000D+00 0.000000000000000D+00 0.114289332112111D+04
 0.114289332112111D+04 -.000000000000000D+00 -.000000000000000D+00 -.114289332112111D+04
 0.536254061509872D+03 -.468313520819560D+03 0.823973031522362D+02 0.214094720011167D+03
 0.753186283730759D+03 0.179649804685194D+03 0.577538476504809D+02 0.729163917619549D+03
 0.996346297001590D+03 0.288663716134365D+03 -.140151150802717D+03 -.943258637630716D+03
 0.000000000000000D+00 0.000000000000000D+00 0.000000000000000D+00 -.000000000000000D+00
 0.114289332112111D+04 0.000000000000000D+00 0.000000000000000D+00 0.114289332112111D+04
 0.114289332112111D+04 -.000000000000000D+00 -.000000000000000D+00 -.114289332112111D+04
 0.536207274366707D+03 -.468292748358091D+03 0.823872177683894D+02 0.214026842399226D+03
 0.753099863838570D+03 0.179678979882392D+03 0.577396825953193D+02 0.729068582614755D+03
 0.943206133867813D+03 0.278411544589532D+03 -.131115553845114D+03 -.891590452138776D+03
 0.532733701691314D+02 0.102022238861668D+02 -.901134651859498D+01 -.515049728752053D+02
-.412003069509D-02 0.000000000000D+00 0.000000000000D+00 0.814816777422D-05 0.000000000000D+00  6 2 1 25 2 1 21 2 0.14603639D+00 0.21170133D+00 0.25086174D+06 0.25086174D+06 0.25086174D+06 0.10903467D+01  1  2 13  4  6  5        1 -.158482827925D-01 0.100000000000D+01
-.426841476408D-08 0.000000000000D+00 0.000000000000D+00 0.814816777422D-05 0.000000000000D+00  6 2 1 25 2 1 21 2 0.14603639D+00 0.21170133D+00 0.25086174D+06 0.25086174D+06 0.25086174D+06 0.10903467D+01  1  2 13  4  6  5        1 -.164190631729D-07 0.100000000000D+01
-.920898939931D-02 0.000000000000D+00 0.000000000000D+00 0.814816777422D-05 0.000000000000D+00  6 2 1 25 2 1 21 2 0.14603639D+00 0.21170133D+00 0.25062803D+06 0.25062803D+06 0.25062803D+06 0.10903771D+01  1  2  8  4  6  5        1 -.354276200848D-01 0.100000000000D+01
-.565572427718D-02 0.000000000000D+00 0.000000000000D+00 0.814816777422D-05 0.000000000000D+00  6 2 1 25 2 1 21 2 0.14603639D+00 0.21170133D+00 0.25062803D+06 0.25062803D+06 0.25062803D+06 0.10903771D+01  1  2  9  4  6  5        1 -.217579630411D-01 0.100000000000D+01
0.596620106421D-02 0.000000000000D+00 0.000000000000D+00 0.814816777422D-05 0.000000000000D+00  6 2 1 25 2 1 21 2 0.14603639D+00 0.21170133D+00 0.25062803D+06 0.25062803D+06 0.25062803D+06 0.10903771D+01  1  2 10  4  6  5        1 0.229523887462D-01 0.100000000000D+01
0.150942889235D-01 0.000000000000D+00 0.000000000000D+00 0.814816777422D-05 0.241158082280D-05  6 2 1 25 2 1 21 2 0.14603639D+00 0.21170133D+00 0.25086174D+06 0.25086174D+06 0.25086174D+06 0.10903467D+01  1  2  1  4  6  5        1 0.580623245591D-01 0.100000000000D+01
  </mgrwgt>
  </event>
  <event>
  5     66 0.18337608E-05 0.98645214E+02 0.75467711E-02 0.92274912E-01
        2 -1    0    0  501    0 0.00000000E+00 0.00000000E+00 0.18300358E+04 0.18300358E+04 0.32000000E+00 0.0000E+00 0.9000E+01
        1 -1    0    0  502    0 0.00000000E+00 0.00000000E+00 -.48012630E+03 0.48012641E+03 0.32000000E+00 0.0000E+00 0.9000E+01
       25  1    1    2    0    0 0.19386650E+03 0.49232954E+03 0.20432898E+03 0.58081660E+03 0.12500000E+03 0.0000E+00 0.9000E+01
        2  1    1    2  501    0 -.50702273E+02 0.84638628E+02 0.11303891E+04 0.11346868E+04 0.32000000E+00 0.0000E+00 0.9000E+01
        1  1    1    2  502    0 -.14316423E+03 -.57696817E+03 0.15191385E+02 0.59465885E+03 0.32000000E+00 0.0000E+00 0.9000E+01
#aMCatNLO 1  0  0  1  4 0.21251954D+03 0.00000000D+00  -5  6  0 0.00000000D+00 0.00000000D+00 0.00000000D+00 0.00000000D+00 0.00000000D+00
  <mgrwgt>
 0.1099917939D-01    3    2    0
 0.937362510498998D+03 0.000000000000000D+00 0.000000000000000D+00 0.937362510498998D+03
 0.937362510498998D+03 0.000000000000000D+00 0.000000000000000D+00 -.937362510498998D+03
 0.568666437647916D+03 0.193886729245472D+03 0.492421587555356D+03 -.166389403626334D+03
 0.584186057343096D+03 -.506930541945840D+02 0.846232390076311D+02 0.575797248404639D+03
 0.721872526006984D+03 -.143193675050888D+03 -.577044826562987D+03 -.409407844778304D+03
 0.000000000000000D+00 0.000000000000000D+00 0.000000000000000D+00 -.000000000000000D+00
 0.187187985441241D+04 0.000000000000000D+00 0.000000000000000D+00 0.187187985441241D+04
 0.312832784836711D+04 0.000000000000000D+00 0.000000000000000D+00 -.312832784836711D+04
 0.368469284500134D+03 -.136009433942790D+03 0.271957007373363D+03 -.166389403626334D+03
 0.834358386750695D+03 -.550057616187704D+03 -.249094490394246D+03 0.575797248404639D+03
 0.149086137278673D+04 -.922133593908584D+03 -.109759850787378D+04 -.409407844778304D+03
 0.230651865874197D+04 0.160820064403908D+04 0.107473599089467D+04 -.125644799395470D+04
0.375764537478D-02 0.000000000000D+00 0.000000000000D+00 0.888299469491D-06 0.000000000000D+00  6 2 1 25 2 1 21 0 0.28154398D+00 0.73865595D-01 0.38252421D+06 0.38252421D+06 0.38252421D+06 0.10768290D+01  1  2  2  1  6  1        2 0.215764959587D-01 0.100000000000D+01
0.898904731166D-03 0.000000000000D+00 -.144303476499D-04 0.888299469491D-06 0.000000000000D+00  6 2 1 25 2 1 21 2 0.28154398D+00 0.73865595D-01 0.38252421D+06 0.38252421D+06 0.38252421D+06 0.10768290D+01  1  2  3  1  6  1        2 0.598511220725D-02 0.100000000000D+01
-.248751319486D-02 0.000000000000D+00 0.000000000000D+00 0.888299469491D-06 0.000000000000D+00  6 2 1 25 2 1 21 2 0.28154398D+00 0.73865595D-01 0.38252421D+06 0.38252421D+06 0.38252421D+06 0.10768290D+01  1  2 15  1  6  1        2 -.165624287781D-01 0.100000000000D+01
  </mgrwgt>
  </event>
  <event>
  5     66 0.18337608E-05 0.18130821E+03 0.75467711E-02 0.91095799E-01
        2 -1    0    0  501    0 0.00000000E+00 0.00000000E+00 0.13250182E+04 0.13250182E+04 0.32000000E+00 0.0000E+00 0.9000E+01
        1 -1    0    0  502    0 0.00000000E+00 0.00000000E+00 -.88818610E+03 0.88818616E+03 0.32000000E+00 0.0000E+00 0.9000E+01
       25  1    1    2    0    0 -.43453702E+03 -.34097082E+03 0.33124349E+02 0.56727925E+03 0.12500000E+03 0.0000E+00 0.9000E+01
        2  1    1    2  501    0 0.30449359E+03 0.21466636E+03 0.97648620E+03 0.10451428E+04 0.32000000E+00 0.0000E+00 0.9000E+01
        1  1    1    2  502    0 0.13004343E+03 0.12630446E+03 -.57277849E+03 0.60078234E+03 0.32000000E+00 0.0000E+00 0.9000E+01
#aMCatNLO 1  0  0  1  4 0.50406262D+02 0.00000000D+00  -5  6  0 0.00000000D+00 0.00000000D+00 0.00000000D+00 0.00000000D+00 0.00000000D+00
  <mgrwgt>
 0.1995140340D-02    7    2    0
 0.108483308025248D+04 0.000000000000000D+00 0.000000000000000D+00 0.108483308025248D+04
 0.108483308025248D+04 0.000000000000000D+00 0.000000000000000D+00 -.108483308025248D+04
 0.571982813156309D+03 -.434537519143817D+03 -.340975151024849D+03 -.803270152945041D+02
 0.869465660963844D+03 0.304476853504887D+03 0.214654565840622D+03 0.785613008190949D+03
 0.728217686384814D+03 0.130060665638929D+03 0.126320585184227D+03 -.705285992896445D+03
 0.000000000000000D+00 -.000000000000000D+00 0.000000000000000D+00 0.000000000000000D+00
 0.141733082085150D+04 0.000000000000000D+00 0.000000000000000D+00 0.141733082085150D+04
 0.111889995291787D+04 0.000000000000000D+00 0.000000000000000D+00 -.111889995291787D+04
 0.547082462042055D+03 -.386573660920786D+03 -.357466915350463D+03 -.803270152945041D+02
 0.892859239164553D+03 0.380011233425390D+03 0.188683027305548D+03 0.785613008190949D+03
 0.738656736524599D+03 0.192931847875324D+03 0.104703126565825D+03 -.705285992896445D+03
 0.357632336038157D+03 -.186369420379928D+03 0.640807614790897D+02 0.298430867933628D+03
0.227669259273D-03 0.000000000000D+00 0.000000000000D+00 0.326215958946D-05 0.000000000000D+00  6 2 1 25 2 1 21 0 0.20384895D+00 0.13664402D+00 0.31368853D+06 0.31368853D+06 0.31368853D+06 0.10831211D+01  1  2  2  1  6  1        2 0.992108502524D-03 0.100000000000D+01
0.292307065356D-04 0.000000000000D+00 -.874309902301D-06 0.326215958946D-05 0.000000000000D+00  6 2 1 25 2 1 21 2 0.20384895D+00 0.13664402D+00 0.31368853D+06 0.31368853D+06 0.31368853D+06 0.10831211D+01  1  2  3  1  6  1        2 0.149433566006D-03 0.100000000000D+01
-.152908148518D-03 0.000000000000D+00 0.000000000000D+00 0.326215958946D-05 0.000000000000D+00  6 2 1 25 2 1 21 2 0.20384895D+00 0.13664402D+00 0.31368853D+06 0.31368853D+06 0.31368853D+06 0.10831211D+01  1  2 15  1  6  1        2 -.781698857556D-03 0.100000000000D+01
-.131216919432D-03 0.000000000000D+00 0.000000000000D+00 0.326215958946D-05 0.000000000000D+00  6 2 1 25 2 1 21 2 0.20384895D+00 0.13664402D+00 0.31368853D+06 0.31368853D+06 0.31368853D+06 0.10831211D+01  1  2  4  1  6  1        2 -.670808697941D-03 0.100000000000D+01
-.104480536474D-02 0.000000000000D+00 -.194608944523D-03 0.326215958946D-05 0.000000000000D+00  6 2 1 25 2 1 21 2 0.26941507D+00 0.13664402D+00 0.31368853D+06 0.31368853D+06 0.31368853D+06 0.10831211D+01  1  2  5  1  6  1        2 -.311039078040D-02 0.100000000000D+01
0.106473486863D-02 0.000000000000D+00 0.187279212959D-03 0.326215958946D-05 0.000000000000D+00  6 2 1 25 2 1 21 2 0.20384895D+00 0.13664402D+00 0.31368853D+06 0.31368853D+06 0.31368853D+06 0.10831211D+01  1  2  6  1  6  1        2 0.544315027339D-02 0.100000000000D+01
-.344147955397D-04 0.000000000000D+00 -.713491385473D-05 0.326215958946D-05 0.000000000000D+00  6 21 1 25 2 1 -2 2 0.26941507D+00 0.13664402D+00 0.31368853D+06 0.31368853D+06 0.31368853D+06 0.10831211D+01  1  2  5  5  6  1        2 -.266536663078D-04 0.100000000000D+01
  </mgrwgt>
  </event>
  <event>
  5     66 0.18337608E-05 0.21002918E+03 0.75467711E-02 0.91489694E-01
        2 -1    0    0  501    0 0.00000000E+00 0.00000000E+00 0.84351416E+03 0.84351422E+03 0.32000000E+00 0.0000E+00 0.9000E+01
        1 -1    0    0  502    0 0.00000000E+00 0.00000000E+00 -.25516112E+04 0.25516113E+04 0.32000000E+00 0.0000E+00 0.9000E+01
       25  1    1    2    0    0 -.29795535E+03 -.35166798E+03 -.53876886E+03 0.71996156E+03 0.12500000E+03 0.0000E+00 0.9000E+01
        2  1    1    2  501    0 0.18461206E+03 -.10016382E+03 0.70924752E+03 0.73969355E+03 0.32000000E+00 0.0000E+00 0.9000E+01
        1  1    1    2  502    0 0.11334329E+03 0.45183180E+03 -.18785757E+04 0.19354704E+04 0.32000000E+00 0.0000E+00 0.9000E+01
#aMCatNLO 1  0  0  2  1 0.22271409D+03 0.00000000D+00  -5  6  0 0.00000000D+00 0.00000000D+00 0.00000000D+00 0.00000000D+00 0.00000000D+00
  <mgrwgt>
 0.3725007818D-02    7    2    0
 0.146707885004027D+04 0.000000000000000D+00 0.000000000000000D+00 0.146707885004027D+04
 0.146707885004027D+04 0.000000000000000D+00 0.000000000000000D+00 -.146707885004027D+04
 0.519449126472951D+03 -.297964476170854D+03 -.351704197571257D+03 -.204263857166407D+03
 0.126875431024665D+04 0.184607562394162D+03 -.100161383024235D+03 0.125124947353715D+04
 0.114595426336094D+04 0.113356913776692D+03 0.451865580595492D+03 -.104698561637075D+04
 0.000000000000000D+00 0.000000000000000D+00 0.000000000000000D+00 -.000000000000000D+00
 0.157904549243875D+04 0.000000000000000D+00 0.000000000000000D+00 0.157904549243875D+04
 0.158638758848808D+04 0.000000000000000D+00 0.000000000000000D+00 -.158638758848808D+04
 0.554787156839753D+03 -.331298989951555D+03 -.375074719631859D+03 -.204263857166407D+03
 0.126529479648695D+04 0.105973749534205D+03 -.155290828446556D+03 0.125124947353715D+04
 0.112251604450221D+04 0.429642488544210D+02 0.402513928452215D+03 -.104698561637075D+04
 0.222835083097915D+03 0.182360991562929D+03 0.127851619626199D+03 -.734209604933380D+01
0.258575400497D-02 0.000000000000D+00 0.000000000000D+00 0.564043529928D-05 0.000000000000D+00  6 2 1 25 2 1 21 0 0.12977142D+00 0.39255558D+00 0.33263965D+06 0.33263965D+06 0.33263965D+06 0.10812490D+01  1  2  2  2  6  2        1 0.155556832821D-02 0.100000000000D+01
0.328119733643D-03 0.000000000000D+00 -.992997622375D-05 0.564043529928D-05 0.000000000000D+00  6 2 1 25 2 1 21 2 0.12977142D+00 0.39255558D+00 0.33263965D+06 0.33263965D+06 0.33263965D+06 0.10812490D+01  1  2  3  2  6  2        1 0.230773351429D-03 0.100000000000D+01
-.164053308936D-02 0.000000000000D+00 0.000000000000D+00 0.564043529928D-05 0.000000000000D+00  6 2 1 25 2 1 21 2 0.12977142D+00 0.39255558D+00 0.33263965D+06 0.33263965D+06 0.33263965D+06 0.10812490D+01  1  2 15  2  6  2        1 -.115382063419D-02 0.100000000000D+01
-.966756601393D-04 0.000000000000D+00 0.000000000000D+00 0.564043529928D-05 0.000000000000D+00  6 2 1 25 2 1 21 2 0.12977142D+00 0.39255558D+00 0.33263965D+06 0.33263965D+06 0.33263965D+06 0.10812490D+01  1  2  4  2  6  2        1 -.679939784307D-04 0.100000000000D+01
-.110095776420D-01 0.000000000000D+00 -.376429672343D-02 0.564043529928D-05 0.000000000000D+00  6 2 1 25 2 1 21 2 0.12977142D+00 0.43711379D+00 0.33263965D+06 0.33263965D+06 0.33263965D+06 0.10812490D+01  1  2  5  2  6  2        1 -.481682298497D-02 0.100000000000D+01
0.113701696616D-01 0.000000000000D+00 0.374264420713D-02 0.564043529928D-05 0.000000000000D+00  6 2 1 25 2 1 21 2 0.12977142D+00 0.39255558D+00 0.33263965D+06 0.33263965D+06 0.33263965D+06 0.10812490D+01  1  2  6  2  6  2        1 0.799687397643D-02 0.100000000000D+01
-.176102332006D-03 0.000000000000D+00 -.650697952513D-04 0.564043529928D-05 0.000000000000D+00  6 2 21 25 2 1 -1 2 0.12977142D+00 0.43711379D+00 0.33263965D+06 0.33263965D+06 0.33263965D+06 0.10812490D+01  1  2  5  6  6  2        1 -.195702406726D-04 0.100000000000D+01
  </mgrwgt>
  </event>
  <event>
  5     66 0.18337608E-05 0.67770371E+02 0.75467711E-02 0.95244143E-01
        2 -1    0    0  501    0 0.00000000E+00 0.00000000E+00 0.11493396E+04 0.11493396E+04 0.32000000E+00 0.0000E+00 0.9000E+01
        1 -1    0    0  502    0 0.00000000E+00 0.00000000E+00 -.15591682E+04 0.15591682E+04 0.32000000E+00 0.0000E+00 0.9000E+01
       25  1    1    2    0    0 0.45093215E+03 -.10760973E+03 -.65796485E+03 0.81453202E+03 0.12500000E+03 0.0000E+00 0.9000E+01
        2  1    1    2  501    0 -.66615965E+02 0.12461815E+02 0.10222482E+04 0.10244923E+04 0.32000000E+00 0.0000E+00 0.9000E+01
        1  1    1    2  502    0 -.38431618E+03 0.95147918E+02 -.77411200E+03 0.86948349E+03 0.32000000E+00 0.0000E+00 0.9000E+01
#aMCatNLO 1  0  0  1  4 0.23539386D+01 0.00000000D+00  -5  6  0 0.00000000D+00 0.00000000D+00 0.00000000D+00 0.00000000D+00 0.00000000D+00
  <mgrwgt>
 0.1378974585D+00   13    2    0
 0.133866118639449D+04 0.000000000000000D+00 0.000000000000000D+00 0.133866118639449D+04
 0.133866118639449D+04 0.000000000000000D+00 0.000000000000000D+00 -.133866118639449D+04
 0.723304299054151D+03 0.450961916648836D+03 -.107617037984545D+03 -.540921465554898D+03
 0.119288441135061D+04 -.666148016148012D+02 0.124615973690693D+02 0.119095776400346D+04
 0.761133662384224D+03 -.384347115034035D+03 0.951554406154757D+02 -.650036298448564D+03
 0.000000000000000D+00 0.000000000000000D+00 0.000000000000000D+00 0.000000000000000D+00
 0.150557337392017D+04 0.000000000000000D+00 0.000000000000000D+00 0.150557337392017D+04
 0.133867000313819D+04 0.000000000000000D+00 0.000000000000000D+00 -.133867000313819D+04
 0.722940037120715D+03 0.450342831353158D+03 -.107761772548824D+03 -.540921465554898D+03
 0.119293940901516D+04 -.676360871668506D+02 0.122228333079424D+02 0.119095776400346D+04
 0.761443961460461D+03 -.384998875870620D+03 0.950030669096945D+02 -.650036298448564D+03
 0.166919969462019D+03 0.229213168431345D+01 0.535872331186916D+00 0.166903370781982D+03
0.727440415642D-04 0.000000000000D+00 0.000000000000D+00 0.524234788817D-04 0.000000000000D+00  6 2 1 25 2 1 21 0 0.17682148D+00 0.23987204D+00 0.22273761D+06 0.22273761D+06 0.22273761D+06 0.10942518D+01  1  2  2  1  6  1        2 0.134918193092D-03 0.100000000000D+01
0.261691103339D-04 0.000000000000D+00 -.279356273553D-06 0.524234788817D-04 0.000000000000D+00  6 2 1 25 2 1 21 2 0.17682148D+00 0.23987204D+00 0.22273761D+06 0.22273761D+06 0.22273761D+06 0.10942518D+01  1  2  3  1  6  1        2 0.581161146439D-04 0.100000000000D+01
-.441646474403D-04 0.000000000000D+00 0.000000000000D+00 0.524234788817D-04 0.000000000000D+00  6 2 1 25 2 1 21 2 0.17682148D+00 0.23987204D+00 0.22273761D+06 0.22273761D+06 0.22273761D+06 0.10942518D+01  1  2 15  1  6  1        2 -.980804345695D-04 0.100000000000D+01
0.404003146639D-02 0.000000000000D+00 0.000000000000D+00 0.524234788817D-04 0.000000000000D+00  6 2 1 25 2 1 21 2 0.19972154D+00 0.23987204D+00 0.22432737D+06 0.22432737D+06 0.22432737D+06 0.10940170D+01  1  2 12  1  6  1        2 0.736350952644D-02 0.100000000000D+01
0.409604573460D-09 0.000000000000D+00 0.000000000000D+00 0.524234788817D-04 0.000000000000D+00  6 2 1 25 2 1 21 2 0.19886971D+00 0.23987204D+00 0.22432737D+06 0.22432737D+06 0.22432737D+06 0.10940170D+01  1  2 12  1  6  1        2 0.751949488914D-09 0.100000000000D+01
-.774468520913D+00 0.000000000000D+00 0.000000000000D+00 0.524234788817D-04 0.000000000000D+00  6 2 1 25 2 1 21 2 0.17682148D+00 0.23987204D+00 0.22273761D+06 0.22273761D+06 0.22273761D+06 0.10942518D+01  1  2  4  1  6  1        2 -.171993242319D+01 0.100000000000D+01
-.122297362521D+01 0.000000000000D+00 -.136752533474D-03 0.524234788817D-04 0.000000000000D+00  6 2 1 25 2 1 21 2 0.19886912D+00 0.23987204D+00 0.22273761D+06 0.22273761D+06 0.22273761D+06 0.10942518D+01  1  2  5  1  6  1        2 -.224724937152D+01 0.100000000000D+01
0.121459557754D+01 0.000000000000D+00 0.135813813994D-03 0.524234788817D-04 0.000000000000D+00  6 2 1 25 2 1 21 2 0.17682148D+00 0.23987204D+00 0.22273761D+06 0.22273761D+06 0.22273761D+06 0.10942518D+01  1  2  6  1  6  1        2 0.269736246016D+01 0.100000000000D+01
0.763214980890D+00 0.000000000000D+00 0.000000000000D+00 0.524234788817D-04 0.385115679466D-04  6 2 1 25 2 1 21 2 0.19886862D+00 0.23987362D+00 0.22432737D+06 0.22432737D+06 0.22432737D+06 0.10940170D+01  1  2 11  1  6  1        2 0.140109607089D+01 0.100000000000D+01
0.776102795704D-04 0.000000000000D+00 0.000000000000D+00 0.524234788817D-04 0.000000000000D+00  6 21 1 25 2 1 -2 2 0.19972154D+00 0.23987204D+00 0.22432737D+06 0.22432737D+06 0.22432737D+06 0.10940170D+01  1  2 12  5  6  1        2 0.648503899112D-04 0.100000000000D+01
0.763566044014D-11 0.000000000000D+00 0.000000000000D+00 0.524234788817D-04 0.000000000000D+00  6 21 1 25 2 1 -2 2 0.19886971D+00 0.23987204D+00 0.22432737D+06 0.22432737D+06 0.22432737D+06 0.10940170D+01  1  2 12  5  6  1        2 0.647389312918D-11 0.100000000000D+01
-.227970116534D-01 0.000000000000D+00 -.254922285090D-05 0.524234788817D-04 0.000000000000D+00  6 21 1 25 2 1 -2 2 0.19886912D+00 0.23987204D+00 0.22273761D+06 0.22273761D+06 0.22273761D+06 0.10942518D+01  1  2  5  5  6  1        2 -.193531436506D-01 0.100000000000D+01
0.217615165030D-01 0.000000000000D+00 0.000000000000D+00 0.524234788817D-04 0.108674009844D-05  6 21 1 25 2 1 -2 2 0.19886862D+00 0.23987362D+00 0.22432737D+06 0.22432737D+06 0.22432737D+06 0.10940170D+01  1  2 11  5  6  1        2 0.184505512719D-01 0.100000000000D+01
  </mgrwgt>
  </event>
  <event>
  5     66 0.18337608E-05 0.20720257E+03 0.75467711E-02 0.94164252E-01
        2 -1    0    0  501    0 0.00000000E+00 0.00000000E+00 0.13014421E+04 0.13014421E+04 0.32000000E+00 0.0000E+00 0.9000E+01
        1 -1    0    0  502    0 0.00000000E+00 0.00000000E+00 -.58701115E+03 0.58701124E+03 0.32000000E+00 0.0000E+00 0.9000E+01
       25  1    1    2    0    0 -.41603338E+03 0.25579073E+03 0.35297176E+03 0.61540778E+03 0.12500000E+03 0.0000E+00 0.9000E+01
        2  1    1    2  501    0 0.32276211E+03 -.70808787E+02 0.75731020E+03 0.82626153E+03 0.32000000E+00 0.0000E+00 0.9000E+01
        1  1    1    2  502    0 0.93271263E+02 -.18498194E+03 -.39585103E+03 0.44678405E+03 0.32000000E+00 0.0000E+00 0.9000E+01
#aMCatNLO 1  0  0  4  1 0.46390519D+01 0.00000000D+00  -5  6  0 0.00000000D+00 0.00000000D+00 0.00000000D+00 0.00000000D+00 0.00000000D+00
  <mgrwgt>
 0.1644104958D-02    9    2    0
 0.874048701462538D+03 0.000000000000000D+00 0.000000000000000D+00 0.874048701462538D+03
 0.874048701462538D+03 -.000000000000000D+00 -.000000000000000D+00 -.874048701462538D+03
 0.520582828764702D+03 -.416003461751006D+03 0.255810447502470D+03 0.129936970737451D+03
 0.583006982094020D+03 0.322712280147294D+03 -.707978545519407D+02 0.480355690299755D+03
 0.644507592066353D+03 0.932911816037122D+02 -.185012592950529D+03 -.610292661037206D+03
 0.000000000000000D+00 0.000000000000000D+00 -.000000000000000D+00 0.000000000000000D+00
 0.874048701462538D+03 0.000000000000000D+00 0.000000000000000D+00 0.874048701462538D+03
 0.874048701462538D+03 -.000000000000000D+00 -.000000000000000D+00 -.874048701462538D+03
 0.520574880167930D+03 -.415988614138534D+03 0.255807190176446D+03 0.129959071337822D+03
 0.415290923799911D+03 0.227908960746539D+03 -.466573189502790D+02 0.344016208325114D+03
 0.644485502058117D+03 0.933095635162472D+02 -.185016625644821D+03 -.610265299648043D+03
 0.167746096899116D+03 0.947700898757471D+02 -.241332455813463D+02 0.136290019985107D+03
0.228904061291D-05 0.000000000000D+00 0.000000000000D+00 0.881149689914D-06 0.000000000000D+00  6 2 1 25 2 1 21 0 0.20022187D+00 0.90309418D-01 0.27128240D+06 0.27128240D+06 0.27128240D+06 0.10877998D+01  1  2  2  3  6  4        2 0.196577961413D-04 0.100000000000D+01
0.212978395992D-06 0.000000000000D+00 -.879051867182D-08 0.881149689914D-06 0.000000000000D+00  6 2 1 25 2 1 21 2 0.20022187D+00 0.90309418D-01 0.27128240D+06 0.27128240D+06 0.27128240D+06 0.10877998D+01  1  2  3  3  6  4        2 0.216428704499D-05 0.100000000000D+01
-.149002373687D-05 0.000000000000D+00 0.000000000000D+00 0.881149689914D-06 0.000000000000D+00  6 2 1 25 2 1 21 2 0.20022187D+00 0.90309418D-01 0.27128240D+06 0.27128240D+06 0.27128240D+06 0.10877998D+01  1  2 15  3  6  4        2 -.151416253063D-04 0.100000000000D+01
0.645011809080D-03 0.000000000000D+00 0.000000000000D+00 0.881149689914D-06 0.000000000000D+00  6 2 1 25 2 1 21 2 0.20022187D+00 0.90309418D-01 0.27130395D+06 0.27130395D+06 0.27130395D+06 0.10877973D+01  1  2 12  3  6  4        2 0.655455623778D-02 0.100000000000D+01
0.208323629828D-07 0.000000000000D+00 0.000000000000D+00 0.881149689914D-06 0.000000000000D+00  6 2 1 25 2 1 21 2 0.20022187D+00 0.90309418D-01 0.27130395D+06 0.27130395D+06 0.27130395D+06 0.10877973D+01  1  2 12  3  6  4        2 0.211696736113D-06 0.100000000000D+01
-.299055372824D-02 0.000000000000D+00 0.000000000000D+00 0.881149689914D-06 0.000000000000D+00  6 2 1 25 2 1 21 2 0.20022187D+00 0.90309418D-01 0.27128240D+06 0.27128240D+06 0.27128240D+06 0.10877998D+01  1  2  4  3  6  4        2 -.303900151996D-01 0.100000000000D+01
-.246216058788D-02 0.000000000000D+00 0.000000000000D+00 0.881149689914D-06 0.000000000000D+00  6 2 1 25 2 1 21 2 0.20022187D+00 0.90309418D-01 0.27128240D+06 0.27128240D+06 0.27128240D+06 0.10877998D+01  1  2  5  3  6  4        2 -.250204826561D-01 0.100000000000D+01
0.326690633811D-02 0.000000000000D+00 -.000000000000D+00 0.881149689914D-06 0.000000000000D+00  6 2 1 25 2 1 21 2 0.20022187D+00 0.90309418D-01 0.27128240D+06 0.27128240D+06 0.27128240D+06 0.10877998D+01  1  2  6  3  6  4        2 0.331983111800D-01 0.100000000000D+01
0.170192728880D-02 0.000000000000D+00 0.000000000000D+00 0.881149689914D-06 0.129941917306D-06  6 2 1 25 2 1 21 2 0.20022187D+00 0.90309418D-01 0.27130395D+06 0.27130395D+06 0.27130395D+06 0.10877973D+01  1  2 11  3  6  4        2 0.172948432416D-01 0.100000000000D+01
  </mgrwgt>
  </event>
  <event>
  5     66 0.18337608E-05 0.10760368E+02 0.75467711E-02 0.84992635E-01
        2 -1    0    0  501    0 0.00000000E+00 0.00000000E+00 0.82626208E+03 0.82626214E+03 0.32000000E+00 0.0000E+00 0.9000E+01
        1 -1    0    0  502    0 0.00000000E+00 0.00000000E+00 -.49970084E+03 0.49970094E+03 0.32000000E+00 0.0000E+00 0.9000E+01
       25  1    1    2    0    0 -.41150608E+03 -.24312764E+03 0.10523612E+03 0.50512171E+03 0.12500000E+03 0.0000E+00 0.9000E+01
        2  1    1    2  501    0 -.50870364E+00 0.10755644E+02 0.33433116E+03 0.33450467E+03 0.32000000E+00 0.0000E+00 0.9000E+01
        1  1    1    2  502    0 0.41201478E+03 0.23237200E+03 -.11300604E+03 0.48633671E+03 0.32000000E+00 0.0000E+00 0.9000E+01
#aMCatNLO 1  0  0  2  4 0.80475079D+03 0.00000000D+00  -5  6  0 0.00000000D+00 0.00000000D+00 0.00000000D+00 0.00000000D+00 0.00000000D+00
  <mgrwgt>
 0.1115451596D-01    5    2    0
 0.642560472723496D+03 0.000000000000000D+00 0.000000000000000D+00 0.642560472723496D+03
 0.642560472723496D+03 0.000000000000000D+00 0.000000000000000D+00 -.642560472723496D+03
 0.494536195637255D+03 -.411604453938685D+03 -.243179449975217D+03 -.196615717316076D+02
 0.260002242416169D+03 -.508358800681995D+00 0.107483532490729D+02 0.259779484438627D+03
 0.530582507393569D+03 0.412112812739367D+03 0.232431096726144D+03 -.240117912707020D+03
 0.000000000000000D+00 -.000000000000000D+00 0.000000000000000D+00 -.000000000000000D+00
 0.116337201192137D+04 0.000000000000000D+00 0.000000000000000D+00 0.116337201192137D+04
 0.172671017231221D+04 0.000000000000000D+00 0.000000000000000D+00 -.172671017231221D+04
 0.692475601991408D+03 -.237962701245072D+03 -.637875093389415D+03 -.196615717316076D+02
 0.330650125104415D+03 0.858950893653750D+02 -.185650635116825D+03 0.259779484438627D+03
 0.652736822063349D+03 0.585214413560532D+03 -.161036756784242D+03 -.240117912707020D+03
 0.121421963507441D+04 -.433146801680835D+03 0.984562485290482D+03 -.563338160390835D+03
0.395302341413D-03 0.000000000000D+00 0.000000000000D+00 0.226195893486D-05 0.000000000000D+00  6 2 1 25 2 1 21 0 0.12711726D+00 0.76877064D-01 0.23914314D+06 0.23914314D+06 0.23914314D+06 0.10919127D+01  1  2  2  2  6  2        1 0.836308022333D-02 0.100000000000D+01
0.340615670411D-03 0.000000000000D+00 -.151806507652D-05 0.226195893486D-05 0.000000000000D+00  6 2 1 25 2 1 21 2 0.12711726D+00 0.76877064D-01 0.23914314D+06 0.23914314D+06 0.23914314D+06 0.10919127D+01  1  2  3  2  6  2        1 0.859166441578D-02 0.100000000000D+01
-.253062501128D-03 0.000000000000D+00 0.000000000000D+00 0.226195893486D-05 0.000000000000D+00  6 2 1 25 2 1 21 2 0.12711726D+00 0.76877064D-01 0.23914314D+06 0.23914314D+06 0.23914314D+06 0.10919127D+01  1  2 15  2  6  2        1 -.638322976535D-02 0.100000000000D+01
0.268278638764D-03 0.000000000000D+00 -.246578392658D-03 0.226195893486D-05 0.000000000000D+00  6 2 1 25 2 1 21 2 0.12711726D+00 0.29721152D+00 0.23914314D+06 0.23914314D+06 0.23914314D+06 0.10919127D+01  1  2  5  2  6  2        1 0.532391459614D-03 0.100000000000D+01
0.473327137950D-04 0.000000000000D+00 -.396097729512D-04 0.226195893486D-05 0.000000000000D+00  6 2 21 25 2 1 -1 2 0.12711726D+00 0.29721152D+00 0.23914314D+06 0.23914314D+06 0.23914314D+06 0.10919127D+01  1  2  5  6  6  2        1 0.506096270307D-04 0.100000000000D+01
  </mgrwgt>
  </event>
  <event>
  6     66 0.18337608E-05 0.17741895E+02 0.75467711E-02 0.90020682E-01
        2 -1    0    0  501    0 0.00000000E+00 0.00000000E+00 0.14447919E+04 0.14447920E+04 0.32000000E+00 0.0000E+00 0.9000E+01
        1 -1    0    0  502    0 0.00000000E+00 0.00000000E+00 -.64852087E+03 0.64852095E+03 0.32000000E+00 0.0000E+00 0.9000E+01
       25  1    1    2    0    0 -.37821921E+03 0.62392009E+03 0.41527556E+03 0.84876665E+03 0.12500000E+03 0.0000E+00 0.9000E+01
        2  1    1    2  503    0 -.10603912E+02 -.11445937E+02 0.10148028E+03 0.10267328E+03 0.32000000E+00 0.0000E+00 0.9000E+01
        1  1    1    2  502    0 0.40285151E+03 -.63382858E+03 -.10340254E+03 0.75810302E+03 0.32000000E+00 0.0000E+00 0.9000E+01
       21  1    1    2  501  503 -.14028391E+02 0.21354428E+02 0.38291775E+03 0.38376995E+03 0.75000000E+00 0.0000E+00 0.9000E+01
#aMCatNLO 2  0  0  4  2 0.14427035D+02 0.00000000D+00  -5  6  0 0.00000000D+00 0.00000000D+00 0.00000000D+00 0.00000000D+00 0.00000000D+00
  <mgrwgt>
 0.7837677396D-02    2    2    0
 0.967976152773601D+03 0.000000000000000D+00 0.000000000000000D+00 0.967976152773601D+03
 0.967976152773601D+03 -.000000000000000D+00 -.000000000000000D+00 -.967976152773601D+03
 0.747290937971098D+03 -.378415016384517D+03 0.624259902351787D+03 0.996011830460156D+02
 0.325714546935891D+03 -.247031072367055D+02 0.993697324310831D+01 0.324624366216201D+03
 0.862946820640213D+03 0.403118123621223D+03 -.634196875594896D+03 -.424225549262217D+03
 0.000000000000000D+00 0.000000000000000D+00 0.000000000000000D+00 0.000000000000000D+00
 0.967976152773601D+03 0.000000000000000D+00 0.000000000000000D+00 0.967976152773601D+03
 0.967976152773601D+03 -.000000000000000D+00 -.000000000000000D+00 -.967976152773601D+03
 0.747438607231835D+03 -.378471807054702D+03 0.624282746739932D+03 0.100347471160264D+03
 0.686041373178860D+02 -.104980187726592D+02 -.113275857309289D+02 0.668431377217489D+02
 0.862473621913146D+03 0.403052568094072D+03 -.634170505490399D+03 -.423364081866666D+03
 0.257435939084336D+03 -.140827422667109D+02 0.212153444813959D+02 0.256173472984653D+03
-.845306344664D-07 0.000000000000D+00 0.000000000000D+00 0.151028047377D-05 0.000000000000D+00  6 2 1 25 2 1 21 2 0.22227569D+00 0.99772450D-01 0.58751800D+06 0.58751800D+06 0.58751800D+06 0.10635945D+01  1  2 13  3  6  4        2 -.566950121601D-06 0.100000000000D+01
0.116865971528D-02 0.000000000000D+00 0.000000000000D+00 0.151028047377D-05 0.245390586758D-08  6 2 1 25 2 1 21 2 0.22227569D+00 0.99772450D-01 0.58751800D+06 0.58751800D+06 0.58751800D+06 0.10635945D+01  1  2  1  3  6  4        2 0.783824434619D-02 0.100000000000D+01
  </mgrwgt>
  </event>
  <event>
  5     66 0.18337608E-05 0.91697154E+02 0.75467711E-02 0.91145318E-01
        2 -1    0    0  501    0 0.00000000E+00 0.00000000E+00 0.22722286E+04 0.22722286E+04 0.32000000E+00 0.0000E+00 0.9000E+01
        1 -1    0    0  502    0 0.00000000E+00 0.00000000E+00 -.86568936E+03 0.86568942E+03 0.32000000E+00 0.0000E+00 0.9000E+01
       25  1    1    2    0    0 -.50453712E+03 -.34912468E+03 0.44783335E+03 0.76982171E+03 0.12500000E+03 0.0000E+00 0.9000E+01
        2  1    1    2  501    0 0.45304846E+03 0.44863902E+03 0.15972442E+04 0.17198020E+04 0.32000000E+00 0.0000E+00 0.9000E+01
        1  1    1    2  502    0 0.51488666E+02 -.99514338E+02 -.63853833E+03 0.64829429E+03 0.32000000E+00 0.0000E+00 0.9000E+01
#aMCatNLO 1  0  0  4  1 0.99246818D+01 0.00000000D+00  -5  6  0 0.00000000D+00 0.00000000D+00 0.00000000D+00 0.00000000D+00 0.00000000D+00
  <mgrwgt>
 0.7709147167D-02    9    2    0
 0.140251354271639D+04 0.000000000000000D+00 0.000000000000000D+00 0.140251354271639D+04
 0.140251354271639D+04 -.000000000000000D+00 -.000000000000000D+00 -.140251354271639D+04
 0.636612308526555D+03 -.504521629990729D+03 -.349095096682732D+03 0.115068543534198D+03
 0.112293595240104D+04 0.453027562648753D+03 0.448618325913711D+03 0.924387785688316D+03
 0.104547882450518D+04 0.514940673419754D+02 -.995232292309791D+02 -.103945632922251D+04
 0.000000000000000D+00 0.000000000000000D+00 0.000000000000000D+00 0.000000000000000D+00
 0.140251354271639D+04 0.000000000000000D+00 0.000000000000000D+00 0.140251354271639D+04
 0.140251354271639D+04 -.000000000000000D+00 -.000000000000000D+00 -.140251354271639D+04
 0.636552452815294D+03 -.504459697432451D+03 -.349033766903034D+03 0.115194914874771D+03
 0.104462055969737D+04 0.413542028145422D+03 0.414375171245127D+03 0.865163754531697D+03
 0.104526792844198D+04 0.515957708284788D+02 -.994225156064306D+02 -.103924880661586D+04
 0.785861444781329D+02 0.393218984585493D+02 0.340811112643380D+02 0.588901372093947D+02
0.568331327159D-04 0.000000000000D+00 0.000000000000D+00 0.623675424174D-05 0.000000000000D+00  6 2 1 25 2 1 21 0 0.34957364D+00 0.13318298D+00 0.47317198D+06 0.47317198D+06 0.47317198D+06 0.10702072D+01  1  2  2  3  6  4        2 0.753352096315D-04 0.100000000000D+01
0.163003097660D-04 0.000000000000D+00 -.218254194137D-06 0.623675424174D-05 0.000000000000D+00  6 2 1 25 2 1 21 2 0.34957364D+00 0.13318298D+00 0.47317198D+06 0.47317198D+06 0.47317198D+06 0.10702072D+01  1  2  3  3  6  4        2 0.247473123881D-04 0.100000000000D+01
-.397611025517D-04 0.000000000000D+00 0.000000000000D+00 0.623675424174D-05 0.000000000000D+00  6 2 1 25 2 1 21 2 0.34957364D+00 0.13318298D+00 0.47317198D+06 0.47317198D+06 0.47317198D+06 0.10702072D+01  1  2 15  3  6  4        2 -.603657500912D-04 0.100000000000D+01
0.154355345601D-01 0.000000000000D+00 0.000000000000D+00 0.623675424174D-05 0.000000000000D+00  6 2 1 25 2 1 21 2 0.34957364D+00 0.13318298D+00 0.47301225D+06 0.47301225D+06 0.47301225D+06 0.10702177D+01  1  2 12  3  6  4        2 0.234354443628D-01 0.100000000000D+01
0.948103170562D-08 0.000000000000D+00 0.000000000000D+00 0.623675424174D-05 0.000000000000D+00  6 2 1 25 2 1 21 2 0.34957364D+00 0.13318298D+00 0.47301225D+06 0.47301225D+06 0.47301225D+06 0.10702177D+01  1  2 12  3  6  4        2 0.143948491175D-07 0.100000000000D+01
-.115203074536D-01 0.000000000000D+00 0.000000000000D+00 0.623675424174D-05 0.000000000000D+00  6 2 1 25 2 1 21 2 0.34957364D+00 0.13318298D+00 0.47317198D+06 0.47317198D+06 0.47317198D+06 0.10702072D+01  1  2  4  3  6  4        2 -.174902594769D-01 0.100000000000D+01
-.156810125336D-01 0.000000000000D+00 0.000000000000D+00 0.623675424174D-05 0.000000000000D+00  6 2 1 25 2 1 21 2 0.34957364D+00 0.13318298D+00 0.47317198D+06 0.47317198D+06 0.47317198D+06 0.10702072D+01  1  2  5  3  6  4        2 -.238070884113D-01 0.100000000000D+01
0.168167115958D-01 0.000000000000D+00 -.000000000000D+00 0.623675424174D-05 0.000000000000D+00  6 2 1 25 2 1 21 2 0.34957364D+00 0.13318298D+00 0.47317198D+06 0.47317198D+06 0.47317198D+06 0.10702072D+01  1  2  6  3  6  4        2 0.255313194152D-01 0.100000000000D+01
0.724163659865D-10 0.000000000000D+00 0.000000000000D+00 0.623675424174D-05 0.235342356871D-06  6 2 1 25 2 1 21 2 0.34957364D+00 0.13318298D+00 0.47301225D+06 0.47301225D+06 0.47301225D+06 0.10702177D+01  1  2 11  3  6  4        2 0.109948230781D-09 0.100000000000D+01
  </mgrwgt>
  </event>
  <event>
  6     66 0.18337608E-05 0.86203390E+02 0.75467711E-02 0.90684311E-01
        2 -1    0    0  501    0 0.00000000E+00 0.00000000E+00 0.45586948E+03 0.45586960E+03 0.32000000E+00 0.0000E+00 0.9000E+01
        1 -1    0    0  502    0 -.00000000E+00 -.00000000E+00 -.17611526E+04 0.17611526E+04 0.32000000E+00 0.0000E+00 0.9000E+01
       25  1    1    2    0    0 -.58850689E+03 -.32937180E+03 -.86288548E+03 0.11022806E+04 0.12500000E+03 0.0000E+00 0.9000E+01
        2  1    1    2  503    0 0.39686629E+03 0.29306316E+03 -.37216288E+02 0.49474642E+03 0.32000000E+00 0.0000E+00 0.9000E+01
        1  1    1    2  502    0 -.31123326E+02 -.57326937E+01 -.39161526E+03 0.39289202E+03 0.32000000E+00 0.0000E+00 0.9000E+01
       21  1    1    2  501  503 0.22276393E+03 0.42041342E+02 -.13566047E+02 0.22710316E+03 0.75000000E+00 0.0000E+00 0.9000E+01
#aMCatNLO 2  0  0  4  2 0.69240579D+02 0.00000000D+00  -5  6  0 0.00000000D+00 0.00000000D+00 0.00000000D+00 0.00000000D+00 0.00000000D+00
  <mgrwgt>
 0.2124730868D-02    1    2    0
 0.896022247102427D+03 0.000000000000000D+00 0.000000000000000D+00 0.896022247102427D+03
 0.896022247102427D+03 -.000000000000000D+00 -.000000000000000D+00 -.896022247102427D+03
 0.740322809581156D+03 -.592453169720845D+03 -.331510212013792D+03 -.267494081064292D+03
 0.849807988401648D+03 0.624672460228927D+03 0.337831412067228D+03 0.466720335536665D+03
 0.201913696222051D+03 -.322192905080818D+02 -.632120005343557D+01 -.199226254472373D+03
 0.000000000000000D+00 0.000000000000000D+00 0.000000000000000D+00 0.000000000000000D+00
 0.896022247102427D+03 0.000000000000000D+00 0.000000000000000D+00 0.896022247102427D+03
 0.896022247102427D+03 -.000000000000000D+00 -.000000000000000D+00 -.896022247102427D+03
 0.735102664637678D+03 -.588474541732763D+03 -.329358515569849D+03 -.264521472685026D+03
 0.584771567410369D+03 0.396710048820272D+03 0.293004677378604D+03 0.314208819498844D+03
 0.200924134638276D+03 -.311329991998964D+02 -.573371885340614D+01 -.198414638343721D+03
 0.271246127518531D+03 0.222897492112387D+03 0.420875570446504D+02 0.148727291529902D+03
0.443885798051D-03 0.000000000000D+00 0.000000000000D+00 0.811515891674D-06 0.529609925001D-09  6 2 1 25 2 1 21 2 0.70133778D-01 0.27094656D+00 0.51662829D+06 0.51662829D+06 0.51662829D+06 0.10675077D+01  1  2  1  3  6  4        2 0.212473086803D-02 0.100000000000D+01
  </mgrwgt>
  </event>
  <event>
  5     66 0.18337608E-05 0.18823788E+02 0.75467711E-02 0.94380143E-01
        2 -1    0    0  501    0 0.00000000E+00 0.00000000E+00 0.95849441E+03 0.95849446E+03 0.32000000E+00 0.0000E+00 0.9000E+01
        1 -1    0    0  502    0 0.00000000E+00 0.00000000E+00 -.56537025E+03 0.56537034E+03 0.32000000E+00 0.0000E+00 0.9000E+01
       25  1    1    2    0    0 0.44900489E+03 0.18874270E+03 -.14545677E+03 0.52346143E+03 0.12500000E+03 0.0000E+00 0.9000E+01
        2  1    1    2  501    0 -.45699973E+03 -.17169855E+03 0.69142558E+03 0.84640332E+03 0.32000000E+00 0.0000E+00 0.9000E+01
        1  1    1    2  502    0 0.79948414E+01 -.17044147E+02 -.15284467E+03 0.15400005E+03 0.32000000E+00 0.0000E+00 0.9000E+01
#aMCatNLO 1  0  0  1  2 0.10605722D+02 0.00000000D+00  -5  6  0 0.00000000D+00 0.00000000D+00 0.00000000D+00 0.00000000D+00 0.00000000D+00
  <mgrwgt>
 0.7956955694D-02    4    2    0
 0.736141517045261D+03 0.000000000000000D+00 0.000000000000000D+00 0.736141517045261D+03
 0.736141517045261D+03 0.000000000000000D+00 0.000000000000000D+00 -.736141517045261D+03
 0.580665285348572D+03 0.449011734819446D+03 0.188742880466265D+03 -.290364875073874D+03
 0.691443535781710D+03 -.457005367431713D+03 -.171700673289924D+03 0.489652056163052D+03
 0.200174212960241D+03 0.799363261226659D+01 -.170422071763403D+02 -.199287181089178D+03
 0.000000000000000D+00 -.000000000000000D+00 0.000000000000000D+00 -.000000000000000D+00
 0.736387896620817D+03 0.000000000000000D+00 0.000000000000000D+00 0.736387896620817D+03
 0.859886138868670D+03 0.000000000000000D+00 0.000000000000000D+00 -.859886138868670D+03
 0.579841644097095D+03 0.449663418805795D+03 0.184614141767199D+03 -.290364875073874D+03
 0.692169940978693D+03 -.456228397709928D+03 -.176623158766834D+03 0.489652056163052D+03
 0.200309648154387D+03 0.821852478004038D+01 -.184670097120089D+02 -.199287181089178D+03
 0.123952802259312D+03 -.165354587590772D+01 0.104760267116442D+02 -.123498242247853D+03
0.630491249774D-03 0.000000000000D+00 0.000000000000D+00 0.442699885341D-05 0.000000000000D+00  6 2 1 25 2 1 21 0 0.14746069D+00 0.86980050D-01 0.25496024D+06 0.25496024D+06 0.25496024D+06 0.10898178D+01  1  2  2  1  6  1        2 0.915428166777D-02 0.100000000000D+01
0.322303375300D-03 0.000000000000D+00 -.242125241129D-05 0.442699885341D-05 0.000000000000D+00  6 2 1 25 2 1 21 2 0.14746069D+00 0.86980050D-01 0.25496024D+06 0.25496024D+06 0.25496024D+06 0.10898178D+01  1  2  3  1  6  1        2 0.555799115063D-02 0.100000000000D+01
-.388518322035D-03 0.000000000000D+00 0.000000000000D+00 0.442699885341D-05 0.000000000000D+00  6 2 1 25 2 1 21 2 0.14746069D+00 0.86980050D-01 0.25496024D+06 0.25496024D+06 0.25496024D+06 0.10898178D+01  1  2 15  1  6  1        2 -.669984108519D-02 0.100000000000D+01
-.321701027253D-05 0.000000000000D+00 0.000000000000D+00 0.442699885341D-05 0.000000000000D+00  6 2 1 25 2 1 21 2 0.14746069D+00 0.86980050D-01 0.25496024D+06 0.25496024D+06 0.25496024D+06 0.10898178D+01  1  2  4  1  6  1        2 -.554760390256D-04 0.100000000000D+01
  </mgrwgt>
  </event>
  <event>
  5     66 0.18337608E-05 0.34370302E+03 0.75467711E-02 0.89143775E-01
        2 -1    0    0  501    0 0.00000000E+00 0.00000000E+00 0.26662830E+04 0.26662830E+04 0.32000000E+00 0.0000E+00 0.9000E+01
        1 -1    0    0  502    0 0.00000000E+00 0.00000000E+00 -.62527894E+03 0.62527902E+03 0.32000000E+00 0.0000E+00 0.9000E+01
       25  1    1    2    0    0 -.39343316E+03 -.35391427E+03 -.95987992E+02 0.55216271E+03 0.12500000E+03 0.0000E+00 0.9000E+01
        2  1    1    2  501    0 -.28757451E+03 0.26829175E+03 0.20015121E+04 0.20397868E+04 0.32000000E+00 0.0000E+00 0.9000E+01
        1  1    1    2  502    0 0.68100768E+03 0.85622524E+02 0.13547992E+03 0.69961245E+03 0.32000000E+00 0.0000E+00 0.9000E+01
#aMCatNLO 1  0  0  1  5 0.38653543D+02 0.00000000D+00  -5  6  0 0.00000000D+00 0.00000000D+00 0.00000000D+00 0.00000000D+00 0.00000000D+00
  <mgrwgt>
 0.7319071576D-03    9    2    0
 0.129118965871290D+04 0.000000000000000D+00 0.000000000000000D+00 0.129118965871290D+04
 0.129118965871290D+04 0.000000000000000D+00 0.000000000000000D+00 -.129118965871290D+04
 0.779707529298696D+03 -.393489899141182D+03 -.353935408400165D+03 -.558761359794634D+03
 0.101799486040623D+04 -.287559028171576D+03 0.268277303414180D+03 0.938962528327591D+03
 0.784676927720877D+03 0.681048927312758D+03 0.856581049859842D+02 -.380201168532957D+03
 0.000000000000000D+00 0.000000000000000D+00 -.000000000000000D+00 0.000000000000000D+00
 0.132040116209336D+04 0.000000000000000D+00 0.000000000000000D+00 0.132040116209336D+04
 0.130418480493444D+04 0.000000000000000D+00 0.000000000000000D+00 -.130418480493444D+04
 0.782758887864599D+03 -.403994365245881D+03 -.348799042689415D+03 -.558761359794634D+03
 0.102373956881769D+04 -.301285614465518D+03 0.274989188288968D+03 0.938962528327591D+03
 0.776170131327563D+03 0.670555348157207D+03 0.907891473084015D+02 -.380201168532957D+03
 0.419173790179493D+02 0.347246315541924D+02 -.169792929079546D+02 0.162163571589269D+02
0.122710335471D-03 0.000000000000D+00 0.000000000000D+00 0.127262222780D-07 0.000000000000D+00  6 2 1 25 2 1 21 0 0.41019738D+00 0.96196767D-01 0.65893551D+06 0.65893551D+06 0.65893551D+06 0.10601402D+01  1  2  2  1  6  1        2 0.155708443164D-03 0.100000000000D+01
0.382155620121D-05 0.000000000000D+00 -.471239998582D-06 0.127262222780D-07 0.000000000000D+00  6 2 1 25 2 1 21 2 0.41019738D+00 0.96196767D-01 0.65893551D+06 0.65893551D+06 0.65893551D+06 0.10601402D+01  1  2  3  1  6  1        2 0.545001681512D-05 0.100000000000D+01
-.751674904250D-04 0.000000000000D+00 0.000000000000D+00 0.127262222780D-07 0.000000000000D+00  6 2 1 25 2 1 21 2 0.41019738D+00 0.96196767D-01 0.65893551D+06 0.65893551D+06 0.65893551D+06 0.10601402D+01  1  2 15  1  6  1        2 -.107198236843D-03 0.100000000000D+01
0.146415986826D-06 0.000000000000D+00 0.000000000000D+00 0.127262222780D-07 0.000000000000D+00  6 2 1 25 2 1 21 2 0.42400815D+00 0.96196767D-01 0.69840723D+06 0.69840723D+06 0.69840723D+06 0.10584015D+01  1  2 12  1  6  1        2 0.182811643428D-06 0.100000000000D+01
-.226423034583D-04 0.000000000000D+00 0.000000000000D+00 0.127262222780D-07 0.000000000000D+00  6 2 1 25 2 1 21 2 0.41019738D+00 0.96196767D-01 0.65893551D+06 0.65893551D+06 0.65893551D+06 0.10601402D+01  1  2  4  1  6  1        2 -.322907548871D-04 0.100000000000D+01
-.520448776872D-02 0.000000000000D+00 -.712567228726D-03 0.127262222780D-07 0.000000000000D+00  6 2 1 25 2 1 21 2 0.42095181D+00 0.96196767D-01 0.65893551D+06 0.65893551D+06 0.65893551D+06 0.10601402D+01  1  2  5  1  6  1        2 -.673363499713D-02 0.100000000000D+01
0.522141881775D-02 0.000000000000D+00 0.712328667824D-03 0.127262222780D-07 0.000000000000D+00  6 2 1 25 2 1 21 2 0.41019738D+00 0.96196767D-01 0.65893551D+06 0.65893551D+06 0.65893551D+06 0.10601402D+01  1  2  6  1  6  1        2 0.744639588095D-02 0.100000000000D+01
0.482234557119D-08 0.000000000000D+00 0.000000000000D+00 0.127262222780D-07 0.000000000000D+00  6 21 1 25 2 1 -2 2 0.42400815D+00 0.96196767D-01 0.69840723D+06 0.69840723D+06 0.69840723D+06 0.10584015D+01  1  2 12  5  6  1        2 0.509183837151D-09 0.100000000000D+01
-.241290680556D-04 0.000000000000D+00 -.332732556821D-05 0.127262222780D-07 0.000000000000D+00  6 21 1 25 2 1 -2 2 0.42095181D+00 0.96196767D-01 0.65893551D+06 0.65893551D+06 0.65893551D+06 0.10601402D+01  1  2  5  5  6  1        2 -.270651531500D-05 0.100000000000D+01
  </mgrwgt>
  </event>
  <event>
  6     66 0.18337608E-05 0.11723816E+03 0.75467711E-02 0.92190580E-01
        2 -1    0    0  501    0 0.00000000E+00 0.00000000E+00 0.28511228E+04 0.28511228E+04 0.32000000E+00 0.0000E+00 0.9000E+01
        1 -1    0    0  502    0 0.00000000E+00 0.00000000E+00 -.45688274E+03 0.45688285E+03 0.32000000E+00 0.0000E+00 0.9000E+01
       25  1    1    2    0    0 0.35313831E+02 0.48884389E+03 0.10408028E+04 0.11571996E+04 0.12500000E+03 0.0000E+00 0.9000E+01
        2  1    1    2  503    0 -.12674633E+03 -.55012795E+03 0.14916869E+04 0.15949405E+04 0.32000000E+00 0.0000E+00 0.9000E+01
        1  1    1    2  502    0 0.80665605E+02 0.10460824E+03 -.33185417E+03 0.35717939E+03 0.32000000E+00 0.0000E+00 0.9000E+01
       21  1    1    2  501  503 0.10766891E+02 -.43324181E+02 0.19360449E+03 0.19868611E+03 0.75000000E+00 0.0000E+00 0.9000E+01
#aMCatNLO 2  0  0  4  1 0.31654697D+02 0.00000000D+00  -5  6  0 0.00000000D+00 0.00000000D+00 0.00000000D+00 0.00000000D+00 0.00000000D+00
  <mgrwgt>
 0.1175091857D-01    6    2    0
 0.114132773028046D+04 0.000000000000000D+00 0.000000000000000D+00 0.114132773028046D+04
 0.114132773028046D+04 -.000000000000000D+00 -.000000000000000D+00 -.114132773028046D+04
 0.585807473628270D+03 0.354844366746953D+02 0.489856966689420D+03 0.293813551590896D+03
 0.828891881743635D+03 -.116548990079917D+03 -.596366468692551D+03 0.563759806611852D+03
 0.867956105189013D+03 0.810645534052217D+02 0.106509502003130D+03 -.857573358202748D+03
 0.000000000000000D+00 0.000000000000000D+00 0.000000000000000D+00 0.000000000000000D+00
 0.114132773028046D+04 0.000000000000000D+00 0.000000000000000D+00 0.114132773028046D+04
 0.114132773028046D+04 -.000000000000000D+00 -.000000000000000D+00 -.114132773028046D+04
 0.585340236008729D+03 0.352389667445630D+02 0.488600928045904D+03 0.295000915636226D+03
 0.746479734403847D+03 -.126715175461226D+03 -.549925301696965D+03 0.488628100641961D+03
 0.865958620829163D+03 0.807011287721470D+02 0.104649904035666D+03 -.855815434768837D+03
 0.848768693191803D+02 0.107750799445161D+02 -.433255303846048D+02 0.721864184906495D+02
-.765804096151D-02 0.000000000000D+00 0.000000000000D+00 0.127392602934D-05 0.000000000000D+00  6 2 1 25 2 1 21 2 0.43863428D+00 0.70289662D-01 0.38856520D+06 0.38856520D+06 0.38856520D+06 0.10763368D+01  1  2 13  3  6  4        2 -.141677179677D-01 0.100000000000D+01
-.687901284502D-07 0.000000000000D+00 0.000000000000D+00 0.127392602934D-05 0.000000000000D+00  6 2 1 25 2 1 21 2 0.43863428D+00 0.70289662D-01 0.38856520D+06 0.38856520D+06 0.38856520D+06 0.10763368D+01  1  2 13  3  6  4        2 -.127264811424D-06 0.100000000000D+01
-.184410544401D-02 0.000000000000D+00 0.000000000000D+00 0.127392602934D-05 0.000000000000D+00  6 2 1 25 2 1 21 2 0.43863428D+00 0.70289662D-01 0.38956067D+06 0.38956067D+06 0.38956067D+06 0.10762565D+01  1  2  8  3  6  4        2 -.341051357562D-02 0.100000000000D+01
-.150170127481D-04 0.000000000000D+00 0.000000000000D+00 0.127392602934D-05 0.000000000000D+00  6 2 1 25 2 1 21 2 0.43863428D+00 0.70289662D-01 0.38956067D+06 0.38956067D+06 0.38956067D+06 0.10762565D+01  1  2  9  3  6  4        2 -.277726666927D-04 0.100000000000D+01
0.166329969396D-04 0.000000000000D+00 0.000000000000D+00 0.127392602934D-05 0.000000000000D+00  6 2 1 25 2 1 21 2 0.43863428D+00 0.70289662D-01 0.38956067D+06 0.38956067D+06 0.38956067D+06 0.10762565D+01  1  2 10  3  6  4        2 0.307612897353D-04 0.100000000000D+01
0.158516651057D-01 0.000000000000D+00 0.000000000000D+00 0.127392602934D-05 0.135568333352D-07  6 2 1 25 2 1 21 2 0.43863428D+00 0.70289662D-01 0.38856520D+06 0.38856520D+06 0.38856520D+06 0.10763368D+01  1  2  1  3  6  4        2 0.293262887552D-01 0.100000000000D+01
  </mgrwgt>
  </event>
  <event>
  6     66 -.18337608E-05 0.73564734E+02 0.75467711E-02 0.94948227E-01
        2 -1    0    0  501    0 0.00000000E+00 0.00000000E+00 0.33747951E+04 0.33747951E+04 0.32000000E+00 0.0000E+00 0.9000E+01
        1 -1    0    0  502    0 0.00000000E+00 0.00000000E+00 -.43573246E+03 0.43573258E+03 0.32000000E+00 0.0000E+00 0.9000E+01
       25  1    1    2    0    0 0.26044796E+03 -.37962246E+03 0.90876168E+02 0.48562313E+03 0.12500000E+03 0.0000E+00 0.9000E+01
        2  1    1    2  501    0 -.18127849E+03 0.37279070E+03 0.30652455E+04 0.30931481E+04 0.32000000E+00 0.0000E+00 0.9000E+01
        1  1    1    2  503    0 -.53967714E+02 -.13737066E+01 -.15938071E+03 0.16827571E+03 0.32000000E+00 0.0000E+00 0.9000E+01
       21  1    1    2  502  503 -.25201762E+02 0.82054608E+01 -.57678324E+02 0.63480784E+02 0.75000000E+00 0.0000E+00 0.9000E+01
#aMCatNLO 2  0  0  5  2 0.74375393D+01 0.00000000D+00  -5  6  0 0.00000000D+00 0.00000000D+00 0.00000000D+00 0.00000000D+00 0.00000000D+00
  <mgrwgt>
 -.1654370994D-01    3    2    0
 0.121264505625133D+04 0.000000000000000D+00 0.000000000000000D+00 0.121264505625133D+04
 0.121264505625133D+04 -.000000000000000D+00 -.000000000000000D+00 -.121264505625133D+04
 0.652964007477100D+03 0.260437913118831D+03 -.379631476246159D+03 -.445857635029417D+03
 0.114538668164953D+04 -.181270754688843D+03 0.372801116613658D+03 0.106774102264841D+04
 0.626939423376027D+03 -.791671584299869D+02 0.683035963250120D+01 -.621883387618995D+03
 0.000000000000000D+00 0.000000000000000D+00 0.000000000000000D+00 0.000000000000000D+00
 0.121264505625133D+04 0.000000000000000D+00 0.000000000000000D+00 0.121264505625133D+04
 0.121264505625133D+04 -.000000000000000D+00 -.000000000000000D+00 -.121264505625133D+04
 0.653001390282782D+03 0.260430307237744D+03 -.379630820028301D+03 -.445917381661603D+03
 0.114529147639221D+04 -.181284095490757D+03 0.372802267627243D+03 0.106763622637617D+04
 0.457482159113653D+03 -.539555226075022D+02 -.138253384281348D+01 -.454287151576637D+03
 0.169515086714011D+03 -.251906891394843D+02 0.821108624387125D+01 -.167431693137925D+03
-.483573779363D-01 0.000000000000D+00 0.000000000000D+00 0.367573904348D-04 0.000000000000D+00  6 2 1 25 2 1 21 2 0.51919926D+00 0.67035773D-01 0.23622139D+06 0.23622139D+06 0.23622139D+06 0.10923162D+01  1  2 13  4  6  5        1 -.467986638193D-01 0.100000000000D+01
-.104614140317D-07 0.000000000000D+00 0.000000000000D+00 0.367573904348D-04 0.000000000000D+00  6 2 1 25 2 1 21 2 0.51919926D+00 0.67035773D-01 0.23622139D+06 0.23622139D+06 0.23622139D+06 0.10923162D+01  1  2 13  4  6  5        1 -.101242089467D-07 0.100000000000D+01
0.312626602864D-01 0.000000000000D+00 0.000000000000D+00 0.367573904348D-04 0.147642568377D-05  6 2 1 25 2 1 21 2 0.51919926D+00 0.67035773D-01 0.23622139D+06 0.23622139D+06 0.23622139D+06 0.10923162D+01  1  2  1  4  6  5        1 0.302549640050D-01 0.100000000000D+01
  </mgrwgt>
  </event>
  <event>
  6     66 -.18337608E-05 0.60584147E+02 0.75467711E-02 0.90405409E-01
        2 -1    0    0  501    0 0.00000000E+00 0.00000000E+00 0.87271655E+03 0.87271661E+03 0.32000000E+00 0.0000E+00 0.9000E+01
        1 -1    0    0  502    0 -.00000000E+00 -.00000000E+00 -.10146008E+04 0.10146008E+04 0.32000000E+00 0.0000E+00 0.9000E+01
       25  1    1    2    0    0 0.33132804E+03 0.62364925E+03 0.36240771E+02 0.71809125E+03 0.12500000E+03 0.0000E+00 0.9000E+01
        2  1    1    2  501    0 -.62757855E+02 0.16748315E+02 0.31206393E+03 0.31875234E+03 0.32000000E+00 0.0000E+00 0.9000E+01
        1  1    1    2  503    0 -.24463881E+03 -.58380647E+03 -.45618008E+03 0.78024260E+03 0.32000000E+00 0.0000E+00 0.9000E+01
       21  1    1    2  502  503 -.23931376E+02 -.56591089E+02 -.34008823E+02 0.70231223E+02 0.75000000E+00 0.0000E+00 0.9000E+01
#aMCatNLO 2  0  0  5  2 0.76862095D+01 0.00000000D+00  -5  6  0 0.00000000D+00 0.00000000D+00 0.00000000D+00 0.00000000D+00 0.00000000D+00
  <mgrwgt>
 -.5725962806D-02    6    2    0
 0.940988296390460D+03 0.000000000000000D+00 0.000000000000000D+00 0.940988296390460D+03
 0.940988296390460D+03 -.000000000000000D+00 -.000000000000000D+00 -.940988296390460D+03
 0.723138527397308D+03 0.331410150724933D+03 0.623894944817764D+03 0.907013761398497D+02
 0.343050059728895D+03 -.626968524961044D+02 0.168081864283366D+02 0.336852984306315D+03
 0.815788005654718D+03 -.268713298228828D+03 -.640703131246101D+03 -.427554360446164D+03
 0.000000000000000D+00 -.000000000000000D+00 0.000000000000000D+00 0.000000000000000D+00
 0.940988296390460D+03 0.000000000000000D+00 0.000000000000000D+00 0.940988296390460D+03
 0.940988296390460D+03 -.000000000000000D+00 -.000000000000000D+00 -.940988296390460D+03
 0.722974041383243D+03 0.331349564262288D+03 0.623750486256972D+03 0.906049759748457D+02
 0.343007055934234D+03 -.627255956069161D+02 0.167396531580436D+02 0.336807250647276D+03
 0.748523076802280D+03 -.244817485005838D+03 -.584200630165803D+03 -.398824296219333D+03
 0.674724186611638D+02 -.238064836495332D+02 -.562895092492126D+02 -.285879304027886D+02
-.472767918075D-02 0.000000000000D+00 0.000000000000D+00 0.506178447089D-06 0.000000000000D+00  6 2 1 25 2 1 21 2 0.13426409D+00 0.15609243D+00 0.54518712D+06 0.54518712D+06 0.54518712D+06 0.10658648D+01  1  2 13  4  6  5        1 -.339983075402D-01 0.100000000000D+01
-.381127656975D-06 0.000000000000D+00 0.000000000000D+00 0.506178447089D-06 0.000000000000D+00  6 2 1 25 2 1 21 2 0.13426409D+00 0.15609243D+00 0.54518712D+06 0.54518712D+06 0.54518712D+06 0.10658648D+01  1  2 13  4  6  5        1 -.274081527078D-05 0.100000000000D+01
-.649788916922D-03 0.000000000000D+00 0.000000000000D+00 0.506178447089D-06 0.000000000000D+00  6 2 1 25 2 1 21 2 0.13426409D+00 0.15609243D+00 0.54546347D+06 0.54546347D+06 0.54546347D+06 0.10658494D+01  1  2  8  4  6  5        1 -.467260008228D-02 0.100000000000D+01
-.738381437213D-03 0.000000000000D+00 0.000000000000D+00 0.506178447089D-06 0.000000000000D+00  6 2 1 25 2 1 21 2 0.13426409D+00 0.15609243D+00 0.54546347D+06 0.54546347D+06 0.54546347D+06 0.10658494D+01  1  2  9  4  6  5        1 -.530966453017D-02 0.100000000000D+01
0.801967817904D-03 0.000000000000D+00 0.000000000000D+00 0.506178447089D-06 0.000000000000D+00  6 2 1 25 2 1 21 2 0.13426409D+00 0.15609243D+00 0.54546347D+06 0.54546347D+06 0.54546347D+06 0.10658494D+01  1  2 10  4  6  5        1 0.576691106040D-02 0.100000000000D+01
0.451800056025D-02 0.000000000000D+00 0.000000000000D+00 0.506178447089D-06 0.361311543618D-07  6 2 1 25 2 1 21 2 0.13426409D+00 0.15609243D+00 0.54518712D+06 0.54518712D+06 0.54518712D+06 0.10658648D+01  1  2  1  4  6  5        1 0.324904391017D-01 0.100000000000D+01
  </mgrwgt>
  </event>
  <event>
  5     66 0.18337608E-05 0.56863332E+02 0.75467711E-02 0.91170404E-01
        2 -1    0    0  501    0 0.00000000E+00 0.00000000E+00 0.15597444E+04 0.15597445E+04 0.32000000E+00 0.0000E+00 0.9000E+01
        1 -1    0    0  502    0 -.00000000E+00 -.00000000E+00 -.22063154E+04 0.22063154E+04 0.32000000E+00 0.0000E+00 0.9000E+01
       25  1    1    2    0    0 0.59341333E+02 -.53614885E+03 0.23500433E+03 0.60152225E+03 0.12500000E+03 0.0000E+00 0.9000E+01
        2  1    1    2  501    0 -.61647821E+02 0.59296109E+03 0.10631991E+04 0.12189322E+04 0.32000000E+00 0.0000E+00 0.9000E+01
        1  1    1    2  502    0 0.23064874E+01 -.56812238E+02 -.19447744E+04 0.19456054E+04 0.32000000E+00 0.0000E+00 0.9000E+01
#aMCatNLO 1  0  0  4  1 0.13163621D+03 0.00000000D+00  -5  6  0 0.00000000D+00 0.00000000D+00 0.00000000D+00 0.00000000D+00 0.00000000D+00
  <mgrwgt>
 0.3664946322D-01    4    2    0
 0.185507096607750D+04 0.000000000000000D+00 0.000000000000000D+00 0.185507096607750D+04
 0.185507096607750D+04 -.000000000000000D+00 -.000000000000000D+00 -.185507096607750D+04
 0.651568816921403D+03 0.593383038696144D+02 -.536117040308858D+03 0.343474028084663D+03
 0.142252247905163D+04 -.616449596566134D+02 0.592933568628400D+03 0.129158812535178D+04
 0.163605063618197D+04 0.230665578699904D+01 -.568165283195422D+02 -.163506215343644D+04
 0.000000000000000D+00 0.000000000000000D+00 0.000000000000000D+00 0.000000000000000D+00
 0.185507096607750D+04 0.000000000000000D+00 0.000000000000000D+00 0.185507096607750D+04
 0.185507096607750D+04 -.000000000000000D+00 -.000000000000000D+00 -.185507096607750D+04
 0.664433658896966D+03 0.563028079586724D+02 -.506920047836844D+03 0.407073882719428D+03
 0.135358874996810D+04 -.159777332044953D+03 0.635875866725947D+03 0.118420251237714D+04
 0.148432060316409D+04 -.489080342124888D+01 0.124124110321270D+02 -.148426064593510D+04
 0.207798920125843D+03 0.108365327507529D+03 -.141368229921230D+03 -.107015749161470D+03
0.109232394229D+00 0.000000000000D+00 0.000000000000D+00 0.131180483775D-03 0.000000000000D+00  6 2 1 25 2 1 21 0 0.23996069D+00 0.33943314D+00 0.36401805D+06 0.36401805D+06 0.36401805D+06 0.10783912D+01  1  2  2  3  6  4        2 0.424074905944D-01 0.100000000000D+01
0.570368719117D-01 0.000000000000D+00 -.419481155389D-03 0.131180483775D-03 0.000000000000D+00  6 2 1 25 2 1 21 2 0.23996069D+00 0.33943314D+00 0.36401805D+06 0.36401805D+06 0.36401805D+06 0.10783912D+01  1  2  3  3  6  4        2 0.257513211367D-01 0.100000000000D+01
-.692957005586D-01 0.000000000000D+00 0.000000000000D+00 0.131180483775D-03 0.000000000000D+00  6 2 1 25 2 1 21 2 0.23996069D+00 0.33943314D+00 0.36401805D+06 0.36401805D+06 0.36401805D+06 0.10783912D+01  1  2 15  3  6  4        2 -.312860046259D-01 0.100000000000D+01
-.494686725923D-03 0.000000000000D+00 0.000000000000D+00 0.131180483775D-03 0.000000000000D+00  6 2 1 25 2 1 21 2 0.23996069D+00 0.33943314D+00 0.36401805D+06 0.36401805D+06 0.36401805D+06 0.10783912D+01  1  2  4  3  6  4        2 -.223343888161D-03 0.100000000000D+01
  </mgrwgt>
  </event>
  <event>
  6     66 -.18337608E-05 0.82761866E+02 0.75467711E-02 0.87258795E-01
        2 -1    0    0  503    0 0.00000000E+00 0.00000000E+00 0.15914456E+04 0.15914456E+04 0.32000000E+00 0.0000E+00 0.9000E+01
        1 -1    0    0  502    0 0.00000000E+00 0.00000000E+00 -.14988732E+04 0.14988732E+04 0.32000000E+00 0.0000E+00 0.9000E+01
       25  1    1    2    0    0 -.58739060E+03 -.72665439E+03 -.23698761E+03 0.97203007E+03 0.12500000E+03 0.0000E+00 0.9000E+01
        2  1    1    2  501    0 0.51585545E+03 0.78902150E+03 0.91727991E+03 0.13153191E+04 0.32000000E+00 0.0000E+00 0.9000E+01
        1  1    1    2  502    0 0.95971419E+02 -.33519997E+02 -.68817004E+03 0.69563798E+03 0.32000000E+00 0.0000E+00 0.9000E+01
       21  1    1    2  503  501 -.24436272E+02 -.28847112E+02 0.10045017E+03 0.10733167E+03 0.75000000E+00 0.0000E+00 0.9000E+01
#aMCatNLO 2  0  0  1  4 0.37805916D+02 0.00000000D+00  -5  6  0 0.00000000D+00 0.00000000D+00 0.00000000D+00 0.00000000D+00 0.00000000D+00
  <mgrwgt>
 -.4100066815D-02    6    2    0
 0.149136857626331D+04 0.000000000000000D+00 0.000000000000000D+00 0.149136857626331D+04
 0.149136857626331D+04 0.000000000000000D+00 0.000000000000000D+00 -.149136857626331D+04
 0.983290135953133D+03 -.595394182701462D+03 -.736087827274534D+03 -.234339431607755D+03
 0.130596735354375D+04 0.505097664930717D+03 0.776318107634542D+03 0.920737352974412D+03
 0.693479663029735D+03 0.902965177707445D+02 -.402302803600081D+02 -.686397921366657D+03
 0.000000000000000D+00 -.000000000000000D+00 -.000000000000000D+00 0.000000000000000D+00
 0.159565262299711D+04 0.000000000000000D+00 0.000000000000000D+00 0.159565262299711D+04
 0.149491873692641D+04 0.000000000000000D+00 0.000000000000000D+00 -.149491873692641D+04
 0.971372343594271D+03 -.587387653104124D+03 -.726636088887974D+03 -.234339431607755D+03
 0.131771834798657D+04 0.515844593079806D+03 0.789004896846950D+03 0.920737352974412D+03
 0.693886044555007D+03 0.959793324338065D+02 -.335216962173322D+02 -.686397921366657D+03
 0.107594623787668D+03 -.244362724094885D+02 -.288471117416442D+02 0.100733886070697D+03
-.679863865096D-02 0.000000000000D+00 0.000000000000D+00 0.873436138620D-06 0.000000000000D+00  6 2 1 25 2 1 21 2 0.24697904D+00 0.23004805D+00 0.10249755D+07 0.10249755D+07 0.10249755D+07 0.10471515D+01  1  2 13  1  6  1        2 -.755612346508D-02 0.100000000000D+01
-.387634854726D-07 0.000000000000D+00 0.000000000000D+00 0.873436138620D-06 0.000000000000D+00  6 2 1 25 2 1 21 2 0.24542507D+00 0.23004805D+00 0.10249755D+07 0.10249755D+07 0.10249755D+07 0.10471515D+01  1  2 13  1  6  1        2 -.436452377808D-07 0.100000000000D+01
-.793722145181D-03 0.000000000000D+00 0.000000000000D+00 0.873436138620D-06 0.000000000000D+00  6 2 1 25 2 1 21 2 0.22883619D+00 0.23004805D+00 0.98008254D+06 0.98008254D+06 0.98008254D+06 0.10484461D+01  1  2  8  1  6  1        2 -.103289025603D-02 0.100000000000D+01
-.315792997905D-03 0.000000000000D+00 0.000000000000D+00 0.873436138620D-06 0.000000000000D+00  6 2 1 25 2 1 21 2 0.24505831D+00 0.23004805D+00 0.98008254D+06 0.98008254D+06 0.98008254D+06 0.10484461D+01  1  2  9  1  6  1        2 -.358706929914D-03 0.100000000000D+01
0.315053774443D-03 0.000000000000D+00 0.000000000000D+00 0.873436138620D-06 0.000000000000D+00  6 2 1 25 2 1 21 2 0.22883619D+00 0.23004805D+00 0.98008254D+06 0.98008254D+06 0.98008254D+06 0.10484461D+01  1  2 10  1  6  1        2 0.409987267867D-03 0.100000000000D+01
0.394414598725D-02 0.000000000000D+00 0.000000000000D+00 0.873436138620D-06 0.158515661904D-08  6 2 1 25 2 1 21 2 0.24483757D+00 0.23059567D+00 0.10249755D+07 0.10249755D+07 0.10249755D+07 0.10471515D+01  1  2  1  1  6  1        2 0.443771021346D-02 0.100000000000D+01
  </mgrwgt>
  </event>
  <event>
  5     66 -.18337608E-05 0.16149433E+02 0.75467711E-02 0.93304344E-01
        2 -1    0    0  501    0 0.00000000E+00 0.00000000E+00 0.88877550E+03 0.88877555E+03 0.32000000E+00 0.0000E+00 0.9000E+01
        1 -1    0    0  502    0 0.00000000E+00 0.00000000E+00 -.59807699E+03 0.59807708E+03 0.32000000E+00 0.0000E+00 0.9000E+01
       25  1    1    2    0    0 0.53744938E+03 0.89740834E+02 -.19257046E+03 0.59128135E+03 0.12500000E+03 0.0000E+00 0.9000E+01
        2  1    1    2  501    0 -.54504485E+03 -.75482207E+02 0.57884173E+03 0.79864216E+03 0.32000000E+00 0.0000E+00 0.9000E+01
        1  1    1    2  502    0 0.75954635E+01 -.14258627E+02 -.95572760E+02 0.96929120E+02 0.32000000E+00 0.0000E+00 0.9000E+01
#aMCatNLO 1  0  0  5  2 0.11836279D+01 0.00000000D+00  -5  6  0 0.00000000D+00 0.00000000D+00 0.00000000D+00 0.00000000D+00 0.00000000D+00
  <mgrwgt>
 -.7549105752D-01    9    2    0
 0.729079065090881D+03 0.000000000000000D+00 0.000000000000000D+00 0.729079065090881D+03
 0.729079065090881D+03 -.000000000000000D+00 -.000000000000000D+00 -.729079065090881D+03
 0.641355431635825D+03 0.537464622778565D+03 0.897372985353253D+02 -.314310016069886D+03
 0.698975940027395D+03 -.545057031850405D+03 -.754838948969662D+02 0.431024800189956D+03
 0.117826758518542D+03 0.759240907183985D+01 -.142534036383591D+02 -.116714784120070D+03
 0.000000000000000D+00 0.000000000000000D+00 0.000000000000000D+00 -.000000000000000D+00
 0.729079065090881D+03 0.000000000000000D+00 0.000000000000000D+00 0.729079065090881D+03
 0.729079065090881D+03 -.000000000000000D+00 -.000000000000000D+00 -.729079065090881D+03
 0.641365277616727D+03 0.537465836958310D+03 0.897350191278494D+02 -.314328681124088D+03
 0.698962632927297D+03 -.545055708609353D+03 -.754863790477334D+02 0.431004458583988D+03
 0.981938495513890D+02 0.686147491217642D+01 -.129210454214980D+02 -.970978827625298D+02
 0.196363700863497D+02 0.728396738866461D+00 -.132759465861804D+01 -.195778946973699D+02
0.368487606957D-05 0.000000000000D+00 0.000000000000D+00 0.135673989944D-05 0.000000000000D+00  6 2 1 25 2 1 21 0 0.13673470D+00 0.92011856D-01 0.31666876D+06 0.31666876D+06 0.31666876D+06 0.10828187D+01  1  2  2  4  6  5        1 0.542612176882D-04 0.100000000000D+01
0.179777679461D-05 0.000000000000D+00 -.141508943573D-07 0.135673989944D-05 0.000000000000D+00  6 2 1 25 2 1 21 2 0.13673470D+00 0.92011856D-01 0.31666876D+06 0.31666876D+06 0.31666876D+06 0.10828187D+01  1  2  3  4  6  5        1 0.310394417332D-04 0.100000000000D+01
-.247264704073D-05 0.000000000000D+00 0.000000000000D+00 0.135673989944D-05 0.000000000000D+00  6 2 1 25 2 1 21 2 0.13673470D+00 0.92011856D-01 0.31666876D+06 0.31666876D+06 0.31666876D+06 0.10828187D+01  1  2 15  4  6  5        1 -.426913863710D-04 0.100000000000D+01
0.872090887633D-08 0.000000000000D+00 0.000000000000D+00 0.135673989944D-05 0.000000000000D+00  6 2 1 25 2 1 21 2 0.13673470D+00 0.92011856D-01 0.31666570D+06 0.31666570D+06 0.31666570D+06 0.10828190D+01  1  2 12  4  6  5        1 0.150570634664D-06 0.100000000000D+01
0.142115696283D-11 0.000000000000D+00 0.000000000000D+00 0.135673989944D-05 0.000000000000D+00  6 2 1 25 2 1 21 2 0.13673470D+00 0.92011856D-01 0.31666570D+06 0.31666570D+06 0.31666570D+06 0.10828190D+01  1  2 12  4  6  5        1 0.245369500915D-10 0.100000000000D+01
-.117845606943D-01 0.000000000000D+00 0.000000000000D+00 0.135673989944D-05 0.000000000000D+00  6 2 1 25 2 1 21 2 0.13673470D+00 0.92011856D-01 0.31666876D+06 0.31666876D+06 0.31666876D+06 0.10828187D+01  1  2  4  4  6  5        1 -.203465850777D+00 0.100000000000D+01
-.205671890134D-02 0.000000000000D+00 0.000000000000D+00 0.135673989944D-05 0.000000000000D+00  6 2 1 25 2 1 21 2 0.13673470D+00 0.92011856D-01 0.31666876D+06 0.31666876D+06 0.31666876D+06 0.10828187D+01  1  2  5  4  6  5        1 -.355101960882D-01 0.100000000000D+01
0.288451347055D-02 0.000000000000D+00 -.000000000000D+00 0.135673989944D-05 0.000000000000D+00  6 2 1 25 2 1 21 2 0.13673470D+00 0.92011856D-01 0.31666876D+06 0.31666876D+06 0.31666876D+06 0.10828187D+01  1  2  6  4  6  5        1 0.498024493729D-01 0.100000000000D+01
0.658190867867D-02 0.000000000000D+00 0.000000000000D+00 0.135673989944D-05 0.142313097817D-04  6 2 1 25 2 1 21 2 0.13673470D+00 0.92011856D-01 0.31666570D+06 0.31666570D+06 0.31666570D+06 0.10828190D+01  1  2 11  4  6  5        1 0.113639780108D+00 0.100000000000D+01
  </mgrwgt>
  </event>
  <event>
  5     66 -.18337608E-05 0.25392352E+03 0.75467711E-02 0.92851838E-01
        2 -1    0    0  501    0 0.00000000E+00 0.00000000E+00 0.18305825E+04 0.18305825E+04 0.32000000E+00 0.0000E+00 0.9000E+01
        1 -1    0    0  502    0 0.00000000E+00 0.00000000E+00 -.94821183E+03 0.94821188E+03 0.32000000E+00 0.0000E+00 0.9000E+01
       25  1    1    2    0    0 0.75176907E+02 -.57392099E+03 0.10288463E+03 0.60103836E+03 0.12500000E+03 0.0000E+00 0.9000E+01
        2  1    1    2  501    0 -.51732779E+02 0.32110974E+03 0.14367775E+04 0.14731318E+04 0.32000000E+00 0.0000E+00 0.9000E+01
        1  1    1    2  502    0 -.23444128E+02 0.25281125E+03 -.65729144E+03 0.70462422E+03 0.32000000E+00 0.0000E+00 0.9000E+01
#aMCatNLO 1  0  0  5  2 0.15089514D+02 0.00000000D+00  -5  6  0 0.00000000D+00 0.00000000D+00 0.00000000D+00 0.00000000D+00 0.00000000D+00
  <mgrwgt>
 -.3134756456D-02    8    2    0
 0.131749006543737D+04 0.000000000000000D+00 0.000000000000000D+00 0.131749006543737D+04
 0.131749006543737D+04 -.000000000000000D+00 -.000000000000000D+00 -.131749006543737D+04
 0.599389384256218D+03 0.751774006675180D+02 -.573934498251894D+03 -.926832460818532D+02
 0.107235625411109D+04 -.517305344409655D+02 0.321095812943146D+03 0.102184605809681D+04
 0.963234492507432D+03 -.234468662265526D+02 0.252838685308748D+03 -.929162812014960D+03
 0.000000000000000D+00 0.000000000000000D+00 0.000000000000000D+00 -.000000000000000D+00
 0.131749006543737D+04 0.000000000000000D+00 0.000000000000000D+00 0.131749006543737D+04
 0.131749006543737D+04 -.000000000000000D+00 -.000000000000000D+00 -.131749006543737D+04
 0.599377562015266D+03 0.751746636639691D+02 -.573904983843772D+03 -.927917092721767D+02
 0.107218740922343D+04 -.517354308252340D+02 0.321148612978309D+03 0.102165202200978D+04
 0.381390372368174D+03 -.237533701864049D+02 0.104032378172780D+03 -.366157968412046D+03
 0.582024787267870D+03 0.314137347669812D+00 0.148723992692682D+03 -.562702344325562D+03
0.469946453323D-04 0.000000000000D+00 0.000000000000D+00 0.516386671883D-05 0.000000000000D+00  6 2 1 25 2 1 21 0 0.28162808D+00 0.14587875D+00 0.34300932D+06 0.34300932D+06 0.34300932D+06 0.10802732D+01  1  2  2  4  6  5        1 0.960433104199D-04 0.100000000000D+01
0.537403573474D-05 0.000000000000D+00 -.180471812050D-06 0.516386671883D-05 0.000000000000D+00  6 2 1 25 2 1 21 2 0.28162808D+00 0.14587875D+00 0.34300932D+06 0.34300932D+06 0.34300932D+06 0.10802732D+01  1  2  3  4  6  5        1 0.128170029095D-04 0.100000000000D+01
-.291905364677D-04 0.000000000000D+00 0.000000000000D+00 0.516386671883D-05 0.000000000000D+00  6 2 1 25 2 1 21 2 0.28162808D+00 0.14587875D+00 0.34300932D+06 0.34300932D+06 0.34300932D+06 0.10802732D+01  1  2 15  4  6  5        1 -.696190366616D-04 0.100000000000D+01
0.598404644652D-02 0.000000000000D+00 0.000000000000D+00 0.516386671883D-05 0.000000000000D+00  6 2 1 25 2 1 21 2 0.28162808D+00 0.14587875D+00 0.34390859D+06 0.34390859D+06 0.34390859D+06 0.10801901D+01  1  2 12  4  6  5        1 0.142671194287D-01 0.100000000000D+01
0.508546610151D-08 0.000000000000D+00 0.000000000000D+00 0.516386671883D-05 0.000000000000D+00  6 2 1 25 2 1 21 2 0.28162808D+00 0.14587875D+00 0.34390859D+06 0.34390859D+06 0.34390859D+06 0.10801901D+01  1  2 12  4  6  5        1 0.121247307937D-07 0.100000000000D+01
-.117076946626D-01 0.000000000000D+00 0.000000000000D+00 0.516386671883D-05 0.000000000000D+00  6 2 1 25 2 1 21 2 0.28162808D+00 0.14587875D+00 0.34300932D+06 0.34300932D+06 0.34300932D+06 0.10802732D+01  1  2  4  4  6  5        1 -.279226942211D-01 0.100000000000D+01
-.602716297781D-02 0.000000000000D+00 0.000000000000D+00 0.516386671883D-05 0.000000000000D+00  6 2 1 25 2 1 21 2 0.28162808D+00 0.14587875D+00 0.34300932D+06 0.34300932D+06 0.34300932D+06 0.10802732D+01  1  2  5  4  6  5        1 -.143747025952D-01 0.100000000000D+01
0.104219739108D-01 0.000000000000D+00 -.000000000000D+00 0.516386671883D-05 0.000000000000D+00  6 2 1 25 2 1 21 2 0.28162808D+00 0.14587875D+00 0.34300932D+06 0.34300932D+06 0.34300932D+06 0.10802732D+01  1  2  6  4  6  5        1 0.248562675298D-01 0.100000000000D+01
  </mgrwgt>
  </event>
  <event>
  5     66 0.18337608E-05 0.37238571E+02 0.75467711E-02 0.93474430E-01
        2 -1    0    0  501    0 0.00000000E+00 0.00000000E+00 0.86231302E+03 0.86231308E+03 0.32000000E+00 0.0000E+00 0.9000E+01
        1 -1    0    0  502    0 -.00000000E+00 -.00000000E+00 -.14559624E+04 0.14559625E+04 0.32000000E+00 0.0000E+00 0.9000E+01
       25  1    1    2    0    0 0.24670200E+03 -.47756086E+03 0.37329594E+03 0.66625904E+03 0.12500000E+03 0.0000E+00 0.9000E+01
        2  1    1    2  501    0 -.34161594E+02 0.14872257E+02 0.29181057E+03 0.29417972E+03 0.32000000E+00 0.0000E+00 0.9000E+01
        1  1    1    2  502    0 -.21254040E+03 0.46268861E+03 -.12587559E+04 0.13578368E+04 0.32000000E+00 0.0000E+00 0.9000E+01
#aMCatNLO 1  0  0  4  1 0.15557359D+02 0.00000000D+00  -5  6  0 0.00000000D+00 0.00000000D+00 0.00000000D+00 0.00000000D+00 0.00000000D+00
  <mgrwgt>
 0.1563002740D-01    8    2    0
 0.112048893775111D+04 0.000000000000000D+00 0.000000000000000D+00 0.112048893775111D+04
 0.112048893775111D+04 -.000000000000000D+00 -.000000000000000D+00 -.112048893775111D+04
 0.788306662685233D+03 0.246715408680419D+03 -.477618449817187D+03 0.562862787851365D+03
 0.381424667948945D+03 -.341432881332224D+02 0.148642878144074D+02 0.379602510717705D+03
 0.107124654486804D+04 -.212572120547197D+03 0.462754162002779D+03 -.942465298569070D+03
 0.000000000000000D+00 0.000000000000000D+00 0.000000000000000D+00 0.000000000000000D+00
 0.112048893775111D+04 0.000000000000000D+00 0.000000000000000D+00 0.112048893775111D+04
 0.112048893775111D+04 -.000000000000000D+00 -.000000000000000D+00 -.112048893775111D+04
 0.788607320131246D+03 0.246674577649080D+03 -.477600674018933D+03 0.563316744188290D+03
 0.217524771022682D+03 -.328419751317612D+02 0.637316326463127D+00 0.215030287415087D+03
 0.107072553810591D+04 -.212627582627057D+03 0.462778307431146D+03 -.941848675334589D+03
 0.164120246242383D+03 -.120501989026197D+01 0.141850502613235D+02 0.163501643731212D+03
0.154566762771D-03 0.000000000000D+00 0.000000000000D+00 0.209025961056D-04 0.000000000000D+00  6 2 1 25 2 1 21 0 0.13266355D+00 0.22399423D+00 0.30162004D+06 0.30162004D+06 0.30162004D+06 0.10843789D+01  1  2  2  3  6  4        2 0.497268747758D-03 0.100000000000D+01
0.549405480178D-04 0.000000000000D+00 -.593577067405D-06 0.209025961056D-04 0.000000000000D+00  6 2 1 25 2 1 21 2 0.13266355D+00 0.22399423D+00 0.30162004D+06 0.30162004D+06 0.30162004D+06 0.10843789D+01  1  2  3  3  6  4        2 0.207840476231D-03 0.100000000000D+01
-.841512296720D-04 0.000000000000D+00 0.000000000000D+00 0.209025961056D-04 0.000000000000D+00  6 2 1 25 2 1 21 2 0.13266355D+00 0.22399423D+00 0.30162004D+06 0.30162004D+06 0.30162004D+06 0.10843789D+01  1  2 15  3  6  4        2 -.318344688604D-03 0.100000000000D+01
0.361559870400D-02 0.000000000000D+00 0.000000000000D+00 0.209025961056D-04 0.000000000000D+00  6 2 1 25 2 1 21 2 0.13266355D+00 0.22399423D+00 0.30705790D+06 0.30705790D+06 0.30705790D+06 0.10838055D+01  1  2 12  3  6  4        2 0.136489929821D-01 0.100000000000D+01
0.405583503980D-08 0.000000000000D+00 0.000000000000D+00 0.209025961056D-04 0.000000000000D+00  6 2 1 25 2 1 21 2 0.13266355D+00 0.22399423D+00 0.30705790D+06 0.30705790D+06 0.30705790D+06 0.10838055D+01  1  2 12  3  6  4        2 0.153108982845D-07 0.100000000000D+01
-.362315090102D-02 0.000000000000D+00 0.000000000000D+00 0.209025961056D-04 0.000000000000D+00  6 2 1 25 2 1 21 2 0.13266355D+00 0.22399423D+00 0.30162004D+06 0.30162004D+06 0.30162004D+06 0.10843789D+01  1  2  4  3  6  4        2 -.137064051215D-01 0.100000000000D+01
-.532395495847D-02 0.000000000000D+00 0.000000000000D+00 0.209025961056D-04 0.000000000000D+00  6 2 1 25 2 1 21 2 0.13266355D+00 0.22399423D+00 0.30162004D+06 0.30162004D+06 0.30162004D+06 0.10843789D+01  1  2  5  3  6  4        2 -.201405587299D-01 0.100000000000D+01
0.936853108530D-02 0.000000000000D+00 -.000000000000D+00 0.209025961056D-04 0.000000000000D+00  6 2 1 25 2 1 21 2 0.13266355D+00 0.22399423D+00 0.30162004D+06 0.30162004D+06 0.30162004D+06 0.10843789D+01  1  2  6  3  6  4        2 0.354412184190D-01 0.100000000000D+01
  </mgrwgt>
  </event>
  <event>
  5     66 0.18337608E-05 0.19485927E+03 0.75467711E-02 0.88630277E-01
        2 -1    0    0  501    0 0.00000000E+00 0.00000000E+00 0.21981944E+04 0.21981944E+04 0.32000000E+00 0.0000E+00 0.9000E+01
        1 -1    0    0  502    0 0.00000000E+00 0.00000000E+00 -.16531784E+04 0.16531784E+04 0.32000000E+00 0.0000E+00 0.9000E+01
       25  1    1    2    0    0 0.36439671E+03 0.78206247E+03 -.38702695E+03 0.95384565E+03 0.12500000E+03 0.0000E+00 0.9000E+01
        2  1    1    2  501    0 -.36669895E+03 -.58722963E+03 0.18415477E+04 0.19673852E+04 0.32000000E+00 0.0000E+00 0.9000E+01
        1  1    1    2  502    0 0.23022354E+01 -.19483284E+03 -.90950473E+03 0.93014197E+03 0.32000000E+00 0.0000E+00 0.9000E+01
#aMCatNLO 1  0  0  5  2 0.10594311D+02 0.00000000D+00  -5  6  0 0.00000000D+00 0.00000000D+00 0.00000000D+00 0.00000000D+00 0.00000000D+00
  <mgrwgt>
 0.1870930246D-02    8    2    0
 0.190630732244560D+04 0.000000000000000D+00 0.000000000000000D+00 0.190630732244560D+04
 0.190630732244560D+04 -.000000000000000D+00 -.000000000000000D+00 -.190630732244560D+04
 0.101883332948125D+04 0.364393080653425D+03 0.782068235946730D+03 -.527241225964855D+03
 0.172411391412630D+04 -.366694534051848D+03 -.587222559908246D+03 0.157901031431566D+04
 0.106966740128365D+04 0.230145339842338D+01 -.194845676038484D+03 -.105176908835080D+04
 0.000000000000000D+00 0.000000000000000D+00 -.000000000000000D+00 0.000000000000000D+00
 0.190630732244560D+04 0.000000000000000D+00 0.000000000000000D+00 0.190630732244560D+04
 0.190630732244560D+04 -.000000000000000D+00 -.000000000000000D+00 -.190630732244560D+04
 0.101887520838253D+04 0.364393324292981D+03 0.782047608931623D+03 -.527352569759160D+03
 0.172395316607013D+04 -.366694121782126D+03 -.587257463492557D+03 0.157882190617750D+04
 0.914736259320045D+03 0.831674426035340D+01 -.158271068371377D+03 -.900901506712204D+03
 0.155050011118493D+03 -.601594677120830D+01 -.365190770676901D+02 -.150567829706133D+03
0.173636216381D-04 0.000000000000D+00 0.000000000000D+00 0.200602538139D-05 0.000000000000D+00  6 2 1 25 2 1 21 0 0.33818376D+00 0.25433514D+00 0.77349596D+06 0.77349596D+06 0.77349596D+06 0.10553706D+01  1  2  2  4  6  5        1 0.656844717075D-05 0.100000000000D+01
0.285593335193D-05 0.000000000000D+00 -.666808790368D-07 0.200602538139D-05 0.000000000000D+00  6 2 1 25 2 1 21 2 0.33818376D+00 0.25433514D+00 0.77349596D+06 0.77349596D+06 0.77349596D+06 0.10553706D+01  1  2  3  4  6  5        1 0.120331816295D-05 0.100000000000D+01
-.125400294335D-04 0.000000000000D+00 0.000000000000D+00 0.200602538139D-05 0.000000000000D+00  6 2 1 25 2 1 21 2 0.33818376D+00 0.25433514D+00 0.77349596D+06 0.77349596D+06 0.77349596D+06 0.10553706D+01  1  2 15  4  6  5        1 -.528361250833D-05 0.100000000000D+01
0.843666371728D-02 0.000000000000D+00 0.000000000000D+00 0.200602538139D-05 0.000000000000D+00  6 2 1 25 2 1 21 2 0.33818376D+00 0.25433514D+00 0.77406986D+06 0.77406986D+06 0.77406986D+06 0.10553487D+01  1  2 12  4  6  5        1 0.355431646065D-02 0.100000000000D+01
0.526173574201D-08 0.000000000000D+00 0.000000000000D+00 0.200602538139D-05 0.000000000000D+00  6 2 1 25 2 1 21 2 0.33818376D+00 0.25433514D+00 0.77406986D+06 0.77406986D+06 0.77406986D+06 0.10553487D+01  1  2 12  4  6  5        1 0.221673810716D-08 0.100000000000D+01
-.537719924795D-02 0.000000000000D+00 0.000000000000D+00 0.200602538139D-05 0.000000000000D+00  6 2 1 25 2 1 21 2 0.33818376D+00 0.25433514D+00 0.77349596D+06 0.77349596D+06 0.77349596D+06 0.10553706D+01  1  2  4  4  6  5        1 -.226562763325D-02 0.100000000000D+01
-.885839324404D-02 0.000000000000D+00 0.000000000000D+00 0.200602538139D-05 0.000000000000D+00  6 2 1 25 2 1 21 2 0.33818376D+00 0.25433514D+00 0.77349596D+06 0.77349596D+06 0.77349596D+06 0.10553706D+01  1  2  5  4  6  5        1 -.373239294184D-02 0.100000000000D+01
0.102343637949D-01 0.000000000000D+00 -.000000000000D+00 0.200602538139D-05 0.000000000000D+00  6 2 1 25 2 1 21 2 0.33818376D+00 0.25433514D+00 0.77349596D+06 0.77349596D+06 0.77349596D+06 0.10553706D+01  1  2  6  4  6  5        1 0.431214399047D-02 0.100000000000D+01
  </mgrwgt>
  </event>
  <event>
  5     66 0.18337608E-05 0.17649462E+02 0.75467711E-02 0.81670850E-01
        2 -1    0    0  501    0 0.00000000E+00 0.00000000E+00 0.13546145E+04 0.13546145E+04 0.32000000E+00 0.0000E+00 0.9000E+01
        1 -1    0    0  502    0 0.00000000E+00 0.00000000E+00 -.14874759E+04 0.14874759E+04 0.32000000E+00 0.0000E+00 0.9000E+01
       25  1    1    2    0    0 0.55393567E+03 -.19746942E+03 -.10593421E+03 0.61048010E+03 0.12500000E+03 0.0000E+00 0.9000E+01
        2  1    1    2  501    0 -.54550083E+03 0.21297123E+03 0.10244896E+04 0.11800453E+04 0.32000000E+00 0.0000E+00 0.9000E+01
        1  1    1    2  502    0 -.84348394E+01 -.15501802E+02 -.10514168E+04 0.10515650E+04 0.32000000E+00 0.0000E+00 0.9000E+01
#aMCatNLO 1  0  0  2  2 0.73833108D+02 0.00000000D+00  -5  6  0 0.00000000D+00 0.00000000D+00 0.00000000D+00 0.00000000D+00 0.00000000D+00
  <mgrwgt>
 0.1740708487D-01    5    2    0
 0.141949161995482D+04 0.000000000000000D+00 0.000000000000000D+00 0.141949161995482D+04
 0.141949161995482D+04 0.000000000000000D+00 0.000000000000000D+00 -.141949161995482D+04
 0.606166755137623D+03 0.553923076913739D+03 -.197462974376800D+03 -.773998297592325D+02
 0.122925177366635D+04 -.545487480520504D+03 0.212966013978862D+03 0.108080933033871D+04
 0.100356471110566D+04 -.843559639323462D+01 -.155030396020624D+02 -.100340950057948D+04
 0.000000000000000D+00 -.000000000000000D+00 -.000000000000000D+00 -.000000000000000D+00
 0.207296560490988D+04 0.000000000000000D+00 0.000000000000000D+00 0.207296560490988D+04
 0.353734931876373D+04 0.000000000000000D+00 0.000000000000000D+00 -.353734931876373D+04
 0.100075002717210D+04 0.987890160634497D+03 -.629119524395202D+02 -.773998297592325D+02
 0.116140532971507D+04 0.100138044554624D+03 0.413141505269230D+03 0.108080933033871D+04
 0.117019231223429D+04 0.578613469570487D+03 0.166510884300908D+03 -.100340950057948D+04
 0.227796725455215D+04 -.166664167475961D+04 -.516740437130618D+03 -.146438371385385D+04
0.824503585285D-02 0.000000000000D+00 0.000000000000D+00 0.986013773612D-04 0.000000000000D+00  6 2 1 25 2 1 21 0 0.20840223D+00 0.22884245D+00 0.36266926D+06 0.36266926D+06 0.36266926D+06 0.10785085D+01  1  2  2  2  6  2        1 0.125965081962D-01 0.100000000000D+01
0.801750608822D-02 0.000000000000D+00 -.316631086427D-04 0.986013773612D-04 0.000000000000D+00  6 2 1 25 2 1 21 2 0.20840223D+00 0.22884245D+00 0.36266926D+06 0.36266926D+06 0.36266926D+06 0.10785085D+01  1  2  3  2  6  2        1 0.142476760542D-01 0.100000000000D+01
-.535855756138D-02 0.000000000000D+00 0.000000000000D+00 0.986013773612D-04 0.000000000000D+00  6 2 1 25 2 1 21 2 0.20840223D+00 0.22884245D+00 0.36266926D+06 0.36266926D+06 0.36266926D+06 0.10785085D+01  1  2 15  2  6  2        1 -.952253623665D-02 0.100000000000D+01
0.369898633439D-02 0.000000000000D+00 -.376681153985D-02 0.986013773612D-04 0.000000000000D+00  6 2 1 25 2 1 21 2 0.20840223D+00 0.61907295D+00 0.36266926D+06 0.36266926D+06 0.36266926D+06 0.10785085D+01  1  2  5  2  6  2        1 0.842978926803D-04 0.100000000000D+01
0.629601544277D-03 0.000000000000D+00 -.418297784099D-03 0.986013773612D-04 0.000000000000D+00  6 2 21 25 2 1 -1 2 0.20840223D+00 0.61907295D+00 0.36266926D+06 0.36266926D+06 0.36266926D+06 0.10785085D+01  1  2  5  6  6  2        1 0.113896592175D-05 0.100000000000D+01
  </mgrwgt>
  </event>
  <event>
  6     66 0.18337608E-05 0.22042056E+03 0.75467711E-02 0.92198323E-01
        2 -1    0    0  503    0 0.00000000E+00 0.00000000E+00 0.16687707E+04 0.16687708E+04 0.32000000E+00 0.0000E+00 0.9000E+01
        1 -1    0    0  502    0 0.00000000E+00 0.00000000E+00 -.19950157E+04 0.19950157E+04 0.32000000E+00 0.0000E+00 0.9000E+01
       25  1    1    2    0    0 0.46519750E+03 0.10670228E+03 -.80351915E+03 0.94290091E+03 0.12500000E+03 0.0000E+00 0.9000E+01
        2  1    1    2  501    0 -.34580448E+03 -.32834947E+03 0.47545619E+03 0.67338904E+03 0.32000000E+00 0.0000E+00 0.9000E+01
        1  1    1    2  502    0 0.22170795E+02 0.29328215E+02 -.10085859E+04 0.10092559E+04 0.32000000E+00 0.0000E+00 0.9000E+01
       21  1    1    2  503  501 -.14156382E+03 0.19231897E+03 0.10104040E+04 0.10382407E+04 0.75000000E+00 0.0000E+00 0.9000E+01
#aMCatNLO 2  0  0  1  2 0.23880306D+03 0.00000000D+00  -5  6  0 0.00000000D+00 0.00000000D+00 0.00000000D+00 0.00000000D+00 0.00000000D+00
  <mgrwgt>
 0.9872420525D-02    1    2    0
 0.112359173955958D+04 0.000000000000000D+00 0.000000000000000D+00 0.112359173955958D+04
 0.112359173955958D+04 0.000000000000000D+00 0.000000000000000D+00 -.112359173955958D+04
 0.603546110952812D+03 0.426759697467610D+03 0.158922338130739D+03 -.375849383539040D+03
 0.106325933176033D+04 -.412608170275801D+03 -.237595040759310D+03 0.950696324282191D+03
 0.580378036406017D+03 -.141515271918097D+02 0.786727026285712D+02 -.574846940743151D+03
 0.000000000000000D+00 -.000000000000000D+00 0.000000000000000D+00 0.000000000000000D+00
 0.292587301066005D+04 0.000000000000000D+00 0.000000000000000D+00 0.292587301066005D+04
 0.113785643565549D+04 0.000000000000000D+00 0.000000000000000D+00 -.113785643565549D+04
 0.620227687820406D+03 0.465197977365285D+03 0.106702706093230D+03 -.375849383539040D+03
 0.106358728326002D+04 -.345804709072818D+03 -.328349678379368D+03 0.950696324282191D+03
 0.576021414661195D+03 0.221705495009563D+02 0.293280002958015D+02 -.574846940743151D+03
 0.180389306057392D+04 -.141563817793423D+03 0.192318971990336D+03 0.178801657500457D+04
0.182722527386D-01 0.000000000000D+00 0.000000000000D+00 0.150916785402D-04 0.670211191117D-08  6 2 1 25 2 1 21 2 0.25673395D+00 0.30692547D+00 0.38800609D+06 0.38800609D+06 0.38800609D+06 0.10763820D+01  1  2  1  1  6  1        2 0.987242052549D-02 0.100000000000D+01
  </mgrwgt>
  </event>
  <event>
  5     66 0.18337608E-05 0.86258314E+02 0.75467711E-02 0.95082231E-01
        2 -1    0    0  501    0 0.00000000E+00 0.00000000E+00 0.92407569E+03 0.92407575E+03 0.32000000E+00 0.0000E+00 0.9000E+01
        1 -1    0    0  502    0 0.00000000E+00 0.00000000E+00 -.56577438E+03 0.56577447E+03 0.32000000E+00 0.0000E+00 0.9000E+01
       25  1    1    2    0    0 0.45748560E+03 0.50457534E+02 -.29297057E+02 0.47783089E+03 0.12500000E+03 0.0000E+00 0.9000E+01
        2  1    1    2  501    0 -.37407092E+03 -.72375504E+02 0.64025580E+03 0.74504689E+03 0.32000000E+00 0.0000E+00 0.9000E+01
        1  1    1    2  502    0 -.83414680E+02 0.21917970E+02 -.25265744E+03 0.26697245E+03 0.32000000E+00 0.0000E+00 0.9000E+01
#aMCatNLO 1  0  0  1  4 0.14411174D+02 0.00000000D+00  -5  6  0 0.00000000D+00 0.00000000D+00 0.00000000D+00 0.00000000D+00 0.00000000D+00
  <mgrwgt>
 0.1005025653D-01   11    2    0
 0.723061867610073D+03 0.000000000000000D+00 0.000000000000000D+00 0.723061867610073D+03
 0.723061867610073D+03 0.000000000000000D+00 0.000000000000000D+00 -.723061867610073D+03
 0.499514505074960D+03 0.457482215845430D+03 0.504522850193713D+02 -.148507002871114D+03
 0.608915803491538D+03 -.374055606437047D+03 -.723725399807534D+02 0.474997973144615D+03
 0.337693426653648D+03 -.834266094083837D+02 0.219202549613821D+02 -.326490970273500D+03
 0.000000000000000D+00 0.000000000000000D+00 0.000000000000000D+00 0.000000000000000D+00
 0.747909820334876D+03 0.000000000000000D+00 0.000000000000000D+00 0.747909820334876D+03
 0.725190321043026D+03 0.000000000000000D+00 0.000000000000000D+00 -.725190321043026D+03
 0.496827983446045D+03 0.455004213450270D+03 0.461506335363224D+02 -.148507002871114D+03
 0.611431655015076D+03 -.377090731366424D+03 -.776413200590900D+02 0.474997973144615D+03
 0.337935901395781D+03 -.851069664266140D+02 0.190032641329479D+02 -.326490970273500D+03
 0.269046015209999D+02 0.719348434276831D+01 0.124874223898197D+02 0.227194992918499D+02
0.739198554579D-04 0.000000000000D+00 0.000000000000D+00 0.213651279093D-05 0.000000000000D+00  6 2 1 25 2 1 21 0 0.14216550D+00 0.87042224D-01 0.22286851D+06 0.22286851D+06 0.22286851D+06 0.10942324D+01  1  2  2  1  6  1        2 0.113329772854D-02 0.100000000000D+01
0.126877396440D-04 0.000000000000D+00 -.283871708503D-06 0.213651279093D-05 0.000000000000D+00  6 2 1 25 2 1 21 2 0.14216550D+00 0.87042224D-01 0.22286851D+06 0.22286851D+06 0.22286851D+06 0.10942324D+01  1  2  3  1  6  1        2 0.232909010801D-03 0.100000000000D+01
-.435221470202D-04 0.000000000000D+00 0.000000000000D+00 0.213651279093D-05 0.000000000000D+00  6 2 1 25 2 1 21 2 0.14216550D+00 0.87042224D-01 0.22286851D+06 0.22286851D+06 0.22286851D+06 0.10942324D+01  1  2 15  1  6  1        2 -.798936650246D-03 0.100000000000D+01
0.508938654517D-03 0.000000000000D+00 0.000000000000D+00 0.213651279093D-05 0.000000000000D+00  6 2 1 25 2 1 21 2 0.14930664D+00 0.87042224D-01 0.23074972D+06 0.23074972D+06 0.23074972D+06 0.10930867D+01  1  2 12  1  6  1        2 0.870086032117D-02 0.100000000000D+01
0.241134024434D-07 0.000000000000D+00 0.000000000000D+00 0.213651279093D-05 0.000000000000D+00  6 2 1 25 2 1 21 2 0.14750555D+00 0.87042224D-01 0.23074972D+06 0.23074972D+06 0.23074972D+06 0.10930867D+01  1  2 12  1  6  1        2 0.419291354367D-06 0.100000000000D+01
-.208274891275D-03 0.000000000000D+00 0.000000000000D+00 0.213651279093D-05 0.000000000000D+00  6 2 1 25 2 1 21 2 0.14216550D+00 0.87042224D-01 0.22286851D+06 0.22286851D+06 0.22286851D+06 0.10942324D+01  1  2  4  1  6  1        2 -.382330503797D-02 0.100000000000D+01
-.525524613228D-02 0.000000000000D+00 -.461185984881D-03 0.213651279093D-05 0.000000000000D+00  6 2 1 25 2 1 21 2 0.14725986D+00 0.87042224D-01 0.22286851D+06 0.22286851D+06 0.22286851D+06 0.10942324D+01  1  2  5  1  6  1        2 -.919041046919D-01 0.100000000000D+01
0.526850317329D-02 0.000000000000D+00 0.460900306803D-03 0.213651279093D-05 0.000000000000D+00  6 2 1 25 2 1 21 2 0.14216550D+00 0.87042224D-01 0.22286851D+06 0.22286851D+06 0.22286851D+06 0.10942324D+01  1  2  6  1  6  1        2 0.967139850690D-01 0.100000000000D+01
0.180323120743D-04 0.000000000000D+00 0.000000000000D+00 0.213651279093D-05 0.000000000000D+00  6 21 1 25 2 1 -2 2 0.14930664D+00 0.87042224D-01 0.23074972D+06 0.23074972D+06 0.23074972D+06 0.10930867D+01  1  2 12  5  6  1        2 0.227679679950D-03 0.100000000000D+01
0.654195191153D-09 0.000000000000D+00 0.000000000000D+00 0.213651279093D-05 0.000000000000D+00  6 21 1 25 2 1 -2 2 0.14750555D+00 0.87042224D-01 0.23074972D+06 0.23074972D+06 0.23074972D+06 0.10930867D+01  1  2 12  5  6  1        2 0.856237645719D-08 0.100000000000D+01
-.327253633419D-04 0.000000000000D+00 -.288988329728D-05 0.213651279093D-05 0.000000000000D+00  6 21 1 25 2 1 -2 2 0.14725986D+00 0.87042224D-01 0.22286851D+06 0.22286851D+06 0.22286851D+06 0.10942324D+01  1  2  5  5  6  1        2 -.432556757364D-03 0.100000000000D+01
  </mgrwgt>
  </event>
  <event>
  5     66 0.18337608E-05 0.78520551E+02 0.75467711E-02 0.89383821E-01
        2 -1    0    0  501    0 0.00000000E+00 0.00000000E+00 0.69239267E+03 0.69239275E+03 0.32000000E+00 0.0000E+00 0.9000E+01
        1 -1    0    0  502    0 0.00000000E+00 0.00000000E+00 -.98569547E+03 0.98569552E+03 0.32000000E+00 0.0000E+00 0.9000E+01
       25  1    1    2    0    0 0.50925100E+03 0.17030550E+03 -.16700026E+03 0.57606825E+03 0.12500000E+03 0.0000E+00 0.9000E+01
        2  1    1    2  501    0 0.12018689E+02 -.77618676E+02 0.36884622E+03 0.37711635E+03 0.32000000E+00 0.0000E+00 0.9000E+01
        1  1    1    2  502    0 -.52126969E+03 -.92686821E+02 -.49514875E+03 0.72490366E+03 0.32000000E+00 0.0000E+00 0.9000E+01
#aMCatNLO 1  0  0  2  5 0.58332774D+02 0.00000000D+00  -5  6  0 0.00000000D+00 0.00000000D+00 0.00000000D+00 0.00000000D+00 0.00000000D+00
  <mgrwgt>
 0.5436463714D-02    7    2    0
 0.826128577218447D+03 0.000000000000000D+00 0.000000000000000D+00 0.826128577218447D+03
 0.826128577218447D+03 0.000000000000000D+00 0.000000000000000D+00 -.826128577218447D+03
 0.555507671163629D+03 0.509346014254187D+03 0.170312383083822D+03 -.672614499793204D+02
 0.448356277447031D+03 0.120151514860226D+02 -.775958311227727D+02 0.441427088717144D+03
 0.648393205826233D+03 -.521361165740210D+03 -.927165519610492D+02 -.374165638737824D+03
 0.000000000000000D+00 -.000000000000000D+00 0.000000000000000D+00 -.000000000000000D+00
 0.961525677822854D+03 0.000000000000000D+00 0.000000000000000D+00 0.961525677822854D+03
 0.111903606428302D+04 0.000000000000000D+00 0.000000000000000D+00 -.111903606428302D+04
 0.535967742394265D+03 0.514016869375518D+03 0.538421417783092D+02 -.672614499793204D+02
 0.475556800060086D+03 0.159689410777384D+02 -.176185664430882D+03 0.441427088717144D+03
 0.678855801207126D+03 -.515681342131930D+03 -.234345955795053D+03 -.374165638737824D+03
 0.390181398444400D+03 -.143044683213268D+02 0.356689478447626D+03 -.157510386460170D+03
0.406690559631D-03 0.000000000000D+00 0.000000000000D+00 0.111265335892D-05 0.000000000000D+00  6 2 1 25 2 1 21 0 0.10652196D+00 0.15164547D+00 0.33609979D+06 0.33609979D+06 0.33609979D+06 0.10809197D+01  1  2  2  2  6  2        1 0.372454232450D-02 0.100000000000D+01
0.105285614937D-03 0.000000000000D+00 -.156179883307D-05 0.111265335892D-05 0.000000000000D+00  6 2 1 25 2 1 21 2 0.10652196D+00 0.15164547D+00 0.33609979D+06 0.33609979D+06 0.33609979D+06 0.10809197D+01  1  2  3  2  6  2        1 0.112658703759D-02 0.100000000000D+01
-.245177888588D-03 0.000000000000D+00 0.000000000000D+00 0.111265335892D-05 0.000000000000D+00  6 2 1 25 2 1 21 2 0.10652196D+00 0.15164547D+00 0.33609979D+06 0.33609979D+06 0.33609979D+06 0.10809197D+01  1  2 15  2  6  2        1 -.262347549903D-02 0.100000000000D+01
-.617592409573D-04 0.000000000000D+00 0.000000000000D+00 0.111265335892D-05 0.000000000000D+00  6 2 1 25 2 1 21 2 0.10652196D+00 0.15164547D+00 0.33609979D+06 0.33609979D+06 0.33609979D+06 0.10809197D+01  1  2  4  2  6  2        1 -.660842037687D-03 0.100000000000D+01
-.528166796890D-03 0.000000000000D+00 -.278442880471D-03 0.111265335892D-05 0.000000000000D+00  6 2 1 25 2 1 21 2 0.10652196D+00 0.22446470D+00 0.33609979D+06 0.33609979D+06 0.33609979D+06 0.10809197D+01  1  2  5  2  6  2        1 -.259606506298D-02 0.100000000000D+01
0.609974228855D-03 0.000000000000D+00 0.258322037369D-03 0.111265335892D-05 0.000000000000D+00  6 2 1 25 2 1 21 2 0.10652196D+00 0.15164547D+00 0.33609979D+06 0.33609979D+06 0.33609979D+06 0.10809197D+01  1  2  6  2  6  2        1 0.652690360317D-02 0.100000000000D+01
-.155282542157D-04 0.000000000000D+00 -.130633391350D-04 0.111265335892D-05 0.000000000000D+00  6 2 21 25 2 1 -1 2 0.10652196D+00 0.22446470D+00 0.33609979D+06 0.33609979D+06 0.33609979D+06 0.10809197D+01  1  2  5  6  6  2        1 -.611866513503D-04 0.100000000000D+01
  </mgrwgt>
  </event>
  <event>
  6     66 -.18337608E-05 0.11944908E+03 0.75467711E-02 0.86926551E-01
        2 -1    0    0  501    0 0.00000000E+00 0.00000000E+00 0.10075396E+04 0.10075396E+04 0.32000000E+00 0.0000E+00 0.9000E+01
        1 -1    0    0  502    0 -.00000000E+00 -.00000000E+00 -.17946520E+04 0.17946521E+04 0.32000000E+00 0.0000E+00 0.9000E+01
       25  1    1    2    0    0 0.89822907E+03 0.52292163E+03 -.49585758E+03 0.11583446E+04 0.12500000E+03 0.0000E+00 0.9000E+01
        2  1    1    2  503    0 -.86247097E+02 -.10608928E+03 0.94629320E+02 0.16627780E+03 0.32000000E+00 0.0000E+00 0.9000E+01
        1  1    1    2  502    0 -.13932258E+03 -.65123646E+02 -.65454375E+03 0.67236857E+03 0.32000000E+00 0.0000E+00 0.9000E+01
       21  1    1    2  501  503 -.67265940E+03 -.35170871E+03 0.26865956E+03 0.80520072E+03 0.75000000E+00 0.0000E+00 0.9000E+01
#aMCatNLO 2  0  0  4  1 0.61618951D+02 0.00000000D+00  -5  6  0 0.00000000D+00 0.00000000D+00 0.00000000D+00 0.00000000D+00 0.00000000D+00
  <mgrwgt>
 -.9418228960D-05    3    2    0
 0.134468698125793D+04 0.000000000000000D+00 0.000000000000000D+00 0.134468698125793D+04
 0.134468698125793D+04 -.000000000000000D+00 -.000000000000000D+00 -.134468698125793D+04
 0.106581892458095D+04 0.901384581701153D+03 0.524818015990698D+03 -.180046843787740D+03
 0.111350270366205D+04 -.763536653921638D+03 -.460591053473084D+03 0.666900240396867D+03
 0.510052334272856D+03 -.137847927779515D+03 -.642269625176138D+02 -.486853396609127D+03
 0.000000000000000D+00 -.000000000000000D+00 0.000000000000000D+00 0.000000000000000D+00
 0.134468698125793D+04 0.000000000000000D+00 0.000000000000000D+00 0.134468698125793D+04
 0.134468698125793D+04 -.000000000000000D+00 -.000000000000000D+00 -.134468698125793D+04
 0.106169031645829D+04 0.898183139802519D+03 0.522886798295842D+03 -.177250589854351D+03
 0.200421764647262D+03 -.859996675349636D+02 -.105818064310948D+03 0.146885935996889D+03
 0.509308934163643D+03 -.139381846322225D+03 -.651522739010293D+02 -.485513617255211D+03
 0.917952947246665D+03 -.672801625945331D+03 -.351916460083865D+03 0.515878271112673D+03
-.446545278741D-04 0.000000000000D+00 0.000000000000D+00 0.573120395846D-07 0.000000000000D+00  6 2 1 25 2 1 21 2 0.15500610D+00 0.27610032D+00 0.10986032D+07 0.10986032D+07 0.10986032D+07 0.10451561D+01  1  2 13  3  6  4        2 -.688537819630D-04 0.100000000000D+01
-.647047665442D-08 0.000000000000D+00 0.000000000000D+00 0.573120395846D-07 0.000000000000D+00  6 2 1 25 2 1 21 2 0.15500610D+00 0.27610032D+00 0.10986032D+07 0.10986032D+07 0.10986032D+07 0.10451561D+01  1  2 13  3  6  4        2 -.997696784560D-08 0.100000000000D+01
0.385528869933D-04 0.000000000000D+00 0.000000000000D+00 0.573120395846D-07 0.689673464346D-11  6 2 1 25 2 1 21 2 0.15500610D+00 0.27610032D+00 0.10986032D+07 0.10986032D+07 0.10986032D+07 0.10451561D+01  1  2  1  3  6  4        2 0.594455299710D-04 0.100000000000D+01
  </mgrwgt>
  </event>
  <event>
  5     66 0.18337608E-05 0.11753356E+03 0.75467711E-02 0.90610149E-01
        2 -1    0    0  501    0 0.00000000E+00 0.00000000E+00 0.37282198E+03 0.37282212E+03 0.32000000E+00 0.0000E+00 0.9000E+01
        1 -1    0    0  502    0 0.00000000E+00 0.00000000E+00 -.34804770E+04 0.34804770E+04 0.32000000E+00 0.0000E+00 0.9000E+01
       25  1    1    2    0    0 -.39507528E+03 0.28583614E+03 -.14143226E+04 0.15012396E+04 0.12500000E+03 0.0000E+00 0.9000E+01
        2  1    1    2  501    0 0.29086798E+02 -.11388244E+03 0.29786519E+03 0.32021715E+03 0.32000000E+00 0.0000E+00 0.9000E+01
        1  1    1    2  502    0 0.36598849E+03 -.17195370E+03 -.19911976E+04 0.20318424E+04 0.32000000E+00 0.0000E+00 0.9000E+01
#aMCatNLO 1  0  0  2  5 0.24510907D+03 0.00000000D+00  -5  6  0 0.00000000D+00 0.00000000D+00 0.00000000D+00 0.00000000D+00 0.00000000D+00
  <mgrwgt>
 0.1068554308D-01    7    2    0
 0.113912186714467D+04 0.000000000000000D+00 0.000000000000000D+00 0.113912186714467D+04
 0.113912186714467D+04 0.000000000000000D+00 0.000000000000000D+00 -.113912186714467D+04
 0.609908611036696D+03 -.395113397606494D+03 0.285854500098769D+03 -.344290751577569D+03
 0.947865019481333D+03 0.290856254559211D+02 -.113877849851766D+03 0.940549816257132D+03
 0.720470103771308D+03 0.366027772150573D+03 -.171976650247003D+03 -.596259064679563D+03
 0.000000000000000D+00 0.000000000000000D+00 0.000000000000000D+00 -.000000000000000D+00
 0.118353398232193D+04 0.000000000000000D+00 0.000000000000000D+00 0.118353398232193D+04
 0.179982182700287D+04 0.000000000000000D+00 0.000000000000000D+00 -.179982182700287D+04
 0.593663389785973D+03 -.417281755420075D+03 0.210121477588243D+03 -.344290751577569D+03
 0.969366230714602D+03 -.622748280571317D+01 -.234516845549345D+03 0.940549816257132D+03
 0.734885305956401D+03 0.339221864862332D+03 -.263552778580321D+03 -.596259064679563D+03
 0.685440882867829D+03 0.842873733634557D+02 0.287948146541424D+03 -.616287844680939D+03
0.152396260673D-01 0.000000000000D+00 0.000000000000D+00 0.892935387004D-05 0.000000000000D+00  6 2 1 25 2 1 21 0 0.57357239D-01 0.53545802D+00 0.26285622D+06 0.26285622D+06 0.26285622D+06 0.10888245D+01  1  2  2  2  6  2        1 0.490250154642D-02 0.100000000000D+01
0.324771989193D-02 0.000000000000D+00 -.585241767842D-04 0.892935387004D-05 0.000000000000D+00  6 2 1 25 2 1 21 2 0.57357239D-01 0.53545802D+00 0.26285622D+06 0.26285622D+06 0.26285622D+06 0.10888245D+01  1  2  3  2  6  2        1 0.123861909653D-02 0.100000000000D+01
-.960697709579D-02 0.000000000000D+00 0.000000000000D+00 0.892935387004D-05 0.000000000000D+00  6 2 1 25 2 1 21 2 0.57357239D-01 0.53545802D+00 0.26285622D+06 0.26285622D+06 0.26285622D+06 0.10888245D+01  1  2 15  2  6  2        1 -.366391982276D-02 0.100000000000D+01
-.979838166016D-02 0.000000000000D+00 0.000000000000D+00 0.892935387004D-05 0.000000000000D+00  6 2 1 25 2 1 21 2 0.57357239D-01 0.53545802D+00 0.26285622D+06 0.26285622D+06 0.26285622D+06 0.10888245D+01  1  2  4  2  6  2        1 -.373691791264D-02 0.100000000000D+01
-.301680184152D-01 0.000000000000D+00 -.516708492881D-02 0.892935387004D-05 0.000000000000D+00  6 2 1 25 2 1 21 2 0.57357239D-01 0.84804243D+00 0.26285622D+06 0.26285622D+06 0.26285622D+06 0.10888245D+01  1  2  5  2  6  2        1 -.419461102266D-04 0.100000000000D+01
0.314311603066D-01 0.000000000000D+00 0.493744830639D-02 0.892935387004D-05 0.000000000000D+00  6 2 1 25 2 1 21 2 0.57357239D-01 0.53545802D+00 0.26285622D+06 0.26285622D+06 0.26285622D+06 0.10888245D+01  1  2  6  2  6  2        1 0.119872515726D-01 0.100000000000D+01
-.138246093573D-02 0.000000000000D+00 -.272952081610D-03 0.892935387004D-05 0.000000000000D+00  6 2 21 25 2 1 -1 2 0.57357239D-01 0.84804243D+00 0.26285622D+06 0.26285622D+06 0.26285622D+06 0.10888245D+01  1  2  5  6  6  2        1 -.452900749636D-07 0.100000000000D+01
  </mgrwgt>
  </event>
  <event>
  5     66 0.18337608E-05 0.16692499E+02 0.75467711E-02 0.95141994E-01
        2 -1    0    0  501    0 0.00000000E+00 0.00000000E+00 0.96361593E+03 0.96361598E+03 0.32000000E+00 0.0000E+00 0.9000E+01
        1 -1    0    0  502    0 0.00000000E+00 0.00000000E+00 -.12155845E+04 0.12155846E+04 0.32000000E+00 0.0000E+00 0.9000E+01
       25  1    1    2    0    0 0.62955450E+02 -.46131697E+03 -.46974242E+03 0.67309708E+03 0.12500000E+03 0.0000E+00 0.9000E+01
        2  1    1    2  501    0 -.48351619E+02 0.45323199E+03 0.80155225E+03 0.92208635E+03 0.32000000E+00 0.0000E+00 0.9000E+01
        1  1    1    2  502    0 -.14603832E+02 0.80849789E+01 -.58377842E+03 0.58401711E+03 0.32000000E+00 0.0000E+00 0.9000E+01
#aMCatNLO 1  0  0  1  1 0.16100122D+01 0.00000000D+00  -5  6  0 0.00000000D+00 0.00000000D+00 0.00000000D+00 0.00000000D+00 0.00000000D+00
  <mgrwgt>
 0.5155915398D-02   10    2    0
 0.108229233569786D+04 0.000000000000000D+00 0.000000000000000D+00 0.108229233569786D+04
 0.108229233569786D+04 0.000000000000000D+00 0.000000000000000D+00 -.108229233569786D+04
 0.622964249233622D+03 0.629554254876439D+02 -.461317389223329D+03 -.394566010478668D+03
 0.102161782696236D+04 -.483516480230115D+02 0.453232266388445D+03 0.914300615336741D+03
 0.520002595199744D+03 -.146037774646324D+02 0.808512283488363D+01 -.519734604858073D+03
 0.000000000000000D+00 0.000000000000000D+00 0.000000000000000D+00 0.000000000000000D+00
 0.108400116849497D+04 0.000000000000000D+00 0.000000000000000D+00 0.108400116849497D+04
 0.108267192809025D+04 0.000000000000000D+00 0.000000000000000D+00 -.108267192809025D+04
 0.623301059053025D+03 0.629085847548173D+02 -.461778500534311D+03 -.394566010478668D+03
 0.102128635720275D+04 -.484284303328813D+02 0.452476403074023D+03 0.914300615336741D+03
 0.519997853901188D+03 -.146428657573515D+02 0.770032838757116D+01 -.519734604858073D+03
 0.208782642826101D+01 0.162711335415544D+00 0.160176907271688D+01 0.132924040472750D+01
0.232681315729D-03 0.000000000000D+00 0.000000000000D+00 0.766641112886D-04 0.000000000000D+00  6 2 1 25 2 1 21 0 0.14824861D+00 0.18701301D+00 0.22780461D+06 0.22780461D+06 0.22780461D+06 0.10935098D+01  1  2  2  1  6  1        2 0.957705549305D-03 0.100000000000D+01
0.166402338793D-03 0.000000000000D+00 -.893557518798D-06 0.766641112886D-04 0.000000000000D+00  6 2 1 25 2 1 21 2 0.14824861D+00 0.18701301D+00 0.22780461D+06 0.22780461D+06 0.22780461D+06 0.10935098D+01  1  2  3  1  6  1        2 0.818983671208D-03 0.100000000000D+01
-.159440465078D-03 0.000000000000D+00 0.000000000000D+00 0.766641112886D-04 0.000000000000D+00  6 2 1 25 2 1 21 2 0.14824861D+00 0.18701301D+00 0.22780461D+06 0.22780461D+06 0.22780461D+06 0.10935098D+01  1  2 15  1  6  1        2 -.784719363776D-03 0.100000000000D+01
-.886901096698D-02 0.000000000000D+00 0.000000000000D+00 0.766641112886D-04 0.000000000000D+00  6 2 1 25 2 1 21 2 0.14824861D+00 0.18701301D+00 0.22780461D+06 0.22780461D+06 0.22780461D+06 0.10935098D+01  1  2  4  1  6  1        2 -.436506795182D-01 0.100000000000D+01
-.367565035253D+00 0.000000000000D+00 -.280884350754D-01 0.766641112886D-04 0.000000000000D+00  6 2 1 25 2 1 21 2 0.14851210D+00 0.18701301D+00 0.22780461D+06 0.22780461D+06 0.22780461D+06 0.10935098D+01  1  2  5  1  6  1        2 -.180456853309D+01 0.100000000000D+01
0.367614377809D+00 0.000000000000D+00 0.280883907903D-01 0.766641112886D-04 0.000000000000D+00  6 2 1 25 2 1 21 2 0.14824861D+00 0.18701301D+00 0.22780461D+06 0.22780461D+06 0.22780461D+06 0.10935098D+01  1  2  6  1  6  1        2 0.180929051185D+01 0.100000000000D+01
0.885346584488D-02 0.000000000000D+00 0.000000000000D+00 0.766641112886D-04 0.172609259071D-03  6 2 1 25 2 1 21 2 0.14848268D+00 0.18707860D+00 0.22835544D+06 0.22835544D+06 0.22835544D+06 0.10934302D+01  1  2 11  1  6  1        2 0.434360560951D-01 0.100000000000D+01
0.146085380844D-14 0.000000000000D+00 0.000000000000D+00 0.766641112886D-04 0.000000000000D+00  6 21 1 25 2 1 -2 2 0.14853679D+00 0.18701301D+00 0.22835544D+06 0.22835544D+06 0.22835544D+06 0.10934302D+01  1  2 12  5  6  1        2 0.533966930691D-14 0.100000000000D+01
-.122023024581D-03 0.000000000000D+00 -.932723825960D-05 0.766641112886D-04 0.000000000000D+00  6 21 1 25 2 1 -2 2 0.14851210D+00 0.18701301D+00 0.22780461D+06 0.22780461D+06 0.22780461D+06 0.10935098D+01  1  2  5  5  6  1        2 -.446406523105D-03 0.100000000000D+01
0.281674591885D-04 0.000000000000D+00 0.000000000000D+00 0.766641112886D-04 0.563267851463D-07  6 21 1 25 2 1 -2 2 0.14848268D+00 0.18707860D+00 0.22835544D+06 0.22835544D+06 0.22835544D+06 0.10934302D+01  1  2 11  5  6  1        2 0.102996725295D-03 0.100000000000D+01
  </mgrwgt>
  </event>
  <event>
  5     66 0.18337608E-05 0.96548282E+02 0.75467711E-02 0.94253473E-01
        2 -1    0    0  501    0 0.00000000E+00 0.00000000E+00 0.11134939E+04 0.11134939E+04 0.32000000E+00 0.0000E+00 0.9000E+01
        1 -1    0    0  502    0 -.00000000E+00 -.00000000E+00 -.23783582E+04 0.23783582E+04 0.32000000E+00 0.0000E+00 0.9000E+01
       25  1    1    2    0    0 0.62034973E+02 0.46787553E+03 0.16960652E+03 0.51686286E+03 0.12500000E+03 0.0000E+00 0.9000E+01
        2  1    1    2  501    0 -.14288581E+03 -.12958415E+03 0.74416741E+03 0.76876111E+03 0.32000000E+00 0.0000E+00 0.9000E+01
        1  1    1    2  502    0 0.80850838E+02 -.33829138E+03 -.21786383E+04 0.22062282E+04 0.32000000E+00 0.0000E+00 0.9000E+01
#aMCatNLO 1  0  0  5  2 0.37137408D+02 0.00000000D+00  -5  6  0 0.00000000D+00 0.00000000D+00 0.00000000D+00 0.00000000D+00 0.00000000D+00
  <mgrwgt>
 0.5852111502D-02    8    2    0
 0.162735594927896D+04 0.000000000000000D+00 0.000000000000000D+00 0.162735594927896D+04
 0.162735594927896D+04 -.000000000000000D+00 -.000000000000000D+00 -.162735594927896D+04
 0.620510950463727D+03 0.620167766069140D+02 0.467896348783835D+03 0.382930497426676D+03
 0.111388377710205D+04 -.142873988307251D+03 -.129573429885688D+03 0.109705734518482D+04
 0.152031717099214D+04 0.808572117003374D+02 -.338322918898147D+03 -.147998784261150D+04
 0.000000000000000D+00 0.000000000000000D+00 0.000000000000000D+00 0.000000000000000D+00
 0.162735594927896D+04 0.000000000000000D+00 0.000000000000000D+00 0.162735594927896D+04
 0.162735594927896D+04 -.000000000000000D+00 -.000000000000000D+00 -.162735594927896D+04
 0.620206102596987D+03 0.620380229654792D+02 0.467807449724684D+03 0.382541610007547D+03
 0.111320996486741D+04 -.142835850980064D+03 -.129733004172036D+03 0.109635929018885D+04
 0.103872621505914D+04 0.223637145075246D+02 -.214584741193972D+03 -.101607352242406D+04
 0.482569616034383D+03 0.584341135070599D+02 -.123489704358677D+03 -.462827377772343D+03
0.148347190330D-03 0.000000000000D+00 0.000000000000D+00 0.336315589845D-04 0.000000000000D+00  6 2 1 25 2 1 21 0 0.17130675D+00 0.36590127D+00 0.26470513D+06 0.26470513D+06 0.26470513D+06 0.10885966D+01  1  2  2  4  6  5        1 0.809602058773D-04 0.100000000000D+01
0.168206260575D-04 0.000000000000D+00 -.569692271578D-06 0.336315589845D-04 0.000000000000D+00  6 2 1 25 2 1 21 2 0.17130675D+00 0.36590127D+00 0.26470513D+06 0.26470513D+06 0.26470513D+06 0.10885966D+01  1  2  3  4  6  5        1 0.108784847292D-04 0.100000000000D+01
-.937436271159D-04 0.000000000000D+00 0.000000000000D+00 0.336315589845D-04 0.000000000000D+00  6 2 1 25 2 1 21 2 0.17130675D+00 0.36590127D+00 0.26470513D+06 0.26470513D+06 0.26470513D+06 0.10885966D+01  1  2 15  4  6  5        1 -.606272687209D-04 0.100000000000D+01
0.142393449246D-01 0.000000000000D+00 0.000000000000D+00 0.336315589845D-04 0.000000000000D+00  6 2 1 25 2 1 21 2 0.17130675D+00 0.36590127D+00 0.26703043D+06 0.26703043D+06 0.26703043D+06 0.10883125D+01  1  2 12  4  6  5        1 0.919742340698D-02 0.100000000000D+01
0.814859256400D-09 0.000000000000D+00 0.000000000000D+00 0.336315589845D-04 0.000000000000D+00  6 2 1 25 2 1 21 2 0.17130675D+00 0.36590127D+00 0.26703043D+06 0.26703043D+06 0.26703043D+06 0.10883125D+01  1  2 12  4  6  5        1 0.526330785434D-09 0.100000000000D+01
-.108650424032D-01 0.000000000000D+00 0.000000000000D+00 0.336315589845D-04 0.000000000000D+00  6 2 1 25 2 1 21 2 0.17130675D+00 0.36590127D+00 0.26470513D+06 0.26470513D+06 0.26470513D+06 0.10885966D+01  1  2  4  4  6  5        1 -.702680134861D-02 0.100000000000D+01
-.154920171584D-01 0.000000000000D+00 0.000000000000D+00 0.336315589845D-04 0.000000000000D+00  6 2 1 25 2 1 21 2 0.17130675D+00 0.36590127D+00 0.26470513D+06 0.26470513D+06 0.26470513D+06 0.10885966D+01  1  2  5  4  6  5        1 -.100192270791D-01 0.100000000000D+01
0.211361812382D-01 0.000000000000D+00 -.000000000000D+00 0.336315589845D-04 0.000000000000D+00  6 2 1 25 2 1 21 2 0.17130675D+00 0.36590127D+00 0.26470513D+06 0.26470513D+06 0.26470513D+06 0.10885966D+01  1  2  6  4  6  5        1 0.136695045742D-01 0.100000000000D+01
  </mgrwgt>
  </event>
  <event>
  5     66 0.18337608E-05 0.45405313E+02 0.75467711E-02 0.87788616E-01
        2 -1    0    0  501    0 0.00000000E+00 0.00000000E+00 0.18040429E+04 0.18040430E+04 0.32000000E+00 0.0000E+00 0.9000E+01
        1 -1    0    0  502    0 0.00000000E+00 0.00000000E+00 -.86148432E+03 0.86148438E+03 0.32000000E+00 0.0000E+00 0.9000E+01
       25  1    1    2    0    0 0.19094573E+03 0.58822080E+03 0.61939548E+03 0.88416047E+03 0.12500000E+03 0.0000E+00 0.9000E+01
        2  1    1    2  501    0 -.32451220E+02 -.31772330E+02 0.93684470E+03 0.93794492E+03 0.32000000E+00 0.0000E+00 0.9000E+01
        1  1    1    2  502    0 -.15849451E+03 -.55644847E+03 -.61368157E+03 0.84342195E+03 0.32000000E+00 0.0000E+00 0.9000E+01
#aMCatNLO 1  0  0  5  2 0.10785509D+02 0.00000000D+00  -5  6  0 0.00000000D+00 0.00000000D+00 0.00000000D+00 0.00000000D+00 0.00000000D+00
  <mgrwgt>
 0.7581340538D-02    3    2    0
 0.124665745261620D+04 0.000000000000000D+00 0.000000000000000D+00 0.124665745261620D+04
 0.124665745261620D+04 -.000000000000000D+00 -.000000000000000D+00 -.124665745261620D+04
 0.711193338457360D+03 0.190959356503706D+03 0.588283220465987D+03 0.328067586554939D+03
 0.648424230553937D+03 -.324439803063500D+02 -.317652417950281D+02 0.646832544268645D+03
 0.113369733622111D+04 -.158515376197356D+03 -.556517978670958D+03 -.974900130823585D+03
 0.000000000000000D+00 0.000000000000000D+00 0.000000000000000D+00 0.000000000000000D+00
 0.124665745261620D+04 0.000000000000000D+00 0.000000000000000D+00 0.124665745261620D+04
 0.124665745261620D+04 -.000000000000000D+00 -.000000000000000D+00 -.124665745261620D+04
 0.561848947482705D+03 0.164541400931132D+03 0.495534696073227D+03 0.165592065494268D+03
 0.514917221177669D+03 -.565854429482484D+02 -.116521423270462D+03 0.498357893717666D+03
 0.748021548003892D+03 0.490918757247729D+03 -.425726323605716D+03 -.370529496058876D+03
 0.668527188568141D+03 -.598874715230613D+03 0.467130508029507D+02 -.293420463153058D+03
0.383205628067D-02 0.000000000000D+00 0.000000000000D+00 0.253847227968D-04 0.000000000000D+00  6 2 1 25 2 1 21 0 0.27754507D+00 0.13253606D+00 0.39379618D+06 0.39379618D+06 0.39379618D+06 0.10759173D+01  1  2  2  4  6  5        1 0.943076648988D-02 0.100000000000D+01
0.174651748171D-02 0.000000000000D+00 -.147161051214D-04 0.253847227968D-04 0.000000000000D+00  6 2 1 25 2 1 21 2 0.27754507D+00 0.13253606D+00 0.39379618D+06 0.39379618D+06 0.39379618D+06 0.10759173D+01  1  2  3  4  6  5        1 0.497560463204D-02 0.100000000000D+01
-.239569582180D-02 0.000000000000D+00 0.000000000000D+00 0.253847227968D-04 0.000000000000D+00  6 2 1 25 2 1 21 2 0.27754507D+00 0.13253606D+00 0.39379618D+06 0.39379618D+06 0.39379618D+06 0.10759173D+01  1  2 15  4  6  5        1 -.682503058385D-02 0.100000000000D+01
  </mgrwgt>
  </event>
  <event>
  5     66 0.18337608E-05 0.54927744E+02 0.75467711E-02 0.94291830E-01
        2 -1    0    0  501    0 0.00000000E+00 0.00000000E+00 0.33497676E+04 0.33497676E+04 0.32000000E+00 0.0000E+00 0.9000E+01
        1 -1    0    0  502    0 0.00000000E+00 0.00000000E+00 -.32767495E+03 0.32767510E+03 0.32000000E+00 0.0000E+00 0.9000E+01
       25  1    1    2    0    0 -.21104998E+01 0.46645276E+03 0.13210586E+04 0.14065573E+04 0.12500000E+03 0.0000E+00 0.9000E+01
        2  1    1    2  501    0 -.51410929E+02 0.19377337E+02 0.17756096E+04 0.17764594E+04 0.32000000E+00 0.0000E+00 0.9000E+01
        1  1    1    2  502    0 0.53521429E+02 -.48583010E+03 -.74575554E+02 0.49442597E+03 0.32000000E+00 0.0000E+00 0.9000E+01
#aMCatNLO 1  0  0  4  1 0.18159208D+02 0.00000000D+00  -5  6  0 0.00000000D+00 0.00000000D+00 0.00000000D+00 0.00000000D+00 0.00000000D+00
  <mgrwgt>
 0.5636302813D-02    8    2    0
 0.104768088423624D+04 0.000000000000000D+00 0.000000000000000D+00 0.104768088423624D+04
 0.104768088423624D+04 -.000000000000000D+00 -.000000000000000D+00 -.104768088423624D+04
 0.563352905691520D+03 -.212835852944903D+01 0.466526525650663D+03 0.289982701734723D+03
 0.556695972666962D+03 -.513980877227595D+02 0.193724967652713D+02 0.553979556419854D+03
 0.975312890114001D+03 0.535264462522084D+02 -.485899022415935D+03 -.843962258154577D+03
 0.000000000000000D+00 0.000000000000000D+00 0.000000000000000D+00 0.000000000000000D+00
 0.104768088423624D+04 0.000000000000000D+00 0.000000000000000D+00 0.104768088423624D+04
 0.104768088423624D+04 -.000000000000000D+00 -.000000000000000D+00 -.104768088423624D+04
 0.563526567569774D+03 -.215796279775406D+01 0.466537683820498D+03 0.290301782855255D+03
 0.257494759395724D+03 -.416514244673567D+02 0.658835334502309D+01 0.254018313427011D+03
 0.974822669425976D+03 0.534752142103568D+02 -.485879712503659D+03 -.843410068275987D+03
 0.299517772081008D+03 -.966582694524610D+01 0.127536753381383D+02 0.299089971993721D+03
0.187690398067D-03 0.000000000000D+00 0.000000000000D+00 0.212351665964D-04 0.000000000000D+00  6 2 1 25 2 1 21 0 0.51534887D+00 0.50411543D-01 0.26355553D+06 0.26355553D+06 0.26355553D+06 0.10887381D+01  1  2  2  3  6  4        2 0.230499228612D-03 0.100000000000D+01
0.618171666148D-04 0.000000000000D+00 -.720780548594D-06 0.212351665964D-04 0.000000000000D+00  6 2 1 25 2 1 21 2 0.51534887D+00 0.50411543D-01 0.26355553D+06 0.26355553D+06 0.26355553D+06 0.10887381D+01  1  2  3  3  6  4        2 0.899877453970D-04 0.100000000000D+01
-.120014283221D-03 0.000000000000D+00 0.000000000000D+00 0.212351665964D-04 0.000000000000D+00  6 2 1 25 2 1 21 2 0.51534887D+00 0.50411543D-01 0.26355553D+06 0.26355553D+06 0.26355553D+06 0.10887381D+01  1  2 15  3  6  4        2 -.174705754954D-03 0.100000000000D+01
0.573690338325D-02 0.000000000000D+00 0.000000000000D+00 0.212351665964D-04 0.000000000000D+00  6 2 1 25 2 1 21 2 0.51534887D+00 0.50411543D-01 0.26521649D+06 0.26521649D+06 0.26521649D+06 0.10885339D+01  1  2 12  3  6  4        2 0.834388967443D-02 0.100000000000D+01
0.510776323079D-08 0.000000000000D+00 0.000000000000D+00 0.212351665964D-04 0.000000000000D+00  6 2 1 25 2 1 21 2 0.51534887D+00 0.50411543D-01 0.26521649D+06 0.26521649D+06 0.26521649D+06 0.10885339D+01  1  2 12  3  6  4        2 0.742885316933D-08 0.100000000000D+01
-.689790285854D-02 0.000000000000D+00 0.000000000000D+00 0.212351665964D-04 0.000000000000D+00  6 2 1 25 2 1 21 2 0.51534887D+00 0.50411543D-01 0.26355553D+06 0.26355553D+06 0.26355553D+06 0.10887381D+01  1  2  4  3  6  4        2 -.100413325327D-01 0.100000000000D+01
-.761724839921D-02 0.000000000000D+00 0.000000000000D+00 0.212351665964D-04 0.000000000000D+00  6 2 1 25 2 1 21 2 0.51534887D+00 0.50411543D-01 0.26355553D+06 0.26355553D+06 0.26355553D+06 0.10887381D+01  1  2  5  3  6  4        2 -.110884896075D-01 0.100000000000D+01
0.125550222588D-01 0.000000000000D+00 -.000000000000D+00 0.212351665964D-04 0.000000000000D+00  6 2 1 25 2 1 21 2 0.51534887D+00 0.50411543D-01 0.26355553D+06 0.26355553D+06 0.26355553D+06 0.10887381D+01  1  2  6  3  6  4        2 0.182764466304D-01 0.100000000000D+01
  </mgrwgt>
  </event>
  <event>
  5     66 0.18337608E-05 0.28383560E+02 0.75467711E-02 0.91831179E-01
        2 -1    0    0  501    0 0.00000000E+00 0.00000000E+00 0.32523031E+04 0.32523031E+04 0.32000000E+00 0.0000E+00 0.9000E+01
        1 -1    0    0  502    0 0.00000000E+00 0.00000000E+00 -.69866373E+03 0.69866381E+03 0.32000000E+00 0.0000E+00 0.9000E+01
       25  1    1    2    0    0 -.47305614E+03 0.84682404E+02 0.92826423E+03 0.10527358E+04 0.12500000E+03 0.0000E+00 0.9000E+01
        2  1    1    2  501    0 0.49925157E+03 -.73761076E+02 0.22333164E+04 0.22896277E+04 0.32000000E+00 0.0000E+00 0.9000E+01
        1  1    1    2  502    0 -.26195438E+02 -.10921328E+02 -.60794123E+03 0.60860342E+03 0.32000000E+00 0.0000E+00 0.9000E+01
#aMCatNLO 1  0  0  2  5 0.32395457D+02 0.00000000D+00  -5  6  0 0.00000000D+00 0.00000000D+00 0.00000000D+00 0.00000000D+00 0.00000000D+00
  <mgrwgt>
 0.1032086837D+00    4    2    0
 0.150740386061318D+04 0.000000000000000D+00 0.000000000000000D+00 0.150740386061318D+04
 0.150740386061318D+04 0.000000000000000D+00 0.000000000000000D+00 -.150740386061318D+04
 0.593392887579970D+03 -.473020217364572D+03 0.846784974380761D+02 0.324917751233288D+03
 0.110883829568849D+04 0.499218085865241D+03 -.737561287538294D+02 0.987351863421372D+03
 0.131257653795790D+04 -.261978685006684D+02 -.109223686842467D+02 -.131226961465466D+04
 0.000000000000000D+00 -.000000000000000D+00 0.000000000000000D+00 0.000000000000000D+00
 0.253691505672510D+04 0.000000000000000D+00 0.000000000000000D+00 0.253691505672510D+04
 0.151844622270987D+04 0.000000000000000D+00 0.000000000000000D+00 -.151844622270987D+04
 0.589321607976552D+03 -.473010018969760D+03 0.486305923858495D+02 0.324917751233288D+03
 0.111540917728663D+04 0.499237265264812D+03 -.141548873342399D+03 0.987351863421372D+03
 0.131568345761525D+04 -.261752053531347D+02 -.910289938494394D+02 -.131226961465466D+04
 0.103494703655653D+04 -.520409419165225D-01 0.183947274805989D+03 0.101846883401523D+04
0.183462800128D+00 0.000000000000D+00 0.000000000000D+00 0.156616597650D-03 0.000000000000D+00  6 2 1 25 2 1 21 0 0.50035433D+00 0.10748674D+00 0.26499447D+06 0.26499447D+06 0.26499447D+06 0.10885611D+01  1  2  2  2  6  2        1 0.906328141354D-01 0.100000000000D+01
0.136676488631D+00 0.000000000000D+00 -.704545459354D-03 0.156616597650D-03 0.000000000000D+00  6 2 1 25 2 1 21 2 0.50035433D+00 0.10748674D+00 0.26499447D+06 0.26499447D+06 0.26499447D+06 0.10885611D+01  1  2  3  2  6  2        1 0.800086427876D-01 0.100000000000D+01
-.113077585404D+00 0.000000000000D+00 0.000000000000D+00 0.156616597650D-03 0.000000000000D+00  6 2 1 25 2 1 21 2 0.50035433D+00 0.10748674D+00 0.26499447D+06 0.26499447D+06 0.26499447D+06 0.10885611D+01  1  2 15  2  6  2        1 -.661941510828D-01 0.100000000000D+01
-.211590289518D-02 0.000000000000D+00 0.000000000000D+00 0.156616597650D-03 0.000000000000D+00  6 2 1 25 2 1 21 2 0.50035433D+00 0.10748674D+00 0.26499447D+06 0.26499447D+06 0.26499447D+06 0.10885611D+01  1  2  4  2  6  2        1 -.123862209667D-02 0.100000000000D+01
  </mgrwgt>
  </event>
  <event>
  5     66 0.18337608E-05 0.27186565E+02 0.75467711E-02 0.92900852E-01
        2 -1    0    0  501    0 0.00000000E+00 0.00000000E+00 0.26036165E+04 0.26036165E+04 0.32000000E+00 0.0000E+00 0.9000E+01
        1 -1    0    0  502    0 0.00000000E+00 0.00000000E+00 -.42203950E+03 0.42203962E+03 0.32000000E+00 0.0000E+00 0.9000E+01
       25  1    1    2    0    0 0.54677797E+03 0.73626230E+02 0.57047064E+03 0.80339823E+03 0.12500000E+03 0.0000E+00 0.9000E+01
        2  1    1    2  501    0 0.18369302E+02 0.20047711E+02 0.16479894E+04 0.16482137E+04 0.32000000E+00 0.0000E+00 0.9000E+01
        1  1    1    2  502    0 -.56514727E+03 -.93673941E+02 -.36883048E+02 0.57404417E+03 0.32000000E+00 0.0000E+00 0.9000E+01
#aMCatNLO 1  0  0  4  1 0.32626267D+01 0.00000000D+00  -5  6  0 0.00000000D+00 0.00000000D+00 0.00000000D+00 0.00000000D+00 0.00000000D+00
  <mgrwgt>
 0.2130609157D-01    9    2    0
 0.104825054880827D+04 0.000000000000000D+00 0.000000000000000D+00 0.104825054880827D+04
 0.104825054880827D+04 -.000000000000000D+00 -.000000000000000D+00 -.104825054880827D+04
 0.565915875969393D+03 0.546857702380236D+03 0.736407187951832D+02 -.126284027867090D+02
 0.663721599295529D+03 0.183664116994209D+02 0.200445559162015D+02 0.663164573896121D+03
 0.866863622351623D+03 -.565224114079658D+03 -.936852747113855D+02 -.650536171109412D+03
 0.000000000000000D+00 0.000000000000000D+00 0.000000000000000D+00 0.000000000000000D+00
 0.104825054880827D+04 0.000000000000000D+00 0.000000000000000D+00 0.104825054880827D+04
 0.104825054880827D+04 -.000000000000000D+00 -.000000000000000D+00 -.104825054880827D+04
 0.565916094885063D+03 0.546858423839477D+03 0.736415061743585D+02 -.126023527221692D+02
 0.603060523556358D+03 0.182605233827301D+02 0.210677715653013D+02 0.602415718054509D+03
 0.866832827072673D+03 -.565223008976289D+03 -.936840686344096D+02 -.650496268627805D+03
 0.606916521024509D+02 0.104061754080511D+00 -.102520910525091D+01 0.606829032954652D+02
0.680879419725D-04 0.000000000000D+00 0.000000000000D+00 0.174130203368D-04 0.000000000000D+00  6 2 1 25 2 1 21 0 0.40055639D+00 0.64929165D-01 0.33982904D+06 0.33982904D+06 0.33982904D+06 0.10805690D+01  1  2  2  3  6  4        2 0.172635583437D-03 0.100000000000D+01
0.472654158387D-04 0.000000000000D+00 -.261475625141D-06 0.174130203368D-04 0.000000000000D+00  6 2 1 25 2 1 21 2 0.40055639D+00 0.64929165D-01 0.33982904D+06 0.33982904D+06 0.33982904D+06 0.10805690D+01  1  2  3  3  6  4        2 0.139929278076D-03 0.100000000000D+01
-.448018678775D-04 0.000000000000D+00 0.000000000000D+00 0.174130203368D-04 0.000000000000D+00  6 2 1 25 2 1 21 2 0.40055639D+00 0.64929165D-01 0.33982904D+06 0.33982904D+06 0.33982904D+06 0.10805690D+01  1  2 15  3  6  4        2 -.132635943582D-03 0.100000000000D+01
0.119748026020D-02 0.000000000000D+00 0.000000000000D+00 0.174130203368D-04 0.000000000000D+00  6 2 1 25 2 1 21 2 0.40055639D+00 0.64929165D-01 0.34083448D+06 0.34083448D+06 0.34083448D+06 0.10804751D+01  1  2 12  3  6  4        2 0.354381151622D-02 0.100000000000D+01
0.176712650114D-08 0.000000000000D+00 0.000000000000D+00 0.174130203368D-04 0.000000000000D+00  6 2 1 25 2 1 21 2 0.40055639D+00 0.64929165D-01 0.34083448D+06 0.34083448D+06 0.34083448D+06 0.10804751D+01  1  2 12  3  6  4        2 0.522961709975D-08 0.100000000000D+01
-.413313616753D-01 0.000000000000D+00 0.000000000000D+00 0.174130203368D-04 0.000000000000D+00  6 2 1 25 2 1 21 2 0.40055639D+00 0.64929165D-01 0.33982904D+06 0.33982904D+06 0.33982904D+06 0.10805690D+01  1  2  4  3  6  4        2 -.122361508907D+00 0.100000000000D+01
-.118969507707D+00 0.000000000000D+00 0.000000000000D+00 0.174130203368D-04 0.000000000000D+00  6 2 1 25 2 1 21 2 0.40055639D+00 0.64929165D-01 0.33982904D+06 0.33982904D+06 0.33982904D+06 0.10805690D+01  1  2  5  3  6  4        2 -.352209264028D+00 0.100000000000D+01
0.130343355218D+00 0.000000000000D+00 -.000000000000D+00 0.174130203368D-04 0.000000000000D+00  6 2 1 25 2 1 21 2 0.40055639D+00 0.64929165D-01 0.33982904D+06 0.33982904D+06 0.33982904D+06 0.10805690D+01  1  2  6  3  6  4        2 0.385881543069D+00 0.100000000000D+01
0.359099556032D-01 0.000000000000D+00 0.000000000000D+00 0.174130203368D-04 0.505473270554D-04  6 2 1 25 2 1 21 2 0.40055639D+00 0.64929165D-01 0.34083448D+06 0.34083448D+06 0.34083448D+06 0.10804751D+01  1  2 11  3  6  4        2 0.106271575777D+00 0.100000000000D+01
  </mgrwgt>
  </event>
  <event>
  5     66 0.18337608E-05 0.41098988E+02 0.75467711E-02 0.86249338E-01
        2 -1    0    0  501    0 0.00000000E+00 0.00000000E+00 0.15914740E+04 0.15914740E+04 0.32000000E+00 0.0000E+00 0.9000E+01
        1 -1    0    0  502    0 0.00000000E+00 0.00000000E+00 -.28651026E+04 0.28651026E+04 0.32000000E+00 0.0000E+00 0.9000E+01
       25  1    1    2    0    0 0.78194568E+03 0.67926398E+03 0.47667573E+03 0.11470324E+04 0.12500000E+03 0.0000E+00 0.9000E+01
        2  1    1    2  501    0 -.41106829E+02 0.13653895E+00 0.67912631E+03 0.68036934E+03 0.32000000E+00 0.0000E+00 0.9000E+01
        1  1    1    2  502    0 -.74083885E+03 -.67940052E+03 -.24294306E+04 0.26291749E+04 0.32000000E+00 0.0000E+00 0.9000E+01
#aMCatNLO 1  0  0  1  4 0.14373914D+03 0.00000000D+00  -5  6  0 0.00000000D+00 0.00000000D+00 0.00000000D+00 0.00000000D+00 0.00000000D+00
  <mgrwgt>
 0.1416632049D-02    7    2    0
 0.213535392808740D+04 0.000000000000000D+00 0.000000000000000D+00 0.213535392808740D+04
 0.213535392808740D+04 0.000000000000000D+00 0.000000000000000D+00 -.213535392808740D+04
 0.133926505966509D+04 0.781993256036104D+03 0.679313926375792D+03 0.839657690362979D+03
 0.912332990705003D+03 -.410987613006152D+02 0.136512156111959D+00 0.911406802208937D+03
 0.201910980580470D+04 -.740894494735489D+03 -.679450438531904D+03 -.175106449257192D+04
 0.000000000000000D+00 0.000000000000000D+00 0.000000000000000D+00 0.000000000000000D+00
 0.237449753870805D+04 0.000000000000000D+00 0.000000000000000D+00 0.237449753870805D+04
 0.215377056266020D+04 0.000000000000000D+00 0.000000000000000D+00 -.215377056266020D+04
 0.131419206402339D+04 0.772141675030291D+03 0.640506032631850D+03 0.839657690362979D+03
 0.913049791026361D+03 -.478759223786300D+02 -.265604562640831D+02 0.911406802208937D+03
 0.204541121302002D+04 -.755984980920214D+03 -.738895717828262D+03 -.175106449257192D+04
 0.255615033298479D+03 0.317192282685527D+02 0.124950141460495D+03 0.220726976047859D+03
0.256419825926D-02 0.000000000000D+00 0.000000000000D+00 0.232509952545D-04 0.000000000000D+00  6 2 1 25 2 1 21 0 0.24484216D+00 0.44078502D+00 0.10917498D+07 0.10917498D+07 0.10917498D+07 0.10453356D+01  1  2  2  1  6  1        2 0.296086715404D-03 0.100000000000D+01
0.159305676786D-02 0.000000000000D+00 -.984719648446D-05 0.232509952545D-04 0.000000000000D+00  6 2 1 25 2 1 21 2 0.24484216D+00 0.44078502D+00 0.10917498D+07 0.10917498D+07 0.10917498D+07 0.10453356D+01  1  2  3  1  6  1        2 0.201006485697D-03 0.100000000000D+01
-.170959042613D-02 0.000000000000D+00 0.000000000000D+00 0.232509952545D-04 0.000000000000D+00  6 2 1 25 2 1 21 2 0.24484216D+00 0.44078502D+00 0.10917498D+07 0.10917498D+07 0.10917498D+07 0.10453356D+01  1  2 15  1  6  1        2 -.215710306419D-03 0.100000000000D+01
-.856381107654D-04 0.000000000000D+00 0.000000000000D+00 0.232509952545D-04 0.000000000000D+00  6 2 1 25 2 1 21 2 0.24484216D+00 0.44078502D+00 0.10917498D+07 0.10917498D+07 0.10917498D+07 0.10453356D+01  1  2  4  1  6  1        2 -.108055255995D-04 0.100000000000D+01
-.424986000607D-01 0.000000000000D+00 -.472802187146D-02 0.232509952545D-04 0.000000000000D+00  6 2 1 25 2 1 21 2 0.27313863D+00 0.44078502D+00 0.10917498D+07 0.10917498D+07 0.10917498D+07 0.10453356D+01  1  2  5  1  6  1        2 -.423546786296D-02 0.100000000000D+01
0.427876750897D-01 0.000000000000D+00 0.469988649249D-02 0.232509952545D-04 0.000000000000D+00  6 2 1 25 2 1 21 2 0.24484216D+00 0.44078502D+00 0.10917498D+07 0.10917498D+07 0.10917498D+07 0.10453356D+01  1  2  6  1  6  1        2 0.539880334111D-02 0.100000000000D+01
-.726993377109D-03 0.000000000000D+00 -.829283813711D-04 0.232509952545D-04 0.000000000000D+00  6 21 1 25 2 1 -2 2 0.27313863D+00 0.44078502D+00 0.10917498D+07 0.10917498D+07 0.10917498D+07 0.10453356D+01  1  2  5  5  6  1        2 -.172807981435D-04 0.100000000000D+01
  </mgrwgt>
  </event>
  <event>
  5     66 0.18337608E-05 0.13185771E+03 0.75467711E-02 0.94943324E-01
        2 -1    0    0  501    0 0.00000000E+00 0.00000000E+00 0.12176007E+04 0.12176008E+04 0.32000000E+00 0.0000E+00 0.9000E+01
        1 -1    0    0  502    0 0.00000000E+00 0.00000000E+00 -.54513522E+03 0.54513532E+03 0.32000000E+00 0.0000E+00 0.9000E+01
       25  1    1    2    0    0 -.61230052E+02 0.45876467E+03 0.35615369E+03 0.59723077E+03 0.12500000E+03 0.0000E+00 0.9000E+01
        2  1    1    2  501    0 0.87558545E+02 -.98639275E+02 0.65637441E+03 0.66949508E+03 0.32000000E+00 0.0000E+00 0.9000E+01
        1  1    1    2  502    0 -.26328492E+02 -.36012539E+03 -.34006259E+03 0.49601024E+03 0.32000000E+00 0.0000E+00 0.9000E+01
#aMCatNLO 1  0  0  4  5 0.96474442D+02 0.00000000D+00  -5  6  0 0.00000000D+00 0.00000000D+00 0.00000000D+00 0.00000000D+00 0.00000000D+00
  <mgrwgt>
 0.4772027372D-02    4    2    0
 0.814712935386789D+03 0.000000000000000D+00 0.000000000000000D+00 0.814712935386789D+03
 0.814712935386789D+03 -.000000000000000D+00 -.000000000000000D+00 -.814712935386789D+03
 0.499183449269841D+03 -.612063766395768D+02 0.458808450631034D+03 0.138952154042823D+03
 0.453255826978051D+03 0.875340050904323D+02 -.986116300093860D+02 0.433652382755217D+03
 0.676986594525687D+03 -.263276284508556D+02 -.360196820621647D+03 -.572604536798040D+03
 0.000000000000000D+00 0.000000000000000D+00 0.000000000000000D+00 -.000000000000000D+00
 0.814712935386789D+03 0.000000000000000D+00 0.000000000000000D+00 0.814712935386789D+03
 0.814712935386789D+03 -.000000000000000D+00 -.000000000000000D+00 -.814712935386789D+03
 0.506051136678923D+03 -.487551657088979D+02 0.444781510995443D+03 0.200636722030983D+03
 0.384585762818728D+03 -.227607536576607D+02 -.852660025021919D+02 0.374323210438645D+03
 0.621454072007607D+03 -.102446575245036D+02 -.378315127636192D+03 -.492927859639374D+03
 0.117334899268321D+03 0.817605768910621D+02 0.187996191429403D+02 -.820320728302544D+02
0.132541933490D-02 0.000000000000D+00 0.000000000000D+00 0.202572780363D-05 0.000000000000D+00  6 2 1 25 2 1 21 0 0.18732320D+00 0.83866968D-01 0.23642433D+06 0.23642433D+06 0.23642433D+06 0.10922880D+01  1  2  2  3  6  4        2 0.142179038164D-01 0.100000000000D+01
0.164423640256D-03 0.000000000000D+00 -.508995923695D-05 0.202572780363D-05 0.000000000000D+00  6 2 1 25 2 1 21 2 0.18732320D+00 0.83866968D-01 0.23642433D+06 0.23642433D+06 0.23642433D+06 0.10922880D+01  1  2  3  3  6  4        2 0.210436381881D-02 0.100000000000D+01
-.726429671819D-03 0.000000000000D+00 0.000000000000D+00 0.202572780363D-05 0.000000000000D+00  6 2 1 25 2 1 21 2 0.18732320D+00 0.83866968D-01 0.23642433D+06 0.23642433D+06 0.23642433D+06 0.10922880D+01  1  2 15  3  6  4        2 -.929715651533D-02 0.100000000000D+01
-.176043813489D-03 0.000000000000D+00 0.000000000000D+00 0.202572780363D-05 0.000000000000D+00  6 2 1 25 2 1 21 2 0.18732320D+00 0.83866968D-01 0.23642433D+06 0.23642433D+06 0.23642433D+06 0.10922880D+01  1  2  4  3  6  4        2 -.225308374790D-02 0.100000000000D+01
  </mgrwgt>
  </event>
  <event>
  5     66 0.18337608E-05 0.88912930E+02 0.75467711E-02 0.95309462E-01
        2 -1    0    0  501    0 0.00000000E+00 0.00000000E+00 0.25227709E+04 0.25227709E+04 0.32000000E+00 0.0000E+00 0.9000E+01
        1 -1    0    0  502    0 0.00000000E+00 0.00000000E+00 -.60920450E+03 0.60920459E+03 0.32000000E+00 0.0000E+00 0.9000E+01
       25  1    1    2    0    0 0.32456562E+03 -.32031274E+03 0.80180472E+01 0.47289786E+03 0.12500000E+03 0.0000E+00 0.9000E+01
        2  1    1    2  501    0 -.27256566E+02 0.84634455E+02 0.21856708E+04 0.21874787E+04 0.32000000E+00 0.0000E+00 0.9000E+01
        1  1    1    2  502    0 -.29730906E+03 0.23567828E+03 -.28012245E+03 0.47159900E+03 0.32000000E+00 0.0000E+00 0.9000E+01
#aMCatNLO 1  0  0  1  4 0.12397494D+01 0.00000000D+00  -5  6  0 0.00000000D+00 0.00000000D+00 0.00000000D+00 0.00000000D+00 0.00000000D+00
  <mgrwgt>
 0.3078903286D-01   13    2    0
 0.123971108400521D+04 0.000000000000000D+00 0.000000000000000D+00 0.123971108400521D+04
 0.123971108400521D+04 0.000000000000000D+00 0.000000000000000D+00 -.123971108400521D+04
 0.591176674826474D+03 0.324591740166473D+03 -.320333805201219D+03 -.354811663167793D+03
 0.107631343641772D+04 -.272558728707975D+02 0.846323022829551D+02 0.107263465551774D+04
 0.811932056766221D+03 -.297335867295676D+03 0.235701502918264D+03 -.717822992349943D+03
 0.000000000000000D+00 0.000000000000000D+00 0.000000000000000D+00 0.000000000000000D+00
 0.125550542062987D+04 0.000000000000000D+00 0.000000000000000D+00 0.125550542062987D+04
 0.123973556721899D+04 0.000000000000000D+00 0.000000000000000D+00 -.123973556721899D+04
 0.591324392487264D+03 0.324569729717958D+03 -.320628619092789D+03 -.354811663167793D+03
 0.107627238560547D+04 -.272959399630991D+02 0.840956328281274D+02 0.107263465551774D+04
 0.811825699864593D+03 -.297366091062480D+03 0.235296677623445D+03 -.717822992349943D+03
 0.158185098915355D+02 0.923013076210045D-01 0.123630864121627D+01 0.157698534108873D+02
0.128580056170D-03 0.000000000000D+00 0.000000000000D+00 0.419630623028D-04 0.000000000000D+00  6 2 1 25 2 1 21 0 0.38811861D+00 0.93723778D-01 0.22146467D+06 0.22146467D+06 0.22146467D+06 0.10944411D+01  1  2  2  1  6  1        2 0.223580330486D-03 0.100000000000D+01
0.357287780152D-04 0.000000000000D+00 -.493781271600D-06 0.419630623028D-04 0.000000000000D+00  6 2 1 25 2 1 21 2 0.38811861D+00 0.93723778D-01 0.22146467D+06 0.22146467D+06 0.22146467D+06 0.10944411D+01  1  2  3  1  6  1        2 0.744154185414D-04 0.100000000000D+01
-.809848790056D-04 0.000000000000D+00 0.000000000000D+00 0.419630623028D-04 0.000000000000D+00  6 2 1 25 2 1 21 2 0.38811861D+00 0.93723778D-01 0.22146467D+06 0.22146467D+06 0.22146467D+06 0.10944411D+01  1  2 15  1  6  1        2 -.168674217298D-03 0.100000000000D+01
0.341499963450D-06 0.000000000000D+00 0.000000000000D+00 0.419630623028D-04 0.000000000000D+00  6 2 1 25 2 1 21 2 0.39564573D+00 0.93723778D-01 0.22179348D+06 0.22179348D+06 0.22179348D+06 0.10943921D+01  1  2 12  1  6  1        2 0.666106755014D-06 0.100000000000D+01
0.756293941370D-13 0.000000000000D+00 0.000000000000D+00 0.419630623028D-04 0.000000000000D+00  6 2 1 25 2 1 21 2 0.39306957D+00 0.93723778D-01 0.22179348D+06 0.22179348D+06 0.22179348D+06 0.10943921D+01  1  2 12  1  6  1        2 0.150865303539D-12 0.100000000000D+01
-.168600979883D+00 0.000000000000D+00 0.000000000000D+00 0.419630623028D-04 0.000000000000D+00  6 2 1 25 2 1 21 2 0.38811861D+00 0.93723778D-01 0.22146467D+06 0.22146467D+06 0.22146467D+06 0.10944411D+01  1  2  4  1  6  1        2 -.351159854367D+00 0.100000000000D+01
-.514214112216D+00 0.000000000000D+00 -.157194382670D-02 0.419630623028D-04 0.000000000000D+00  6 2 1 25 2 1 21 2 0.39306572D+00 0.93723778D-01 0.22146467D+06 0.22146467D+06 0.22146467D+06 0.10944411D+01  1  2  5  1  6  1        2 -.102599279657D+01 0.100000000000D+01
0.514192903509D+00 0.000000000000D+00 0.157181774712D-02 0.419630623028D-04 0.000000000000D+00  6 2 1 25 2 1 21 2 0.38811861D+00 0.93723778D-01 0.22146467D+06 0.22146467D+06 0.22146467D+06 0.10944411D+01  1  2  6  1  6  1        2 0.107095406704D+01 0.100000000000D+01
0.168865184178D+00 0.000000000000D+00 0.000000000000D+00 0.419630623028D-04 0.122496874031D-02  6 2 1 25 2 1 21 2 0.39306337D+00 0.93725629D-01 0.22179348D+06 0.22179348D+06 0.22179348D+06 0.10943921D+01  1  2 11  1  6  1        2 0.336860271348D+00 0.100000000000D+01
0.587090265311D-07 0.000000000000D+00 0.000000000000D+00 0.419630623028D-04 0.000000000000D+00  6 21 1 25 2 1 -2 2 0.39564573D+00 0.93723778D-01 0.22179348D+06 0.22179348D+06 0.22179348D+06 0.10943921D+01  1  2 12  5  6  1        2 0.125984069229D-07 0.100000000000D+01
0.866347652319D-14 0.000000000000D+00 0.000000000000D+00 0.419630623028D-04 0.000000000000D+00  6 21 1 25 2 1 -2 2 0.39306957D+00 0.93723778D-01 0.22179348D+06 0.22179348D+06 0.22179348D+06 0.10943921D+01  1  2 12  5  6  1        2 0.193567865916D-14 0.100000000000D+01
-.119826730875D-02 0.000000000000D+00 -.366318832075D-05 0.419630623028D-04 0.000000000000D+00  6 21 1 25 2 1 -2 2 0.39306572D+00 0.93723778D-01 0.22146467D+06 0.22146467D+06 0.22146467D+06 0.10944411D+01  1  2  5  5  6  1        2 -.267820297101D-03 0.100000000000D+01
0.118671460838D-02 0.000000000000D+00 0.000000000000D+00 0.419630623028D-04 0.410167024897D-06  6 21 1 25 2 1 -2 2 0.39306337D+00 0.93725629D-01 0.22179348D+06 0.22179348D+06 0.22179348D+06 0.10943921D+01  1  2 11  5  6  1        2 0.265165464750D-03 0.100000000000D+01
  </mgrwgt>
  </event>
  <event>
  5     66 -.18337608E-05 0.51387911E+02 0.75467711E-02 0.91154695E-01
        2 -1    0    0  501    0 0.00000000E+00 0.00000000E+00 0.20240586E+04 0.20240586E+04 0.32000000E+00 0.0000E+00 0.9000E+01
        1 -1    0    0  502    0 -.00000000E+00 -.00000000E+00 -.36319489E+04 0.36319489E+04 0.32000000E+00 0.0000E+00 0.9000E+01
       25  1    1    2    0    0 0.53547189E+03 0.37420102E+03 0.78964565E+03 0.10324349E+04 0.12500000E+03 0.0000E+00 0.9000E+01
        2  1    1    2  501    0 -.36913877E+02 -.35757590E+02 0.10865484E+04 0.10877632E+04 0.32000000E+00 0.0000E+00 0.9000E+01
        1  1    1    2  502    0 -.49855802E+03 -.33844343E+03 -.34840844E+04 0.35358094E+04 0.32000000E+00 0.0000E+00 0.9000E+01
#aMCatNLO 1  0  0  5  4 0.74510268D+02 0.00000000D+00  -5  6  0 0.00000000D+00 0.00000000D+00 0.00000000D+00 0.00000000D+00 0.00000000D+00
  <mgrwgt>
 -.3128226561D-02    6    2    0
 0.271132391426216D+04 0.000000000000000D+00 0.000000000000000D+00 0.271132391426216D+04
 0.271132391426216D+04 -.000000000000000D+00 -.000000000000000D+00 -.271132391426216D+04
 0.131114345760741D+04 0.535497089087304D+03 0.374217112934606D+03 0.112990114009705D+04
 0.145660694004352D+04 -.369102278040209D+02 -.357540552662137D+02 0.145570019591893D+04
 0.265489743087340D+04 -.498586861283283D+03 -.338463057668392D+03 -.258560133601598D+04
 0.000000000000000D+00 0.000000000000000D+00 0.000000000000000D+00 -.000000000000000D+00
 0.271132391426216D+04 0.000000000000000D+00 0.000000000000000D+00 0.271132391426216D+04
 0.271132391426216D+04 -.000000000000000D+00 -.000000000000000D+00 -.271132391426216D+04
 0.130801506582258D+04 0.534880116854945D+03 0.373798284592994D+03 0.112670160887762D+04
 0.145308381180719D+04 -.375956381686797D+02 -.362193424725050D+02 0.145214575417127D+04
 0.243227317035493D+04 -.475166116508618D+03 -.380927804494439D+03 -.235479594545123D+04
 0.229275780539635D+03 -.221183621776472D+02 0.433488623739498D+02 -.224051417597662D+03
0.265074726671D-01 0.000000000000D+00 0.000000000000D+00 0.647565494235D-03 0.000000000000D+00  6 2 1 25 2 1 21 0 0.31139363D+00 0.55876137D+00 0.43503984D+06 0.43503984D+06 0.43503984D+06 0.10728084D+01  1  2  2  4  6  5        1 0.485744953959D-03 0.100000000000D+01
0.111788724198D-01 0.000000000000D+00 -.101795674620D-03 0.647565494235D-03 0.000000000000D+00  6 2 1 25 2 1 21 2 0.31139363D+00 0.55876137D+00 0.43503984D+06 0.43503984D+06 0.43503984D+06 0.10728084D+01  1  2  3  4  6  5        1 0.235766629014D-03 0.100000000000D+01
-.162736147189D-01 0.000000000000D+00 0.000000000000D+00 0.647565494235D-03 0.000000000000D+00  6 2 1 25 2 1 21 2 0.31139363D+00 0.55876137D+00 0.43503984D+06 0.43503984D+06 0.43503984D+06 0.10728084D+01  1  2 15  4  6  5        1 -.343216662650D-03 0.100000000000D+01
-.278118763603D+00 0.000000000000D+00 0.000000000000D+00 0.647565494235D-03 0.000000000000D+00  6 2 1 25 2 1 21 2 0.31139363D+00 0.55876137D+00 0.43503984D+06 0.43503984D+06 0.43503984D+06 0.10728084D+01  1  2  4  4  6  5        1 -.586562945685D-02 0.100000000000D+01
-.124184378619D+01 0.000000000000D+00 0.000000000000D+00 0.647565494235D-03 0.000000000000D+00  6 2 1 25 2 1 21 2 0.31139363D+00 0.55876137D+00 0.43503984D+06 0.43503984D+06 0.43503984D+06 0.10728084D+01  1  2  5  4  6  5        1 -.261909530975D-01 0.100000000000D+01
0.135370086790D+01 0.000000000000D+00 -.000000000000D+00 0.647565494235D-03 0.000000000000D+00  6 2 1 25 2 1 21 2 0.31139363D+00 0.55876137D+00 0.43503984D+06 0.43503984D+06 0.43503984D+06 0.10728084D+01  1  2  6  4  6  5        1 0.285500610733D-01 0.100000000000D+01
  </mgrwgt>
  </event>
  <event>
  5     66 0.18337608E-05 0.41378190E+02 0.75467711E-02 0.89351216E-01
        2 -1    0    0  501    0 0.00000000E+00 0.00000000E+00 0.10254455E+04 0.10254455E+04 0.32000000E+00 0.0000E+00 0.9000E+01
        1 -1    0    0  502    0 -.00000000E+00 -.00000000E+00 -.18704314E+04 0.18704314E+04 0.32000000E+00 0.0000E+00 0.9000E+01
       25  1    1    2    0    0 -.61550024E+03 -.28924263E+03 0.32384610E+03 0.76354643E+03 0.12500000E+03 0.0000E+00 0.9000E+01
        2  1    1    2  501    0 -.41143053E+02 -.45369896E+01 0.40225721E+03 0.40438138E+03 0.32000000E+00 0.0000E+00 0.9000E+01
        1  1    1    2  502    0 0.65664330E+03 0.29377962E+03 -.15710892E+04 0.17279492E+04 0.32000000E+00 0.0000E+00 0.9000E+01
#aMCatNLO 1  0  0  4  1 0.29708213D+02 0.00000000D+00  -5  6  0 0.00000000D+00 0.00000000D+00 0.00000000D+00 0.00000000D+00 0.00000000D+00
  <mgrwgt>
 0.1698839353D-02    6    2    0
 0.138492799368705D+04 0.000000000000000D+00 0.000000000000000D+00 0.138492799368705D+04
 0.138492799368705D+04 -.000000000000000D+00 -.000000000000000D+00 -.138492799368705D+04
 0.897250221392439D+03 -.615586100118395D+03 -.289277056787325D+03 0.571669045467977D+03
 0.545306154561248D+03 -.411288764243042D+02 -.453542634138855D+01 0.543733986094627D+03
 0.132729961142042D+04 0.656714976542700D+03 0.293812483128714D+03 -.111540303156260D+04
 0.000000000000000D+00 0.000000000000000D+00 0.000000000000000D+00 0.000000000000000D+00
 0.138492799368705D+04 0.000000000000000D+00 0.000000000000000D+00 0.138492799368705D+04
 0.138492799368705D+04 -.000000000000000D+00 -.000000000000000D+00 -.138492799368705D+04
 0.908108257964074D+03 -.616765735383538D+03 -.289407139330781D+03 0.587264117364345D+03
 0.283680164917395D+03 -.103792618042474D+03 0.720084316602208D+02 0.254000618458469D+03
 0.130732661763669D+04 0.654993491283233D+03 0.293622648874270D+03 -.109264456783808D+04
 0.270740946855939D+03 0.655648621427795D+02 -.762239412037101D+02 0.251379832015263D+03
0.709463345231D-03 0.000000000000D+00 0.000000000000D+00 0.136511635361D-04 0.000000000000D+00  6 2 1 25 2 1 21 0 0.15776085D+00 0.28775868D+00 0.52735239D+06 0.52735239D+06 0.52735239D+06 0.10668795D+01  1  2  2  3  6  4        2 0.912461979729D-03 0.100000000000D+01
0.320604567202D-03 0.000000000000D+00 -.272452605167D-05 0.136511635361D-04 0.000000000000D+00  6 2 1 25 2 1 21 2 0.15776085D+00 0.28775868D+00 0.52735239D+06 0.52735239D+06 0.52735239D+06 0.10668795D+01  1  2  3  3  6  4        2 0.469337468499D-03 0.100000000000D+01
-.410503201578D-03 0.000000000000D+00 0.000000000000D+00 0.136511635361D-04 0.000000000000D+00  6 2 1 25 2 1 21 2 0.15776085D+00 0.28775868D+00 0.52735239D+06 0.52735239D+06 0.52735239D+06 0.10668795D+01  1  2 15  3  6  4        2 -.600941325074D-03 0.100000000000D+01
-.347301339340D-04 0.000000000000D+00 0.000000000000D+00 0.136511635361D-04 0.000000000000D+00  6 2 1 25 2 1 21 2 0.15776085D+00 0.28775868D+00 0.52735239D+06 0.52735239D+06 0.52735239D+06 0.10668795D+01  1  2  4  3  6  4        2 -.508419243165D-04 0.100000000000D+01
-.843316795766D-03 0.000000000000D+00 0.000000000000D+00 0.136511635361D-04 0.000000000000D+00  6 2 1 25 2 1 21 2 0.15776085D+00 0.28775868D+00 0.52735239D+06 0.52735239D+06 0.52735239D+06 0.10668795D+01  1  2  5  3  6  4        2 -.123454314304D-02 0.100000000000D+01
0.150512018662D-02 0.000000000000D+00 -.000000000000D+00 0.136511635361D-04 0.000000000000D+00  6 2 1 25 2 1 21 2 0.15776085D+00 0.28775868D+00 0.52735239D+06 0.52735239D+06 0.52735239D+06 0.10668795D+01  1  2  6  3  6  4        2 0.220336629743D-02 0.100000000000D+01
  </mgrwgt>
  </event>
  <event>
  5     66 0.18337608E-05 0.12864014E+03 0.75467711E-02 0.95483095E-01
        2 -1    0    0  501    0 0.00000000E+00 0.00000000E+00 0.18021118E+04 0.18021118E+04 0.32000000E+00 0.0000E+00 0.9000E+01
        1 -1    0    0  502    0 0.00000000E+00 0.00000000E+00 -.97329862E+03 0.97329867E+03 0.32000000E+00 0.0000E+00 0.9000E+01
       25  1    1    2    0    0 -.32732647E+03 0.31292003E+03 0.13773277E+03 0.48954762E+03 0.12500000E+03 0.0000E+00 0.9000E+01
        2  1    1    2  501    0 0.21573720E+03 -.24894408E+03 0.14648713E+04 0.15014539E+04 0.32000000E+00 0.0000E+00 0.9000E+01
        1  1    1    2  502    0 0.11158926E+03 -.63975946E+02 -.77379087E+03 0.78440902E+03 0.32000000E+00 0.0000E+00 0.9000E+01
#aMCatNLO 1  0  0  1  4 0.29987791D+00 0.00000000D+00  -5  6  0 0.00000000D+00 0.00000000D+00 0.00000000D+00 0.00000000D+00 0.00000000D+00
  <mgrwgt>
 0.2729845562D-01    7    2    0
 0.132438401867781D+04 0.000000000000000D+00 0.000000000000000D+00 0.132438401867781D+04
 0.132438401867781D+04 0.000000000000000D+00 0.000000000000000D+00 -.132438401867781D+04
 0.469856283587268D+03 -.327329938870255D+03 0.312918101244460D+03 -.879205659653314D+01
 0.111483804692351D+04 0.215729996201821D+03 -.248935765793726D+03 0.106506123021904D+04
 0.106407370684483D+04 0.111599942668434D+03 -.639823354507335D+02 -.105626917362250D+04
 0.000000000000000D+00 -.000000000000000D+00 0.000000000000000D+00 0.000000000000000D+00
 0.215646542539088D+04 0.000000000000000D+00 0.000000000000000D+00 0.215646542539088D+04
 0.151149985830955D+04 0.000000000000000D+00 0.000000000000000D+00 -.151149985830955D+04
 0.379634126205391D+03 -.226673291631632D+03 0.277558981806417D+03 -.879205659653314D+01
 0.122356806700384D+04 0.492809191678172D+03 -.346269390898673D+03 0.106506123021904D+04
 0.113046065585627D+04 0.371631684820009D+03 -.155327454532862D+03 -.105626917362250D+04
 0.934302434634927D+03 -.637767584866549D+03 0.224037863625117D+03 0.644965567081325D+03
0.117656962179D-01 0.000000000000D+00 0.000000000000D+00 0.724176126160D-04 0.000000000000D+00  6 2 1 25 2 1 21 0 0.27724797D+00 0.14973826D+00 0.21521266D+06 0.21521266D+06 0.21521266D+06 0.10953885D+01  1  2  2  1  6  1        2 0.246010591409D-01 0.100000000000D+01
0.226299979654D-02 0.000000000000D+00 -.451833714556D-04 0.724176126160D-04 0.000000000000D+00  6 2 1 25 2 1 21 2 0.27724797D+00 0.14973826D+00 0.21521266D+06 0.21521266D+06 0.21521266D+06 0.10953885D+01  1  2  3  1  6  1        2 0.567749866055D-02 0.100000000000D+01
-.726959576506D-02 0.000000000000D+00 0.000000000000D+00 0.724176126160D-04 0.000000000000D+00  6 2 1 25 2 1 21 2 0.27724797D+00 0.14973826D+00 0.21521266D+06 0.21521266D+06 0.21521266D+06 0.10953885D+01  1  2 15  1  6  1        2 -.182382341713D-01 0.100000000000D+01
-.450312415340D-03 0.000000000000D+00 0.000000000000D+00 0.724176126160D-04 0.000000000000D+00  6 2 1 25 2 1 21 2 0.27724797D+00 0.14973826D+00 0.21521266D+06 0.21521266D+06 0.21521266D+06 0.10953885D+01  1  2  4  1  6  1        2 -.112976065611D-02 0.100000000000D+01
-.458798141471D-02 0.000000000000D+00 -.597799060131D-02 0.724176126160D-04 0.000000000000D+00  6 2 1 25 2 1 21 2 0.46829108D+00 0.14973826D+00 0.21521266D+06 0.21521266D+06 0.21521266D+06 0.10953885D+01  1  2  5  1  6  1        2 -.221778106517D-02 0.100000000000D+01
0.741586328772D-02 0.000000000000D+00 0.524129648827D-02 0.724176126160D-04 0.000000000000D+00  6 2 1 25 2 1 21 2 0.27724797D+00 0.14973826D+00 0.21521266D+06 0.21521266D+06 0.21521266D+06 0.10953885D+01  1  2  6  1  6  1        2 0.186051956113D-01 0.100000000000D+01
0.153097552552D-04 0.000000000000D+00 -.350062847596D-03 0.724176126160D-04 0.000000000000D+00  6 21 1 25 2 1 -2 2 0.46829108D+00 0.14973826D+00 0.21521266D+06 0.21521266D+06 0.21521266D+06 0.10953885D+01  1  2  5  5  6  1        2 0.478097050404D-06 0.100000000000D+01
  </mgrwgt>
  </event>
  <event>
  5     66 0.18337608E-05 0.33668502E+02 0.75467711E-02 0.90088713E-01
        2 -1    0    0  501    0 0.00000000E+00 0.00000000E+00 0.14057930E+04 0.14057930E+04 0.32000000E+00 0.0000E+00 0.9000E+01
        1 -1    0    0  502    0 -.00000000E+00 -.00000000E+00 -.23138392E+04 0.23138393E+04 0.32000000E+00 0.0000E+00 0.9000E+01
       25  1    1    2    0    0 -.67697429E+03 -.36715331E+02 -.27786280E+03 0.74328658E+03 0.12500000E+03 0.0000E+00 0.9000E+01
        2  1    1    2  501    0 0.19113153E+02 0.27719067E+02 0.11128071E+04 0.11133164E+04 0.32000000E+00 0.0000E+00 0.9000E+01
        1  1    1    2  502    0 0.65786113E+03 0.89962646E+01 -.17429905E+04 0.18630293E+04 0.32000000E+00 0.0000E+00 0.9000E+01
#aMCatNLO 1  0  0  4  2 0.92026414D+02 0.00000000D+00  -5  6  0 0.00000000D+00 0.00000000D+00 0.00000000D+00 0.00000000D+00 0.00000000D+00
  <mgrwgt>
 0.1642050908D-01    4    2    0
 0.180354626832544D+04 0.000000000000000D+00 0.000000000000000D+00 0.180354626832544D+04
 0.180354626832544D+04 -.000000000000000D+00 -.000000000000000D+00 -.180354626832544D+04
 0.696570157525332D+03 -.677024970857914D+03 -.367155782735102D+02 -.993687048408498D+02
 0.142813094995869D+04 0.191123840648257D+02 0.277179513016980D+02 0.142773402361256D+04
 0.148239142916686D+04 0.657912586793090D+03 0.899762697181428D+01 -.132836531877171D+04
 0.000000000000000D+00 0.000000000000000D+00 0.000000000000000D+00 -.000000000000000D+00
 0.180354626832544D+04 0.000000000000000D+00 0.000000000000000D+00 0.180354626832544D+04
 0.180354626832544D+04 -.000000000000000D+00 -.000000000000000D+00 -.180354626832544D+04
 0.689870087962347D+03 -.676249291861239D+03 -.355906410295405D+02 -.414239036481977D+02
 0.138212232825834D+04 -.721951897241133D+02 0.425917518588180D+02 0.137957817013917D+04
 0.137710451440523D+04 0.659512403988042D+03 0.113177799653341D+02 -.120885571531008D+04
 0.157995606024969D+03 0.889320775973122D+02 -.183188907946096D+02 -.129298551180893D+03
0.384829553073D-01 0.000000000000D+00 0.000000000000D+00 0.128902478487D-03 0.000000000000D+00  6 2 1 25 2 1 21 0 0.21627585D+00 0.35597527D+00 0.47685147D+06 0.47685147D+06 0.47685147D+06 0.10699684D+01  1  2  2  3  6  4        2 0.150043992124D-01 0.100000000000D+01
0.296757789555D-01 0.000000000000D+00 -.147784681175D-03 0.128902478487D-03 0.000000000000D+00  6 2 1 25 2 1 21 2 0.21627585D+00 0.35597527D+00 0.47685147D+06 0.47685147D+06 0.47685147D+06 0.10699684D+01  1  2  3  3  6  4        2 0.132462893041D-01 0.100000000000D+01
-.234789798428D-01 0.000000000000D+00 0.000000000000D+00 0.128902478487D-03 0.000000000000D+00  6 2 1 25 2 1 21 2 0.21627585D+00 0.35597527D+00 0.47685147D+06 0.47685147D+06 0.47685147D+06 0.10699684D+01  1  2 15  3  6  4        2 -.104802424910D-01 0.100000000000D+01
-.302427566820D-02 0.000000000000D+00 0.000000000000D+00 0.128902478487D-03 0.000000000000D+00  6 2 1 25 2 1 21 2 0.21627585D+00 0.35597527D+00 0.47685147D+06 0.47685147D+06 0.47685147D+06 0.10699684D+01  1  2  4  3  6  4        2 -.134993694678D-02 0.100000000000D+01
  </mgrwgt>
  </event>
  <event>
  6     66 0.18337608E-05 0.12074075E+02 0.75467711E-02 0.94390834E-01
        2 -1    0    0  501    0 0.00000000E+00 0.00000000E+00 0.28180465E+04 0.28180466E+04 0.32000000E+00 0.0000E+00 0.9000E+01
       21 -1    0    0  502  503 0.00000000E+00 0.00000000E+00 -.71081095E+03 0.71081135E+03 0.75000000E+00 0.0000E+00 0.9000E+01
       25  1    1    2    0    0 0.49455035E+03 0.86917249E+02 0.16086389E+04 0.16898162E+04 0.12500000E+03 0.0000E+00 0.9000E+01
        2  1    1    2  501    0 -.81774073E+01 -.13925814E+01 0.54329468E+03 0.54335810E+03 0.32000000E+00 0.0000E+00 0.9000E+01
        1  1    1    2  502    0 -.47048662E+03 -.88762007E+02 0.53374021E+03 0.71701818E+03 0.32000000E+00 0.0000E+00 0.9000E+01
       -1  1    1    2    0  503 -.15886328E+02 0.32373392E+01 -.57843819E+03 0.57866545E+03 0.32000000E+00 0.0000E+00 0.9000E+01
#aMCatNLO 2  0  0  2  4 0.30490289D+03 0.00000000D+00  -5  6  0 0.00000000D+00 0.00000000D+00 0.00000000D+00 0.00000000D+00 0.00000000D+00
  <mgrwgt>
 0.8860302136D-02    1    2    0
 0.610436118350829D+03 0.000000000000000D+00 0.000000000000000D+00 0.610436118350829D+03
 0.610436118350829D+03 0.000000000000000D+00 0.000000000000000D+00 -.610436118350829D+03
 0.538655825524809D+03 0.487614561554088D+03 0.883745200598447D+02 0.170138419930421D+03
 0.117716932795158D+03 -.969098994522357D+01 -.107763736682056D+01 0.117312402065114D+03
 0.564499478381691D+03 -.477923571608864D+03 -.872968826930242D+02 -.287450821995535D+03
 0.000000000000000D+00 -.000000000000000D+00 0.000000000000000D+00 -.000000000000000D+00
 0.610514548634231D+03 0.000000000000000D+00 0.000000000000000D+00 0.610514548634231D+03
 0.328100127330331D+04 0.000000000000000D+00 0.000000000000000D+00 -.328100127330331D+04
 0.544813956038826D+03 0.494663455224303D+03 0.869380861522135D+02 0.170138419930421D+03
 0.117604067750693D+03 -.816002642465127D+01 -.138961936217805D+01 0.117312402065114D+03
 0.558561858976825D+03 -.470617101149905D+03 -.887858059770712D+02 -.287450821995535D+03
 0.267053593917120D+04 -.158863276497469D+02 0.323733918703578D+01 -.267048672466908D+04
0.409344515372D-02 0.000000000000D+00 0.000000000000D+00 0.113858937436D-05 0.165490631905D-07  6 2 21 25 2 1 -1 2 0.43354565D+00 0.10935556D+00 0.26059794D+06 0.26059794D+06 0.26059794D+06 0.10891052D+01  1  2  1  6  6  2        1 0.886030213573D-02 0.100000000000D+01
  </mgrwgt>
  </event>
  <event>
  5     66 0.18337608E-05 0.14498827E+03 0.75467711E-02 0.88946006E-01
        2 -1    0    0  501    0 0.00000000E+00 0.00000000E+00 0.13859113E+04 0.13859113E+04 0.32000000E+00 0.0000E+00 0.9000E+01
        1 -1    0    0  502    0 0.00000000E+00 0.00000000E+00 -.10495527E+04 0.10495528E+04 0.32000000E+00 0.0000E+00 0.9000E+01
       25  1    1    2    0    0 -.61343206E+02 0.72503914E+03 -.18983867E+02 0.73853241E+03 0.12500000E+03 0.0000E+00 0.9000E+01
        2  1    1    2  501    0 -.82192247E+02 -.70466315E+03 0.89275124E+03 0.11403116E+04 0.32000000E+00 0.0000E+00 0.9000E+01
        1  1    1    2  502    0 0.14353545E+03 -.20375981E+02 -.53740878E+03 0.55662008E+03 0.32000000E+00 0.0000E+00 0.9000E+01
#aMCatNLO 1  0  0  5  1 0.11860572D+03 0.00000000D+00  -5  6  0 0.00000000D+00 0.00000000D+00 0.00000000D+00 0.00000000D+00 0.00000000D+00
  <mgrwgt>
 0.2945436345D-03    7    2    0
 0.120606263866768D+04 0.000000000000000D+00 0.000000000000000D+00 0.120606263866768D+04
 0.120606263866768D+04 -.000000000000000D+00 -.000000000000000D+00 -.120606263866768D+04
 0.748295275871427D+03 -.613591165616041D+02 0.725021015345090D+03 -.122067219245177D+03
 0.102682257952953D+04 -.821896367129771D+02 -.704640771114142D+03 0.742354940127928D+03
 0.637007421934405D+03 0.143548753274581D+03 -.203802442309473D+02 -.620287720882751D+03
 0.000000000000000D+00 0.000000000000000D+00 0.000000000000000D+00 -.000000000000000D+00
 0.120606263866768D+04 0.000000000000000D+00 0.000000000000000D+00 0.120606263866768D+04
 0.120606263866768D+04 -.000000000000000D+00 -.000000000000000D+00 -.120606263866768D+04
 0.749971800423041D+03 -.581756129291532D+02 0.724569039413154D+03 -.135823439118558D+03
 0.101344808316141D+04 -.778544890155963D+02 -.705256250990034D+03 0.723622357478779D+03
 0.340656813028691D+03 0.171123780121029D+03 0.514008340711201D+02 -.290037360346469D+03
 0.308048580722221D+03 -.350936781762797D+02 -.707136224942402D+02 -.297761558013751D+03
0.890775881172D-04 0.000000000000D+00 0.000000000000D+00 0.422883625605D-06 0.000000000000D+00  6 2 1 25 2 1 21 0 0.21321713D+00 0.16146966D+00 0.63415587D+06 0.63415587D+06 0.63415587D+06 0.10612905D+01  1  2  2  4  6  5        1 0.257226232530D-03 0.100000000000D+01
0.165022594053D-04 0.000000000000D+00 -.342081393037D-06 0.422883625605D-06 0.000000000000D+00  6 2 1 25 2 1 21 2 0.21321713D+00 0.16146966D+00 0.63415587D+06 0.63415587D+06 0.63415587D+06 0.10612905D+01  1  2  3  4  6  5        1 0.536733604431D-04 0.100000000000D+01
-.572536793581D-04 0.000000000000D+00 0.000000000000D+00 0.422883625605D-06 0.000000000000D+00  6 2 1 25 2 1 21 2 0.21321713D+00 0.16146966D+00 0.63415587D+06 0.63415587D+06 0.63415587D+06 0.10612905D+01  1  2 15  4  6  5        1 -.186216765438D-03 0.100000000000D+01
0.311729526716D-08 0.000000000000D+00 0.000000000000D+00 0.422883625605D-06 0.000000000000D+00  6 2 1 25 2 1 21 2 0.21321713D+00 0.16146966D+00 0.72652636D+06 0.72652636D+06 0.72652636D+06 0.10572268D+01  1  2 12  4  6  5        1 0.998040191013D-08 0.100000000000D+01
-.199616767210D-04 0.000000000000D+00 0.000000000000D+00 0.422883625605D-06 0.000000000000D+00  6 2 1 25 2 1 21 2 0.21321713D+00 0.16146966D+00 0.63415587D+06 0.63415587D+06 0.63415587D+06 0.10612905D+01  1  2  4  4  6  5        1 -.649250653124D-04 0.100000000000D+01
-.124684832714D-03 0.000000000000D+00 0.000000000000D+00 0.422883625605D-06 0.000000000000D+00  6 2 1 25 2 1 21 2 0.21321713D+00 0.16146966D+00 0.63415587D+06 0.63415587D+06 0.63415587D+06 0.10612905D+01  1  2  5  4  6  5        1 -.405535618102D-03 0.100000000000D+01
0.196868363558D-03 0.000000000000D+00 -.000000000000D+00 0.422883625605D-06 0.000000000000D+00  6 2 1 25 2 1 21 2 0.21321713D+00 0.16146966D+00 0.63415587D+06 0.63415587D+06 0.63415587D+06 0.10612905D+01  1  2  6  4  6  5        1 0.640311509930D-03 0.100000000000D+01
  </mgrwgt>
  </event>
  <event>
  5     66 -.18337608E-05 0.17158641E+03 0.75467711E-02 0.94656507E-01
        2 -1    0    0  501    0 0.00000000E+00 0.00000000E+00 0.16208102E+04 0.16208103E+04 0.32000000E+00 0.0000E+00 0.9000E+01
        1 -1    0    0  502    0 0.00000000E+00 0.00000000E+00 -.45889864E+03 0.45889875E+03 0.32000000E+00 0.0000E+00 0.9000E+01
       25  1    1    2    0    0 0.39262079E+03 -.23534165E+03 -.75241766E+02 0.48044053E+03 0.12500000E+03 0.0000E+00 0.9000E+01
        2  1    1    2  501    0 -.34476952E+03 0.70577151E+02 0.13492056E+04 0.13943468E+04 0.32000000E+00 0.0000E+00 0.9000E+01
        1  1    1    2  502    0 -.47851272E+02 0.16476450E+03 -.11205225E+03 0.20492168E+03 0.32000000E+00 0.0000E+00 0.9000E+01
#aMCatNLO 1  0  0  4  1 0.27234292D+02 0.00000000D+00  -5  6  0 0.00000000D+00 0.00000000D+00 0.00000000D+00 0.00000000D+00 0.00000000D+00
  <mgrwgt>
 -.8105168600D-02    8    2    0
 0.862431309771702D+03 0.000000000000000D+00 0.000000000000000D+00 0.862431309771702D+03
 0.862431309771702D+03 -.000000000000000D+00 -.000000000000000D+00 -.862431309771702D+03
 0.629949876576182D+03 0.392624108283810D+03 -.235352859965591D+03 -.414327392165551D+03
 0.772327572309104D+03 -.344764621482429D+03 0.705761482113229D+02 0.687492721435366D+03
 0.322585170658118D+03 -.478594868013808D+02 0.164776711754268D+03 -.273165329269815D+03
 0.000000000000000D+00 0.000000000000000D+00 0.000000000000000D+00 0.000000000000000D+00
 0.862431309771702D+03 0.000000000000000D+00 0.000000000000000D+00 0.862431309771702D+03
 0.862431309771702D+03 -.000000000000000D+00 -.000000000000000D+00 -.862431309771702D+03
 0.629223477386984D+03 0.392262896782028D+03 -.235278917005969D+03 -.413607102835092D+03
 0.527218428577283D+03 -.258041210776642D+03 0.558761761825595D+02 0.456346204002662D+03
 0.322319728374764D+03 -.480444867986829D+02 0.164814582772392D+03 -.272796422068537D+03
 0.246100985204374D+03 -.861771992067028D+02 0.145881580510173D+02 0.230057320900966D+03
0.108832344013D-04 0.000000000000D+00 0.000000000000D+00 0.436790268651D-06 0.000000000000D+00  6 2 1 25 2 1 21 0 0.24935543D+00 0.70599802D-01 0.24901153D+06 0.24901153D+06 0.24901153D+06 0.10905886D+01  1  2  2  3  6  4        2 0.884777611144D-04 0.100000000000D+01
0.602615154014D-06 0.000000000000D+00 -.417944857224D-07 0.436790268651D-06 0.000000000000D+00  6 2 1 25 2 1 21 2 0.24935543D+00 0.70599802D-01 0.24901153D+06 0.24901153D+06 0.24901153D+06 0.10905886D+01  1  2  3  3  6  4        2 0.582690679653D-05 0.100000000000D+01
-.673438563284D-05 0.000000000000D+00 0.000000000000D+00 0.436790268651D-06 0.000000000000D+00  6 2 1 25 2 1 21 2 0.24935543D+00 0.70599802D-01 0.24901153D+06 0.24901153D+06 0.24901153D+06 0.10905886D+01  1  2 15  3  6  4        2 -.651172429917D-04 0.100000000000D+01
0.567215783357D-03 0.000000000000D+00 0.000000000000D+00 0.436790268651D-06 0.000000000000D+00  6 2 1 25 2 1 21 2 0.24935543D+00 0.70599802D-01 0.24864396D+06 0.24864396D+06 0.24864396D+06 0.10906369D+01  1  2 12  3  6  4        2 0.548550592260D-02 0.100000000000D+01
0.601926765219D-07 0.000000000000D+00 0.000000000000D+00 0.436790268651D-06 0.000000000000D+00  6 2 1 25 2 1 21 2 0.24935543D+00 0.70599802D-01 0.24864396D+06 0.24864396D+06 0.24864396D+06 0.10906369D+01  1  2 12  3  6  4        2 0.582119350776D-06 0.100000000000D+01
-.162339913016D-02 0.000000000000D+00 0.000000000000D+00 0.436790268651D-06 0.000000000000D+00  6 2 1 25 2 1 21 2 0.24935543D+00 0.70599802D-01 0.24901153D+06 0.24901153D+06 0.24901153D+06 0.10905886D+01  1  2  4  3  6  4        2 -.156972412028D-01 0.100000000000D+01
-.586999807896D-03 0.000000000000D+00 0.000000000000D+00 0.436790268651D-06 0.000000000000D+00  6 2 1 25 2 1 21 2 0.24935543D+00 0.70599802D-01 0.24901153D+06 0.24901153D+06 0.24901153D+06 0.10905886D+01  1  2  5  3  6  4        2 -.567591629153D-02 0.100000000000D+01
0.801780903494D-03 0.000000000000D+00 -.000000000000D+00 0.436790268651D-06 0.000000000000D+00  6 2 1 25 2 1 21 2 0.24935543D+00 0.70599802D-01 0.24901153D+06 0.24901153D+06 0.24901153D+06 0.10905886D+01  1  2  6  3  6  4        2 0.775271342710D-02 0.100000000000D+01
  </mgrwgt>
  </event>
  <event>
  5     66 0.18337608E-05 0.79234612E+02 0.75467711E-02 0.94973052E-01
        2 -1    0    0  501    0 0.00000000E+00 0.00000000E+00 0.79394272E+03 0.79394279E+03 0.32000000E+00 0.0000E+00 0.9000E+01
        1 -1    0    0  502    0 0.00000000E+00 0.00000000E+00 -.56758888E+03 0.56758897E+03 0.32000000E+00 0.0000E+00 0.9000E+01
       25  1    1    2    0    0 -.36204209E+03 -.31748806E+03 0.50736580E+03 0.71057596E+03 0.12500000E+03 0.0000E+00 0.9000E+01
        2  1    1    2  501    0 0.30248437E+03 0.26525688E+03 -.48390135E+02 0.40521564E+03 0.32000000E+00 0.0000E+00 0.9000E+01
        1  1    1    2  502    0 0.59557719E+02 0.52231175E+02 -.23262182E+03 0.24574017E+03 0.32000000E+00 0.0000E+00 0.9000E+01
#aMCatNLO 1  0  0  4  1 0.42055885D+02 0.00000000D+00  -5  6  0 0.00000000D+00 0.00000000D+00 0.00000000D+00 0.00000000D+00 0.00000000D+00
  <mgrwgt>
 0.7015932223D-02    8    2    0
 0.671292163893058D+03 0.000000000000000D+00 0.000000000000000D+00 0.671292163893058D+03
 0.671292163893058D+03 -.000000000000000D+00 -.000000000000000D+00 -.671292163893058D+03
 0.635055543654925D+03 -.361983957610210D+03 -.317437084392089D+03 0.394806098499443D+03
 0.418992908238244D+03 0.302412448716961D+03 0.265193815531531D+03 -.117362720736961D+03
 0.288535875892947D+03 0.595715088932491D+02 0.522432688605588D+02 -.277443377762481D+03
 0.000000000000000D+00 0.000000000000000D+00 0.000000000000000D+00 -.000000000000000D+00
 0.671292163893058D+03 0.000000000000000D+00 0.000000000000000D+00 0.671292163893058D+03
 0.671292163893058D+03 -.000000000000000D+00 -.000000000000000D+00 -.671292163893058D+03
 0.629797151045531D+03 -.357771900506231D+03 -.313743415366955D+03 0.393171448590949D+03
 0.968501900219383D+02 0.595627439334511D+02 0.753688651449658D+02 0.123196188725003D+02
 0.289967187155426D+03 0.614979687463180D+02 0.539326346293000D+02 -.278191014212984D+03
 0.325969799563221D+03 0.236711187826462D+03 0.184441915592689D+03 -.127300053250465D+03
0.143068395482D-03 0.000000000000D+00 0.000000000000D+00 0.276465208262D-07 0.000000000000D+00  6 2 1 25 2 1 21 0 0.12214505D+00 0.87321378D-01 0.23954749D+06 0.23954749D+06 0.23954749D+06 0.10918572D+01  1  2  2  3  6  4        2 0.266046623283D-02 0.100000000000D+01
0.199432051593D-04 0.000000000000D+00 -.549420309426D-06 0.276465208262D-07 0.000000000000D+00  6 2 1 25 2 1 21 2 0.12214505D+00 0.87321378D-01 0.23954749D+06 0.23954749D+06 0.23954749D+06 0.10918572D+01  1  2  3  3  6  4        2 0.442120570539D-03 0.100000000000D+01
-.905384580302D-04 0.000000000000D+00 0.000000000000D+00 0.276465208262D-07 0.000000000000D+00  6 2 1 25 2 1 21 2 0.12214505D+00 0.87321378D-01 0.23954749D+06 0.23954749D+06 0.23954749D+06 0.10918572D+01  1  2 15  3  6  4        2 -.200714551148D-02 0.100000000000D+01
0.191455387271D-03 0.000000000000D+00 0.000000000000D+00 0.276465208262D-07 0.000000000000D+00  6 2 1 25 2 1 21 2 0.12214505D+00 0.87321378D-01 0.23519684D+06 0.23519684D+06 0.23519684D+06 0.10924590D+01  1  2 12  3  6  4        2 0.425163777576D-02 0.100000000000D+01
0.168932128744D-05 0.000000000000D+00 0.000000000000D+00 0.276465208262D-07 0.000000000000D+00  6 2 1 25 2 1 21 2 0.12214505D+00 0.87321378D-01 0.23519684D+06 0.23519684D+06 0.23519684D+06 0.10924590D+01  1  2 12  3  6  4        2 0.375146518645D-04 0.100000000000D+01
-.926634262402D-04 0.000000000000D+00 0.000000000000D+00 0.276465208262D-07 0.000000000000D+00  6 2 1 25 2 1 21 2 0.12214505D+00 0.87321378D-01 0.23954749D+06 0.23954749D+06 0.23954749D+06 0.10918572D+01  1  2  4  3  6  4        2 -.205425389501D-02 0.100000000000D+01
-.183488965805D-03 0.000000000000D+00 0.000000000000D+00 0.276465208262D-07 0.000000000000D+00  6 2 1 25 2 1 21 2 0.12214505D+00 0.87321378D-01 0.23954749D+06 0.23954749D+06 0.23954749D+06 0.10918572D+01  1  2  5  3  6  4        2 -.406776371207D-02 0.100000000000D+01
0.349738921683D-03 0.000000000000D+00 -.000000000000D+00 0.276465208262D-07 0.000000000000D+00  6 2 1 25 2 1 21 2 0.12214505D+00 0.87321378D-01 0.23954749D+06 0.23954749D+06 0.23954749D+06 0.10918572D+01  1  2  6  3  6  4        2 0.775335611097D-02 0.100000000000D+01
  </mgrwgt>
  </event>
  <event>
  5     66 0.18337608E-05 0.73704981E+02 0.75467711E-02 0.81468701E-01
        2 -1    0    0  501    0 0.00000000E+00 0.00000000E+00 0.12345385E+04 0.12345385E+04 0.32000000E+00 0.0000E+00 0.9000E+01
        1 -1    0    0  502    0 0.00000000E+00 0.00000000E+00 -.16891081E+04 0.16891082E+04 0.32000000E+00 0.0000E+00 0.9000E+01
       25  1    1    2    0    0 -.30912359E+03 0.64956623E+03 0.24422471E+03 0.76991193E+03 0.12500000E+03 0.0000E+00 0.9000E+01
        2  1    1    2  501    0 0.29394008E+03 -.57745007E+03 0.58191633E+03 0.87090532E+03 0.32000000E+00 0.0000E+00 0.9000E+01
        1  1    1    2  502    0 0.15183509E+02 -.72116154E+02 -.12807107E+04 0.12828294E+04 0.32000000E+00 0.0000E+00 0.9000E+01
#aMCatNLO 1  0  0  1  4 0.10016733D+02 0.00000000D+00  -5  6  0 0.00000000D+00 0.00000000D+00 0.00000000D+00 0.00000000D+00 0.00000000D+00
  <mgrwgt>
 0.1970564230D-02    5    2    0
 0.144404607597396D+04 0.000000000000000D+00 0.000000000000000D+00 0.144404607597396D+04
 0.144404607597396D+04 0.000000000000000D+00 0.000000000000000D+00 -.144404607597396D+04
 0.817847363729834D+03 -.309096706189601D+03 0.649517718481529D+03 0.368558367102319D+03
 0.973122598877212D+03 0.293911521651347D+03 -.577393975175807D+03 0.726085261740526D+03
 0.109712218934088D+04 0.151851845382537D+02 -.721237433057215D+02 -.109464362884285D+04
 0.000000000000000D+00 0.000000000000000D+00 0.000000000000000D+00 0.000000000000000D+00
 0.734529101206712D+04 0.000000000000000D+00 0.000000000000000D+00 0.734529101206712D+04
 0.174018025716038D+04 0.000000000000000D+00 0.000000000000000D+00 -.174018025716038D+04
 0.709036072645933D+03 -.499563314109039D+03 0.318917509002617D+03 0.368558367102319D+03
 0.129121907226256D+04 0.114528434065166D+02 -.106766835564031D+04 0.726085261740526D+03
 0.127253038954991D+04 -.280410194844592D+03 -.585200000674161D+03 -.109464362884285D+04
 0.581268573476910D+04 0.768520665547115D+03 0.133395084731185D+04 0.560511075490674D+04
0.179106212023D-02 0.000000000000D+00 0.000000000000D+00 0.912007868345D-05 0.000000000000D+00  6 2 1 25 2 1 21 0 0.18992900D+00 0.25986280D+00 0.52685466D+06 0.52685466D+06 0.52685466D+06 0.10669083D+01  1  2  2  1  6  1        2 0.228339438294D-02 0.100000000000D+01
0.787975508520D-03 0.000000000000D+00 -.687815013916D-05 0.912007868345D-05 0.000000000000D+00  6 2 1 25 2 1 21 2 0.18992900D+00 0.25986280D+00 0.52685466D+06 0.52685466D+06 0.52685466D+06 0.10669083D+01  1  2  3  1  6  1        2 0.114350269250D-02 0.100000000000D+01
-.100354152623D-02 0.000000000000D+00 0.000000000000D+00 0.912007868345D-05 0.000000000000D+00  6 2 1 25 2 1 21 2 0.18992900D+00 0.25986280D+00 0.52685466D+06 0.52685466D+06 0.52685466D+06 0.10669083D+01  1  2 15  1  6  1        2 -.145633008243D-02 0.100000000000D+01
-.376299383821D-02 0.000000000000D+00 -.120078807422D-02 0.912007868345D-05 0.000000000000D+00  6 2 1 25 2 1 21 2 0.96757414D+00 0.25986280D+00 0.52685466D+06 0.52685466D+06 0.52685466D+06 0.10669083D+01  1  2  5  1  6  1        2 -.275985251539D-08 0.100000000000D+01
-.785883499606D-03 0.000000000000D+00 -.238524293214D-03 0.912007868345D-05 0.000000000000D+00  6 21 1 25 2 1 -2 2 0.96757414D+00 0.25986280D+00 0.52685466D+06 0.52685466D+06 0.52685466D+06 0.10669083D+01  1  2  5  5  6  1        2 -.266908155264D-11 0.100000000000D+01
  </mgrwgt>
  </event>
  <event>
  6     66 0.18337608E-05 0.11245155E+03 0.75467711E-02 0.92671758E-01
        2 -1    0    0  503    0 0.00000000E+00 0.00000000E+00 0.14644669E+04 0.14644670E+04 0.32000000E+00 0.0000E+00 0.9000E+01
        1 -1    0    0  502    0 0.00000000E+00 0.00000000E+00 -.13751226E+04 0.13751226E+04 0.32000000E+00 0.0000E+00 0.9000E+01
       25  1    1    2    0    0 0.48366862E+03 0.32130102E+03 0.25683302E+03 0.64711504E+03 0.12500000E+03 0.0000E+00 0.9000E+01
        2  1    1    2  501    0 -.35630147E+03 -.28613869E+03 0.78736912E+03 0.91037153E+03 0.32000000E+00 0.0000E+00 0.9000E+01
        1  1    1    2  502    0 -.12097393E+03 -.16840042E+02 -.11145559E+04 0.11212284E+04 0.32000000E+00 0.0000E+00 0.9000E+01
       21  1    1    2  503  501 -.63932194E+01 -.18322288E+02 0.15969810E+03 0.16087456E+03 0.75000000E+00 0.0000E+00 0.9000E+01
#aMCatNLO 2  0  0  1  4 0.19405656D+02 0.00000000D+00  -5  6  0 0.00000000D+00 0.00000000D+00 0.00000000D+00 0.00000000D+00 0.00000000D+00
  <mgrwgt>
 0.1813587028D-01    3    2    0
 0.133886032773448D+04 0.000000000000000D+00 0.000000000000000D+00 0.133886032773448D+04
 0.133886032773448D+04 0.000000000000000D+00 0.000000000000000D+00 -.133886032773448D+04
 0.650779082807997D+03 0.482091906136280D+03 0.316813147455263D+03 0.274053349291330D+03
 0.934119521784543D+03 -.358495621258313D+03 -.292494361405769D+03 0.811484577218465D+03
 0.109282205087642D+04 -.123596284877967D+03 -.243187860494946D+02 -.108553792650980D+04
 0.000000000000000D+00 -.000000000000000D+00 -.000000000000000D+00 0.000000000000000D+00
 0.150344738390510D+04 0.000000000000000D+00 0.000000000000000D+00 0.150344738390510D+04
 0.133946761462636D+04 0.000000000000000D+00 0.000000000000000D+00 -.133946761462636D+04
 0.654114987708304D+03 0.483649642292233D+03 0.321277453920182D+03 0.274053349291330D+03
 0.931286730641668D+03 -.356268765584278D+03 -.286112429430929D+03 0.811484577218465D+03
 0.109238925336962D+04 -.120987657301269D+03 -.168427363277735D+02 -.108553792650980D+04
 0.165124026811857D+03 -.639321940668552D+01 -.183222881614790D+02 0.163979769278740D+03
-.151995994957D-01 0.000000000000D+00 0.000000000000D+00 0.113603662914D-04 0.000000000000D+00  6 2 1 25 2 1 21 2 0.22634279D+00 0.21146128D+00 0.35547235D+06 0.35547235D+06 0.35547235D+06 0.10791421D+01  1  2 13  1  6  1        2 -.278311255291D-01 0.100000000000D+01
-.622931572120D-08 0.000000000000D+00 0.000000000000D+00 0.113603662914D-04 0.000000000000D+00  6 2 1 25 2 1 21 2 0.22535571D+00 0.21146128D+00 0.35547235D+06 0.35547235D+06 0.35547235D+06 0.10791421D+01  1  2 13  1  6  1        2 -.114999041602D-07 0.100000000000D+01
0.249131423639D-01 0.000000000000D+00 0.000000000000D+00 0.113603662914D-04 0.309466559338D-06  6 2 1 25 2 1 21 2 0.22530247D+00 0.21155719D+00 0.35547235D+06 0.35547235D+06 0.35547235D+06 0.10791421D+01  1  2  1  1  6  1        2 0.459670073050D-01 0.100000000000D+01
  </mgrwgt>
  </event>
  <event>
  6     66 -.18337608E-05 0.48306816E+02 0.75467711E-02 0.90510115E-01
        2 -1    0    0  501    0 0.00000000E+00 0.00000000E+00 0.26030743E+04 0.26030743E+04 0.32000000E+00 0.0000E+00 0.9000E+01
        1 -1    0    0  502    0 0.00000000E+00 0.00000000E+00 -.46173735E+03 0.46173746E+03 0.32000000E+00 0.0000E+00 0.9000E+01
       25  1    1    2    0    0 0.43612255E+03 0.57560659E+03 0.92597268E+03 0.11809218E+04 0.12500000E+03 0.0000E+00 0.9000E+01
        2  1    1    2  501    0 -.42626342E+03 -.52694797E+03 0.14726472E+04 0.16211306E+04 0.32000000E+00 0.0000E+00 0.9000E+01
        1  1    1    2  503    0 -.79003427E+01 -.48592546E+02 -.22105892E+03 0.22647472E+03 0.32000000E+00 0.0000E+00 0.9000E+01
       21  1    1    2  502  503 -.19587837E+01 -.66073765E-01 -.36223967E+02 0.36284700E+02 0.75000000E+00 0.0000E+00 0.9000E+01
#aMCatNLO 2  0  0  5  2 0.67494833D+01 0.00000000D+00  -5  6  0 0.00000000D+00 0.00000000D+00 0.00000000D+00 0.00000000D+00 0.00000000D+00
  <mgrwgt>
 -.1641807570D-02    6    2    0
 0.109632880625989D+04 0.000000000000000D+00 0.000000000000000D+00 0.109632880625989D+04
 0.109632880625989D+04 -.000000000000000D+00 -.000000000000000D+00 -.109632880625989D+04
 0.746364243115615D+03 0.436109303260549D+03 0.575598625932886D+03 0.141171813175710D+03
 0.827803404149736D+03 -.426245530411293D+03 -.526918967571413D+03 0.475320550092001D+03
 0.618489965254424D+03 -.986377284925578D+01 -.486796583614726D+02 -.616492363267711D+03
 0.000000000000000D+00 0.000000000000000D+00 0.000000000000000D+00 -.000000000000000D+00
 0.109632880625989D+04 0.000000000000000D+00 0.000000000000000D+00 0.109632880625989D+04
 0.109632880625989D+04 -.000000000000000D+00 -.000000000000000D+00 -.109632880625989D+04
 0.746337046351467D+03 0.436107625274361D+03 0.575590344741136D+03 0.141066937922993D+03
 0.827743426345667D+03 -.426247391456590D+03 -.526928152195860D+03 0.475204233523202D+03
 0.532922656350841D+03 -.790716202350204D+01 -.486449306593856D+02 -.530638959332911D+03
 0.856544834718001D+02 -.195307179426927D+01 -.172618858899414D-01 -.856322121132848D+02
-.300569832390D-02 0.000000000000D+00 0.000000000000D+00 0.284825788446D-05 0.000000000000D+00  6 2 1 25 2 1 21 2 0.40047298D+00 0.71036526D-01 0.53426377D+06 0.53426377D+06 0.53426377D+06 0.10664819D+01  1  2 13  4  6  5        1 -.742696973580D-02 0.100000000000D+01
-.229989056839D-07 0.000000000000D+00 0.000000000000D+00 0.284825788446D-05 0.000000000000D+00  6 2 1 25 2 1 21 2 0.40047298D+00 0.71036526D-01 0.53426377D+06 0.53426377D+06 0.53426377D+06 0.10664819D+01  1  2 13  4  6  5        1 -.568294479566D-07 0.100000000000D+01
-.192111753927D-03 0.000000000000D+00 0.000000000000D+00 0.284825788446D-05 0.000000000000D+00  6 2 1 25 2 1 21 2 0.40047298D+00 0.71036526D-01 0.53311798D+06 0.53311798D+06 0.53311798D+06 0.10665474D+01  1  2  8  4  6  5        1 -.474829765811D-03 0.100000000000D+01
-.331222865111D-03 0.000000000000D+00 0.000000000000D+00 0.284825788446D-05 0.000000000000D+00  6 2 1 25 2 1 21 2 0.40047298D+00 0.71036526D-01 0.53311798D+06 0.53311798D+06 0.53311798D+06 0.10665474D+01  1  2  9  4  6  5        1 -.818661389826D-03 0.100000000000D+01
0.380235176627D-03 0.000000000000D+00 0.000000000000D+00 0.284825788446D-05 0.000000000000D+00  6 2 1 25 2 1 21 2 0.40047298D+00 0.71036526D-01 0.53311798D+06 0.53311798D+06 0.53311798D+06 0.10665474D+01  1  2 10  4  6  5        1 0.939801840231D-03 0.100000000000D+01
0.248441922840D-02 0.000000000000D+00 0.000000000000D+00 0.284825788446D-05 0.354855567902D-05  6 2 1 25 2 1 21 2 0.40047298D+00 0.71036526D-01 0.53426377D+06 0.53426377D+06 0.53426377D+06 0.10664819D+01  1  2  1  4  6  5        1 0.613890831082D-02 0.100000000000D+01
  </mgrwgt>
  </event>
  <event>
  5     66 0.18337608E-05 0.31264397E+02 0.75467711E-02 0.87611482E-01
        2 -1    0    0  501    0 0.00000000E+00 0.00000000E+00 0.29809483E+04 0.29809483E+04 0.32000000E+00 0.0000E+00 0.9000E+01
        1 -1    0    0  502    0 0.00000000E+00 0.00000000E+00 -.54433734E+03 0.54433744E+03 0.32000000E+00 0.0000E+00 0.9000E+01
       25  1    1    2    0    0 0.47130670E+03 -.64540484E+03 0.12023308E+04 0.14491037E+04 0.12500000E+03 0.0000E+00 0.9000E+01
        2  1    1    2  501    0 -.49152001E+03 0.66925187E+03 0.15502732E+04 0.17586463E+04 0.32000000E+00 0.0000E+00 0.9000E+01
        1  1    1    2  502    0 0.20213313E+02 -.23847030E+02 -.31599295E+03 0.31753567E+03 0.32000000E+00 0.0000E+00 0.9000E+01
#aMCatNLO 1  0  0  2  5 0.62230563D+03 0.00000000D+00  -5  6  0 0.00000000D+00 0.00000000D+00 0.00000000D+00 0.00000000D+00 0.00000000D+00
  <mgrwgt>
 0.2066349717D-02    4    2    0
 0.127382953006953D+04 0.000000000000000D+00 0.000000000000000D+00 0.127382953006953D+04
 0.127382953006953D+04 0.000000000000000D+00 0.000000000000000D+00 -.127382953006953D+04
 0.855233218375432D+03 0.471269026051697D+03 -.645353946757748D+03 0.277889629711658D+03
 0.950732766438600D+03 -.491484452340046D+03 0.669203455321047D+03 0.463144212610252D+03
 0.741693075325033D+03 0.202154262883494D+02 -.238495085632997D+02 -.741033842321910D+03
 0.000000000000000D+00 0.000000000000000D+00 -.000000000000000D+00 0.000000000000000D+00
 0.145197994533696D+04 0.000000000000000D+00 0.000000000000000D+00 0.145197994533696D+04
 0.137214994268680D+04 0.000000000000000D+00 0.000000000000000D+00 -.137214994268680D+04
 0.781160127151529D+03 0.432889581930916D+03 -.574430246249088D+03 0.277889629711658D+03
 0.103662193965620D+04 -.538095231526620D+03 0.755338338700296D+03 0.463144212610252D+03
 0.742281396125493D+03 -.145892344977527D+02 0.404681331964575D+02 -.741033842321910D+03
 0.264066425090537D+03 0.119794884093457D+03 -.221376225647665D+03 0.798300026501657D+02
0.202825157072D-02 0.000000000000D+00 0.000000000000D+00 0.332018441120D-05 0.000000000000D+00  6 2 1 25 2 1 21 0 0.45860744D+00 0.83744215D-01 0.69754795D+06 0.69754795D+06 0.69754795D+06 0.10584382D+01  1  2  2  2  6  2        1 0.200505935854D-02 0.100000000000D+01
0.152157468619D-02 0.000000000000D+00 -.778902008245D-05 0.332018441120D-05 0.000000000000D+00  6 2 1 25 2 1 21 2 0.45860744D+00 0.83744215D-01 0.69754795D+06 0.69754795D+06 0.69754795D+06 0.10584382D+01  1  2  3  2  6  2        1 0.168511556492D-02 0.100000000000D+01
-.134824151489D-02 0.000000000000D+00 0.000000000000D+00 0.332018441120D-05 0.000000000000D+00  6 2 1 25 2 1 21 2 0.45860744D+00 0.83744215D-01 0.69754795D+06 0.69754795D+06 0.69754795D+06 0.10584382D+01  1  2 15  2  6  2        1 -.149315231295D-02 0.100000000000D+01
-.117991057012D-03 0.000000000000D+00 0.000000000000D+00 0.332018441120D-05 0.000000000000D+00  6 2 1 25 2 1 21 2 0.45860744D+00 0.83744215D-01 0.69754795D+06 0.69754795D+06 0.69754795D+06 0.10584382D+01  1  2  4  2  6  2        1 -.130672893349D-03 0.100000000000D+01
  </mgrwgt>
  </event>
  <event>
  5     66 0.18337608E-05 0.16969678E+02 0.75467711E-02 0.91723664E-01
        2 -1    0    0  501    0 0.00000000E+00 0.00000000E+00 0.18520620E+04 0.18520620E+04 0.32000000E+00 0.0000E+00 0.9000E+01
        1 -1    0    0  502    0 0.00000000E+00 0.00000000E+00 -.10936269E+04 0.10936270E+04 0.32000000E+00 0.0000E+00 0.9000E+01
       25  1    1    2    0    0 -.61070675E+02 0.60812803E+03 0.63964271E+03 0.89348594E+03 0.12500000E+03 0.0000E+00 0.9000E+01
        2  1    1    2  501    0 0.76868614E+02 -.61431965E+03 0.99713213E+03 0.11736993E+04 0.32000000E+00 0.0000E+00 0.9000E+01
        1  1    1    2  502    0 -.15797939E+02 0.61916230E+01 -.87833978E+03 0.87850372E+03 0.32000000E+00 0.0000E+00 0.9000E+01
#aMCatNLO 1  0  0  2  4 0.10725868D+03 0.00000000D+00  -5  6  0 0.00000000D+00 0.00000000D+00 0.00000000D+00 0.00000000D+00 0.00000000D+00
  <mgrwgt>
 0.3741354953D-01    7    2    0
 0.142318828678218D+04 0.000000000000000D+00 0.000000000000000D+00 0.142318828678218D+04
 0.142318828678218D+04 0.000000000000000D+00 0.000000000000000D+00 -.142318828678218D+04
 0.754251645930585D+03 -.610612067489181D+02 0.608064763204501D+03 0.424027496948508D+03
 0.948861573925983D+03 0.768607735519422D+02 -.614256989033732D+03 0.719109907723085D+03
 0.114326335370779D+04 -.157995668030241D+02 0.619222582923146D+01 -.114313740467159D+04
 0.000000000000000D+00 -.000000000000000D+00 -.000000000000000D+00 -.000000000000000D+00
 0.143124989918555D+04 0.000000000000000D+00 0.000000000000000D+00 0.143124989918555D+04
 0.147759063575213D+04 0.000000000000000D+00 0.000000000000000D+00 -.147759063575213D+04
 0.760617365856798D+03 -.540772914296918D+02 0.616595577040693D+03 0.424027496948508D+03
 0.942752222789624D+03 0.855815741427171D+02 -.603604579469479D+03 0.719109907723085D+03
 0.114330852819332D+04 -.525791318791768D+01 0.190687972659629D+02 -.114313740467159D+04
 0.621624180979400D+02 -.262463695251076D+02 -.320597948371771D+02 -.463407365665751D+02
0.514859155781D-02 0.000000000000D+00 0.000000000000D+00 0.350706751152D-04 0.000000000000D+00  6 2 1 25 2 1 21 0 0.28493262D+00 0.16825030D+00 0.39676928D+06 0.39676928D+06 0.39676928D+06 0.10756816D+01  1  2  2  2  6  2        1 0.785366427750D-02 0.100000000000D+01
0.548413378376D-02 0.000000000000D+00 -.197719472373D-04 0.350706751152D-04 0.000000000000D+00  6 2 1 25 2 1 21 2 0.28493262D+00 0.16825030D+00 0.39676928D+06 0.39676928D+06 0.39676928D+06 0.10756816D+01  1  2  3  2  6  2        1 0.967964476858D-02 0.100000000000D+01
-.300771934813D-02 0.000000000000D+00 0.000000000000D+00 0.350706751152D-04 0.000000000000D+00  6 2 1 25 2 1 21 2 0.28493262D+00 0.16825030D+00 0.39676928D+06 0.39676928D+06 0.39676928D+06 0.10756816D+01  1  2 15  2  6  2        1 -.530870616973D-02 0.100000000000D+01
-.390274877519D-03 0.000000000000D+00 0.000000000000D+00 0.350706751152D-04 0.000000000000D+00  6 2 1 25 2 1 21 2 0.28493262D+00 0.16825030D+00 0.39676928D+06 0.39676928D+06 0.39676928D+06 0.10756816D+01  1  2  4  2  6  2        1 -.688845736709D-03 0.100000000000D+01
-.208770833427D+00 0.000000000000D+00 -.263592319212D-01 0.350706751152D-04 0.000000000000D+00  6 2 1 25 2 1 21 2 0.28493262D+00 0.17516820D+00 0.39676928D+06 0.39676928D+06 0.39676928D+06 0.10756816D+01  1  2  5  2  6  2        1 -.341544351307D+00 0.100000000000D+01
0.209684088962D+00 0.000000000000D+00 0.263378479986D-01 0.350706751152D-04 0.000000000000D+00  6 2 1 25 2 1 21 2 0.28493262D+00 0.16825030D+00 0.39676928D+06 0.39676928D+06 0.39676928D+06 0.10756816D+01  1  2  6  2  6  2        1 0.370098100229D+00 0.100000000000D+01
-.147092846613D-02 0.000000000000D+00 -.187643952326D-03 0.350706751152D-04 0.000000000000D+00  6 2 21 25 2 1 -1 2 0.28493262D+00 0.17516820D+00 0.39676928D+06 0.39676928D+06 0.39676928D+06 0.10756816D+01  1  2  5  6  6  2        1 -.267595653600D-02 0.100000000000D+01
  </mgrwgt>
  </event>
  <event>
  5     66 -.18337608E-05 0.57282236E+02 0.75467711E-02 0.94076930E-01
        2 -1    0    0  501    0 0.00000000E+00 0.00000000E+00 0.27969515E+04 0.27969515E+04 0.32000000E+00 0.0000E+00 0.9000E+01
        1 -1    0    0  502    0 0.00000000E+00 0.00000000E+00 -.76977402E+03 0.76977409E+03 0.32000000E+00 0.0000E+00 0.9000E+01
       25  1    1    2    0    0 -.44218873E+03 -.26385063E+03 0.11461035E+04 0.12626663E+04 0.12500000E+03 0.0000E+00 0.9000E+01
        2  1    1    2  501    0 0.56715445E+02 0.81088092E+01 0.15167768E+04 0.15178585E+04 0.32000000E+00 0.0000E+00 0.9000E+01
        1  1    1    2  502    0 0.38547329E+03 0.25574182E+03 -.63570282E+03 0.78620080E+03 0.32000000E+00 0.0000E+00 0.9000E+01
#aMCatNLO 1  0  0  4  1 0.20680743D+01 0.00000000D+00  -5  6  0 0.00000000D+00 0.00000000D+00 0.00000000D+00 0.00000000D+00 0.00000000D+00
  <mgrwgt>
 -.6685878753D-01    9    2    0
 0.146731754458153D+04 0.000000000000000D+00 0.000000000000000D+00 0.146731754458153D+04
 0.146731754458153D+04 -.000000000000000D+00 -.000000000000000D+00 -.146731754458153D+04
 0.743053688070128D+03 -.442219948124885D+03 -.263875983369459D+03 0.520878840265032D+03
 0.796897239758193D+03 0.567055960757814D+02 0.810740100644752D+01 0.794835804526216D+03
 0.139468416133474D+04 0.385514352049102D+03 0.255768582363011D+03 -.131571464479125D+04
 0.000000000000000D+00 0.000000000000000D+00 0.000000000000000D+00 0.000000000000000D+00
 0.146731754458153D+04 0.000000000000000D+00 0.000000000000000D+00 0.146731754458153D+04
 0.146731754458153D+04 -.000000000000000D+00 -.000000000000000D+00 -.146731754458153D+04
 0.743059556252742D+03 -.442219308885066D+03 -.263875891975066D+03 0.520887800415885D+03
 0.731201350155211D+03 0.540892266970711D+02 0.730550525026026D+01 0.729161435909193D+03
 0.139466865899793D+04 0.385515551867082D+03 0.255768753905260D+03 -.131569782708092D+04
 0.657055237571740D+02 0.261453032091309D+01 0.801632819544893D+00 0.656485907558435D+02
0.388136946906D-04 0.000000000000D+00 0.000000000000D+00 0.115758382601D-03 0.000000000000D+00  6 2 1 25 2 1 21 0 0.43030024D+00 0.11842678D+00 0.27554336D+06 0.27554336D+06 0.27554336D+06 0.10872948D+01  1  2  2  3  6  4        2 0.320335393533D-04 0.100000000000D+01
0.127790576556D-04 0.000000000000D+00 -.149054807493D-06 0.115758382601D-03 0.000000000000D+00  6 2 1 25 2 1 21 2 0.43030024D+00 0.11842678D+00 0.27554336D+06 0.27554336D+06 0.27554336D+06 0.10872948D+01  1  2  3  3  6  4        2 0.124684771274D-04 0.100000000000D+01
-.269294531911D-04 0.000000000000D+00 0.000000000000D+00 0.115758382601D-03 0.000000000000D+00  6 2 1 25 2 1 21 2 0.43030024D+00 0.11842678D+00 0.27554336D+06 0.27554336D+06 0.27554336D+06 0.10872948D+01  1  2 15  3  6  4        2 -.262749633201D-04 0.100000000000D+01
0.129990884791D-03 0.000000000000D+00 0.000000000000D+00 0.115758382601D-03 0.000000000000D+00  6 2 1 25 2 1 21 2 0.43030024D+00 0.11842678D+00 0.27556084D+06 0.27556084D+06 0.27556084D+06 0.10872928D+01  1  2 12  3  6  4        2 0.126830437430D-03 0.100000000000D+01
0.396805085793D-11 0.000000000000D+00 0.000000000000D+00 0.115758382601D-03 0.000000000000D+00  6 2 1 25 2 1 21 2 0.43030024D+00 0.11842678D+00 0.27556084D+06 0.27556084D+06 0.27556084D+06 0.10872928D+01  1  2 12  3  6  4        2 0.387157627910D-11 0.100000000000D+01
-.661361680670D+00 0.000000000000D+00 0.000000000000D+00 0.115758382601D-03 0.000000000000D+00  6 2 1 25 2 1 21 2 0.43030024D+00 0.11842678D+00 0.27554336D+06 0.27554336D+06 0.27554336D+06 0.10872948D+01  1  2  4  3  6  4        2 -.645288033797D+00 0.100000000000D+01
-.227821162317D+00 0.000000000000D+00 0.000000000000D+00 0.115758382601D-03 0.000000000000D+00  6 2 1 25 2 1 21 2 0.43030024D+00 0.11842678D+00 0.27554336D+06 0.27554336D+06 0.27554336D+06 0.10872948D+01  1  2  5  3  6  4        2 -.222284226900D+00 0.100000000000D+01
0.247376939968D+00 0.000000000000D+00 -.000000000000D+00 0.115758382601D-03 0.000000000000D+00  6 2 1 25 2 1 21 2 0.43030024D+00 0.11842678D+00 0.27554336D+06 0.27554336D+06 0.27554336D+06 0.10872948D+01  1  2  6  3  6  4        2 0.241364723515D+00 0.100000000000D+01
0.573138311234D+00 0.000000000000D+00 0.000000000000D+00 0.115758382601D-03 0.434369577931D-03  6 2 1 25 2 1 21 2 0.43030024D+00 0.11842678D+00 0.27556084D+06 0.27556084D+06 0.27556084D+06 0.10872928D+01  1  2 11  3  6  4        2 0.559203692156D+00 0.100000000000D+01
  </mgrwgt>
  </event>
  <event>
  6     66 0.18337608E-05 0.53365899E+02 0.75467711E-02 0.94158748E-01
        2 -1    0    0  503    0 0.00000000E+00 0.00000000E+00 0.21107148E+04 0.21107148E+04 0.32000000E+00 0.0000E+00 0.9000E+01
        1 -1    0    0  502    0 0.00000000E+00 0.00000000E+00 -.90536406E+03 0.90536411E+03 0.32000000E+00 0.0000E+00 0.9000E+01
       25  1    1    2    0    0 0.36912470E+02 -.47601084E+03 0.18191406E+03 0.52599104E+03 0.12500000E+03 0.0000E+00 0.9000E+01
        2  1    1    2  501    0 -.15044443E+03 0.33039403E+03 0.51160097E+03 0.62731921E+03 0.32000000E+00 0.0000E+00 0.9000E+01
        1  1    1    2  502    0 0.45959993E+02 0.75333403E+02 -.67056907E+03 0.67635081E+03 0.32000000E+00 0.0000E+00 0.9000E+01
       21  1    1    2  503  501 0.67571966E+02 0.70283407E+02 0.11824048E+04 0.11864179E+04 0.75000000E+00 0.0000E+00 0.9000E+01
#aMCatNLO 2  0  0  1  4 0.97497323D+02 0.00000000D+00  -5  6  0 0.00000000D+00 0.00000000D+00 0.00000000D+00 0.00000000D+00 0.00000000D+00
  <mgrwgt>
 0.2293591188D-01    3    2    0
 0.913458724252863D+03 0.000000000000000D+00 0.000000000000000D+00 0.913458724252863D+03
 0.913458724252863D+03 0.000000000000000D+00 0.000000000000000D+00 -.913458724252863D+03
 0.507564520481477D+03 0.559440867977669D+02 -.456157391328104D+03 0.175463488910642D+03
 0.628898258285350D+03 -.127328402693175D+03 0.354373046680867D+03 0.503706502765322D+03
 0.690454669738899D+03 0.713843158954082D+02 0.101784344647237D+03 -.679169991675964D+03
 0.000000000000000D+00 0.000000000000000D+00 0.000000000000000D+00 0.000000000000000D+00
 0.208440781216182D+04 0.000000000000000D+00 0.000000000000000D+00 0.208440781216182D+04
 0.916790334813147D+03 0.000000000000000D+00 0.000000000000000D+00 -.916790334813147D+03
 0.523766441674444D+03 0.368847932664141D+02 -.475981471813040D+03 0.175463488910642D+03
 0.620869569508959D+03 -.150424472480685D+03 0.330350207345290D+03 0.503706502765322D+03
 0.684881163268952D+03 0.459677131681052D+02 0.753478569940702D+02 -.679169991675964D+03
 0.117168097252261D+04 0.675719660461657D+02 0.702834074736795D+02 0.116761747734867D+04
-.694848149176D-02 0.000000000000D+00 0.000000000000D+00 0.399652893944D-05 0.000000000000D+00  6 2 1 25 2 1 21 2 0.32945091D+00 0.13878060D+00 0.27157007D+06 0.27157007D+06 0.27157007D+06 0.10877655D+01  1  2 13  1  6  1        2 -.125556550653D-01 0.100000000000D+01
-.414524291011D-07 0.000000000000D+00 0.000000000000D+00 0.399652893944D-05 0.000000000000D+00  6 2 1 25 2 1 21 2 0.32474488D+00 0.13878060D+00 0.27157007D+06 0.27157007D+06 0.27157007D+06 0.10877655D+01  1  2 13  1  6  1        2 -.778782653037D-07 0.100000000000D+01
0.190039069041D-01 0.000000000000D+00 0.000000000000D+00 0.399652893944D-05 0.956415294206D-08  6 2 1 25 2 1 21 2 0.32472532D+00 0.13928677D+00 0.27157007D+06 0.27157007D+06 0.27157007D+06 0.10877655D+01  1  2  1  1  6  1        2 0.354916448256D-01 0.100000000000D+01
  </mgrwgt>
  </event>
  <event>
  6     66 0.18337608E-05 0.25222573E+03 0.75467711E-02 0.93394604E-01
       21 -1    0    0  501  503 0.00000000E+00 0.00000000E+00 0.68358838E+03 0.68358879E+03 0.75000000E+00 0.0000E+00 0.9000E+01
        1 -1    0    0  502    0 0.00000000E+00 0.00000000E+00 -.11013256E+04 0.11013257E+04 0.32000000E+00 0.0000E+00 0.9000E+01
       25  1    1    2    0    0 0.42390585E+03 0.19855966E+03 0.31755473E+03 0.57929967E+03 0.12500000E+03 0.0000E+00 0.9000E+01
        2  1    1    2  501    0 -.92569117E+02 -.26309962E+03 0.10150716E+03 0.29680677E+03 0.32000000E+00 0.0000E+00 0.9000E+01
        1  1    1    2  502    0 -.27183757E+03 0.92684383E+02 -.71132957E+03 0.76712184E+03 0.32000000E+00 0.0000E+00 0.9000E+01
       -2  1    1    2    0  503 -.59499163E+02 -.28144417E+02 -.12546958E+03 0.14168619E+03 0.32000000E+00 0.0000E+00 0.9000E+01
#aMCatNLO 2  0  0  1  4 0.15011353D+02 0.00000000D+00  -5  6  0 0.00000000D+00 0.00000000D+00 0.00000000D+00 0.00000000D+00 0.00000000D+00
  <mgrwgt>
 0.3575083882D-04    1    2    0
 0.807843819353409D+03 0.000000000000000D+00 0.000000000000000D+00 0.807843819353409D+03
 0.807843819353409D+03 0.000000000000000D+00 0.000000000000000D+00 -.807843819353409D+03
 0.627623665293168D+03 0.400468818524328D+03 0.187322409239376D+03 0.427576315553744D+03
 0.328040909931345D+03 -.104442135939183D+03 -.268596213306529D+03 0.156712325700436D+03
 0.660023063482306D+03 -.296026682585146D+03 0.812738040671538D+02 -.584288641254180D+03
 0.000000000000000D+00 -.000000000000000D+00 -.000000000000000D+00 -.000000000000000D+00
 0.818218884235966D+03 0.000000000000000D+00 0.000000000000000D+00 0.818218884235966D+03
 0.920112509157957D+03 0.000000000000000D+00 0.000000000000000D+00 -.920112509157957D+03
 0.646154930846060D+03 0.423913121706249D+03 0.198412081989542D+03 0.427576315553744D+03
 0.319788023835068D+03 -.925186368481521D+02 -.262956135120780D+03 0.156712325700436D+03
 0.651084813928917D+03 -.271895322021073D+03 0.926884701203641D+02 -.584288641254180D+03
 0.121303624783878D+03 -.594991628370233D+02 -.281444169891262D+02 -.101893624921991D+03
0.324122459590D-05 0.000000000000D+00 0.000000000000D+00 0.411064152416D-07 0.411477204673D-12  6 21 1 25 2 1 -2 2 0.10516745D+00 0.16943471D+00 0.31152585D+06 0.31152585D+06 0.31152585D+06 0.10833426D+01  1  2  1  5  6  1        2 0.357508388158D-04 0.100000000000D+01
  </mgrwgt>
  </event>
  <event>
  5     66 0.18337608E-05 0.28238273E+03 0.75467711E-02 0.92414153E-01
        2 -1    0    0  501    0 0.00000000E+00 0.00000000E+00 0.18093398E+04 0.18093398E+04 0.32000000E+00 0.0000E+00 0.9000E+01
        1 -1    0    0  502    0 0.00000000E+00 0.00000000E+00 -.54519505E+03 0.54519515E+03 0.32000000E+00 0.0000E+00 0.9000E+01
       25  1    1    2    0    0 -.12417727E+03 0.58545998E+03 0.50177312E+03 0.79093909E+03 0.12500000E+03 0.0000E+00 0.9000E+01
        2  1    1    2  501    0 0.12718528E+02 -.32605623E+03 0.10860926E+04 0.11340510E+04 0.32000000E+00 0.0000E+00 0.9000E+01
        1  1    1    2  502    0 0.11145874E+03 -.25940375E+03 -.32372103E+03 0.42954483E+03 0.32000000E+00 0.0000E+00 0.9000E+01
#aMCatNLO 1  0  0  5  2 0.32757572D+02 0.00000000D+00  -5  6  0 0.00000000D+00 0.00000000D+00 0.00000000D+00 0.00000000D+00 0.00000000D+00
  <mgrwgt>
 0.9189976297D-03    8    2    0
 0.993198485274118D+03 0.000000000000000D+00 0.000000000000000D+00 0.993198485274118D+03
 0.993198485274118D+03 -.000000000000000D+00 -.000000000000000D+00 -.993198485274118D+03
 0.618215634952046D+03 -.124191706556988D+03 0.585456700639357D+03 0.915556825003379D+02
 0.652938369904956D+03 0.127166697997187D+02 -.326008588325776D+03 0.565583947386399D+03
 0.715242965691235D+03 0.111475036757269D+03 -.259448112313581D+03 -.657139629886737D+03
 0.000000000000000D+00 0.000000000000000D+00 0.000000000000000D+00 0.000000000000000D+00
 0.993198485274118D+03 0.000000000000000D+00 0.000000000000000D+00 0.993198485274118D+03
 0.993198485274118D+03 -.000000000000000D+00 -.000000000000000D+00 -.993198485274118D+03
 0.617424205533574D+03 -.123949829548431D+03 0.584893753677350D+03 0.901298299282756D+02
 0.651937161978919D+03 0.129720997234309D+02 -.326603078477681D+03 0.564078201073924D+03
 0.582929681237990D+03 0.655000213063131D+02 -.193478395651074D+03 -.545969661147379D+03
 0.134105921797752D+03 0.454777085186870D+02 -.648122795485948D+02 -.108238369854821D+03
0.878221217162D-05 0.000000000000D+00 0.000000000000D+00 0.445614078118D-06 0.000000000000D+00  6 2 1 25 2 1 21 0 0.27835997D+00 0.83876171D-01 0.37212303D+06 0.37212303D+06 0.37212303D+06 0.10776966D+01  1  2  2  4  6  5        1 0.433190341765D-04 0.100000000000D+01
0.734979762297D-06 0.000000000000D+00 -.337260071486D-07 0.445614078118D-06 0.000000000000D+00  6 2 1 25 2 1 21 2 0.27835997D+00 0.83876171D-01 0.37212303D+06 0.37212303D+06 0.37212303D+06 0.10776966D+01  1  2  3  4  6  5        1 0.421059308682D-05 0.100000000000D+01
-.549245153559D-05 0.000000000000D+00 0.000000000000D+00 0.445614078118D-06 0.000000000000D+00  6 2 1 25 2 1 21 2 0.27835997D+00 0.83876171D-01 0.37212303D+06 0.37212303D+06 0.37212303D+06 0.10776966D+01  1  2 15  4  6  5        1 -.314654629308D-04 0.100000000000D+01
0.208142266042D-03 0.000000000000D+00 0.000000000000D+00 0.445614078118D-06 0.000000000000D+00  6 2 1 25 2 1 21 2 0.27835997D+00 0.83876171D-01 0.37277857D+06 0.37277857D+06 0.37277857D+06 0.10776412D+01  1  2 12  4  6  5        1 0.119217581315D-02 0.100000000000D+01
0.946014818581D-08 0.000000000000D+00 0.000000000000D+00 0.445614078118D-06 0.000000000000D+00  6 2 1 25 2 1 21 2 0.27835997D+00 0.83876171D-01 0.37277857D+06 0.37277857D+06 0.37277857D+06 0.10776412D+01  1  2 12  4  6  5        1 0.541848614912D-07 0.100000000000D+01
-.100710958043D-03 0.000000000000D+00 0.000000000000D+00 0.445614078118D-06 0.000000000000D+00  6 2 1 25 2 1 21 2 0.27835997D+00 0.83876171D-01 0.37212303D+06 0.37212303D+06 0.37212303D+06 0.10776966D+01  1  2  4  4  6  5        1 -.576958557850D-03 0.100000000000D+01
-.245296744279D-03 0.000000000000D+00 0.000000000000D+00 0.445614078118D-06 0.000000000000D+00  6 2 1 25 2 1 21 2 0.27835997D+00 0.83876171D-01 0.37212303D+06 0.37212303D+06 0.37212303D+06 0.10776966D+01  1  2  5  4  6  5        1 -.140526968042D-02 0.100000000000D+01
0.295509567633D-03 0.000000000000D+00 -.000000000000D+00 0.445614078118D-06 0.000000000000D+00  6 2 1 25 2 1 21 2 0.27835997D+00 0.83876171D-01 0.37212303D+06 0.37212303D+06 0.37212303D+06 0.10776966D+01  1  2  6  4  6  5        1 0.169293170559D-02 0.100000000000D+01
  </mgrwgt>
  </event>
  <event>
  5     66 0.18337608E-05 0.14749319E+03 0.75467711E-02 0.94532022E-01
        2 -1    0    0  501    0 0.00000000E+00 0.00000000E+00 0.14719332E+04 0.14719333E+04 0.32000000E+00 0.0000E+00 0.9000E+01
        1 -1    0    0  502    0 0.00000000E+00 0.00000000E+00 -.15144867E+04 0.15144867E+04 0.32000000E+00 0.0000E+00 0.9000E+01
       25  1    1    2    0    0 -.31362648E+03 -.38222479E+03 -.43168743E+03 0.66815896E+03 0.12500000E+03 0.0000E+00 0.9000E+01
        2  1    1    2  501    0 0.10460857E+03 0.10398031E+03 0.13180601E+04 0.13262871E+04 0.32000000E+00 0.0000E+00 0.9000E+01
        1  1    1    2  502    0 0.20901791E+03 0.27824448E+03 -.92892614E+03 0.99197397E+03 0.32000000E+00 0.0000E+00 0.9000E+01
#aMCatNLO 1  0  0  1  4 0.20847163D+01 0.00000000D+00  -5  6  0 0.00000000D+00 0.00000000D+00 0.00000000D+00 0.00000000D+00 0.00000000D+00
  <mgrwgt>
 0.1932762834D-01   13    2    0
 0.149305840263666D+04 0.000000000000000D+00 0.000000000000000D+00 0.149305840263666D+04
 0.149305840263666D+04 0.000000000000000D+00 0.000000000000000D+00 -.149305840263666D+04
 0.662071168736513D+03 -.313640737563866D+03 -.382243686984539D+03 -.422175892221467D+03
 0.134518556205649D+04 0.104607086161106D+03 0.103978836526302D+03 0.133707514951283D+04
 0.978860074480316D+03 0.209033651402760D+03 0.278264850458236D+03 -.914899257291366D+03
 0.000000000000000D+00 -.000000000000000D+00 0.000000000000000D+00 0.000000000000000D+00
 0.156348406909185D+04 0.000000000000000D+00 0.000000000000000D+00 0.156348406909185D+04
 0.149307419433426D+04 0.000000000000000D+00 0.000000000000000D+00 -.149307419433426D+04
 0.661886630418525D+03 -.313182052317395D+03 -.382300182657636D+03 -.422175892221467D+03
 0.134524949821270D+04 0.105539187523795D+03 0.103864030797788D+03 0.133707514951283D+04
 0.978981404350020D+03 0.209711945682111D+03 0.278181305822422D+03 -.914899257291366D+03
 0.704407304448611D+02 -.206908088851074D+01 0.254846037426467D+00 0.704098747575906D+02
0.556160880453D-04 0.000000000000D+00 0.000000000000D+00 0.396217256777D-04 0.000000000000D+00  6 2 1 25 2 1 21 0 0.22645127D+00 0.23299796D+00 0.25277315D+06 0.25277315D+06 0.25277315D+06 0.10900989D+01  1  2  2  1  6  1        2 0.719874909321D-04 0.100000000000D+01
0.993051907465D-05 0.000000000000D+00 -.213580422146D-06 0.396217256777D-04 0.000000000000D+00  6 2 1 25 2 1 21 2 0.22645127D+00 0.23299796D+00 0.25277315D+06 0.25277315D+06 0.25277315D+06 0.10900989D+01  1  2  3  1  6  1        2 0.152742652561D-04 0.100000000000D+01
-.352656389723D-04 0.000000000000D+00 0.000000000000D+00 0.396217256777D-04 0.000000000000D+00  6 2 1 25 2 1 21 2 0.22645127D+00 0.23299796D+00 0.25277315D+06 0.25277315D+06 0.25277315D+06 0.10900989D+01  1  2 15  1  6  1        2 -.542425546981D-04 0.100000000000D+01
0.323819773435D-03 0.000000000000D+00 0.000000000000D+00 0.396217256777D-04 0.000000000000D+00  6 2 1 25 2 1 21 2 0.23758286D+00 0.23299796D+00 0.25416683D+06 0.25416683D+06 0.25416683D+06 0.10899195D+01  1  2 12  1  6  1        2 0.454232336639D-03 0.100000000000D+01
0.230960035190D-10 0.000000000000D+00 0.000000000000D+00 0.396217256777D-04 0.000000000000D+00  6 2 1 25 2 1 21 2 0.23713456D+00 0.23299796D+00 0.25416683D+06 0.25416683D+06 0.25416683D+06 0.10899195D+01  1  2 12  1  6  1        2 0.325166005586D-10 0.100000000000D+01
-.364110805775D+00 0.000000000000D+00 0.000000000000D+00 0.396217256777D-04 0.000000000000D+00  6 2 1 25 2 1 21 2 0.22645127D+00 0.23299796D+00 0.25277315D+06 0.25277315D+06 0.25277315D+06 0.10900989D+01  1  2  4  1  6  1        2 -.560043738721D+00 0.100000000000D+01
-.524373981443D+00 0.000000000000D+00 -.240393530091D-03 0.396217256777D-04 0.000000000000D+00  6 2 1 25 2 1 21 2 0.23713362D+00 0.23299796D+00 0.25277315D+06 0.25277315D+06 0.25277315D+06 0.10900989D+01  1  2  5  1  6  1        2 -.738821245346D+00 0.100000000000D+01
0.523828740231D+00 0.000000000000D+00 0.240138378924D-03 0.396217256777D-04 0.000000000000D+00  6 2 1 25 2 1 21 2 0.22645127D+00 0.23299796D+00 0.25277315D+06 0.25277315D+06 0.25277315D+06 0.10900989D+01  1  2  6  1  6  1        2 0.805708046770D+00 0.100000000000D+01
0.363681961457D+00 0.000000000000D+00 0.000000000000D+00 0.396217256777D-04 0.407649738885D-04  6 2 1 25 2 1 21 2 0.23713269D+00 0.23300042D+00 0.25416683D+06 0.25416683D+06 0.25416683D+06 0.10899195D+01  1  2 11  1  6  1        2 0.512018877928D+00 0.100000000000D+01
0.675279449191D-05 0.000000000000D+00 0.000000000000D+00 0.396217256777D-04 0.000000000000D+00  6 21 1 25 2 1 -2 2 0.23758286D+00 0.23299796D+00 0.25416683D+06 0.25416683D+06 0.25416683D+06 0.10899195D+01  1  2 12  5  6  1        2 0.316674727995D-05 0.100000000000D+01
0.463939647292D-12 0.000000000000D+00 0.000000000000D+00 0.396217256777D-04 0.000000000000D+00  6 21 1 25 2 1 -2 2 0.23713456D+00 0.23299796D+00 0.25416683D+06 0.25416683D+06 0.25416683D+06 0.10899195D+01  1  2 12  5  6  1        2 0.219130944761D-12 0.100000000000D+01
-.423837737810D-02 0.000000000000D+00 -.194125963447D-05 0.396217256777D-04 0.000000000000D+00  6 21 1 25 2 1 -2 2 0.23713362D+00 0.23299796D+00 0.25277315D+06 0.25277315D+06 0.25277315D+06 0.10900989D+01  1  2  5  5  6  1        2 -.200397146255D-02 0.100000000000D+01
0.419038723385D-02 0.000000000000D+00 0.000000000000D+00 0.396217256777D-04 0.463059581945D-06  6 21 1 25 2 1 -2 2 0.23713269D+00 0.23300042D+00 0.25416683D+06 0.25416683D+06 0.25416683D+06 0.10899195D+01  1  2 11  5  6  1        2 0.197924085789D-02 0.100000000000D+01
  </mgrwgt>
  </event>
  <event>
  5     66 0.18337608E-05 0.29541747E+03 0.75467711E-02 0.90288144E-01
        2 -1    0    0  501    0 0.00000000E+00 0.00000000E+00 0.70154158E+03 0.70154165E+03 0.32000000E+00 0.0000E+00 0.9000E+01
        1 -1    0    0  502    0 0.00000000E+00 0.00000000E+00 -.15182179E+04 0.15182180E+04 0.32000000E+00 0.0000E+00 0.9000E+01
       25  1    1    2    0    0 0.56083310E+03 -.45008646E+03 0.30985799E+03 0.79293666E+03 0.12500000E+03 0.0000E+00 0.9000E+01
        2  1    1    2  501    0 -.42553809E+03 0.18752946E+03 -.31097139E+03 0.55942227E+03 0.32000000E+00 0.0000E+00 0.9000E+01
        1  1    1    2  502    0 -.13529500E+03 0.26255699E+03 -.81556297E+03 0.86740070E+03 0.32000000E+00 0.0000E+00 0.9000E+01
#aMCatNLO 1  0  0  2  5 0.33201544D+01 0.00000000D+00  -5  6  0 0.00000000D+00 0.00000000D+00 0.00000000D+00 0.00000000D+00 0.00000000D+00
  <mgrwgt>
 0.3667594091D-04   13    2    0
 0.103203349437294D+04 0.000000000000000D+00 0.000000000000000D+00 0.103203349437294D+04
 0.103203349437294D+04 0.000000000000000D+00 0.000000000000000D+00 -.103203349437294D+04
 0.975349298248131D+03 0.560718430870590D+03 -.450066053219212D+03 0.647083180599548D+03
 0.478417327801186D+03 -.425394059281583D+03 0.187465987791838D+03 -.113046615560105D+03
 0.610300362696556D+03 -.135324371589007D+03 0.262600065427374D+03 -.534036565039442D+03
 0.000000000000000D+00 0.000000000000000D+00 -.000000000000000D+00 -.000000000000000D+00
 0.103204072797922D+04 0.000000000000000D+00 0.000000000000000D+00 0.103204072797922D+04
 0.149925195439692D+04 0.000000000000000D+00 0.000000000000000D+00 -.149925195439692D+04
 0.974584482688503D+03 0.560643759207521D+03 -.448499550216108D+03 0.647083180599548D+03
 0.478751733584943D+03 -.425430713554847D+03 0.188234941191076D+03 -.113046615560105D+03
 0.610733442787409D+03 -.135371130420415D+03 0.263580997775888D+03 -.534036565039442D+03
 0.467223023315285D+03 0.158084767740784D+00 -.331638875085705D+01 -.467211226417703D+03
0.363373543918D-07 0.000000000000D+00 0.000000000000D+00 0.990335424220D-09 0.000000000000D+00  6 2 1 25 2 1 21 0 0.10792948D+00 0.23357200D+00 0.55508035D+06 0.55508035D+06 0.55508035D+06 0.10653175D+01  1  2  2  2  6  2        1 0.133485661881D-06 0.100000000000D+01
0.767690856044D-09 0.000000000000D+00 -.139545008710D-09 0.990335424220D-09 0.000000000000D+00  6 2 1 25 2 1 21 2 0.10792948D+00 0.23357200D+00 0.55508035D+06 0.55508035D+06 0.55508035D+06 0.10653175D+01  1  2  3  2  6  2        1 0.320055862319D-08 0.100000000000D+01
-.195109846422D-07 0.000000000000D+00 0.000000000000D+00 0.990335424220D-09 0.000000000000D+00  6 2 1 25 2 1 21 2 0.10792948D+00 0.23357200D+00 0.55508035D+06 0.55508035D+06 0.55508035D+06 0.10653175D+01  1  2 15  2  6  2        1 -.813427040999D-07 0.100000000000D+01
0.187866691331D-04 0.000000000000D+00 0.000000000000D+00 0.990335424220D-09 0.000000000000D+00  6 2 1 25 2 1 21 2 0.10792948D+00 0.33933967D+00 0.55771754D+06 0.55771754D+06 0.55771754D+06 0.10651734D+01  1  2 12  2  6  2        1 0.269954914722D-04 0.100000000000D+01
0.723125198929D-06 0.000000000000D+00 0.000000000000D+00 0.990335424220D-09 0.000000000000D+00  6 2 1 25 2 1 21 2 0.10792948D+00 0.33931891D+00 0.55771754D+06 0.55771754D+06 0.55771754D+06 0.10651734D+01  1  2 12  2  6  2        1 0.103931361267D-05 0.100000000000D+01
-.575286906100D-03 0.000000000000D+00 0.000000000000D+00 0.990335424220D-09 0.000000000000D+00  6 2 1 25 2 1 21 2 0.10792948D+00 0.23357200D+00 0.55508035D+06 0.55508035D+06 0.55508035D+06 0.10653175D+01  1  2  4  2  6  2        1 -.239841266004D-02 0.100000000000D+01
-.633561755222D-03 0.000000000000D+00 -.232380193092D-07 0.990335424220D-09 0.000000000000D+00  6 2 1 25 2 1 21 2 0.10792948D+00 0.33931451D+00 0.55508035D+06 0.55508035D+06 0.55508035D+06 0.10653175D+01  1  2  5  2  6  2        1 -.911170950962D-03 0.100000000000D+01
0.591823704889D-03 0.000000000000D+00 0.217067854241D-07 0.990335424220D-09 0.000000000000D+00  6 2 1 25 2 1 21 2 0.10792948D+00 0.23357200D+00 0.55508035D+06 0.55508035D+06 0.55508035D+06 0.10653175D+01  1  2  6  2  6  2        1 0.246735576851D-02 0.100000000000D+01
0.592053860584D-03 0.000000000000D+00 0.000000000000D+00 0.990335424220D-09 0.561138324749D-09  6 2 1 25 2 1 21 2 0.10793024D+00 0.33931387D+00 0.55771754D+06 0.55771754D+06 0.55771754D+06 0.10651734D+01  1  2 11  2  6  2        1 0.850967183982D-03 0.100000000000D+01
0.850526793050D-06 0.000000000000D+00 0.000000000000D+00 0.990335424220D-09 0.000000000000D+00  6 2 21 25 2 1 -1 2 0.10792948D+00 0.33933967D+00 0.55771754D+06 0.55771754D+06 0.55771754D+06 0.10651734D+01  1  2 12  6  6  2        1 0.508096923806D-06 0.100000000000D+01
0.327379671224D-07 0.000000000000D+00 0.000000000000D+00 0.990335424220D-09 0.000000000000D+00  6 2 21 25 2 1 -1 2 0.10792948D+00 0.33931891D+00 0.55771754D+06 0.55771754D+06 0.55771754D+06 0.10651734D+01  1  2 12  6  6  2        1 0.195635921632D-07 0.100000000000D+01
-.286821645634D-04 0.000000000000D+00 -.105204180651D-08 0.990335424220D-09 0.000000000000D+00  6 2 21 25 2 1 -1 2 0.10792948D+00 0.33931451D+00 0.55508035D+06 0.55508035D+06 0.55508035D+06 0.10653175D+01  1  2  5  6  6  2        1 -.171551230582D-04 0.100000000000D+01
0.275657673986D-04 0.000000000000D+00 0.000000000000D+00 0.990335424220D-09 0.261261028802D-10  6 2 21 25 2 1 -1 2 0.10793024D+00 0.33931387D+00 0.55771754D+06 0.55771754D+06 0.55771754D+06 0.10651734D+01  1  2 11  6  6  2        1 0.164739133606D-04 0.100000000000D+01
  </mgrwgt>
  </event>
  <event>
  5     66 0.18337608E-05 0.39981232E+02 0.75467711E-02 0.91671266E-01
        2 -1    0    0  501    0 0.00000000E+00 0.00000000E+00 0.41824384E+03 0.41824396E+03 0.32000000E+00 0.0000E+00 0.9000E+01
        1 -1    0    0  502    0 0.00000000E+00 0.00000000E+00 -.18676439E+04 0.18676439E+04 0.32000000E+00 0.0000E+00 0.9000E+01
       25  1    1    2    0    0 0.56431985E+03 -.84366342E+02 -.90575177E+03 0.10777689E+04 0.12500000E+03 0.0000E+00 0.9000E+01
        2  1    1    2  501    0 -.59951924E+03 0.10333148E+03 0.52510180E+02 0.61062111E+03 0.32000000E+00 0.0000E+00 0.9000E+01
        1  1    1    2  502    0 0.35199397E+02 -.18965135E+02 -.59615843E+03 0.59749783E+03 0.32000000E+00 0.0000E+00 0.9000E+01
#aMCatNLO 1  0  0  2  5 0.61013602D+02 0.00000000D+00  -5  6  0 0.00000000D+00 0.00000000D+00 0.00000000D+00 0.00000000D+00 0.00000000D+00
  <mgrwgt>
 0.6122197738D-02    7    2    0
 0.883815995284540D+03 0.000000000000000D+00 0.000000000000000D+00 0.883815995284540D+03
 0.883815995284540D+03 0.000000000000000D+00 0.000000000000000D+00 -.883815995284540D+03
 0.651089822542876D+03 0.564325035980354D+03 -.843678979677530D+02 -.287597407111380D+03
 0.832711498103344D+03 -.599522484368010D+03 0.103332035847885D+03 0.568598030403076D+03
 0.283830669922860D+03 0.351974483876562D+02 -.189641378801324D+02 -.281000623291696D+03
 0.000000000000000D+00 -.000000000000000D+00 -.000000000000000D+00 -.000000000000000D+00
 0.889718084407106D+03 0.000000000000000D+00 0.000000000000000D+00 0.889718084407106D+03
 0.115956016599622D+04 0.000000000000000D+00 0.000000000000000D+00 -.115956016599622D+04
 0.659970916751345D+03 0.577605937941783D+03 -.599643463636056D+02 -.287597407111380D+03
 0.825156580968762D+03 -.582728461968260D+03 0.134190918284014D+03 0.568598030403076D+03
 0.284092824419123D+03 0.409504512988779D+02 -.839304083939336D+01 -.281000623291696D+03
 0.280057928264095D+03 -.358279272724006D+02 -.658335310810156D+02 -.269842081589113D+03
0.137109242497D-03 0.000000000000D+00 0.000000000000D+00 0.241587409552D-05 0.000000000000D+00  6 2 1 25 2 1 21 0 0.64345218D-01 0.28732984D+00 0.37974662D+06 0.37974662D+06 0.37974662D+06 0.10770582D+01  1  2  2  2  6  2        1 0.547451057635D-03 0.100000000000D+01
0.499886787963D-04 0.000000000000D+00 -.526535592879D-06 0.241587409552D-05 0.000000000000D+00  6 2 1 25 2 1 21 2 0.64345218D-01 0.28732984D+00 0.37974662D+06 0.37974662D+06 0.37974662D+06 0.10770582D+01  1  2  3  2  6  2        1 0.231541344060D-03 0.100000000000D+01
-.836031718726D-04 0.000000000000D+00 0.000000000000D+00 0.241587409552D-05 0.000000000000D+00  6 2 1 25 2 1 21 2 0.64345218D-01 0.28732984D+00 0.37974662D+06 0.37974662D+06 0.37974662D+06 0.10770582D+01  1  2 15  2  6  2        1 -.387239496004D-03 0.100000000000D+01
-.731728504384D-04 0.000000000000D+00 0.000000000000D+00 0.241587409552D-05 0.000000000000D+00  6 2 1 25 2 1 21 2 0.64345218D-01 0.28732984D+00 0.37974662D+06 0.37974662D+06 0.37974662D+06 0.10770582D+01  1  2  4  2  6  2        1 -.338927544139D-03 0.100000000000D+01
-.229460629566D-02 0.000000000000D+00 -.102953622212D-03 0.241587409552D-05 0.000000000000D+00  6 2 1 25 2 1 21 2 0.64345218D-01 0.37766854D+00 0.37974662D+06 0.37974662D+06 0.37974662D+06 0.10770582D+01  1  2  5  2  6  2        1 -.426382557761D-02 0.100000000000D+01
0.224217042898D-02 0.000000000000D+00 0.992225256727D-04 0.241587409552D-05 0.000000000000D+00  6 2 1 25 2 1 21 2 0.64345218D-01 0.28732984D+00 0.37974662D+06 0.37974662D+06 0.37974662D+06 0.10770582D+01  1  2  6  2  6  2        1 0.103854546117D-01 0.100000000000D+01
-.809241587224D-04 0.000000000000D+00 -.372034998786D-05 0.241587409552D-05 0.000000000000D+00  6 2 21 25 2 1 -1 2 0.64345218D-01 0.37766854D+00 0.37974662D+06 0.37974662D+06 0.37974662D+06 0.10770582D+01  1  2  5  6  6  2        1 -.522566577222D-04 0.100000000000D+01
  </mgrwgt>
  </event>
  <event>
  5     66 -.18337608E-05 0.18230568E+02 0.75467711E-02 0.92075100E-01
        2 -1    0    0  501    0 0.00000000E+00 0.00000000E+00 0.13673909E+04 0.13673910E+04 0.32000000E+00 0.0000E+00 0.9000E+01
        1 -1    0    0  502    0 0.00000000E+00 0.00000000E+00 -.10659573E+04 0.10659574E+04 0.32000000E+00 0.0000E+00 0.9000E+01
       25  1    1    2    0    0 0.48752814E+02 -.58896598E+03 0.10964540E+04 0.12518363E+04 0.12500000E+03 0.0000E+00 0.9000E+01
        2  1    1    2  501    0 -.17692809E+02 -.46300310E+01 0.10298797E+03 0.10459970E+03 0.32000000E+00 0.0000E+00 0.9000E+01
        1  1    1    2  502    0 -.31060004E+02 0.59359602E+03 -.89800841E+03 0.10769123E+04 0.32000000E+00 0.0000E+00 0.9000E+01
#aMCatNLO 1  0  0  2  2 0.35289122D+03 0.00000000D+00  -5  6  0 0.00000000D+00 0.00000000D+00 0.00000000D+00 0.00000000D+00 0.00000000D+00
  <mgrwgt>
 -.1895132065D-01    7    2    0
 0.120730298494209D+04 0.000000000000000D+00 0.000000000000000D+00 0.120730298494209D+04
 0.120730298494209D+04 0.000000000000000D+00 0.000000000000000D+00 -.120730298494209D+04
 0.112494707670099D+04 0.487049397405751D+02 -.589058381156438D+03 0.948956783954010D+03
 0.922606348117527D+02 -.176366733831364D+02 -.461534075706469D+01 0.904415342502566D+02
 0.119739825837143D+04 -.310682663574387D+02 0.593673721913503D+03 -.103939831820427D+04
 0.000000000000000D+00 0.000000000000000D+00 0.000000000000000D+00 -.000000000000000D+00
 0.120979709978038D+04 0.000000000000000D+00 0.000000000000000D+00 0.120979709978038D+04
 0.141090454402013D+04 0.000000000000000D+00 0.000000000000000D+00 -.141090454402013D+04
 0.113295286458346D+04 0.363547593990978D+02 -.605075653967804D+03 0.948956783954010D+03
 0.925338812382400D+02 -.186474558175587D+02 -.592625100755759D+01 0.904415342502566D+02
 0.118950675819541D+04 -.441240740456252D+02 0.576741302488654D+03 -.103939831820427D+04
 0.205708139783405D+03 0.264167704640860D+02 0.342606024867077D+02 -.201107444239751D+03
0.847847031148D-04 0.000000000000D+00 0.000000000000D+00 0.365688563789D-05 0.000000000000D+00  6 2 1 25 2 1 21 0 0.21036784D+00 0.16399344D+00 0.37018595D+06 0.37018595D+06 0.37018595D+06 0.10778611D+01  1  2  2  2  6  2        1 0.251870654278D-03 0.100000000000D+01
0.279508877805D-04 0.000000000000D+00 -.325595584286D-06 0.365688563789D-05 0.000000000000D+00  6 2 1 25 2 1 21 2 0.21036784D+00 0.16399344D+00 0.37018595D+06 0.37018595D+06 0.37018595D+06 0.10778611D+01  1  2  3  2  6  2        1 0.964675602282D-04 0.100000000000D+01
-.575692557039D-04 0.000000000000D+00 0.000000000000D+00 0.365688563789D-05 0.000000000000D+00  6 2 1 25 2 1 21 2 0.21036784D+00 0.16399344D+00 0.37018595D+06 0.37018595D+06 0.37018595D+06 0.10778611D+01  1  2 15  2  6  2        1 -.198690134121D-03 0.100000000000D+01
-.666515430619D-02 0.000000000000D+00 0.000000000000D+00 0.365688563789D-05 0.000000000000D+00  6 2 1 25 2 1 21 2 0.21036784D+00 0.16399344D+00 0.37018595D+06 0.37018595D+06 0.37018595D+06 0.10778611D+01  1  2  4  2  6  2        1 -.230036047339D-01 0.100000000000D+01
-.481331583204D-02 0.000000000000D+00 -.120211644503D-03 0.365688563789D-05 0.000000000000D+00  6 2 1 25 2 1 21 2 0.21036784D+00 0.19180042D+00 0.37018595D+06 0.37018595D+06 0.37018595D+06 0.10778611D+01  1  2  5  2  6  2        1 -.122921163893D-01 0.100000000000D+01
0.477491368223D-02 0.000000000000D+00 0.118752015398D-03 0.365688563789D-05 0.000000000000D+00  6 2 1 25 2 1 21 2 0.21036784D+00 0.16399344D+00 0.37018595D+06 0.37018595D+06 0.37018595D+06 0.10778611D+01  1  2  6  2  6  2        1 0.164797725511D-01 0.100000000000D+01
-.112790897727D-03 0.000000000000D+00 -.283944677572D-05 0.365688563789D-05 0.000000000000D+00  6 2 21 25 2 1 -1 2 0.21036784D+00 0.19180042D+00 0.37018595D+06 0.37018595D+06 0.37018595D+06 0.10778611D+01  1  2  5  6  6  2        1 -.285020162246D-03 0.100000000000D+01
  </mgrwgt>
  </event>
  <event>
  5     66 0.18337608E-05 0.12014311E+03 0.75467711E-02 0.91816406E-01
        2 -1    0    0  501    0 0.00000000E+00 0.00000000E+00 0.11469760E+04 0.11469761E+04 0.32000000E+00 0.0000E+00 0.9000E+01
        1 -1    0    0  502    0 0.00000000E+00 0.00000000E+00 -.85471647E+03 0.85471653E+03 0.32000000E+00 0.0000E+00 0.9000E+01
       25  1    1    2    0    0 0.48990449E+03 -.73925982E+02 0.30091394E+03 0.59299718E+03 0.12500000E+03 0.0000E+00 0.9000E+01
        2  1    1    2  501    0 -.37735075E+03 0.11589786E+03 0.63839895E+03 0.75058592E+03 0.32000000E+00 0.0000E+00 0.9000E+01
        1  1    1    2  502    0 -.11255374E+03 -.41971878E+02 -.64705334E+03 0.65810949E+03 0.32000000E+00 0.0000E+00 0.9000E+01
#aMCatNLO 1  0  0  5  2 0.28749110D+02 0.00000000D+00  -5  6  0 0.00000000D+00 0.00000000D+00 0.00000000D+00 0.00000000D+00 0.00000000D+00
  <mgrwgt>
 0.5433176526D-02    6    2    0
 0.990120899839629D+03 0.000000000000000D+00 0.000000000000000D+00 0.990120899839629D+03
 0.990120899839629D+03 -.000000000000000D+00 -.000000000000000D+00 -.990120899839629D+03
 0.555031260007488D+03 0.489870352107881D+03 -.739045618051331D+02 0.216794495907049D+03
 0.664405869278420D+03 -.377299228751347D+03 0.115882036486192D+03 0.534464035024869D+03
 0.760804670393350D+03 -.112571123356534D+03 -.419774746810589D+02 -.751258530931917D+03
 0.000000000000000D+00 0.000000000000000D+00 0.000000000000000D+00 -.000000000000000D+00
 0.990120899839629D+03 0.000000000000000D+00 0.000000000000000D+00 0.990120899839629D+03
 0.990120899839629D+03 -.000000000000000D+00 -.000000000000000D+00 -.990120899839629D+03
 0.538807792311261D+03 0.484930815733008D+03 -.757465018775947D+02 0.183829835612072D+03
 0.636420921132475D+03 -.383173476187497D+03 0.113691545126874D+03 0.495261454757142D+03
 0.318422308175933D+03 -.229062837642665D+03 0.442925400238988D+02 -.216705222949078D+03
 0.486590778059589D+03 0.127305498097155D+03 -.822375832731777D+02 -.462386067420137D+03
0.107952244467D-02 0.000000000000D+00 0.000000000000D+00 0.490859094114D-05 0.000000000000D+00  6 2 1 25 2 1 21 0 0.17645786D+00 0.13149485D+00 0.26305475D+06 0.26305475D+06 0.26305475D+06 0.10888000D+01  1  2  2  4  6  5        1 0.640475978482D-02 0.100000000000D+01
0.211736895904D-03 0.000000000000D+00 -.414565043233D-05 0.490859094114D-05 0.000000000000D+00  6 2 1 25 2 1 21 2 0.17645786D+00 0.13149485D+00 0.26305475D+06 0.26305475D+06 0.26305475D+06 0.10888000D+01  1  2  3  4  6  5        1 0.148923729132D-02 0.100000000000D+01
-.698950736377D-03 0.000000000000D+00 0.000000000000D+00 0.490859094114D-05 0.000000000000D+00  6 2 1 25 2 1 21 2 0.17645786D+00 0.13149485D+00 0.26305475D+06 0.26305475D+06 0.26305475D+06 0.10888000D+01  1  2 15  4  6  5        1 -.491602324180D-02 0.100000000000D+01
-.244124482397D-04 0.000000000000D+00 0.000000000000D+00 0.490859094114D-05 0.000000000000D+00  6 2 1 25 2 1 21 2 0.17645786D+00 0.13149485D+00 0.26305475D+06 0.26305475D+06 0.26305475D+06 0.10888000D+01  1  2  4  4  6  5        1 -.171703321407D-03 0.100000000000D+01
-.485013918701D-03 0.000000000000D+00 0.000000000000D+00 0.490859094114D-05 0.000000000000D+00  6 2 1 25 2 1 21 2 0.17645786D+00 0.13149485D+00 0.26305475D+06 0.26305475D+06 0.26305475D+06 0.10888000D+01  1  2  5  4  6  5        1 -.341131294788D-02 0.100000000000D+01
0.858502366983D-03 0.000000000000D+00 -.000000000000D+00 0.490859094114D-05 0.000000000000D+00  6 2 1 25 2 1 21 2 0.17645786D+00 0.13149485D+00 0.26305475D+06 0.26305475D+06 0.26305475D+06 0.10888000D+01  1  2  6  4  6  5        1 0.603821896105D-02 0.100000000000D+01
  </mgrwgt>
  </event>
  <event>
  5     66 0.18337608E-05 0.10253737E+03 0.75467711E-02 0.90406204E-01
        2 -1    0    0  501    0 0.00000000E+00 0.00000000E+00 0.78396261E+03 0.78396267E+03 0.32000000E+00 0.0000E+00 0.9000E+01
        1 -1    0    0  502    0 0.00000000E+00 0.00000000E+00 -.25478987E+04 0.25478987E+04 0.32000000E+00 0.0000E+00 0.9000E+01
       25  1    1    2    0    0 -.71323338E+02 0.65013552E+03 0.21687189E+03 0.70030109E+03 0.12500000E+03 0.0000E+00 0.9000E+01
        2  1    1    2  501    0 0.17337762E+03 -.65996468E+03 -.35213874E+02 0.68326664E+03 0.32000000E+00 0.0000E+00 0.9000E+01
        1  1    1    2  502    0 -.10205428E+03 0.98291643E+01 -.19455941E+04 0.19482937E+04 0.32000000E+00 0.0000E+00 0.9000E+01
#aMCatNLO 1  0  0  2  4 0.19739454D+02 0.00000000D+00  -5  6  0 0.00000000D+00 0.00000000D+00 0.00000000D+00 0.00000000D+00 0.00000000D+00
  <mgrwgt>
 0.2278128276D-02    9    2    0
 0.141331435337883D+04 0.000000000000000D+00 0.000000000000000D+00 0.141331435337883D+04
 0.141331435337883D+04 0.000000000000000D+00 0.000000000000000D+00 -.141331435337883D+04
 0.960847727021918D+03 -.712827573109022D+02 0.650021811889274D+03 0.692815824805934D+03
 0.783284582647744D+03 0.173347881151021D+03 -.659851476517338D+03 0.384813303371895D+03
 0.108249639708800D+04 -.102065123840119D+03 0.982966462806417D+01 -.107762912817783D+04
 0.000000000000000D+00 0.000000000000000D+00 -.000000000000000D+00 -.000000000000000D+00
 0.141550646720258D+04 0.000000000000000D+00 0.000000000000000D+00 0.141550646720258D+04
 0.145849580952405D+04 0.000000000000000D+00 0.000000000000000D+00 -.145849580952405D+04
 0.964480281891258D+03 -.759561292615313D+02 0.654854268889743D+03 0.692815824805934D+03
 0.779149717776728D+03 0.169555365485898D+03 -.655929860804117D+03 0.384813303371895D+03
 0.108306763041336D+04 -.107321623582794D+03 0.152650995234248D+02 -.107762912817783D+04
 0.473046466452781D+02 0.137223873584272D+02 -.141895076090502D+02 -.429893423214709D+02
0.328085706130D-03 0.000000000000D+00 0.000000000000D+00 0.122026818931D-05 0.000000000000D+00  6 2 1 25 2 1 21 0 0.12060964D+00 0.39198442D+00 0.52601477D+06 0.52601477D+06 0.52601477D+06 0.10669571D+01  1  2  2  2  6  2        1 0.210684086779D-03 0.100000000000D+01
0.103616401892D-03 0.000000000000D+00 -.125993549849D-05 0.122026818931D-05 0.000000000000D+00  6 2 1 25 2 1 21 2 0.12060964D+00 0.39198442D+00 0.52601477D+06 0.52601477D+06 0.52601477D+06 0.10669571D+01  1  2  3  2  6  2        1 0.757472394665D-04 0.100000000000D+01
-.189512261098D-03 0.000000000000D+00 0.000000000000D+00 0.122026818931D-05 0.000000000000D+00  6 2 1 25 2 1 21 2 0.12060964D+00 0.39198442D+00 0.52601477D+06 0.52601477D+06 0.52601477D+06 0.10669571D+01  1  2 15  2  6  2        1 -.138540138058D-03 0.100000000000D+01
0.157783110906D-07 0.000000000000D+00 0.000000000000D+00 0.122026818931D-05 0.000000000000D+00  6 2 1 25 2 1 21 2 0.12060964D+00 0.40525152D+00 0.54510324D+06 0.54510324D+06 0.54510324D+06 0.10658695D+01  1  2 12  2  6  2        1 0.997817841226D-08 0.100000000000D+01
-.882417320762D-04 0.000000000000D+00 0.000000000000D+00 0.122026818931D-05 0.000000000000D+00  6 2 1 25 2 1 21 2 0.12060964D+00 0.39198442D+00 0.52601477D+06 0.52601477D+06 0.52601477D+06 0.10669571D+01  1  2  4  2  6  2        1 -.645078142886D-04 0.100000000000D+01
-.238715174011D-01 0.000000000000D+00 -.154239053463D-02 0.122026818931D-05 0.000000000000D+00  6 2 1 25 2 1 21 2 0.12060964D+00 0.40470436D+00 0.52601477D+06 0.52601477D+06 0.52601477D+06 0.10669571D+01  1  2  5  2  6  2        1 -.152580508274D-01 0.100000000000D+01
0.239093666298D-01 0.000000000000D+00 0.154160438316D-02 0.122026818931D-05 0.000000000000D+00  6 2 1 25 2 1 21 2 0.12060964D+00 0.39198442D+00 0.52601477D+06 0.52601477D+06 0.52601477D+06 0.10669571D+01  1  2  6  2  6  2        1 0.174785891666D-01 0.100000000000D+01
0.498867784759D-09 0.000000000000D+00 0.000000000000D+00 0.122026818931D-05 0.000000000000D+00  6 2 21 25 2 1 -1 2 0.12060964D+00 0.40525152D+00 0.54510324D+06 0.54510324D+06 0.54510324D+06 0.10658695D+01  1  2 12  6  6  2        1 0.931505295182D-10 0.100000000000D+01
-.136088801110D-03 0.000000000000D+00 -.880864921854D-05 0.122026818931D-05 0.000000000000D+00  6 2 21 25 2 1 -1 2 0.12060964D+00 0.40470436D+00 0.52601477D+06 0.52601477D+06 0.52601477D+06 0.10669571D+01  1  2  5  6  6  2        1 -.258035084561D-04 0.100000000000D+01
  </mgrwgt>
  </event>
  <event>
  6     66 0.18337608E-05 0.34435644E+02 0.75467711E-02 0.91176723E-01
        2 -1    0    0  503    0 0.00000000E+00 0.00000000E+00 0.14470945E+04 0.14470946E+04 0.32000000E+00 0.0000E+00 0.9000E+01
        1 -1    0    0  502    0 0.00000000E+00 0.00000000E+00 -.13352878E+04 0.13352878E+04 0.32000000E+00 0.0000E+00 0.9000E+01
       25  1    1    2    0    0 -.25236854E+03 -.60063624E+03 0.53063721E+03 0.84950257E+03 0.12500000E+03 0.0000E+00 0.9000E+01
        2  1    1    2  501    0 0.17459071E+03 0.58332716E+03 0.42934220E+03 0.74504182E+03 0.32000000E+00 0.0000E+00 0.9000E+01
        1  1    1    2  502    0 0.24738714E+02 0.35486240E+02 -.10129028E+04 0.10138261E+04 0.32000000E+00 0.0000E+00 0.9000E+01
       21  1    1    2  503  501 0.53039119E+02 -.18177155E+02 0.16473013E+03 0.17401188E+03 0.75000000E+00 0.0000E+00 0.9000E+01
#aMCatNLO 2  0  0  1  4 0.56067434D+02 0.00000000D+00  -5  6  0 0.00000000D+00 0.00000000D+00 0.00000000D+00 0.00000000D+00 0.00000000D+00
  <mgrwgt>
 0.1492583181D-01    1    2    0
 0.130361539856898D+04 0.000000000000000D+00 0.000000000000000D+00 0.130361539856898D+04
 0.130361539856898D+04 0.000000000000000D+00 0.000000000000000D+00 -.130361539856898D+04
 0.859732060240231D+03 -.234847621593883D+03 -.606538905446588D+03 0.548152685130943D+03
 0.753441723248843D+03 0.189890620536517D+03 0.577976433463231D+03 0.444476349118337D+03
 0.994057013648881D+03 0.449570010573666D+02 0.285624719833565D+02 -.992629034249281D+03
 0.000000000000000D+00 0.000000000000000D+00 -.000000000000000D+00 0.000000000000000D+00
 0.147675899567343D+04 0.000000000000000D+00 0.000000000000000D+00 0.147675899567343D+04
 0.130846365039406D+04 0.000000000000000D+00 0.000000000000000D+00 -.130846365039406D+04
 0.860479670182320D+03 -.252342806337880D+03 -.600543091435022D+03 0.548152685130943D+03
 0.753782505831464D+03 0.174561596863419D+03 0.583229877554716D+03 0.444476349118337D+03
 0.993571405078874D+03 0.247420904314993D+02 0.354903693532149D+02 -.992629034249281D+03
 0.177389064974831D+03 0.530391190429622D+02 -.181771554729085D+02 0.168295345279378D+03
0.769734166897D-02 0.000000000000D+00 0.000000000000D+00 0.618880582758D-05 0.129949537416D-07  6 2 1 25 2 1 21 2 0.22262980D+00 0.20542877D+00 0.47019420D+06 0.47019420D+06 0.47019420D+06 0.10704020D+01  1  2  1  1  6  1        2 0.149258318091D-01 0.100000000000D+01
  </mgrwgt>
  </event>
  <event>
  6     66 -.18337608E-05 0.84139441E+02 0.75467711E-02 0.89980529E-01
        2 -1    0    0  501    0 0.00000000E+00 0.00000000E+00 0.98514090E+03 0.98514096E+03 0.32000000E+00 0.0000E+00 0.9000E+01
        1 -1    0    0  503    0 0.00000000E+00 0.00000000E+00 -.20744295E+04 0.20744296E+04 0.32000000E+00 0.0000E+00 0.9000E+01
       25  1    1    2    0    0 -.59767001E+03 0.18847416E+03 -.18234138E+03 0.66453392E+03 0.12500000E+03 0.0000E+00 0.9000E+01
        2  1    1    2  501    0 0.72734723E+02 0.10606425E+03 0.64658780E+03 0.65925401E+03 0.32000000E+00 0.0000E+00 0.9000E+01
        1  1    1    2  502    0 0.61377216E+03 -.29813224E+03 -.13208562E+04 0.14866945E+04 0.32000000E+00 0.0000E+00 0.9000E+01
       21  1    1    2  503  502 -.88836876E+02 0.35938298E+01 -.23267881E+03 0.24908813E+03 0.75000000E+00 0.0000E+00 0.9000E+01
#aMCatNLO 2  0  0  2  5 0.88909539D+02 0.00000000D+00  -5  6  0 0.00000000D+00 0.00000000D+00 0.00000000D+00 0.00000000D+00 0.00000000D+00
  <mgrwgt>
 -.7841572161D-02    3    2    0
 0.133764027020148D+04 0.000000000000000D+00 0.000000000000000D+00 0.133764027020148D+04
 0.133764027020148D+04 0.000000000000000D+00 0.000000000000000D+00 -.133764027020148D+04
 0.659903023404919D+03 -.619295763636296D+03 0.189384935977679D+03 0.212862271391984D+02
 0.897237183954038D+03 0.429116132651831D+02 0.107259207819875D+03 0.889768857656080D+03
 0.111814033304400D+04 0.576384150371112D+03 -.296644143797554D+03 -.911055084795278D+03
 0.000000000000000D+00 -.000000000000000D+00 0.000000000000000D+00 -.000000000000000D+00
 0.134961820289788D+04 0.000000000000000D+00 0.000000000000000D+00 0.134961820289788D+04
 0.151420842665894D+04 0.000000000000000D+00 0.000000000000000D+00 -.151420842665894D+04
 0.639448253433676D+03 -.597728221204130D+03 0.188512437069027D+03 0.212862271391984D+02
 0.899013398636899D+03 0.727270383541478D+02 0.106053046944896D+03 0.889768857656080D+03
 0.113829587822594D+04 0.613838058794126D+03 -.298159313841921D+03 -.911055084795278D+03
 0.187069099260311D+03 -.888368759441438D+02 0.359382982799842D+01 -.164590223761062D+03
-.121376810903D-01 0.000000000000D+00 0.000000000000D+00 0.384556223568D-05 0.000000000000D+00  6 2 1 25 2 1 21 2 0.15021496D+00 0.33543752D+00 0.59214329D+06 0.59214329D+06 0.59214329D+06 0.10633573D+01  1  2 13  2  6  2        1 -.116258804793D-01 0.100000000000D+01
-.216603598534D-07 0.000000000000D+00 0.000000000000D+00 0.384556223568D-05 0.000000000000D+00  6 2 1 25 2 1 21 2 0.15021496D+00 0.32096152D+00 0.59214329D+06 0.59214329D+06 0.59214329D+06 0.10633573D+01  1  2 13  2  6  2        1 -.240222300030D-07 0.100000000000D+01
0.339324853477D-02 0.000000000000D+00 0.000000000000D+00 0.384556223568D-05 0.662800015529D-09  6 2 1 25 2 1 21 2 0.15156006D+00 0.31914284D+00 0.59214329D+06 0.59214329D+06 0.59214329D+06 0.10633573D+01  1  2  1  2  6  2        1 0.378433234011D-02 0.100000000000D+01
  </mgrwgt>
  </event>
  <event>
  5     66 0.18337608E-05 0.57198304E+02 0.75467711E-02 0.91053449E-01
        2 -1    0    0  501    0 0.00000000E+00 0.00000000E+00 0.10445370E+04 0.10445370E+04 0.32000000E+00 0.0000E+00 0.9000E+01
        1 -1    0    0  502    0 -.00000000E+00 -.00000000E+00 -.22616666E+04 0.22616666E+04 0.32000000E+00 0.0000E+00 0.9000E+01
       25  1    1    2    0    0 0.37609035E+03 -.52619388E+03 -.34282440E+03 0.74261532E+03 0.12500000E+03 0.0000E+00 0.9000E+01
        2  1    1    2  501    0 -.26374470E+02 -.50758645E+02 0.77735037E+03 0.77945222E+03 0.32000000E+00 0.0000E+00 0.9000E+01
        1  1    1    2  502    0 -.34971588E+03 0.57695252E+03 -.16516556E+04 0.17841361E+04 0.32000000E+00 0.0000E+00 0.9000E+01
#aMCatNLO 1  0  0  5  2 0.28760170D+02 0.00000000D+00  -5  6  0 0.00000000D+00 0.00000000D+00 0.00000000D+00 0.00000000D+00 0.00000000D+00
  <mgrwgt>
 0.5579270245D-01    8    2    0
 0.153700829803741D+04 0.000000000000000D+00 0.000000000000000D+00 0.153700829803741D+04
 0.153700829803741D+04 -.000000000000000D+00 -.000000000000000D+00 -.153700829803741D+04
 0.663023829192237D+03 0.376122025095492D+03 -.526248398472253D+03 -.746354032627429D+02
 0.114603960511835D+04 -.263728306509981D+02 -.507554897751461D+02 0.114461134476335D+04
 0.126495316176422D+04 -.349749194444494D+03 0.577003888247399D+03 -.106997594150061D+04
 0.000000000000000D+00 0.000000000000000D+00 0.000000000000000D+00 0.000000000000000D+00
 0.153700829803741D+04 0.000000000000000D+00 0.000000000000000D+00 0.153700829803741D+04
 0.153700829803741D+04 -.000000000000000D+00 -.000000000000000D+00 -.153700829803741D+04
 0.662482687876418D+03 0.375768216522227D+03 -.525664697563967D+03 -.757177979252730D+02
 0.114414176199602D+04 -.269841334183434D+02 -.497469840251475D+02 0.114274120677756D+04
 0.119051186373820D+04 -.317257087009130D+03 0.521617446225917D+03 -.102204778666980D+04
 0.768802824641742D+02 -.315269960947533D+02 0.537942353631974D+02 -.449756221824840D+02
0.401690445558D-02 0.000000000000D+00 0.000000000000D+00 0.318959929418D-04 0.000000000000D+00  6 2 1 25 2 1 21 0 0.16069800D+00 0.34794871D+00 0.48353668D+06 0.48353668D+06 0.48353668D+06 0.10695396D+01  1  2  2  4  6  5        1 0.275876271194D-02 0.100000000000D+01
0.209184863543D-02 0.000000000000D+00 -.154259707847D-04 0.318959929418D-04 0.000000000000D+00  6 2 1 25 2 1 21 2 0.16069800D+00 0.34794871D+00 0.48353668D+06 0.48353668D+06 0.48353668D+06 0.10695396D+01  1  2  3  4  6  5        1 0.164341335261D-02 0.100000000000D+01
-.232838920028D-02 0.000000000000D+00 0.000000000000D+00 0.318959929418D-04 0.000000000000D+00  6 2 1 25 2 1 21 2 0.16069800D+00 0.34794871D+00 0.48353668D+06 0.48353668D+06 0.48353668D+06 0.10695396D+01  1  2 15  4  6  5        1 -.182924607307D-02 0.100000000000D+01
0.923045907705D-01 0.000000000000D+00 0.000000000000D+00 0.318959929418D-04 0.000000000000D+00  6 2 1 25 2 1 21 2 0.16069800D+00 0.34794871D+00 0.48136496D+06 0.48136496D+06 0.48136496D+06 0.10696782D+01  1  2 12  4  6  5        1 0.725613045091D-01 0.100000000000D+01
0.875563713317D-08 0.000000000000D+00 0.000000000000D+00 0.318959929418D-04 0.000000000000D+00  6 2 1 25 2 1 21 2 0.16069800D+00 0.34794871D+00 0.48136496D+06 0.48136496D+06 0.48136496D+06 0.10696782D+01  1  2 12  4  6  5        1 0.688286949639D-08 0.100000000000D+01
-.379660038072D-01 0.000000000000D+00 0.000000000000D+00 0.318959929418D-04 0.000000000000D+00  6 2 1 25 2 1 21 2 0.16069800D+00 0.34794871D+00 0.48353668D+06 0.48353668D+06 0.48353668D+06 0.10695396D+01  1  2  4  4  6  5        1 -.298271282850D-01 0.100000000000D+01
-.213137497845D+00 0.000000000000D+00 0.000000000000D+00 0.318959929418D-04 0.000000000000D+00  6 2 1 25 2 1 21 2 0.16069800D+00 0.34794871D+00 0.48353668D+06 0.48353668D+06 0.48353668D+06 0.10695396D+01  1  2  5  4  6  5        1 -.167446632595D+00 0.100000000000D+01
0.226484271347D+00 0.000000000000D+00 -.000000000000D+00 0.318959929418D-04 0.000000000000D+00  6 2 1 25 2 1 21 2 0.16069800D+00 0.34794871D+00 0.48353668D+06 0.48353668D+06 0.48353668D+06 0.10695396D+01  1  2  6  4  6  5        1 0.177932221951D+00 0.100000000000D+01
  </mgrwgt>
  </event>
  <event>
  6     66 -.18337608E-05 0.73368925E+02 0.75467711E-02 0.91475698E-01
        2 -1    0    0  503    0 0.00000000E+00 0.00000000E+00 0.12394866E+04 0.12394866E+04 0.32000000E+00 0.0000E+00 0.9000E+01
        1 -1    0    0  502    0 0.00000000E+00 0.00000000E+00 -.99250780E+03 0.99250785E+03 0.32000000E+00 0.0000E+00 0.9000E+01
       25  1    1    2    0    0 0.56672977E+03 0.15999542E+03 0.41306281E+03 0.73008702E+03 0.12500000E+03 0.0000E+00 0.9000E+01
        2  1    1    2  501    0 0.63353448E+02 -.22156714E+02 0.44250617E+03 0.44756719E+03 0.32000000E+00 0.0000E+00 0.9000E+01
        1  1    1    2  502    0 -.63955911E+03 -.13822000E+03 -.70245678E+03 0.95999284E+03 0.32000000E+00 0.0000E+00 0.9000E+01
       21  1    1    2  503  501 0.94758889E+01 0.38130095E+00 0.93866579E+02 0.94347416E+02 0.75000000E+00 0.0000E+00 0.9000E+01
#aMCatNLO 2  0  0  1  4 0.94835574D+01 0.00000000D+00  -5  6  0 0.00000000D+00 0.00000000D+00 0.00000000D+00 0.00000000D+00 0.00000000D+00
  <mgrwgt>
 -.1150872353D-01    6    2    0
 0.106606772919575D+04 0.000000000000000D+00 0.000000000000000D+00 0.106606772919575D+04
 0.106606772919575D+04 0.000000000000000D+00 0.000000000000000D+00 -.106606772919575D+04
 0.705025058719382D+03 0.569971461410270D+03 0.160133847449848D+03 0.361835622211271D+03
 0.417037627149881D+03 0.651778816994178D+02 -.220722333901042D+02 0.411321094413054D+03
 0.101007277252224D+04 -.635149343109688D+03 -.138061614059744D+03 -.773156716624325D+03
 0.000000000000000D+00 0.000000000000000D+00 0.000000000000000D+00 0.000000000000000D+00
 0.115366796139230D+04 0.000000000000000D+00 0.000000000000000D+00 0.115366796139230D+04
 0.106633497685901D+04 0.000000000000000D+00 0.000000000000000D+00 -.106633497685901D+04
 0.702470260524819D+03 0.566843798179703D+03 0.160007993194083D+03 0.361835622211271D+03
 0.416756028486546D+03 0.633250686044412D+02 -.221467888636159D+02 0.411321094413054D+03
 0.101293026030479D+04 -.639644755715746D+03 -.138242505276664D+03 -.773156716624325D+03
 0.878463889351602D+02 0.947588893160156D+01 0.381300946196686D+00 0.873329845332897D+02
-.622422767014D-02 0.000000000000D+00 0.000000000000D+00 0.236122440764D-05 0.000000000000D+00  6 2 1 25 2 1 21 2 0.19889761D+00 0.15265502D+00 0.44428568D+06 0.44428568D+06 0.44428568D+06 0.10721555D+01  1  2 13  1  6  1        2 -.263615846866D-01 0.100000000000D+01
-.831495591258D-07 0.000000000000D+00 0.000000000000D+00 0.236122440764D-05 0.000000000000D+00  6 2 1 25 2 1 21 2 0.19071552D+00 0.15265502D+00 0.44428568D+06 0.44428568D+06 0.44428568D+06 0.10721555D+01  1  2 13  1  6  1        2 -.377845584174D-06 0.100000000000D+01
-.317120467980D-03 0.000000000000D+00 0.000000000000D+00 0.236122440764D-05 0.000000000000D+00  6 2 1 25 2 1 21 2 0.17621051D+00 0.15265502D+00 0.43816872D+06 0.43816872D+06 0.43816872D+06 0.10725858D+01  1  2  8  1  6  1        2 -.163888336209D-02 0.100000000000D+01
-.987488805527D-03 0.000000000000D+00 0.000000000000D+00 0.236122440764D-05 0.000000000000D+00  6 2 1 25 2 1 21 2 0.19070863D+00 0.15265502D+00 0.43816872D+06 0.43816872D+06 0.43816872D+06 0.10725858D+01  1  2  9  1  6  1        2 -.449465970874D-02 0.100000000000D+01
0.984410104699D-03 0.000000000000D+00 0.000000000000D+00 0.236122440764D-05 0.000000000000D+00  6 2 1 25 2 1 21 2 0.17621051D+00 0.15265502D+00 0.43816872D+06 0.43816872D+06 0.43816872D+06 0.10725858D+01  1  2 10  1  6  1        2 0.508744627032D-02 0.100000000000D+01
0.349961990709D-02 0.000000000000D+00 0.000000000000D+00 0.236122440764D-05 0.818731945416D-06  6 2 1 25 2 1 21 2 0.19068996D+00 0.15269329D+00 0.44428568D+06 0.44428568D+06 0.44428568D+06 0.10721555D+01  1  2  1  1  6  1        2 0.158993358034D-01 0.100000000000D+01
  </mgrwgt>
  </event>
  <event>
  5     66 -.18337608E-05 0.23182972E+02 0.75467711E-02 0.94525158E-01
        2 -1    0    0  501    0 0.00000000E+00 0.00000000E+00 0.13253249E+04 0.13253249E+04 0.32000000E+00 0.0000E+00 0.9000E+01
        1 -1    0    0  502    0 0.00000000E+00 0.00000000E+00 -.12077748E+04 0.12077748E+04 0.32000000E+00 0.0000E+00 0.9000E+01
       25  1    1    2    0    0 -.29421514E+02 0.49152959E+03 -.52371690E+03 0.72963782E+03 0.12500000E+03 0.0000E+00 0.9000E+01
        2  1    1    2  501    0 -.16639158E+02 -.16143824E+02 0.11240857E+04 0.11243248E+04 0.32000000E+00 0.0000E+00 0.9000E+01
        1  1    1    2  502    0 0.46060672E+02 -.47538576E+03 -.48281869E+03 0.67913710E+03 0.32000000E+00 0.0000E+00 0.9000E+01
#aMCatNLO 1  0  0  5  2 0.23501029D+02 0.00000000D+00  -5  6  0 0.00000000D+00 0.00000000D+00 0.00000000D+00 0.00000000D+00 0.00000000D+00
  <mgrwgt>
 -.9722657995D-03    1    2    0
 0.126518539662132D+04 0.000000000000000D+00 0.000000000000000D+00 0.126518539662132D+04
 0.126518539662132D+04 -.000000000000000D+00 -.000000000000000D+00 -.126518539662132D+04
 0.754767734407980D+03 -.294253273377621D+02 0.491574103124761D+03 -.558156236327704D+03
 0.107328278281674D+04 -.166386249236415D+02 -.161433065215929D+02 0.107303237682096D+04
 0.702320276017924D+03 0.460639522614036D+02 -.475430796603167D+03 -.514876140493255D+03
 0.000000000000000D+00 0.000000000000000D+00 0.000000000000000D+00 -.000000000000000D+00
 0.126518539662132D+04 0.000000000000000D+00 0.000000000000000D+00 0.126518539662132D+04
 0.126518539662132D+04 -.000000000000000D+00 -.000000000000000D+00 -.126518539662132D+04
 0.754790591584049D+03 -.294101606015027D+02 0.491417565677414D+03 -.558325761308644D+03
 0.107304484156286D+04 -.166170604802909D+02 -.163658753628921D+02 0.107279134198093D+04
 0.652846886451434D+03 0.346566928469832D+02 -.443780520424199D+03 -.477563420377094D+03
 0.496884736443016D+02 0.113705282348104D+02 -.312711698903231D+02 -.369021602951966D+02
-.323018835264D-03 0.000000000000D+00 0.000000000000D+00 0.333671772908D-04 0.000000000000D+00  6 2 1 25 2 1 21 2 0.20389615D+00 0.18581151D+00 0.25447531D+06 0.25447531D+06 0.25447531D+06 0.10898799D+01  1  2 14  4  6  5        1 -.972265799466D-03 0.100000000000D+01
  </mgrwgt>
  </event>
  <event>
  5     66 0.18337608E-05 0.13758826E+03 0.75467711E-02 0.93191912E-01
        2 -1    0    0  501    0 0.00000000E+00 0.00000000E+00 0.14971243E+04 0.14971243E+04 0.32000000E+00 0.0000E+00 0.9000E+01
        1 -1    0    0  502    0 0.00000000E+00 0.00000000E+00 -.35497271E+04 0.35497271E+04 0.32000000E+00 0.0000E+00 0.9000E+01
       25  1    1    2    0    0 -.51972172E+03 0.21456322E+02 0.14538515E+03 0.55437612E+03 0.12500000E+03 0.0000E+00 0.9000E+01
        2  1    1    2  501    0 0.15221430E+03 -.33155192E+02 0.11317882E+04 0.11424592E+04 0.32000000E+00 0.0000E+00 0.9000E+01
        1  1    1    2  502    0 0.36750742E+03 0.11698870E+02 -.33297761E+04 0.33500161E+04 0.32000000E+00 0.0000E+00 0.9000E+01
#aMCatNLO 1  0  0  1  5 0.63169810D+02 0.00000000D+00  -5  6  0 0.00000000D+00 0.00000000D+00 0.00000000D+00 0.00000000D+00 0.00000000D+00
  <mgrwgt>
 0.1981922277D-01    9    2    0
 0.230529450138484D+04 0.000000000000000D+00 0.000000000000000D+00 0.230529450138484D+04
 0.230529450138484D+04 0.000000000000000D+00 0.000000000000000D+00 -.230529450138484D+04
 0.671616158863320D+03 -.519739514249459D+03 0.214543577827510D+02 0.406021936237668D+03
 0.175435549733322D+04 0.152208256397647D+03 -.331538760004241D+02 0.174742572895497D+04
 0.218461734657315D+04 0.367531257851812D+03 0.116995182176730D+02 -.215344766519264D+04
 0.000000000000000D+00 -.000000000000000D+00 0.000000000000000D+00 0.000000000000000D+00
 0.264406736183535D+04 0.000000000000000D+00 0.000000000000000D+00 0.264406736183535D+04
 0.230845751028176D+04 0.000000000000000D+00 0.000000000000000D+00 -.230845751028176D+04
 0.669958627692620D+03 -.517890618166351D+03 0.124522178292883D+02 0.406021936237668D+03
 0.175538465865600D+04 0.157045217327566D+03 -.567046853933266D+02 0.174742572895497D+04
 0.218567844178815D+04 0.373554196599691D+03 -.176257305266440D+02 -.215344766519264D+04
 0.341503143980346D+03 -.127087957609065D+02 0.618781980906823D+02 0.335609851553584D+03
0.297528209868D-01 0.000000000000D+00 0.000000000000D+00 0.320384766542D-03 0.000000000000D+00  6 2 1 25 2 1 21 0 0.23032682D+00 0.54611186D+00 0.28009749D+06 0.28009749D+06 0.28009749D+06 0.10867644D+01  1  2  2  1  6  1        2 0.131110585287D-02 0.100000000000D+01
0.528640669729D-02 0.000000000000D+00 -.114258666687D-03 0.320384766542D-03 0.000000000000D+00  6 2 1 25 2 1 21 2 0.23032682D+00 0.54611186D+00 0.28009749D+06 0.28009749D+06 0.28009749D+06 0.10867644D+01  1  2  3  1  6  1        2 0.275131926410D-03 0.100000000000D+01
-.192757504512D-01 0.000000000000D+00 0.000000000000D+00 0.320384766542D-03 0.000000000000D+00  6 2 1 25 2 1 21 2 0.23032682D+00 0.54611186D+00 0.28009749D+06 0.28009749D+06 0.28009749D+06 0.10867644D+01  1  2 15  1  6  1        2 -.100320967688D-02 0.100000000000D+01
0.276669608420D-08 0.000000000000D+00 0.000000000000D+00 0.320384766542D-03 0.000000000000D+00  6 2 1 25 2 1 21 2 0.26432885D+00 0.54611186D+00 0.32320154D+06 0.32320154D+06 0.32320154D+06 0.10821664D+01  1  2 12  1  6  1        2 0.106269788025D-09 0.100000000000D+01
-.164185909356D+00 0.000000000000D+00 0.000000000000D+00 0.320384766542D-03 0.000000000000D+00  6 2 1 25 2 1 21 2 0.23032682D+00 0.54611186D+00 0.28009749D+06 0.28009749D+06 0.28009749D+06 0.10867644D+01  1  2  4  1  6  1        2 -.854508328951D-02 0.100000000000D+01
-.230518148939D+01 0.000000000000D+00 -.452210688234D-01 0.320384766542D-03 0.000000000000D+00  6 2 1 25 2 1 21 2 0.26429995D+00 0.54611186D+00 0.28009749D+06 0.28009749D+06 0.28009749D+06 0.10867644D+01  1  2  5  1  6  1        2 -.908862021761D-01 0.100000000000D+01
0.229011802055D+01 0.000000000000D+00 0.447964072769D-01 0.320384766542D-03 0.000000000000D+00  6 2 1 25 2 1 21 2 0.23032682D+00 0.54611186D+00 0.28009749D+06 0.28009749D+06 0.28009749D+06 0.10867644D+01  1  2  6  1  6  1        2 0.119189577870D+00 0.100000000000D+01
0.588547998352D-10 0.000000000000D+00 0.000000000000D+00 0.320384766542D-03 0.000000000000D+00  6 21 1 25 2 1 -2 2 0.26432885D+00 0.54611186D+00 0.32320154D+06 0.32320154D+06 0.32320154D+06 0.10821664D+01  1  2 12  5  6  1        2 0.609711559060D-12 0.100000000000D+01
-.487366547810D-01 0.000000000000D+00 -.961341566050D-03 0.320384766542D-03 0.000000000000D+00  6 21 1 25 2 1 -2 2 0.26429995D+00 0.54611186D+00 0.28009749D+06 0.28009749D+06 0.28009749D+06 0.10867644D+01  1  2  5  5  6  1        2 -.522097840744D-03 0.100000000000D+01
  </mgrwgt>
  </event>
  <event>
  5     66 -.18337608E-05 0.33525847E+02 0.75467711E-02 0.94245082E-01
        2 -1    0    0  501    0 0.00000000E+00 0.00000000E+00 0.16942181E+04 0.16942181E+04 0.32000000E+00 0.0000E+00 0.9000E+01
        1 -1    0    0  502    0 0.00000000E+00 0.00000000E+00 -.36793061E+03 0.36793074E+03 0.32000000E+00 0.0000E+00 0.9000E+01
       25  1    1    2    0    0 -.71058311E+02 -.48785203E+03 0.66090497E+03 0.83394800E+03 0.12500000E+03 0.0000E+00 0.9000E+01
        2  1    1    2  501    0 0.10070105E+03 0.47220223E+03 0.88387610E+03 0.10071508E+04 0.32000000E+00 0.0000E+00 0.9000E+01
        1  1    1    2  502    0 -.29642738E+02 0.15649804E+02 -.21849356E+03 0.22105010E+03 0.32000000E+00 0.0000E+00 0.9000E+01
#aMCatNLO 1  0  0  2  4 0.81947989D+01 0.00000000D+00  -5  6  0 0.00000000D+00 0.00000000D+00 0.00000000D+00 0.00000000D+00 0.00000000D+00
  <mgrwgt>
 -.8315426974D-02   11    2    0
 0.789528258511314D+03 0.000000000000000D+00 0.000000000000000D+00 0.789528258511314D+03
 0.789528258511314D+03 0.000000000000000D+00 0.000000000000000D+00 -.789528258511314D+03
 0.533959409598516D+03 -.710415957489838D+02 -.487799018359608D+03 0.162766275559886D+03
 0.572819184241497D+03 0.100689133838301D+03 0.472146353422031D+03 0.308320186027877D+03
 0.472277923182615D+03 -.296475380893168D+02 0.156526649375770D+02 -.471086461587763D+03
 0.000000000000000D+00 0.000000000000000D+00 0.000000000000000D+00 -.000000000000000D+00
 0.789756661099524D+03 0.000000000000000D+00 0.000000000000000D+00 0.789756661099524D+03
 0.866632331745675D+03 0.000000000000000D+00 0.000000000000000D+00 -.866632331745675D+03
 0.535364438087390D+03 -.735597026239861D+02 -.488964406944780D+03 0.162766275559886D+03
 0.571323545416671D+03 0.979948390465301D+02 0.470899424458615D+03 0.308320186027877D+03
 0.472389797569421D+03 -.318720973632601D+02 0.146231311991053D+02 -.471086461587763D+03
 0.773112117717178D+02 0.743696094071612D+01 0.344185128705999D+01 -.768756706461507D+02
0.397936729437D-04 0.000000000000D+00 0.000000000000D+00 0.406330318431D-05 0.000000000000D+00  6 2 1 25 2 1 21 0 0.26064895D+00 0.56604722D-01 0.26257219D+06 0.26257219D+06 0.26257219D+06 0.10888597D+01  1  2  2  2  6  2        1 0.397538760690D-03 0.100000000000D+01
0.208650813518D-04 0.000000000000D+00 -.152818182019D-06 0.406330318431D-05 0.000000000000D+00  6 2 1 25 2 1 21 2 0.26064895D+00 0.56604722D-01 0.26257219D+06 0.26257219D+06 0.26257219D+06 0.10888597D+01  1  2  3  2  6  2        1 0.247132215542D-03 0.100000000000D+01
-.257096157839D-04 0.000000000000D+00 0.000000000000D+00 0.406330318431D-05 0.000000000000D+00  6 2 1 25 2 1 21 2 0.26064895D+00 0.56604722D-01 0.26257219D+06 0.26257219D+06 0.26257219D+06 0.10888597D+01  1  2 15  2  6  2        1 -.304512319041D-03 0.100000000000D+01
0.236504583388D-06 0.000000000000D+00 0.000000000000D+00 0.406330318431D-05 0.000000000000D+00  6 2 1 25 2 1 21 2 0.26064895D+00 0.62147164D-01 0.26742911D+06 0.26742911D+06 0.26742911D+06 0.10882640D+01  1  2 12  2  6  2        1 0.246421170386D-05 0.100000000000D+01
-.183742677042D-02 0.000000000000D+00 0.000000000000D+00 0.406330318431D-05 0.000000000000D+00  6 2 1 25 2 1 21 2 0.26064895D+00 0.56604722D-01 0.26257219D+06 0.26257219D+06 0.26257219D+06 0.10888597D+01  1  2  4  2  6  2        1 -.217630279516D-01 0.100000000000D+01
-.167223386879D-01 0.000000000000D+00 -.102798778277D-03 0.406330318431D-05 0.000000000000D+00  6 2 1 25 2 1 21 2 0.26064895D+00 0.62140805D-01 0.26257219D+06 0.26257219D+06 0.26257219D+06 0.10888597D+01  1  2  5  2  6  2        1 -.174607480872D+00 0.100000000000D+01
0.166597970612D-01 0.000000000000D+00 0.102352869831D-03 0.406330318431D-05 0.000000000000D+00  6 2 1 25 2 1 21 2 0.26064895D+00 0.56604722D-01 0.26257219D+06 0.26257219D+06 0.26257219D+06 0.10888597D+01  1  2  6  2  6  2        1 0.197323580426D+00 0.100000000000D+01
0.475323133207D-05 0.000000000000D+00 0.000000000000D+00 0.406330318431D-05 0.605159596134D-07  6 2 1 25 2 1 21 2 0.26072436D+00 0.62132649D-01 0.26742911D+06 0.26742911D+06 0.26742911D+06 0.10882640D+01  1  2 11  2  6  2        1 0.495106575111D-04 0.100000000000D+01
0.367350781926D-08 0.000000000000D+00 0.000000000000D+00 0.406330318431D-05 0.000000000000D+00  6 2 21 25 2 1 -1 2 0.26064895D+00 0.62147164D-01 0.26742911D+06 0.26742911D+06 0.26742911D+06 0.10882640D+01  1  2 12  6  6  2        1 0.136860226948D-06 0.100000000000D+01
-.259109842039D-03 0.000000000000D+00 -.157230659922D-05 0.406330318431D-05 0.000000000000D+00  6 2 21 25 2 1 -1 2 0.26064895D+00 0.62140805D-01 0.26257219D+06 0.26257219D+06 0.26257219D+06 0.10888597D+01  1  2  5  6  6  2        1 -.968058663677D-02 0.100000000000D+01
0.531976017024D-06 0.000000000000D+00 0.000000000000D+00 0.406330318431D-05 0.483544855103D-08  6 2 21 25 2 1 -1 2 0.26072436D+00 0.62132649D-01 0.26742911D+06 0.26742911D+06 0.26742911D+06 0.10882640D+01  1  2 11  6  6  2        1 0.198176731190D-04 0.100000000000D+01
  </mgrwgt>
  </event>
  <event>
  5     66 0.18337608E-05 0.49953347E+02 0.75467711E-02 0.94099850E-01
        2 -1    0    0  501    0 0.00000000E+00 0.00000000E+00 0.36553065E+04 0.36553065E+04 0.32000000E+00 0.0000E+00 0.9000E+01
        1 -1    0    0  502    0 0.00000000E+00 0.00000000E+00 -.76344655E+03 0.76344661E+03 0.32000000E+00 0.0000E+00 0.9000E+01
       25  1    1    2    0    0 0.51145180E+03 0.16793551E+02 0.57288057E+03 0.77825582E+03 0.12500000E+03 0.0000E+00 0.9000E+01
        2  1    1    2  501    0 -.46718649E+03 0.63478280E+01 0.29604457E+04 0.29970890E+04 0.32000000E+00 0.0000E+00 0.9000E+01
        1  1    1    2  502    0 -.44265300E+02 -.23141379E+02 -.64146640E+03 0.64340826E+03 0.32000000E+00 0.0000E+00 0.9000E+01
#aMCatNLO 1  0  0  1  4 0.10669301D+02 0.00000000D+00  -5  6  0 0.00000000D+00 0.00000000D+00 0.00000000D+00 0.00000000D+00 0.00000000D+00
  <mgrwgt>
 0.2918941232D-01    8    2    0
 0.167051826368566D+04 0.000000000000000D+00 0.000000000000000D+00 0.167051826368566D+04
 0.167051826368566D+04 0.000000000000000D+00 0.000000000000000D+00 -.167051826368566D+04
 0.533438732687811D+03 0.511441639330566D+03 0.167955351000685D+02 0.841263400555612D+02
 0.140138084800659D+04 -.467172798624472D+03 0.634764189149929D+01 0.132120307478732D+04
 0.140621694667692D+04 -.442688407060942D+02 -.231431769915678D+02 -.140532941484288D+04
 0.000000000000000D+00 -.000000000000000D+00 -.000000000000000D+00 0.000000000000000D+00
 0.168512400578944D+04 0.000000000000000D+00 0.000000000000000D+00 0.168512400578944D+04
 0.167247636419689D+04 0.000000000000000D+00 0.000000000000000D+00 -.167247636419689D+04
 0.535074844821564D+03 0.513144378699322D+03 0.169025169416699D+02 0.841263400555612D+02
 0.139990032604056D+04 -.462708791953519D+03 0.662811209342370D+01 0.132120307478732D+04
 0.140607839219416D+04 -.397872823142707D+02 -.228616040281424D+02 -.140532941484288D+04
 0.165468069300440D+02 -.106483044315316D+02 -.669025006951236D+00 0.126476415925520D+02
0.136333022284D-01 0.000000000000D+00 0.000000000000D+00 0.327660290803D-03 0.000000000000D+00  6 2 1 25 2 1 21 0 0.56235484D+00 0.11745332D+00 0.27244883D+06 0.27244883D+06 0.27244883D+06 0.10876607D+01  1  2  2  1  6  1        2 0.305407431279D-02 0.100000000000D+01
0.700290050993D-02 0.000000000000D+00 -.523554702881D-04 0.327660290803D-03 0.000000000000D+00  6 2 1 25 2 1 21 2 0.56235484D+00 0.11745332D+00 0.27244883D+06 0.27244883D+06 0.27244883D+06 0.10876607D+01  1  2  3  1  6  1        2 0.185585223995D-02 0.100000000000D+01
-.876175152308D-02 0.000000000000D+00 0.000000000000D+00 0.327660290803D-03 0.000000000000D+00  6 2 1 25 2 1 21 2 0.56235484D+00 0.11745332D+00 0.27244883D+06 0.27244883D+06 0.27244883D+06 0.10876607D+01  1  2 15  1  6  1        2 -.232196875665D-02 0.100000000000D+01
-.465794778550D-04 0.000000000000D+00 0.000000000000D+00 0.327660290803D-03 0.000000000000D+00  6 2 1 25 2 1 21 2 0.56235484D+00 0.11745332D+00 0.27244883D+06 0.27244883D+06 0.27244883D+06 0.10876607D+01  1  2  4  1  6  1        2 -.123441177253D-04 0.100000000000D+01
-.178536413008D+01 0.000000000000D+00 -.168050056500D+00 0.327660290803D-03 0.000000000000D+00  6 2 1 25 2 1 21 2 0.56742072D+00 0.11745332D+00 0.27244883D+06 0.27244883D+06 0.27244883D+06 0.10876607D+01  1  2  5  1  6  1        2 -.447219402241D+00 0.100000000000D+01
0.178804598248D+01 0.000000000000D+00 0.168499915372D+00 0.327660290803D-03 0.000000000000D+00  6 2 1 25 2 1 21 2 0.56235484D+00 0.11745332D+00 0.27244883D+06 0.27244883D+06 0.27244883D+06 0.10876607D+01  1  2  6  1  6  1        2 0.473853532121D+00 0.100000000000D+01
0.574771296506D-11 0.000000000000D+00 0.000000000000D+00 0.327660290803D-03 0.000000000000D+00  6 21 1 25 2 1 -2 2 0.56766184D+00 0.11745332D+00 0.27443632D+06 0.27443632D+06 0.27443632D+06 0.10874252D+01  1  2 12  5  6  1        2 0.392742751064D-13 0.100000000000D+01
-.295709271292D-02 0.000000000000D+00 -.278812482408D-03 0.327660290803D-03 0.000000000000D+00  6 21 1 25 2 1 -2 2 0.56742072D+00 0.11745332D+00 0.27244883D+06 0.27244883D+06 0.27244883D+06 0.10876607D+01  1  2  5  5  6  1        2 -.203312404932D-04 0.100000000000D+01
  </mgrwgt>
  </event>
  <event>
  5     66 0.18337608E-05 0.38218330E+02 0.75467711E-02 0.93164866E-01
        2 -1    0    0  501    0 0.00000000E+00 0.00000000E+00 0.10671896E+04 0.10671896E+04 0.32000000E+00 0.0000E+00 0.9000E+01
        1 -1    0    0  502    0 0.00000000E+00 0.00000000E+00 -.11202726E+04 0.11202727E+04 0.32000000E+00 0.0000E+00 0.9000E+01
       25  1    1    2    0    0 -.47809562E+03 0.11170337E+03 0.18199530E+03 0.53833109E+03 0.12500000E+03 0.0000E+00 0.9000E+01
        2  1    1    2  501    0 0.45924302E+03 -.78464140E+02 0.62980736E+03 0.78340168E+03 0.32000000E+00 0.0000E+00 0.9000E+01
        1  1    1    2  502    0 0.18852609E+02 -.33239229E+02 -.86488569E+03 0.86572953E+03 0.32000000E+00 0.0000E+00 0.9000E+01
#aMCatNLO 1  0  0  2  5 0.33311942D+03 0.00000000D+00  -5  6  0 0.00000000D+00 0.00000000D+00 0.00000000D+00 0.00000000D+00 0.00000000D+00
  <mgrwgt>
 0.6832788413D-02    7    2    0
 0.109340905892298D+04 0.000000000000000D+00 0.000000000000000D+00 0.109340905892298D+04
 0.109340905892298D+04 0.000000000000000D+00 0.000000000000000D+00 -.109340905892298D+04
 0.542916314523292D+03 -.478056768839888D+03 0.111700492671942D+03 0.195237932479232D+03
 0.798848412462210D+03 0.459201645448598D+03 -.784570714347064D+02 0.648950786156071D+03
 0.845053390860467D+03 0.188551233912895D+02 -.332434212372357D+02 -.844188718635304D+03
 0.000000000000000D+00 0.000000000000000D+00 -.000000000000000D+00 -.000000000000000D+00
 0.112392726843311D+04 0.000000000000000D+00 0.000000000000000D+00 0.112392726843311D+04
 0.127485899249055D+04 0.000000000000000D+00 0.000000000000000D+00 -.127485899249055D+04
 0.575978423298912D+03 -.513533506524013D+03 0.119547611871952D+03 0.195237932479232D+03
 0.770282839327134D+03 0.409449281861614D+03 -.674523186576774D+02 0.648950786156071D+03
 0.845173796027380D+03 -.347368227577376D+02 -.213893890729391D+02 -.844188718635304D+03
 0.207351202270237D+03 0.138821047420137D+03 -.307059041413358D+02 -.150931724057442D+03
0.557428679727D-03 0.000000000000D+00 0.000000000000D+00 0.368644599000D-04 0.000000000000D+00  6 2 1 25 2 1 21 0 0.16418302D+00 0.17234964D+00 0.25536393D+06 0.25536393D+06 0.25536393D+06 0.10897662D+01  1  2  2  2  6  2        1 0.230354441721D-02 0.100000000000D+01
0.313646347945D-03 0.000000000000D+00 -.214067290449D-05 0.368644599000D-04 0.000000000000D+00  6 2 1 25 2 1 21 2 0.16418302D+00 0.17234964D+00 0.25536393D+06 0.25536393D+06 0.25536393D+06 0.10897662D+01  1  2  3  2  6  2        1 0.153926780360D-02 0.100000000000D+01
-.360450277750D-03 0.000000000000D+00 0.000000000000D+00 0.368644599000D-04 0.000000000000D+00  6 2 1 25 2 1 21 2 0.16418302D+00 0.17234964D+00 0.25536393D+06 0.25536393D+06 0.25536393D+06 0.10897662D+01  1  2 15  2  6  2        1 -.176896530431D-02 0.100000000000D+01
-.269838733142D-04 0.000000000000D+00 0.000000000000D+00 0.368644599000D-04 0.000000000000D+00  6 2 1 25 2 1 21 2 0.16418302D+00 0.17234964D+00 0.25536393D+06 0.25536393D+06 0.25536393D+06 0.10897662D+01  1  2  4  2  6  2        1 -.132427518066D-03 0.100000000000D+01
-.343147665458D-02 0.000000000000D+00 -.740809605393D-03 0.368644599000D-04 0.000000000000D+00  6 2 1 25 2 1 21 2 0.16418302D+00 0.20357128D+00 0.25536393D+06 0.25536393D+06 0.25536393D+06 0.10897662D+01  1  2  5  2  6  2        1 -.121063667675D-01 0.100000000000D+01
0.351612008657D-02 0.000000000000D+00 0.730659522904D-03 0.368644599000D-04 0.000000000000D+00  6 2 1 25 2 1 21 2 0.16418302D+00 0.17234964D+00 0.25536393D+06 0.25536393D+06 0.25536393D+06 0.10897662D+01  1  2  6  2  6  2        1 0.172559013625D-01 0.100000000000D+01
-.789101117970D-04 0.000000000000D+00 -.183726798916D-04 0.368644599000D-04 0.000000000000D+00  6 2 21 25 2 1 -1 2 0.16418302D+00 0.20357128D+00 0.25536393D+06 0.25536393D+06 0.25536393D+06 0.10897662D+01  1  2  5  6  6  2        1 -.258165580479D-03 0.100000000000D+01
  </mgrwgt>
  </event>
  <event>
  5     66 0.18337608E-05 0.18392525E+03 0.75467711E-02 0.94809841E-01
        2 -1    0    0  501    0 0.00000000E+00 0.00000000E+00 0.32383047E+04 0.32383047E+04 0.32000000E+00 0.0000E+00 0.9000E+01
        1 -1    0    0  502    0 0.00000000E+00 0.00000000E+00 -.60772284E+03 0.60772293E+03 0.32000000E+00 0.0000E+00 0.9000E+01
       25  1    1    2    0    0 0.45001852E+03 0.12972764E+03 0.81380897E+03 0.94723597E+03 0.12500000E+03 0.0000E+00 0.9000E+01
        2  1    1    2  501    0 -.26074659E+03 -.13174801E+03 0.23318280E+04 0.23500570E+04 0.32000000E+00 0.0000E+00 0.9000E+01
        1  1    1    2  502    0 -.18927193E+03 0.20203743E+01 -.51505504E+03 0.54873468E+03 0.32000000E+00 0.0000E+00 0.9000E+01
#aMCatNLO 1  0  0  1  5 0.42240499D+02 0.00000000D+00  -5  6  0 0.00000000D+00 0.00000000D+00 0.00000000D+00 0.00000000D+00 0.00000000D+00
  <mgrwgt>
 0.7994978577D-02    9    2    0
 0.140285136334335D+04 0.000000000000000D+00 0.000000000000000D+00 0.140285136334335D+04
 0.140285136334335D+04 0.000000000000000D+00 0.000000000000000D+00 -.140285136334335D+04
 0.535487959657031D+03 0.450020063955886D+03 0.129718590037627D+03 0.227546444431552D+03
 0.103507597745638D+04 -.260728240396298D+03 -.131738742125521D+03 0.992999480156119D+03
 0.123513878957328D+04 -.189291823559588D+03 0.202015208789484D+01 -.122054592458767D+04
 0.000000000000000D+00 -.000000000000000D+00 0.000000000000000D+00 0.000000000000000D+00
 0.145861739181213D+04 0.000000000000000D+00 0.000000000000000D+00 0.145861739181213D+04
 0.141103207283563D+04 0.000000000000000D+00 0.000000000000000D+00 -.141103207283563D+04
 0.542194988373349D+03 0.458117490055896D+03 0.129233843665737D+03 0.227546444431552D+03
 0.103139348715927D+04 -.245201332590773D+03 -.132668248876486D+03 0.992999480156119D+03
 0.123243220335281D+04 -.170751144412472D+03 0.910228164177472D+00 -.122054592458767D+04
 0.636287857623317D+02 -.421650130526508D+02 0.252417704657132D+01 0.475853189765084D+02
0.229772469874D-02 0.000000000000D+00 0.000000000000D+00 0.372249155768D-04 0.000000000000D+00  6 2 1 25 2 1 21 0 0.49820074D+00 0.93495830D-01 0.23336628D+06 0.23336628D+06 0.23336628D+06 0.10927158D+01  1  2  2  1  6  1        2 0.144392466656D-02 0.100000000000D+01
0.317540019200D-03 0.000000000000D+00 -.882386784796D-05 0.372249155768D-04 0.000000000000D+00  6 2 1 25 2 1 21 2 0.49820074D+00 0.93495830D-01 0.23336628D+06 0.23336628D+06 0.23336628D+06 0.10927158D+01  1  2  3  1  6  1        2 0.238264551028D-03 0.100000000000D+01
-.144963996656D-02 0.000000000000D+00 0.000000000000D+00 0.372249155768D-04 0.000000000000D+00  6 2 1 25 2 1 21 2 0.49820074D+00 0.93495830D-01 0.23336628D+06 0.23336628D+06 0.23336628D+06 0.10927158D+01  1  2 15  1  6  1        2 -.108773003370D-02 0.100000000000D+01
0.945692755019D-09 0.000000000000D+00 0.000000000000D+00 0.372249155768D-04 0.000000000000D+00  6 2 1 25 2 1 21 2 0.51963310D+00 0.93495830D-01 0.24202538D+06 0.24202538D+06 0.24202538D+06 0.10915199D+01  1  2 12  1  6  1        2 0.568294984439D-09 0.100000000000D+01
-.594560388225D-03 0.000000000000D+00 0.000000000000D+00 0.372249155768D-04 0.000000000000D+00  6 2 1 25 2 1 21 2 0.49820074D+00 0.93495830D-01 0.23336628D+06 0.23336628D+06 0.23336628D+06 0.10927158D+01  1  2  4  1  6  1        2 -.446125387019D-03 0.100000000000D+01
-.544936017697D-01 0.000000000000D+00 -.732169823870D-02 0.372249155768D-04 0.000000000000D+00  6 2 1 25 2 1 21 2 0.51875888D+00 0.93495830D-01 0.23336628D+06 0.23336628D+06 0.23336628D+06 0.10927158D+01  1  2  5  1  6  1        2 -.332254414720D-01 0.100000000000D+01
0.547508773828D-01 0.000000000000D+00 0.731571653544D-02 0.372249155768D-04 0.000000000000D+00  6 2 1 25 2 1 21 2 0.49820074D+00 0.93495830D-01 0.23336628D+06 0.23336628D+06 0.23336628D+06 0.10927158D+01  1  2  6  1  6  1        2 0.410820445589D-01 0.100000000000D+01
0.185660733686D-10 0.000000000000D+00 0.000000000000D+00 0.372249155768D-04 0.000000000000D+00  6 21 1 25 2 1 -2 2 0.51963310D+00 0.93495830D-01 0.24202538D+06 0.24202538D+06 0.24202538D+06 0.10915199D+01  1  2 12  5  6  1        2 0.468986547103D-12 0.100000000000D+01
-.384947769237D-03 0.000000000000D+00 -.522942869603D-04 0.372249155768D-04 0.000000000000D+00  6 21 1 25 2 1 -2 2 0.51875888D+00 0.93495830D-01 0.23336628D+06 0.23336628D+06 0.23336628D+06 0.10927158D+01  1  2  5  5  6  1        2 -.995887590212D-05 0.100000000000D+01
  </mgrwgt>
  </event>
  <event>
  5     66 0.18337608E-05 0.87631518E+02 0.75467711E-02 0.81072222E-01
        2 -1    0    0  501    0 0.00000000E+00 0.00000000E+00 0.13735746E+04 0.13735747E+04 0.32000000E+00 0.0000E+00 0.9000E+01
        1 -1    0    0  502    0 0.00000000E+00 0.00000000E+00 -.42443476E+03 0.42443488E+03 0.32000000E+00 0.0000E+00 0.9000E+01
       25  1    1    2    0    0 -.81733342E+02 0.56576331E+03 0.52104348E+03 0.78350480E+03 0.12500000E+03 0.0000E+00 0.9000E+01
        2  1    1    2  501    0 0.12395072E+03 -.48899003E+03 0.62251893E+03 0.80125212E+03 0.32000000E+00 0.0000E+00 0.9000E+01
        1  1    1    2  502    0 -.42217379E+02 -.76773282E+02 -.19442256E+03 0.21325261E+03 0.32000000E+00 0.0000E+00 0.9000E+01
#aMCatNLO 1  0  0  2  5 0.33823926D+02 0.00000000D+00  -5  6  0 0.00000000D+00 0.00000000D+00 0.00000000D+00 0.00000000D+00 0.00000000D+00
  <mgrwgt>
 0.9337474365D-02    3    2    0
 0.763539753882646D+03 0.000000000000000D+00 0.000000000000000D+00 0.763539753882646D+03
 0.763539753882646D+03 0.000000000000000D+00 0.000000000000000D+00 -.763539753882646D+03
 0.598643157705507D+03 -.817120953825535D+02 0.565720267223923D+03 0.126618888748506D+03
 0.556421985124302D+03 0.123936038302170D+03 -.488932106543521D+03 0.234926965524493D+03
 0.372014364935483D+03 -.422239429196163D+02 -.767881606804015D+02 -.361545854272999D+03
 0.000000000000000D+00 0.000000000000000D+00 0.000000000000000D+00 0.000000000000000D+00
 0.225030912319474D+04 0.000000000000000D+00 0.000000000000000D+00 0.225030912319474D+04
 0.196803043636349D+04 0.000000000000000D+00 0.000000000000000D+00 -.196803043636349D+04
 0.715538991686433D+03 -.629308883927643D+03 0.290360180199480D+03 0.126618888748506D+03
 0.995646327351638D+03 -.522783766793087D+03 -.814136391040156D+03 0.234926965524493D+03
 0.664948574724481D+03 -.474308320158194D+03 -.294062611895559D+03 -.361545854272999D+03
 0.184220566579567D+04 0.162640097087892D+04 0.817838822736235D+03 0.282278686831249D+03
0.132921653525D-02 0.000000000000D+00 0.000000000000D+00 0.310926251040D-06 0.000000000000D+00  6 2 1 25 2 1 21 0 0.21131918D+00 0.65297668D-01 0.34640660D+06 0.34640660D+06 0.34640660D+06 0.10799605D+01  1  2  2  2  6  2        1 0.162154591725D-01 0.100000000000D+01
0.277797115713D-03 0.000000000000D+00 -.510454148610D-05 0.310926251040D-06 0.000000000000D+00  6 2 1 25 2 1 21 2 0.21131918D+00 0.65297668D-01 0.34640660D+06 0.34640660D+06 0.34640660D+06 0.10799605D+01  1  2  3  2  6  2        1 0.395254631782D-02 0.100000000000D+01
-.761203048960D-03 0.000000000000D+00 0.000000000000D+00 0.310926251040D-06 0.000000000000D+00  6 2 1 25 2 1 21 2 0.21131918D+00 0.65297668D-01 0.34640660D+06 0.34640660D+06 0.34640660D+06 0.10799605D+01  1  2 15  2  6  2        1 -.108305311254D-01 0.100000000000D+01
  </mgrwgt>
  </event>
  <event>
  5     66 -.18337608E-05 0.19803197E+03 0.75467711E-02 0.93701802E-01
        2 -1    0    0  501    0 0.00000000E+00 0.00000000E+00 0.25328393E+04 0.25328393E+04 0.32000000E+00 0.0000E+00 0.9000E+01
        1 -1    0    0  502    0 0.00000000E+00 0.00000000E+00 -.59222598E+03 0.59222607E+03 0.32000000E+00 0.0000E+00 0.9000E+01
       25  1    1    2    0    0 0.28954945E+03 0.45039999E+03 0.69516026E+03 0.88632490E+03 0.12500000E+03 0.0000E+00 0.9000E+01
        2  1    1    2  501    0 -.10226141E+03 -.16961144E+03 0.16782489E+04 0.16898949E+04 0.32000000E+00 0.0000E+00 0.9000E+01
        1  1    1    2  502    0 -.18728805E+03 -.28078855E+03 -.43279588E+03 0.54884552E+03 0.32000000E+00 0.0000E+00 0.9000E+01
#aMCatNLO 1  0  0  5  2 0.79752633D+01 0.00000000D+00  -5  6  0 0.00000000D+00 0.00000000D+00 0.00000000D+00 0.00000000D+00 0.00000000D+00
  <mgrwgt>
 -.7015354688D-02    9    2    0
 0.122475033925037D+04 0.000000000000000D+00 0.000000000000000D+00 0.122475033925037D+04
 0.122475033925037D+04 -.000000000000000D+00 -.000000000000000D+00 -.122475033925037D+04
 0.580086405436043D+03 0.289561711735995D+03 0.450416799108975D+03 0.184807900125117D+03
 0.826280009889688D+03 -.102249966475434D+03 -.169592464911318D+03 0.802198226714806D+03
 0.104313426317500D+04 -.187311745260561D+03 -.280824334197657D+03 -.987006126839922D+03
 0.000000000000000D+00 0.000000000000000D+00 0.000000000000000D+00 -.000000000000000D+00
 0.122475033925037D+04 0.000000000000000D+00 0.000000000000000D+00 0.122475033925037D+04
 0.122475033925037D+04 -.000000000000000D+00 -.000000000000000D+00 -.122475033925037D+04
 0.580057302318050D+03 0.289553003081633D+03 0.450403742789097D+03 0.184762011410557D+03
 0.826221904230901D+03 -.102262371031789D+03 -.169611062257014D+03 0.802132863098091D+03
 0.853291384048533D+03 -.151478536764944D+03 -.237273507536000D+03 -.805519535214744D+03
 0.189930087903250D+03 -.358120952848993D+02 -.435191729960832D+02 -.181375339293904D+03
0.116928682373D-04 0.000000000000D+00 0.000000000000D+00 0.744594806688D-05 0.000000000000D+00  6 2 1 25 2 1 21 0 0.38966759D+00 0.91111698D-01 0.29455262D+06 0.29455262D+06 0.29455262D+06 0.10851412D+01  1  2  2  4  6  5        1 0.204646505647D-04 0.100000000000D+01
0.141244083980D-05 0.000000000000D+00 -.449036928343D-07 0.744594806688D-05 0.000000000000D+00  6 2 1 25 2 1 21 2 0.38966759D+00 0.91111698D-01 0.29455262D+06 0.29455262D+06 0.29455262D+06 0.10851412D+01  1  2  3  4  6  5        1 0.291089145548D-05 0.100000000000D+01
-.782660116318D-05 0.000000000000D+00 0.000000000000D+00 0.744594806688D-05 0.000000000000D+00  6 2 1 25 2 1 21 2 0.38966759D+00 0.91111698D-01 0.29455262D+06 0.29455262D+06 0.29455262D+06 0.10851412D+01  1  2 15  4  6  5        1 -.161297987211D-04 0.100000000000D+01
0.115200137109D-01 0.000000000000D+00 0.000000000000D+00 0.744594806688D-05 0.000000000000D+00  6 2 1 25 2 1 21 2 0.38966759D+00 0.91111698D-01 0.29472030D+06 0.29472030D+06 0.29472030D+06 0.10851228D+01  1  2 12  4  6  5        1 0.237397219955D-01 0.100000000000D+01
0.943314423908D-08 0.000000000000D+00 0.000000000000D+00 0.744594806688D-05 0.000000000000D+00  6 2 1 25 2 1 21 2 0.38966759D+00 0.91111698D-01 0.29472030D+06 0.29472030D+06 0.29472030D+06 0.10851228D+01  1  2 12  4  6  5        1 0.194392322266D-07 0.100000000000D+01
-.173184727216D-01 0.000000000000D+00 0.000000000000D+00 0.744594806688D-05 0.000000000000D+00  6 2 1 25 2 1 21 2 0.38966759D+00 0.91111698D-01 0.29455262D+06 0.29455262D+06 0.29455262D+06 0.10851412D+01  1  2  4  4  6  5        1 -.356915439195D-01 0.100000000000D+01
-.116843164644D-01 0.000000000000D+00 0.000000000000D+00 0.744594806688D-05 0.000000000000D+00  6 2 1 25 2 1 21 2 0.38966759D+00 0.91111698D-01 0.29455262D+06 0.29455262D+06 0.29455262D+06 0.10851412D+01  1  2  5  4  6  5        1 -.240801426870D-01 0.100000000000D+01
0.140015852367D-01 0.000000000000D+00 -.000000000000D+00 0.744594806688D-05 0.000000000000D+00  6 2 1 25 2 1 21 2 0.38966759D+00 0.91111698D-01 0.29455262D+06 0.29455262D+06 0.29455262D+06 0.10851412D+01  1  2  6  4  6  5        1 0.288557889862D-01 0.100000000000D+01
0.745149583100D-04 0.000000000000D+00 0.000000000000D+00 0.744594806688D-05 0.599260373376D-06  6 2 1 25 2 1 21 2 0.38966759D+00 0.91111698D-01 0.29472030D+06 0.29472030D+06 0.29472030D+06 0.10851228D+01  1  2 11  4  6  5        1 0.153555754288D-03 0.100000000000D+01
  </mgrwgt>
  </event>
  <event>
  5     66 0.18337608E-05 0.66942995E+02 0.75467711E-02 0.82399608E-01
        2 -1    0    0  501    0 0.00000000E+00 0.00000000E+00 0.57228670E+03 0.57228679E+03 0.32000000E+00 0.0000E+00 0.9000E+01
        1 -1    0    0  502    0 0.00000000E+00 0.00000000E+00 -.27133454E+04 0.27133455E+04 0.32000000E+00 0.0000E+00 0.9000E+01
       25  1    1    2    0    0 -.61741045E+02 -.79756419E+03 -.11663532E+02 0.80974171E+03 0.12500000E+03 0.0000E+00 0.9000E+01
        2  1    1    2  501    0 -.48263956E+02 -.46509878E+02 0.82244876E+02 0.10609854E+03 0.32000000E+00 0.0000E+00 0.9000E+01
        1  1    1    2  502    0 0.11000500E+03 0.84407407E+03 -.22116401E+04 0.23697920E+04 0.32000000E+00 0.0000E+00 0.9000E+01
#aMCatNLO 1  0  0  1  1 0.13627902D+04 0.00000000D+00  -5  6  0 0.00000000D+00 0.00000000D+00 0.00000000D+00 0.00000000D+00 0.00000000D+00
  <mgrwgt>
 0.3997128422D-03    5    2    0
 0.124611864742547D+04 0.000000000000000D+00 0.000000000000000D+00 0.124611864742547D+04
 0.124611864742547D+04 0.000000000000000D+00 0.000000000000000D+00 -.124611864742547D+04
 0.105774097609979D+04 -.618043951171485D+02 -.797719586634737D+03 0.680451798707325D+03
 0.210267320764241D+03 -.482036839747237D+02 -.464517970589033D+02 0.199326319342518D+03
 0.122422899798691D+04 0.110008079091872D+03 0.844171383693641D+03 -.879778118049843D+03
 0.000000000000000D+00 -.000000000000000D+00 -.000000000000000D+00 0.000000000000000D+00
 0.563300856509811D+04 0.000000000000000D+00 0.000000000000000D+00 0.563300856509811D+04
 0.153046298391760D+04 0.000000000000000D+00 0.000000000000000D+00 -.153046298391760D+04
 0.832747646678453D+03 0.222096523223380D+03 -.406819526395373D+03 0.680451798707325D+03
 0.203608499837733D+03 0.139494145057973D+02 0.391261224565140D+02 0.199326319342518D+03
 0.180414449924484D+04 0.564788926002616D+03 0.147035414313046D+04 -.879778118049843D+03
 0.432297090325468D+04 -.800834863731793D+03 -.110266073919160D+04 0.410254558118051D+04
0.121897638876D-02 0.000000000000D+00 0.000000000000D+00 0.227812641864D-06 0.000000000000D+00  6 2 1 25 2 1 21 0 0.88044116D-01 0.41743777D+00 0.74655446D+06 0.74655446D+06 0.74655446D+06 0.10564198D+01  1  2  2  1  6  1        2 0.855662926418D-03 0.100000000000D+01
0.269231301588D-03 0.000000000000D+00 -.468119029670D-05 0.227812641864D-06 0.000000000000D+00  6 2 1 25 2 1 21 2 0.88044116D-01 0.41743777D+00 0.74655446D+06 0.74655446D+06 0.74655446D+06 0.10564198D+01  1  2  3  1  6  1        2 0.210914312633D-03 0.100000000000D+01
-.734193169977D-03 0.000000000000D+00 0.000000000000D+00 0.227812641864D-06 0.000000000000D+00  6 2 1 25 2 1 21 2 0.88044116D-01 0.41743777D+00 0.74655446D+06 0.74655446D+06 0.74655446D+06 0.10564198D+01  1  2 15  1  6  1        2 -.575162868776D-03 0.100000000000D+01
-.227042053171D-02 0.000000000000D+00 -.876997187009D-03 0.227812641864D-06 0.000000000000D+00  6 2 1 25 2 1 21 2 0.41735098D+00 0.41743777D+00 0.74655446D+06 0.74655446D+06 0.74655446D+06 0.10564198D+01  1  2  5  1  6  1        2 -.901392268624D-04 0.100000000000D+01
-.445129788084D-03 0.000000000000D+00 -.165730520185D-03 0.227812641864D-06 0.000000000000D+00  6 21 1 25 2 1 -2 2 0.41735098D+00 0.41743777D+00 0.74655446D+06 0.74655446D+06 0.74655446D+06 0.10564198D+01  1  2  5  5  6  1        2 -.156230117410D-05 0.100000000000D+01
  </mgrwgt>
  </event>
  <event>
  6     66 0.18337608E-05 0.12654852E+03 0.75467711E-02 0.91372843E-01
        2 -1    0    0  501    0 0.00000000E+00 0.00000000E+00 0.11339362E+04 0.11339363E+04 0.32000000E+00 0.0000E+00 0.9000E+01
        1 -1    0    0  502    0 -.00000000E+00 -.00000000E+00 -.15425369E+04 0.15425369E+04 0.32000000E+00 0.0000E+00 0.9000E+01
       25  1    1    2    0    0 -.42873445E+03 0.30145570E+03 0.14034928E+03 0.55678693E+03 0.12500000E+03 0.0000E+00 0.9000E+01
        2  1    1    2  501    0 0.53261670E+03 -.39489709E+03 0.63994436E+03 0.92149506E+03 0.32000000E+00 0.0000E+00 0.9000E+01
        1  1    1    2  503    0 -.74872847E+02 0.86656860E+02 -.79984979E+03 0.80800689E+03 0.32000000E+00 0.0000E+00 0.9000E+01
       21  1    1    2  502  503 -.29009400E+02 0.67845308E+01 -.38904452E+03 0.39018428E+03 0.75000000E+00 0.0000E+00 0.9000E+01
#aMCatNLO 2  0  0  5  2 0.24203573D+02 0.00000000D+00  -5  6  0 0.00000000D+00 0.00000000D+00 0.00000000D+00 0.00000000D+00 0.00000000D+00
  <mgrwgt>
 0.3878862725D-02    3    2    0
 0.132255000921522D+04 0.000000000000000D+00 0.000000000000000D+00 0.132255000921522D+04
 0.132255000921522D+04 -.000000000000000D+00 -.000000000000000D+00 -.132255000921522D+04
 0.585145900337521D+03 -.428685214883287D+03 0.301413727748954D+03 0.228362597521480D+03
 0.103167798152217D+04 0.532652346232838D+03 -.394931613891415D+03 0.790360649298423D+03
 0.102827613657076D+04 -.103967131349550D+03 0.935178861424608D+02 -.101872324681990D+04
 0.000000000000000D+00 0.000000000000000D+00 0.000000000000000D+00 -.000000000000000D+00
 0.132255000921522D+04 0.000000000000000D+00 0.000000000000000D+00 0.132255000921522D+04
 0.132255000921522D+04 -.000000000000000D+00 -.000000000000000D+00 -.132255000921522D+04
 0.585069654666417D+03 -.428714251770951D+03 0.301439846276215D+03 0.228078079211761D+03
 0.103124971687205D+04 0.532601158227706D+03 -.394885570550855D+03 0.789859082985012D+03
 0.693858763453639D+03 -.748578299086950D+02 0.866508750543492D+02 -.684344879994794D+03
 0.334921883438339D+03 -.290290765480593D+02 0.679484922028956D+01 -.333592282201979D+03
-.265096726382D-02 0.000000000000D+00 0.000000000000D+00 0.215373359528D-05 0.000000000000D+00  6 2 1 25 2 1 21 2 0.17445173D+00 0.23731337D+00 0.45301432D+06 0.45301432D+06 0.45301432D+06 0.10715526D+01  1  2 13  4  6  5        1 -.563744367079D-02 0.100000000000D+01
-.751068784407D-08 0.000000000000D+00 0.000000000000D+00 0.215373359528D-05 0.000000000000D+00  6 2 1 25 2 1 21 2 0.17445173D+00 0.23731337D+00 0.45301432D+06 0.45301432D+06 0.45301432D+06 0.10715526D+01  1  2 13  4  6  5        1 -.159719360657D-07 0.100000000000D+01
0.447498202057D-02 0.000000000000D+00 0.000000000000D+00 0.215373359528D-05 0.255212870960D-07  6 2 1 25 2 1 21 2 0.17445173D+00 0.23731337D+00 0.45301432D+06 0.45301432D+06 0.45301432D+06 0.10715526D+01  1  2  1  4  6  5        1 0.951632236773D-02 0.100000000000D+01
  </mgrwgt>
  </event>
  <event>
  5     66 -.18337608E-05 0.28242981E+02 0.75467711E-02 0.90339903E-01
        2 -1    0    0  501    0 0.00000000E+00 0.00000000E+00 0.29147824E+04 0.29147824E+04 0.32000000E+00 0.0000E+00 0.9000E+01
        1 -1    0    0  502    0 0.00000000E+00 0.00000000E+00 -.20700451E+03 0.20700475E+03 0.32000000E+00 0.0000E+00 0.9000E+01
       25  1    1    2    0    0 0.21477618E+03 0.68318818E+03 0.93799597E+03 0.11867335E+04 0.12500000E+03 0.0000E+00 0.9000E+01
        2  1    1    2  501    0 0.30044111E+00 -.28310865E+02 0.40589742E+03 0.40688378E+03 0.32000000E+00 0.0000E+00 0.9000E+01
        1  1    1    2  502    0 -.21507662E+03 -.65487731E+03 0.13638845E+04 0.15281699E+04 0.32000000E+00 0.0000E+00 0.9000E+01
#aMCatNLO 1  0  0  2  2 0.41834240D+02 0.00000000D+00  -5  6  0 0.00000000D+00 0.00000000D+00 0.00000000D+00 0.00000000D+00 0.00000000D+00
  <mgrwgt>
 -.1540152601D-02    5    2    0
 0.776771206488238D+03 0.000000000000000D+00 0.000000000000000D+00 0.776771206488238D+03
 0.776771206488238D+03 0.000000000000000D+00 0.000000000000000D+00 -.776771206488238D+03
 0.749875104718548D+03 0.214820806132233D+03 0.683297095941766D+03 -.183425114438834D+03
 0.109880397081839D+03 0.299703837708216D+00 -.282413903176519D+02 0.106188679779901D+03
 0.693786911176089D+03 -.215120509969941D+03 -.655055705624114D+03 0.772364346589335D+02
 0.000000000000000D+00 0.000000000000000D+00 -.000000000000000D+00 -.000000000000000D+00
 0.777334389548768D+03 0.000000000000000D+00 0.000000000000000D+00 0.777334389548768D+03
 0.233075059997067D+04 0.000000000000000D+00 0.000000000000000D+00 -.233075059997067D+04
 0.756294812808208D+03 0.198425694608648D+03 0.695226089119775D+03 -.183425114438834D+03
 0.109466273402821D+03 -.208795049204253D+01 -.265041461293420D+02 0.106188679779901D+03
 0.688344486958154D+03 -.230165424988474D+03 -.644109108014112D+03 0.772364346589335D+02
 0.155397941635026D+04 0.338276808718680D+02 -.246128349763211D+02 -.155341621042190D+04
0.213136610004D-05 0.000000000000D+00 0.000000000000D+00 0.315033192390D-07 0.000000000000D+00  6 2 1 25 2 1 21 0 0.44842808D+00 0.31846868D-01 0.52187101D+06 0.52187101D+06 0.52187101D+06 0.10671988D+01  1  2  2  2  6  2        1 0.882285606317D-05 0.100000000000D+01
0.767098202601D-06 0.000000000000D+00 -.818500702574D-08 0.315033192390D-07 0.000000000000D+00  6 2 1 25 2 1 21 2 0.44842808D+00 0.31846868D-01 0.52187101D+06 0.52187101D+06 0.52187101D+06 0.10671988D+01  1  2  3  2  6  2        1 0.361653579545D-05 0.100000000000D+01
-.125228915664D-05 0.000000000000D+00 0.000000000000D+00 0.315033192390D-07 0.000000000000D+00  6 2 1 25 2 1 21 2 0.44842808D+00 0.31846868D-01 0.52187101D+06 0.52187101D+06 0.52187101D+06 0.10671988D+01  1  2 15  2  6  2        1 -.590400100783D-05 0.100000000000D+01
-.115168225345D-02 0.000000000000D+00 -.125315913996D-05 0.315033192390D-07 0.000000000000D+00  6 2 1 25 2 1 21 2 0.44842808D+00 0.95574378D-01 0.52187101D+06 0.52187101D+06 0.52187101D+06 0.10671988D+01  1  2  5  2  6  2        1 -.120465547584D-02 0.100000000000D+01
-.143953640278D-03 0.000000000000D+00 -.156705798960D-06 0.315033192390D-07 0.000000000000D+00  6 2 21 25 2 1 -1 2 0.44842808D+00 0.95574378D-01 0.52187101D+06 0.52187101D+06 0.52187101D+06 0.10671988D+01  1  2  5  6  6  2        1 -.342032515642D-03 0.100000000000D+01
  </mgrwgt>
  </event>
  <event>
  5     66 0.18337608E-05 0.66390834E+02 0.75467711E-02 0.93155405E-01
        2 -1    0    0  501    0 0.00000000E+00 0.00000000E+00 0.23119142E+04 0.23119142E+04 0.32000000E+00 0.0000E+00 0.9000E+01
        1 -1    0    0  502    0 0.00000000E+00 0.00000000E+00 -.58375138E+03 0.58375147E+03 0.32000000E+00 0.0000E+00 0.9000E+01
       25  1    1    2    0    0 0.20796611E+03 -.49433447E+03 0.71277917E+03 0.90071950E+03 0.12500000E+03 0.0000E+00 0.9000E+01
        2  1    1    2  501    0 0.48448969E+02 0.45408880E+02 0.13677048E+04 0.13693159E+04 0.32000000E+00 0.0000E+00 0.9000E+01
        1  1    1    2  502    0 -.25641508E+03 0.44892559E+03 -.35232125E+03 0.62563028E+03 0.32000000E+00 0.0000E+00 0.9000E+01
#aMCatNLO 1  0  0  2  5 0.61136479D+01 0.00000000D+00  -5  6  0 0.00000000D+00 0.00000000D+00 0.00000000D+00 0.00000000D+00 0.00000000D+00
  <mgrwgt>
 0.1536068844D-01   13    2    0
 0.116171564581646D+04 0.000000000000000D+00 0.000000000000000D+00 0.116171564581646D+04
 0.116171564581646D+04 0.000000000000000D+00 0.000000000000000D+00 -.116171564581646D+04
 0.592489180803566D+03 0.208005257630883D+03 -.494386123477013D+03 0.218482500627767D+03
 0.689147525951891D+03 0.484405835901525D+02 0.454010206328140D+02 0.685942103761357D+03
 0.104179458487746D+04 -.256445841221036D+03 0.448985102844199D+03 -.904424604389124D+03
 0.000000000000000D+00 0.000000000000000D+00 -.000000000000000D+00 -.000000000000000D+00
 0.116176786462976D+04 0.000000000000000D+00 0.000000000000000D+00 0.116176786462976D+04
 0.135559380321947D+04 0.000000000000000D+00 0.000000000000000D+00 -.135559380321947D+04
 0.591431059647831D+03 0.206603790987583D+03 -.493706358866434D+03 0.218482500627767D+03
 0.689087363693528D+03 0.468090968071118D+02 0.461923537573224D+02 0.685942103761357D+03
 0.104292091170259D+04 -.258913625054273D+03 0.450182071836940D+03 -.904424604389124D+03
 0.193922332805281D+03 0.550073725957815D+01 -.266806672782776D+01 -.193825938589702D+03
0.244608990753D-04 0.000000000000D+00 0.000000000000D+00 0.201707031666D-04 0.000000000000D+00  6 2 1 25 2 1 21 0 0.35567911D+00 0.89807913D-01 0.32159484D+06 0.32159484D+06 0.32159484D+06 0.10823255D+01  1  2  2  2  6  2        1 0.581537734603D-04 0.100000000000D+01
0.816115487159D-05 0.000000000000D+00 -.939362931519D-07 0.201707031666D-04 0.000000000000D+00  6 2 1 25 2 1 21 2 0.35567911D+00 0.89807913D-01 0.32159484D+06 0.32159484D+06 0.32159484D+06 0.10823255D+01  1  2  3  2  6  2        1 0.227286096324D-04 0.100000000000D+01
-.165054252375D-04 0.000000000000D+00 0.000000000000D+00 0.201707031666D-04 0.000000000000D+00  6 2 1 25 2 1 21 2 0.35567911D+00 0.89807913D-01 0.32159484D+06 0.32159484D+06 0.32159484D+06 0.10823255D+01  1  2 15  2  6  2        1 -.459671912790D-04 0.100000000000D+01
0.535108068891D-01 0.000000000000D+00 0.000000000000D+00 0.201707031666D-04 0.000000000000D+00  6 2 1 25 2 1 21 2 0.35567911D+00 0.10483230D+00 0.32535616D+06 0.32535616D+06 0.32535616D+06 0.10819544D+01  1  2 12  2  6  2        1 0.118345758480D+00 0.100000000000D+01
0.228238112573D-07 0.000000000000D+00 0.000000000000D+00 0.201707031666D-04 0.000000000000D+00  6 2 1 25 2 1 21 2 0.35567911D+00 0.10479922D+00 0.32535616D+06 0.32535616D+06 0.32535616D+06 0.10819544D+01  1  2 12  2  6  2        1 0.505018164734D-07 0.100000000000D+01
-.587304952138D-01 0.000000000000D+00 0.000000000000D+00 0.201707031666D-04 0.000000000000D+00  6 2 1 25 2 1 21 2 0.35567911D+00 0.89807913D-01 0.32159484D+06 0.32159484D+06 0.32159484D+06 0.10823255D+01  1  2  4  2  6  2        1 -.163562941794D+00 0.100000000000D+01
-.660261228508D-01 0.000000000000D+00 -.382586282180D-04 0.201707031666D-04 0.000000000000D+00  6 2 1 25 2 1 21 2 0.35567911D+00 0.10479786D+00 0.32159484D+06 0.32159484D+06 0.32159484D+06 0.10823255D+01  1  2  5  2  6  2        1 -.146318489034D+00 0.100000000000D+01
0.652535340505D-01 0.000000000000D+00 0.378073140308D-04 0.201707031666D-04 0.000000000000D+00  6 2 1 25 2 1 21 2 0.35567911D+00 0.89807913D-01 0.32159484D+06 0.32159484D+06 0.32159484D+06 0.10823255D+01  1  2  6  2  6  2        1 0.181729439755D+00 0.100000000000D+01
0.113617721420D-01 0.000000000000D+00 0.000000000000D+00 0.201707031666D-04 0.314374417580D-05  6 2 1 25 2 1 21 2 0.35569510D+00 0.10479591D+00 0.32535616D+06 0.32535616D+06 0.32535616D+06 0.10819544D+01  1  2 11  2  6  2        1 0.251377796844D-01 0.100000000000D+01
0.125134308219D-02 0.000000000000D+00 0.000000000000D+00 0.201707031666D-04 0.000000000000D+00  6 2 21 25 2 1 -1 2 0.35567911D+00 0.10483230D+00 0.32535616D+06 0.32535616D+06 0.32535616D+06 0.10819544D+01  1  2 12  6  6  2        1 0.576786432723D-02 0.100000000000D+01
0.532854794618D-09 0.000000000000D+00 0.000000000000D+00 0.201707031666D-04 0.000000000000D+00  6 2 21 25 2 1 -1 2 0.35567911D+00 0.10479922D+00 0.32535616D+06 0.32535616D+06 0.32535616D+06 0.10819544D+01  1  2 12  6  6  2        1 0.245815587504D-08 0.100000000000D+01
-.154109100597D-02 0.000000000000D+00 -.893142287996D-06 0.201707031666D-04 0.000000000000D+00  6 2 21 25 2 1 -1 2 0.35567911D+00 0.10479786D+00 0.32159484D+06 0.32159484D+06 0.32159484D+06 0.10823255D+01  1  2  5  6  6  2        1 -.712322476378D-02 0.100000000000D+01
0.292553787280D-03 0.000000000000D+00 0.000000000000D+00 0.201707031666D-04 0.809246177321D-07  6 2 21 25 2 1 -1 2 0.35569510D+00 0.10479591D+00 0.32535616D+06 0.32535616D+06 0.32535616D+06 0.10819544D+01  1  2 11  6  6  2        1 0.134953363027D-02 0.100000000000D+01
  </mgrwgt>
  </event>
  <event>
  5     66 0.18337608E-05 0.40451605E+02 0.75467711E-02 0.80161936E-01
        2 -1    0    0  501    0 0.00000000E+00 0.00000000E+00 0.20132203E+04 0.20132203E+04 0.32000000E+00 0.0000E+00 0.9000E+01
        1 -1    0    0  502    0 0.00000000E+00 0.00000000E+00 -.10203572E+04 0.10203572E+04 0.32000000E+00 0.0000E+00 0.9000E+01
       25  1    1    2    0    0 -.40773816E+03 -.47867555E+03 0.36513256E+03 0.73778552E+03 0.12500000E+03 0.0000E+00 0.9000E+01
        2  1    1    2  501    0 0.36760721E+03 0.48372775E+03 0.13980771E+04 0.15243843E+04 0.32000000E+00 0.0000E+00 0.9000E+01
        1  1    1    2  502    0 0.40130955E+02 -.50522090E+01 -.77034658E+03 0.77140779E+03 0.32000000E+00 0.0000E+00 0.9000E+01
#aMCatNLO 1  0  0  2  5 0.16382775D+02 0.00000000D+00  -5  6  0 0.00000000D+00 0.00000000D+00 0.00000000D+00 0.00000000D+00 0.00000000D+00
  <mgrwgt>
 0.2256441740D-01    3    2    0
 0.143324943208364D+04 0.000000000000000D+00 0.000000000000000D+00 0.143324943208364D+04
 0.143324943208364D+04 0.000000000000000D+00 0.000000000000000D+00 -.143324943208364D+04
 0.654313235266664D+03 -.407723657644691D+03 -.478650995244502D+03 0.130978828798442D+03
 0.112893011106169D+04 0.367588838688454D+03 0.483703586520790D+03 0.951521140973941D+03
 0.108325551783892D+04 0.401348189562373D+02 -.505259127628761D+01 -.108249996977238D+04
 0.000000000000000D+00 -.000000000000000D+00 0.000000000000000D+00 0.000000000000000D+00
 0.365100614836598D+04 0.000000000000000D+00 0.000000000000000D+00 0.365100614836598D+04
 0.231558428038258D+04 0.000000000000000D+00 0.000000000000000D+00 -.231558428038258D+04
 0.100509973839887D+04 -.200194162261536D+03 -.968177322566724D+03 0.130978828798442D+03
 0.117168106602960D+04 0.655307859951713D+03 -.194976017646839D+03 0.951521140973941D+03
 0.134563840794857D+04 0.343897136569337D+03 -.721575567663272D+03 -.108249996977238D+04
 0.244417121637151D+04 -.799010834259514D+03 0.188472890787683D+04 0.133542186798341D+04
0.157206659903D-01 0.000000000000D+00 0.000000000000D+00 0.469492968208D-04 0.000000000000D+00  6 2 1 25 2 1 21 0 0.30972621D+00 0.15697804D+00 0.41541226D+06 0.41541226D+06 0.41541226D+06 0.10742460D+01  1  2  2  2  6  2        1 0.221208857087D-01 0.100000000000D+01
0.999329705783D-02 0.000000000000D+00 -.603714967491D-04 0.469492968208D-04 0.000000000000D+00  6 2 1 25 2 1 21 2 0.30972621D+00 0.15697804D+00 0.41541226D+06 0.41541226D+06 0.41541226D+06 0.10742460D+01  1  2  3  2  6  2        1 0.162273585682D-01 0.100000000000D+01
-.972015685713D-02 0.000000000000D+00 0.000000000000D+00 0.469492968208D-04 0.000000000000D+00  6 2 1 25 2 1 21 2 0.30972621D+00 0.15697804D+00 0.41541226D+06 0.41541226D+06 0.41541226D+06 0.10742460D+01  1  2 15  2  6  2        1 -.157838268739D-01 0.100000000000D+01
  </mgrwgt>
  </event>
  <event>
  5     66 0.18337608E-05 0.12161490E+02 0.75467711E-02 0.93190648E-01
        2 -1    0    0  501    0 0.00000000E+00 0.00000000E+00 0.55267962E+03 0.55267971E+03 0.32000000E+00 0.0000E+00 0.9000E+01
        1 -1    0    0  502    0 0.00000000E+00 0.00000000E+00 -.12521146E+04 0.12521146E+04 0.32000000E+00 0.0000E+00 0.9000E+01
       25  1    1    2    0    0 -.51080240E+03 0.16207197E+03 -.30481913E+02 0.55112663E+03 0.12500000E+03 0.0000E+00 0.9000E+01
        2  1    1    2  501    0 0.52185958E+03 -.16713132E+03 0.35492080E+02 0.54911756E+03 0.32000000E+00 0.0000E+00 0.9000E+01
        1  1    1    2  502    0 -.11057181E+02 0.50593548E+01 -.70444512E+03 0.70455013E+03 0.32000000E+00 0.0000E+00 0.9000E+01
#aMCatNLO 1  0  0  2  1 0.35213523D+02 0.00000000D+00  -5  6  0 0.00000000D+00 0.00000000D+00 0.00000000D+00 0.00000000D+00 0.00000000D+00
  <mgrwgt>
 0.2386199755D-01    7    2    0
 0.831876384166235D+03 0.000000000000000D+00 0.000000000000000D+00 0.831876384166235D+03
 0.831876384166235D+03 0.000000000000000D+00 0.000000000000000D+00 -.831876384166235D+03
 0.585015338673935D+03 -.510744380259464D+03 0.162053148344597D+03 0.198738274191859D+03
 0.610522633728800D+03 0.521803183249009D+03 -.167113259109536D+03 0.269318552788591D+03
 0.468214795929734D+03 -.110588029895449D+02 0.506011076493840D+01 -.468056826980451D+03
 0.000000000000000D+00 -.000000000000000D+00 0.000000000000000D+00 -.000000000000000D+00
 0.833039399399488D+03 0.000000000000000D+00 0.000000000000000D+00 0.833039399399488D+03
 0.114945227157687D+04 0.000000000000000D+00 0.000000000000000D+00 -.114945227157687D+04
 0.573806115884119D+03 -.499013233271507D+03 0.158484541887142D+03 0.198738274191859D+03
 0.622254702486938D+03 0.534283010989241D+03 -.170909613712154D+03 0.269318552788591D+03
 0.468064557423203D+03 -.158052601014421D+01 0.217682574012692D+01 -.468056826980451D+03
 0.318366295182096D+03 -.336892517075904D+02 0.102482460848851D+02 -.316412872177381D+03
0.635671262985D-04 0.000000000000D+00 0.000000000000D+00 0.352976252908D-05 0.000000000000D+00  6 2 1 25 2 1 21 0 0.85027643D-01 0.19263302D+00 0.30818883D+06 0.30818883D+06 0.30818883D+06 0.10836876D+01  1  2  2  2  6  2        1 0.487010178950D-03 0.100000000000D+01
0.636237922260D-04 0.000000000000D+00 -.244114502595D-06 0.352976252908D-05 0.000000000000D+00  6 2 1 25 2 1 21 2 0.85027643D-01 0.19263302D+00 0.30818883D+06 0.30818883D+06 0.30818883D+06 0.10836876D+01  1  2  3  2  6  2        1 0.572444310970D-03 0.100000000000D+01
-.395602152855D-04 0.000000000000D+00 0.000000000000D+00 0.352976252908D-05 0.000000000000D+00  6 2 1 25 2 1 21 2 0.85027643D-01 0.19263302D+00 0.30818883D+06 0.30818883D+06 0.30818883D+06 0.10836876D+01  1  2 15  2  6  2        1 -.355936346902D-03 0.100000000000D+01
-.605974616049D-04 0.000000000000D+00 0.000000000000D+00 0.352976252908D-05 0.000000000000D+00  6 2 1 25 2 1 21 2 0.85027643D-01 0.19263302D+00 0.30818883D+06 0.30818883D+06 0.30818883D+06 0.10836876D+01  1  2  4  2  6  2        1 -.545215412998D-03 0.100000000000D+01
-.564422800231D-02 0.000000000000D+00 -.474516041275D-04 0.352976252908D-05 0.000000000000D+00  6 2 1 25 2 1 21 2 0.85027643D-01 0.26628775D+00 0.30818883D+06 0.30818883D+06 0.30818883D+06 0.10836876D+01  1  2  5  2  6  2        1 -.240648395402D-01 0.100000000000D+01
0.537760897402D-02 0.000000000000D+00 0.450683985004D-04 0.352976252908D-05 0.000000000000D+00  6 2 1 25 2 1 21 2 0.85027643D-01 0.19263302D+00 0.30818883D+06 0.30818883D+06 0.30818883D+06 0.10836876D+01  1  2  6  2  6  2        1 0.483841273225D-01 0.100000000000D+01
-.229327979653D-03 0.000000000000D+00 -.193803602962D-05 0.352976252908D-05 0.000000000000D+00  6 2 21 25 2 1 -1 2 0.85027643D-01 0.26628775D+00 0.30818883D+06 0.30818883D+06 0.30818883D+06 0.10836876D+01  1  2  5  6  6  2        1 -.615592964384D-03 0.100000000000D+01
  </mgrwgt>
  </event>
</LesHouchesEvents>
