<event>
 5    0  0.1911311E+001  0.3815781E+03  0.7546771E-02  0.1050352E+00
         21   -1    0    0  502  501  0.00000000000E+00  0.00000000000E+00  0.14148356227E+04  0.14148356227E+04  0.00000000000E+00 0. -1.
         21   -1    0    0  504  502 -0.00000000000E+00 -0.00000000000E+00 -0.58099397903E+03  0.58099397903E+03  0.00000000000E+00 0. -1.
         25    1    1    2    0    0  0.37766622482E+03 -0.60868169613E+02  0.10561200129E+04  0.11301996253E+04  0.12500000000E+03 0.  0.
         21    1    1    2  503  501 -0.26970180376E+02 -0.17571151840E+02  0.26122732004E+03  0.26320305610E+03  0.00000000000E+00 0. -1.
         21    1    1    2  504  503 -0.35069604444E+03  0.78439321453E+02 -0.48350568927E+03  0.60242692030E+03  0.00000000000E+00 0. -1.
<mgrwt>
<rscale>  4 0.38157812E+03</rscale>
<asrwt>0</asrwt>
<pdfrwt beam="1">  1       21 0.21766702E+00 0.38157812E+03</pdfrwt>
<pdfrwt beam="2">  1       21 0.89383689E-01 0.38157812E+03</pdfrwt>
<totfact> 0.91693033E+01</totfact>
</mgrwt>
</event>
<event>
 5    0  0.1911311E+001  0.2029578E+03  0.7546771E-02  0.1147267E+00
         21   -1    0    0  503  501  0.00000000000E+00  0.00000000000E+00  0.24078635954E+03  0.24078635954E+03  0.00000000000E+00 0. -1.
         21   -1    0    0  504  502 -0.00000000000E+00 -0.00000000000E+00 -0.51129181467E+03  0.51129181467E+03  0.00000000000E+00 0. -1.
         25    1    1    2    0    0 -0.16891737744E+03 -0.13319567429E+03  0.31678116571E+01  0.24881560055E+03  0.12500000000E+03 0.  0.
         21    1    1    2  503  502  0.51890305503E+02  0.56138781309E+02 -0.33982217453E+03  0.34831491050E+03  0.00000000000E+00 0. -1.
         21    1    1    2  504  501  0.11702707193E+03  0.77056892978E+02  0.66148907742E+02  0.15494766315E+03  0.00000000000E+00 0. -1.
<mgrwt>
<rscale>  4 0.20295779E+03</rscale>
<asrwt>0</asrwt>
<pdfrwt beam="1">  1       21 0.37044056E-01 0.20295779E+03</pdfrwt>
<pdfrwt beam="2">  1       21 0.78660279E-01 0.20295779E+03</pdfrwt>
<totfact> 0.99701217E+03</totfact>
</mgrwt>
</event>
<event>
 5    0  0.1911311E+001  0.4225154E+03  0.7546771E-02  0.1036251E+00
         21   -1    0    0  502  501  0.00000000000E+00  0.00000000000E+00  0.11908764927E+03  0.11908764927E+03  0.00000000000E+00 0.  1.
         21   -1    0    0  504  502 -0.00000000000E+00 -0.00000000000E+00 -0.19869735294E+04  0.19869735294E+04  0.00000000000E+00 0.  1.
         25    1    1    2    0    0  0.16399119218E+03 -0.37419310326E+03 -0.46426953390E+03  0.63093960864E+03  0.12500000000E+03 0.  0.
         21    1    1    2  503  501  0.25662474314E+02  0.19508126991E+02 -0.30745589177E+02  0.44546838950E+02  0.00000000000E+00 0.  1.
         21    1    1    2  504  503 -0.18965366650E+03  0.35468497627E+03 -0.13728707570E+04  0.14305747310E+04  0.00000000000E+00 0.  1.
<mgrwt>
<rscale>  4 0.42251540E+03</rscale>
<asrwt>0</asrwt>
<pdfrwt beam="1">  1       21 0.18321179E-01 0.42251540E+03</pdfrwt>
<pdfrwt beam="2">  1       21 0.30568820E+00 0.42251540E+03</pdfrwt>
<totfact> 0.69947419E+02</totfact>
</mgrwt>
</event>
<event>
 5    0  0.1911311E+001  0.2238638E+03  0.7546771E-02  0.1131035E+00
         21   -1    0    0  502  501  0.00000000000E+00  0.00000000000E+00  0.48032535023E+02  0.48032535023E+02  0.00000000000E+00 0.  1.
         21   -1    0    0  504  502 -0.00000000000E+00 -0.00000000000E+00 -0.17761336751E+04  0.17761336751E+04  0.00000000000E+00 0.  1.
         25    1    1    2    0    0 -0.36823044096E+02 -0.22388363459E+03 -0.79592745180E+03  0.83702170040E+03  0.12500000000E+03 0.  0.
         21    1    1    2  503  501  0.30244059469E+02  0.53785228472E+02 -0.29199809688E+02  0.68265531718E+02  0.00000000000E+00 0.  1.
         21    1    1    2  504  503  0.65789846268E+01  0.17009840612E+03 -0.90297387863E+03  0.91887897804E+03  0.00000000000E+00 0.  1.
<mgrwt>
<rscale>  4 0.22386383E+03</rscale>
<asrwt>0</asrwt>
<pdfrwt beam="1">  1       21 0.73896212E-02 0.22386383E+03</pdfrwt>
<pdfrwt beam="2">  1       21 0.27325132E+00 0.22386383E+03</pdfrwt>
<totfact> 0.64983994E+03</totfact>
</mgrwt>
</event>
<event>
 5    0  0.1911311E+001  0.2318714E+03  0.7546771E-02  0.1125329E+00
         21   -1    0    0  503  501  0.00000000000E+00  0.00000000000E+00  0.12918778661E+04  0.12918778661E+04  0.00000000000E+00 0.  1.
         21   -1    0    0  501  502 -0.00000000000E+00 -0.00000000000E+00 -0.43920235893E+02  0.43920235893E+02  0.00000000000E+00 0.  1.
         25    1    1    2    0    0  0.93930750536E+01 -0.20652547907E+03  0.64348124865E+03  0.68733843245E+03  0.12500000000E+03 0.  0.
         21    1    1    2  503  504 -0.31022816314E+02  0.18596180739E+03  0.40462030305E+03  0.44638749823E+03  0.00000000000E+00 0.  1.
         21    1    1    2  504  502  0.21629741261E+02  0.20563671676E+02  0.19985607848E+03  0.20207217128E+03  0.00000000000E+00 0.  1.
<mgrwt>
<rscale>  4 0.23187144E+03</rscale>
<asrwt>0</asrwt>
<pdfrwt beam="1">  1       21 0.19875041E+00 0.23187144E+03</pdfrwt>
<pdfrwt beam="2">  1       21 0.67569604E-02 0.23187144E+03</pdfrwt>
<totfact> 0.21388299E+04</totfact>
</mgrwt>
</event>
