<event>
 5    0  0.3084938E+000  0.3570553E+03  0.7546771E-02  0.1059756E+00
         21   -1    0    0  502  501  0.00000000000E+00  0.00000000000E+00  0.23176995057E+03  0.23176995057E+03  0.00000000000E+00 0. -1.
         21   -1    0    0  503  502 -0.00000000000E+00 -0.00000000000E+00 -0.63979167078E+03  0.63979167078E+03  0.00000000000E+00 0. -1.
         25    1    1    2    0    0  0.20605409124E+03  0.26344865374E+03 -0.27084085794E+02  0.35808103744E+03  0.12500000000E+03 0.  0.
         21    1    1    2  503  504 -0.31101608175E+02 -0.33566457915E+02 -0.10252011741E+03  0.11226928165E+03  0.00000000000E+00 0. -1.
         21    1    1    2  504  501 -0.17495248306E+03 -0.22988219582E+03 -0.27841751700E+03  0.40121130226E+03  0.00000000000E+00 0. -1.
<mgrwt>
<rscale>  4 0.35705529E+03</rscale>
<asrwt>0</asrwt>
<pdfrwt beam="1">  1       21 0.35656916E-01 0.35705529E+03</pdfrwt>
<pdfrwt beam="2">  1       21 0.98429487E-01 0.35705529E+03</pdfrwt>
<totfact> 0.58895051E+03</totfact>
</mgrwt>
</event>
<event>
 5    0  0.1856407E+000  0.2495114E+03  0.7546771E-02  0.1113614E+00
         21   -1    0    0  502  501  0.00000000000E+00  0.00000000000E+00  0.11547018537E+03  0.11547018537E+03  0.00000000000E+00 0. -1.
         21   -1    0    0  503  502 -0.00000000000E+00 -0.00000000000E+00 -0.22509020519E+04  0.22509020519E+04  0.00000000000E+00 0. -1.
         25    1    1    2    0    0 -0.18696939374E+03 -0.10804352560E+03 -0.34435592761E+02  0.25187649288E+03  0.12500000000E+03 0.  0.
         21    1    1    2  503  504  0.14545857748E+03  0.31591767941E+02 -0.11663889599E+04  0.11758483930E+04  0.00000000000E+00 0. -1.
         21    1    1    2  504  501  0.41510816257E+02  0.76451757658E+02 -0.93460731395E+03  0.93864735146E+03  0.00000000000E+00 0.  1.
<mgrwt>
<rscale>  4 0.24951144E+03</rscale>
<asrwt>0</asrwt>
<pdfrwt beam="1">  1       21 0.17764646E-01 0.24951144E+03</pdfrwt>
<pdfrwt beam="2">  1       21 0.34629259E+00 0.24951144E+03</pdfrwt>
<totfact> 0.48992533E+02</totfact>
</mgrwt>
</event>
<event>
 5    0  0.2895555E+000  0.2394970E+03  0.7546771E-02  0.1120128E+00
         21   -1    0    0  502  501  0.00000000000E+00  0.00000000000E+00  0.12655968876E+03  0.12655968876E+03  0.00000000000E+00 0.  1.
         21   -1    0    0  503  502 -0.00000000000E+00 -0.00000000000E+00 -0.98414920714E+03  0.98414920714E+03  0.00000000000E+00 0.  1.
         25    1    1    2    0    0  0.13407196049E+03 -0.17143326824E+03 -0.39259897844E+02  0.25402951723E+03  0.12500000000E+03 0.  0.
         21    1    1    2  503  504 -0.14590099962E+03  0.14100469903E+03 -0.78173834610E+03  0.80764117565E+03  0.00000000000E+00 0.  1.
         21    1    1    2  504  501  0.11829039134E+02  0.30428569210E+02 -0.36591274438E+02  0.49038203026E+02  0.00000000000E+00 0.  1.
<mgrwt>
<rscale>  4 0.23949705E+03</rscale>
<asrwt>0</asrwt>
<pdfrwt beam="1">  1       21 0.19470722E-01 0.23949705E+03</pdfrwt>
<pdfrwt beam="2">  1       21 0.15140757E+00 0.23949705E+03</pdfrwt>
<totfact> 0.68349440E+03</totfact>
</mgrwt>
</event>
<event>
 5    0  0.1856407E+000  0.2779654E+03  0.7546771E-02  0.1096805E+00
         21   -1    0    0  502  501  0.00000000000E+00  0.00000000000E+00  0.26710019899E+03  0.26710019899E+03  0.00000000000E+00 0. -1.
         21   -1    0    0  503  502 -0.00000000000E+00 -0.00000000000E+00 -0.34976819200E+03  0.34976819200E+03  0.00000000000E+00 0.  1.
         25    1    1    2    0    0  0.24423836271E+03  0.44580352557E+02  0.97182547722E+02  0.29446431573E+03  0.12500000000E+03 0.  0.
         21    1    1    2  503  504 -0.18459862225E+03  0.12503905113E+02 -0.12468105492E+03  0.22311065514E+03  0.00000000000E+00 0.  1.
         21    1    1    2  504  501 -0.59639740469E+02 -0.57084257669E+02 -0.55169485803E+02  0.99293420127E+02  0.00000000000E+00 0. -1.
<mgrwt>
<rscale>  4 0.27796544E+03</rscale>
<asrwt>0</asrwt>
<pdfrwt beam="1">  1       21 0.41092339E-01 0.27796544E+03</pdfrwt>
<pdfrwt beam="2">  1       21 0.53810490E-01 0.27796544E+03</pdfrwt>
<totfact> 0.17813284E+04</totfact>
</mgrwt>
</event>
<event>
 5    0  0.1856407E+000  0.2874301E+03  0.7546771E-02  0.1091699E+00
         21   -1    0    0  502  501  0.00000000000E+00  0.00000000000E+00  0.11519188849E+03  0.11519188849E+03  0.00000000000E+00 0. -1.
         21   -1    0    0  503  502 -0.00000000000E+00 -0.00000000000E+00 -0.11208174900E+04  0.11208174900E+04  0.00000000000E+00 0.  1.
         25    1    1    2    0    0 -0.90102960197E+02 -0.24288388416E+03 -0.13556674701E+03  0.31798501146E+03  0.12500000000E+03 0.  0.
         21    1    1    2  503  504 -0.28954711864E+02  0.12285583908E+02 -0.13105740017E+03  0.13477890432E+03  0.00000000000E+00 0.  1.
         21    1    1    2  504  501  0.11905767206E+03  0.23059830025E+03 -0.73900145437E+03  0.78324546275E+03  0.00000000000E+00 0.  1.
<mgrwt>
<rscale>  4 0.28743010E+03</rscale>
<asrwt>0</asrwt>
<pdfrwt beam="1">  1       21 0.17721830E-01 0.28743010E+03</pdfrwt>
<pdfrwt beam="2">  1       21 0.17243345E+00 0.28743010E+03</pdfrwt>
<totfact> 0.55389541E+03</totfact>
</mgrwt>
</event>
<event>
 5    0  0.1856407E+000  0.3244250E+03  0.7546771E-02  0.1073631E+00
         21   -1    0    0  502  501  0.00000000000E+00  0.00000000000E+00  0.58416890096E+03  0.58416890096E+03  0.00000000000E+00 0. -1.
         21   -1    0    0  503  502 -0.00000000000E+00 -0.00000000000E+00 -0.64279483912E+03  0.64279483912E+03  0.00000000000E+00 0. -1.
         25    1    1    2    0    0 -0.74984512904E+02  0.28983432487E+03  0.49764456457E+03  0.59405532208E+03  0.12500000000E+03 0.  0.
         21    1    1    2  503  504  0.77094265004E+02 -0.26431949926E+03 -0.52160611167E+03  0.58981459724E+03  0.00000000000E+00 0. -1.
         21    1    1    2  504  501 -0.21097520998E+01 -0.25514825614E+02 -0.34664391066E+02  0.43093820763E+02  0.00000000000E+00 0. -1.
<mgrwt>
<rscale>  4 0.32442505E+03</rscale>
<asrwt>0</asrwt>
<pdfrwt beam="1">  1       21 0.89872139E-01 0.32442505E+03</pdfrwt>
<pdfrwt beam="2">  1       21 0.98891513E-01 0.32442505E+03</pdfrwt>
<totfact> 0.80007690E+02</totfact>
</mgrwt>
</event>
<event>
 5    0  0.1856407E+000  0.2510576E+03  0.7546771E-02  0.1112638E+00
         21   -1    0    0  502  501  0.00000000000E+00  0.00000000000E+00  0.45883560969E+03  0.45883560969E+03  0.00000000000E+00 0. -1.
         21   -1    0    0  503  502 -0.00000000000E+00 -0.00000000000E+00 -0.18379959320E+03  0.18379959320E+03  0.00000000000E+00 0. -1.
         25    1    1    2    0    0 -0.68553026293E+01 -0.24023976578E+03  0.19190720166E+03  0.33198722006E+03  0.12500000000E+03 0.  0.
         21    1    1    2  503  504 -0.45061198224E+02  0.19715141590E+03  0.11857659013E+03  0.23443463930E+03  0.00000000000E+00 0. -1.
         21    1    1    2  504  501  0.51916500853E+02  0.43088349881E+02 -0.35447775305E+02  0.76213343519E+02  0.00000000000E+00 0. -1.
<mgrwt>
<rscale>  4 0.25105761E+03</rscale>
<asrwt>0</asrwt>
<pdfrwt beam="1">  1       21 0.70590093E-01 0.25105761E+03</pdfrwt>
<pdfrwt beam="2">  1       21 0.28276861E-01 0.25105761E+03</pdfrwt>
<totfact> 0.21065024E+04</totfact>
</mgrwt>
</event>
<event>
 5    0  0.2222199E+000  0.2641451E+03  0.7546771E-02  0.1104678E+00
         21   -1    0    0  502  501  0.00000000000E+00  0.00000000000E+00  0.12985477074E+03  0.12985477074E+03  0.00000000000E+00 0. -1.
         21   -1    0    0  503  502 -0.00000000000E+00 -0.00000000000E+00 -0.64533920235E+03  0.64533920235E+03  0.00000000000E+00 0. -1.
         25    1    1    2    0    0  0.17271334217E+03 -0.15594136491E+03 -0.75218783889E+02  0.27464608737E+03  0.12500000000E+03 0.  0.
         21    1    1    2  503  504 -0.31041433320E+02  0.56490391964E+01 -0.62121328347E+02  0.69674540989E+02  0.00000000000E+00 0. -1.
         21    1    1    2  504  501 -0.14167190885E+03  0.15029232572E+03 -0.37814431938E+03  0.43087334474E+03  0.00000000000E+00 0. -1.
<mgrwt>
<rscale>  4 0.26414505E+03</rscale>
<asrwt>0</asrwt>
<pdfrwt beam="1">  1       21 0.19977657E-01 0.26414505E+03</pdfrwt>
<pdfrwt beam="2">  1       21 0.99282956E-01 0.26414505E+03</pdfrwt>
<totfact> 0.18565575E+04</totfact>
</mgrwt>
</event>
<event>
 5    0  0.1856407E+000  0.2845452E+03  0.7546771E-02  0.1093232E+00
         21   -1    0    0  502  501  0.00000000000E+00  0.00000000000E+00  0.39346616182E+03  0.39346616182E+03  0.00000000000E+00 0. -1.
         21   -1    0    0  503  502 -0.00000000000E+00 -0.00000000000E+00 -0.49566250682E+03  0.49566250682E+03  0.00000000000E+00 0. -1.
         25    1    1    2    0    0  0.24693064854E+03 -0.66077419969E+02  0.29591909577E+03  0.41052902682E+03  0.12500000000E+03 0.  0.
         21    1    1    2  503  504 -0.22188603611E+03  0.48410999059E+02 -0.30296857423E+03  0.37863834304E+03  0.00000000000E+00 0. -1.
         21    1    1    2  504  501 -0.25044612426E+02  0.17666420910E+02 -0.95146866543E+02  0.99961298773E+02  0.00000000000E+00 0.  1.
<mgrwt>
<rscale>  4 0.28454520E+03</rscale>
<asrwt>0</asrwt>
<pdfrwt beam="1">  1       21 0.60533256E-01 0.28454520E+03</pdfrwt>
<pdfrwt beam="2">  1       21 0.76255769E-01 0.28454520E+03</pdfrwt>
<totfact> 0.36564703E+03</totfact>
</mgrwt>
</event>
<event>
 5    0  0.1856407E+000  0.2423332E+03  0.7546771E-02  0.1118248E+00
         21   -1    0    0  502  501  0.00000000000E+00  0.00000000000E+00  0.90091282662E+02  0.90091282662E+02  0.00000000000E+00 0.  1.
         21   -1    0    0  503  502 -0.00000000000E+00 -0.00000000000E+00 -0.67026226919E+03  0.67026226919E+03  0.00000000000E+00 0.  1.
         25    1    1    2    0    0  0.88632151932E+02 -0.18773576772E+03 -0.45580515266E+03  0.51622060598E+03  0.12500000000E+03 0.  0.
         21    1    1    2  503  504 -0.84087976082E+02  0.15049956868E+03 -0.98300204554E+02  0.19845361703E+03  0.00000000000E+00 0.  1.
         21    1    1    2  504  501 -0.45441758505E+01  0.37236199040E+02 -0.26065629310E+02  0.45679328853E+02  0.00000000000E+00 0.  1.
<mgrwt>
<rscale>  4 0.24233319E+03</rscale>
<asrwt>0</asrwt>
<pdfrwt beam="1">  1       21 0.13860197E-01 0.24233319E+03</pdfrwt>
<pdfrwt beam="2">  1       21 0.10311727E+00 0.24233319E+03</pdfrwt>
<totfact> 0.33667047E+04</totfact>
</mgrwt>
</event>
