<event>
 5    0  0.1141006E+000  0.2348151E+03  0.7546771E-02  0.1123296E+00
         21   -1    0    0  501  502  0.00000000000E+00  0.00000000000E+00  0.54636434764E+03  0.54636434764E+03  0.00000000000E+00 0.  1.
          2   -1    0    0  503    0 -0.00000000000E+00 -0.00000000000E+00 -0.34838435538E+03  0.34838435538E+03  0.00000000000E+00 0. -1.
         25    1    1    2    0    0  0.14087946267E+03  0.14285107514E+03  0.46337464894E+03  0.52018700286E+03  0.12500000000E+03 0.  0.
         21    1    1    2  503  502  0.22869254843E+02 -0.42953134048E+02 -0.13264669941E+03  0.14129091056E+03  0.00000000000E+00 0.  1.
          2    1    1    2  501    0 -0.16374871751E+03 -0.99897941093E+02 -0.13274795727E+03  0.23327078960E+03  0.00000000000E+00 0. -1.
<mgrwt>
<rscale>  4 0.23481507E+03</rscale>
<asrwt>0</asrwt>
<pdfrwt beam="1">  1       21 0.84056054E-01 0.23481507E+03</pdfrwt>
<pdfrwt beam="2">  1        2 0.53597593E-01 0.23481507E+03</pdfrwt>
<totfact> 0.13931416E+03</totfact>
</mgrwt>
</event>
<event>
 5    0  0.1141006E+000  0.2511122E+03  0.7546771E-02  0.1112604E+00
         21   -1    0    0  501  502  0.00000000000E+00  0.00000000000E+00  0.20890295403E+03  0.20890295403E+03  0.00000000000E+00 0.  1.
          1   -1    0    0  503    0 -0.00000000000E+00 -0.00000000000E+00 -0.58157967983E+03  0.58157967983E+03  0.00000000000E+00 0.  1.
         25    1    1    2    0    0 -0.20362005608E+03 -0.50473854118E+02  0.65452324840E+02  0.25281958787E+03  0.12500000000E+03 0.  0.
         21    1    1    2  503  502  0.88175808836E+01 -0.51719888736E+02 -0.60567665397E+01  0.52814591207E+02  0.00000000000E+00 0.  1.
          1    1    1    2  501    0  0.19480247519E+03  0.10219374285E+03 -0.43207228410E+03  0.48484845478E+03  0.00000000000E+00 0.  1.
<mgrwt>
<rscale>  4 0.25111219E+03</rscale>
<asrwt>0</asrwt>
<pdfrwt beam="1">  1       21 0.32138916E-01 0.25111219E+03</pdfrwt>
<pdfrwt beam="2">  1        1 0.89473797E-01 0.25111219E+03</pdfrwt>
<totfact> 0.37211802E+03</totfact>
</mgrwt>
</event>
<event>
 5    0  0.1141006E+000  0.2789442E+03  0.7546771E-02  0.1096267E+00
         21   -1    0    0  503  502  0.00000000000E+00  0.00000000000E+00  0.93363578565E+03  0.93363578565E+03  0.00000000000E+00 0.  1.
         -1   -1    0    0    0  501 -0.00000000000E+00 -0.00000000000E+00 -0.35358696415E+03  0.35358696415E+03  0.00000000000E+00 0.  1.
         25    1    1    2    0    0  0.70365288794E+02  0.24495190656E+03  0.83252770161E+03  0.87959086190E+03  0.12500000000E+03 0.  0.
         21    1    1    2  503  501 -0.32122037527E+02 -0.34049217833E+02 -0.17268839804E+03  0.17892025416E+03  0.00000000000E+00 0.  1.
         -1    1    1    2    0  502 -0.38243251267E+02 -0.21090268873E+03 -0.79790482064E+02  0.22871163374E+03  0.00000000000E+00 0.  1.
<mgrwt>
<rscale>  4 0.27894417E+03</rscale>
<asrwt>0</asrwt>
<pdfrwt beam="1">  1       21 0.14363627E+00 0.27894417E+03</pdfrwt>
<pdfrwt beam="2">  1       -1 0.54397995E-01 0.27894417E+03</pdfrwt>
<totfact> 0.10295553E+02</totfact>
</mgrwt>
</event>
<event>
 5    0  0.1141006E+000  0.2425293E+03  0.7546771E-02  0.1118119E+00
         21   -1    0    0  501  502  0.00000000000E+00  0.00000000000E+00  0.39964944958E+03  0.39964944958E+03  0.00000000000E+00 0. -1.
          2   -1    0    0  503    0 -0.00000000000E+00 -0.00000000000E+00 -0.28657144670E+03  0.28657144670E+03  0.00000000000E+00 0. -1.
         25    1    1    2    0    0  0.22635893845E+03  0.12064357305E+03 -0.73860596999E+01  0.28543439634E+03  0.12500000000E+03 0.  0.
         21    1    1    2  503  502 -0.59206668988E+02 -0.19664645630E+02 -0.92670632668E+02  0.11171380443E+03  0.00000000000E+00 0. -1.
          2    1    1    2  501    0 -0.16715226946E+03 -0.10097892742E+03  0.21313469525E+03  0.28907269551E+03  0.00000000000E+00 0. -1.
<mgrwt>
<rscale>  4 0.24252932E+03</rscale>
<asrwt>0</asrwt>
<pdfrwt beam="1">  1       21 0.61484530E-01 0.24252932E+03</pdfrwt>
<pdfrwt beam="2">  1        2 0.44087915E-01 0.24252932E+03</pdfrwt>
<totfact> 0.34444446E+03</totfact>
</mgrwt>
</event>
<event>
 5    0  0.1141006E+000  0.3508232E+03  0.7546771E-02  0.1062278E+00
          1   -1    0    0  503    0 -0.00000000000E+00  0.00000000000E+00  0.65234547965E+03  0.65234547965E+03  0.00000000000E+00 0.  1.
         21   -1    0    0  501  502  0.00000000000E+00 -0.00000000000E+00 -0.15643133113E+04  0.15643133113E+04  0.00000000000E+00 0.  1.
         25    1    1    2    0    0  0.29486259185E+03 -0.17384568071E+03 -0.12093966029E+04  0.12631038801E+04  0.12500000000E+03 0.  0.
         21    1    1    2  503  502 -0.55530383324E-01  0.11089609441E+03  0.54951313529E+03  0.56059132414E+03  0.00000000000E+00 0.  1.
          1    1    1    2  501    0 -0.29480706147E+03  0.62949586303E+02 -0.25208436406E+03  0.39296358675E+03  0.00000000000E+00 0.  1.
<mgrwt>
<rscale>  4 0.35082319E+03</rscale>
<asrwt>0</asrwt>
<pdfrwt beam="1">  1       21 0.24066358E+00 0.35082319E+03</pdfrwt>
<pdfrwt beam="2">  1        1 0.10036084E+00 0.35082319E+03</pdfrwt>
<totfact> 0.22755967E+01</totfact>
</mgrwt>
</event>
<event>
 5    0  0.1141006E+000  0.2576254E+03  0.7546771E-02  0.1108578E+00
         21   -1    0    0  501  502  0.00000000000E+00  0.00000000000E+00  0.15644747133E+03  0.15644747133E+03  0.00000000000E+00 0.  1.
          2   -1    0    0  503    0 -0.00000000000E+00 -0.00000000000E+00 -0.11287952516E+04  0.11287952516E+04  0.00000000000E+00 0.  1.
         25    1    1    2    0    0  0.21639749578E+03 -0.39750073781E+02 -0.34333008245E+01  0.25307060694E+03  0.12500000000E+03 0.  0.
         21    1    1    2  503  502  0.15093248765E+02 -0.62268497329E+02 -0.45370230364E+03  0.45820405088E+03  0.00000000000E+00 0. -1.
          2    1    1    2  501    0 -0.23149074454E+03  0.10201857111E+03 -0.51521217585E+03  0.57396806514E+03  0.00000000000E+00 0.  1.
<mgrwt>
<rscale>  4 0.25762537E+03</rscale>
<asrwt>0</asrwt>
<pdfrwt beam="1">  1       21 0.24068842E-01 0.25762537E+03</pdfrwt>
<pdfrwt beam="2">  1        2 0.17366080E+00 0.25762537E+03</pdfrwt>
<totfact> 0.44534166E+03</totfact>
</mgrwt>
</event>
<event>
 5    0  0.1141006E+000  0.2647148E+03  0.7546771E-02  0.1104343E+00
         21   -1    0    0  501  502  0.00000000000E+00  0.00000000000E+00  0.55340948098E+03  0.55340948098E+03  0.00000000000E+00 0. -1.
          2   -1    0    0  503    0 -0.00000000000E+00 -0.00000000000E+00 -0.17895719503E+04  0.17895719503E+04  0.00000000000E+00 0.  1.
         25    1    1    2    0    0  0.18466843579E+03  0.14242601613E+03  0.51111581000E+03  0.57554493524E+03  0.12500000000E+03 0.  0.
         21    1    1    2  503  502 -0.81941329342E+01  0.21837389033E+02 -0.10526328851E+03  0.10781639617E+03  0.00000000000E+00 0. -1.
          2    1    1    2  501    0 -0.17647430286E+03 -0.16426340516E+03 -0.16420149908E+04  0.16596200999E+04  0.00000000000E+00 0.  1.
<mgrwt>
<rscale>  4 0.26471482E+03</rscale>
<asrwt>0</asrwt>
<pdfrwt beam="1">  1       21 0.85139920E-01 0.26471482E+03</pdfrwt>
<pdfrwt beam="2">  1        2 0.27531876E+00 0.26471482E+03</pdfrwt>
<totfact> 0.13950440E+02</totfact>
</mgrwt>
</event>
<event>
 5    0  0.1141006E+000  0.2674448E+03  0.7546771E-02  0.1102751E+00
          2   -1    0    0  503    0 -0.00000000000E+00  0.00000000000E+00  0.12132786028E+04  0.12132786028E+04  0.00000000000E+00 0.  1.
         21   -1    0    0  501  502  0.00000000000E+00 -0.00000000000E+00 -0.20565465754E+03  0.20565465754E+03  0.00000000000E+00 0. -1.
         25    1    1    2    0    0  0.23537341533E+03  0.97836390087E+01 -0.95820337929E+02  0.28337766567E+03  0.12500000000E+03 0.  0.
         21    1    1    2  503  502  0.10913403400E+02 -0.18601947896E+02  0.98665324667E+02  0.10099495597E+03  0.00000000000E+00 0. -1.
          2    1    1    2  501    0 -0.24628681873E+03  0.88183088870E+01  0.10047789585E+04  0.10345606387E+04  0.00000000000E+00 0.  1.
<mgrwt>
<rscale>  4 0.26744476E+03</rscale>
<asrwt>0</asrwt>
<pdfrwt beam="1">  1       21 0.31639179E-01 0.26744476E+03</pdfrwt>
<pdfrwt beam="2">  1        2 0.18665824E+00 0.26744476E+03</pdfrwt>
<totfact> 0.23316241E+03</totfact>
</mgrwt>
</event>
<event>
 5    0  0.1141006E+000  0.2503234E+03  0.7546771E-02  0.1113101E+00
         -4   -1    0    0    0  501 -0.00000000000E+00  0.00000000000E+00  0.28208181690E+03  0.28208181690E+03  0.00000000000E+00 0.  1.
         21   -1    0    0  503  502  0.00000000000E+00 -0.00000000000E+00 -0.10900148833E+04  0.10900148833E+04  0.00000000000E+00 0.  1.
         25    1    1    2    0    0  0.57673072342E+02 -0.23942256574E+03 -0.93022716798E+03  0.97035917696E+03  0.12500000000E+03 0.  0.
         21    1    1    2  503  501 -0.80062016973E+02  0.86296182682E+02  0.19731230149E+03  0.22975879097E+03  0.00000000000E+00 0.  1.
         -4    1    1    2    0  502  0.22388944631E+02  0.15312638306E+03 -0.75018199904E+02  0.17197873226E+03  0.00000000000E+00 0.  1.
<mgrwt>
<rscale>  4 0.25032345E+03</rscale>
<asrwt>0</asrwt>
<pdfrwt beam="1">  1       21 0.16769460E+00 0.25032345E+03</pdfrwt>
<pdfrwt beam="2">  1       -4 0.43397202E-01 0.25032345E+03</pdfrwt>
<totfact> 0.46988812E+01</totfact>
</mgrwt>
</event>
<event>
 5    0  0.1141006E+000  0.3406630E+03  0.7546771E-02  0.1066514E+00
         21   -1    0    0  501  502  0.00000000000E+00  0.00000000000E+00  0.16236561628E+04  0.16236561628E+04  0.00000000000E+00 0. -1.
          1   -1    0    0  503    0 -0.00000000000E+00 -0.00000000000E+00 -0.58035777875E+03  0.58035777875E+03  0.00000000000E+00 0. -1.
         25    1    1    2    0    0 -0.24191085163E+03  0.20419830772E+03  0.15421763672E+04  0.15792880537E+04  0.12500000000E+03 0.  0.
         21    1    1    2  503  502 -0.30402626859E+02 -0.20909029171E+02 -0.14597201788E+02  0.39681047376E+02  0.00000000000E+00 0. -1.
          1    1    1    2  501    0  0.27231347849E+03 -0.18328927855E+03 -0.48428078135E+03  0.58504484048E+03  0.00000000000E+00 0. -1.
<mgrwt>
<rscale>  4 0.34066303E+03</rscale>
<asrwt>0</asrwt>
<pdfrwt beam="1">  1       21 0.24979325E+00 0.34066303E+03</pdfrwt>
<pdfrwt beam="2">  1        1 0.89285813E-01 0.34066303E+03</pdfrwt>
<totfact> 0.23783391E+01</totfact>
</mgrwt>
</event>
<event>
 5    0  0.1141006E+000  0.5341844E+03  0.7546771E-02  0.1005222E+00
          2   -1    0    0  503    0 -0.00000000000E+00  0.00000000000E+00  0.72699048121E+03  0.72699048121E+03  0.00000000000E+00 0. -1.
         21   -1    0    0  501  502  0.00000000000E+00 -0.00000000000E+00 -0.60072160249E+03  0.60072160249E+03  0.00000000000E+00 0. -1.
         25    1    1    2    0    0 -0.16258960074E+03 -0.49247764032E+03  0.71624812616E+02  0.53826082735E+03  0.12500000000E+03 0.  0.
         21    1    1    2  503  502 -0.46183887227E+02  0.15506100331E+02  0.23380541629E+03  0.23882705725E+03  0.00000000000E+00 0.  1.
          2    1    1    2  501    0  0.20877348797E+03  0.47697153999E+03 -0.17916135018E+03  0.55062419910E+03  0.00000000000E+00 0. -1.
<mgrwt>
<rscale>  4 0.53418438E+03</rscale>
<asrwt>0</asrwt>
<pdfrwt beam="1">  1       21 0.92418708E-01 0.53418438E+03</pdfrwt>
<pdfrwt beam="2">  1        2 0.11184469E+00 0.53418438E+03</pdfrwt>
<totfact> 0.43759128E+02</totfact>
</mgrwt>
</event>
<event>
 5    0  0.1141006E+000  0.4706385E+03  0.7546771E-02  0.1021740E+00
          1   -1    0    0  503    0 -0.00000000000E+00  0.00000000000E+00  0.27384560209E+04  0.27384560209E+04  0.00000000000E+00 0.  1.
         21   -1    0    0  501  502  0.00000000000E+00 -0.00000000000E+00 -0.17944258515E+03  0.17944258515E+03  0.00000000000E+00 0.  1.
         25    1    1    2    0    0 -0.27282784793E+03  0.36591203209E+03  0.20644933973E+03  0.51630705952E+03  0.12500000000E+03 0.  0.
         21    1    1    2  503  502  0.38573881737E+02  0.41435863670E+01  0.10949383609E+03  0.11616373704E+03  0.00000000000E+00 0. -1.
          1    1    1    2  501    0  0.23425396620E+03 -0.37005561846E+03  0.22430702599E+04  0.22854278094E+04  0.00000000000E+00 0.  1.
<mgrwt>
<rscale>  4 0.47063847E+03</rscale>
<asrwt>0</asrwt>
<pdfrwt beam="1">  1       21 0.27606554E-01 0.47063847E+03</pdfrwt>
<pdfrwt beam="2">  1        1 0.42130089E+00 0.47063847E+03</pdfrwt>
<totfact> 0.13578196E+02</totfact>
</mgrwt>
</event>
<event>
 5    0  0.1141006E+000  0.2882249E+03  0.7546771E-02  0.1091280E+00
          1   -1    0    0  503    0 -0.00000000000E+00  0.00000000000E+00  0.66853228415E+03  0.66853228415E+03  0.00000000000E+00 0.  1.
         21   -1    0    0  501  502  0.00000000000E+00 -0.00000000000E+00 -0.13307653112E+03  0.13307653112E+03  0.00000000000E+00 0.  1.
         25    1    1    2    0    0  0.12912255461E+03  0.23079885004E+03  0.26754000396E+03  0.39641316453E+03  0.12500000000E+03 0.  0.
         21    1    1    2  503  502  0.27762352000E+02 -0.26969791626E+02  0.72440957316E+02  0.82132881027E+02  0.00000000000E+00 0. -1.
          1    1    1    2  501    0 -0.15688490661E+03 -0.20382905841E+03  0.19547479175E+03  0.32306276973E+03  0.00000000000E+00 0.  1.
<mgrwt>
<rscale>  4 0.28822486E+03</rscale>
<asrwt>0</asrwt>
<pdfrwt beam="1">  1       21 0.20473313E-01 0.28822486E+03</pdfrwt>
<pdfrwt beam="2">  1        1 0.10285112E+00 0.28822486E+03</pdfrwt>
<totfact> 0.72357267E+03</totfact>
</mgrwt>
</event>
<event>
 5    0  0.1141006E+000  0.3116626E+03  0.7546771E-02  0.1079552E+00
         21   -1    0    0  501  502  0.00000000000E+00  0.00000000000E+00  0.76542469622E+02  0.76542469622E+02  0.00000000000E+00 0.  1.
          2   -1    0    0  503    0 -0.00000000000E+00 -0.00000000000E+00 -0.17294489185E+04  0.17294489185E+04  0.00000000000E+00 0.  1.
         25    1    1    2    0    0 -0.27868395926E+03  0.14853276928E+02 -0.45500066474E+03  0.54821161416E+03  0.12500000000E+03 0.  0.
         21    1    1    2  503  502 -0.17766651970E+02 -0.65754295207E+02 -0.38567056256E+03  0.39163894608E+03  0.00000000000E+00 0.  1.
          2    1    1    2  501    0  0.29645061123E+03  0.50901018278E+02 -0.81223522163E+03  0.86614082793E+03  0.00000000000E+00 0.  1.
<mgrwt>
<rscale>  4 0.31166260E+03</rscale>
<asrwt>0</asrwt>
<pdfrwt beam="1">  1       21 0.11775765E-01 0.31166260E+03</pdfrwt>
<pdfrwt beam="2">  1        2 0.26606906E+00 0.31166260E+03</pdfrwt>
<totfact> 0.77548463E+03</totfact>
</mgrwt>
</event>
<event>
 5    0  0.1141006E+000  0.3226272E+03  0.7546771E-02  0.1074446E+00
          1   -1    0    0  503    0 -0.00000000000E+00  0.00000000000E+00  0.50991778413E+03  0.50991778413E+03  0.00000000000E+00 0.  1.
         21   -1    0    0  501  502  0.00000000000E+00 -0.00000000000E+00 -0.22365093653E+03  0.22365093653E+03  0.00000000000E+00 0.  1.
         25    1    1    2    0    0 -0.10716329066E+03  0.27181368836E+03  0.71247019282E+02  0.32568050264E+03  0.12500000000E+03 0.  0.
         21    1    1    2  503  502 -0.22861188950E+02  0.32798585350E+01  0.64317753295E+02  0.68338604179E+02  0.00000000000E+00 0.  1.
          1    1    1    2  501    0  0.13002447961E+03 -0.27509354689E+03  0.15070207502E+03  0.33954961384E+03  0.00000000000E+00 0.  1.
<mgrwt>
<rscale>  4 0.32262722E+03</rscale>
<asrwt>0</asrwt>
<pdfrwt beam="1">  1       21 0.34407837E-01 0.32262722E+03</pdfrwt>
<pdfrwt beam="2">  1        1 0.78448889E-01 0.32262722E+03</pdfrwt>
<totfact> 0.38160898E+03</totfact>
</mgrwt>
</event>
<event>
 5    0  0.1141006E+000  0.2667014E+03  0.7546771E-02  0.1103182E+00
         21   -1    0    0  501  502  0.00000000000E+00  0.00000000000E+00  0.31185974763E+03  0.31185974763E+03  0.00000000000E+00 0.  1.
          1   -1    0    0  503    0 -0.00000000000E+00 -0.00000000000E+00 -0.21020083019E+04  0.21020083019E+04  0.00000000000E+00 0. -1.
         25    1    1    2    0    0 -0.19131476878E+03  0.23079655904E+03  0.19337393927E+03  0.37800379999E+03  0.12500000000E+03 0.  0.
         21    1    1    2  503  502  0.15882086971E+02 -0.75812377811E+02 -0.59549668436E+02  0.97703225775E+02  0.00000000000E+00 0.  1.
          1    1    1    2  501    0  0.17543268181E+03 -0.15498418123E+03 -0.19239728251E+04  0.19381610237E+04  0.00000000000E+00 0. -1.
<mgrwt>
<rscale>  4 0.26670143E+03</rscale>
<asrwt>0</asrwt>
<pdfrwt beam="1">  1       21 0.47978422E-01 0.26670143E+03</pdfrwt>
<pdfrwt beam="2">  1        1 0.32338590E+00 0.26670143E+03</pdfrwt>
<totfact> 0.13008342E+02</totfact>
</mgrwt>
</event>
<event>
 5    0  0.1141006E+000  0.3025486E+03  0.7546771E-02  0.1083973E+00
         -3   -1    0    0    0  501 -0.00000000000E+00  0.00000000000E+00  0.50889714660E+03  0.50889714660E+03  0.00000000000E+00 0.  1.
         21   -1    0    0  503  502  0.00000000000E+00 -0.00000000000E+00 -0.81564835321E+03  0.81564835321E+03  0.00000000000E+00 0. -1.
         25    1    1    2    0    0 -0.67871522673E+02 -0.26792954139E+03 -0.73999122167E+03  0.79975295616E+03  0.12500000000E+03 0.  0.
         21    1    1    2  503  501  0.30969269260E+02  0.59647454469E+01  0.49738824273E+02  0.58895029220E+02  0.00000000000E+00 0.  1.
         -3    1    1    2    0  502  0.36902253413E+02  0.26196479594E+03  0.38350119079E+03  0.46589751443E+03  0.00000000000E+00 0.  1.
<mgrwt>
<rscale>  4 0.30254859E+03</rscale>
<asrwt>0</asrwt>
<pdfrwt beam="1">  1       21 0.12548436E+00 0.30254859E+03</pdfrwt>
<pdfrwt beam="2">  1       -3 0.78291869E-01 0.30254859E+03</pdfrwt>
<totfact> 0.34726368E+01</totfact>
</mgrwt>
</event>
<event>
 5    0  0.1141006E+000  0.2460605E+03  0.7546771E-02  0.1115820E+00
         21   -1    0    0  501  502  0.00000000000E+00  0.00000000000E+00  0.16952167549E+03  0.16952167549E+03  0.00000000000E+00 0.  1.
          2   -1    0    0  503    0 -0.00000000000E+00 -0.00000000000E+00 -0.43456352145E+03  0.43456352145E+03  0.00000000000E+00 0.  1.
         25    1    1    2    0    0  0.71395284514E+02  0.18784811355E+03 -0.18192872699E+02  0.23736086668E+03  0.12500000000E+03 0.  0.
         21    1    1    2  503  502  0.14468883571E+02  0.28486875218E+02 -0.61058827321E+02  0.68913213865E+02  0.00000000000E+00 0.  1.
          2    1    1    2  501    0 -0.85864168085E+02 -0.21633498876E+03 -0.18579014594E+03  0.29781111640E+03  0.00000000000E+00 0.  1.
<mgrwt>
<rscale>  4 0.24606047E+03</rscale>
<asrwt>0</asrwt>
<pdfrwt beam="1">  1       21 0.26080258E-01 0.24606047E+03</pdfrwt>
<pdfrwt beam="2">  1        2 0.66855926E-01 0.24606047E+03</pdfrwt>
<totfact> 0.12574394E+04</totfact>
</mgrwt>
</event>
<event>
 5    0  0.1141006E+000  0.2531039E+03  0.7546771E-02  0.1111359E+00
         21   -1    0    0  501  502  0.00000000000E+00  0.00000000000E+00  0.63617811467E+02  0.63617811467E+02  0.00000000000E+00 0. -1.
          2   -1    0    0  503    0 -0.00000000000E+00 -0.00000000000E+00 -0.33910047561E+04  0.33910047561E+04  0.00000000000E+00 0.  1.
         25    1    1    2    0    0 -0.14670263762E+03 -0.16399619757E+03 -0.22856564248E+03  0.34100391438E+03  0.12500000000E+03 0.  0.
         21    1    1    2  503  502  0.40979896723E+02 -0.36498671880E+02 -0.25812620501E+03  0.26389513579E+03  0.00000000000E+00 0.  1.
          2    1    1    2  501    0  0.10572274090E+03  0.20049486945E+03 -0.28406950971E+04  0.28497235174E+04  0.00000000000E+00 0.  1.
<mgrwt>
<rscale>  4 0.25310389E+03</rscale>
<asrwt>0</asrwt>
<pdfrwt beam="1">  1       21 0.97873576E-02 0.25310389E+03</pdfrwt>
<pdfrwt beam="2">  1        2 0.52169293E+00 0.25310389E+03</pdfrwt>
<totfact> 0.12808550E+03</totfact>
</mgrwt>
</event>
<event>
 5    0  0.1141006E+000  0.2857972E+03  0.7546771E-02  0.1092564E+00
         -1   -1    0    0    0  501 -0.00000000000E+00  0.00000000000E+00  0.13028508889E+04  0.13028508889E+04  0.00000000000E+00 0. -1.
         21   -1    0    0  503  502  0.00000000000E+00 -0.00000000000E+00 -0.20457004274E+03  0.20457004274E+03  0.00000000000E+00 0.  1.
         25    1    1    2    0    0  0.20728341763E+03  0.14649147887E+03 -0.66985134274E+02  0.29075449579E+03  0.12500000000E+03 0.  0.
         21    1    1    2  503  501  0.12923714547E+02  0.42329306686E+02  0.63827437256E+02  0.77670678823E+02  0.00000000000E+00 0. -1.
         -1    1    1    2    0  502 -0.22020713218E+03 -0.18882078556E+03  0.11014385431E+04  0.11389957570E+04  0.00000000000E+00 0. -1.
<mgrwt>
<rscale>  4 0.28579718E+03</rscale>
<asrwt>0</asrwt>
<pdfrwt beam="1">  1       21 0.31472315E-01 0.28579718E+03</pdfrwt>
<pdfrwt beam="2">  1       -1 0.20043859E+00 0.28579718E+03</pdfrwt>
<totfact> 0.14610305E+02</totfact>
</mgrwt>
</event>
<event>
 5    0  0.1141006E+000  0.2467395E+03  0.7546771E-02  0.1115383E+00
          2   -1    0    0  503    0 -0.00000000000E+00  0.00000000000E+00  0.31176954678E+03  0.31176954678E+03  0.00000000000E+00 0. -1.
         21   -1    0    0  501  502  0.00000000000E+00 -0.00000000000E+00 -0.41234580137E+03  0.41234580137E+03  0.00000000000E+00 0. -1.
         25    1    1    2    0    0 -0.16091270205E+03  0.12782299151E+03 -0.27774224803E+03  0.36741988403E+03  0.12500000000E+03 0.  0.
         21    1    1    2  503  502 -0.46360040025E+02 -0.20455331049E+01  0.85906589642E+02  0.97639027345E+02  0.00000000000E+00 0. -1.
          2    1    1    2  501    0  0.20727274208E+03 -0.12577745841E+03  0.91259403793E+02  0.25905643677E+03  0.00000000000E+00 0. -1.
<mgrwt>
<rscale>  4 0.24673951E+03</rscale>
<asrwt>0</asrwt>
<pdfrwt beam="1">  1       21 0.63437816E-01 0.24673951E+03</pdfrwt>
<pdfrwt beam="2">  1        2 0.47964546E-01 0.24673951E+03</pdfrwt>
<totfact> 0.29344477E+03</totfact>
</mgrwt>
</event>
<event>
 5    0  0.1141006E+000  0.2822526E+03  0.7546771E-02  0.1094465E+00
          2   -1    0    0  503    0 -0.00000000000E+00  0.00000000000E+00  0.81818296683E+03  0.81818296683E+03  0.00000000000E+00 0. -1.
         21   -1    0    0  501  502  0.00000000000E+00 -0.00000000000E+00 -0.38069536000E+03  0.38069536000E+03  0.00000000000E+00 0.  1.
         25    1    1    2    0    0 -0.96582008329E+01  0.25046808574E+03 -0.28427180278E+03  0.39907768751E+03  0.12500000000E+03 0.  0.
         21    1    1    2  503  502  0.52531365645E+02  0.30248816975E+02  0.12828150756E+03  0.14188262926E+03  0.00000000000E+00 0. -1.
          2    1    1    2  501    0 -0.42873164812E+02 -0.28071690271E+03  0.59347790205E+03  0.65791801005E+03  0.00000000000E+00 0. -1.
<mgrwt>
<rscale>  4 0.28225263E+03</rscale>
<asrwt>0</asrwt>
<pdfrwt beam="1">  1       21 0.58568517E-01 0.28225263E+03</pdfrwt>
<pdfrwt beam="2">  1        2 0.12587430E+00 0.28225263E+03</pdfrwt>
<totfact> 0.11411437E+03</totfact>
</mgrwt>
</event>
<event>
 5    0  0.1141006E+000  0.2670326E+03  0.7546771E-02  0.1102990E+00
         21   -1    0    0  501  502  0.00000000000E+00  0.00000000000E+00  0.29783726232E+03  0.29783726232E+03  0.00000000000E+00 0.  1.
          2   -1    0    0  503    0 -0.00000000000E+00 -0.00000000000E+00 -0.18626881340E+04  0.18626881340E+04  0.00000000000E+00 0. -1.
         25    1    1    2    0    0  0.19927059748E+03 -0.13744439753E+03  0.21209505902E+03  0.34526663247E+03  0.12500000000E+03 0.  0.
         21    1    1    2  503  502 -0.11716812269E+03  0.15687575575E+03 -0.52256305808E+03  0.55804168427E+03  0.00000000000E+00 0.  1.
          2    1    1    2  501    0 -0.82102474791E+02 -0.19431358225E+02 -0.12543828727E+04  0.12572170796E+04  0.00000000000E+00 0. -1.
<mgrwt>
<rscale>  4 0.26703259E+03</rscale>
<asrwt>0</asrwt>
<pdfrwt beam="1">  1       21 0.45821118E-01 0.26703259E+03</pdfrwt>
<pdfrwt beam="2">  1        2 0.28656740E+00 0.26703259E+03</pdfrwt>
<totfact> 0.49315197E+02</totfact>
</mgrwt>
</event>
<event>
 5    0  0.1141006E+000  0.5078327E+03  0.7546771E-02  0.1011754E+00
          2   -1    0    0  503    0 -0.00000000000E+00  0.00000000000E+00  0.34137573406E+03  0.34137573406E+03  0.00000000000E+00 0. -1.
         21   -1    0    0  501  502  0.00000000000E+00 -0.00000000000E+00 -0.81994354440E+03  0.81994354440E+03  0.00000000000E+00 0. -1.
         25    1    1    2    0    0  0.47975780983E+03 -0.92776532134E+01 -0.38138172248E+03  0.62556426463E+03  0.12500000000E+03 0.  0.
         21    1    1    2  503  502  0.19673408468E+02  0.13350475037E+02 -0.18547116549E+02  0.30154165827E+02  0.00000000000E+00 0. -1.
          2    1    1    2  501    0 -0.49943121830E+03 -0.40728218234E+01 -0.78638971310E+02  0.50560084800E+03  0.00000000000E+00 0. -1.
<mgrwt>
<rscale>  4 0.50783274E+03</rscale>
<asrwt>0</asrwt>
<pdfrwt beam="1">  1       21 0.12614516E+00 0.50783274E+03</pdfrwt>
<pdfrwt beam="2">  1        2 0.52519344E-01 0.50783274E+03</pdfrwt>
<totfact> 0.48854726E+02</totfact>
</mgrwt>
</event>
<event>
 5    0  0.1141006E+000  0.3163821E+03  0.7546771E-02  0.1077327E+00
         21   -1    0    0  501  502  0.00000000000E+00  0.00000000000E+00  0.91729237771E+03  0.91729237771E+03  0.00000000000E+00 0.  1.
          2   -1    0    0  503    0 -0.00000000000E+00 -0.00000000000E+00 -0.12423802241E+04  0.12423802241E+04  0.00000000000E+00 0.  1.
         25    1    1    2    0    0 -0.28597547809E+03 -0.53897187135E+02  0.86802366033E+03  0.92400051718E+03  0.12500000000E+03 0.  0.
         21    1    1    2  503  502  0.84612241341E+01  0.37333823900E+02 -0.85061963084E+02  0.93278852290E+02  0.00000000000E+00 0.  1.
          2    1    1    2  501    0  0.27751425395E+03  0.16563363234E+02 -0.11080495436E+04  0.11423932323E+04  0.00000000000E+00 0.  1.
<mgrwt>
<rscale>  4 0.31638208E+03</rscale>
<asrwt>0</asrwt>
<pdfrwt beam="1">  1       21 0.14112190E+00 0.31638208E+03</pdfrwt>
<pdfrwt beam="2">  1        2 0.19113542E+00 0.31638208E+03</pdfrwt>
<totfact> 0.77014381E+01</totfact>
</mgrwt>
</event>
<event>
 5    0  0.1141006E+000  0.2635845E+03  0.7546771E-02  0.1105009E+00
         21   -1    0    0  503  502  0.00000000000E+00  0.00000000000E+00  0.88295935922E+03  0.88295935922E+03  0.00000000000E+00 0. -1.
         -4   -1    0    0    0  501 -0.00000000000E+00 -0.00000000000E+00 -0.10273688368E+03  0.10273688368E+03  0.00000000000E+00 0. -1.
         25    1    1    2    0    0 -0.18926873449E+03 -0.11050185976E+03  0.27471449010E+03  0.37299646907E+03  0.12500000000E+03 0.  0.
         21    1    1    2  503  501 -0.32599351475E+02  0.19677335487E+02 -0.13978742651E+02  0.40562550395E+02  0.00000000000E+00 0. -1.
         -4    1    1    2    0  502  0.22186808597E+03  0.90824524275E+02  0.51948672810E+03  0.57213722344E+03  0.00000000000E+00 0. -1.
<mgrwt>
<rscale>  4 0.26358446E+03</rscale>
<asrwt>0</asrwt>
<pdfrwt beam="1">  1       21 0.13583990E+00 0.26358446E+03</pdfrwt>
<pdfrwt beam="2">  1       -4 0.15805675E-01 0.26358446E+03</pdfrwt>
<totfact> 0.55265482E+02</totfact>
</mgrwt>
</event>
<event>
 5    0  0.1141006E+000  0.2380590E+03  0.7546771E-02  0.1121093E+00
         -3   -1    0    0    0  501 -0.00000000000E+00  0.00000000000E+00  0.24344647014E+02  0.24344647014E+02  0.00000000000E+00 0.  1.
         21   -1    0    0  503  502  0.00000000000E+00 -0.00000000000E+00 -0.28926874145E+04  0.28926874145E+04  0.00000000000E+00 0. -1.
         25    1    1    2    0    0  0.57058308151E+02 -0.19603998530E+03 -0.20088222976E+04  0.20230371598E+04  0.12500000000E+03 0.  0.
         21    1    1    2  503  501  0.23077072147E+02  0.11732391153E+02 -0.26395021536E+02  0.36971575879E+02  0.00000000000E+00 0.  1.
         -3    1    1    2    0  502 -0.80135380298E+02  0.18430759415E+03 -0.83312544832E+03  0.85702332586E+03  0.00000000000E+00 0.  1.
<mgrwt>
<rscale>  4 0.23805901E+03</rscale>
<asrwt>0</asrwt>
<pdfrwt beam="1">  1       21 0.44502866E+00 0.23805901E+03</pdfrwt>
<pdfrwt beam="2">  1       -3 0.37453318E-02 0.23805901E+03</pdfrwt>
<totfact> 0.75980126E+01</totfact>
</mgrwt>
</event>
<event>
 5    0  0.1141006E+000  0.3257299E+03  0.7546771E-02  0.1073042E+00
          2   -1    0    0  503    0 -0.00000000000E+00  0.00000000000E+00  0.11769325468E+04  0.11769325468E+04  0.00000000000E+00 0. -1.
         21   -1    0    0  501  502  0.00000000000E+00 -0.00000000000E+00 -0.49809667190E+03  0.49809667190E+03  0.00000000000E+00 0. -1.
         25    1    1    2    0    0 -0.29657784148E+03 -0.29957349092E+02 -0.38002498197E+03  0.49889863273E+03  0.12500000000E+03 0.  0.
         21    1    1    2  503  502 -0.34189583703E+02  0.92203241451E+02  0.59474417302E+03  0.60281920732E+03  0.00000000000E+00 0. -1.
          2    1    1    2  501    0  0.33076742518E+03 -0.62245892359E+02  0.46411668389E+03  0.57331137869E+03  0.00000000000E+00 0. -1.
<mgrwt>
<rscale>  4 0.32572994E+03</rscale>
<asrwt>0</asrwt>
<pdfrwt beam="1">  1       21 0.76630257E-01 0.32572994E+03</pdfrwt>
<pdfrwt beam="2">  1        2 0.18106655E+00 0.32572994E+03</pdfrwt>
<totfact> 0.36945805E+02</totfact>
</mgrwt>
</event>
<event>
 5    0  0.1141006E+000  0.3768655E+03  0.7546771E-02  0.1052098E+00
          1   -1    0    0  503    0 -0.00000000000E+00  0.00000000000E+00  0.17683567181E+03  0.17683567181E+03  0.00000000000E+00 0.  1.
         21   -1    0    0  501  502  0.00000000000E+00 -0.00000000000E+00 -0.15298841669E+04  0.15298841669E+04  0.00000000000E+00 0.  1.
         25    1    1    2    0    0  0.24748232594E+03  0.25525502738E+03 -0.12872655403E+04  0.13412979542E+04  0.12500000000E+03 0.  0.
         21    1    1    2  503  502 -0.14138178006E+02 -0.35558801598E+02 -0.96453896923E-01  0.38266509532E+02  0.00000000000E+00 0. -1.
          1    1    1    2  501    0 -0.23334414794E+03 -0.21969622578E+03 -0.65686500915E+02  0.32715537502E+03  0.00000000000E+00 0.  1.
<mgrwt>
<rscale>  4 0.37686553E+03</rscale>
<asrwt>0</asrwt>
<pdfrwt beam="1">  1       21 0.23536680E+00 0.37686553E+03</pdfrwt>
<pdfrwt beam="2">  1        1 0.27205488E-01 0.37686553E+03</pdfrwt>
<totfact> 0.13344924E+02</totfact>
</mgrwt>
</event>
<event>
 5    0  0.1141006E+000  0.2793504E+03  0.7546771E-02  0.1096044E+00
          1   -1    0    0  503    0 -0.00000000000E+00  0.00000000000E+00  0.11647586850E+04  0.11647586850E+04  0.00000000000E+00 0.  1.
         21   -1    0    0  501  502  0.00000000000E+00 -0.00000000000E+00 -0.15618430299E+03  0.15618430299E+03  0.00000000000E+00 0. -1.
         25    1    1    2    0    0  0.23245467768E+03  0.71856469272E+01  0.60132422400E+02  0.27079091366E+03  0.12500000000E+03 0.  0.
         21    1    1    2  503  502  0.64707904929E+02 -0.12999518139E+02  0.54535468903E+03  0.54933399429E+03  0.00000000000E+00 0. -1.
          1    1    1    2  501    0 -0.29716258261E+03  0.58138712116E+01  0.40308727063E+03  0.50081808009E+03  0.00000000000E+00 0.  1.
<mgrwt>
<rscale>  4 0.27935043E+03</rscale>
<asrwt>0</asrwt>
<pdfrwt beam="1">  1       21 0.24028355E-01 0.27935043E+03</pdfrwt>
<pdfrwt beam="2">  1        1 0.17919364E+00 0.27935043E+03</pdfrwt>
<totfact> 0.21546580E+03</totfact>
</mgrwt>
</event>
<event>
 5    0  0.1141006E+000  0.2739539E+03  0.7546771E-02  0.1099038E+00
         21   -1    0    0  503  502  0.00000000000E+00  0.00000000000E+00  0.69320700043E+03  0.69320700043E+03  0.00000000000E+00 0. -1.
         -1   -1    0    0    0  501 -0.00000000000E+00 -0.00000000000E+00 -0.23154459580E+03  0.23154459580E+03  0.00000000000E+00 0.  1.
         25    1    1    2    0    0 -0.24488449130E+03  0.24959731662E+02  0.57007633158E+03  0.63340620940E+03  0.12500000000E+03 0.  0.
         21    1    1    2  503  501  0.19355397363E+02  0.25654379703E+02  0.71561948377E+01  0.32923999295E+02  0.00000000000E+00 0. -1.
         -1    1    1    2    0  502  0.22552909393E+03 -0.50614111365E+02 -0.11557012179E+03  0.25842138752E+03  0.00000000000E+00 0.  1.
<mgrwt>
<rscale>  4 0.27395389E+03</rscale>
<asrwt>0</asrwt>
<pdfrwt beam="1">  1       21 0.10664723E+00 0.27395389E+03</pdfrwt>
<pdfrwt beam="2">  1       -1 0.35622246E-01 0.27395389E+03</pdfrwt>
<totfact> 0.47185749E+02</totfact>
</mgrwt>
</event>
<event>
 5    0  0.1141006E+000  0.2889770E+03  0.7546771E-02  0.1090884E+00
         21   -1    0    0  501  502  0.00000000000E+00  0.00000000000E+00  0.52039750849E+03  0.52039750849E+03  0.00000000000E+00 0. -1.
          2   -1    0    0  503    0 -0.00000000000E+00 -0.00000000000E+00 -0.53956857421E+03  0.53956857421E+03  0.00000000000E+00 0. -1.
         25    1    1    2    0    0 -0.20238456107E+03 -0.16595933766E+03  0.36685449259E+03  0.46766358747E+03  0.12500000000E+03 0.  0.
         21    1    1    2  503  502  0.10594406566E+03 -0.10662729823E+03 -0.19309172786E+03  0.24469969584E+03  0.00000000000E+00 0. -1.
          2    1    1    2  501    0  0.96440495412E+02  0.27258663589E+03 -0.19293383044E+03  0.34760279939E+03  0.00000000000E+00 0. -1.
<mgrwt>
<rscale>  4 0.28897701E+03</rscale>
<asrwt>0</asrwt>
<pdfrwt beam="1">  1       21 0.80061155E-01 0.28897701E+03</pdfrwt>
<pdfrwt beam="2">  1        2 0.83010550E-01 0.28897701E+03</pdfrwt>
<totfact> 0.94024031E+02</totfact>
</mgrwt>
</event>
<event>
 5    0  0.1141006E+000  0.2721689E+03  0.7546771E-02  0.1100045E+00
         21   -1    0    0  501  502  0.00000000000E+00  0.00000000000E+00  0.17350174767E+03  0.17350174767E+03  0.00000000000E+00 0. -1.
          2   -1    0    0  503    0 -0.00000000000E+00 -0.00000000000E+00 -0.43200388147E+03  0.43200388147E+03  0.00000000000E+00 0. -1.
         25    1    1    2    0    0 -0.56274966686E+02 -0.23512555098E+03 -0.60113338840E+02  0.27872838052E+03  0.12500000000E+03 0.  0.
         21    1    1    2  503  502 -0.34465263828E+01  0.51803187239E+02 -0.94355275238E+02  0.10769571355E+03  0.00000000000E+00 0.  1.
          2    1    1    2  501    0  0.59721493069E+02  0.18332236374E+03 -0.10403351972E+03  0.21908153507E+03  0.00000000000E+00 0. -1.
<mgrwt>
<rscale>  4 0.27216888E+03</rscale>
<asrwt>0</asrwt>
<pdfrwt beam="1">  1       21 0.26692577E-01 0.27216888E+03</pdfrwt>
<pdfrwt beam="2">  1        2 0.66462135E-01 0.27216888E+03</pdfrwt>
<totfact> 0.12046760E+04</totfact>
</mgrwt>
</event>
<event>
 5    0  0.1141006E+000  0.2713725E+03  0.7546771E-02  0.1100497E+00
          2   -1    0    0  503    0 -0.00000000000E+00  0.00000000000E+00  0.19353167185E+04  0.19353167185E+04  0.00000000000E+00 0.  1.
         21   -1    0    0  501  502  0.00000000000E+00 -0.00000000000E+00 -0.40010997897E+02  0.40010997897E+02  0.00000000000E+00 0.  1.
         25    1    1    2    0    0  0.18123789641E+03  0.16409869745E+03  0.72582239348E+03  0.77602751528E+03  0.12500000000E+03 0.  0.
         21    1    1    2  503  502 -0.24812557353E+02  0.13671614796E+02  0.15295574978E+03  0.15555718384E+03  0.00000000000E+00 0. -1.
          2    1    1    2  501    0 -0.15642533905E+03 -0.17777031224E+03  0.10165275774E+04  0.10437430173E+04  0.00000000000E+00 0.  1.
<mgrwt>
<rscale>  4 0.27137246E+03</rscale>
<asrwt>0</asrwt>
<pdfrwt beam="1">  1       21 0.61555397E-02 0.27137246E+03</pdfrwt>
<pdfrwt beam="2">  1        2 0.29774096E+00 0.27137246E+03</pdfrwt>
<totfact> 0.19183920E+04</totfact>
</mgrwt>
</event>
<event>
 5    0  0.1141006E+000  0.2689630E+03  0.7546771E-02  0.1101875E+00
          3   -1    0    0  503    0 -0.00000000000E+00  0.00000000000E+00  0.92084741443E+02  0.92084741443E+02  0.00000000000E+00 0.  1.
         21   -1    0    0  501  502  0.00000000000E+00 -0.00000000000E+00 -0.15371096886E+04  0.15371096886E+04  0.00000000000E+00 0.  1.
         25    1    1    2    0    0 -0.45331528544E+01 -0.23483540387E+03 -0.12472744457E+04  0.12753379000E+04  0.12500000000E+03 0.  0.
         21    1    1    2  503  502 -0.18690028463E+02 -0.20220091765E+02 -0.52860402880E+02  0.59601941810E+02  0.00000000000E+00 0. -1.
          3    1    1    2  501    0  0.23223181317E+02  0.25505549564E+03 -0.14489009858E+03  0.29425458819E+03  0.00000000000E+00 0.  1.
<mgrwt>
<rscale>  4 0.26896296E+03</rscale>
<asrwt>0</asrwt>
<pdfrwt beam="1">  1       21 0.23647842E+00 0.26896296E+03</pdfrwt>
<pdfrwt beam="2">  1        3 0.14166883E-01 0.26896296E+03</pdfrwt>
<totfact> 0.15490250E+02</totfact>
</mgrwt>
</event>
<event>
 5    0  0.1141006E+000  0.2545562E+03  0.7546771E-02  0.1110459E+00
          2   -1    0    0  503    0 -0.00000000000E+00  0.00000000000E+00  0.37976035272E+03  0.37976035272E+03  0.00000000000E+00 0.  1.
         21   -1    0    0  501  502  0.00000000000E+00 -0.00000000000E+00 -0.20292285567E+04  0.20292285567E+04  0.00000000000E+00 0.  1.
         25    1    1    2    0    0  0.19549493418E+03  0.10721819304E+03 -0.19658796946E+04  0.19824283048E+04  0.12500000000E+03 0.  0.
         21    1    1    2  503  502 -0.46240932517E+02 -0.25445510756E+02 -0.14252808785E+02  0.54670288237E+02  0.00000000000E+00 0. -1.
          2    1    1    2  501    0 -0.14925400166E+03 -0.81772682286E+02  0.33066429934E+03  0.37189031641E+03  0.00000000000E+00 0.  1.
<mgrwt>
<rscale>  4 0.25455618E+03</rscale>
<asrwt>0</asrwt>
<pdfrwt beam="1">  1       21 0.31218901E+00 0.25455618E+03</pdfrwt>
<pdfrwt beam="2">  1        2 0.58424670E-01 0.25455618E+03</pdfrwt>
<totfact> 0.28418536E+01</totfact>
</mgrwt>
</event>
<event>
 5    0  0.1141006E+000  0.2880448E+03  0.7546771E-02  0.1091374E+00
         21   -1    0    0  501  502  0.00000000000E+00  0.00000000000E+00  0.29784155293E+03  0.29784155293E+03  0.00000000000E+00 0.  1.
          2   -1    0    0  503    0 -0.00000000000E+00 -0.00000000000E+00 -0.55175637067E+03  0.55175637067E+03  0.00000000000E+00 0.  1.
         25    1    1    2    0    0 -0.18759926563E+03  0.17832769908E+03  0.15169583419E+03  0.32500904423E+03  0.12500000000E+03 0.  0.
         21    1    1    2  503  502 -0.15808832772E+02 -0.12595634946E+02 -0.17230217730E+03  0.17348374424E+03  0.00000000000E+00 0.  1.
          2    1    1    2  501    0  0.20340809840E+03 -0.16573206413E+03 -0.23330847463E+03  0.35110513513E+03  0.00000000000E+00 0.  1.
<mgrwt>
<rscale>  4 0.28804479E+03</rscale>
<asrwt>0</asrwt>
<pdfrwt beam="1">  1       21 0.45821777E-01 0.28804479E+03</pdfrwt>
<pdfrwt beam="2">  1        2 0.84885596E-01 0.28804479E+03</pdfrwt>
<totfact> 0.30863370E+03</totfact>
</mgrwt>
</event>
<event>
 5    0  0.1141006E+000  0.4655866E+03  0.7546771E-02  0.1023173E+00
          2   -1    0    0  503    0 -0.00000000000E+00  0.00000000000E+00  0.79732892142E+03  0.79732892142E+03  0.00000000000E+00 0. -1.
         21   -1    0    0  501  502  0.00000000000E+00 -0.00000000000E+00 -0.30519649920E+03  0.30519649920E+03  0.00000000000E+00 0. -1.
         25    1    1    2    0    0 -0.36624772131E+03  0.22465554523E+03  0.28657809095E+03  0.53137511193E+03  0.12500000000E+03 0.  0.
         21    1    1    2  503  502 -0.14702454591E+02  0.37760698105E+02  0.83376461271E+02  0.92702032267E+02  0.00000000000E+00 0.  1.
          2    1    1    2  501    0  0.38095017590E+03 -0.26241624334E+03  0.12217787000E+03  0.47844827642E+03  0.00000000000E+00 0. -1.
<mgrwt>
<rscale>  4 0.46558661E+03</rscale>
<asrwt>0</asrwt>
<pdfrwt beam="1">  1       21 0.46953308E-01 0.46558661E+03</pdfrwt>
<pdfrwt beam="2">  1        2 0.12266599E+00 0.46558661E+03</pdfrwt>
<totfact> 0.17964941E+03</totfact>
</mgrwt>
</event>
<event>
 5    0  0.1141006E+000  0.2571852E+03  0.7546771E-02  0.1108846E+00
         21   -1    0    0  501  502  0.00000000000E+00  0.00000000000E+00  0.42077045929E+02  0.42077045929E+02  0.00000000000E+00 0.  1.
          1   -1    0    0  503    0 -0.00000000000E+00 -0.00000000000E+00 -0.17258527466E+04  0.17258527466E+04  0.00000000000E+00 0.  1.
         25    1    1    2    0    0  0.21263542820E+03 -0.89072204202E+02 -0.55835640145E+03  0.61687482841E+03  0.12500000000E+03 0.  0.
         21    1    1    2  503  502 -0.75338029947E+01  0.22284585885E+02 -0.16794788252E+03  0.16958729964E+03  0.00000000000E+00 0.  1.
          1    1    1    2  501    0 -0.20510162520E+03  0.66787618316E+02 -0.95747141666E+03  0.98146766444E+03  0.00000000000E+00 0.  1.
<mgrwt>
<rscale>  4 0.25718522E+03</rscale>
<asrwt>0</asrwt>
<pdfrwt beam="1">  1       21 0.64733929E-02 0.25718522E+03</pdfrwt>
<pdfrwt beam="2">  1        1 0.26551576E+00 0.25718522E+03</pdfrwt>
<totfact> 0.98230182E+03</totfact>
</mgrwt>
</event>
<event>
 5    0  0.1141006E+000  0.3766435E+03  0.7546771E-02  0.1052181E+00
          1   -1    0    0  503    0 -0.00000000000E+00  0.00000000000E+00  0.10906810165E+04  0.10906810165E+04  0.00000000000E+00 0.  1.
         21   -1    0    0  501  502  0.00000000000E+00 -0.00000000000E+00 -0.27410411050E+03  0.27410411050E+03  0.00000000000E+00 0. -1.
         25    1    1    2    0    0  0.35864033766E+03  0.21742104353E+02 -0.27740261109E+02  0.38143168849E+03  0.12500000000E+03 0.  0.
         21    1    1    2  503  502 -0.12280978504E+02 -0.34303840916E+02  0.47679442220E+03  0.47818458463E+03  0.00000000000E+00 0. -1.
          1    1    1    2  501    0 -0.34635935915E+03  0.12561736563E+02  0.36752274490E+03  0.50516885387E+03  0.00000000000E+00 0.  1.
<mgrwt>
<rscale>  4 0.37664350E+03</rscale>
<asrwt>0</asrwt>
<pdfrwt beam="1">  1       21 0.42169864E-01 0.37664350E+03</pdfrwt>
<pdfrwt beam="2">  1        1 0.16779708E+00 0.37664350E+03</pdfrwt>
<totfact> 0.77090711E+02</totfact>
</mgrwt>
</event>
<event>
 5    0  0.1141006E+000  0.2407886E+03  0.7546771E-02  0.1119269E+00
         -3   -1    0    0    0  501 -0.00000000000E+00  0.00000000000E+00  0.10632741661E+03  0.10632741661E+03  0.00000000000E+00 0. -1.
         21   -1    0    0  503  502  0.00000000000E+00 -0.00000000000E+00 -0.14027463197E+04  0.14027463197E+04  0.00000000000E+00 0. -1.
         25    1    1    2    0    0 -0.20968486136E+03 -0.32208893909E+02 -0.11031697907E+04  0.11303157705E+04  0.12500000000E+03 0.  0.
         21    1    1    2  503  501  0.16102001486E+02  0.66926221947E+02  0.35199908099E+02  0.77313822608E+02  0.00000000000E+00 0. -1.
         -3    1    1    2    0  502  0.19358285988E+03 -0.34717328038E+02 -0.22844902046E+03  0.30144414318E+03  0.00000000000E+00 0. -1.
<mgrwt>
<rscale>  4 0.24078863E+03</rscale>
<asrwt>0</asrwt>
<pdfrwt beam="1">  1       21 0.21580711E+00 0.24078863E+03</pdfrwt>
<pdfrwt beam="2">  1       -3 0.16358065E-01 0.24078863E+03</pdfrwt>
<totfact> 0.16395064E+02</totfact>
</mgrwt>
</event>
<event>
 5    0  0.1141006E+000  0.2635286E+03  0.7546771E-02  0.1105042E+00
         21   -1    0    0  501  502  0.00000000000E+00  0.00000000000E+00  0.10424930208E+04  0.10424930208E+04  0.00000000000E+00 0. -1.
          2   -1    0    0  503    0 -0.00000000000E+00 -0.00000000000E+00 -0.53286191945E+03  0.53286191945E+03  0.00000000000E+00 0. -1.
         25    1    1    2    0    0 -0.22629540710E+03 -0.48813944505E+02  0.97435277276E+03  0.10092476100E+04  0.12500000000E+03 0.  0.
         21    1    1    2  503  502 -0.36553451217E+01 -0.24345827460E+02 -0.22369259626E+03  0.22504323692E+03  0.00000000000E+00 0.  1.
          2    1    1    2  501    0  0.22995075222E+03  0.73159771964E+02 -0.24102907517E+03  0.34106409333E+03  0.00000000000E+00 0. -1.
<mgrwt>
<rscale>  4 0.26352864E+03</rscale>
<asrwt>0</asrwt>
<pdfrwt beam="1">  1       21 0.16038354E+00 0.26352864E+03</pdfrwt>
<pdfrwt beam="2">  1        2 0.81978757E-01 0.26352864E+03</pdfrwt>
<totfact> 0.17244319E+02</totfact>
</mgrwt>
</event>
<event>
 5    0  0.1141006E+000  0.4222191E+03  0.7546771E-02  0.1036346E+00
         21   -1    0    0  501  502  0.00000000000E+00  0.00000000000E+00  0.34187593220E+03  0.34187593220E+03  0.00000000000E+00 0.  1.
          2   -1    0    0  503    0 -0.00000000000E+00 -0.00000000000E+00 -0.19494003593E+04  0.19494003593E+04  0.00000000000E+00 0.  1.
         25    1    1    2    0    0  0.16731055471E+03  0.36867281843E+03  0.17510927865E+03  0.45847652965E+03  0.12500000000E+03 0.  0.
         21    1    1    2  503  502  0.17584132662E+02 -0.30690082172E+02 -0.86259249283E+02  0.93229506874E+02  0.00000000000E+00 0. -1.
          2    1    1    2  501    0 -0.18489468737E+03 -0.33798273626E+03 -0.16963744565E+04  0.17395702550E+04  0.00000000000E+00 0.  1.
<mgrwt>
<rscale>  4 0.42221908E+03</rscale>
<asrwt>0</asrwt>
<pdfrwt beam="1">  1       21 0.52596298E-01 0.42221908E+03</pdfrwt>
<pdfrwt beam="2">  1        2 0.29990774E+00 0.42221908E+03</pdfrwt>
<totfact> 0.30906964E+02</totfact>
</mgrwt>
</event>
<event>
 5    0  0.1141006E+000  0.4333857E+03  0.7546771E-02  0.1032796E+00
         21   -1    0    0  501  502  0.00000000000E+00  0.00000000000E+00  0.66137059127E+02  0.66137059127E+02  0.00000000000E+00 0.  1.
          1   -1    0    0  503    0 -0.00000000000E+00 -0.00000000000E+00 -0.29374811007E+04  0.29374811007E+04  0.00000000000E+00 0.  1.
         25    1    1    2    0    0 -0.37195308580E+03  0.19549817124E+03 -0.15002290780E+04  0.15629718230E+04  0.12500000000E+03 0.  0.
         21    1    1    2  503  502 -0.21240684250E+01 -0.25263105002E+02 -0.15247141082E+03  0.15456476719E+03  0.00000000000E+00 0. -1.
          1    1    1    2  501    0  0.37407715423E+03 -0.17023506623E+03 -0.12186435528E+04  0.12860815696E+04  0.00000000000E+00 0.  1.
<mgrwt>
<rscale>  4 0.43338573E+03</rscale>
<asrwt>0</asrwt>
<pdfrwt beam="1">  1       21 0.10174934E-01 0.43338573E+03</pdfrwt>
<pdfrwt beam="2">  1        1 0.45192009E+00 0.43338573E+03</pdfrwt>
<totfact> 0.65071196E+02</totfact>
</mgrwt>
</event>
<event>
 5    0  0.1141006E+000  0.3309180E+03  0.7546771E-02  0.1070731E+00
         21   -1    0    0  501  502  0.00000000000E+00  0.00000000000E+00  0.21960069246E+03  0.21960069246E+03  0.00000000000E+00 0. -1.
          2   -1    0    0  503    0 -0.00000000000E+00 -0.00000000000E+00 -0.13815512528E+04  0.13815512528E+04  0.00000000000E+00 0. -1.
         25    1    1    2    0    0 -0.28138150421E+03  0.15414735477E+03 -0.57126453681E+03  0.66701209053E+03  0.12500000000E+03 0.  0.
         21    1    1    2  503  502  0.32636992034E+02  0.19921011515E+02 -0.62718787016E+03  0.62835232508E+03  0.00000000000E+00 0. -1.
          2    1    1    2  501    0  0.24874451218E+03 -0.17406836629E+03  0.36501846640E+02  0.30578752965E+03  0.00000000000E+00 0. -1.
<mgrwt>
<rscale>  4 0.33091798E+03</rscale>
<asrwt>0</asrwt>
<pdfrwt beam="1">  1       21 0.33784721E-01 0.33091798E+03</pdfrwt>
<pdfrwt beam="2">  1        2 0.21254635E+00 0.33091798E+03</pdfrwt>
<totfact> 0.16111838E+03</totfact>
</mgrwt>
</event>
<event>
 5    0  0.1141006E+000  0.2632825E+03  0.7546771E-02  0.1105187E+00
         -3   -1    0    0    0  501 -0.00000000000E+00  0.00000000000E+00  0.99800425044E+03  0.99800425044E+03  0.00000000000E+00 0.  1.
         21   -1    0    0  503  502  0.00000000000E+00 -0.00000000000E+00 -0.31765773948E+03  0.31765773948E+03  0.00000000000E+00 0.  1.
         25    1    1    2    0    0  0.45921727575E+02  0.27018750336E+03 -0.21019688299E+03  0.36731161383E+03  0.12500000000E+03 0.  0.
         21    1    1    2  503  501 -0.24051751649E+02 -0.41680071281E+02  0.27766164647E+02  0.55557852718E+02  0.00000000000E+00 0.  1.
         -3    1    1    2    0  502 -0.21869975926E+02 -0.22850743208E+03  0.86277722931E+03  0.89279252337E+03  0.00000000000E+00 0.  1.
<mgrwt>
<rscale>  4 0.26328250E+03</rscale>
<asrwt>0</asrwt>
<pdfrwt beam="1">  1       21 0.48870422E-01 0.26328250E+03</pdfrwt>
<pdfrwt beam="2">  1       -3 0.15353911E+00 0.26328250E+03</pdfrwt>
<totfact> 0.62179916E+01</totfact>
</mgrwt>
</event>
<event>
 5    0  0.1141006E+000  0.2728999E+03  0.7546771E-02  0.1099631E+00
         21   -1    0    0  501  502  0.00000000000E+00  0.00000000000E+00  0.66787771160E+02  0.66787771160E+02  0.00000000000E+00 0. -1.
          2   -1    0    0  503    0 -0.00000000000E+00 -0.00000000000E+00 -0.29847401123E+04  0.29847401123E+04  0.00000000000E+00 0.  1.
         25    1    1    2    0    0 -0.17021158640E+03 -0.15873868713E+03 -0.32375406110E+03  0.41786558487E+03  0.12500000000E+03 0.  0.
         21    1    1    2  503  502 -0.23077902500E+02 -0.25077518665E+02 -0.17044660737E+04  0.17048067538E+04  0.00000000000E+00 0.  1.
          2    1    1    2  501    0  0.19328948890E+03  0.18381620580E+03 -0.88973220633E+03  0.92885554475E+03  0.00000000000E+00 0.  1.
<mgrwt>
<rscale>  4 0.27289995E+03</rscale>
<asrwt>0</asrwt>
<pdfrwt beam="1">  1       21 0.10275044E-01 0.27289995E+03</pdfrwt>
<pdfrwt beam="2">  1        2 0.45919070E+00 0.27289995E+03</pdfrwt>
<totfact> 0.20666867E+03</totfact>
</mgrwt>
</event>
<event>
 5    0  0.1141006E+000  0.3112109E+03  0.7546771E-02  0.1079767E+00
          2   -1    0    0  503    0 -0.00000000000E+00  0.00000000000E+00  0.64234954589E+03  0.64234954589E+03  0.00000000000E+00 0. -1.
         21   -1    0    0  501  502  0.00000000000E+00 -0.00000000000E+00 -0.21950595178E+03  0.21950595178E+03  0.00000000000E+00 0. -1.
         25    1    1    2    0    0  0.10781643767E+02  0.27450976958E+03  0.36302653034E+02  0.30399792771E+03  0.12500000000E+03 0.  0.
         21    1    1    2  503  502 -0.65735521097E+02  0.28413184001E+02  0.16102022409E+03  0.17622707035E+03  0.00000000000E+00 0. -1.
          2    1    1    2  501    0  0.54953877331E+02 -0.30292295358E+03  0.22552071698E+03  0.38163049961E+03  0.00000000000E+00 0. -1.
<mgrwt>
<rscale>  4 0.31121094E+03</rscale>
<asrwt>0</asrwt>
<pdfrwt beam="1">  1       21 0.33770147E-01 0.31121094E+03</pdfrwt>
<pdfrwt beam="2">  1        2 0.98823006E-01 0.31121094E+03</pdfrwt>
<totfact> 0.47828104E+03</totfact>
</mgrwt>
</event>
<event>
 5    0  0.1141006E+000  0.3040390E+03  0.7546771E-02  0.1083239E+00
         21   -1    0    0  501  502  0.00000000000E+00  0.00000000000E+00  0.97941028146E+03  0.97941028146E+03  0.00000000000E+00 0.  1.
          1   -1    0    0  503    0 -0.00000000000E+00 -0.00000000000E+00 -0.29414436180E+03  0.29414436180E+03  0.00000000000E+00 0. -1.
         25    1    1    2    0    0 -0.22934375992E+03  0.14946853971E+03  0.83207331957E+03  0.88482224978E+03  0.12500000000E+03 0.  0.
         21    1    1    2  503  502 -0.18569393332E+02  0.23493081834E+02 -0.71043220364E+02  0.77096604481E+02  0.00000000000E+00 0. -1.
          1    1    1    2  501    0  0.24791315325E+03 -0.17296162154E+03 -0.75764179548E+02  0.31163578900E+03  0.00000000000E+00 0. -1.
<mgrwt>
<rscale>  4 0.30403899E+03</rscale>
<asrwt>0</asrwt>
<pdfrwt beam="1">  1       21 0.15067850E+00 0.30403899E+03</pdfrwt>
<pdfrwt beam="2">  1        1 0.45252979E-01 0.30403899E+03</pdfrwt>
<totfact> 0.27179356E+02</totfact>
</mgrwt>
</event>
<event>
 5    0  0.1141006E+000  0.2343595E+03  0.7546771E-02  0.1123608E+00
         21   -1    0    0  501  502  0.00000000000E+00  0.00000000000E+00  0.12035296204E+03  0.12035296204E+03  0.00000000000E+00 0. -1.
          2   -1    0    0  503    0 -0.00000000000E+00 -0.00000000000E+00 -0.81771433804E+03  0.81771433804E+03  0.00000000000E+00 0. -1.
         25    1    1    2    0    0 -0.33561447917E+02 -0.20074324201E+03 -0.37676767376E+02  0.24180314059E+03  0.12500000000E+03 0.  0.
         21    1    1    2  503  502 -0.11012180264E+02  0.31605693183E+02 -0.38940035890E+02  0.51346999434E+02  0.00000000000E+00 0. -1.
          2    1    1    2  501    0  0.44573628182E+02  0.16913754883E+03 -0.62074457274E+03  0.64491716006E+03  0.00000000000E+00 0. -1.
<mgrwt>
<rscale>  4 0.23435950E+03</rscale>
<asrwt>0</asrwt>
<pdfrwt beam="1">  1       21 0.18515841E-01 0.23435950E+03</pdfrwt>
<pdfrwt beam="2">  1        2 0.12580220E+00 0.23435950E+03</pdfrwt>
<totfact> 0.11505464E+04</totfact>
</mgrwt>
</event>
<event>
 5    0  0.1141006E+000  0.3235453E+03  0.7546771E-02  0.1074029E+00
         21   -1    0    0  501  502  0.00000000000E+00  0.00000000000E+00  0.92645650147E+03  0.92645650147E+03  0.00000000000E+00 0. -1.
          2   -1    0    0  503    0 -0.00000000000E+00 -0.00000000000E+00 -0.37710701738E+03  0.37710701738E+03  0.00000000000E+00 0.  1.
         25    1    1    2    0    0  0.29628075762E+03 -0.18297433763E+01  0.79987729522E+03  0.86209878941E+03  0.12500000000E+03 0.  0.
         21    1    1    2  503  502  0.21424988181E+02  0.28299777705E+02 -0.61001497181E+02  0.70576838942E+02  0.00000000000E+00 0. -1.
          2    1    1    2  501    0 -0.31770574580E+03 -0.26470034329E+02 -0.18952631395E+03  0.37088789049E+03  0.00000000000E+00 0.  1.
<mgrwt>
<rscale>  4 0.32354532E+03</rscale>
<asrwt>0</asrwt>
<pdfrwt beam="1">  1       21 0.14253177E+00 0.32354532E+03</pdfrwt>
<pdfrwt beam="2">  1        2 0.58016464E-01 0.32354532E+03</pdfrwt>
<totfact> 0.33720969E+02</totfact>
</mgrwt>
</event>
<event>
 5    0  0.1141006E+000  0.2625945E+03  0.7546771E-02  0.1105594E+00
          2   -1    0    0  503    0 -0.00000000000E+00  0.00000000000E+00  0.18042376975E+04  0.18042376975E+04  0.00000000000E+00 0.  1.
         21   -1    0    0  501  502  0.00000000000E+00 -0.00000000000E+00 -0.47177581589E+02  0.47177581589E+02  0.00000000000E+00 0.  1.
         25    1    1    2    0    0  0.13220166635E+03  0.19614252859E+03  0.49835656990E+03  0.56562659314E+03  0.12500000000E+03 0.  0.
         21    1    1    2  503  502  0.10160759152E+02 -0.26168341807E+02  0.32119224511E+03  0.32241662714E+03  0.00000000000E+00 0. -1.
          2    1    1    2  501    0 -0.14236242551E+03 -0.16997418678E+03  0.93751130093E+03  0.96337205883E+03  0.00000000000E+00 0.  1.
<mgrwt>
<rscale>  4 0.26259448E+03</rscale>
<asrwt>0</asrwt>
<pdfrwt beam="1">  1       21 0.72580909E-02 0.26259448E+03</pdfrwt>
<pdfrwt beam="2">  1        2 0.27757498E+00 0.26259448E+03</pdfrwt>
<totfact> 0.16928666E+04</totfact>
</mgrwt>
</event>
<event>
 5    0  0.1141006E+000  0.2491506E+03  0.7546771E-02  0.1113843E+00
          2   -1    0    0  503    0 -0.00000000000E+00  0.00000000000E+00  0.94011218238E+03  0.94011218238E+03  0.00000000000E+00 0. -1.
         21   -1    0    0  501  502  0.00000000000E+00 -0.00000000000E+00 -0.19713523719E+03  0.19713523719E+03  0.00000000000E+00 0. -1.
         25    1    1    2    0    0  0.10866934313E+03  0.17924882710E+03 -0.45479804165E+02  0.24825910001E+03  0.12500000000E+03 0.  0.
         21    1    1    2  503  502  0.10721769747E+03 -0.39008345139E+02  0.44716091637E+03  0.46148691289E+03  0.00000000000E+00 0. -1.
          2    1    1    2  501    0 -0.21588704061E+03 -0.14024048196E+03  0.34129583299E+03  0.42750140666E+03  0.00000000000E+00 0. -1.
<mgrwt>
<rscale>  4 0.24915059E+03</rscale>
<asrwt>0</asrwt>
<pdfrwt beam="1">  1       21 0.30328498E-01 0.24915059E+03</pdfrwt>
<pdfrwt beam="2">  1        2 0.14463264E+00 0.24915059E+03</pdfrwt>
<totfact> 0.37104286E+03</totfact>
</mgrwt>
</event>
<event>
 5    0  0.1141006E+000  0.5128673E+03  0.7546771E-02  0.1010474E+00
         21   -1    0    0  501  502  0.00000000000E+00  0.00000000000E+00  0.15858190721E+04  0.15858190721E+04  0.00000000000E+00 0.  1.
          2   -1    0    0  503    0 -0.00000000000E+00 -0.00000000000E+00 -0.58081212281E+03  0.58081212281E+03  0.00000000000E+00 0. -1.
         25    1    1    2    0    0  0.63078867889E+02 -0.49863152811E+03  0.13048299414E+04  0.14038584403E+04  0.12500000000E+03 0.  0.
         21    1    1    2  503  502 -0.38680904300E+01  0.30340579432E+02 -0.28901569367E+03  0.29062963385E+03  0.00000000000E+00 0. -1.
          2    1    1    2  501    0 -0.59210777459E+02  0.46829094868E+03 -0.10807298447E+02  0.47214312076E+03  0.00000000000E+00 0. -1.
<mgrwt>
<rscale>  4 0.51286726E+03</rscale>
<asrwt>0</asrwt>
<pdfrwt beam="1">  1       21 0.24397216E+00 0.51286726E+03</pdfrwt>
<pdfrwt beam="2">  1        2 0.89355712E-01 0.51286726E+03</pdfrwt>
<totfact> 0.38275570E+01</totfact>
</mgrwt>
</event>
<event>
 5    0  0.1141006E+000  0.2507850E+03  0.7546771E-02  0.1112810E+00
         21   -1    0    0  501  502  0.00000000000E+00  0.00000000000E+00  0.10327813910E+03  0.10327813910E+03  0.00000000000E+00 0.  1.
          2   -1    0    0  503    0 -0.00000000000E+00 -0.00000000000E+00 -0.12063621460E+04  0.12063621460E+04  0.00000000000E+00 0.  1.
         25    1    1    2    0    0 -0.16977250783E+03  0.18861060375E+03 -0.18258185322E+03  0.33668649718E+03  0.12500000000E+03 0.  0.
         21    1    1    2  503  502  0.13613943243E+02 -0.45621932557E+02 -0.27054435328E+02  0.54759863512E+02  0.00000000000E+00 0. -1.
          2    1    1    2  501    0  0.15615856458E+03 -0.14298867119E+03 -0.89344771839E+03  0.91819392444E+03  0.00000000000E+00 0.  1.
<mgrwt>
<rscale>  4 0.25078505E+03</rscale>
<asrwt>0</asrwt>
<pdfrwt beam="1">  1       21 0.15888946E-01 0.25078505E+03</pdfrwt>
<pdfrwt beam="2">  1        2 0.18559416E+00 0.25078505E+03</pdfrwt>
<totfact> 0.87796841E+03</totfact>
</mgrwt>
</event>
<event>
 5    0  0.1141006E+000  0.2598067E+03  0.7546771E-02  0.1107259E+00
          2   -1    0    0  503    0 -0.00000000000E+00  0.00000000000E+00  0.89447678790E+03  0.89447678790E+03  0.00000000000E+00 0. -1.
         21   -1    0    0  501  502  0.00000000000E+00 -0.00000000000E+00 -0.71710594983E+03  0.71710594983E+03  0.00000000000E+00 0. -1.
         25    1    1    2    0    0  0.18059899651E+02  0.22768348757E+03 -0.67622063175E+03  0.72461387876E+03  0.12500000000E+03 0.  0.
         21    1    1    2  503  502  0.11659749168E+02 -0.23424721752E+02  0.41532825081E+02  0.49088113623E+02  0.00000000000E+00 0.  1.
          2    1    1    2  501    0 -0.29719648818E+02 -0.20425876582E+03  0.81205864473E+03  0.83788074535E+03  0.00000000000E+00 0. -1.
<mgrwt>
<rscale>  4 0.25980674E+03</rscale>
<asrwt>0</asrwt>
<pdfrwt beam="1">  1       21 0.11032399E+00 0.25980674E+03</pdfrwt>
<pdfrwt beam="2">  1        2 0.13761181E+00 0.25980674E+03</pdfrwt>
<totfact> 0.24056855E+02</totfact>
</mgrwt>
</event>
<event>
 5    0  0.1141006E+000  0.2612554E+03  0.7546771E-02  0.1106391E+00
         -2   -1    0    0    0  501 -0.00000000000E+00  0.00000000000E+00  0.15453442001E+04  0.15453442001E+04  0.00000000000E+00 0.  1.
         21   -1    0    0  503  502  0.00000000000E+00 -0.00000000000E+00 -0.97813491308E+03  0.97813491308E+03  0.00000000000E+00 0. -1.
         25    1    1    2    0    0  0.16237949032E+03  0.16280173947E+03 -0.94959382452E+03  0.98499996793E+03  0.12500000000E+03 0.  0.
         21    1    1    2  503  501 -0.48711529773E+02 -0.10370453544E+02  0.13972950267E+03  0.14833979020E+03  0.00000000000E+00 0. -1.
         -2    1    1    2    0  502 -0.11366796055E+03 -0.15243128593E+03  0.13770736089E+04  0.13901393551E+04  0.00000000000E+00 0.  1.
<mgrwt>
<rscale>  4 0.26125541E+03</rscale>
<asrwt>0</asrwt>
<pdfrwt beam="1">  1       21 0.15048229E+00 0.26125541E+03</pdfrwt>
<pdfrwt beam="2">  1       -2 0.23774526E+00 0.26125541E+03</pdfrwt>
<totfact> 0.19618992E+00</totfact>
</mgrwt>
</event>
<event>
 5    0  0.1141006E+000  0.3624494E+03  0.7546771E-02  0.1057618E+00
         21   -1    0    0  501  502  0.00000000000E+00  0.00000000000E+00  0.42369776471E+02  0.42369776471E+02  0.00000000000E+00 0. -1.
          2   -1    0    0  503    0 -0.00000000000E+00 -0.00000000000E+00 -0.33965555298E+04  0.33965555298E+04  0.00000000000E+00 0.  1.
         25    1    1    2    0    0  0.15138752403E+03 -0.28657833522E+03 -0.11827639661E+04  0.12327209433E+04  0.12500000000E+03 0.  0.
         21    1    1    2  503  502 -0.11888642765E+02 -0.34651478504E+02 -0.13471047631E+03  0.13960292697E+03  0.00000000000E+00 0.  1.
          2    1    1    2  501    0 -0.13949888126E+03  0.32122981373E+03 -0.20367113110E+04  0.20666014360E+04  0.00000000000E+00 0.  1.
<mgrwt>
<rscale>  4 0.36244943E+03</rscale>
<asrwt>0</asrwt>
<pdfrwt beam="1">  1       21 0.65184277E-02 0.36244943E+03</pdfrwt>
<pdfrwt beam="2">  1        2 0.52254696E+00 0.36244943E+03</pdfrwt>
<totfact> 0.24630539E+03</totfact>
</mgrwt>
</event>
<event>
 5    0  0.1141006E+000  0.4688587E+03  0.7546771E-02  0.1022243E+00
         21   -1    0    0  501  502  0.00000000000E+00  0.00000000000E+00  0.75118437430E+03  0.75118437430E+03  0.00000000000E+00 0. -1.
          2   -1    0    0  503    0 -0.00000000000E+00 -0.00000000000E+00 -0.35780518255E+03  0.35780518255E+03  0.00000000000E+00 0. -1.
         25    1    1    2    0    0 -0.21273396174E+03 -0.34585860239E+03  0.15953970533E+03  0.45381915881E+03  0.12500000000E+03 0.  0.
         21    1    1    2  503  502 -0.21190115494E+02 -0.10334153696E+03  0.36641665740E+02  0.11167410588E+03  0.00000000000E+00 0.  1.
          2    1    1    2  501    0  0.23392407724E+03  0.44920013935E+03  0.19719782068E+03  0.54349629216E+03  0.00000000000E+00 0. -1.
<mgrwt>
<rscale>  4 0.46885865E+03</rscale>
<asrwt>0</asrwt>
<pdfrwt beam="1">  1       21 0.11556683E+00 0.46885865E+03</pdfrwt>
<pdfrwt beam="2">  1        2 0.55046951E-01 0.46885865E+03</pdfrwt>
<totfact> 0.58543400E+02</totfact>
</mgrwt>
</event>
<event>
 5    0  0.1141006E+000  0.2809288E+03  0.7546771E-02  0.1095183E+00
         21   -1    0    0  501  502  0.00000000000E+00  0.00000000000E+00  0.18636523088E+04  0.18636523088E+04  0.00000000000E+00 0. -1.
          1   -1    0    0  503    0 -0.00000000000E+00 -0.00000000000E+00 -0.79785477608E+03  0.79785477608E+03  0.00000000000E+00 0. -1.
         25    1    1    2    0    0  0.12040254204E+03  0.22056440954E+03  0.18174893410E+04  0.18390317930E+04  0.12500000000E+03 0.  0.
         21    1    1    2  503  502  0.25936901442E+01  0.23453524047E+02 -0.10261994207E+01  0.23618808269E+02  0.00000000000E+00 0. -1.
          1    1    1    2  501    0 -0.12299623218E+03 -0.24401793359E+03 -0.75066560889E+03  0.79885648362E+03  0.00000000000E+00 0. -1.
<mgrwt>
<rscale>  4 0.28092875E+03</rscale>
<asrwt>0</asrwt>
<pdfrwt beam="1">  1       21 0.28671574E+00 0.28092875E+03</pdfrwt>
<pdfrwt beam="2">  1        1 0.12274689E+00 0.28092875E+03</pdfrwt>
<totfact> 0.94560495E+00</totfact>
</mgrwt>
</event>
