<event>
 5    0  0.1702508E-001  0.2569483E+03  0.7546771E-02  0.1108991E+00
         21   -1    0    0  503  502  0.00000000000E+00  0.00000000000E+00  0.10592832491E+04  0.10592832491E+04  0.00000000000E+00 0.  1.
         21   -1    0    0  501  503 -0.00000000000E+00 -0.00000000000E+00 -0.10394632251E+03  0.10394632251E+03  0.00000000000E+00 0.  1.
         25    1    1    2    0    0  0.55011951191E+02  0.23811084566E+03  0.23748171506E+03  0.36296784235E+03  0.12500000000E+03 0.  0.
          3    1    1    2  501    0 -0.27190457757E+01 -0.37822190555E+02  0.49366878326E+03  0.49512299368E+03  0.00000000000E+00 0. -1.
         -3    1    1    2    0  502 -0.52292905415E+02 -0.20028865510E+03  0.22418642824E+03  0.30513873554E+03  0.00000000000E+00 0.  1.
<mgrwt>
<rscale>  4 0.25694829E+03</rscale>
<asrwt>0</asrwt>
<pdfrwt beam="1">  1       21 0.16296665E+00 0.25694829E+03</pdfrwt>
<pdfrwt beam="2">  1       21 0.15991743E-01 0.25694829E+03</pdfrwt>
<totfact> 0.79841290E+03</totfact>
</mgrwt>
</event>
<event>
 5    0  0.1702508E-001  0.2371105E+03  0.7546771E-02  0.1121733E+00
         21   -1    0    0  503  502  0.00000000000E+00  0.00000000000E+00  0.76394028446E+02  0.76394028446E+02  0.00000000000E+00 0. -1.
         21   -1    0    0  501  503 -0.00000000000E+00 -0.00000000000E+00 -0.13667405304E+04  0.13667405304E+04  0.00000000000E+00 0. -1.
         25    1    1    2    0    0 -0.12986620574E+03  0.16355713921E+03 -0.16074352196E+03  0.29168415972E+03  0.12500000000E+03 0.  0.
          4    1    1    2  501    0  0.11604331246E+03 -0.13324451802E+03 -0.75639491806E+03  0.77675827902E+03  0.00000000000E+00 0. -1.
         -4    1    1    2    0  502  0.13822893287E+02 -0.30312621194E+02 -0.37320806197E+03  0.37469212015E+03  0.00000000000E+00 0.  1.
<mgrwt>
<rscale>  4 0.23711047E+03</rscale>
<asrwt>0</asrwt>
<pdfrwt beam="1">  1       21 0.11752928E-01 0.23711047E+03</pdfrwt>
<pdfrwt beam="2">  1       21 0.21026777E+00 0.23711047E+03</pdfrwt>
<totfact> 0.67820489E+03</totfact>
</mgrwt>
</event>
<event>
 5    0  0.1702508E-001  0.2494700E+03  0.7546771E-02  0.1113640E+00
         21   -1    0    0  503  502  0.00000000000E+00  0.00000000000E+00  0.23719378132E+03  0.23719378132E+03  0.00000000000E+00 0. -1.
         21   -1    0    0  501  503 -0.00000000000E+00 -0.00000000000E+00 -0.59688065872E+03  0.59688065872E+03  0.00000000000E+00 0. -1.
         25    1    1    2    0    0 -0.20950426404E+03 -0.65151685391E+02  0.95815786246E+02  0.27007858792E+03  0.12500000000E+03 0.  0.
          1    1    1    2  501    0  0.19020575277E+03  0.86249536207E+02 -0.14993842841E+03  0.25709675843E+03  0.00000000000E+00 0. -1.
         -1    1    1    2    0  502  0.19298511273E+02 -0.21097850816E+02 -0.30556423524E+03  0.30689909368E+03  0.00000000000E+00 0.  1.
<mgrwt>
<rscale>  4 0.24946999E+03</rscale>
<asrwt>0</asrwt>
<pdfrwt beam="1">  1       21 0.36491352E-01 0.24946999E+03</pdfrwt>
<pdfrwt beam="2">  1       21 0.91827792E-01 0.24946999E+03</pdfrwt>
<totfact> 0.69895925E+03</totfact>
</mgrwt>
</event>
<event>
 5    0  0.1702508E-001  0.2545374E+03  0.7546771E-02  0.1110470E+00
         21   -1    0    0  503  502  0.00000000000E+00  0.00000000000E+00  0.39945998759E+03  0.39945998759E+03  0.00000000000E+00 0. -1.
         21   -1    0    0  501  503 -0.00000000000E+00 -0.00000000000E+00 -0.23840838341E+03  0.23840838341E+03  0.00000000000E+00 0. -1.
         25    1    1    2    0    0  0.21274059616E+02 -0.21376375853E+03  0.20879420682E+03  0.32460368278E+03  0.12500000000E+03 0.  0.
          3    1    1    2  501    0 -0.29030779993E+02  0.23242556099E+03  0.27051345694E+02  0.23578847065E+03  0.00000000000E+00 0. -1.
         -3    1    1    2    0  502  0.77567203769E+01 -0.18661802465E+02 -0.74793948329E+02  0.77476217570E+02  0.00000000000E+00 0.  1.
<mgrwt>
<rscale>  4 0.25453739E+03</rscale>
<asrwt>0</asrwt>
<pdfrwt beam="1">  1       21 0.61455382E-01 0.25453739E+03</pdfrwt>
<pdfrwt beam="2">  1       21 0.36678213E-01 0.25453739E+03</pdfrwt>
<totfact> 0.17043068E+04</totfact>
</mgrwt>
</event>
<event>
 5    0  0.1702508E-001  0.2663235E+03  0.7546771E-02  0.1103402E+00
         21   -1    0    0  503  502  0.00000000000E+00  0.00000000000E+00  0.35372397949E+03  0.35372397949E+03  0.00000000000E+00 0. -1.
         21   -1    0    0  501  503 -0.00000000000E+00 -0.00000000000E+00 -0.49609258257E+03  0.49609258257E+03  0.00000000000E+00 0.  1.
         25    1    1    2    0    0 -0.23741030146E+03  0.69435111846E+01  0.24095854370E+03  0.36069084181E+03  0.12500000000E+03 0.  0.
          4    1    1    2  501    0  0.21997156640E+03  0.42231617115E+02 -0.37426168931E+03  0.43616832943E+03  0.00000000000E+00 0.  1.
         -4    1    1    2    0  502  0.17438735056E+02 -0.49175128299E+02 -0.90654574633E+01  0.52957390821E+02  0.00000000000E+00 0. -1.
<mgrwt>
<rscale>  4 0.26632351E+03</rscale>
<asrwt>0</asrwt>
<pdfrwt beam="1">  1       21 0.54419073E-01 0.26632351E+03</pdfrwt>
<pdfrwt beam="2">  1       21 0.76321936E-01 0.26632351E+03</pdfrwt>
<totfact> 0.46366717E+03</totfact>
</mgrwt>
</event>
<event>
 5    0  0.1702508E-001  0.2882627E+03  0.7546771E-02  0.1091260E+00
         21   -1    0    0  503  502  0.00000000000E+00  0.00000000000E+00  0.15255382162E+04  0.15255382162E+04  0.00000000000E+00 0. -1.
         21   -1    0    0  501  503 -0.00000000000E+00 -0.00000000000E+00 -0.76803286675E+03  0.76803286675E+03  0.00000000000E+00 0. -1.
         25    1    1    2    0    0 -0.22334938895E+03 -0.13539082645E+03  0.14705702985E+04  0.14988054004E+04  0.12500000000E+03 0.  0.
          4    1    1    2  501    0  0.15912972777E+03  0.16827391889E+03 -0.31932670157E+03  0.39447170288E+03  0.00000000000E+00 0.  1.
         -4    1    1    2    0  502  0.64219661183E+02 -0.32883092437E+02 -0.39373824746E+03  0.40029397968E+03  0.00000000000E+00 0. -1.
<mgrwt>
<rscale>  4 0.28826275E+03</rscale>
<asrwt>0</asrwt>
<pdfrwt beam="1">  1       21 0.23469819E+00 0.28826275E+03</pdfrwt>
<pdfrwt beam="2">  1       21 0.11815890E+00 0.28826275E+03</pdfrwt>
<totfact> 0.39595031E+01</totfact>
</mgrwt>
</event>
<event>
 5    0  0.1702508E-001  0.3363566E+03  0.7546771E-02  0.1068358E+00
         21   -1    0    0  503  502  0.00000000000E+00  0.00000000000E+00  0.95072477206E+03  0.95072477206E+03  0.00000000000E+00 0.  1.
         21   -1    0    0  501  503 -0.00000000000E+00 -0.00000000000E+00 -0.18161547006E+03  0.18161547006E+03  0.00000000000E+00 0.  1.
         25    1    1    2    0    0  0.31281863906E+03 -0.39653397570E+02  0.72602173630E+03  0.80134914642E+03  0.12500000000E+03 0.  0.
          2    1    1    2  501    0 -0.15906694161E+02 -0.17403807527E+02 -0.68443371262E+01  0.24551178918E+02  0.00000000000E+00 0. -1.
         -2    1    1    2    0  502 -0.29691194490E+03  0.57057205098E+02  0.49931902830E+02  0.30643991678E+03  0.00000000000E+00 0.  1.
<mgrwt>
<rscale>  4 0.33635661E+03</rscale>
<asrwt>0</asrwt>
<pdfrwt beam="1">  1       21 0.14626535E+00 0.33635661E+03</pdfrwt>
<pdfrwt beam="2">  1       21 0.27940842E-01 0.33635661E+03</pdfrwt>
<totfact> 0.35500325E+03</totfact>
</mgrwt>
</event>
<event>
 5    0  0.1702508E-001  0.2094959E+03  0.7546771E-02  0.1141966E+00
         21   -1    0    0  503  502  0.00000000000E+00  0.00000000000E+00  0.45788216754E+03  0.45788216754E+03  0.00000000000E+00 0.  1.
         21   -1    0    0  501  503 -0.00000000000E+00 -0.00000000000E+00 -0.19083802126E+03  0.19083802126E+03  0.00000000000E+00 0. -1.
         25    1    1    2    0    0 -0.73542665900E+02  0.18712469298E+03  0.50574780803E+02  0.24208879132E+03  0.12500000000E+03 0.  0.
          1    1    1    2  501    0 -0.90937261948E+02 -0.13352993892E+03  0.15258556854E+03  0.22222102944E+03  0.00000000000E+00 0.  1.
         -1    1    1    2    0  502  0.16447992785E+03 -0.53594754056E+02  0.63883796933E+02  0.18441036803E+03  0.00000000000E+00 0. -1.
<mgrwt>
<rscale>  4 0.20949587E+03</rscale>
<asrwt>0</asrwt>
<pdfrwt beam="1">  1       21 0.70443410E-01 0.20949587E+03</pdfrwt>
<pdfrwt beam="2">  1       21 0.29359696E-01 0.20949587E+03</pdfrwt>
<totfact> 0.20103273E+04</totfact>
</mgrwt>
</event>
<event>
 5    0  0.1702508E-001  0.2870181E+03  0.7546771E-02  0.1091916E+00
         21   -1    0    0  503  502  0.00000000000E+00  0.00000000000E+00  0.17102207194E+04  0.17102207194E+04  0.00000000000E+00 0.  1.
         21   -1    0    0  501  503 -0.00000000000E+00 -0.00000000000E+00 -0.22620160475E+03  0.22620160475E+03  0.00000000000E+00 0.  1.
         25    1    1    2    0    0  0.12441966876E+03 -0.23293319009E+03  0.12608929220E+04  0.12943006165E+04  0.12500000000E+03 0.  0.
          3    1    1    2  501    0 -0.97405522396E+02  0.22688721957E+03  0.39620408357E+03  0.46684400182E+03  0.00000000000E+00 0. -1.
         -3    1    1    2    0  502 -0.27014146362E+02  0.60459705243E+01 -0.17307789090E+03  0.17527770589E+03  0.00000000000E+00 0.  1.
<mgrwt>
<rscale>  4 0.28701812E+03</rscale>
<asrwt>0</asrwt>
<pdfrwt beam="1">  1       21 0.26311087E+00 0.28701812E+03</pdfrwt>
<pdfrwt beam="2">  1       21 0.34800248E-01 0.28701812E+03</pdfrwt>
<totfact> 0.39902558E+02</totfact>
</mgrwt>
</event>
<event>
 5    0  0.1702508E-001  0.2215351E+03  0.7546771E-02  0.1132744E+00
         21   -1    0    0  503  502  0.00000000000E+00  0.00000000000E+00  0.56915986019E+03  0.56915986019E+03  0.00000000000E+00 0.  1.
         21   -1    0    0  501  503 -0.00000000000E+00 -0.00000000000E+00 -0.11486452859E+03  0.11486452859E+03  0.00000000000E+00 0.  1.
         25    1    1    2    0    0 -0.14949471428E+03 -0.14711573291E+03  0.12349646186E+03  0.27362032922E+03  0.12500000000E+03 0.  0.
          1    1    1    2  501    0  0.10035145332E+03  0.12404555587E+03  0.14078413289E+03  0.21278601032E+03  0.00000000000E+00 0.  1.
         -1    1    1    2    0  502  0.49143260960E+02  0.23070177045E+02  0.19001473685E+03  0.19761804925E+03  0.00000000000E+00 0. -1.
<mgrwt>
<rscale>  4 0.22153509E+03</rscale>
<asrwt>0</asrwt>
<pdfrwt beam="1">  1       21 0.87563054E-01 0.22153509E+03</pdfrwt>
<pdfrwt beam="2">  1       21 0.17671466E-01 0.22153509E+03</pdfrwt>
<totfact> 0.32010932E+04</totfact>
</mgrwt>
</event>
<event>
 5    0  0.1702508E-001  0.3553607E+03  0.7546771E-02  0.1060436E+00
         21   -1    0    0  503  502  0.00000000000E+00  0.00000000000E+00  0.43643611574E+03  0.43643611574E+03  0.00000000000E+00 0.  1.
         21   -1    0    0  501  503 -0.00000000000E+00 -0.00000000000E+00 -0.40657967821E+03  0.40657967821E+03  0.00000000000E+00 0.  1.
         25    1    1    2    0    0  0.23954210200E+03  0.22398921772E+03  0.20536647108E+03  0.40663494159E+03  0.12500000000E+03 0.  0.
          2    1    1    2  501    0  0.25138704965E+02 -0.45299732540E+01 -0.73388451888E+02  0.77706756563E+02  0.00000000000E+00 0. -1.
         -2    1    1    2    0  502 -0.26468080696E+03 -0.21945924446E+03 -0.10212158166E+03  0.35867409580E+03  0.00000000000E+00 0.  1.
<mgrwt>
<rscale>  4 0.35536070E+03</rscale>
<asrwt>0</asrwt>
<pdfrwt beam="1">  1       21 0.67144018E-01 0.35536070E+03</pdfrwt>
<pdfrwt beam="2">  1       21 0.62550720E-01 0.35536070E+03</pdfrwt>
<totfact> 0.43730485E+03</totfact>
</mgrwt>
</event>
<event>
 5    0  0.1702508E-001  0.2486827E+03  0.7546771E-02  0.1114140E+00
         21   -1    0    0  503  502  0.00000000000E+00  0.00000000000E+00  0.56531323250E+02  0.56531323250E+02  0.00000000000E+00 0.  1.
         21   -1    0    0  501  503 -0.00000000000E+00 -0.00000000000E+00 -0.23641439316E+04  0.23641439316E+04  0.00000000000E+00 0.  1.
         25    1    1    2    0    0  0.79016385322E+02  0.19516038855E+03 -0.30143669064E+03  0.38835582250E+03  0.12500000000E+03 0.  0.
          2    1    1    2  501    0 -0.11715212202E+03 -0.19825943305E+03 -0.10315253686E+04  0.10569181655E+04  0.00000000000E+00 0.  1.
         -2    1    1    2    0  502  0.38135736700E+02  0.30990444978E+01 -0.97465054911E+03  0.97540126685E+03  0.00000000000E+00 0. -1.
<mgrwt>
<rscale>  4 0.24868268E+03</rscale>
<asrwt>0</asrwt>
<pdfrwt beam="1">  1       21 0.86971259E-02 0.24868268E+03</pdfrwt>
<pdfrwt beam="2">  1       21 0.36371448E+00 0.24868268E+03</pdfrwt>
<totfact> 0.14002418E+03</totfact>
</mgrwt>
</event>
<event>
 5    0  0.1702508E-001  0.1964624E+03  0.7546771E-02  0.1152758E+00
         21   -1    0    0  503  502  0.00000000000E+00  0.00000000000E+00  0.16892837753E+03  0.16892837753E+03  0.00000000000E+00 0. -1.
         21   -1    0    0  501  503 -0.00000000000E+00 -0.00000000000E+00 -0.93151359113E+03  0.93151359113E+03  0.00000000000E+00 0.  1.
         25    1    1    2    0    0  0.21092935301E+03 -0.47431318934E+01  0.13442905353E+02  0.24560008340E+03  0.12500000000E+03 0.  0.
          3    1    1    2  501    0 -0.10380551705E+03 -0.18262496660E+02 -0.72735316922E+03  0.73495015948E+03  0.00000000000E+00 0. -1.
         -3    1    1    2    0  502 -0.10712383596E+03  0.23005628553E+02 -0.48674949734E+02  0.11989172577E+03  0.00000000000E+00 0.  1.
<mgrwt>
<rscale>  4 0.19646244E+03</rscale>
<asrwt>0</asrwt>
<pdfrwt beam="1">  1       21 0.25988981E-01 0.19646244E+03</pdfrwt>
<pdfrwt beam="2">  1       21 0.14330978E+00 0.19646244E+03</pdfrwt>
<totfact> 0.47213733E+03</totfact>
</mgrwt>
</event>
<event>
 5    0  0.1702508E-001  0.2378298E+03  0.7546771E-02  0.1121247E+00
         21   -1    0    0  503  502  0.00000000000E+00  0.00000000000E+00  0.89623556524E+03  0.89623556524E+03  0.00000000000E+00 0.  1.
         21   -1    0    0  501  503 -0.00000000000E+00 -0.00000000000E+00 -0.76699488198E+02  0.76699488198E+02  0.00000000000E+00 0.  1.
         25    1    1    2    0    0 -0.57394836490E+02  0.21628988588E+03  0.28751207859E+03  0.38518005831E+03  0.12500000000E+03 0.  0.
          1    1    1    2  501    0 -0.19972211790E+02 -0.37469288084E+02  0.39099562824E+02  0.57720123062E+02  0.00000000000E+00 0. -1.
         -1    1    1    2    0  502  0.77367048280E+02 -0.17882059780E+03  0.49292443564E+03  0.53003487206E+03  0.00000000000E+00 0.  1.
<mgrwt>
<rscale>  4 0.23782976E+03</rscale>
<asrwt>0</asrwt>
<pdfrwt beam="1">  1       21 0.13788239E+00 0.23782976E+03</pdfrwt>
<pdfrwt beam="2">  1       21 0.11799922E-01 0.23782976E+03</pdfrwt>
<totfact> 0.21900659E+04</totfact>
</mgrwt>
</event>
<event>
 5    0  0.1702508E-001  0.2041483E+03  0.7546771E-02  0.1146286E+00
         21   -1    0    0  503  502  0.00000000000E+00  0.00000000000E+00  0.38060183686E+03  0.38060183686E+03  0.00000000000E+00 0. -1.
         21   -1    0    0  501  503 -0.00000000000E+00 -0.00000000000E+00 -0.24059935919E+03  0.24059935919E+03  0.00000000000E+00 0. -1.
         25    1    1    2    0    0 -0.38605569526E+02  0.20089908965E+03  0.26011107298E+03  0.35374228544E+03  0.12500000000E+03 0.  0.
          3    1    1    2  501    0  0.45483030600E+01 -0.48050845133E+02  0.24657417255E+02  0.54199252803E+02  0.00000000000E+00 0.  1.
         -3    1    1    2    0  502  0.34057266466E+02 -0.15284824452E+03 -0.14476601256E+03  0.21325965780E+03  0.00000000000E+00 0. -1.
<mgrwt>
<rscale>  4 0.20414829E+03</rscale>
<asrwt>0</asrwt>
<pdfrwt beam="1">  1       21 0.58554129E-01 0.20414829E+03</pdfrwt>
<pdfrwt beam="2">  1       21 0.37015286E-01 0.20414829E+03</pdfrwt>
<totfact> 0.19084748E+04</totfact>
</mgrwt>
</event>
<event>
 5    0  0.1702508E-001  0.2304802E+03  0.7546771E-02  0.1126302E+00
         21   -1    0    0  503  502  0.00000000000E+00  0.00000000000E+00  0.27533375249E+02  0.27533375249E+02  0.00000000000E+00 0.  1.
         21   -1    0    0  501  503 -0.00000000000E+00 -0.00000000000E+00 -0.28097453319E+04  0.28097453319E+04  0.00000000000E+00 0. -1.
         25    1    1    2    0    0  0.14287560928E+03  0.14222290688E+03 -0.64573903037E+03  0.68792782347E+03  0.12500000000E+03 0.  0.
          2    1    1    2  501    0  0.10962664172E+02 -0.49243023405E+02 -0.67123222901E+03  0.67312536769E+03  0.00000000000E+00 0.  1.
         -2    1    1    2    0  502 -0.15383827346E+03 -0.92979883472E+02 -0.14652406972E+04  0.14762255159E+04  0.00000000000E+00 0. -1.
<mgrwt>
<rscale>  4 0.23048018E+03</rscale>
<asrwt>0</asrwt>
<pdfrwt beam="1">  1       21 0.42359066E-02 0.23048018E+03</pdfrwt>
<pdfrwt beam="2">  1       21 0.43226824E+00 0.23048018E+03</pdfrwt>
<totfact> 0.18356821E+03</totfact>
</mgrwt>
</event>
<event>
 5    0  0.1702508E-001  0.2848521E+03  0.7546771E-02  0.1093068E+00
         21   -1    0    0  503  502  0.00000000000E+00  0.00000000000E+00  0.10101116274E+03  0.10101116274E+03  0.00000000000E+00 0. -1.
         21   -1    0    0  501  503 -0.00000000000E+00 -0.00000000000E+00 -0.13991590883E+04  0.13991590883E+04  0.00000000000E+00 0. -1.
         25    1    1    2    0    0 -0.25016641496E+03  0.54152206695E+02 -0.15120632559E+03  0.32249658845E+03  0.12500000000E+03 0.  0.
          3    1    1    2  501    0  0.23957309429E+03 -0.31124884795E+02 -0.10545101733E+04  0.10818298072E+04  0.00000000000E+00 0. -1.
         -3    1    1    2    0  502  0.10593320676E+02 -0.23027321900E+02 -0.92431426601E+02  0.95843855412E+02  0.00000000000E+00 0.  1.
<mgrwt>
<rscale>  4 0.28485206E+03</rscale>
<asrwt>0</asrwt>
<pdfrwt beam="1">  1       21 0.15540180E-01 0.28485206E+03</pdfrwt>
<pdfrwt beam="2">  1       21 0.21525523E+00 0.28485206E+03</pdfrwt>
<totfact> 0.36676008E+03</totfact>
</mgrwt>
</event>
<event>
 5    0  0.1702508E-001  0.2703143E+03  0.7546771E-02  0.1101100E+00
         21   -1    0    0  503  502  0.00000000000E+00  0.00000000000E+00  0.20623200096E+04  0.20623200096E+04  0.00000000000E+00 0. -1.
         21   -1    0    0  501  503 -0.00000000000E+00 -0.00000000000E+00 -0.42323220250E+02  0.42323220250E+02  0.00000000000E+00 0. -1.
         25    1    1    2    0    0 -0.20414529743E+03 -0.11717903060E+03  0.13973583262E+04  0.14225475456E+04  0.12500000000E+03 0.  0.
          2    1    1    2  501    0  0.10451465353E+02 -0.27427279849E+02  0.13100664438E+03  0.13425434697E+03  0.00000000000E+00 0.  1.
         -2    1    1    2    0  502  0.19369383208E+03  0.14460631045E+03  0.49163181871E+03  0.54784133723E+03  0.00000000000E+00 0. -1.
<mgrwt>
<rscale>  4 0.27031426E+03</rscale>
<asrwt>0</asrwt>
<pdfrwt beam="1">  1       21 0.31727992E+00 0.27031426E+03</pdfrwt>
<pdfrwt beam="2">  1       21 0.65112662E-02 0.27031426E+03</pdfrwt>
<totfact> 0.42944396E+03</totfact>
</mgrwt>
</event>
<event>
 5    0  0.1702508E-001  0.2535764E+03  0.7546771E-02  0.1111065E+00
         21   -1    0    0  503  502  0.00000000000E+00  0.00000000000E+00  0.10399290355E+04  0.10399290355E+04  0.00000000000E+00 0.  1.
         21   -1    0    0  501  503 -0.00000000000E+00 -0.00000000000E+00 -0.14247100088E+03  0.14247100088E+03  0.00000000000E+00 0.  1.
         25    1    1    2    0    0 -0.14856928743E+03 -0.21682911168E+03  0.80594850538E+03  0.85689304476E+03  0.12500000000E+03 0.  0.
          2    1    1    2  501    0  0.24403669425E+02  0.11547685688E+03 -0.32994359171E+02  0.12255232064E+03  0.00000000000E+00 0.  1.
         -2    1    1    2    0  502  0.12416561800E+03  0.10135225480E+03  0.12450388841E+03  0.20295467099E+03  0.00000000000E+00 0. -1.
<mgrwt>
<rscale>  4 0.25357643E+03</rscale>
<asrwt>0</asrwt>
<pdfrwt beam="1">  1       21 0.15998908E+00 0.25357643E+03</pdfrwt>
<pdfrwt beam="2">  1       21 0.21918616E-01 0.25357643E+03</pdfrwt>
<totfact> 0.46690822E+03</totfact>
</mgrwt>
</event>
<event>
 5    0  0.1702508E-001  0.2753196E+03  0.7546771E-02  0.1098273E+00
         21   -1    0    0  503  502  0.00000000000E+00  0.00000000000E+00  0.33075520773E+03  0.33075520773E+03  0.00000000000E+00 0.  1.
         21   -1    0    0  501  503 -0.00000000000E+00 -0.00000000000E+00 -0.64409262386E+03  0.64409262386E+03  0.00000000000E+00 0.  1.
         25    1    1    2    0    0  0.72865384136E+02  0.23698562929E+03  0.19744459219E+03  0.34070650078E+03  0.12500000000E+03 0.  0.
          3    1    1    2  501    0  0.43888192611E+02 -0.26745189828E+02 -0.32820020625E+03  0.33220002109E+03  0.00000000000E+00 0. -1.
         -3    1    1    2    0  502 -0.11675357675E+03 -0.21024043946E+03 -0.18258180207E+03  0.30194130972E+03  0.00000000000E+00 0.  1.
<mgrwt>
<rscale>  4 0.27531957E+03</rscale>
<asrwt>0</asrwt>
<pdfrwt beam="1">  1       21 0.50885417E-01 0.27531957E+03</pdfrwt>
<pdfrwt beam="2">  1       21 0.99091173E-01 0.27531957E+03</pdfrwt>
<totfact> 0.29003437E+03</totfact>
</mgrwt>
</event>
<event>
 5    0  0.1702508E-001  0.3265953E+03  0.7546771E-02  0.1072653E+00
         21   -1    0    0  503  502  0.00000000000E+00  0.00000000000E+00  0.28387205078E+03  0.28387205078E+03  0.00000000000E+00 0.  1.
         21   -1    0    0  501  503 -0.00000000000E+00 -0.00000000000E+00 -0.47963605500E+03  0.47963605500E+03  0.00000000000E+00 0. -1.
         25    1    1    2    0    0 -0.24133875698E+03  0.84982863817E+02  0.49626452858E+02  0.28905755064E+03  0.12500000000E+03 0.  0.
          1    1    1    2  501    0  0.29512813859E+03 -0.13522950655E+03 -0.23350421574E+03  0.39988980532E+03  0.00000000000E+00 0. -1.
         -1    1    1    2    0  502 -0.53789381613E+02  0.50246642730E+02 -0.11886241334E+02  0.74560749815E+02  0.00000000000E+00 0.  1.
<mgrwt>
<rscale>  4 0.32659531E+03</rscale>
<asrwt>0</asrwt>
<pdfrwt beam="1">  1       21 0.43672624E-01 0.32659531E+03</pdfrwt>
<pdfrwt beam="2">  1       21 0.73790162E-01 0.32659531E+03</pdfrwt>
<totfact> 0.77040715E+03</totfact>
</mgrwt>
</event>
<event>
 5    0  0.1702508E-001  0.2511258E+03  0.7546771E-02  0.1112595E+00
         21   -1    0    0  503  502  0.00000000000E+00  0.00000000000E+00  0.74589506111E+03  0.74589506111E+03  0.00000000000E+00 0. -1.
         21   -1    0    0  501  503 -0.00000000000E+00 -0.00000000000E+00 -0.42341141190E+03  0.42341141190E+03  0.00000000000E+00 0. -1.
         25    1    1    2    0    0  0.18235765415E+01 -0.21669627848E+03  0.67811953688E+03  0.72279437521E+03  0.12500000000E+03 0.  0.
          4    1    1    2  501    0  0.23727144475E+02  0.23411215722E+03 -0.28629567911E+03  0.37058965909E+03  0.00000000000E+00 0. -1.
         -4    1    1    2    0  502 -0.25550721017E+02 -0.17415878739E+02 -0.69340208560E+02  0.75922438711E+02  0.00000000000E+00 0.  1.
<mgrwt>
<rscale>  4 0.25112585E+03</rscale>
<asrwt>0</asrwt>
<pdfrwt beam="1">  1       21 0.11475309E+00 0.25112585E+03</pdfrwt>
<pdfrwt beam="2">  1       21 0.65140217E-01 0.25112585E+03</pdfrwt>
<totfact> 0.12143945E+03</totfact>
</mgrwt>
</event>
<event>
 5    0  0.1702508E-001  0.2982018E+03  0.7546771E-02  0.1086143E+00
         21   -1    0    0  503  502  0.00000000000E+00  0.00000000000E+00  0.61742506585E+03  0.61742506585E+03  0.00000000000E+00 0.  1.
         21   -1    0    0  501  503 -0.00000000000E+00 -0.00000000000E+00 -0.32490002488E+03  0.32490002488E+03  0.00000000000E+00 0.  1.
         25    1    1    2    0    0  0.14591055031E+03 -0.23383196397E+03  0.45346762639E+03  0.54518360600E+03  0.12500000000E+03 0.  0.
          2    1    1    2  501    0 -0.10687679036E+03  0.23386027269E+03 -0.28068326537E+02  0.25865248194E+03  0.00000000000E+00 0.  1.
         -2    1    1    2    0  502 -0.39033759949E+02 -0.28308716395E-01 -0.13287425889E+03  0.13848900278E+03  0.00000000000E+00 0. -1.
<mgrwt>
<rscale>  4 0.29820185E+03</rscale>
<asrwt>0</asrwt>
<pdfrwt beam="1">  1       21 0.94988471E-01 0.29820185E+03</pdfrwt>
<pdfrwt beam="2">  1       21 0.49984619E-01 0.29820185E+03</pdfrwt>
<totfact> 0.32866584E+03</totfact>
</mgrwt>
</event>
<event>
 5    0  0.1702508E-001  0.2737965E+03  0.7546771E-02  0.1099126E+00
         21   -1    0    0  503  502  0.00000000000E+00  0.00000000000E+00  0.14591930307E+03  0.14591930307E+03  0.00000000000E+00 0. -1.
         21   -1    0    0  501  503 -0.00000000000E+00 -0.00000000000E+00 -0.60590262507E+03  0.60590262507E+03  0.00000000000E+00 0.  1.
         25    1    1    2    0    0 -0.15791218182E+02  0.24308470669E+03 -0.76523155289E+02  0.28428916704E+03  0.12500000000E+03 0.  0.
          2    1    1    2  501    0 -0.34749502955E+02 -0.19365480912E+03 -0.27863432839E+03  0.34109647024E+03  0.00000000000E+00 0. -1.
         -2    1    1    2    0  502  0.50540721137E+02 -0.49429897575E+02 -0.10482583832E+03  0.12643629086E+03  0.00000000000E+00 0.  1.
<mgrwt>
<rscale>  4 0.27379653E+03</rscale>
<asrwt>0</asrwt>
<pdfrwt beam="1">  1       21 0.22449123E-01 0.27379653E+03</pdfrwt>
<pdfrwt beam="2">  1       21 0.93215790E-01 0.27379653E+03</pdfrwt>
<totfact> 0.17209572E+04</totfact>
</mgrwt>
</event>
<event>
 5    0  0.1702508E-001  0.3095439E+03  0.7546771E-02  0.1080565E+00
         21   -1    0    0  503  502  0.00000000000E+00  0.00000000000E+00  0.18267462263E+03  0.18267462263E+03  0.00000000000E+00 0.  1.
         21   -1    0    0  501  503 -0.00000000000E+00 -0.00000000000E+00 -0.10167331256E+04  0.10167331256E+04  0.00000000000E+00 0. -1.
         25    1    1    2    0    0 -0.30617843123E+03 -0.55057848545E+02 -0.65378759154E+02  0.34157865944E+03  0.12500000000E+03 0.  0.
          4    1    1    2  501    0  0.71179543825E+02  0.23922015143E+02 -0.47267504123E+03  0.47860263776E+03  0.00000000000E+00 0. -1.
         -4    1    1    2    0  502  0.23499888740E+03  0.31135833402E+02 -0.29600470256E+03  0.37922645100E+03  0.00000000000E+00 0.  1.
<mgrwt>
<rscale>  4 0.30954386E+03</rscale>
<asrwt>0</asrwt>
<pdfrwt beam="1">  1       21 0.28103789E-01 0.30954386E+03</pdfrwt>
<pdfrwt beam="2">  1       21 0.15642048E+00 0.30954386E+03</pdfrwt>
<totfact> 0.29723217E+03</totfact>
</mgrwt>
</event>
<event>
 5    0  0.1702508E-001  0.2616869E+03  0.7546771E-02  0.1106134E+00
         21   -1    0    0  503  502  0.00000000000E+00  0.00000000000E+00  0.40839211512E+03  0.40839211512E+03  0.00000000000E+00 0.  1.
         21   -1    0    0  501  503 -0.00000000000E+00 -0.00000000000E+00 -0.25409242125E+03  0.25409242125E+03  0.00000000000E+00 0. -1.
         25    1    1    2    0    0 -0.18789569978E+03  0.14525863924E+03  0.25460610045E+03  0.36993801191E+03  0.12500000000E+03 0.  0.
          1    1    1    2  501    0  0.52418146237E+02  0.16406683213E+02  0.78889036882E+01  0.55489423410E+02  0.00000000000E+00 0.  1.
         -1    1    1    2    0  502  0.13547755354E+03 -0.16166532246E+03 -0.10819531026E+03  0.23705710106E+03  0.00000000000E+00 0. -1.
<mgrwt>
<rscale>  4 0.26168691E+03</rscale>
<asrwt>0</asrwt>
<pdfrwt beam="1">  1       21 0.62829556E-01 0.26168691E+03</pdfrwt>
<pdfrwt beam="2">  1       21 0.39091142E-01 0.26168691E+03</pdfrwt>
<totfact> 0.14232120E+04</totfact>
</mgrwt>
</event>
<event>
 5    0  0.1702508E-001  0.3191882E+03  0.7546771E-02  0.1076024E+00
         21   -1    0    0  503  502  0.00000000000E+00  0.00000000000E+00  0.69955453788E+03  0.69955453788E+03  0.00000000000E+00 0. -1.
         21   -1    0    0  501  503 -0.00000000000E+00 -0.00000000000E+00 -0.16729140221E+03  0.16729140221E+03  0.00000000000E+00 0.  1.
         25    1    1    2    0    0 -0.30273634536E+03  0.21030791273E+01  0.19271027786E+03  0.38002101118E+03  0.12500000000E+03 0.  0.
          2    1    1    2  501    0  0.16419410793E+02  0.41350173807E+02  0.56737620936E+01  0.44851148268E+02  0.00000000000E+00 0. -1.
         -2    1    1    2    0  502  0.28631693457E+03 -0.43453252934E+02  0.33387909572E+03  0.44197378064E+03  0.00000000000E+00 0.  1.
<mgrwt>
<rscale>  4 0.31918824E+03</rscale>
<asrwt>0</asrwt>
<pdfrwt beam="1">  1       21 0.10762377E+00 0.31918824E+03</pdfrwt>
<pdfrwt beam="2">  1       21 0.25737139E-01 0.31918824E+03</pdfrwt>
<totfact> 0.91802382E+03</totfact>
</mgrwt>
</event>
<event>
 5    0  0.1702508E-001  0.2846421E+03  0.7546771E-02  0.1093180E+00
         21   -1    0    0  503  502  0.00000000000E+00  0.00000000000E+00  0.84206976824E+02  0.84206976824E+02  0.00000000000E+00 0.  1.
         21   -1    0    0  501  503 -0.00000000000E+00 -0.00000000000E+00 -0.11264034283E+04  0.11264034283E+04  0.00000000000E+00 0.  1.
         25    1    1    2    0    0 -0.17581187270E+03 -0.20570465605E+03 -0.46032339379E+03  0.54840390860E+03  0.12500000000E+03 0.  0.
          2    1    1    2  501    0  0.14498524380E+03  0.19716199171E+03 -0.34388778255E+03  0.42208100986E+03  0.00000000000E+00 0.  1.
         -2    1    1    2    0  502  0.30826628908E+02  0.85426643321E+01 -0.23798527516E+03  0.24012548668E+03  0.00000000000E+00 0. -1.
<mgrwt>
<rscale>  4 0.28464210E+03</rscale>
<asrwt>0</asrwt>
<pdfrwt beam="1">  1       21 0.12954920E-01 0.28464210E+03</pdfrwt>
<pdfrwt beam="2">  1       21 0.17329283E+00 0.28464210E+03</pdfrwt>
<totfact> 0.97342485E+03</totfact>
</mgrwt>
</event>
<event>
 5    0  0.1702508E-001  0.2625215E+03  0.7546771E-02  0.1105638E+00
         21   -1    0    0  503  502  0.00000000000E+00  0.00000000000E+00  0.55820447542E+02  0.55820447542E+02  0.00000000000E+00 0.  1.
         21   -1    0    0  501  503 -0.00000000000E+00 -0.00000000000E+00 -0.15676597685E+04  0.15676597685E+04  0.00000000000E+00 0.  1.
         25    1    1    2    0    0  0.10618925522E+03 -0.18938034210E+03 -0.45910636697E+03  0.52301503620E+03  0.12500000000E+03 0.  0.
          1    1    1    2  501    0  0.11767383961E+02 -0.30653781457E+02 -0.40430309703E+03  0.40563421935E+03  0.00000000000E+00 0. -1.
         -1    1    1    2    0  502 -0.11795663918E+03  0.22003412356E+03 -0.64842985696E+03  0.69483096049E+03  0.00000000000E+00 0.  1.
<mgrwt>
<rscale>  4 0.26252152E+03</rscale>
<asrwt>0</asrwt>
<pdfrwt beam="1">  1       21 0.85877601E-02 0.26252152E+03</pdfrwt>
<pdfrwt beam="2">  1       21 0.24117845E+00 0.26252152E+03</pdfrwt>
<totfact> 0.74971133E+03</totfact>
</mgrwt>
</event>
<event>
 5    0  0.1702508E-001  0.3314422E+03  0.7546771E-02  0.1070500E+00
         21   -1    0    0  503  502  0.00000000000E+00  0.00000000000E+00  0.54425798776E+03  0.54425798776E+03  0.00000000000E+00 0.  1.
         21   -1    0    0  501  503 -0.00000000000E+00 -0.00000000000E+00 -0.72876156322E+03  0.72876156322E+03  0.00000000000E+00 0. -1.
         25    1    1    2    0    0 -0.30239642223E+03 -0.12028862633E+03  0.42261063439E+03  0.54784824368E+03  0.12500000000E+03 0.  0.
          3    1    1    2  501    0  0.20275136156E+03 -0.29985531564E+02 -0.40775350055E+03  0.45636626073E+03  0.00000000000E+00 0. -1.
         -3    1    1    2    0  502  0.99645060672E+02  0.15027415789E+03 -0.19936070930E+03  0.26880504657E+03  0.00000000000E+00 0.  1.
<mgrwt>
<rscale>  4 0.33144224E+03</rscale>
<asrwt>0</asrwt>
<pdfrwt beam="1">  1       21 0.83731998E-01 0.33144224E+03</pdfrwt>
<pdfrwt beam="2">  1       21 0.11211716E+00 0.33144224E+03</pdfrwt>
<totfact> 0.69173889E+02</totfact>
</mgrwt>
</event>
<event>
 5    0  0.1702508E-001  0.3405302E+03  0.7546771E-02  0.1066570E+00
         21   -1    0    0  503  502  0.00000000000E+00  0.00000000000E+00  0.11235753711E+04  0.11235753711E+04  0.00000000000E+00 0. -1.
         21   -1    0    0  501  503 -0.00000000000E+00 -0.00000000000E+00 -0.16696334962E+03  0.16696334962E+03  0.00000000000E+00 0. -1.
         25    1    1    2    0    0 -0.31849521518E+03  0.99079252764E+02  0.21209371997E+03  0.41456561178E+03  0.12500000000E+03 0.  0.
          1    1    1    2  501    0  0.30669398944E+02  0.21481422373E+02 -0.25381530839E+02  0.45235888921E+02  0.00000000000E+00 0.  1.
         -1    1    1    2    0  502  0.28782581624E+03 -0.12056067514E+03  0.76989983234E+03  0.83073722001E+03  0.00000000000E+00 0. -1.
<mgrwt>
<rscale>  4 0.34053021E+03</rscale>
<asrwt>0</asrwt>
<pdfrwt beam="1">  1       21 0.17285774E+00 0.34053021E+03</pdfrwt>
<pdfrwt beam="2">  1       21 0.25686670E-01 0.34053021E+03</pdfrwt>
<totfact> 0.26365560E+03</totfact>
</mgrwt>
</event>
<event>
 5    0  0.1702508E-001  0.2262942E+03  0.7546771E-02  0.1129276E+00
         21   -1    0    0  503  502  0.00000000000E+00  0.00000000000E+00  0.32607560273E+03  0.32607560273E+03  0.00000000000E+00 0. -1.
         21   -1    0    0  501  503 -0.00000000000E+00 -0.00000000000E+00 -0.17277354198E+03  0.17277354198E+03  0.00000000000E+00 0.  1.
         25    1    1    2    0    0  0.16467805999E+03 -0.11479738296E+03  0.15056332914E+03  0.28034196735E+03  0.12500000000E+03 0.  0.
          3    1    1    2  501    0 -0.12945892278E+03  0.11816293817E+03  0.24484363736E+02  0.17697902901E+03  0.00000000000E+00 0.  1.
         -3    1    1    2    0  502 -0.35219137215E+02 -0.33655552136E+01 -0.21745632130E+02  0.41528148343E+02  0.00000000000E+00 0. -1.
<mgrwt>
<rscale>  4 0.22629423E+03</rscale>
<asrwt>0</asrwt>
<pdfrwt beam="1">  1       21 0.50165477E-01 0.22629423E+03</pdfrwt>
<pdfrwt beam="2">  1       21 0.26580545E-01 0.22629423E+03</pdfrwt>
<totfact> 0.50173308E+04</totfact>
</mgrwt>
</event>
<event>
 5    0  0.1702508E-001  0.2957283E+03  0.7546771E-02  0.1087396E+00
         21   -1    0    0  503  502  0.00000000000E+00  0.00000000000E+00  0.16297205465E+04  0.16297205465E+04  0.00000000000E+00 0. -1.
         21   -1    0    0  501  503 -0.00000000000E+00 -0.00000000000E+00 -0.99704938626E+02  0.99704938626E+02  0.00000000000E+00 0.  1.
         25    1    1    2    0    0  0.54031622546E+02  0.28375668922E+03  0.40866117633E+03  0.51581608345E+03  0.12500000000E+03 0.  0.
          4    1    1    2  501    0 -0.15914407414E+03 -0.31518353531E+02  0.23110485982E+03  0.28236447931E+03  0.00000000000E+00 0. -1.
         -4    1    1    2    0  502  0.10511245160E+03 -0.25223833568E+03  0.89024957171E+03  0.93124492234E+03  0.00000000000E+00 0.  1.
<mgrwt>
<rscale>  4 0.29572831E+03</rscale>
<asrwt>0</asrwt>
<pdfrwt beam="1">  1       21 0.25072622E+00 0.29572831E+03</pdfrwt>
<pdfrwt beam="2">  1       21 0.15339222E-01 0.29572831E+03</pdfrwt>
<totfact> 0.22570439E+03</totfact>
</mgrwt>
</event>
<event>
 5    0  0.1702508E-001  0.2995323E+03  0.7546771E-02  0.1085475E+00
         21   -1    0    0  503  502  0.00000000000E+00  0.00000000000E+00  0.60467830990E+03  0.60467830990E+03  0.00000000000E+00 0. -1.
         21   -1    0    0  501  503 -0.00000000000E+00 -0.00000000000E+00 -0.25922732720E+03  0.25922732720E+03  0.00000000000E+00 0. -1.
         25    1    1    2    0    0  0.21013955192E+02  0.29013446702E+03  0.39572616840E+03  0.50679758842E+03  0.12500000000E+03 0.  0.
          2    1    1    2  501    0 -0.15777011906E+02 -0.50670169691E+02 -0.99326979323E+02  0.11261540313E+03  0.00000000000E+00 0.  1.
         -2    1    1    2    0  502 -0.52369432858E+01 -0.23946429733E+03  0.49051793627E+02  0.24449264555E+03  0.00000000000E+00 0. -1.
<mgrwt>
<rscale>  4 0.29953225E+03</rscale>
<asrwt>0</asrwt>
<pdfrwt beam="1">  1       21 0.93027432E-01 0.29953225E+03</pdfrwt>
<pdfrwt beam="2">  1       21 0.39881128E-01 0.29953225E+03</pdfrwt>
<totfact> 0.55111467E+03</totfact>
</mgrwt>
</event>
<event>
 5    0  0.1702508E-001  0.3385952E+03  0.7546771E-02  0.1067396E+00
         21   -1    0    0  503  502  0.00000000000E+00  0.00000000000E+00  0.34277324605E+03  0.34277324605E+03  0.00000000000E+00 0. -1.
         21   -1    0    0  501  503 -0.00000000000E+00 -0.00000000000E+00 -0.12579895101E+04  0.12579895101E+04  0.00000000000E+00 0. -1.
         25    1    1    2    0    0  0.20718267607E+03  0.22789123447E+03  0.56693587707E+02  0.33719169458E+03  0.12500000000E+03 0.  0.
          2    1    1    2  501    0 -0.23076288446E+03 -0.22674702535E+03 -0.33931157966E+02  0.32529532094E+03  0.00000000000E+00 0.  1.
         -2    1    1    2    0  502  0.23580208387E+02 -0.11442091207E+01 -0.93797869377E+03  0.93827574061E+03  0.00000000000E+00 0. -1.
<mgrwt>
<rscale>  4 0.33859525E+03</rscale>
<asrwt>0</asrwt>
<pdfrwt beam="1">  1       21 0.52734345E-01 0.33859525E+03</pdfrwt>
<pdfrwt beam="2">  1       21 0.19353685E+00 0.33859525E+03</pdfrwt>
<totfact> 0.44159289E+02</totfact>
</mgrwt>
</event>
<event>
 5    0  0.1702508E-001  0.2634941E+03  0.7546771E-02  0.1105062E+00
         21   -1    0    0  503  502  0.00000000000E+00  0.00000000000E+00  0.17025546460E+03  0.17025546460E+03  0.00000000000E+00 0.  1.
         21   -1    0    0  501  503 -0.00000000000E+00 -0.00000000000E+00 -0.83885724155E+03  0.83885724155E+03  0.00000000000E+00 0. -1.
         25    1    1    2    0    0 -0.21649109830E+03  0.25034619269E+02 -0.11723377266E+03  0.27724336828E+03  0.12500000000E+03 0.  0.
          4    1    1    2  501    0  0.24341232264E+03 -0.15038791994E+02 -0.75728226341E+02  0.25536344363E+03  0.00000000000E+00 0.  1.
         -4    1    1    2    0  502 -0.26921224345E+02 -0.99958272741E+01 -0.47563977794E+03  0.47650589424E+03  0.00000000000E+00 0. -1.
<mgrwt>
<rscale>  4 0.26349410E+03</rscale>
<asrwt>0</asrwt>
<pdfrwt beam="1">  1       21 0.26193149E-01 0.26349410E+03</pdfrwt>
<pdfrwt beam="2">  1       21 0.12905496E+00 0.26349410E+03</pdfrwt>
<totfact> 0.58052117E+03</totfact>
</mgrwt>
</event>
<event>
 5    0  0.1702508E-001  0.2295037E+03  0.7546771E-02  0.1126990E+00
         21   -1    0    0  503  502  0.00000000000E+00  0.00000000000E+00  0.53823846191E+02  0.53823846191E+02  0.00000000000E+00 0.  1.
         21   -1    0    0  501  503 -0.00000000000E+00 -0.00000000000E+00 -0.24933299685E+04  0.24933299685E+04  0.00000000000E+00 0.  1.
         25    1    1    2    0    0  0.20869509569E+03 -0.26996195398E+02 -0.56061887897E+03  0.61171967844E+03  0.12500000000E+03 0.  0.
          1    1    1    2  501    0 -0.18352818944E+03  0.56134580346E+01 -0.27180309839E+03  0.32801071862E+03  0.00000000000E+00 0.  1.
         -1    1    1    2    0  502 -0.25166906245E+02  0.21382737363E+02 -0.16070841450E+04  0.16074234176E+04  0.00000000000E+00 0. -1.
<mgrwt>
<rscale>  4 0.22950368E+03</rscale>
<asrwt>0</asrwt>
<pdfrwt beam="1">  1       21 0.82805907E-02 0.22950368E+03</pdfrwt>
<pdfrwt beam="2">  1       21 0.38358927E+00 0.22950368E+03</pdfrwt>
<totfact> 0.11807071E+03</totfact>
</mgrwt>
</event>
<event>
 5    0  0.1702508E-001  0.2245247E+03  0.7546771E-02  0.1130554E+00
         21   -1    0    0  503  502  0.00000000000E+00  0.00000000000E+00  0.38113024259E+03  0.38113024259E+03  0.00000000000E+00 0.  1.
         21   -1    0    0  501  503 -0.00000000000E+00 -0.00000000000E+00 -0.74700579735E+03  0.74700579735E+03  0.00000000000E+00 0.  1.
         25    1    1    2    0    0 -0.13099997577E+03 -0.21546213100E+03  0.16974815229E+03  0.32867059308E+03  0.12500000000E+03 0.  0.
          2    1    1    2  501    0  0.14737908512E+03  0.11007587121E+03 -0.63045997617E+03  0.65674734389E+03  0.00000000000E+00 0.  1.
         -2    1    1    2    0  502 -0.16379109346E+02  0.10538625979E+03  0.94836269117E+02  0.14271810297E+03  0.00000000000E+00 0. -1.
<mgrwt>
<rscale>  4 0.22452465E+03</rscale>
<asrwt>0</asrwt>
<pdfrwt beam="1">  1       21 0.58635422E-01 0.22452465E+03</pdfrwt>
<pdfrwt beam="2">  1       21 0.11492397E+00 0.22452465E+03</pdfrwt>
<totfact> 0.15529731E+03</totfact>
</mgrwt>
</event>
<event>
 5    0  0.1702508E-001  0.2427261E+03  0.7546771E-02  0.1117990E+00
         21   -1    0    0  503  502  0.00000000000E+00  0.00000000000E+00  0.89768570704E+03  0.89768570704E+03  0.00000000000E+00 0. -1.
         21   -1    0    0  501  503 -0.00000000000E+00 -0.00000000000E+00 -0.19655059839E+03  0.19655059839E+03  0.00000000000E+00 0. -1.
         25    1    1    2    0    0  0.13549565135E+02 -0.25559206211E+03  0.32599602852E+03  0.43290796198E+03  0.12500000000E+03 0.  0.
          2    1    1    2  501    0  0.24309544251E+02  0.19110234053E+03  0.48873277322E+03  0.52532921308E+03  0.00000000000E+00 0. -1.
         -2    1    1    2    0  502 -0.37859109386E+02  0.64489721585E+02 -0.11359369309E+03  0.13599913038E+03  0.00000000000E+00 0.  1.
<mgrwt>
<rscale>  4 0.24272609E+03</rscale>
<asrwt>0</asrwt>
<pdfrwt beam="1">  1       21 0.13810549E+00 0.24272609E+03</pdfrwt>
<pdfrwt beam="2">  1       21 0.30238554E-01 0.24272609E+03</pdfrwt>
<totfact> 0.37384526E+03</totfact>
</mgrwt>
</event>
<event>
 5    0  0.1702508E-001  0.2635858E+03  0.7546771E-02  0.1105008E+00
         21   -1    0    0  503  502  0.00000000000E+00  0.00000000000E+00  0.78564136105E+03  0.78564136105E+03  0.00000000000E+00 0.  1.
         21   -1    0    0  501  503 -0.00000000000E+00 -0.00000000000E+00 -0.87822574646E+03  0.87822574646E+03  0.00000000000E+00 0. -1.
         25    1    1    2    0    0 -0.18660001975E+02  0.24147371906E+03  0.62676530619E+03  0.68345994888E+03  0.12500000000E+03 0.  0.
          1    1    1    2  501    0 -0.60677530280E+02 -0.20295204024E+03  0.40322891267E+02  0.21563216105E+03  0.00000000000E+00 0.  1.
         -1    1    1    2    0  502  0.79337532255E+02 -0.38521678823E+02 -0.75967258287E+03  0.76477499758E+03  0.00000000000E+00 0. -1.
<mgrwt>
<rscale>  4 0.26358579E+03</rscale>
<asrwt>0</asrwt>
<pdfrwt beam="1">  1       21 0.12086790E+00 0.26358579E+03</pdfrwt>
<pdfrwt beam="2">  1       21 0.13511165E+00 0.26358579E+03</pdfrwt>
<totfact> 0.18812403E+02</totfact>
</mgrwt>
</event>
<event>
 5    0  0.1702508E-001  0.2583419E+03  0.7546771E-02  0.1108144E+00
         21   -1    0    0  503  502  0.00000000000E+00  0.00000000000E+00  0.13850288251E+03  0.13850288251E+03  0.00000000000E+00 0.  1.
         21   -1    0    0  501  503 -0.00000000000E+00 -0.00000000000E+00 -0.15789158739E+04  0.15789158739E+04  0.00000000000E+00 0.  1.
         25    1    1    2    0    0 -0.21583350935E+03  0.68583642228E+02 -0.16244112339E+02  0.25918466568E+03  0.12500000000E+03 0.  0.
          3    1    1    2  501    0  0.22114638250E+03 -0.42941460482E+02 -0.73921296595E+03  0.77277778213E+03  0.00000000000E+00 0.  1.
         -3    1    1    2    0  502 -0.53128731569E+01 -0.25642181746E+02 -0.68495591305E+03  0.68545630855E+03  0.00000000000E+00 0. -1.
<mgrwt>
<rscale>  4 0.25834185E+03</rscale>
<asrwt>0</asrwt>
<pdfrwt beam="1">  1       21 0.21308136E-01 0.25834185E+03</pdfrwt>
<pdfrwt beam="2">  1       21 0.24291014E+00 0.25834185E+03</pdfrwt>
<totfact> 0.14035558E+03</totfact>
</mgrwt>
</event>
<event>
 5    0  0.1702508E-001  0.2887510E+03  0.7546771E-02  0.1091003E+00
         21   -1    0    0  503  502  0.00000000000E+00  0.00000000000E+00  0.25576859358E+03  0.25576859358E+03  0.00000000000E+00 0. -1.
         21   -1    0    0  501  503 -0.00000000000E+00 -0.00000000000E+00 -0.64151366634E+03  0.64151366634E+03  0.00000000000E+00 0. -1.
         25    1    1    2    0    0 -0.91408491443E+02  0.25242216149E+03  0.69756241014E+02  0.30424232624E+03  0.12500000000E+03 0.  0.
          2    1    1    2  501    0  0.13027522700E+02 -0.20281423080E+02 -0.30402894303E+03  0.30498303342E+03  0.00000000000E+00 0. -1.
         -2    1    1    2    0  502  0.78380968742E+02 -0.23214073841E+03 -0.15147237075E+03  0.28805690026E+03  0.00000000000E+00 0.  1.
<mgrwt>
<rscale>  4 0.28875101E+03</rscale>
<asrwt>0</asrwt>
<pdfrwt beam="1">  1       21 0.39349015E-01 0.28875101E+03</pdfrwt>
<pdfrwt beam="2">  1       21 0.98694409E-01 0.28875101E+03</pdfrwt>
<totfact> 0.49497478E+03</totfact>
</mgrwt>
</event>
<event>
 5    0  0.1702508E-001  0.2749896E+03  0.7546771E-02  0.1098457E+00
         21   -1    0    0  503  502  0.00000000000E+00  0.00000000000E+00  0.37243758680E+03  0.37243758680E+03  0.00000000000E+00 0. -1.
         21   -1    0    0  501  503 -0.00000000000E+00 -0.00000000000E+00 -0.37137130613E+03  0.37137130613E+03  0.00000000000E+00 0. -1.
         25    1    1    2    0    0 -0.90607930074E+01  0.32855017627E+03  0.61344661236E+02  0.35695305540E+03  0.12500000000E+03 0.  0.
          1    1    1    2  501    0  0.54736140924E+02 -0.21340824626E+03 -0.11830202559E+03  0.25006897839E+03  0.00000000000E+00 0. -1.
         -1    1    1    2    0  502 -0.45675347917E+02 -0.11514193001E+03  0.58023645016E+02  0.13678685915E+03  0.00000000000E+00 0.  1.
<mgrwt>
<rscale>  4 0.27498962E+03</rscale>
<asrwt>0</asrwt>
<pdfrwt beam="1">  1       21 0.57298090E-01 0.27498962E+03</pdfrwt>
<pdfrwt beam="2">  1       21 0.57134047E-01 0.27498962E+03</pdfrwt>
<totfact> 0.78199391E+03</totfact>
</mgrwt>
</event>
<event>
 5    0  0.1702508E-001  0.2601504E+03  0.7546771E-02  0.1107053E+00
         21   -1    0    0  503  502  0.00000000000E+00  0.00000000000E+00  0.66947069316E+03  0.66947069316E+03  0.00000000000E+00 0.  1.
         21   -1    0    0  501  503 -0.00000000000E+00 -0.00000000000E+00 -0.25909518996E+03  0.25909518996E+03  0.00000000000E+00 0. -1.
         25    1    1    2    0    0  0.19897791165E+03  0.11091217154E+03  0.55965738471E+03  0.61703736304E+03  0.12500000000E+03 0.  0.
          1    1    1    2  501    0 -0.21946286240E+03 -0.79307526515E+02 -0.14201798419E+03  0.27317163024E+03  0.00000000000E+00 0. -1.
         -1    1    1    2    0  502  0.20484950749E+02 -0.31604645027E+02 -0.72638973155E+01  0.38356889846E+02  0.00000000000E+00 0.  1.
<mgrwt>
<rscale>  4 0.26015039E+03</rscale>
<asrwt>0</asrwt>
<pdfrwt beam="1">  1       21 0.10299549E+00 0.26015039E+03</pdfrwt>
<pdfrwt beam="2">  1       21 0.39860799E-01 0.26015039E+03</pdfrwt>
<totfact> 0.44235705E+03</totfact>
</mgrwt>
</event>
<event>
 5    0  0.1702508E-001  0.2708346E+03  0.7546771E-02  0.1100803E+00
         21   -1    0    0  503  502  0.00000000000E+00  0.00000000000E+00  0.18541253956E+03  0.18541253956E+03  0.00000000000E+00 0.  1.
         21   -1    0    0  501  503 -0.00000000000E+00 -0.00000000000E+00 -0.84288196308E+03  0.84288196308E+03  0.00000000000E+00 0. -1.
         25    1    1    2    0    0  0.13373373600E+03 -0.16645283210E+03 -0.30177251831E+03  0.39023442988E+03  0.12500000000E+03 0.  0.
          2    1    1    2  501    0 -0.16409784414E+03  0.18706533688E+03  0.29981025320E+02  0.25063999001E+03  0.00000000000E+00 0.  1.
         -2    1    1    2    0  502  0.30364108138E+02 -0.20612504772E+02 -0.38567793053E+03  0.38742008274E+03  0.00000000000E+00 0. -1.
<mgrwt>
<rscale>  4 0.27083463E+03</rscale>
<asrwt>0</asrwt>
<pdfrwt beam="1">  1       21 0.28525007E-01 0.27083463E+03</pdfrwt>
<pdfrwt beam="2">  1       21 0.12967415E+00 0.27083463E+03</pdfrwt>
<totfact> 0.48376516E+03</totfact>
</mgrwt>
</event>
<event>
 5    0  0.1702508E-001  0.3499433E+03  0.7546771E-02  0.1062638E+00
         21   -1    0    0  503  502  0.00000000000E+00  0.00000000000E+00  0.10083219845E+04  0.10083219845E+04  0.00000000000E+00 0.  1.
         21   -1    0    0  501  503 -0.00000000000E+00 -0.00000000000E+00 -0.57982283341E+03  0.57982283341E+03  0.00000000000E+00 0. -1.
         25    1    1    2    0    0 -0.26986726856E+03  0.17891617080E+03  0.82738833121E+03  0.89723786670E+03  0.12500000000E+03 0.  0.
          3    1    1    2  501    0  0.29075347110E+03 -0.18539099504E+03 -0.58428302074E+02  0.34974457606E+03  0.00000000000E+00 0.  1.
         -3    1    1    2    0  502 -0.20886202542E+02  0.64748242389E+01 -0.34046087800E+03  0.34116237521E+03  0.00000000000E+00 0. -1.
<mgrwt>
<rscale>  4 0.34994333E+03</rscale>
<asrwt>0</asrwt>
<pdfrwt beam="1">  1       21 0.15512646E+00 0.34994333E+03</pdfrwt>
<pdfrwt beam="2">  1       21 0.89203513E-01 0.34994333E+03</pdfrwt>
<totfact> 0.25451104E+02</totfact>
</mgrwt>
</event>
<event>
 5    0  0.1702508E-001  0.2399099E+03  0.7546771E-02  0.1119853E+00
         21   -1    0    0  503  502  0.00000000000E+00  0.00000000000E+00  0.44152044262E+03  0.44152044262E+03  0.00000000000E+00 0.  1.
         21   -1    0    0  501  503 -0.00000000000E+00 -0.00000000000E+00 -0.25351856251E+03  0.25351856251E+03  0.00000000000E+00 0.  1.
         25    1    1    2    0    0 -0.66373855978E+02 -0.19361347095E+03  0.32853510320E+03  0.40675788735E+03  0.12500000000E+03 0.  0.
          2    1    1    2  501    0  0.38975988046E+02 -0.13082836199E+02 -0.37767866721E+02  0.55827412656E+02  0.00000000000E+00 0. -1.
         -2    1    1    2    0  502  0.27397867932E+02  0.20669630714E+03 -0.10276535637E+03  0.23245370512E+03  0.00000000000E+00 0.  1.
<mgrwt>
<rscale>  4 0.23990987E+03</rscale>
<asrwt>0</asrwt>
<pdfrwt beam="1">  1       21 0.67926222E-01 0.23990987E+03</pdfrwt>
<pdfrwt beam="2">  1       21 0.39002856E-01 0.23990987E+03</pdfrwt>
<totfact> 0.12186669E+04</totfact>
</mgrwt>
</event>
<event>
 5    0  0.1702508E-001  0.2866992E+03  0.7546771E-02  0.1092085E+00
         21   -1    0    0  503  502  0.00000000000E+00  0.00000000000E+00  0.64845421112E+03  0.64845421112E+03  0.00000000000E+00 0.  1.
         21   -1    0    0  501  503 -0.00000000000E+00 -0.00000000000E+00 -0.16595991219E+03  0.16595991219E+03  0.00000000000E+00 0.  1.
         25    1    1    2    0    0 -0.12687619659E+02 -0.26370453905E+03  0.30744411450E+03  0.42408483013E+03  0.12500000000E+03 0.  0.
          4    1    1    2  501    0  0.33500487172E+02  0.25037988454E+03  0.22263007310E+03  0.33671429829E+03  0.00000000000E+00 0.  1.
         -4    1    1    2    0  502 -0.20812867513E+02  0.13324654501E+02 -0.47579888667E+02  0.53614994892E+02  0.00000000000E+00 0. -1.
<mgrwt>
<rscale>  4 0.28669920E+03</rscale>
<asrwt>0</asrwt>
<pdfrwt beam="1">  1       21 0.99762186E-01 0.28669920E+03</pdfrwt>
<pdfrwt beam="2">  1       21 0.25532294E-01 0.28669920E+03</pdfrwt>
<totfact> 0.11375667E+04</totfact>
</mgrwt>
</event>
<event>
 5    0  0.1702508E-001  0.2718016E+03  0.7546771E-02  0.1100253E+00
         21   -1    0    0  503  502  0.00000000000E+00  0.00000000000E+00  0.15221301060E+03  0.15221301060E+03  0.00000000000E+00 0.  1.
         21   -1    0    0  501  503 -0.00000000000E+00 -0.00000000000E+00 -0.11112322670E+04  0.11112322670E+04  0.00000000000E+00 0. -1.
         25    1    1    2    0    0  0.25329721728E+02 -0.21941826966E+03 -0.15382130285E+03  0.29676921180E+03  0.12500000000E+03 0.  0.
          1    1    1    2  501    0  0.15996821558E+03  0.29322404355E+03 -0.53772029958E+03  0.63301918635E+03  0.00000000000E+00 0. -1.
         -1    1    1    2    0  502 -0.18529793731E+03 -0.73805773896E+02 -0.26747765395E+03  0.33365687943E+03  0.00000000000E+00 0.  1.
<mgrwt>
<rscale>  4 0.27180158E+03</rscale>
<asrwt>0</asrwt>
<pdfrwt beam="1">  1       21 0.23417385E-01 0.27180158E+03</pdfrwt>
<pdfrwt beam="2">  1       21 0.17095882E+00 0.27180158E+03</pdfrwt>
<totfact> 0.33860597E+03</totfact>
</mgrwt>
</event>
<event>
 5    0  0.1702508E-001  0.4662859E+03  0.7546771E-02  0.1022974E+00
         21   -1    0    0  503  502  0.00000000000E+00  0.00000000000E+00  0.51157705900E+03  0.51157705900E+03  0.00000000000E+00 0.  1.
         21   -1    0    0  501  503 -0.00000000000E+00 -0.00000000000E+00 -0.55487943285E+03  0.55487943285E+03  0.00000000000E+00 0.  1.
         25    1    1    2    0    0  0.61378380699E+02  0.45440509224E+03  0.19263836362E+03  0.51282144320E+03  0.12500000000E+03 0.  0.
          3    1    1    2  501    0 -0.73770874696E+02 -0.42570652652E+03 -0.14224879395E+03  0.45486581324E+03  0.00000000000E+00 0.  1.
         -3    1    1    2    0  502  0.12392493997E+02 -0.28698565714E+02 -0.93691943523E+02  0.98769235405E+02  0.00000000000E+00 0. -1.
<mgrwt>
<rscale>  4 0.46628593E+03</rscale>
<asrwt>0</asrwt>
<pdfrwt beam="1">  1       21 0.78704163E-01 0.46628593E+03</pdfrwt>
<pdfrwt beam="2">  1       21 0.85366066E-01 0.46628593E+03</pdfrwt>
<totfact> 0.14427784E+03</totfact>
</mgrwt>
</event>
<event>
 5    0  0.1702508E-001  0.2479185E+03  0.7546771E-02  0.1114627E+00
         21   -1    0    0  503  502  0.00000000000E+00  0.00000000000E+00  0.15906766988E+03  0.15906766988E+03  0.00000000000E+00 0. -1.
         21   -1    0    0  501  503 -0.00000000000E+00 -0.00000000000E+00 -0.11612200346E+04  0.11612200346E+04  0.00000000000E+00 0.  1.
         25    1    1    2    0    0 -0.22261055033E+03 -0.11145440756E+03 -0.13448953161E+03  0.30933796436E+03  0.12500000000E+03 0.  0.
          4    1    1    2  501    0  0.16979372748E+03  0.92539521898E+02 -0.61616437118E+02  0.20295334027E+03  0.00000000000E+00 0. -1.
         -4    1    1    2    0  502  0.52816822848E+02  0.18914885667E+02 -0.80604639596E+03  0.80799639981E+03  0.00000000000E+00 0.  1.
<mgrwt>
<rscale>  4 0.24791850E+03</rscale>
<asrwt>0</asrwt>
<pdfrwt beam="1">  1       21 0.24471949E-01 0.24791850E+03</pdfrwt>
<pdfrwt beam="2">  1       21 0.17864924E+00 0.24791850E+03</pdfrwt>
<totfact> 0.27959066E+03</totfact>
</mgrwt>
</event>
<event>
 5    0  0.1702508E-001  0.2498356E+03  0.7546771E-02  0.1113409E+00
         21   -1    0    0  503  502  0.00000000000E+00  0.00000000000E+00  0.11371794391E+03  0.11371794391E+03  0.00000000000E+00 0.  1.
         21   -1    0    0  501  503 -0.00000000000E+00 -0.00000000000E+00 -0.77746384682E+03  0.77746384682E+03  0.00000000000E+00 0.  1.
         25    1    1    2    0    0  0.20293647283E+03 -0.74897302468E+02 -0.79472127220E+02  0.26217100703E+03  0.12500000000E+03 0.  0.
          2    1    1    2  501    0 -0.17487314510E+03  0.32829163695E+02 -0.39736435206E+03  0.43538121130E+03  0.00000000000E+00 0.  1.
         -2    1    1    2    0  502 -0.28063327737E+02  0.42068138773E+02 -0.18690942363E+03  0.19362957239E+03  0.00000000000E+00 0. -1.
<mgrwt>
<rscale>  4 0.24983558E+03</rscale>
<asrwt>0</asrwt>
<pdfrwt beam="1">  1       21 0.17495068E-01 0.24983558E+03</pdfrwt>
<pdfrwt beam="2">  1       21 0.11960983E+00 0.24983558E+03</pdfrwt>
<totfact> 0.15215264E+04</totfact>
</mgrwt>
</event>
<event>
 5    0  0.1702508E-001  0.2424476E+03  0.7546771E-02  0.1118173E+00
         21   -1    0    0  503  502  0.00000000000E+00  0.00000000000E+00  0.28475083376E+02  0.28475083376E+02  0.00000000000E+00 0. -1.
         21   -1    0    0  501  503 -0.00000000000E+00 -0.00000000000E+00 -0.21498439545E+04  0.21498439545E+04  0.00000000000E+00 0. -1.
         25    1    1    2    0    0  0.89669748540E+02  0.18739043381E+03 -0.76984895217E+03  0.80712344016E+03  0.12500000000E+03 0.  0.
          1    1    1    2  501    0 -0.17696957800E+02 -0.11960827364E+03 -0.52282490391E+03  0.53662389211E+03  0.00000000000E+00 0. -1.
         -1    1    1    2    0  502 -0.71972790740E+02 -0.67782160172E+02 -0.82869501499E+03  0.83457170556E+03  0.00000000000E+00 0.  1.
<mgrwt>
<rscale>  4 0.24244760E+03</rscale>
<asrwt>0</asrwt>
<pdfrwt beam="1">  1       21 0.43807829E-02 0.24244760E+03</pdfrwt>
<pdfrwt beam="2">  1       21 0.33074516E+00 0.24244760E+03</pdfrwt>
<totfact> 0.72312912E+03</totfact>
</mgrwt>
</event>
<event>
 5    0  0.1702508E-001  0.2544722E+03  0.7546771E-02  0.1110511E+00
         21   -1    0    0  503  502  0.00000000000E+00  0.00000000000E+00  0.17151119853E+04  0.17151119853E+04  0.00000000000E+00 0.  1.
         21   -1    0    0  501  503 -0.00000000000E+00 -0.00000000000E+00 -0.40838352565E+02  0.40838352565E+02  0.00000000000E+00 0.  1.
         25    1    1    2    0    0 -0.23858039498E+01 -0.23983328126E+03  0.93154318513E+03  0.97001206210E+03  0.12500000000E+03 0.  0.
          3    1    1    2  501    0  0.69692021213E+01  0.20750405532E+03  0.70988630152E+03  0.73962494809E+03  0.00000000000E+00 0.  1.
         -3    1    1    2    0  502 -0.45833981715E+01  0.32329225941E+02  0.32844146111E+02  0.46313327698E+02  0.00000000000E+00 0. -1.
<mgrwt>
<rscale>  4 0.25447225E+03</rscale>
<asrwt>0</asrwt>
<pdfrwt beam="1">  1       21 0.26386333E+00 0.25447225E+03</pdfrwt>
<pdfrwt beam="2">  1       21 0.62828248E-02 0.25447225E+03</pdfrwt>
<totfact> 0.95245205E+03</totfact>
</mgrwt>
</event>
<event>
 5    0  0.1702508E-001  0.2857818E+03  0.7546771E-02  0.1092572E+00
         21   -1    0    0  503  502  0.00000000000E+00  0.00000000000E+00  0.35158869237E+03  0.35158869237E+03  0.00000000000E+00 0. -1.
         21   -1    0    0  501  503 -0.00000000000E+00 -0.00000000000E+00 -0.99904809541E+03  0.99904809541E+03  0.00000000000E+00 0.  1.
         25    1    1    2    0    0 -0.16110203632E+03 -0.20150491790E+03  0.26568546119E+03  0.39086041285E+03  0.12500000000E+03 0.  0.
          4    1    1    2  501    0  0.17941948846E+03  0.17115050909E+03 -0.67690923685E+03  0.72089525212E+03  0.00000000000E+00 0.  1.
         -4    1    1    2    0  502 -0.18317452140E+02  0.30354408802E+02 -0.23623562739E+03  0.23888112281E+03  0.00000000000E+00 0. -1.
<mgrwt>
<rscale>  4 0.28578178E+03</rscale>
<asrwt>0</asrwt>
<pdfrwt beam="1">  1       21 0.54090569E-01 0.28578178E+03</pdfrwt>
<pdfrwt beam="2">  1       21 0.15369970E+00 0.28578178E+03</pdfrwt>
<totfact> 0.83371922E+02</totfact>
</mgrwt>
</event>
<event>
 5    0  0.1702508E-001  0.2989692E+03  0.7546771E-02  0.1085757E+00
         21   -1    0    0  503  502  0.00000000000E+00  0.00000000000E+00  0.74833832602E+03  0.74833832602E+03  0.00000000000E+00 0.  1.
         21   -1    0    0  501  503 -0.00000000000E+00 -0.00000000000E+00 -0.37913487950E+03  0.37913487950E+03  0.00000000000E+00 0. -1.
         25    1    1    2    0    0  0.25507950612E+03 -0.14533115616E+03  0.62168299938E+03  0.69878569756E+03  0.12500000000E+03 0.  0.
          2    1    1    2  501    0 -0.76599827077E+02  0.57530209010E+02 -0.20186317312E+03  0.22344126548E+03  0.00000000000E+00 0. -1.
         -2    1    1    2    0  502 -0.17847967905E+03  0.87800947154E+02 -0.50616379752E+02  0.20524624248E+03  0.00000000000E+00 0.  1.
<mgrwt>
<rscale>  4 0.29896915E+03</rscale>
<asrwt>0</asrwt>
<pdfrwt beam="1">  1       21 0.11512897E+00 0.29896915E+03</pdfrwt>
<pdfrwt beam="2">  1       21 0.58328443E-01 0.29896915E+03</pdfrwt>
<totfact> 0.14822949E+03</totfact>
</mgrwt>
</event>
<event>
 5    0  0.1702508E-001  0.2610117E+03  0.7546771E-02  0.1106537E+00
         21   -1    0    0  503  502  0.00000000000E+00  0.00000000000E+00  0.75187985482E+03  0.75187985482E+03  0.00000000000E+00 0. -1.
         21   -1    0    0  501  503 -0.00000000000E+00 -0.00000000000E+00 -0.44261983722E+03  0.44261983722E+03  0.00000000000E+00 0.  1.
         25    1    1    2    0    0  0.17490224328E+03 -0.14292325404E+03  0.65927837753E+03  0.70801894772E+03  0.12500000000E+03 0.  0.
          3    1    1    2  501    0 -0.23495870284E+03  0.14772143502E+03 -0.29149609690E+03  0.40248874383E+03  0.00000000000E+00 0.  1.
         -3    1    1    2    0  502  0.60056459562E+02 -0.47981809818E+01 -0.58522263024E+02  0.83992000484E+02  0.00000000000E+00 0. -1.
<mgrwt>
<rscale>  4 0.26101172E+03</rscale>
<asrwt>0</asrwt>
<pdfrwt beam="1">  1       21 0.11567382E+00 0.26101172E+03</pdfrwt>
<pdfrwt beam="2">  1       21 0.68095360E-01 0.26101172E+03</pdfrwt>
<totfact> 0.10718601E+03</totfact>
</mgrwt>
</event>
<event>
 5    0  0.1702508E-001  0.2379989E+03  0.7546771E-02  0.1121133E+00
         21   -1    0    0  503  502  0.00000000000E+00  0.00000000000E+00  0.28450628702E+03  0.28450628702E+03  0.00000000000E+00 0.  1.
         21   -1    0    0  501  503 -0.00000000000E+00 -0.00000000000E+00 -0.70162330007E+03  0.70162330007E+03  0.00000000000E+00 0. -1.
         25    1    1    2    0    0 -0.19353271080E+03  0.81409250549E+02  0.47036609189E+02  0.24883693220E+03  0.12500000000E+03 0.  0.
          2    1    1    2  501    0 -0.25517556935E+01 -0.46136226721E+02 -0.52650757814E+03  0.52853125992E+03  0.00000000000E+00 0. -1.
         -2    1    1    2    0  502  0.19608446649E+03 -0.35273023828E+02  0.62353955914E+02  0.20876139496E+03  0.00000000000E+00 0.  1.
<mgrwt>
<rscale>  4 0.23799890E+03</rscale>
<asrwt>0</asrwt>
<pdfrwt beam="1">  1       21 0.43770199E-01 0.23799890E+03</pdfrwt>
<pdfrwt beam="2">  1       21 0.10794204E+00 0.23799890E+03</pdfrwt>
<totfact> 0.33085654E+03</totfact>
</mgrwt>
</event>
<event>
 5    0  0.1702508E-001  0.3038253E+03  0.7546771E-02  0.1083344E+00
         21   -1    0    0  503  502  0.00000000000E+00  0.00000000000E+00  0.71955548876E+03  0.71955548876E+03  0.00000000000E+00 0. -1.
         21   -1    0    0  501  503 -0.00000000000E+00 -0.00000000000E+00 -0.44395589381E+03  0.44395589381E+03  0.00000000000E+00 0. -1.
         25    1    1    2    0    0 -0.20676821933E+03 -0.18981791801E+03  0.53424777941E+03  0.61630319513E+03  0.12500000000E+03 0.  0.
          3    1    1    2  501    0 -0.22208981073E+02  0.48761943985E+02 -0.27269011319E+03  0.27790441496E+03  0.00000000000E+00 0. -1.
         -3    1    1    2    0  502  0.22897720040E+03  0.14105597402E+03  0.14041928742E+02  0.26930377248E+03  0.00000000000E+00 0.  1.
<mgrwt>
<rscale>  4 0.30382531E+03</rscale>
<asrwt>0</asrwt>
<pdfrwt beam="1">  1       21 0.11070084E+00 0.30382531E+03</pdfrwt>
<pdfrwt beam="2">  1       21 0.68300907E-01 0.30382531E+03</pdfrwt>
<totfact> 0.11520069E+03</totfact>
</mgrwt>
</event>
<event>
 5    0  0.1702508E-001  0.2325533E+03  0.7546771E-02  0.1124855E+00
         21   -1    0    0  503  502  0.00000000000E+00  0.00000000000E+00  0.15563356528E+03  0.15563356528E+03  0.00000000000E+00 0.  1.
         21   -1    0    0  501  503 -0.00000000000E+00 -0.00000000000E+00 -0.50305637369E+03  0.50305637369E+03  0.00000000000E+00 0.  1.
         25    1    1    2    0    0  0.51715942577E+02 -0.20276339355E+03 -0.16692483858E+03  0.29542585231E+03  0.12500000000E+03 0.  0.
          2    1    1    2  501    0 -0.97186375439E+02  0.16517642788E+03 -0.22037946084E+03  0.29205402011E+03  0.00000000000E+00 0.  1.
         -2    1    1    2    0  502  0.45470432862E+02  0.37586965671E+02  0.39881491010E+02  0.71210066551E+02  0.00000000000E+00 0. -1.
<mgrwt>
<rscale>  4 0.23255332E+03</rscale>
<asrwt>0</asrwt>
<pdfrwt beam="1">  1       21 0.23943626E-01 0.23255332E+03</pdfrwt>
<pdfrwt beam="2">  1       21 0.77393288E-01 0.23255332E+03</pdfrwt>
<totfact> 0.23837432E+04</totfact>
</mgrwt>
</event>
<event>
 5    0  0.1702508E-001  0.3394569E+03  0.7546771E-02  0.1067027E+00
         21   -1    0    0  503  502  0.00000000000E+00  0.00000000000E+00  0.90320580002E+03  0.90320580002E+03  0.00000000000E+00 0. -1.
         21   -1    0    0  501  503 -0.00000000000E+00 -0.00000000000E+00 -0.30558119220E+03  0.30558119220E+03  0.00000000000E+00 0. -1.
         25    1    1    2    0    0 -0.21266337823E+03 -0.19280327535E+03  0.30579151894E+03  0.43764399742E+03  0.12500000000E+03 0.  0.
          4    1    1    2  501    0 -0.21157720852E+03  0.17581066371E+03  0.41344678736E+02  0.27817923557E+03  0.00000000000E+00 0.  1.
         -4    1    1    2    0  502  0.42424058675E+03  0.16992611634E+02  0.25048841014E+03  0.49296375923E+03  0.00000000000E+00 0. -1.
<mgrwt>
<rscale>  4 0.33945694E+03</rscale>
<asrwt>0</asrwt>
<pdfrwt beam="1">  1       21 0.13895474E+00 0.33945694E+03</pdfrwt>
<pdfrwt beam="2">  1       21 0.47012491E-01 0.33945694E+03</pdfrwt>
<totfact> 0.14173185E+03</totfact>
</mgrwt>
</event>
<event>
 5    0  0.1702508E-001  0.2906213E+03  0.7546771E-02  0.1090025E+00
         21   -1    0    0  503  502  0.00000000000E+00  0.00000000000E+00  0.30030111610E+03  0.30030111610E+03  0.00000000000E+00 0.  1.
         21   -1    0    0  501  503 -0.00000000000E+00 -0.00000000000E+00 -0.17948183406E+04  0.17948183406E+04  0.00000000000E+00 0. -1.
         25    1    1    2    0    0  0.86511428268E+02 -0.24684563546E+03  0.20819041657E+03  0.35691069543E+03  0.12500000000E+03 0.  0.
          1    1    1    2  501    0 -0.18056377275E+02 -0.19417555473E+02 -0.63892894831E+03  0.63947890912E+03  0.00000000000E+00 0.  1.
         -1    1    1    2    0  502 -0.68455050993E+02  0.26626319093E+03 -0.10637786927E+04  0.10987298521E+04  0.00000000000E+00 0. -1.
<mgrwt>
<rscale>  4 0.29062127E+03</rscale>
<asrwt>0</asrwt>
<pdfrwt beam="1">  1       21 0.46200173E-01 0.29062127E+03</pdfrwt>
<pdfrwt beam="2">  1       21 0.27612589E+00 0.29062127E+03</pdfrwt>
<totfact> 0.18675373E+02</totfact>
</mgrwt>
</event>
<event>
 5    0  0.1702508E-001  0.3928561E+03  0.7546771E-02  0.1046282E+00
         21   -1    0    0  503  502  0.00000000000E+00  0.00000000000E+00  0.11982734411E+04  0.11982734411E+04  0.00000000000E+00 0.  1.
         21   -1    0    0  501  503 -0.00000000000E+00 -0.00000000000E+00 -0.36274746522E+03  0.36274746522E+03  0.00000000000E+00 0. -1.
         25    1    1    2    0    0  0.13012463256E+03 -0.34725847567E+03  0.80189753908E+03  0.89229229074E+03  0.12500000000E+03 0.  0.
          2    1    1    2  501    0 -0.10600630298E+03  0.36150128119E+03  0.24897835637E+03  0.45156476227E+03  0.00000000000E+00 0. -1.
         -2    1    1    2    0  502 -0.24118329574E+02 -0.14242805522E+02 -0.21534991957E+03  0.21716385332E+03  0.00000000000E+00 0.  1.
<mgrwt>
<rscale>  4 0.39285612E+03</rscale>
<asrwt>0</asrwt>
<pdfrwt beam="1">  1       21 0.18434976E+00 0.39285612E+03</pdfrwt>
<pdfrwt beam="2">  1       21 0.55807303E-01 0.39285612E+03</pdfrwt>
<totfact> 0.43676158E+02</totfact>
</mgrwt>
</event>
<event>
 5    0  0.1702508E-001  0.2565092E+03  0.7546771E-02  0.1109259E+00
         21   -1    0    0  503  502  0.00000000000E+00  0.00000000000E+00  0.48339483262E+03  0.48339483262E+03  0.00000000000E+00 0.  1.
         21   -1    0    0  501  503 -0.00000000000E+00 -0.00000000000E+00 -0.15408467477E+04  0.15408467477E+04  0.00000000000E+00 0.  1.
         25    1    1    2    0    0  0.89069068430E+02  0.20540611776E+03  0.43441206990E+03  0.50444406889E+03  0.12500000000E+03 0.  0.
          2    1    1    2  501    0 -0.19971641083E+02  0.11819441878E+02 -0.55919154728E+03  0.55967289750E+03  0.00000000000E+00 0.  1.
         -2    1    1    2    0  502 -0.69097427347E+02 -0.21722555964E+03 -0.93267243774E+03  0.96012461396E+03  0.00000000000E+00 0. -1.
<mgrwt>
<rscale>  4 0.25650919E+03</rscale>
<asrwt>0</asrwt>
<pdfrwt beam="1">  1       21 0.74368435E-01 0.25650919E+03</pdfrwt>
<pdfrwt beam="2">  1       21 0.23705335E+00 0.25650919E+03</pdfrwt>
<totfact> 0.11840431E+02</totfact>
</mgrwt>
</event>
<event>
 5    0  0.1702508E-001  0.4121061E+03  0.7546771E-02  0.1039667E+00
         21   -1    0    0  503  502  0.00000000000E+00  0.00000000000E+00  0.39302817094E+03  0.39302817094E+03  0.00000000000E+00 0. -1.
         21   -1    0    0  501  503 -0.00000000000E+00 -0.00000000000E+00 -0.48144875414E+03  0.48144875414E+03  0.00000000000E+00 0.  1.
         25    1    1    2    0    0  0.20182062476E+03 -0.32746826348E+03 -0.13671893237E+03  0.42694741437E+03  0.12500000000E+03 0.  0.
          4    1    1    2  501    0  0.42804819257E+02  0.12874542824E+02 -0.68502964705E+01  0.45220935045E+02  0.00000000000E+00 0. -1.
         -4    1    1    2    0  502 -0.24462544402E+03  0.31459372066E+03  0.55148645635E+02  0.40230857566E+03  0.00000000000E+00 0.  1.
<mgrwt>
<rscale>  4 0.41210611E+03</rscale>
<asrwt>0</asrwt>
<pdfrwt beam="1">  1       21 0.60465873E-01 0.41210611E+03</pdfrwt>
<pdfrwt beam="2">  1       21 0.74069039E-01 0.41210611E+03</pdfrwt>
<totfact> 0.36926458E+03</totfact>
</mgrwt>
</event>
<event>
 5    0  0.1702508E-001  0.2699422E+03  0.7546771E-02  0.1101313E+00
         21   -1    0    0  503  502  0.00000000000E+00  0.00000000000E+00  0.52149799590E+03  0.52149799590E+03  0.00000000000E+00 0.  1.
         21   -1    0    0  501  503 -0.00000000000E+00 -0.00000000000E+00 -0.52827327292E+03  0.52827327292E+03  0.00000000000E+00 0. -1.
         25    1    1    2    0    0  0.33491567717E+02  0.23355867056E+03  0.31516715593E+03  0.41306981720E+03  0.12500000000E+03 0.  0.
          1    1    1    2  501    0  0.51204853768E+02  0.10490703039E+01 -0.37766764650E+03  0.38112450566E+03  0.00000000000E+00 0. -1.
         -1    1    1    2    0  502 -0.84696421485E+02 -0.23460774086E+03  0.55725213549E+02  0.25557694597E+03  0.00000000000E+00 0.  1.
<mgrwt>
<rscale>  4 0.26994221E+03</rscale>
<asrwt>0</asrwt>
<pdfrwt beam="1">  1       21 0.80230462E-01 0.26994221E+03</pdfrwt>
<pdfrwt beam="2">  1       21 0.81272811E-01 0.26994221E+03</pdfrwt>
<totfact> 0.17053414E+03</totfact>
</mgrwt>
</event>
<event>
 5    0  0.1702508E-001  0.2110242E+03  0.7546771E-02  0.1140758E+00
         21   -1    0    0  503  502  0.00000000000E+00  0.00000000000E+00  0.76809604684E+02  0.76809604684E+02  0.00000000000E+00 0.  1.
         21   -1    0    0  501  503 -0.00000000000E+00 -0.00000000000E+00 -0.13162770706E+04  0.13162770706E+04  0.00000000000E+00 0. -1.
         25    1    1    2    0    0  0.13965085124E+03 -0.17296722471E+03 -0.25652175149E+03  0.36172977492E+03  0.12500000000E+03 0.  0.
          3    1    1    2  501    0 -0.53847238561E+02  0.12466536594E+03 -0.19701430297E+03  0.23928145382E+03  0.00000000000E+00 0.  1.
         -3    1    1    2    0  502 -0.85803612675E+02  0.48301858768E+02 -0.78593141146E+03  0.79207544655E+03  0.00000000000E+00 0. -1.
<mgrwt>
<rscale>  4 0.21102418E+03</rscale>
<asrwt>0</asrwt>
<pdfrwt beam="1">  1       21 0.11816863E-01 0.21102418E+03</pdfrwt>
<pdfrwt beam="2">  1       21 0.20250415E+00 0.21102418E+03</pdfrwt>
<totfact> 0.76833892E+03</totfact>
</mgrwt>
</event>
<event>
 5    0  0.1702508E-001  0.2728225E+03  0.7546771E-02  0.1099675E+00
         21   -1    0    0  503  502  0.00000000000E+00  0.00000000000E+00  0.71714916428E+03  0.71714916428E+03  0.00000000000E+00 0. -1.
         21   -1    0    0  501  503 -0.00000000000E+00 -0.00000000000E+00 -0.11352099303E+03  0.11352099303E+03  0.00000000000E+00 0.  1.
         25    1    1    2    0    0  0.20868097071E+03  0.14796205300E+03  0.26417297710E+03  0.38839783533E+03  0.12500000000E+03 0.  0.
          4    1    1    2  501    0 -0.19413772717E+03 -0.13208952251E+03  0.34741004521E+03  0.41932187945E+03  0.00000000000E+00 0.  1.
         -4    1    1    2    0  502 -0.14543243540E+02 -0.15872530487E+02 -0.79548510567E+01  0.22950442524E+02  0.00000000000E+00 0. -1.
<mgrwt>
<rscale>  4 0.27282254E+03</rscale>
<asrwt>0</asrwt>
<pdfrwt beam="1">  1       21 0.11033064E+00 0.27282254E+03</pdfrwt>
<pdfrwt beam="2">  1       21 0.17464769E-01 0.27282254E+03</pdfrwt>
<totfact> 0.18411736E+04</totfact>
</mgrwt>
</event>
<event>
 5    0  0.1702508E-001  0.3130578E+03  0.7546771E-02  0.1078889E+00
         21   -1    0    0  503  502  0.00000000000E+00  0.00000000000E+00  0.18798882076E+03  0.18798882076E+03  0.00000000000E+00 0.  1.
         21   -1    0    0  501  503 -0.00000000000E+00 -0.00000000000E+00 -0.12477362026E+04  0.12477362026E+04  0.00000000000E+00 0. -1.
         25    1    1    2    0    0 -0.28610265201E+03  0.66433656135E+02  0.21463583504E+00  0.31920714940E+03  0.12500000000E+03 0.  0.
          3    1    1    2  501    0  0.25784222427E+03 -0.43079123130E+02 -0.59233502996E+03  0.64745595308E+03  0.00000000000E+00 0. -1.
         -3    1    1    2    0  502  0.28260427746E+02 -0.23354533005E+02 -0.46762698771E+03  0.46906192088E+03  0.00000000000E+00 0.  1.
<mgrwt>
<rscale>  4 0.31305784E+03</rscale>
<asrwt>0</asrwt>
<pdfrwt beam="1">  1       21 0.28921357E-01 0.31305784E+03</pdfrwt>
<pdfrwt beam="2">  1       21 0.19195941E+00 0.31305784E+03</pdfrwt>
<totfact> 0.15689210E+03</totfact>
</mgrwt>
</event>
<event>
 5    0  0.1702508E-001  0.2544336E+03  0.7546771E-02  0.1110535E+00
         21   -1    0    0  503  502  0.00000000000E+00  0.00000000000E+00  0.12243826666E+04  0.12243826666E+04  0.00000000000E+00 0.  1.
         21   -1    0    0  501  503 -0.00000000000E+00 -0.00000000000E+00 -0.17702691285E+03  0.17702691285E+03  0.00000000000E+00 0. -1.
         25    1    1    2    0    0  0.17876024132E+03 -0.13098175321E+03  0.11233748654E+04  0.11518279089E+04  0.12500000000E+03 0.  0.
          1    1    1    2  501    0 -0.15652854539E+03  0.80952457495E+02 -0.82267249210E+02  0.19447978350E+03  0.00000000000E+00 0. -1.
         -1    1    1    2    0  502 -0.22231695923E+02  0.50029295712E+02  0.62481375664E+01  0.55101887047E+02  0.00000000000E+00 0.  1.
<mgrwt>
<rscale>  4 0.25443357E+03</rscale>
<asrwt>0</asrwt>
<pdfrwt beam="1">  1       21 0.18836656E+00 0.25443357E+03</pdfrwt>
<pdfrwt beam="2">  1       21 0.27234910E-01 0.25443357E+03</pdfrwt>
<totfact> 0.19438048E+03</totfact>
</mgrwt>
</event>
<event>
 5    0  0.1702508E-001  0.2462142E+03  0.7546771E-02  0.1115721E+00
         21   -1    0    0  503  502  0.00000000000E+00  0.00000000000E+00  0.43860712891E+03  0.43860712891E+03  0.00000000000E+00 0. -1.
         21   -1    0    0  501  503 -0.00000000000E+00 -0.00000000000E+00 -0.36616485282E+03  0.36616485282E+03  0.00000000000E+00 0.  1.
         25    1    1    2    0    0  0.79806317642E+02 -0.19727232926E+03  0.11373751457E+03  0.27174738719E+03  0.12500000000E+03 0.  0.
          2    1    1    2  501    0 -0.24388295914E+03 -0.33801504727E+02  0.26985199717E+01  0.24622900214E+03  0.00000000000E+00 0. -1.
         -2    1    1    2    0  502  0.16407664150E+03  0.23107383398E+03 -0.43993758444E+02  0.28679559240E+03  0.00000000000E+00 0.  1.
<mgrwt>
<rscale>  4 0.24621421E+03</rscale>
<asrwt>0</asrwt>
<pdfrwt beam="1">  1       21 0.67478019E-01 0.24621421E+03</pdfrwt>
<pdfrwt beam="2">  1       21 0.56333055E-01 0.24621421E+03</pdfrwt>
<totfact> 0.57381151E+03</totfact>
</mgrwt>
</event>
<event>
 5    0  0.1702508E-001  0.2142032E+03  0.7546771E-02  0.1138280E+00
         21   -1    0    0  503  502  0.00000000000E+00  0.00000000000E+00  0.10579487843E+04  0.10579487843E+04  0.00000000000E+00 0. -1.
         21   -1    0    0  501  503 -0.00000000000E+00 -0.00000000000E+00 -0.66143571957E+02  0.66143571957E+02  0.00000000000E+00 0. -1.
         25    1    1    2    0    0 -0.13820787902E+02  0.21015839275E+03  0.73206755513E+03  0.77194913659E+03  0.12500000000E+03 0.  0.
          3    1    1    2  501    0 -0.24830207267E+02 -0.48500154711E+02  0.13107753930E+03  0.14195113775E+03  0.00000000000E+00 0.  1.
         -3    1    1    2    0  502  0.38650995169E+02 -0.16165823803E+03  0.12866011789E+03  0.21019208189E+03  0.00000000000E+00 0. -1.
<mgrwt>
<rscale>  4 0.21420320E+03</rscale>
<asrwt>0</asrwt>
<pdfrwt beam="1">  1       21 0.16276134E+00 0.21420320E+03</pdfrwt>
<pdfrwt beam="2">  1       21 0.10175935E-01 0.21420320E+03</pdfrwt>
<totfact> 0.18630399E+04</totfact>
</mgrwt>
</event>
<event>
 5    0  0.1702508E-001  0.2637069E+03  0.7546771E-02  0.1104936E+00
         21   -1    0    0  503  502  0.00000000000E+00  0.00000000000E+00  0.10147662296E+04  0.10147662296E+04  0.00000000000E+00 0.  1.
         21   -1    0    0  501  503 -0.00000000000E+00 -0.00000000000E+00 -0.94914110859E+02  0.94914110859E+02  0.00000000000E+00 0.  1.
         25    1    1    2    0    0 -0.23148914077E+03 -0.81795015222E+02  0.64535571796E+03  0.70170267886E+03  0.12500000000E+03 0.  0.
          2    1    1    2  501    0  0.21806000645E+03  0.12152387216E+02  0.25222078191E+03  0.33363628363E+03  0.00000000000E+00 0.  1.
         -2    1    1    2    0  502  0.13429134319E+02  0.69642628006E+02  0.22275618889E+02  0.74341377987E+02  0.00000000000E+00 0. -1.
<mgrwt>
<rscale>  4 0.26370694E+03</rscale>
<asrwt>0</asrwt>
<pdfrwt beam="1">  1       21 0.15611787E+00 0.26370694E+03</pdfrwt>
<pdfrwt beam="2">  1       21 0.14602172E-01 0.26370694E+03</pdfrwt>
<totfact> 0.10564047E+04</totfact>
</mgrwt>
</event>
<event>
 5    0  0.1702508E-001  0.2433919E+03  0.7546771E-02  0.1117554E+00
         21   -1    0    0  503  502  0.00000000000E+00  0.00000000000E+00  0.43705136834E+03  0.43705136834E+03  0.00000000000E+00 0.  1.
         21   -1    0    0  501  503 -0.00000000000E+00 -0.00000000000E+00 -0.56279015163E+03  0.56279015163E+03  0.00000000000E+00 0. -1.
         25    1    1    2    0    0  0.28282672559E+02  0.20181181647E+03  0.20070104842E+03  0.31214392461E+03  0.12500000000E+03 0.  0.
          3    1    1    2  501    0 -0.14764472916E+03  0.13503306656E+02 -0.40338355278E+03  0.42976690891E+03  0.00000000000E+00 0.  1.
         -3    1    1    2    0  502  0.11936205660E+03 -0.21531512312E+03  0.76943721065E+02  0.25793068645E+03  0.00000000000E+00 0. -1.
<mgrwt>
<rscale>  4 0.24339192E+03</rscale>
<asrwt>0</asrwt>
<pdfrwt beam="1">  1       21 0.67238673E-01 0.24339192E+03</pdfrwt>
<pdfrwt beam="2">  1       21 0.86583100E-01 0.24339192E+03</pdfrwt>
<totfact> 0.22313289E+03</totfact>
</mgrwt>
</event>
<event>
 5    0  0.1702508E-001  0.2626748E+03  0.7546771E-02  0.1105547E+00
         21   -1    0    0  503  502  0.00000000000E+00  0.00000000000E+00  0.22976577177E+03  0.22976577177E+03  0.00000000000E+00 0. -1.
         21   -1    0    0  501  503 -0.00000000000E+00 -0.00000000000E+00 -0.17362616713E+04  0.17362616713E+04  0.00000000000E+00 0. -1.
         25    1    1    2    0    0  0.38964547704E+02  0.24456140716E+03  0.10381792045E+03  0.29619533834E+03  0.12500000000E+03 0.  0.
          3    1    1    2  501    0  0.30919170701E+02 -0.74506180679E+02 -0.13428560915E+04  0.13452767925E+04  0.00000000000E+00 0. -1.
         -3    1    1    2    0  502 -0.69883718405E+02 -0.17005522648E+03 -0.26745772853E+03  0.32455531224E+03  0.00000000000E+00 0.  1.
<mgrwt>
<rscale>  4 0.26267480E+03</rscale>
<asrwt>0</asrwt>
<pdfrwt beam="1">  1       21 0.35348580E-01 0.26267480E+03</pdfrwt>
<pdfrwt beam="2">  1       21 0.26711718E+00 0.26267480E+03</pdfrwt>
<totfact> 0.37490877E+02</totfact>
</mgrwt>
</event>
<event>
 5    0  0.1702508E-001  0.2298707E+03  0.7546771E-02  0.1126731E+00
         21   -1    0    0  503  502  0.00000000000E+00  0.00000000000E+00  0.80018145044E+03  0.80018145044E+03  0.00000000000E+00 0.  1.
         21   -1    0    0  501  503 -0.00000000000E+00 -0.00000000000E+00 -0.12699952119E+03  0.12699952119E+03  0.00000000000E+00 0. -1.
         25    1    1    2    0    0  0.17691589891E+03 -0.10517874874E+03  0.60247824358E+03  0.64881957311E+03  0.12500000000E+03 0.  0.
          1    1    1    2  501    0 -0.15300410034E+03  0.73079075255E+02  0.12517882103E+03  0.21076181626E+03  0.00000000000E+00 0. -1.
         -1    1    1    2    0  502 -0.23911798579E+02  0.32099673483E+02 -0.54475135360E+02  0.67599582258E+02  0.00000000000E+00 0.  1.
<mgrwt>
<rscale>  4 0.22987070E+03</rscale>
<asrwt>0</asrwt>
<pdfrwt beam="1">  1       21 0.12310484E+00 0.22987070E+03</pdfrwt>
<pdfrwt beam="2">  1       21 0.19538388E-01 0.22987070E+03</pdfrwt>
<totfact> 0.11655027E+04</totfact>
</mgrwt>
</event>
<event>
 5    0  0.1702508E-001  0.2109878E+03  0.7546771E-02  0.1140786E+00
         21   -1    0    0  503  502  0.00000000000E+00  0.00000000000E+00  0.27882593299E+03  0.27882593299E+03  0.00000000000E+00 0.  1.
         21   -1    0    0  501  503 -0.00000000000E+00 -0.00000000000E+00 -0.10642152245E+04  0.10642152245E+04  0.00000000000E+00 0.  1.
         25    1    1    2    0    0 -0.61194976844E+02 -0.21792084520E+03  0.35618086586E+02  0.26101334843E+03  0.12500000000E+03 0.  0.
          2    1    1    2  501    0  0.12276035593E+03  0.11560336864E+03 -0.91478354232E+03  0.93019523387E+03  0.00000000000E+00 0.  1.
         -2    1    1    2    0  502 -0.61565379087E+02  0.10231747656E+03  0.93776164218E+02  0.15183257518E+03  0.00000000000E+00 0. -1.
<mgrwt>
<rscale>  4 0.21098782E+03</rscale>
<asrwt>0</asrwt>
<pdfrwt beam="1">  1       21 0.42896298E-01 0.21098782E+03</pdfrwt>
<pdfrwt beam="2">  1       21 0.16372542E+00 0.21098782E+03</pdfrwt>
<totfact> 0.12132604E+03</totfact>
</mgrwt>
</event>
<event>
 5    0  0.1702508E-001  0.2599621E+03  0.7546771E-02  0.1107166E+00
         21   -1    0    0  503  502  0.00000000000E+00  0.00000000000E+00  0.17333209008E+03  0.17333209008E+03  0.00000000000E+00 0. -1.
         21   -1    0    0  501  503 -0.00000000000E+00 -0.00000000000E+00 -0.52028311893E+03  0.52028311893E+03  0.00000000000E+00 0. -1.
         25    1    1    2    0    0 -0.16550900720E+03 -0.19167529206E+03 -0.62932992221E+02  0.28934099357E+03  0.12500000000E+03 0.  0.
          1    1    1    2  501    0  0.77910781845E+02  0.18085451337E+03 -0.21986195055E+03  0.29515711449E+03  0.00000000000E+00 0. -1.
         -1    1    1    2    0  502  0.87598225356E+02  0.10820778689E+02 -0.64156086088E+02  0.10911710095E+03  0.00000000000E+00 0.  1.
<mgrwt>
<rscale>  4 0.25996214E+03</rscale>
<asrwt>0</asrwt>
<pdfrwt beam="1">  1       21 0.26666476E-01 0.25996214E+03</pdfrwt>
<pdfrwt beam="2">  1       21 0.80043556E-01 0.25996214E+03</pdfrwt>
<totfact> 0.17714507E+04</totfact>
</mgrwt>
</event>
<event>
 5    0  0.1702508E-001  0.3128825E+03  0.7546771E-02  0.1078972E+00
         21   -1    0    0  503  502  0.00000000000E+00  0.00000000000E+00  0.46025943408E+03  0.46025943408E+03  0.00000000000E+00 0.  1.
         21   -1    0    0  501  503 -0.00000000000E+00 -0.00000000000E+00 -0.27408563815E+03  0.27408563815E+03  0.00000000000E+00 0.  1.
         25    1    1    2    0    0  0.12341002559E+03 -0.24096545662E+03  0.10665007539E+03  0.31669168647E+03  0.12500000000E+03 0.  0.
          3    1    1    2  501    0 -0.17046171408E+03  0.24983364697E+03  0.14590907802E+03  0.33580277869E+03  0.00000000000E+00 0.  1.
         -3    1    1    2    0  502  0.47051688498E+02 -0.88681903512E+01 -0.66385357482E+02  0.81850607076E+02  0.00000000000E+00 0. -1.
<mgrwt>
<rscale>  4 0.31288252E+03</rscale>
<asrwt>0</asrwt>
<pdfrwt beam="1">  1       21 0.70809144E-01 0.31288252E+03</pdfrwt>
<pdfrwt beam="2">  1       21 0.42167021E-01 0.31288252E+03</pdfrwt>
<totfact> 0.91417987E+03</totfact>
</mgrwt>
</event>
<event>
 5    0  0.1702508E-001  0.2695255E+03  0.7546771E-02  0.1101551E+00
         21   -1    0    0  503  502  0.00000000000E+00  0.00000000000E+00  0.10482218910E+04  0.10482218910E+04  0.00000000000E+00 0.  1.
         21   -1    0    0  501  503 -0.00000000000E+00 -0.00000000000E+00 -0.28275289019E+03  0.28275289019E+03  0.00000000000E+00 0. -1.
         25    1    1    2    0    0 -0.24553002243E+03  0.68664814662E+01  0.92967648098E+03  0.96966772647E+03  0.12500000000E+03 0.  0.
          2    1    1    2  501    0  0.20218378290E+03 -0.25475718388E+01 -0.11520497763E+02  0.20252776121E+03  0.00000000000E+00 0. -1.
         -2    1    1    2    0  502  0.43346239526E+02 -0.43189096273E+01 -0.15268698239E+03  0.15877929353E+03  0.00000000000E+00 0.  1.
<mgrwt>
<rscale>  4 0.26952554E+03</rscale>
<asrwt>0</asrwt>
<pdfrwt beam="1">  1       21 0.16126490E+00 0.26952554E+03</pdfrwt>
<pdfrwt beam="2">  1       21 0.43500445E-01 0.26952554E+03</pdfrwt>
<totfact> 0.11687742E+03</totfact>
</mgrwt>
</event>
<event>
 5    0  0.1702508E-001  0.2495217E+03  0.7546771E-02  0.1113607E+00
         21   -1    0    0  503  502  0.00000000000E+00  0.00000000000E+00  0.32824833606E+03  0.32824833606E+03  0.00000000000E+00 0. -1.
         21   -1    0    0  501  503 -0.00000000000E+00 -0.00000000000E+00 -0.83934740568E+03  0.83934740568E+03  0.00000000000E+00 0. -1.
         25    1    1    2    0    0  0.98146761780E+02  0.18206994099E+03  0.17739528429E+03  0.29979382440E+03  0.12500000000E+03 0.  0.
          4    1    1    2  501    0  0.60893667573E+02  0.45504927620E+01 -0.60604712450E+03  0.60911563997E+03  0.00000000000E+00 0.  1.
         -4    1    1    2    0  502 -0.15904042935E+03 -0.18662043375E+03 -0.82447229416E+02  0.25868627737E+03  0.00000000000E+00 0. -1.
<mgrwt>
<rscale>  4 0.24952166E+03</rscale>
<asrwt>0</asrwt>
<pdfrwt beam="1">  1       21 0.50499743E-01 0.24952166E+03</pdfrwt>
<pdfrwt beam="2">  1       21 0.12913037E+00 0.24952166E+03</pdfrwt>
<totfact> 0.15621154E+03</totfact>
</mgrwt>
</event>
<event>
 5    0  0.1702508E-001  0.2666478E+03  0.7546771E-02  0.1103214E+00
         21   -1    0    0  503  502  0.00000000000E+00  0.00000000000E+00  0.69865283483E+02  0.69865283483E+02  0.00000000000E+00 0. -1.
         21   -1    0    0  501  503 -0.00000000000E+00 -0.00000000000E+00 -0.10889567374E+04  0.10889567374E+04  0.00000000000E+00 0. -1.
         25    1    1    2    0    0  0.22886790716E+03 -0.91397659092E+02 -0.46195510519E+03  0.53829505870E+03  0.12500000000E+03 0.  0.
          1    1    1    2  501    0 -0.21449283795E+03  0.73130769401E+02 -0.38434987440E+03  0.44618394516E+03  0.00000000000E+00 0. -1.
         -1    1    1    2    0  502 -0.14375069207E+02  0.18266889691E+02 -0.17278647429E+03  0.17434301698E+03  0.00000000000E+00 0.  1.
<mgrwt>
<rscale>  4 0.26664778E+03</rscale>
<asrwt>0</asrwt>
<pdfrwt beam="1">  1       21 0.10748505E-01 0.26664778E+03</pdfrwt>
<pdfrwt beam="2">  1       21 0.16753181E+00 0.26664778E+03</pdfrwt>
<totfact> 0.15126827E+04</totfact>
</mgrwt>
</event>
<event>
 5    0  0.1702508E-001  0.2471813E+03  0.7546771E-02  0.1115099E+00
         21   -1    0    0  503  502  0.00000000000E+00  0.00000000000E+00  0.31167170667E+03  0.31167170667E+03  0.00000000000E+00 0. -1.
         21   -1    0    0  501  503 -0.00000000000E+00 -0.00000000000E+00 -0.54462528889E+03  0.54462528889E+03  0.00000000000E+00 0.  1.
         25    1    1    2    0    0  0.14780587177E+02 -0.20226725601E+03  0.18192304755E+03  0.29975240422E+03  0.12500000000E+03 0.  0.
          3    1    1    2  501    0  0.66855797515E+01  0.28415257585E+03 -0.34325845987E+03  0.44566102994E+03  0.00000000000E+00 0.  1.
         -3    1    1    2    0  502 -0.21466166928E+02 -0.81885319846E+02 -0.71618169899E+02  0.11088356140E+03  0.00000000000E+00 0. -1.
<mgrwt>
<rscale>  4 0.24718133E+03</rscale>
<asrwt>0</asrwt>
<pdfrwt beam="1">  1       21 0.47949494E-01 0.24718133E+03</pdfrwt>
<pdfrwt beam="2">  1       21 0.83788505E-01 0.24718133E+03</pdfrwt>
<totfact> 0.49513497E+03</totfact>
</mgrwt>
</event>
<event>
 5    0  0.1702508E-001  0.2947986E+03  0.7546771E-02  0.1087870E+00
         21   -1    0    0  503  502  0.00000000000E+00  0.00000000000E+00  0.28636745823E+03  0.28636745823E+03  0.00000000000E+00 0. -1.
         21   -1    0    0  501  503 -0.00000000000E+00 -0.00000000000E+00 -0.13393747760E+04  0.13393747760E+04  0.00000000000E+00 0. -1.
         25    1    1    2    0    0  0.22597391375E+03  0.14083946885E+03  0.14837010216E+03  0.32945204947E+03  0.12500000000E+03 0.  0.
          4    1    1    2  501    0  0.41813195982E+02 -0.62935500729E+02 -0.82183085414E+03  0.82529702134E+03  0.00000000000E+00 0. -1.
         -4    1    1    2    0  502 -0.26778710974E+03 -0.77903968124E+02 -0.37954656576E+03  0.47099316340E+03  0.00000000000E+00 0.  1.
<mgrwt>
<rscale>  4 0.29479859E+03</rscale>
<asrwt>0</asrwt>
<pdfrwt beam="1">  1       21 0.44056532E-01 0.29479859E+03</pdfrwt>
<pdfrwt beam="2">  1       21 0.20605766E+00 0.29479859E+03</pdfrwt>
<totfact> 0.55021312E+02</totfact>
</mgrwt>
</event>
<event>
 5    0  0.1702508E-001  0.3063431E+03  0.7546771E-02  0.1082112E+00
         21   -1    0    0  503  502  0.00000000000E+00  0.00000000000E+00  0.48102635712E+03  0.48102635712E+03  0.00000000000E+00 0. -1.
         21   -1    0    0  501  503 -0.00000000000E+00 -0.00000000000E+00 -0.50322667862E+03  0.50322667862E+03  0.00000000000E+00 0.  1.
         25    1    1    2    0    0 -0.26943156208E+03 -0.14349246976E+03  0.94716968377E+02  0.34319055876E+03  0.12500000000E+03 0.  0.
          1    1    1    2  501    0  0.28136339876E+03 -0.76621487521E+02 -0.24954000674E+03  0.38380519730E+03  0.00000000000E+00 0.  1.
         -1    1    1    2    0  502 -0.11931836677E+02  0.22011395728E+03  0.13262271686E+03  0.25725727967E+03  0.00000000000E+00 0. -1.
<mgrwt>
<rscale>  4 0.30634313E+03</rscale>
<asrwt>0</asrwt>
<pdfrwt beam="1">  1       21 0.74004055E-01 0.30634313E+03</pdfrwt>
<pdfrwt beam="2">  1       21 0.77419489E-01 0.30634313E+03</pdfrwt>
<totfact> 0.22378624E+03</totfact>
</mgrwt>
</event>
<event>
 5    0  0.1702508E-001  0.2851034E+03  0.7546771E-02  0.1092934E+00
         21   -1    0    0  503  502  0.00000000000E+00  0.00000000000E+00  0.14449375559E+04  0.14449375559E+04  0.00000000000E+00 0.  1.
         21   -1    0    0  501  503 -0.00000000000E+00 -0.00000000000E+00 -0.88231444460E+02  0.88231444460E+02  0.00000000000E+00 0.  1.
         25    1    1    2    0    0  0.29216066183E+03  0.89834825779E+01  0.41534318562E+03  0.52304255766E+03  0.12500000000E+03 0.  0.
          2    1    1    2  501    0 -0.48685031366E+02 -0.45452383316E+02  0.44537933066E+02  0.80123522826E+02  0.00000000000E+00 0. -1.
         -2    1    1    2    0  502 -0.24347563046E+03  0.36468900739E+02  0.89682499273E+03  0.93000291986E+03  0.00000000000E+00 0.  1.
<mgrwt>
<rscale>  4 0.28510337E+03</rscale>
<asrwt>0</asrwt>
<pdfrwt beam="1">  1       21 0.22229807E+00 0.28510337E+03</pdfrwt>
<pdfrwt beam="2">  1       21 0.13574069E-01 0.28510337E+03</pdfrwt>
<totfact> 0.42438715E+03</totfact>
</mgrwt>
</event>
<event>
 5    0  0.1702508E-001  0.3218858E+03  0.7546771E-02  0.1074785E+00
         21   -1    0    0  503  502  0.00000000000E+00  0.00000000000E+00  0.81841884629E+03  0.81841884629E+03  0.00000000000E+00 0. -1.
         21   -1    0    0  501  503 -0.00000000000E+00 -0.00000000000E+00 -0.15810470588E+03  0.15810470588E+03  0.00000000000E+00 0. -1.
         25    1    1    2    0    0 -0.29500409569E+03  0.11354406461E+03  0.45077257430E+03  0.56457115125E+03  0.12500000000E+03 0.  0.
          3    1    1    2  501    0  0.25735480283E+03 -0.96991666804E+02  0.23654145880E+03  0.36275437930E+03  0.00000000000E+00 0. -1.
         -3    1    1    2    0  502  0.37649292852E+02 -0.16552397803E+02 -0.26999892691E+02  0.49198021613E+02  0.00000000000E+00 0.  1.
<mgrwt>
<rscale>  4 0.32188584E+03</rscale>
<asrwt>0</asrwt>
<pdfrwt beam="1">  1       21 0.12591059E+00 0.32188584E+03</pdfrwt>
<pdfrwt beam="2">  1       21 0.24323801E-01 0.32188584E+03</pdfrwt>
<totfact> 0.69145621E+03</totfact>
</mgrwt>
</event>
<event>
 5    0  0.1702508E-001  0.3740997E+03  0.7546771E-02  0.1053136E+00
         21   -1    0    0  503  502  0.00000000000E+00  0.00000000000E+00  0.17489677619E+03  0.17489677619E+03  0.00000000000E+00 0.  1.
         21   -1    0    0  501  503 -0.00000000000E+00 -0.00000000000E+00 -0.99043360445E+03  0.99043360445E+03  0.00000000000E+00 0.  1.
         25    1    1    2    0    0 -0.33175146371E+03 -0.28459134131E+02 -0.62774282067E+03  0.72149497912E+03  0.12500000000E+03 0.  0.
          4    1    1    2  501    0 -0.27446685560E+02  0.19191619272E+01 -0.52149628188E+02  0.58962593658E+02  0.00000000000E+00 0. -1.
         -4    1    1    2    0  502  0.35919814927E+03  0.26539972204E+02 -0.13564437940E+03  0.38487280786E+03  0.00000000000E+00 0.  1.
<mgrwt>
<rscale>  4 0.37409967E+03</rscale>
<asrwt>0</asrwt>
<pdfrwt beam="1">  1       21 0.26907196E-01 0.37409967E+03</pdfrwt>
<pdfrwt beam="2">  1       21 0.15237440E+00 0.37409967E+03</pdfrwt>
<totfact> 0.33625426E+03</totfact>
</mgrwt>
</event>
<event>
 5    0  0.1702508E-001  0.3049276E+03  0.7546771E-02  0.1082803E+00
         21   -1    0    0  503  502  0.00000000000E+00  0.00000000000E+00  0.25580250891E+04  0.25580250891E+04  0.00000000000E+00 0.  1.
         21   -1    0    0  501  503 -0.00000000000E+00 -0.00000000000E+00 -0.44017914966E+02  0.44017914966E+02  0.00000000000E+00 0.  1.
         25    1    1    2    0    0  0.22958595051E+03 -0.14145068137E+03  0.16836686552E+04  0.17097026479E+04  0.12500000000E+03 0.  0.
          3    1    1    2  501    0  0.28673771740E+02 -0.30109044862E+01  0.49146027480E+02  0.56978792096E+02  0.00000000000E+00 0. -1.
         -3    1    1    2    0  502 -0.25825972225E+03  0.14446158585E+03  0.78119249146E+03  0.83536156402E+03  0.00000000000E+00 0.  1.
<mgrwt>
<rscale>  4 0.30492760E+03</rscale>
<asrwt>0</asrwt>
<pdfrwt beam="1">  1       21 0.39354221E+00 0.30492760E+03</pdfrwt>
<pdfrwt beam="2">  1       21 0.67719889E-02 0.30492760E+03</pdfrwt>
<totfact> 0.13424076E+03</totfact>
</mgrwt>
</event>
<event>
 5    0  0.1702508E-001  0.4489859E+03  0.7546771E-02  0.1028025E+00
         21   -1    0    0  503  502  0.00000000000E+00  0.00000000000E+00  0.44723469362E+03  0.44723469362E+03  0.00000000000E+00 0. -1.
         21   -1    0    0  501  503 -0.00000000000E+00 -0.00000000000E+00 -0.12560583876E+04  0.12560583876E+04  0.00000000000E+00 0. -1.
         25    1    1    2    0    0 -0.29545176357E+03 -0.31277983900E+03  0.27084803887E+03  0.52355193863E+03  0.12500000000E+03 0.  0.
          1    1    1    2  501    0  0.32420232967E+03  0.29755765624E+03 -0.96608196663E+03  0.10615847002E+04  0.00000000000E+00 0. -1.
         -1    1    1    2    0  502 -0.28750566105E+02  0.15222182756E+02 -0.11358976622E+03  0.11815644243E+03  0.00000000000E+00 0.  1.
<mgrwt>
<rscale>  4 0.44898594E+03</rscale>
<asrwt>0</asrwt>
<pdfrwt beam="1">  1       21 0.68805339E-01 0.44898594E+03</pdfrwt>
<pdfrwt beam="2">  1       21 0.19323975E+00 0.44898594E+03</pdfrwt>
<totfact> 0.23225903E+02</totfact>
</mgrwt>
</event>
<event>
 5    0  0.1702508E-001  0.2420486E+03  0.7546771E-02  0.1118436E+00
         21   -1    0    0  503  502  0.00000000000E+00  0.00000000000E+00  0.24401702670E+03  0.24401702670E+03  0.00000000000E+00 0.  1.
         21   -1    0    0  501  503 -0.00000000000E+00 -0.00000000000E+00 -0.24791488783E+03  0.24791488783E+03  0.00000000000E+00 0.  1.
         25    1    1    2    0    0  0.30176075221E+02  0.21704921241E+03  0.30059623409E+02  0.25406600930E+03  0.12500000000E+03 0.  0.
          4    1    1    2  501    0 -0.21331090219E+02 -0.20280422734E+02 -0.28278642467E+02  0.40816572320E+02  0.00000000000E+00 0. -1.
         -4    1    1    2    0  502 -0.88449850027E+01 -0.19676878968E+03 -0.56788420697E+01  0.19704933290E+03  0.00000000000E+00 0.  1.
<mgrwt>
<rscale>  4 0.24204865E+03</rscale>
<asrwt>0</asrwt>
<pdfrwt beam="1">  1       21 0.37541081E-01 0.24204865E+03</pdfrwt>
<pdfrwt beam="2">  1       21 0.38140752E-01 0.24204865E+03</pdfrwt>
<totfact> 0.44336263E+04</totfact>
</mgrwt>
</event>
<event>
 5    0  0.1702508E-001  0.2978665E+03  0.7546771E-02  0.1086312E+00
         21   -1    0    0  503  502  0.00000000000E+00  0.00000000000E+00  0.16445914107E+04  0.16445914107E+04  0.00000000000E+00 0. -1.
         21   -1    0    0  501  503 -0.00000000000E+00 -0.00000000000E+00 -0.19142993378E+03  0.19142993378E+03  0.00000000000E+00 0.  1.
         25    1    1    2    0    0  0.76957136786E+02 -0.24819254488E+03  0.11206088861E+04  0.11571133116E+04  0.12500000000E+03 0.  0.
          2    1    1    2  501    0  0.26769408745E+02 -0.28795496535E+02 -0.12669613404E+03  0.13265629366E+03  0.00000000000E+00 0.  1.
         -2    1    1    2    0  502 -0.10372654553E+03  0.27698804142E+03  0.45924872483E+03  0.54625173922E+03  0.00000000000E+00 0. -1.
<mgrwt>
<rscale>  4 0.29786651E+03</rscale>
<asrwt>0</asrwt>
<pdfrwt beam="1">  1       21 0.25301405E+00 0.29786651E+03</pdfrwt>
<pdfrwt beam="2">  1       21 0.29450760E-01 0.29786651E+03</pdfrwt>
<totfact> 0.63246843E+02</totfact>
</mgrwt>
</event>
<event>
 5    0  0.1702508E-001  0.2298318E+03  0.7546771E-02  0.1126758E+00
         21   -1    0    0  503  502  0.00000000000E+00  0.00000000000E+00  0.68810506425E+03  0.68810506425E+03  0.00000000000E+00 0. -1.
         21   -1    0    0  501  503 -0.00000000000E+00 -0.00000000000E+00 -0.98662641434E+02  0.98662641434E+02  0.00000000000E+00 0.  1.
         25    1    1    2    0    0  0.18493682071E+03 -0.97123088102E+02  0.15380819497E+03  0.28795222301E+03  0.12500000000E+03 0.  0.
          4    1    1    2  501    0 -0.25822316231E+02  0.25121137224E+02  0.21213357224E+03  0.21517089957E+03  0.00000000000E+00 0. -1.
         -4    1    1    2    0  502 -0.15911450448E+03  0.72001950878E+02  0.22350065561E+03  0.28364458311E+03  0.00000000000E+00 0.  1.
<mgrwt>
<rscale>  4 0.22983179E+03</rscale>
<asrwt>0</asrwt>
<pdfrwt beam="1">  1       21 0.10586231E+00 0.22983179E+03</pdfrwt>
<pdfrwt beam="2">  1       21 0.15178868E-01 0.22983179E+03</pdfrwt>
<totfact> 0.26934195E+04</totfact>
</mgrwt>
</event>
<event>
 5    0  0.1702508E-001  0.2661452E+03  0.7546771E-02  0.1103506E+00
         21   -1    0    0  503  502  0.00000000000E+00  0.00000000000E+00  0.31100007117E+03  0.31100007117E+03  0.00000000000E+00 0. -1.
         21   -1    0    0  501  503 -0.00000000000E+00 -0.00000000000E+00 -0.83678450078E+03  0.83678450078E+03  0.00000000000E+00 0. -1.
         25    1    1    2    0    0 -0.23703296087E+03  0.24227753347E+02  0.15385524884E+03  0.30994845727E+03  0.12500000000E+03 0.  0.
          3    1    1    2  501    0  0.14309052516E+02 -0.20351771259E+03 -0.28648808211E+03  0.35170958121E+03  0.00000000000E+00 0.  1.
         -3    1    1    2    0  502  0.22272390835E+03  0.17928995924E+03 -0.39315159633E+03  0.48612653346E+03  0.00000000000E+00 0. -1.
<mgrwt>
<rscale>  4 0.26614520E+03</rscale>
<asrwt>0</asrwt>
<pdfrwt beam="1">  1       21 0.47846165E-01 0.26614520E+03</pdfrwt>
<pdfrwt beam="2">  1       21 0.12873608E+00 0.26614520E+03</pdfrwt>
<totfact> 0.17416047E+03</totfact>
</mgrwt>
</event>
<event>
 5    0  0.1702508E-001  0.2696663E+03  0.7546771E-02  0.1101471E+00
         21   -1    0    0  503  502  0.00000000000E+00  0.00000000000E+00  0.54974507345E+03  0.54974507345E+03  0.00000000000E+00 0.  1.
         21   -1    0    0  501  503 -0.00000000000E+00 -0.00000000000E+00 -0.54284573629E+03  0.54284573629E+03  0.00000000000E+00 0.  1.
         25    1    1    2    0    0 -0.18882513072E+03 -0.14772546298E+03  0.47322336524E+03  0.54501660141E+03  0.12500000000E+03 0.  0.
          3    1    1    2  501    0 -0.18150168939E+02  0.38249262223E+02 -0.13774306267E+03  0.14410269258E+03  0.00000000000E+00 0. -1.
         -3    1    1    2    0  502  0.20697529966E+03  0.10947620075E+03 -0.32858096540E+03  0.40347151576E+03  0.00000000000E+00 0.  1.
<mgrwt>
<rscale>  4 0.26966632E+03</rscale>
<asrwt>0</asrwt>
<pdfrwt beam="1">  1       21 0.84576165E-01 0.26966632E+03</pdfrwt>
<pdfrwt beam="2">  1       21 0.83514728E-01 0.26966632E+03</pdfrwt>
<totfact> 0.14197887E+03</totfact>
</mgrwt>
</event>
<event>
 5    0  0.1702508E-001  0.2537379E+03  0.7546771E-02  0.1110965E+00
         21   -1    0    0  503  502  0.00000000000E+00  0.00000000000E+00  0.64543935223E+03  0.64543935223E+03  0.00000000000E+00 0.  1.
         21   -1    0    0  501  503 -0.00000000000E+00 -0.00000000000E+00 -0.16036611968E+03  0.16036611968E+03  0.00000000000E+00 0. -1.
         25    1    1    2    0    0 -0.70034114419E+02 -0.21560394677E+03  0.37906517206E+03  0.45902640852E+03  0.12500000000E+03 0.  0.
          2    1    1    2  501    0  0.49985619956E+02  0.20778322389E+03  0.17392135098E+03  0.27553777719E+03  0.00000000000E+00 0.  1.
         -2    1    1    2    0  502  0.20048494463E+02  0.78207228860E+01 -0.67913290483E+02  0.71241286210E+02  0.00000000000E+00 0. -1.
<mgrwt>
<rscale>  4 0.25373793E+03</rscale>
<asrwt>0</asrwt>
<pdfrwt beam="1">  1       21 0.99298361E-01 0.25373793E+03</pdfrwt>
<pdfrwt beam="2">  1       21 0.24671711E-01 0.25373793E+03</pdfrwt>
<totfact> 0.12493714E+04</totfact>
</mgrwt>
</event>
<event>
 5    0  0.1702508E-001  0.2764149E+03  0.7546771E-02  0.1097663E+00
         21   -1    0    0  503  502  0.00000000000E+00  0.00000000000E+00  0.44112330534E+03  0.44112330534E+03  0.00000000000E+00 0. -1.
         21   -1    0    0  501  503 -0.00000000000E+00 -0.00000000000E+00 -0.16273476670E+03  0.16273476670E+03  0.00000000000E+00 0. -1.
         25    1    1    2    0    0 -0.19865365224E+02  0.24573477181E+03  0.11926269901E+03  0.30104617949E+03  0.12500000000E+03 0.  0.
          2    1    1    2  501    0  0.38709060859E+02 -0.17862213266E+03  0.14086021275E+03  0.23075063858E+03  0.00000000000E+00 0.  1.
         -2    1    1    2    0  502 -0.18843695636E+02 -0.67112639151E+02  0.18265626886E+02  0.72061253975E+02  0.00000000000E+00 0. -1.
<mgrwt>
<rscale>  4 0.27641493E+03</rscale>
<asrwt>0</asrwt>
<pdfrwt beam="1">  1       21 0.67865124E-01 0.27641493E+03</pdfrwt>
<pdfrwt beam="2">  1       21 0.25036118E-01 0.27641493E+03</pdfrwt>
<totfact> 0.28774439E+04</totfact>
</mgrwt>
</event>
<event>
 5    0  0.1702508E-001  0.5357832E+03  0.7546771E-02  0.1004839E+00
         21   -1    0    0  503  502  0.00000000000E+00  0.00000000000E+00  0.12715450986E+03  0.12715450986E+03  0.00000000000E+00 0.  1.
         21   -1    0    0  501  503 -0.00000000000E+00 -0.00000000000E+00 -0.30364173942E+04  0.30364173942E+04  0.00000000000E+00 0.  1.
         25    1    1    2    0    0 -0.31673039961E+03  0.42060561204E+03 -0.69858641410E+03  0.88367143491E+03  0.12500000000E+03 0.  0.
          1    1    1    2  501    0  0.28919116219E+03 -0.41771752625E+03 -0.18601987676E+04  0.19283306031E+04  0.00000000000E+00 0.  1.
         -1    1    1    2    0  502  0.27539237416E+02 -0.28880857869E+01 -0.35047770262E+03  0.35156986599E+03  0.00000000000E+00 0. -1.
<mgrwt>
<rscale>  4 0.53578321E+03</rscale>
<asrwt>0</asrwt>
<pdfrwt beam="1">  1       21 0.19562231E-01 0.53578321E+03</pdfrwt>
<pdfrwt beam="2">  1       21 0.46714117E+00 0.53578321E+03</pdfrwt>
<totfact> 0.53775574E+01</totfact>
</mgrwt>
</event>
<event>
 5    0  0.1702508E-001  0.2807101E+03  0.7546771E-02  0.1095302E+00
         21   -1    0    0  503  502  0.00000000000E+00  0.00000000000E+00  0.99293728997E+02  0.99293728997E+02  0.00000000000E+00 0.  1.
         21   -1    0    0  501  503 -0.00000000000E+00 -0.00000000000E+00 -0.11899894711E+04  0.11899894711E+04  0.00000000000E+00 0.  1.
         25    1    1    2    0    0 -0.23801165439E+03  0.49857887622E+02 -0.45835927541E+03  0.53371676190E+03  0.12500000000E+03 0.  0.
          3    1    1    2  501    0  0.24173337277E+03 -0.86073545245E+02 -0.20976277295E+03  0.33142736703E+03  0.00000000000E+00 0.  1.
         -3    1    1    2    0  502 -0.37217183804E+01  0.36215657623E+02 -0.42257369378E+03  0.42413907120E+03  0.00000000000E+00 0. -1.
<mgrwt>
<rscale>  4 0.28071012E+03</rscale>
<asrwt>0</asrwt>
<pdfrwt beam="1">  1       21 0.15275959E-01 0.28071012E+03</pdfrwt>
<pdfrwt beam="2">  1       21 0.18307529E+00 0.28071012E+03</pdfrwt>
<totfact> 0.61707570E+03</totfact>
</mgrwt>
</event>
<event>
 5    0  0.1702508E-001  0.2507045E+03  0.7546771E-02  0.1112860E+00
         21   -1    0    0  503  502  0.00000000000E+00  0.00000000000E+00  0.47407585241E+03  0.47407585241E+03  0.00000000000E+00 0.  1.
         21   -1    0    0  501  503 -0.00000000000E+00 -0.00000000000E+00 -0.19383892919E+03  0.19383892919E+03  0.00000000000E+00 0.  1.
         25    1    1    2    0    0 -0.74830235738E+02  0.20750327279E+03  0.23124719965E+03  0.34315803902E+03  0.12500000000E+03 0.  0.
          1    1    1    2  501    0  0.48165447403E+02 -0.20902438698E+03  0.12217111540E+03  0.24685397731E+03  0.00000000000E+00 0.  1.
         -1    1    1    2    0  502  0.26664788335E+02  0.15211141921E+01 -0.73181391839E+02  0.77902765271E+02  0.00000000000E+00 0. -1.
<mgrwt>
<rscale>  4 0.25070450E+03</rscale>
<asrwt>0</asrwt>
<pdfrwt beam="1">  1       21 0.72934746E-01 0.25070450E+03</pdfrwt>
<pdfrwt beam="2">  1       21 0.29821374E-01 0.25070450E+03</pdfrwt>
<totfact> 0.17654559E+04</totfact>
</mgrwt>
</event>
<event>
 5    0  0.1702508E-001  0.3017578E+03  0.7546771E-02  0.1084365E+00
         21   -1    0    0  503  502  0.00000000000E+00  0.00000000000E+00  0.24137888116E+03  0.24137888116E+03  0.00000000000E+00 0. -1.
         21   -1    0    0  501  503 -0.00000000000E+00 -0.00000000000E+00 -0.66694083144E+03  0.66694083144E+03  0.00000000000E+00 0.  1.
         25    1    1    2    0    0  0.22214096036E+03  0.16531202722E+03  0.19201868254E+01  0.30381467991E+03  0.12500000000E+03 0.  0.
          3    1    1    2  501    0 -0.26916017995E+03 -0.81663149097E+02 -0.16748243467E+03  0.32736285421E+03  0.00000000000E+00 0. -1.
         -3    1    1    2    0  502  0.47019219590E+02 -0.83648878119E+02 -0.25999970244E+03  0.27714217848E+03  0.00000000000E+00 0.  1.
<mgrwt>
<rscale>  4 0.30175780E+03</rscale>
<asrwt>0</asrwt>
<pdfrwt beam="1">  1       21 0.37135213E-01 0.30175780E+03</pdfrwt>
<pdfrwt beam="2">  1       21 0.10260628E+00 0.30175780E+03</pdfrwt>
<totfact> 0.50347473E+03</totfact>
</mgrwt>
</event>
<event>
 5    0  0.1702508E-001  0.2568616E+03  0.7546771E-02  0.1109044E+00
         21   -1    0    0  503  502  0.00000000000E+00  0.00000000000E+00  0.28023556978E+03  0.28023556978E+03  0.00000000000E+00 0. -1.
         21   -1    0    0  501  503 -0.00000000000E+00 -0.00000000000E+00 -0.28706400921E+03  0.28706400921E+03  0.00000000000E+00 0. -1.
         25    1    1    2    0    0  0.23178408892E+03  0.23691914583E+02 -0.73710650319E+02  0.27448757834E+03  0.12500000000E+03 0.  0.
          4    1    1    2  501    0 -0.21300595834E+03 -0.62233552199E+02  0.95159449682E+02  0.24145366879E+03  0.00000000000E+00 0. -1.
         -4    1    1    2    0  502 -0.18778130577E+02  0.38541637616E+02 -0.28277238793E+02  0.51358331864E+02  0.00000000000E+00 0.  1.
<mgrwt>
<rscale>  4 0.25686163E+03</rscale>
<asrwt>0</asrwt>
<pdfrwt beam="1">  1       21 0.43113164E-01 0.25686163E+03</pdfrwt>
<pdfrwt beam="2">  1       21 0.44163694E-01 0.25686163E+03</pdfrwt>
<totfact> 0.24647713E+04</totfact>
</mgrwt>
</event>
<event>
 5    0  0.1702508E-001  0.2883122E+03  0.7546771E-02  0.1091234E+00
         21   -1    0    0  503  502  0.00000000000E+00  0.00000000000E+00  0.84670164380E+03  0.84670164380E+03  0.00000000000E+00 0.  1.
         21   -1    0    0  501  503 -0.00000000000E+00 -0.00000000000E+00 -0.21308747418E+03  0.21308747418E+03  0.00000000000E+00 0. -1.
         25    1    1    2    0    0 -0.21361480331E+03 -0.16134102878E+03  0.68592192368E+03  0.74684409159E+03  0.12500000000E+03 0.  0.
          2    1    1    2  501    0  0.17786902524E+03  0.14931966633E+03  0.18237968902E+02  0.23295144645E+03  0.00000000000E+00 0. -1.
         -2    1    1    2    0  502  0.35745778073E+02  0.12021362452E+02 -0.70545722961E+02  0.79993579950E+02  0.00000000000E+00 0.  1.
<mgrwt>
<rscale>  4 0.28831218E+03</rscale>
<asrwt>0</asrwt>
<pdfrwt beam="1">  1       21 0.13026179E+00 0.28831218E+03</pdfrwt>
<pdfrwt beam="2">  1       21 0.32782689E-01 0.28831218E+03</pdfrwt>
<totfact> 0.35980925E+03</totfact>
</mgrwt>
</event>
<event>
 5    0  0.1702508E-001  0.3341719E+03  0.7546771E-02  0.1069306E+00
         21   -1    0    0  503  502  0.00000000000E+00  0.00000000000E+00  0.35035566054E+03  0.35035566054E+03  0.00000000000E+00 0.  1.
         21   -1    0    0  501  503 -0.00000000000E+00 -0.00000000000E+00 -0.53894927790E+03  0.53894927790E+03  0.00000000000E+00 0.  1.
         25    1    1    2    0    0  0.26286288084E+03 -0.18064657754E+03  0.17074717616E+03  0.38276582693E+03  0.12500000000E+03 0.  0.
          1    1    1    2  501    0 -0.23803007053E+03  0.15796299636E+03 -0.21289109662E+03  0.35627691718E+03  0.00000000000E+00 0.  1.
         -1    1    1    2    0  502 -0.24832810312E+02  0.22683581176E+02 -0.14644969690E+03  0.15026219433E+03  0.00000000000E+00 0. -1.
<mgrwt>
<rscale>  4 0.33417189E+03</rscale>
<asrwt>0</asrwt>
<pdfrwt beam="1">  1       21 0.53900871E-01 0.33417189E+03</pdfrwt>
<pdfrwt beam="2">  1       21 0.82915274E-01 0.33417189E+03</pdfrwt>
<totfact> 0.37791334E+03</totfact>
</mgrwt>
</event>
<event>
 5    0  0.1702508E-001  0.2093056E+03  0.7546771E-02  0.1142117E+00
         21   -1    0    0  503  502  0.00000000000E+00  0.00000000000E+00  0.66330231015E+02  0.66330231015E+02  0.00000000000E+00 0.  1.
         21   -1    0    0  501  503 -0.00000000000E+00 -0.00000000000E+00 -0.10038088805E+04  0.10038088805E+04  0.00000000000E+00 0. -1.
         25    1    1    2    0    0 -0.22668771141E+02 -0.20063272178E+03 -0.27025798310E+03  0.35976622919E+03  0.12500000000E+03 0.  0.
          3    1    1    2  501    0  0.21425108316E+01  0.61698192664E+02 -0.43219909416E+03  0.43658597586E+03  0.00000000000E+00 0. -1.
         -3    1    1    2    0  502  0.20526260309E+02  0.13893452911E+03 -0.23502157227E+03  0.27378690650E+03  0.00000000000E+00 0.  1.
<mgrwt>
<rscale>  4 0.20930557E+03</rscale>
<asrwt>0</asrwt>
<pdfrwt beam="1">  1       21 0.10204652E-01 0.20930557E+03</pdfrwt>
<pdfrwt beam="2">  1       21 0.15443212E+00 0.20930557E+03</pdfrwt>
<totfact> 0.21429129E+04</totfact>
</mgrwt>
</event>
<event>
 5    0  0.1702508E-001  0.2869641E+03  0.7546771E-02  0.1091945E+00
         21   -1    0    0  503  502  0.00000000000E+00  0.00000000000E+00  0.92031888709E+02  0.92031888709E+02  0.00000000000E+00 0.  1.
         21   -1    0    0  501  503 -0.00000000000E+00 -0.00000000000E+00 -0.26048913923E+04  0.26048913923E+04  0.00000000000E+00 0.  1.
         25    1    1    2    0    0  0.21213418532E+03 -0.19029396439E+03 -0.21767200664E+03  0.37976151455E+03  0.12500000000E+03 0.  0.
          2    1    1    2  501    0 -0.73950718406E+02  0.76648345925E+02 -0.14133692142E+04  0.14173765249E+04  0.00000000000E+00 0. -1.
         -2    1    1    2    0  502 -0.13818346691E+03  0.11364561846E+03 -0.88181828270E+03  0.89978524150E+03  0.00000000000E+00 0.  1.
<mgrwt>
<rscale>  4 0.28696414E+03</rscale>
<asrwt>0</asrwt>
<pdfrwt beam="1">  1       21 0.14158753E-01 0.28696414E+03</pdfrwt>
<pdfrwt beam="2">  1       21 0.40075250E+00 0.28696414E+03</pdfrwt>
<totfact> 0.33052291E+02</totfact>
</mgrwt>
</event>
<event>
 5    0  0.1702508E-001  0.2438469E+03  0.7546771E-02  0.1117256E+00
         21   -1    0    0  503  502  0.00000000000E+00  0.00000000000E+00  0.10684079821E+03  0.10684079821E+03  0.00000000000E+00 0. -1.
         21   -1    0    0  501  503 -0.00000000000E+00 -0.00000000000E+00 -0.49410458026E+03  0.49410458026E+03  0.00000000000E+00 0. -1.
         25    1    1    2    0    0  0.19320235887E+03 -0.80679270134E+02 -0.21288842573E+03  0.32370168043E+03  0.12500000000E+03 0.  0.
          1    1    1    2  501    0 -0.43850628747E+02  0.35516105860E+02 -0.26767846251E+02  0.62456296800E+02  0.00000000000E+00 0.  1.
         -1    1    1    2    0  502 -0.14935173013E+03  0.45163164274E+02 -0.14760751007E+03  0.21478740123E+03  0.00000000000E+00 0. -1.
<mgrwt>
<rscale>  4 0.24384687E+03</rscale>
<asrwt>0</asrwt>
<pdfrwt beam="1">  1       21 0.16437046E-01 0.24384687E+03</pdfrwt>
<pdfrwt beam="2">  1       21 0.76016088E-01 0.24384687E+03</pdfrwt>
<totfact> 0.50012634E+04</totfact>
</mgrwt>
</event>
<event>
 5    0  0.1702508E-001  0.3793186E+03  0.7546771E-02  0.1051186E+00
         21   -1    0    0  503  502  0.00000000000E+00  0.00000000000E+00  0.93022364626E+02  0.93022364626E+02  0.00000000000E+00 0.  1.
         21   -1    0    0  501  503 -0.00000000000E+00 -0.00000000000E+00 -0.20512742994E+04  0.20512742994E+04  0.00000000000E+00 0. -1.
         25    1    1    2    0    0 -0.36947487847E+03  0.45819228582E+02 -0.62404623964E+03  0.73733967528E+03  0.12500000000E+03 0.  0.
          3    1    1    2  501    0  0.35313074638E+03  0.26446250634E+01 -0.12956311426E+04  0.13428955193E+04  0.00000000000E+00 0. -1.
         -3    1    1    2    0  502  0.16344132089E+02 -0.48463853646E+02 -0.38574552521E+02  0.64061469435E+02  0.00000000000E+00 0.  1.
<mgrwt>
<rscale>  4 0.37931859E+03</rscale>
<asrwt>0</asrwt>
<pdfrwt beam="1">  1       21 0.14311133E-01 0.37931859E+03</pdfrwt>
<pdfrwt beam="2">  1       21 0.31558065E+00 0.37931859E+03</pdfrwt>
<totfact> 0.99373037E+02</totfact>
</mgrwt>
</event>
<event>
 5    0  0.1702508E-001  0.2632329E+03  0.7546771E-02  0.1105216E+00
         21   -1    0    0  503  502  0.00000000000E+00  0.00000000000E+00  0.14732406889E+03  0.14732406889E+03  0.00000000000E+00 0.  1.
         21   -1    0    0  501  503 -0.00000000000E+00 -0.00000000000E+00 -0.15944705869E+04  0.15944705869E+04  0.00000000000E+00 0. -1.
         25    1    1    2    0    0  0.39168770422E+02 -0.23333924137E+03 -0.33731913945E+02  0.26971139419E+03  0.12500000000E+03 0.  0.
          3    1    1    2  501    0 -0.28613532926E+02  0.14262788619E+02 -0.10290215485E+04  0.10295180954E+04  0.00000000000E+00 0. -1.
         -3    1    1    2    0  502 -0.10555237496E+02  0.21907645275E+03 -0.38439305554E+03  0.44256516620E+03  0.00000000000E+00 0.  1.
<mgrwt>
<rscale>  4 0.26323294E+03</rscale>
<asrwt>0</asrwt>
<pdfrwt beam="1">  1       21 0.22665241E-01 0.26323294E+03</pdfrwt>
<pdfrwt beam="2">  1       21 0.24530317E+00 0.26323294E+03</pdfrwt>
<totfact> 0.12024618E+03</totfact>
</mgrwt>
</event>
<event>
 5    0  0.1702508E-001  0.4261380E+03  0.7546771E-02  0.1035087E+00
         21   -1    0    0  503  502  0.00000000000E+00  0.00000000000E+00  0.46062756532E+03  0.46062756532E+03  0.00000000000E+00 0. -1.
         21   -1    0    0  501  503 -0.00000000000E+00 -0.00000000000E+00 -0.13819558528E+04  0.13819558528E+04  0.00000000000E+00 0. -1.
         25    1    1    2    0    0 -0.34272415521E+03 -0.23300267495E+03  0.22559266659E+03  0.48812615615E+03  0.12500000000E+03 0.  0.
          1    1    1    2  501    0 -0.74690006359E+02  0.18672967962E+03 -0.75036199455E+03  0.77684599063E+03  0.00000000000E+00 0.  1.
         -1    1    1    2    0  502  0.41741416157E+03  0.46272995329E+02 -0.39655895949E+03  0.57761127129E+03  0.00000000000E+00 0. -1.
<mgrwt>
<rscale>  4 0.42613798E+03</rscale>
<asrwt>0</asrwt>
<pdfrwt beam="1">  1       21 0.70865780E-01 0.42613798E+03</pdfrwt>
<pdfrwt beam="2">  1       21 0.21260859E+00 0.42613798E+03</pdfrwt>
<totfact> 0.16384781E+02</totfact>
</mgrwt>
</event>
<event>
 5    0  0.1702508E-001  0.3342413E+03  0.7546771E-02  0.1069275E+00
         21   -1    0    0  503  502  0.00000000000E+00  0.00000000000E+00  0.86853437583E+03  0.86853437583E+03  0.00000000000E+00 0. -1.
         21   -1    0    0  501  503 -0.00000000000E+00 -0.00000000000E+00 -0.54444468781E+03  0.54444468781E+03  0.00000000000E+00 0. -1.
         25    1    1    2    0    0  0.31054708812E+03  0.13806164840E+03  0.69972294264E+03  0.78786909392E+03  0.12500000000E+03 0.  0.
          1    1    1    2  501    0 -0.14133166607E+03  0.27136622589E+02 -0.36047572819E+03  0.38814145197E+03  0.00000000000E+00 0. -1.
         -1    1    1    2    0  502 -0.16921542205E+03 -0.16519827099E+03 -0.15157526429E+02  0.23696851774E+03  0.00000000000E+00 0.  1.
<mgrwt>
<rscale>  4 0.33424129E+03</rscale>
<asrwt>0</asrwt>
<pdfrwt beam="1">  1       21 0.13362067E+00 0.33424129E+03</pdfrwt>
<pdfrwt beam="2">  1       21 0.83760721E-01 0.33424129E+03</pdfrwt>
<totfact> 0.44266793E+02</totfact>
</mgrwt>
</event>
<event>
 5    0  0.1702508E-001  0.3826351E+03  0.7546771E-02  0.1049964E+00
         21   -1    0    0  503  502  0.00000000000E+00  0.00000000000E+00  0.53673037546E+03  0.53673037546E+03  0.00000000000E+00 0. -1.
         21   -1    0    0  501  503 -0.00000000000E+00 -0.00000000000E+00 -0.48267023667E+03  0.48267023667E+03  0.00000000000E+00 0.  1.
         25    1    1    2    0    0 -0.41209063497E+03  0.16021938046E+03  0.14892447887E+03  0.48300356283E+03  0.12500000000E+03 0.  0.
          1    1    1    2  501    0  0.29979460867E+03  0.34006767279E+02 -0.32037602997E+02  0.30341337415E+03  0.00000000000E+00 0.  1.
         -1    1    1    2    0  502  0.11229602629E+03 -0.19422614774E+03 -0.62826737081E+02  0.23298367514E+03  0.00000000000E+00 0. -1.
<mgrwt>
<rscale>  4 0.38263511E+03</rscale>
<asrwt>0</asrwt>
<pdfrwt beam="1">  1       21 0.82573904E-01 0.38263511E+03</pdfrwt>
<pdfrwt beam="2">  1       21 0.74256960E-01 0.38263511E+03</pdfrwt>
<totfact> 0.18433136E+03</totfact>
</mgrwt>
</event>
<event>
 5    0  0.1702508E-001  0.2840070E+03  0.7546771E-02  0.1093520E+00
         21   -1    0    0  503  502  0.00000000000E+00  0.00000000000E+00  0.40301705769E+03  0.40301705769E+03  0.00000000000E+00 0. -1.
         21   -1    0    0  501  503 -0.00000000000E+00 -0.00000000000E+00 -0.59761158460E+03  0.59761158460E+03  0.00000000000E+00 0. -1.
         25    1    1    2    0    0  0.18037030179E+03 -0.18089553963E+03  0.29436840925E+03  0.40930966565E+03  0.12500000000E+03 0.  0.
          2    1    1    2  501    0 -0.49889733805E+02 -0.43492106112E+02 -0.15349644818E+03  0.16715773520E+03  0.00000000000E+00 0.  1.
         -2    1    1    2    0  502 -0.13048056799E+03  0.22438764575E+03 -0.33546648798E+03  0.42416124144E+03  0.00000000000E+00 0. -1.
<mgrwt>
<rscale>  4 0.28400703E+03</rscale>
<asrwt>0</asrwt>
<pdfrwt beam="1">  1       21 0.62002624E-01 0.28400703E+03</pdfrwt>
<pdfrwt beam="2">  1       21 0.91940244E-01 0.28400703E+03</pdfrwt>
<totfact> 0.22554757E+03</totfact>
</mgrwt>
</event>
<event>
 5    0  0.1702508E-001  0.4414494E+03  0.7546771E-02  0.1030724E+00
         21   -1    0    0  503  502  0.00000000000E+00  0.00000000000E+00  0.16446243685E+04  0.16446243685E+04  0.00000000000E+00 0. -1.
         21   -1    0    0  501  503 -0.00000000000E+00 -0.00000000000E+00 -0.35327339845E+03  0.35327339845E+03  0.00000000000E+00 0.  1.
         25    1    1    2    0    0  0.40718523323E+03 -0.92995664123E+02  0.14612357310E+04  0.15248878219E+04  0.12500000000E+03 0.  0.
          3    1    1    2  501    0 -0.17003535078E+03  0.78939026340E+02 -0.13914681931E+03  0.23346354688E+03  0.00000000000E+00 0.  1.
         -3    1    1    2    0  502 -0.23714988245E+03  0.14056637782E+02 -0.30737941680E+02  0.23954639816E+03  0.00000000000E+00 0. -1.
<mgrwt>
<rscale>  4 0.44007405E+03</rscale>
<asrwt>0</asrwt>
<pdfrwt beam="1">  1       21 0.25301913E+00 0.44144940E+03</pdfrwt>
<pdfrwt beam="2">  1       21 0.54349754E-01 0.44144940E+03</pdfrwt>
<totfact> 0.16256930E+02</totfact>
</mgrwt>
</event>
<event>
 5    0  0.1702508E-001  0.2555425E+03  0.7546771E-02  0.1109851E+00
         21   -1    0    0  503  502  0.00000000000E+00  0.00000000000E+00  0.53367005300E+03  0.53367005300E+03  0.00000000000E+00 0. -1.
         21   -1    0    0  501  503 -0.00000000000E+00 -0.00000000000E+00 -0.76890507238E+03  0.76890507238E+03  0.00000000000E+00 0. -1.
         25    1    1    2    0    0 -0.18887591532E+03  0.13103326282E+03  0.44024926038E+03  0.51214083865E+03  0.12500000000E+03 0.  0.
          4    1    1    2  501    0  0.18733679668E+03 -0.59002921506E+02 -0.11972140099E+03  0.23002094251E+03  0.00000000000E+00 0.  1.
         -4    1    1    2    0  502  0.15391186370E+01 -0.72030341315E+02 -0.55576287877E+03  0.56041334422E+03  0.00000000000E+00 0. -1.
<mgrwt>
<rscale>  4 0.25554253E+03</rscale>
<asrwt>0</asrwt>
<pdfrwt beam="1">  1       21 0.82103085E-01 0.25554253E+03</pdfrwt>
<pdfrwt beam="2">  1       21 0.11829309E+00 0.25554253E+03</pdfrwt>
<totfact> 0.66874172E+02</totfact>
</mgrwt>
</event>
<event>
 5    0  0.1702508E-001  0.2963878E+03  0.7546771E-02  0.1087060E+00
         21   -1    0    0  503  502  0.00000000000E+00  0.00000000000E+00  0.76893820235E+03  0.76893820235E+03  0.00000000000E+00 0.  1.
         21   -1    0    0  501  503 -0.00000000000E+00 -0.00000000000E+00 -0.15570107388E+03  0.15570107388E+03  0.00000000000E+00 0. -1.
         25    1    1    2    0    0 -0.24544721683E+03 -0.98320108124E+02  0.53029448944E+03  0.60559757714E+03  0.12500000000E+03 0.  0.
          3    1    1    2  501    0  0.25545591046E+03  0.11599277936E+03  0.94039638177E+02  0.29589778742E+03  0.00000000000E+00 0. -1.
         -3    1    1    2    0  502 -0.10008693632E+02 -0.17672671238E+02 -0.11096999147E+02  0.23143911661E+02  0.00000000000E+00 0.  1.
<mgrwt>
<rscale>  4 0.29638775E+03</rscale>
<asrwt>0</asrwt>
<pdfrwt beam="1">  1       21 0.11829818E+00 0.29638775E+03</pdfrwt>
<pdfrwt beam="2">  1       21 0.23954012E-01 0.29638775E+03</pdfrwt>
<totfact> 0.84400551E+03</totfact>
</mgrwt>
</event>
<event>
 5    0  0.1702508E-001  0.2615264E+03  0.7546771E-02  0.1106230E+00
         21   -1    0    0  503  502  0.00000000000E+00  0.00000000000E+00  0.66217903393E+03  0.66217903393E+03  0.00000000000E+00 0. -1.
         21   -1    0    0  501  503 -0.00000000000E+00 -0.00000000000E+00 -0.21802462923E+03  0.21802462923E+03  0.00000000000E+00 0. -1.
         25    1    1    2    0    0  0.84763290452E+02 -0.21345093946E+03  0.54453908689E+03  0.60406451321E+03  0.12500000000E+03 0.  0.
          1    1    1    2  501    0 -0.21044654640E+02 -0.85398450329E+01 -0.23604576256E+02  0.32756411011E+02  0.00000000000E+00 0.  1.
         -1    1    1    2    0  502 -0.63718635812E+02  0.22199078449E+03 -0.76780105934E+02  0.24338273894E+03  0.00000000000E+00 0. -1.
<mgrwt>
<rscale>  4 0.26152635E+03</rscale>
<asrwt>0</asrwt>
<pdfrwt beam="1">  1       21 0.10187370E+00 0.26152635E+03</pdfrwt>
<pdfrwt beam="2">  1       21 0.33542251E-01 0.26152635E+03</pdfrwt>
<totfact> 0.64208141E+03</totfact>
</mgrwt>
</event>
<event>
 5    0  0.1702508E-001  0.4299287E+03  0.7546771E-02  0.1033883E+00
         21   -1    0    0  503  502  0.00000000000E+00  0.00000000000E+00  0.22454754711E+03  0.22454754711E+03  0.00000000000E+00 0.  1.
         21   -1    0    0  501  503 -0.00000000000E+00 -0.00000000000E+00 -0.97100898641E+03  0.97100898641E+03  0.00000000000E+00 0.  1.
         25    1    1    2    0    0 -0.37482679638E+03 -0.39189281727E+02 -0.35513678651E+03  0.53270823554E+03  0.12500000000E+03 0.  0.
          4    1    1    2  501    0  0.43821110237E+03  0.45503324753E+02 -0.24697808571E+03  0.50507197272E+03  0.00000000000E+00 0.  1.
         -4    1    1    2    0  502 -0.63384305996E+02 -0.63140430264E+01 -0.14434656709E+03  0.15777632527E+03  0.00000000000E+00 0. -1.
<mgrwt>
<rscale>  4 0.42992865E+03</rscale>
<asrwt>0</asrwt>
<pdfrwt beam="1">  1       21 0.34545777E-01 0.42992865E+03</pdfrwt>
<pdfrwt beam="2">  1       21 0.14938600E+00 0.42992865E+03</pdfrwt>
<totfact> 0.21080923E+03</totfact>
</mgrwt>
</event>
<event>
 5    0  0.1702508E-001  0.3453098E+03  0.7546771E-02  0.1064557E+00
         21   -1    0    0  503  502  0.00000000000E+00  0.00000000000E+00  0.15992772835E+04  0.15992772835E+04  0.00000000000E+00 0.  1.
         21   -1    0    0  501  503 -0.00000000000E+00 -0.00000000000E+00 -0.20608490394E+03  0.20608490394E+03  0.00000000000E+00 0. -1.
         25    1    1    2    0    0 -0.31388749027E+03 -0.15538550180E+02  0.91575725039E+03  0.97621879962E+03  0.12500000000E+03 0.  0.
          3    1    1    2  501    0 -0.19165186599E+02  0.24097232950E+02 -0.13148342834E+03  0.13504026415E+03  0.00000000000E+00 0. -1.
         -3    1    1    2    0  502  0.33305267687E+03 -0.85586827699E+01  0.60891855748E+03  0.69410312365E+03  0.00000000000E+00 0.  1.
<mgrwt>
<rscale>  4 0.34530979E+03</rscale>
<asrwt>0</asrwt>
<pdfrwt beam="1">  1       21 0.24604265E+00 0.34530979E+03</pdfrwt>
<pdfrwt beam="2">  1       21 0.31705371E-01 0.34530979E+03</pdfrwt>
<totfact> 0.58102842E+02</totfact>
</mgrwt>
</event>
<event>
 5    0  0.1702508E-001  0.2566632E+03  0.7546771E-02  0.1109165E+00
         21   -1    0    0  503  502  0.00000000000E+00  0.00000000000E+00  0.68370211631E+03  0.68370211631E+03  0.00000000000E+00 0.  1.
         21   -1    0    0  501  503 -0.00000000000E+00 -0.00000000000E+00 -0.23861278408E+03  0.23861278408E+03  0.00000000000E+00 0.  1.
         25    1    1    2    0    0  0.10159616480E+01  0.21794665082E+03  0.31008574523E+03  0.39909891528E+03  0.12500000000E+03 0.  0.
          1    1    1    2  501    0  0.20554706985E+02  0.11271731903E+02 -0.15283792984E+03  0.15462529132E+03  0.00000000000E+00 0. -1.
         -1    1    1    2    0  502 -0.21570668633E+02 -0.22921838273E+03  0.28784151684E+03  0.36859069378E+03  0.00000000000E+00 0.  1.
<mgrwt>
<rscale>  4 0.25666318E+03</rscale>
<asrwt>0</asrwt>
<pdfrwt beam="1">  1       21 0.10518494E+00 0.25666318E+03</pdfrwt>
<pdfrwt beam="2">  1       21 0.36709659E-01 0.25666318E+03</pdfrwt>
<totfact> 0.49764132E+03</totfact>
</mgrwt>
</event>
<event>
 5    0  0.1702508E-001  0.4441791E+03  0.7546771E-02  0.1029472E+00
         21   -1    0    0  503  502  0.00000000000E+00  0.00000000000E+00  0.52921643343E+03  0.52921643343E+03  0.00000000000E+00 0.  1.
         21   -1    0    0  501  503 -0.00000000000E+00 -0.00000000000E+00 -0.41498142307E+03  0.41498142307E+03  0.00000000000E+00 0.  1.
         25    1    1    2    0    0  0.36228660916E+03  0.22454060776E+03 -0.95167629954E+02  0.45425978196E+03  0.12500000000E+03 0.  0.
          3    1    1    2  501    0 -0.23829067209E+02 -0.60353210426E+02  0.47409870994E+02  0.80361871061E+02  0.00000000000E+00 0. -1.
         -3    1    1    2    0  502 -0.33845754195E+03 -0.16418739734E+03  0.16199276932E+03  0.40957620348E+03  0.00000000000E+00 0.  1.
<mgrwt>
<rscale>  4 0.44417910E+03</rscale>
<asrwt>0</asrwt>
<pdfrwt beam="1">  1       21 0.81417913E-01 0.44417910E+03</pdfrwt>
<pdfrwt beam="2">  1       21 0.63843295E-01 0.44417910E+03</pdfrwt>
<totfact> 0.26059035E+03</totfact>
</mgrwt>
</event>
<event>
 5    0  0.1702508E-001  0.2701420E+03  0.7546771E-02  0.1101198E+00
         21   -1    0    0  503  502  0.00000000000E+00  0.00000000000E+00  0.39137877460E+03  0.39137877460E+03  0.00000000000E+00 0.  1.
         21   -1    0    0  501  503 -0.00000000000E+00 -0.00000000000E+00 -0.30983491041E+03  0.30983491041E+03  0.00000000000E+00 0.  1.
         25    1    1    2    0    0  0.22494549770E+03  0.82165948459E+02  0.27603688815E+03  0.38622931484E+03  0.12500000000E+03 0.  0.
          1    1    1    2  501    0 -0.20197960942E+03 -0.92485995573E+02 -0.16872811372E+03  0.27895985080E+03  0.00000000000E+00 0.  1.
         -1    1    1    2    0  502 -0.22965888285E+02  0.10320047114E+02 -0.25764910231E+02  0.36024519378E+02  0.00000000000E+00 0. -1.
<mgrwt>
<rscale>  4 0.27014204E+03</rscale>
<asrwt>0</asrwt>
<pdfrwt beam="1">  1       21 0.60212120E-01 0.27014204E+03</pdfrwt>
<pdfrwt beam="2">  1       21 0.47666909E-01 0.27014204E+03</pdfrwt>
<totfact> 0.10335612E+04</totfact>
</mgrwt>
</event>
<event>
 5    0  0.1702508E-001  0.2402169E+03  0.7546771E-02  0.1119648E+00
         21   -1    0    0  503  502  0.00000000000E+00  0.00000000000E+00  0.10237517383E+04  0.10237517383E+04  0.00000000000E+00 0.  1.
         21   -1    0    0  501  503 -0.00000000000E+00 -0.00000000000E+00 -0.12701275567E+04  0.12701275567E+04  0.00000000000E+00 0. -1.
         25    1    1    2    0    0 -0.12395017552E+03 -0.16859904111E+03  0.96489304560E+03  0.99520493976E+03  0.12500000000E+03 0.  0.
          3    1    1    2  501    0 -0.76625159763E+02  0.16109734317E+03 -0.96316931927E+03  0.97955035944E+03  0.00000000000E+00 0.  1.
         -3    1    1    2    0  502  0.20057533529E+03  0.75016979443E+01 -0.24809954477E+03  0.31912399582E+03  0.00000000000E+00 0. -1.
<mgrwt>
<rscale>  4 0.24021685E+03</rscale>
<asrwt>0</asrwt>
<pdfrwt beam="1">  1       21 0.15750027E+00 0.24021685E+03</pdfrwt>
<pdfrwt beam="2">  1       21 0.19540424E+00 0.24021685E+03</pdfrwt>
<totfact> 0.35211409E+01</totfact>
</mgrwt>
</event>
<event>
 5    0  0.1702508E-001  0.3887353E+03  0.7546771E-02  0.1047752E+00
         21   -1    0    0  503  502  0.00000000000E+00  0.00000000000E+00  0.39570342945E+03  0.39570342945E+03  0.00000000000E+00 0. -1.
         21   -1    0    0  501  503 -0.00000000000E+00 -0.00000000000E+00 -0.85481816705E+03  0.85481816705E+03  0.00000000000E+00 0.  1.
         25    1    1    2    0    0 -0.31121172457E+03  0.50907666690E+02  0.95926893277E+01  0.33935431001E+03  0.12500000000E+03 0.  0.
          1    1    1    2  501    0  0.45819639907E+03  0.51539382258E+02 -0.60074994350E+02  0.46498306743E+03  0.00000000000E+00 0. -1.
         -1    1    1    2    0  502 -0.14698467450E+03 -0.10244704895E+03 -0.40863243258E+03  0.44618421905E+03  0.00000000000E+00 0.  1.
<mgrwt>
<rscale>  4 0.38873526E+03</rscale>
<asrwt>0</asrwt>
<pdfrwt beam="1">  1       21 0.60877451E-01 0.38873526E+03</pdfrwt>
<pdfrwt beam="2">  1       21 0.13151049E+00 0.38873526E+03</pdfrwt>
<totfact> 0.91696892E+02</totfact>
</mgrwt>
</event>
<event>
 5    0  0.1702508E-001  0.2125641E+03  0.7546771E-02  0.1139551E+00
         21   -1    0    0  503  502  0.00000000000E+00  0.00000000000E+00  0.15800043569E+04  0.15800043569E+04  0.00000000000E+00 0.  1.
         21   -1    0    0  501  503 -0.00000000000E+00 -0.00000000000E+00 -0.74302553155E+02  0.74302553155E+02  0.00000000000E+00 0.  1.
         25    1    1    2    0    0  0.13447686256E+03 -0.15000824689E+03  0.12136446787E+04  0.12365859885E+04  0.12500000000E+03 0.  0.
          1    1    1    2  501    0 -0.27636660630E+02  0.64802781107E+02 -0.23157744549E+02  0.74158388484E+02  0.00000000000E+00 0. -1.
         -1    1    1    2    0  502 -0.10684020193E+03  0.85205465783E+02  0.31521486958E+03  0.34356253311E+03  0.00000000000E+00 0.  1.
<mgrwt>
<rscale>  4 0.21256409E+03</rscale>
<asrwt>0</asrwt>
<pdfrwt beam="1">  1       21 0.24307757E+00 0.21256409E+03</pdfrwt>
<pdfrwt beam="2">  1       21 0.11431163E-01 0.21256409E+03</pdfrwt>
<totfact> 0.45833093E+03</totfact>
</mgrwt>
</event>
<event>
 5    0  0.1702508E-001  0.2274049E+03  0.7546771E-02  0.1128480E+00
         21   -1    0    0  503  502  0.00000000000E+00  0.00000000000E+00  0.14621049983E+03  0.14621049983E+03  0.00000000000E+00 0. -1.
         21   -1    0    0  501  503 -0.00000000000E+00 -0.00000000000E+00 -0.99032491394E+03  0.99032491394E+03  0.00000000000E+00 0.  1.
         25    1    1    2    0    0 -0.24221273651E+03  0.20323896070E+02 -0.60897190138E+02  0.28002417440E+03  0.12500000000E+03 0.  0.
          1    1    1    2  501    0  0.10031341113E+03 -0.12965881377E+02 -0.66217122556E+03  0.66985194371E+03  0.00000000000E+00 0.  1.
         -1    1    1    2    0  502  0.14189932538E+03 -0.73580146929E+01 -0.12104599841E+03  0.18665929566E+03  0.00000000000E+00 0. -1.
<mgrwt>
<rscale>  4 0.22740495E+03</rscale>
<asrwt>0</asrwt>
<pdfrwt beam="1">  1       21 0.22493923E-01 0.22740495E+03</pdfrwt>
<pdfrwt beam="2">  1       21 0.15235768E+00 0.22740495E+03</pdfrwt>
<totfact> 0.51648389E+03</totfact>
</mgrwt>
</event>
<event>
 5    0  0.1702508E-001  0.2344547E+03  0.7546771E-02  0.1123543E+00
         21   -1    0    0  503  502  0.00000000000E+00  0.00000000000E+00  0.45666970109E+03  0.45666970109E+03  0.00000000000E+00 0.  1.
         21   -1    0    0  501  503 -0.00000000000E+00 -0.00000000000E+00 -0.16332315561E+03  0.16332315561E+03  0.00000000000E+00 0. -1.
         25    1    1    2    0    0  0.34310226863E+02  0.20037011820E+03  0.69412092487E+02  0.24853252206E+03  0.12500000000E+03 0.  0.
          3    1    1    2  501    0  0.56308166279E+02 -0.19481505797E+03  0.17743676183E+03  0.26945745647E+03  0.00000000000E+00 0. -1.
         -3    1    1    2    0  502 -0.90618393142E+02 -0.55550602336E+01  0.46497691167E+02  0.10200287816E+03  0.00000000000E+00 0.  1.
<mgrwt>
<rscale>  4 0.23445474E+03</rscale>
<asrwt>0</asrwt>
<pdfrwt beam="1">  1       21 0.70256877E-01 0.23445474E+03</pdfrwt>
<pdfrwt beam="2">  1       21 0.25126640E-01 0.23445474E+03</pdfrwt>
<totfact> 0.26962384E+04</totfact>
</mgrwt>
</event>
<event>
 5    0  0.1702508E-001  0.2555373E+03  0.7546771E-02  0.1109855E+00
         21   -1    0    0  503  502  0.00000000000E+00  0.00000000000E+00  0.10096695329E+04  0.10096695329E+04  0.00000000000E+00 0.  1.
         21   -1    0    0  501  503 -0.00000000000E+00 -0.00000000000E+00 -0.61950255588E+03  0.61950255588E+03  0.00000000000E+00 0.  1.
         25    1    1    2    0    0 -0.37462705918E+02  0.22040185484E+03  0.96973164772E+03  0.10029879862E+04  0.12500000000E+03 0.  0.
          1    1    1    2  501    0  0.52611437680E+02 -0.19710763706E+03 -0.45634318188E+03  0.49986846631E+03  0.00000000000E+00 0.  1.
         -1    1    1    2    0  502 -0.15148731762E+02 -0.23294217777E+02 -0.12322148880E+03  0.12631563624E+03  0.00000000000E+00 0. -1.
<mgrwt>
<rscale>  4 0.25553735E+03</rscale>
<asrwt>0</asrwt>
<pdfrwt beam="1">  1       21 0.15533377E+00 0.25553735E+03</pdfrwt>
<pdfrwt beam="2">  1       21 0.95308086E-01 0.25553735E+03</pdfrwt>
<totfact> 0.23381296E+02</totfact>
</mgrwt>
</event>
<event>
 5    0  0.1702508E-001  0.2075345E+03  0.7546771E-02  0.1143533E+00
         21   -1    0    0  503  502  0.00000000000E+00  0.00000000000E+00  0.58204987023E+03  0.58204987023E+03  0.00000000000E+00 0. -1.
         21   -1    0    0  501  503 -0.00000000000E+00 -0.00000000000E+00 -0.23714421746E+03  0.23714421746E+03  0.00000000000E+00 0. -1.
         25    1    1    2    0    0  0.20735698169E+03 -0.54867531513E+02  0.10980918266E+03  0.27145979530E+03  0.12500000000E+03 0.  0.
          4    1    1    2  501    0 -0.50648320177E+02  0.49487507039E+02 -0.13131012015E+03  0.14918650523E+03  0.00000000000E+00 0.  1.
         -4    1    1    2    0  502 -0.15670866151E+03  0.53800244744E+01  0.36640659026E+03  0.39854778715E+03  0.00000000000E+00 0. -1.
<mgrwt>
<rscale>  4 0.20753452E+03</rscale>
<asrwt>0</asrwt>
<pdfrwt beam="1">  1       21 0.89546133E-01 0.20753452E+03</pdfrwt>
<pdfrwt beam="2">  1       21 0.36483726E-01 0.20753452E+03</pdfrwt>
<totfact> 0.76186007E+03</totfact>
</mgrwt>
</event>
<event>
 5    0  0.1702508E-001  0.2934898E+03  0.7546771E-02  0.1088541E+00
         21   -1    0    0  503  502  0.00000000000E+00  0.00000000000E+00  0.33618682120E+03  0.33618682120E+03  0.00000000000E+00 0.  1.
         21   -1    0    0  501  503 -0.00000000000E+00 -0.00000000000E+00 -0.92464149541E+03  0.92464149541E+03  0.00000000000E+00 0. -1.
         25    1    1    2    0    0  0.22910356644E+03 -0.12238165190E+03  0.15965072278E+03  0.32951337782E+03  0.12500000000E+03 0.  0.
          1    1    1    2  501    0  0.15893415519E+02 -0.13638779245E+02 -0.62481947150E+03  0.62517036792E+03  0.00000000000E+00 0. -1.
         -1    1    1    2    0  502 -0.24499698196E+03  0.13602043115E+03 -0.12328592548E+03  0.30614457088E+03  0.00000000000E+00 0.  1.
<mgrwt>
<rscale>  4 0.29348983E+03</rscale>
<asrwt>0</asrwt>
<pdfrwt beam="1">  1       21 0.51721050E-01 0.29348983E+03</pdfrwt>
<pdfrwt beam="2">  1       21 0.14225254E+00 0.29348983E+03</pdfrwt>
<totfact> 0.11208295E+03</totfact>
</mgrwt>
</event>
<event>
 5    0  0.1702508E-001  0.2656147E+03  0.7546771E-02  0.1103816E+00
         21   -1    0    0  503  502  0.00000000000E+00  0.00000000000E+00  0.26380421982E+03  0.26380421982E+03  0.00000000000E+00 0. -1.
         21   -1    0    0  501  503 -0.00000000000E+00 -0.00000000000E+00 -0.38255731367E+03  0.38255731367E+03  0.00000000000E+00 0. -1.
         25    1    1    2    0    0  0.15617051513E+03  0.18562571057E+03  0.10616140627E+03  0.29281628780E+03  0.12500000000E+03 0.  0.
          1    1    1    2  501    0 -0.14673244028E+03 -0.16094300242E+03 -0.12697333641E+03  0.25210173981E+03  0.00000000000E+00 0. -1.
         -1    1    1    2    0  502 -0.94380748529E+01 -0.24682708149E+02 -0.97941163709E+02  0.10144350589E+03  0.00000000000E+00 0.  1.
<mgrwt>
<rscale>  4 0.26561469E+03</rscale>
<asrwt>0</asrwt>
<pdfrwt beam="1">  1       21 0.40585265E-01 0.26561469E+03</pdfrwt>
<pdfrwt beam="2">  1       21 0.58854971E-01 0.26561469E+03</pdfrwt>
<totfact> 0.15165801E+04</totfact>
</mgrwt>
</event>
<event>
 5    0  0.1702508E-001  0.3330448E+03  0.7546771E-02  0.1069798E+00
         21   -1    0    0  503  502  0.00000000000E+00  0.00000000000E+00  0.13768603352E+03  0.13768603352E+03  0.00000000000E+00 0.  1.
         21   -1    0    0  501  503 -0.00000000000E+00 -0.00000000000E+00 -0.14580032506E+04  0.14580032506E+04  0.00000000000E+00 0. -1.
         25    1    1    2    0    0 -0.12203830435E+03  0.28362388869E+03 -0.14709487185E+03  0.36413975242E+03  0.12500000000E+03 0.  0.
          4    1    1    2  501    0 -0.21077174345E+02 -0.96061512064E+01 -0.37255767240E+03  0.37327703477E+03  0.00000000000E+00 0.  1.
         -4    1    1    2    0  502  0.14311547870E+03 -0.27401773748E+03 -0.80066467287E+03  0.85827249698E+03  0.00000000000E+00 0. -1.
<mgrwt>
<rscale>  4 0.33304485E+03</rscale>
<asrwt>0</asrwt>
<pdfrwt beam="1">  1       21 0.21182466E-01 0.33304485E+03</pdfrwt>
<pdfrwt beam="2">  1       21 0.22430820E+00 0.33304485E+03</pdfrwt>
<totfact> 0.17462835E+03</totfact>
</mgrwt>
</event>
<event>
 5    0  0.1702508E-001  0.2522620E+03  0.7546771E-02  0.1111884E+00
         21   -1    0    0  503  502  0.00000000000E+00  0.00000000000E+00  0.89672023822E+03  0.89672023822E+03  0.00000000000E+00 0. -1.
         21   -1    0    0  501  503 -0.00000000000E+00 -0.00000000000E+00 -0.76770697992E+03  0.76770697992E+03  0.00000000000E+00 0.  1.
         25    1    1    2    0    0  0.17949292836E+03 -0.12683040450E+03  0.85982220435E+03  0.89622702812E+03  0.12500000000E+03 0.  0.
          4    1    1    2  501    0 -0.29380753410E+02 -0.43146360851E+01 -0.17999767497E+03  0.18243083004E+03  0.00000000000E+00 0. -1.
         -4    1    1    2    0  502 -0.15011217495E+03  0.13114504059E+03 -0.55081127109E+03  0.58576935999E+03  0.00000000000E+00 0.  1.
<mgrwt>
<rscale>  4 0.25226203E+03</rscale>
<asrwt>0</asrwt>
<pdfrwt beam="1">  1       21 0.13795696E+00 0.25226203E+03</pdfrwt>
<pdfrwt beam="2">  1       21 0.11810877E+00 0.25226203E+03</pdfrwt>
<totfact> 0.19090752E+02</totfact>
</mgrwt>
</event>
<event>
 5    0  0.1702508E-001  0.2394369E+03  0.7546771E-02  0.1120169E+00
         21   -1    0    0  503  502  0.00000000000E+00  0.00000000000E+00  0.92960032049E+03  0.92960032049E+03  0.00000000000E+00 0.  1.
         21   -1    0    0  501  503 -0.00000000000E+00 -0.00000000000E+00 -0.24571788350E+03  0.24571788350E+03  0.00000000000E+00 0.  1.
         25    1    1    2    0    0  0.19475064800E+03 -0.60619356939E+02  0.80449840012E+03  0.83931233586E+03  0.12500000000E+03 0.  0.
          1    1    1    2  501    0  0.11207758538E+02  0.31519321854E+02 -0.12353200593E+03  0.12798139705E+03  0.00000000000E+00 0. -1.
         -1    1    1    2    0  502 -0.20595840654E+03  0.29100035085E+02  0.29160427950E+01  0.20802447109E+03  0.00000000000E+00 0.  1.
<mgrwt>
<rscale>  4 0.23943691E+03</rscale>
<asrwt>0</asrwt>
<pdfrwt beam="1">  1       21 0.14301543E+00 0.23943691E+03</pdfrwt>
<pdfrwt beam="2">  1       21 0.37802752E-01 0.23943691E+03</pdfrwt>
<totfact> 0.21950064E+03</totfact>
</mgrwt>
</event>
<event>
 5    0  0.1702508E-001  0.3607755E+03  0.7546771E-02  0.1058277E+00
         21   -1    0    0  503  502  0.00000000000E+00  0.00000000000E+00  0.11966529128E+04  0.11966529128E+04  0.00000000000E+00 0.  1.
         21   -1    0    0  501  503 -0.00000000000E+00 -0.00000000000E+00 -0.30302597780E+03  0.30302597780E+03  0.00000000000E+00 0.  1.
         25    1    1    2    0    0  0.12502072391E+03  0.34591456704E+03  0.74764798045E+03  0.84254944767E+03  0.12500000000E+03 0.  0.
          4    1    1    2  501    0 -0.25064112079E+03 -0.22902372252E+03 -0.10295492220E+03  0.35478522083E+03  0.00000000000E+00 0.  1.
         -4    1    1    2    0  502  0.12562039688E+03 -0.11689084452E+03  0.24893387680E+03  0.30234422214E+03  0.00000000000E+00 0. -1.
<mgrwt>
<rscale>  4 0.36077554E+03</rscale>
<asrwt>0</asrwt>
<pdfrwt beam="1">  1       21 0.18410045E+00 0.36077554E+03</pdfrwt>
<pdfrwt beam="2">  1       21 0.46619382E-01 0.36077554E+03</pdfrwt>
<totfact> 0.65487540E+02</totfact>
</mgrwt>
</event>
<event>
 5    0  0.1702508E-001  0.4091689E+03  0.7546771E-02  0.1040650E+00
         21   -1    0    0  503  502  0.00000000000E+00  0.00000000000E+00  0.44346936147E+03  0.44346936147E+03  0.00000000000E+00 0. -1.
         21   -1    0    0  501  503 -0.00000000000E+00 -0.00000000000E+00 -0.46746257153E+03  0.46746257153E+03  0.00000000000E+00 0. -1.
         25    1    1    2    0    0 -0.30721627740E+03  0.23960872530E+03  0.19443965531E+03  0.45301872135E+03  0.12500000000E+03 0.  0.
          4    1    1    2  501    0  0.79312662580E+01 -0.44151363585E+02 -0.20579120958E+02  0.49353298879E+02  0.00000000000E+00 0.  1.
         -4    1    1    2    0  502  0.29928501114E+03 -0.19545736171E+03 -0.19785374442E+03  0.40855991277E+03  0.00000000000E+00 0. -1.
<mgrwt>
<rscale>  4 0.40916889E+03</rscale>
<asrwt>0</asrwt>
<pdfrwt beam="1">  1       21 0.68226056E-01 0.40916889E+03</pdfrwt>
<pdfrwt beam="2">  1       21 0.71917318E-01 0.40916889E+03</pdfrwt>
<totfact> 0.30252411E+03</totfact>
</mgrwt>
</event>
<event>
 5    0  0.1702508E-001  0.2922099E+03  0.7546771E-02  0.1089201E+00
         21   -1    0    0  503  502  0.00000000000E+00  0.00000000000E+00  0.58705105637E+03  0.58705105637E+03  0.00000000000E+00 0. -1.
         21   -1    0    0  501  503 -0.00000000000E+00 -0.00000000000E+00 -0.20805198065E+03  0.20805198065E+03  0.00000000000E+00 0.  1.
         25    1    1    2    0    0 -0.23033256462E+03  0.63822703806E+02  0.22091552143E+03  0.34864752323E+03  0.12500000000E+03 0.  0.
          4    1    1    2  501    0 -0.54105322938E+02 -0.99013708858E+02  0.10667269107E+03  0.15527447804E+03  0.00000000000E+00 0. -1.
         -4    1    1    2    0  502  0.28443788756E+03  0.35191005052E+02  0.51410863223E+02  0.29118103574E+03  0.00000000000E+00 0.  1.
<mgrwt>
<rscale>  4 0.29220992E+03</rscale>
<asrwt>0</asrwt>
<pdfrwt beam="1">  1       21 0.90315546E-01 0.29220992E+03</pdfrwt>
<pdfrwt beam="2">  1       21 0.32007997E-01 0.29220992E+03</pdfrwt>
<totfact> 0.92269602E+03</totfact>
</mgrwt>
</event>
<event>
 5    0  0.1702508E-001  0.2702453E+03  0.7546771E-02  0.1101139E+00
         21   -1    0    0  503  502  0.00000000000E+00  0.00000000000E+00  0.14347016285E+04  0.14347016285E+04  0.00000000000E+00 0. -1.
         21   -1    0    0  501  503 -0.00000000000E+00 -0.00000000000E+00 -0.15885643060E+03  0.15885643060E+03  0.00000000000E+00 0.  1.
         25    1    1    2    0    0 -0.19765040146E+03 -0.77366825773E+02  0.30842280777E+03  0.39471627188E+03  0.12500000000E+03 0.  0.
          3    1    1    2  501    0 -0.46246194257E+02  0.24886842045E+02 -0.94443304529E+02  0.10806295924E+03  0.00000000000E+00 0.  1.
         -3    1    1    2    0  502  0.24389659572E+03  0.52479983728E+02  0.10618656947E+04  0.10907788280E+04  0.00000000000E+00 0. -1.
<mgrwt>
<rscale>  4 0.27024526E+03</rscale>
<asrwt>0</asrwt>
<pdfrwt beam="1">  1       21 0.22072332E+00 0.27024526E+03</pdfrwt>
<pdfrwt beam="2">  1       21 0.24439452E-01 0.27024526E+03</pdfrwt>
<totfact> 0.14627129E+03</totfact>
</mgrwt>
</event>
<event>
 5    0  0.1702508E-001  0.2802878E+03  0.7546771E-02  0.1095532E+00
         21   -1    0    0  503  502  0.00000000000E+00  0.00000000000E+00  0.73659412421E+03  0.73659412421E+03  0.00000000000E+00 0.  1.
         21   -1    0    0  501  503 -0.00000000000E+00 -0.00000000000E+00 -0.12071079457E+03  0.12071079457E+03  0.00000000000E+00 0.  1.
         25    1    1    2    0    0  0.26089656540E+03  0.31373493648E+02  0.33756355085E+03  0.44567416888E+03  0.12500000000E+03 0.  0.
          2    1    1    2  501    0 -0.23855147324E+03 -0.37507105132E+02  0.29634432139E+03  0.38227417535E+03  0.00000000000E+00 0.  1.
         -2    1    1    2    0  502 -0.22345092160E+02  0.61336114836E+01 -0.18024542595E+02  0.29356574548E+02  0.00000000000E+00 0. -1.
<mgrwt>
<rscale>  4 0.28028782E+03</rscale>
<asrwt>0</asrwt>
<pdfrwt beam="1">  1       21 0.11332217E+00 0.28028782E+03</pdfrwt>
<pdfrwt beam="2">  1       21 0.18570892E-01 0.28028782E+03</pdfrwt>
<totfact> 0.15322284E+04</totfact>
</mgrwt>
</event>
<event>
 5    0  0.1702508E-001  0.2595606E+03  0.7546771E-02  0.1107408E+00
         21   -1    0    0  503  502  0.00000000000E+00  0.00000000000E+00  0.80923553833E+02  0.80923553833E+02  0.00000000000E+00 0. -1.
         21   -1    0    0  501  503 -0.00000000000E+00 -0.00000000000E+00 -0.12067876299E+04  0.12067876299E+04  0.00000000000E+00 0. -1.
         25    1    1    2    0    0  0.15519330147E+02 -0.25579316869E+03 -0.34765962034E+03  0.44962562913E+03  0.12500000000E+03 0.  0.
          1    1    1    2  501    0  0.31050759382E+02  0.20007337946E+03 -0.35485539413E+03  0.40855337176E+03  0.00000000000E+00 0. -1.
         -1    1    1    2    0  502 -0.46570089529E+02  0.55719789223E+02 -0.42334906156E+03  0.42953218282E+03  0.00000000000E+00 0.  1.
<mgrwt>
<rscale>  4 0.25956055E+03</rscale>
<asrwt>0</asrwt>
<pdfrwt beam="1">  1       21 0.12449778E-01 0.25956055E+03</pdfrwt>
<pdfrwt beam="2">  1       21 0.18565963E+00 0.25956055E+03</pdfrwt>
<totfact> 0.87183618E+03</totfact>
</mgrwt>
</event>
<event>
 5    0  0.1702508E-001  0.1890159E+03  0.7546771E-02  0.1159352E+00
         21   -1    0    0  503  502  0.00000000000E+00  0.00000000000E+00  0.34857051879E+03  0.34857051879E+03  0.00000000000E+00 0. -1.
         21   -1    0    0  501  503 -0.00000000000E+00 -0.00000000000E+00 -0.26285271235E+03  0.26285271235E+03  0.00000000000E+00 0.  1.
         25    1    1    2    0    0  0.72762982476E+02 -0.20849599013E+03  0.18938493112E+03  0.31663335525E+03  0.12500000000E+03 0.  0.
          2    1    1    2  501    0 -0.75904734698E+02  0.74354530865E+02  0.24709466567E+02  0.10909025047E+03  0.00000000000E+00 0. -1.
         -2    1    1    2    0  502  0.31417522217E+01  0.13414145927E+03 -0.12837659124E+03  0.18569962542E+03  0.00000000000E+00 0.  1.
<mgrwt>
<rscale>  4 0.18901585E+03</rscale>
<asrwt>0</asrwt>
<pdfrwt beam="1">  1       21 0.53626234E-01 0.18901585E+03</pdfrwt>
<pdfrwt beam="2">  1       21 0.40438879E-01 0.18901585E+03</pdfrwt>
<totfact> 0.19428949E+04</totfact>
</mgrwt>
</event>
<event>
 5    0  0.1702508E-001  0.2776061E+03  0.7546771E-02  0.1097004E+00
         21   -1    0    0  503  502  0.00000000000E+00  0.00000000000E+00  0.27173409855E+03  0.27173409855E+03  0.00000000000E+00 0.  1.
         21   -1    0    0  501  503 -0.00000000000E+00 -0.00000000000E+00 -0.62917249512E+03  0.62917249512E+03  0.00000000000E+00 0.  1.
         25    1    1    2    0    0  0.23928913271E+03  0.64098507143E+02  0.14825271539E+03  0.31459779921E+03  0.12500000000E+03 0.  0.
          4    1    1    2  501    0 -0.24932117635E+03 -0.28257700855E+02 -0.38116816765E+03  0.45634276445E+03  0.00000000000E+00 0.  1.
         -4    1    1    2    0  502  0.10032043643E+02 -0.35840806288E+02 -0.12452294432E+03  0.12996603001E+03  0.00000000000E+00 0. -1.
<mgrwt>
<rscale>  4 0.27760611E+03</rscale>
<asrwt>0</asrwt>
<pdfrwt beam="1">  1       21 0.41805247E-01 0.27760611E+03</pdfrwt>
<pdfrwt beam="2">  1       21 0.96795766E-01 0.27760611E+03</pdfrwt>
<totfact> 0.46089769E+03</totfact>
</mgrwt>
</event>
<event>
 5    0  0.1702508E-001  0.2780379E+03  0.7546771E-02  0.1096765E+00
         21   -1    0    0  503  502  0.00000000000E+00  0.00000000000E+00  0.43812086341E+03  0.43812086341E+03  0.00000000000E+00 0. -1.
         21   -1    0    0  501  503 -0.00000000000E+00 -0.00000000000E+00 -0.43170696094E+03  0.43170696094E+03  0.00000000000E+00 0.  1.
         25    1    1    2    0    0  0.32201786328E+03  0.94451485538E+00  0.18104458043E+03  0.38999812369E+03  0.12500000000E+03 0.  0.
          2    1    1    2  501    0 -0.19516691090E+03  0.38095310270E+02  0.62194562329E+02  0.20834956049E+03  0.00000000000E+00 0. -1.
         -2    1    1    2    0  502 -0.12685095238E+03 -0.39039825125E+02 -0.23682524029E+03  0.27148014016E+03  0.00000000000E+00 0.  1.
<mgrwt>
<rscale>  4 0.27803795E+03</rscale>
<asrwt>0</asrwt>
<pdfrwt beam="1">  1       21 0.67403209E-01 0.27803795E+03</pdfrwt>
<pdfrwt beam="2">  1       21 0.66416456E-01 0.27803795E+03</pdfrwt>
<totfact> 0.39479886E+03</totfact>
</mgrwt>
</event>
<event>
 5    0  0.1702508E-001  0.4375484E+03  0.7546771E-02  0.1031502E+00
         21   -1    0    0  503  502  0.00000000000E+00  0.00000000000E+00  0.54736991391E+03  0.54736991391E+03  0.00000000000E+00 0.  1.
         21   -1    0    0  501  503 -0.00000000000E+00 -0.00000000000E+00 -0.10262476193E+04  0.10262476193E+04  0.00000000000E+00 0. -1.
         25    1    1    2    0    0 -0.41108125258E+03  0.11317286886E+03  0.20169301826E+03  0.48795590793E+03  0.12500000000E+03 0.  0.
          3    1    1    2  501    0  0.40219164984E+03 -0.78467762549E+02 -0.56732729963E+01  0.40981398095E+03  0.00000000000E+00 0.  1.
         -3    1    1    2    0  502  0.88896027469E+01 -0.34705106306E+02 -0.67489745064E+03  0.67584764431E+03  0.00000000000E+00 0. -1.
<mgrwt>
<rscale>  4 0.43754845E+03</rscale>
<asrwt>0</asrwt>
<pdfrwt beam="1">  1       21 0.84210757E-01 0.43754845E+03</pdfrwt>
<pdfrwt beam="2">  1       21 0.15788425E+00 0.43754845E+03</pdfrwt>
<totfact> 0.26363789E+02</totfact>
</mgrwt>
</event>
<event>
 5    0  0.1702508E-001  0.2007282E+03  0.7546771E-02  0.1149126E+00
         21   -1    0    0  503  502  0.00000000000E+00  0.00000000000E+00  0.30454732168E+03  0.30454732168E+03  0.00000000000E+00 0.  1.
         21   -1    0    0  501  503 -0.00000000000E+00 -0.00000000000E+00 -0.37480554892E+03  0.37480554892E+03  0.00000000000E+00 0.  1.
         25    1    1    2    0    0  0.23062556455E+03  0.25231981992E+02 -0.10091390337E+03  0.28219394011E+03  0.12500000000E+03 0.  0.
          2    1    1    2  501    0 -0.10223439264E+03 -0.76809173490E+02  0.16199673832E+03  0.20638426150E+03  0.00000000000E+00 0.  1.
         -2    1    1    2    0  502 -0.12839117191E+03  0.51577191498E+02 -0.13134106219E+03  0.19077466898E+03  0.00000000000E+00 0. -1.
<mgrwt>
<rscale>  4 0.20072821E+03</rscale>
<asrwt>0</asrwt>
<pdfrwt beam="1">  1       21 0.46853434E-01 0.20072821E+03</pdfrwt>
<pdfrwt beam="2">  1       21 0.57662392E-01 0.20072821E+03</pdfrwt>
<totfact> 0.12236637E+04</totfact>
</mgrwt>
</event>
<event>
 5    0  0.1702508E-001  0.2386534E+03  0.7546771E-02  0.1120693E+00
         21   -1    0    0  503  502  0.00000000000E+00  0.00000000000E+00  0.20184156044E+03  0.20184156044E+03  0.00000000000E+00 0. -1.
         21   -1    0    0  501  503 -0.00000000000E+00 -0.00000000000E+00 -0.53000344043E+03  0.53000344043E+03  0.00000000000E+00 0. -1.
         25    1    1    2    0    0 -0.16695333912E+03 -0.11875780750E+03  0.91083145986E+02  0.25670600649E+03  0.12500000000E+03 0.  0.
          1    1    1    2  501    0  0.17098336315E+03  0.98019455242E+02 -0.33868970966E+03  0.39185946908E+03  0.00000000000E+00 0. -1.
         -1    1    1    2    0  502 -0.40300240258E+01  0.20738352256E+02 -0.80555316311E+02  0.83279525298E+02  0.00000000000E+00 0.  1.
<mgrwt>
<rscale>  4 0.23865341E+03</rscale>
<asrwt>0</asrwt>
<pdfrwt beam="1">  1       21 0.31052548E-01 0.23865341E+03</pdfrwt>
<pdfrwt beam="2">  1       21 0.81538990E-01 0.23865341E+03</pdfrwt>
<totfact> 0.12755393E+04</totfact>
</mgrwt>
</event>
<event>
 5    0  0.1702508E-001  0.2723661E+03  0.7546771E-02  0.1099933E+00
         21   -1    0    0  503  502  0.00000000000E+00  0.00000000000E+00  0.37296459602E+03  0.37296459602E+03  0.00000000000E+00 0.  1.
         21   -1    0    0  501  503 -0.00000000000E+00 -0.00000000000E+00 -0.43020165600E+03  0.43020165600E+03  0.00000000000E+00 0. -1.
         25    1    1    2    0    0 -0.21946607748E+02 -0.24546208422E+03  0.22142731668E+03  0.35410216739E+03  0.12500000000E+03 0.  0.
          1    1    1    2  501    0 -0.97865738141E+02  0.36340591878E+02 -0.46027939606E+02  0.11409168482E+03  0.00000000000E+00 0.  1.
         -1    1    1    2    0  502  0.11981234589E+03  0.20912149234E+03 -0.23263643706E+03  0.33497239981E+03  0.00000000000E+00 0. -1.
<mgrwt>
<rscale>  4 0.27236610E+03</rscale>
<asrwt>0</asrwt>
<pdfrwt beam="1">  1       21 0.57379169E-01 0.27236610E+03</pdfrwt>
<pdfrwt beam="2">  1       21 0.66184870E-01 0.27236610E+03</pdfrwt>
<totfact> 0.56696709E+03</totfact>
</mgrwt>
</event>
<event>
 5    0  0.1702508E-001  0.2996713E+03  0.7546771E-02  0.1085405E+00
         21   -1    0    0  503  502  0.00000000000E+00  0.00000000000E+00  0.11818317873E+04  0.11818317873E+04  0.00000000000E+00 0.  1.
         21   -1    0    0  501  503 -0.00000000000E+00 -0.00000000000E+00 -0.26179461113E+03  0.26179461113E+03  0.00000000000E+00 0. -1.
         25    1    1    2    0    0  0.23276737214E+03 -0.14361070587E+03  0.10674232799E+04  0.11089734635E+04  0.12500000000E+03 0.  0.
          1    1    1    2  501    0 -0.24013778493E+03  0.10673727524E+03 -0.13105283662E+03  0.29365600226E+03  0.00000000000E+00 0. -1.
         -1    1    1    2    0  502  0.73704127919E+01  0.36873430623E+02 -0.16333267109E+02  0.40996932630E+02  0.00000000000E+00 0.  1.
<mgrwt>
<rscale>  4 0.29967130E+03</rscale>
<asrwt>0</asrwt>
<pdfrwt beam="1">  1       21 0.18182027E+00 0.29967130E+03</pdfrwt>
<pdfrwt beam="2">  1       21 0.40276095E-01 0.29967130E+03</pdfrwt>
<totfact> 0.95611101E+02</totfact>
</mgrwt>
</event>
<event>
 5    0  0.1702508E-001  0.2641177E+03  0.7546771E-02  0.1104694E+00
         21   -1    0    0  503  502  0.00000000000E+00  0.00000000000E+00  0.52445663721E+03  0.52445663721E+03  0.00000000000E+00 0. -1.
         21   -1    0    0  501  503 -0.00000000000E+00 -0.00000000000E+00 -0.24232605668E+03  0.24232605668E+03  0.00000000000E+00 0.  1.
         25    1    1    2    0    0 -0.18346256061E+03 -0.18706235538E+03  0.32691877881E+03  0.43720901624E+03  0.12500000000E+03 0.  0.
          3    1    1    2  501    0  0.94344994032E+01  0.95918350898E+02 -0.85625869166E+02  0.12892295873E+03  0.00000000000E+00 0. -1.
         -3    1    1    2    0  502  0.17402806120E+03  0.91144004483E+02  0.40837670890E+02  0.20065071892E+03  0.00000000000E+00 0.  1.
<mgrwt>
<rscale>  4 0.26411771E+03</rscale>
<asrwt>0</asrwt>
<pdfrwt beam="1">  1       21 0.80685636E-01 0.26411771E+03</pdfrwt>
<pdfrwt beam="2">  1       21 0.37280932E-01 0.26411771E+03</pdfrwt>
<totfact> 0.89550143E+03</totfact>
</mgrwt>
</event>
<event>
 5    0  0.1702508E-001  0.2722778E+03  0.7546771E-02  0.1099983E+00
         21   -1    0    0  503  502  0.00000000000E+00  0.00000000000E+00  0.20437221501E+04  0.20437221501E+04  0.00000000000E+00 0. -1.
         21   -1    0    0  501  503 -0.00000000000E+00 -0.00000000000E+00 -0.16548896828E+03  0.16548896828E+03  0.00000000000E+00 0.  1.
         25    1    1    2    0    0  0.23951166751E+03  0.37897755429E+02  0.17810772010E+04  0.18018499035E+04  0.12500000000E+03 0.  0.
          3    1    1    2  501    0 -0.22833602624E+03 -0.79188595797E+02  0.18850008827E+03  0.30649707643E+03  0.00000000000E+00 0. -1.
         -3    1    1    2    0  502 -0.11175641275E+02  0.41290840368E+02 -0.91344107469E+02  0.10086413845E+03  0.00000000000E+00 0.  1.
<mgrwt>
<rscale>  4 0.27227781E+03</rscale>
<asrwt>0</asrwt>
<pdfrwt beam="1">  1       21 0.31441878E+00 0.27227781E+03</pdfrwt>
<pdfrwt beam="2">  1       21 0.25459843E-01 0.27227781E+03</pdfrwt>
<totfact> 0.37308154E+02</totfact>
</mgrwt>
</event>
<event>
 5    0  0.1702508E-001  0.2594129E+03  0.7546771E-02  0.1107496E+00
         21   -1    0    0  503  502  0.00000000000E+00  0.00000000000E+00  0.10237739053E+04  0.10237739053E+04  0.00000000000E+00 0. -1.
         21   -1    0    0  501  503 -0.00000000000E+00 -0.00000000000E+00 -0.11840289583E+03  0.11840289583E+03  0.00000000000E+00 0. -1.
         25    1    1    2    0    0  0.22344663767E+03  0.41733223907E+02  0.86870037100E+03  0.90660652791E+03  0.12500000000E+03 0.  0.
          1    1    1    2  501    0 -0.32597507345E+02 -0.12934228367E+02 -0.11011461256E+02  0.36757911089E+02  0.00000000000E+00 0.  1.
         -1    1    1    2    0  502 -0.19084913033E+03 -0.28798995540E+02  0.47682099690E+02  0.19881236210E+03  0.00000000000E+00 0. -1.
<mgrwt>
<rscale>  4 0.25941292E+03</rscale>
<asrwt>0</asrwt>
<pdfrwt beam="1">  1       21 0.15750367E+00 0.25941292E+03</pdfrwt>
<pdfrwt beam="2">  1       21 0.18215831E-01 0.25941292E+03</pdfrwt>
<totfact> 0.68739202E+03</totfact>
</mgrwt>
</event>
<event>
 5    0  0.1702508E-001  0.2503227E+03  0.7546771E-02  0.1113101E+00
         21   -1    0    0  503  502  0.00000000000E+00  0.00000000000E+00  0.55255322039E+03  0.55255322039E+03  0.00000000000E+00 0. -1.
         21   -1    0    0  501  503 -0.00000000000E+00 -0.00000000000E+00 -0.19187722355E+03  0.19187722355E+03  0.00000000000E+00 0. -1.
         25    1    1    2    0    0  0.11977576705E+03  0.16496123898E+03  0.32875510454E+03  0.40652596903E+03  0.12500000000E+03 0.  0.
          1    1    1    2  501    0 -0.96676969991E+02 -0.19798364715E+03 -0.67657155301E+02  0.23048091403E+03  0.00000000000E+00 0. -1.
         -1    1    1    2    0  502 -0.23098797057E+02  0.33022408174E+02  0.99578047612E+02  0.10742356088E+03  0.00000000000E+00 0.  1.
<mgrwt>
<rscale>  4 0.25032270E+03</rscale>
<asrwt>0</asrwt>
<pdfrwt beam="1">  1       21 0.85008187E-01 0.25032270E+03</pdfrwt>
<pdfrwt beam="2">  1       21 0.29519573E-01 0.25032270E+03</pdfrwt>
<totfact> 0.12723359E+04</totfact>
</mgrwt>
</event>
<event>
 5    0  0.1702508E-001  0.2532014E+03  0.7546771E-02  0.1111298E+00
         21   -1    0    0  503  502  0.00000000000E+00  0.00000000000E+00  0.99725791895E+03  0.99725791895E+03  0.00000000000E+00 0. -1.
         21   -1    0    0  501  503 -0.00000000000E+00 -0.00000000000E+00 -0.17267119963E+03  0.17267119963E+03  0.00000000000E+00 0. -1.
         25    1    1    2    0    0 -0.21206939151E+03 -0.24891144306E+01  0.77367003810E+03  0.81189281951E+03  0.12500000000E+03 0.  0.
          1    1    1    2  501    0 -0.45995707504E+02  0.40877101156E+02 -0.48992733146E+02  0.78656407296E+02  0.00000000000E+00 0.  1.
         -1    1    1    2    0  502  0.25806509901E+03 -0.38387986725E+02  0.99909414355E+02  0.27937989178E+03  0.00000000000E+00 0. -1.
<mgrwt>
<rscale>  4 0.25320142E+03</rscale>
<asrwt>0</asrwt>
<pdfrwt beam="1">  1       21 0.15342429E+00 0.25320142E+03</pdfrwt>
<pdfrwt beam="2">  1       21 0.26564801E-01 0.25320142E+03</pdfrwt>
<totfact> 0.36198903E+03</totfact>
</mgrwt>
</event>
<event>
 5    0  0.1702508E-001  0.2300832E+03  0.7546771E-02  0.1126581E+00
         21   -1    0    0  503  502  0.00000000000E+00  0.00000000000E+00  0.19977493678E+02  0.19977493678E+02  0.00000000000E+00 0. -1.
         21   -1    0    0  501  503 -0.00000000000E+00 -0.00000000000E+00 -0.26396817610E+04  0.26396817610E+04  0.00000000000E+00 0. -1.
         25    1    1    2    0    0  0.83160896142E+02 -0.18773456012E+03 -0.12413402945E+04  0.12644013312E+04  0.12500000000E+03 0.  0.
          4    1    1    2  501    0 -0.76839996203E+02  0.16621414791E+03 -0.10283724091E+04  0.10445483904E+04  0.00000000000E+00 0. -1.
         -4    1    1    2    0  502 -0.63208999387E+01  0.21520412206E+02 -0.34999156379E+03  0.35070953315E+03  0.00000000000E+00 0.  1.
<mgrwt>
<rscale>  4 0.23008323E+03</rscale>
<asrwt>0</asrwt>
<pdfrwt beam="1">  1       21 0.30734639E-02 0.23008323E+03</pdfrwt>
<pdfrwt beam="2">  1       21 0.40610444E+00 0.23008323E+03</pdfrwt>
<totfact> 0.46252856E+03</totfact>
</mgrwt>
</event>
<event>
 5    0  0.1702508E-001  0.4502846E+03  0.7546771E-02  0.1027637E+00
         21   -1    0    0  503  502  0.00000000000E+00  0.00000000000E+00  0.46310188567E+03  0.46310188567E+03  0.00000000000E+00 0. -1.
         21   -1    0    0  501  503 -0.00000000000E+00 -0.00000000000E+00 -0.15421109659E+04  0.15421109659E+04  0.00000000000E+00 0. -1.
         25    1    1    2    0    0 -0.14869151522E+03 -0.41001423827E+03  0.22258080904E+03  0.50535933635E+03  0.12500000000E+03 0.  0.
          2    1    1    2  501    0  0.30670867255E+03  0.32616552861E+03 -0.46951553549E+03  0.64876729259E+03  0.00000000000E+00 0.  1.
         -2    1    1    2    0  502 -0.15801715733E+03  0.83848709664E+02 -0.83207435381E+03  0.85108622266E+03  0.00000000000E+00 0. -1.
<mgrwt>
<rscale>  4 0.45028456E+03</rscale>
<asrwt>0</asrwt>
<pdfrwt beam="1">  1       21 0.71246443E-01 0.45028456E+03</pdfrwt>
<pdfrwt beam="2">  1       21 0.23724784E+00 0.45028456E+03</pdfrwt>
<totfact> 0.11137713E+02</totfact>
</mgrwt>
</event>
<event>
 5    0  0.1702508E-001  0.4502776E+03  0.7546771E-02  0.1027639E+00
         21   -1    0    0  503  502  0.00000000000E+00  0.00000000000E+00  0.65201801669E+03  0.65201801669E+03  0.00000000000E+00 0. -1.
         21   -1    0    0  501  503 -0.00000000000E+00 -0.00000000000E+00 -0.48517641051E+03  0.48517641051E+03  0.00000000000E+00 0. -1.
         25    1    1    2    0    0 -0.37409877897E+03  0.22669208332E+03  0.41723263484E+03  0.61729026288E+03  0.12500000000E+03 0.  0.
          1    1    1    2  501    0  0.19389909185E+02 -0.78901633461E+01 -0.56484024205E+02  0.60238428318E+02  0.00000000000E+00 0.  1.
         -1    1    1    2    0  502  0.35470886978E+03 -0.21880191997E+03 -0.19390700446E+03  0.45966573601E+03  0.00000000000E+00 0. -1.
<mgrwt>
<rscale>  4 0.45027759E+03</rscale>
<asrwt>0</asrwt>
<pdfrwt beam="1">  1       21 0.10031046E+00 0.45027759E+03</pdfrwt>
<pdfrwt beam="2">  1       21 0.74642525E-01 0.45027759E+03</pdfrwt>
<totfact> 0.11158112E+03</totfact>
</mgrwt>
</event>
<event>
 5    0  0.1702508E-001  0.3466145E+03  0.7546771E-02  0.1064013E+00
         21   -1    0    0  503  502  0.00000000000E+00  0.00000000000E+00  0.17117381420E+03  0.17117381420E+03  0.00000000000E+00 0. -1.
         21   -1    0    0  501  503 -0.00000000000E+00 -0.00000000000E+00 -0.13101109221E+04  0.13101109221E+04  0.00000000000E+00 0.  1.
         25    1    1    2    0    0  0.82229103721E+02 -0.31671856118E+03 -0.86889974456E+02  0.36089768655E+03  0.12500000000E+03 0.  0.
          1    1    1    2  501    0 -0.61012098970E+02  0.30506236351E+03 -0.68265143949E+03  0.75019898006E+03  0.00000000000E+00 0. -1.
         -1    1    1    2    0  502 -0.21217004751E+02  0.11656197669E+02 -0.36939569400E+03  0.37018806974E+03  0.00000000000E+00 0.  1.
<mgrwt>
<rscale>  4 0.34661455E+03</rscale>
<asrwt>0</asrwt>
<pdfrwt beam="1">  1       21 0.26334433E-01 0.34661455E+03</pdfrwt>
<pdfrwt beam="2">  1       21 0.20155552E+00 0.34661455E+03</pdfrwt>
<totfact> 0.15938339E+03</totfact>
</mgrwt>
</event>
<event>
 5    0  0.1702508E-001  0.2525638E+03  0.7546771E-02  0.1111695E+00
         21   -1    0    0  503  502  0.00000000000E+00  0.00000000000E+00  0.28715911592E+03  0.28715911592E+03  0.00000000000E+00 0.  1.
         21   -1    0    0  501  503 -0.00000000000E+00 -0.00000000000E+00 -0.31072796605E+03  0.31072796605E+03  0.00000000000E+00 0. -1.
         25    1    1    2    0    0 -0.12627294480E+03 -0.20086382627E+03  0.69933991584E+02  0.27714057168E+03  0.12500000000E+03 0.  0.
          4    1    1    2  501    0  0.22697497537E+02  0.13821148873E+02  0.54553656295E+02  0.60681973977E+02  0.00000000000E+00 0.  1.
         -4    1    1    2    0  502  0.10357544726E+03  0.18704267739E+03 -0.14805649802E+03  0.26006453631E+03  0.00000000000E+00 0. -1.
<mgrwt>
<rscale>  4 0.25256384E+03</rscale>
<asrwt>0</asrwt>
<pdfrwt beam="1">  1       21 0.44178326E-01 0.25256384E+03</pdfrwt>
<pdfrwt beam="2">  1       21 0.47804302E-01 0.25256384E+03</pdfrwt>
<totfact> 0.19928221E+04</totfact>
</mgrwt>
</event>
<event>
 5    0  0.1702508E-001  0.2133345E+03  0.7546771E-02  0.1138952E+00
         21   -1    0    0  503  502  0.00000000000E+00  0.00000000000E+00  0.76600428350E+03  0.76600428350E+03  0.00000000000E+00 0.  1.
         21   -1    0    0  501  503 -0.00000000000E+00 -0.00000000000E+00 -0.13377690675E+03  0.13377690675E+03  0.00000000000E+00 0.  1.
         25    1    1    2    0    0 -0.19052220618E+03  0.13459476696E+03  0.48114459915E+03  0.54912620374E+03  0.12500000000E+03 0.  0.
          3    1    1    2  501    0  0.13185682744E+03 -0.37577029213E+02  0.18686304719E+03  0.23176724202E+03  0.00000000000E+00 0. -1.
         -3    1    1    2    0  502  0.58665378733E+02 -0.97017737745E+02 -0.35780269598E+02  0.11888774450E+03  0.00000000000E+00 0.  1.
<mgrwt>
<rscale>  4 0.21333449E+03</rscale>
<asrwt>0</asrwt>
<pdfrwt beam="1">  1       21 0.11784681E+00 0.21333449E+03</pdfrwt>
<pdfrwt beam="2">  1       21 0.20581063E-01 0.21333449E+03</pdfrwt>
<totfact> 0.11912887E+04</totfact>
</mgrwt>
</event>
<event>
 5    0  0.1702508E-001  0.3687703E+03  0.7546771E-02  0.1055164E+00
         21   -1    0    0  503  502  0.00000000000E+00  0.00000000000E+00  0.45129671897E+03  0.45129671897E+03  0.00000000000E+00 0.  1.
         21   -1    0    0  501  503 -0.00000000000E+00 -0.00000000000E+00 -0.37764568708E+03  0.37764568708E+03  0.00000000000E+00 0.  1.
         25    1    1    2    0    0 -0.66777070491E+02  0.35511791686E+03  0.14248739750E+03  0.40803868746E+03  0.12500000000E+03 0.  0.
          2    1    1    2  501    0  0.76922598372E+02 -0.32094084665E+03  0.14409633515E+02  0.33034489662E+03  0.00000000000E+00 0.  1.
         -2    1    1    2    0  502 -0.10145527881E+02 -0.34177070217E+02 -0.83245999124E+02  0.90558821960E+02  0.00000000000E+00 0. -1.
<mgrwt>
<rscale>  4 0.36877026E+03</rscale>
<asrwt>0</asrwt>
<pdfrwt beam="1">  1       21 0.69430265E-01 0.36877026E+03</pdfrwt>
<pdfrwt beam="2">  1       21 0.58099336E-01 0.36877026E+03</pdfrwt>
<totfact> 0.47412619E+03</totfact>
</mgrwt>
</event>
<event>
 5    0  0.1702508E-001  0.2430190E+03  0.7546771E-02  0.1117798E+00
         21   -1    0    0  503  502  0.00000000000E+00  0.00000000000E+00  0.60086803741E+03  0.60086803741E+03  0.00000000000E+00 0. -1.
         21   -1    0    0  501  503 -0.00000000000E+00 -0.00000000000E+00 -0.27732049322E+03  0.27732049322E+03  0.00000000000E+00 0. -1.
         25    1    1    2    0    0 -0.10871428573E+03  0.17270293599E+03  0.48378149430E+03  0.53973570778E+03  0.12500000000E+03 0.  0.
          1    1    1    2  501    0  0.45531375903E+02  0.26900074059E+02  0.25377829058E+02  0.58657943909E+02  0.00000000000E+00 0.  1.
         -1    1    1    2    0  502  0.63182909828E+02 -0.19960301005E+03 -0.18561177917E+03  0.27979487895E+03  0.00000000000E+00 0. -1.
<mgrwt>
<rscale>  4 0.24301900E+03</rscale>
<asrwt>0</asrwt>
<pdfrwt beam="1">  1       21 0.92441236E-01 0.24301900E+03</pdfrwt>
<pdfrwt beam="2">  1       21 0.42664691E-01 0.24301900E+03</pdfrwt>
<totfact> 0.50316123E+03</totfact>
</mgrwt>
</event>
<event>
 5    0  0.1702508E-001  0.3034698E+03  0.7546771E-02  0.1083519E+00
         21   -1    0    0  503  502  0.00000000000E+00  0.00000000000E+00  0.11019118931E+03  0.11019118931E+03  0.00000000000E+00 0.  1.
         21   -1    0    0  501  503 -0.00000000000E+00 -0.00000000000E+00 -0.13696530409E+04  0.13696530409E+04  0.00000000000E+00 0. -1.
         25    1    1    2    0    0 -0.26855974927E+03  0.66701734335E+02 -0.18969974598E+03  0.35802856578E+03  0.12500000000E+03 0.  0.
          1    1    1    2  501    0 -0.10158102912E+02 -0.48500974272E+02 -0.86892308720E+02  0.10002902016E+03  0.00000000000E+00 0.  1.
         -1    1    1    2    0  502  0.27871785218E+03 -0.18200760063E+02 -0.98286979692E+03  0.10217866443E+04  0.00000000000E+00 0. -1.
<mgrwt>
<rscale>  4 0.30346981E+03</rscale>
<asrwt>0</asrwt>
<pdfrwt beam="1">  1       21 0.16952491E-01 0.30346981E+03</pdfrwt>
<pdfrwt beam="2">  1       21 0.21071585E+00 0.30346981E+03</pdfrwt>
<totfact> 0.32970592E+03</totfact>
</mgrwt>
</event>
<event>
 5    0  0.1702508E-001  0.2839036E+03  0.7546771E-02  0.1093576E+00
         21   -1    0    0  503  502  0.00000000000E+00  0.00000000000E+00  0.94975716381E+03  0.94975716381E+03  0.00000000000E+00 0. -1.
         21   -1    0    0  501  503 -0.00000000000E+00 -0.00000000000E+00 -0.35416140718E+03  0.35416140718E+03  0.00000000000E+00 0.  1.
         25    1    1    2    0    0 -0.11460125817E+03 -0.20998371017E+03  0.46896368470E+03  0.54109014451E+03  0.12500000000E+03 0.  0.
          3    1    1    2  501    0  0.14234274731E+03  0.23340435345E+03  0.40140937321E+03  0.48566298482E+03  0.00000000000E+00 0. -1.
         -3    1    1    2    0  502 -0.27741489136E+02 -0.23420643280E+02 -0.27477730128E+03  0.27716544166E+03  0.00000000000E+00 0.  1.
<mgrwt>
<rscale>  4 0.28390358E+03</rscale>
<asrwt>0</asrwt>
<pdfrwt beam="1">  1       21 0.14611649E+00 0.28390358E+03</pdfrwt>
<pdfrwt beam="2">  1       21 0.54486371E-01 0.28390358E+03</pdfrwt>
<totfact> 0.94089406E+02</totfact>
</mgrwt>
</event>
<event>
 5    0  0.1702508E-001  0.2611056E+03  0.7546771E-02  0.1106481E+00
         21   -1    0    0  503  502  0.00000000000E+00  0.00000000000E+00  0.84313192178E+03  0.84313192178E+03  0.00000000000E+00 0.  1.
         21   -1    0    0  501  503 -0.00000000000E+00 -0.00000000000E+00 -0.21850918483E+03  0.21850918483E+03  0.00000000000E+00 0. -1.
         25    1    1    2    0    0  0.20489598710E+03  0.11702198631E+03  0.70359334558E+03  0.75255903871E+03  0.12500000000E+03 0.  0.
          1    1    1    2  501    0 -0.29056258115E+02 -0.13792585970E+02 -0.99100299031E+02  0.10418911091E+03  0.00000000000E+00 0.  1.
         -1    1    1    2    0  502 -0.17583972899E+03 -0.10322940034E+03  0.20129690405E+02  0.20489295698E+03  0.00000000000E+00 0. -1.
<mgrwt>
<rscale>  4 0.26110562E+03</rscale>
<asrwt>0</asrwt>
<pdfrwt beam="1">  1       21 0.12971260E+00 0.26110562E+03</pdfrwt>
<pdfrwt beam="2">  1       21 0.33616798E-01 0.26110562E+03</pdfrwt>
<totfact> 0.35182793E+03</totfact>
</mgrwt>
</event>
<event>
 5    0  0.1702508E-001  0.4017403E+03  0.7546771E-02  0.1043179E+00
         21   -1    0    0  503  502  0.00000000000E+00  0.00000000000E+00  0.33942493347E+03  0.33942493347E+03  0.00000000000E+00 0. -1.
         21   -1    0    0  501  503 -0.00000000000E+00 -0.00000000000E+00 -0.57502559905E+03  0.57502559905E+03  0.00000000000E+00 0. -1.
         25    1    1    2    0    0  0.26278431626E+03  0.28724648939E+03  0.31382122044E+02  0.41009264822E+03  0.12500000000E+03 0.  0.
          1    1    1    2  501    0 -0.22684673312E+03 -0.29320209160E+03 -0.18428006686E+03  0.41398798278E+03  0.00000000000E+00 0. -1.
         -1    1    1    2    0  502 -0.35937583140E+02  0.59556022119E+01 -0.82702720759E+02  0.90369901519E+02  0.00000000000E+00 0.  1.
<mgrwt>
<rscale>  4 0.40174034E+03</rscale>
<asrwt>0</asrwt>
<pdfrwt beam="1">  1       21 0.52219220E-01 0.40174034E+03</pdfrwt>
<pdfrwt beam="2">  1       21 0.88465477E-01 0.40174034E+03</pdfrwt>
<totfact> 0.33769819E+03</totfact>
</mgrwt>
</event>
<event>
 5    0  0.1702508E-001  0.2506686E+03  0.7546771E-02  0.1112883E+00
         21   -1    0    0  503  502  0.00000000000E+00  0.00000000000E+00  0.37491358961E+03  0.37491358961E+03  0.00000000000E+00 0.  1.
         21   -1    0    0  501  503 -0.00000000000E+00 -0.00000000000E+00 -0.47376411579E+03  0.47376411579E+03  0.00000000000E+00 0.  1.
         25    1    1    2    0    0  0.18706542557E+03 -0.11453032705E+03  0.29112770549E+03  0.38534531288E+03  0.12500000000E+03 0.  0.
          1    1    1    2  501    0  0.15663385498E+01  0.32739287362E+02 -0.11751164715E+03  0.12199713754E+03  0.00000000000E+00 0. -1.
         -1    1    1    2    0  502 -0.18863176412E+03  0.81791039689E+02 -0.27246658453E+03  0.34133525498E+03  0.00000000000E+00 0.  1.
<mgrwt>
<rscale>  4 0.25066857E+03</rscale>
<asrwt>0</asrwt>
<pdfrwt beam="1">  1       21 0.57679014E-01 0.25066857E+03</pdfrwt>
<pdfrwt beam="2">  1       21 0.72886787E-01 0.25066857E+03</pdfrwt>
<totfact> 0.45841802E+03</totfact>
</mgrwt>
</event>
<event>
 5    0  0.1702508E-001  0.2322370E+03  0.7546771E-02  0.1125075E+00
         21   -1    0    0  503  502  0.00000000000E+00  0.00000000000E+00  0.61915687210E+03  0.61915687210E+03  0.00000000000E+00 0.  1.
         21   -1    0    0  501  503 -0.00000000000E+00 -0.00000000000E+00 -0.30739814454E+03  0.30739814454E+03  0.00000000000E+00 0.  1.
         25    1    1    2    0    0 -0.30175589398E+03 -0.29676627933E+02  0.28988626292E+03  0.43771722290E+03  0.12500000000E+03 0.  0.
          4    1    1    2  501    0  0.14684454836E+03  0.52092395317E+01 -0.18054015832E+03  0.23277716023E+03  0.00000000000E+00 0.  1.
         -4    1    1    2    0  502  0.15491134562E+03  0.24467388402E+02  0.20241262296E+03  0.25606063350E+03  0.00000000000E+00 0. -1.
<mgrwt>
<rscale>  4 0.23223701E+03</rscale>
<asrwt>0</asrwt>
<pdfrwt beam="1">  1       21 0.95254903E-01 0.23223701E+03</pdfrwt>
<pdfrwt beam="2">  1       21 0.47292022E-01 0.23223701E+03</pdfrwt>
<totfact> 0.38189524E+03</totfact>
</mgrwt>
</event>
<event>
 5    0  0.1702508E-001  0.3973341E+03  0.7546771E-02  0.1044707E+00
         21   -1    0    0  503  502  0.00000000000E+00  0.00000000000E+00  0.71059845068E+03  0.71059845068E+03  0.00000000000E+00 0. -1.
         21   -1    0    0  501  503 -0.00000000000E+00 -0.00000000000E+00 -0.83177198088E+03  0.83177198088E+03  0.00000000000E+00 0. -1.
         25    1    1    2    0    0  0.20885558983E+03 -0.31405210170E+03  0.60261691101E+03  0.72181820524E+03  0.12500000000E+03 0.  0.
          2    1    1    2  501    0 -0.19706466891E+03  0.25184028926E+03 -0.55879969216E+03  0.64382847947E+03  0.00000000000E+00 0. -1.
         -2    1    1    2    0  502 -0.11790920922E+02  0.62211812441E+02 -0.16499074906E+03  0.17672374684E+03  0.00000000000E+00 0.  1.
<mgrwt>
<rscale>  4 0.39733409E+03</rscale>
<asrwt>0</asrwt>
<pdfrwt beam="1">  1       21 0.10932284E+00 0.39733409E+03</pdfrwt>
<pdfrwt beam="2">  1       21 0.12796492E+00 0.39733409E+03</pdfrwt>
<totfact> 0.25198681E+02</totfact>
</mgrwt>
</event>
<event>
 5    0  0.1702508E-001  0.2356169E+03  0.7546771E-02  0.1122748E+00
         21   -1    0    0  503  502  0.00000000000E+00  0.00000000000E+00  0.20330722771E+03  0.20330722771E+03  0.00000000000E+00 0. -1.
         21   -1    0    0  501  503 -0.00000000000E+00 -0.00000000000E+00 -0.63285927806E+03  0.63285927806E+03  0.00000000000E+00 0.  1.
         25    1    1    2    0    0 -0.18765925080E+03  0.11341674413E+03  0.74618578841E+02  0.26319628525E+03  0.12500000000E+03 0.  0.
          4    1    1    2  501    0  0.37852871553E+02 -0.59494550558E+02 -0.32808175031E+03  0.33557424859E+03  0.00000000000E+00 0.  1.
         -4    1    1    2    0  502  0.14980637925E+03 -0.53922193572E+02 -0.17608887888E+03  0.23739597193E+03  0.00000000000E+00 0. -1.
<mgrwt>
<rscale>  4 0.23561685E+03</rscale>
<asrwt>0</asrwt>
<pdfrwt beam="1">  1       21 0.31278035E-01 0.23561685E+03</pdfrwt>
<pdfrwt beam="2">  1       21 0.97362965E-01 0.23561685E+03</pdfrwt>
<totfact> 0.83419984E+03</totfact>
</mgrwt>
</event>
<event>
 5    0  0.1702508E-001  0.2250487E+03  0.7546771E-02  0.1130174E+00
         21   -1    0    0  503  502  0.00000000000E+00  0.00000000000E+00  0.48527101072E+02  0.48527101072E+02  0.00000000000E+00 0. -1.
         21   -1    0    0  501  503 -0.00000000000E+00 -0.00000000000E+00 -0.14368079777E+04  0.14368079777E+04  0.00000000000E+00 0. -1.
         25    1    1    2    0    0 -0.54689708415E+02  0.19606137837E+03 -0.38359650653E+03  0.45188749498E+03  0.12500000000E+03 0.  0.
          1    1    1    2  501    0 -0.43684642460E+02 -0.61432948922E+02 -0.31169722307E+03  0.32068288708E+03  0.00000000000E+00 0.  1.
         -1    1    1    2    0  502  0.98374350876E+02 -0.13462842945E+03 -0.69298714707E+03  0.71276469675E+03  0.00000000000E+00 0. -1.
<mgrwt>
<rscale>  4 0.22504872E+03</rscale>
<asrwt>0</asrwt>
<pdfrwt beam="1">  1       21 0.74657073E-02 0.22504872E+03</pdfrwt>
<pdfrwt beam="2">  1       21 0.22104740E+00 0.22504872E+03</pdfrwt>
<totfact> 0.13063684E+04</totfact>
</mgrwt>
</event>
<event>
 5    0  0.1702508E-001  0.3566445E+03  0.7546771E-02  0.1059920E+00
         21   -1    0    0  503  502  0.00000000000E+00  0.00000000000E+00  0.27881287143E+03  0.27881287143E+03  0.00000000000E+00 0. -1.
         21   -1    0    0  501  503 -0.00000000000E+00 -0.00000000000E+00 -0.51502190267E+03  0.51502190267E+03  0.00000000000E+00 0.  1.
         25    1    1    2    0    0  0.28819976805E+03  0.17632801440E+03 -0.63338976593E+02  0.36576973757E+03  0.12500000000E+03 0.  0.
          1    1    1    2  501    0 -0.29694837901E+03 -0.14580349078E+03 -0.95328715876E+02  0.34427396328E+03  0.00000000000E+00 0.  1.
         -1    1    1    2    0  502  0.87486109591E+01 -0.30524523621E+02 -0.77541338771E+02  0.83791073238E+02  0.00000000000E+00 0. -1.
<mgrwt>
<rscale>  4 0.35664446E+03</rscale>
<asrwt>0</asrwt>
<pdfrwt beam="1">  1       21 0.42894288E-01 0.35664446E+03</pdfrwt>
<pdfrwt beam="2">  1       21 0.79234139E-01 0.35664446E+03</pdfrwt>
<totfact> 0.67162985E+03</totfact>
</mgrwt>
</event>
<event>
 5    0  0.1702508E-001  0.2845451E+03  0.7546771E-02  0.1093232E+00
         21   -1    0    0  503  502  0.00000000000E+00  0.00000000000E+00  0.92260194303E+03  0.92260194303E+03  0.00000000000E+00 0. -1.
         21   -1    0    0  501  503 -0.00000000000E+00 -0.00000000000E+00 -0.59819616229E+03  0.59819616229E+03  0.00000000000E+00 0.  1.
         25    1    1    2    0    0 -0.16681924306E+03  0.11635670737E+03  0.39957001162E+03  0.46545540860E+03  0.12500000000E+03 0.  0.
          2    1    1    2  501    0 -0.14841539527E+03  0.77259089406E+02 -0.47917206081E+03  0.50754503279E+03  0.00000000000E+00 0.  1.
         -2    1    1    2    0  502  0.31523463833E+03 -0.19361579677E+03  0.40400782993E+03  0.54779766393E+03  0.00000000000E+00 0. -1.
<mgrwt>
<rscale>  4 0.28454510E+03</rscale>
<asrwt>0</asrwt>
<pdfrwt beam="1">  1       21 0.14193876E+00 0.28454510E+03</pdfrwt>
<pdfrwt beam="2">  1       21 0.92030179E-01 0.28454510E+03</pdfrwt>
<totfact> 0.31459169E+02</totfact>
</mgrwt>
</event>
<event>
 5    0  0.1702508E-001  0.2254700E+03  0.7546771E-02  0.1129869E+00
         21   -1    0    0  503  502  0.00000000000E+00  0.00000000000E+00  0.14335639468E+03  0.14335639468E+03  0.00000000000E+00 0. -1.
         21   -1    0    0  501  503 -0.00000000000E+00 -0.00000000000E+00 -0.60206015786E+03  0.60206015786E+03  0.00000000000E+00 0. -1.
         25    1    1    2    0    0  0.15124039423E+03  0.13813792920E+03 -0.12833190041E+03  0.27212096758E+03  0.12500000000E+03 0.  0.
          1    1    1    2  501    0 -0.12535206046E+03 -0.12654010869E+03 -0.41308998859E+02  0.18284411818E+03  0.00000000000E+00 0. -1.
         -1    1    1    2    0  502 -0.25888333774E+02 -0.11597820515E+02 -0.28906286390E+03  0.29045146678E+03  0.00000000000E+00 0.  1.
<mgrwt>
<rscale>  4 0.22546998E+03</rscale>
<asrwt>0</asrwt>
<pdfrwt beam="1">  1       21 0.22054830E-01 0.22546998E+03</pdfrwt>
<pdfrwt beam="2">  1       21 0.92624639E-01 0.22546998E+03</pdfrwt>
<totfact> 0.18513793E+04</totfact>
</mgrwt>
</event>
<event>
 5    0  0.1702508E-001  0.2289012E+03  0.7546771E-02  0.1127416E+00
         21   -1    0    0  503  502  0.00000000000E+00  0.00000000000E+00  0.89926681877E+03  0.89926681877E+03  0.00000000000E+00 0.  1.
         21   -1    0    0  501  503 -0.00000000000E+00 -0.00000000000E+00 -0.12731564811E+03  0.12731564811E+03  0.00000000000E+00 0. -1.
         25    1    1    2    0    0  0.12025212638E+03  0.16697214208E+03  0.47312500459E+03  0.53086018884E+03  0.12500000000E+03 0.  0.
          4    1    1    2  501    0 -0.50097976686E+02  0.25943985323E+01 -0.68620369239E+02  0.85001724960E+02  0.00000000000E+00 0. -1.
         -4    1    1    2    0  502 -0.70154149693E+02 -0.16956654061E+03  0.36744653531E+03  0.41072055309E+03  0.00000000000E+00 0.  1.
<mgrwt>
<rscale>  4 0.22890123E+03</rscale>
<asrwt>0</asrwt>
<pdfrwt beam="1">  1       21 0.13834874E+00 0.22890123E+03</pdfrwt>
<pdfrwt beam="2">  1       21 0.19587023E-01 0.22890123E+03</pdfrwt>
<totfact> 0.86265311E+03</totfact>
</mgrwt>
</event>
<event>
 5    0  0.1702508E-001  0.2237535E+03  0.7546771E-02  0.1131115E+00
         21   -1    0    0  503  502  0.00000000000E+00  0.00000000000E+00  0.63153063592E+03  0.63153063592E+03  0.00000000000E+00 0.  1.
         21   -1    0    0  501  503 -0.00000000000E+00 -0.00000000000E+00 -0.18371477541E+03  0.18371477541E+03  0.00000000000E+00 0. -1.
         25    1    1    2    0    0 -0.44702474377E+02  0.20660383580E+03  0.46653080599E+03  0.52721859709E+03  0.12500000000E+03 0.  0.
          3    1    1    2  501    0 -0.23531152503E+02 -0.73437453601E+02 -0.93130709952E+02  0.12091362151E+03  0.00000000000E+00 0. -1.
         -3    1    1    2    0  502  0.68233626880E+02 -0.13316638220E+03  0.74415764471E+02  0.16711319274E+03  0.00000000000E+00 0.  1.
<mgrwt>
<rscale>  4 0.22375347E+03</rscale>
<asrwt>0</asrwt>
<pdfrwt beam="1">  1       21 0.97158559E-01 0.22375347E+03</pdfrwt>
<pdfrwt beam="2">  1       21 0.28263812E-01 0.22375347E+03</pdfrwt>
<totfact> 0.10296566E+04</totfact>
</mgrwt>
</event>
<event>
 5    0  0.1702508E-001  0.2663243E+03  0.7546771E-02  0.1103402E+00
         21   -1    0    0  503  502  0.00000000000E+00  0.00000000000E+00  0.69600886446E+03  0.69600886446E+03  0.00000000000E+00 0.  1.
         21   -1    0    0  501  503 -0.00000000000E+00 -0.00000000000E+00 -0.25649732582E+03  0.25649732582E+03  0.00000000000E+00 0. -1.
         25    1    1    2    0    0  0.21273119025E+03 -0.91035432188E+02  0.51187092879E+03  0.57548141322E+03  0.12500000000E+03 0.  0.
          4    1    1    2  501    0  0.27982596983E+02  0.25910189009E+02 -0.11756208996E+03  0.12359291494E+03  0.00000000000E+00 0.  1.
         -4    1    1    2    0  502 -0.24071378724E+03  0.65125243179E+02  0.45202699807E+02  0.25343186211E+03  0.00000000000E+00 0. -1.
<mgrwt>
<rscale>  4 0.26632433E+03</rscale>
<asrwt>0</asrwt>
<pdfrwt beam="1">  1       21 0.10707829E+00 0.26632433E+03</pdfrwt>
<pdfrwt beam="2">  1       21 0.39461127E-01 0.26632433E+03</pdfrwt>
<totfact> 0.40936358E+03</totfact>
</mgrwt>
</event>
<event>
 5    0  0.1702508E-001  0.2500226E+03  0.7546771E-02  0.1113291E+00
         21   -1    0    0  503  502  0.00000000000E+00  0.00000000000E+00  0.94331316572E+03  0.94331316572E+03  0.00000000000E+00 0.  1.
         21   -1    0    0  501  503 -0.00000000000E+00 -0.00000000000E+00 -0.19331437893E+03  0.19331437893E+03  0.00000000000E+00 0. -1.
         25    1    1    2    0    0  0.19588670795E+03 -0.97454735287E+02  0.80493894435E+03  0.84345760528E+03  0.12500000000E+03 0.  0.
          1    1    1    2  501    0 -0.21100942604E+03  0.27698881492E+02 -0.20164819883E+02  0.21377283708E+03  0.00000000000E+00 0. -1.
         -1    1    1    2    0  502  0.15122718091E+02  0.69755853796E+02 -0.34775337670E+02  0.79397102285E+02  0.00000000000E+00 0.  1.
<mgrwt>
<rscale>  4 0.25002261E+03</rscale>
<asrwt>0</asrwt>
<pdfrwt beam="1">  1       21 0.14512510E+00 0.25002261E+03</pdfrwt>
<pdfrwt beam="2">  1       21 0.29740674E-01 0.25002261E+03</pdfrwt>
<totfact> 0.33752187E+03</totfact>
</mgrwt>
</event>
<event>
 5    0  0.1702508E-001  0.2492225E+03  0.7546771E-02  0.1113797E+00
         21   -1    0    0  503  502  0.00000000000E+00  0.00000000000E+00  0.41815122349E+03  0.41815122349E+03  0.00000000000E+00 0. -1.
         21   -1    0    0  501  503 -0.00000000000E+00 -0.00000000000E+00 -0.29809959084E+03  0.29809959084E+03  0.00000000000E+00 0.  1.
         25    1    1    2    0    0 -0.16526999246E+03 -0.13836394881E+03  0.27515665860E+03  0.37120740767E+03  0.12500000000E+03 0.  0.
          2    1    1    2  501    0  0.14276961091E+03  0.16444344470E+03 -0.35586816631E+02  0.22066089328E+03  0.00000000000E+00 0. -1.
         -2    1    1    2    0  502  0.22500381553E+02 -0.26079495893E+02 -0.11951820932E+03  0.12438251338E+03  0.00000000000E+00 0.  1.
<mgrwt>
<rscale>  4 0.24922252E+03</rscale>
<asrwt>0</asrwt>
<pdfrwt beam="1">  1       21 0.64330957E-01 0.24922252E+03</pdfrwt>
<pdfrwt beam="2">  1       21 0.45861476E-01 0.24922252E+03</pdfrwt>
<totfact> 0.98050272E+03</totfact>
</mgrwt>
</event>
<event>
 5    0  0.1702508E-001  0.3430195E+03  0.7546771E-02  0.1065517E+00
         21   -1    0    0  503  502  0.00000000000E+00  0.00000000000E+00  0.14722305197E+04  0.14722305197E+04  0.00000000000E+00 0.  1.
         21   -1    0    0  501  503 -0.00000000000E+00 -0.00000000000E+00 -0.39690554186E+03  0.39690554186E+03  0.00000000000E+00 0.  1.
         25    1    1    2    0    0  0.30653955101E+03  0.12729797470E+03  0.13526178610E+04  0.13983459331E+04  0.12500000000E+03 0.  0.
          2    1    1    2  501    0 -0.15640985261E+03 -0.58738810669E+02 -0.25412606832E+03  0.30412883532E+03  0.00000000000E+00 0.  1.
         -2    1    1    2    0  502 -0.15012969840E+03 -0.68559164029E+02 -0.23166814873E+02  0.16666129312E+03  0.00000000000E+00 0. -1.
<mgrwt>
<rscale>  4 0.34301946E+03</rscale>
<asrwt>0</asrwt>
<pdfrwt beam="1">  1       21 0.22649700E+00 0.34301946E+03</pdfrwt>
<pdfrwt beam="2">  1       21 0.61062392E-01 0.34301946E+03</pdfrwt>
<totfact> 0.19662635E+02</totfact>
</mgrwt>
</event>
<event>
 5    0  0.1702508E-001  0.2508662E+03  0.7546771E-02  0.1112759E+00
         21   -1    0    0  503  502  0.00000000000E+00  0.00000000000E+00  0.50719278776E+03  0.50719278776E+03  0.00000000000E+00 0. -1.
         21   -1    0    0  501  503 -0.00000000000E+00 -0.00000000000E+00 -0.50838969521E+03  0.50838969521E+03  0.00000000000E+00 0.  1.
         25    1    1    2    0    0  0.81972700984E+02 -0.20976784751E+03  0.40649606591E+03  0.48123396093E+03  0.12500000000E+03 0.  0.
          3    1    1    2  501    0 -0.45865846055E+02  0.23477327539E+02 -0.32207419553E+03  0.32616966163E+03  0.00000000000E+00 0. -1.
         -3    1    1    2    0  502 -0.36106854930E+02  0.18629051997E+03 -0.85618777831E+02  0.20817886041E+03  0.00000000000E+00 0.  1.
<mgrwt>
<rscale>  4 0.25086623E+03</rscale>
<asrwt>0</asrwt>
<pdfrwt beam="1">  1       21 0.78029660E-01 0.25086623E+03</pdfrwt>
<pdfrwt beam="2">  1       21 0.78213799E-01 0.25086623E+03</pdfrwt>
<totfact> 0.20087678E+03</totfact>
</mgrwt>
</event>
<event>
 5    0  0.1702508E-001  0.3034746E+03  0.7546771E-02  0.1083516E+00
         21   -1    0    0  503  502  0.00000000000E+00  0.00000000000E+00  0.33491866294E+03  0.33491866294E+03  0.00000000000E+00 0. -1.
         21   -1    0    0  501  503 -0.00000000000E+00 -0.00000000000E+00 -0.56372794590E+03  0.56372794590E+03  0.00000000000E+00 0.  1.
         25    1    1    2    0    0 -0.14479071286E+03  0.24103022657E+03  0.17259364555E+03  0.35280800322E+03  0.12500000000E+03 0.  0.
          4    1    1    2  501    0  0.26720888790E+02 -0.43201999409E+01 -0.22787718433E+03  0.22947915191E+03  0.00000000000E+00 0.  1.
         -4    1    1    2    0  502  0.11806982407E+03 -0.23671002663E+03 -0.17352574418E+03  0.31635945372E+03  0.00000000000E+00 0. -1.
<mgrwt>
<rscale>  4 0.30347459E+03</rscale>
<asrwt>0</asrwt>
<pdfrwt beam="1">  1       21 0.51525948E-01 0.30347459E+03</pdfrwt>
<pdfrwt beam="2">  1       21 0.86727376E-01 0.30347459E+03</pdfrwt>
<totfact> 0.38057771E+03</totfact>
</mgrwt>
</event>
<event>
 5    0  0.1702508E-001  0.6874216E+03  0.7546771E-02  0.9738988E-01
         21   -1    0    0  503  502  0.00000000000E+00  0.00000000000E+00  0.44702466955E+03  0.44702466955E+03  0.00000000000E+00 0.  1.
         21   -1    0    0  501  503 -0.00000000000E+00 -0.00000000000E+00 -0.20664045957E+04  0.20664045957E+04  0.00000000000E+00 0. -1.
         25    1    1    2    0    0  0.50224980039E+03  0.29170585762E+03  0.80401524024E+02  0.59953029484E+03  0.12500000000E+03 0.  0.
          2    1    1    2  501    0 -0.61269815296E+03 -0.32972852407E+03 -0.16425096134E+04  0.17838042932E+04  0.00000000000E+00 0. -1.
         -2    1    1    2    0  502  0.11044835257E+03  0.38022666449E+02 -0.57271836693E+02  0.13009467717E+03  0.00000000000E+00 0.  1.
<mgrwt>
<rscale>  4 0.68742164E+03</rscale>
<asrwt>0</asrwt>
<pdfrwt beam="1">  1       21 0.68773025E-01 0.68742164E+03</pdfrwt>
<pdfrwt beam="2">  1       21 0.31790841E+00 0.68742164E+03</pdfrwt>
<totfact> 0.34282084E+01</totfact>
</mgrwt>
</event>
<event>
 5    0  0.1702508E-001  0.2908711E+03  0.7546771E-02  0.1089895E+00
         21   -1    0    0  503  502  0.00000000000E+00  0.00000000000E+00  0.21643990809E+04  0.21643990809E+04  0.00000000000E+00 0. -1.
         21   -1    0    0  501  503 -0.00000000000E+00 -0.00000000000E+00 -0.74740856084E+02  0.74740856084E+02  0.00000000000E+00 0.  1.
         25    1    1    2    0    0 -0.13300328862E+03 -0.22776941198E+03  0.17659950874E+04  0.17899531917E+04  0.12500000000E+03 0.  0.
          1    1    1    2  501    0  0.15041667890E+03  0.21125815777E+03  0.33416623939E+03  0.42299203546E+03  0.00000000000E+00 0.  1.
         -1    1    1    2    0  502 -0.17413390273E+02  0.16511254215E+02 -0.10503101895E+02  0.26194709885E+02  0.00000000000E+00 0. -1.
<mgrwt>
<rscale>  4 0.29087106E+03</rscale>
<asrwt>0</asrwt>
<pdfrwt beam="1">  1       21 0.33298442E+00 0.29087106E+03</pdfrwt>
<pdfrwt beam="2">  1       21 0.11498595E-01 0.29087106E+03</pdfrwt>
<totfact> 0.12477999E+03</totfact>
</mgrwt>
</event>
<event>
 5    0  0.1702508E-001  0.3251675E+03  0.7546771E-02  0.1073295E+00
         21   -1    0    0  503  502  0.00000000000E+00  0.00000000000E+00  0.28256367756E+03  0.28256367756E+03  0.00000000000E+00 0.  1.
         21   -1    0    0  501  503 -0.00000000000E+00 -0.00000000000E+00 -0.66170903532E+03  0.66170903532E+03  0.00000000000E+00 0. -1.
         25    1    1    2    0    0 -0.18477786681E+03 -0.21197842020E+03 -0.33283772698E+03  0.45330305888E+03  0.12500000000E+03 0.  0.
          1    1    1    2  501    0  0.25331515244E+03  0.22168446635E+03 -0.14819170774E+03  0.36779525734E+03  0.00000000000E+00 0. -1.
         -1    1    1    2    0  502 -0.68537285629E+02 -0.97060461470E+01  0.10188407695E+03  0.12317439665E+03  0.00000000000E+00 0.  1.
<mgrwt>
<rscale>  4 0.32516751E+03</rscale>
<asrwt>0</asrwt>
<pdfrwt beam="1">  1       21 0.43471335E-01 0.32516751E+03</pdfrwt>
<pdfrwt beam="2">  1       21 0.10180139E+00 0.32516751E+03</pdfrwt>
<totfact> 0.36746615E+03</totfact>
</mgrwt>
</event>
<event>
 5    0  0.1702508E-001  0.2235175E+03  0.7546771E-02  0.1131287E+00
         21   -1    0    0  503  502  0.00000000000E+00  0.00000000000E+00  0.17781779954E+03  0.17781779954E+03  0.00000000000E+00 0. -1.
         21   -1    0    0  501  503 -0.00000000000E+00 -0.00000000000E+00 -0.61488911419E+03  0.61488911419E+03  0.00000000000E+00 0.  1.
         25    1    1    2    0    0 -0.21729458548E+03 -0.32107289047E+02 -0.15369889498E+02  0.25319764689E+03  0.12500000000E+03 0.  0.
          4    1    1    2  501    0  0.18044602390E+03 -0.10795459368E+02 -0.44347921759E+03  0.47890617653E+03  0.00000000000E+00 0.  1.
         -4    1    1    2    0  502  0.36848561581E+02  0.42902748415E+02  0.21777792442E+02  0.60603090315E+02  0.00000000000E+00 0. -1.
<mgrwt>
<rscale>  4 0.22351752E+03</rscale>
<asrwt>0</asrwt>
<pdfrwt beam="1">  1       21 0.27356585E-01 0.22351752E+03</pdfrwt>
<pdfrwt beam="2">  1       21 0.94598325E-01 0.22351752E+03</pdfrwt>
<totfact> 0.11683136E+04</totfact>
</mgrwt>
</event>
<event>
 5    0  0.1702508E-001  0.3017779E+03  0.7546771E-02  0.1084355E+00
         21   -1    0    0  503  502  0.00000000000E+00  0.00000000000E+00  0.84483675527E+03  0.84483675527E+03  0.00000000000E+00 0.  1.
         21   -1    0    0  501  503 -0.00000000000E+00 -0.00000000000E+00 -0.14510462476E+03  0.14510462476E+03  0.00000000000E+00 0.  1.
         25    1    1    2    0    0  0.13624323346E+03  0.24586906193E+03  0.59132352354E+03  0.66656006764E+03  0.12500000000E+03 0.  0.
          2    1    1    2  501    0 -0.12508864983E+03 -0.22904367711E+03  0.13189502957E+03  0.29241148261E+03  0.00000000000E+00 0.  1.
         -2    1    1    2    0  502 -0.11154583634E+02 -0.16825384820E+02 -0.23486422588E+02  0.30969829776E+02  0.00000000000E+00 0. -1.
<mgrwt>
<rscale>  4 0.30177793E+03</rscale>
<asrwt>0</asrwt>
<pdfrwt beam="1">  1       21 0.12997488E+00 0.30177793E+03</pdfrwt>
<pdfrwt beam="2">  1       21 0.22323789E-01 0.30177793E+03</pdfrwt>
<totfact> 0.75884468E+03</totfact>
</mgrwt>
</event>
<event>
 5    0  0.1702508E-001  0.2869339E+03  0.7546771E-02  0.1091961E+00
         21   -1    0    0  503  502  0.00000000000E+00  0.00000000000E+00  0.82852466881E+03  0.82852466881E+03  0.00000000000E+00 0. -1.
         21   -1    0    0  501  503 -0.00000000000E+00 -0.00000000000E+00 -0.10289854714E+03  0.10289854714E+03  0.00000000000E+00 0. -1.
         25    1    1    2    0    0  0.25155145956E+03  0.65537763909E+02  0.34043732110E+03  0.44620164152E+03  0.12500000000E+03 0.  0.
          4    1    1    2  501    0  0.44703227615E+01 -0.33995107426E+02  0.26142182343E+02  0.43116873868E+02  0.00000000000E+00 0.  1.
         -4    1    1    2    0  502 -0.25602178232E+03 -0.31542656483E+02  0.35904661823E+03  0.44210470056E+03  0.00000000000E+00 0. -1.
<mgrwt>
<rscale>  4 0.28693387E+03</rscale>
<asrwt>0</asrwt>
<pdfrwt beam="1">  1       21 0.12746533E+00 0.28693387E+03</pdfrwt>
<pdfrwt beam="2">  1       21 0.15830546E-01 0.28693387E+03</pdfrwt>
<totfact> 0.15304877E+04</totfact>
</mgrwt>
</event>
<event>
 5    0  0.1702508E-001  0.3780005E+03  0.7546771E-02  0.1051675E+00
         21   -1    0    0  503  502  0.00000000000E+00  0.00000000000E+00  0.41162483999E+03  0.41162483999E+03  0.00000000000E+00 0. -1.
         21   -1    0    0  501  503 -0.00000000000E+00 -0.00000000000E+00 -0.62049453213E+03  0.62049453213E+03  0.00000000000E+00 0.  1.
         25    1    1    2    0    0 -0.40435238185E+03  0.66934254065E+02  0.62848715461E+02  0.43307736504E+03  0.12500000000E+03 0.  0.
          2    1    1    2  501    0  0.31309726483E+03  0.15399397914E+02 -0.14317492016E+02  0.31380253230E+03  0.00000000000E+00 0. -1.
         -2    1    1    2    0  502  0.91255117019E+02 -0.82333651978E+02 -0.25740091558E+03  0.28523947478E+03  0.00000000000E+00 0.  1.
<mgrwt>
<rscale>  4 0.37800053E+03</rscale>
<asrwt>0</asrwt>
<pdfrwt beam="1">  1       21 0.63326898E-01 0.37800053E+03</pdfrwt>
<pdfrwt beam="2">  1       21 0.95460698E-01 0.37800053E+03</pdfrwt>
<totfact> 0.18747790E+03</totfact>
</mgrwt>
</event>
<event>
 5    0  0.1702508E-001  0.3086739E+03  0.7546771E-02  0.1080983E+00
         21   -1    0    0  503  502  0.00000000000E+00  0.00000000000E+00  0.25941379941E+03  0.25941379941E+03  0.00000000000E+00 0.  1.
         21   -1    0    0  501  503 -0.00000000000E+00 -0.00000000000E+00 -0.17572971675E+04  0.17572971675E+04  0.00000000000E+00 0. -1.
         25    1    1    2    0    0 -0.16335413927E+03 -0.23222284164E+03  0.14411233967E+03  0.34206050553E+03  0.12500000000E+03 0.  0.
          2    1    1    2  501    0  0.13743516152E+03  0.22557639497E+03 -0.10733211110E+04  0.11053467062E+04  0.00000000000E+00 0. -1.
         -2    1    1    2    0  502  0.25918977747E+02  0.66464466684E+01 -0.56867459674E+03  0.56930375516E+03  0.00000000000E+00 0.  1.
<mgrwt>
<rscale>  4 0.30867392E+03</rscale>
<asrwt>0</asrwt>
<pdfrwt beam="1">  1       21 0.39909816E-01 0.30867392E+03</pdfrwt>
<pdfrwt beam="2">  1       21 0.27035341E+00 0.30867392E+03</pdfrwt>
<totfact> 0.26875861E+02</totfact>
</mgrwt>
</event>
<event>
 5    0  0.1702508E-001  0.2433997E+03  0.7546771E-02  0.1117549E+00
         21   -1    0    0  503  502  0.00000000000E+00  0.00000000000E+00  0.50382942338E+03  0.50382942338E+03  0.00000000000E+00 0. -1.
         21   -1    0    0  501  503 -0.00000000000E+00 -0.00000000000E+00 -0.71332144564E+03  0.71332144564E+03  0.00000000000E+00 0.  1.
         25    1    1    2    0    0  0.14953257403E+02  0.20967411996E+03  0.41283518107E+03  0.47983822609E+03  0.12500000000E+03 0.  0.
          3    1    1    2  501    0  0.15139887424E+02 -0.20277479533E+03 -0.12428427806E+03  0.23831369156E+03  0.00000000000E+00 0. -1.
         -3    1    1    2    0  502 -0.30093144828E+02 -0.68993246272E+01 -0.49804292527E+03  0.49899895136E+03  0.00000000000E+00 0.  1.
<mgrwt>
<rscale>  4 0.24339970E+03</rscale>
<asrwt>0</asrwt>
<pdfrwt beam="1">  1       21 0.77512220E-01 0.24339970E+03</pdfrwt>
<pdfrwt beam="2">  1       21 0.10974176E+00 0.24339970E+03</pdfrwt>
<totfact> 0.92550638E+02</totfact>
</mgrwt>
</event>
<event>
 5    0  0.1702508E-001  0.3866928E+03  0.7546771E-02  0.1048487E+00
         21   -1    0    0  503  502  0.00000000000E+00  0.00000000000E+00  0.30505667905E+03  0.30505667905E+03  0.00000000000E+00 0. -1.
         21   -1    0    0  501  503 -0.00000000000E+00 -0.00000000000E+00 -0.11886063866E+04  0.11886063866E+04  0.00000000000E+00 0.  1.
         25    1    1    2    0    0 -0.37878660562E+02  0.36988809534E+03  0.50367146367E+02  0.39549190312E+03  0.12500000000E+03 0.  0.
          3    1    1    2  501    0  0.15743131009E+02 -0.17451588678E+02 -0.63522069569E+03  0.63565535973E+03  0.00000000000E+00 0.  1.
         -3    1    1    2    0  502  0.22135529553E+02 -0.35243650666E+03 -0.29869615818E+03  0.46251580277E+03  0.00000000000E+00 0. -1.
<mgrwt>
<rscale>  4 0.38669278E+03</rscale>
<asrwt>0</asrwt>
<pdfrwt beam="1">  1       21 0.46931797E-01 0.38669278E+03</pdfrwt>
<pdfrwt beam="2">  1       21 0.18286252E+00 0.38669278E+03</pdfrwt>
<totfact> 0.64887271E+02</totfact>
</mgrwt>
</event>
<event>
 5    0  0.1702508E-001  0.2119467E+03  0.7546771E-02  0.1140034E+00
         21   -1    0    0  503  502  0.00000000000E+00  0.00000000000E+00  0.90240946414E+03  0.90240946414E+03  0.00000000000E+00 0. -1.
         21   -1    0    0  501  503 -0.00000000000E+00 -0.00000000000E+00 -0.18068421503E+03  0.18068421503E+03  0.00000000000E+00 0. -1.
         25    1    1    2    0    0 -0.17548081254E+03 -0.11197144759E+03  0.64713350331E+03  0.69118585905E+03  0.12500000000E+03 0.  0.
          1    1    1    2  501    0  0.12055145643E+03 -0.22263108518E+02 -0.10475671318E+03  0.16125218945E+03  0.00000000000E+00 0. -1.
         -1    1    1    2    0  502  0.54929356116E+02  0.13423455611E+03  0.17934845899E+03  0.23065563066E+03  0.00000000000E+00 0.  1.
<mgrwt>
<rscale>  4 0.21194667E+03</rscale>
<asrwt>0</asrwt>
<pdfrwt beam="1">  1       21 0.13883222E+00 0.21194667E+03</pdfrwt>
<pdfrwt beam="2">  1       21 0.27797572E-01 0.21194667E+03</pdfrwt>
<totfact> 0.44465740E+03</totfact>
</mgrwt>
</event>
<event>
 5    0  0.1702508E-001  0.2564177E+03  0.7546771E-02  0.1109315E+00
         21   -1    0    0  503  502  0.00000000000E+00  0.00000000000E+00  0.35951901872E+03  0.35951901872E+03  0.00000000000E+00 0.  1.
         21   -1    0    0  501  503 -0.00000000000E+00 -0.00000000000E+00 -0.49653511608E+03  0.49653511608E+03  0.00000000000E+00 0. -1.
         25    1    1    2    0    0  0.10122662536E+03 -0.19969524058E+03  0.27954882076E+03  0.37933832127E+03  0.12500000000E+03 0.  0.
          1    1    1    2  501    0 -0.10944102947E+02  0.36641022385E+02 -0.12457170262E+03  0.13030904422E+03  0.00000000000E+00 0.  1.
         -1    1    1    2    0  502 -0.90282522409E+02  0.16305421820E+03 -0.29199321551E+03  0.34640676931E+03  0.00000000000E+00 0. -1.
<mgrwt>
<rscale>  4 0.25641766E+03</rscale>
<asrwt>0</asrwt>
<pdfrwt beam="1">  1       21 0.55310619E-01 0.25641766E+03</pdfrwt>
<pdfrwt beam="2">  1       21 0.76390017E-01 0.25641766E+03</pdfrwt>
<totfact> 0.44964654E+03</totfact>
</mgrwt>
</event>
<event>
 5    0  0.1702508E-001  0.2685038E+03  0.7546771E-02  0.1102139E+00
         21   -1    0    0  503  502  0.00000000000E+00  0.00000000000E+00  0.75056201436E+03  0.75056201436E+03  0.00000000000E+00 0. -1.
         21   -1    0    0  501  503 -0.00000000000E+00 -0.00000000000E+00 -0.45236507609E+03  0.45236507609E+03  0.00000000000E+00 0. -1.
         25    1    1    2    0    0  0.23232383368E+03 -0.61028715260E+02  0.65364080162E+03  0.70750983409E+03  0.12500000000E+03 0.  0.
          3    1    1    2  501    0 -0.21002099897E+02 -0.36959101702E+01 -0.24934970851E+03  0.25025991506E+03  0.00000000000E+00 0.  1.
         -3    1    1    2    0  502 -0.21132173378E+03  0.64724625431E+02 -0.10609415485E+03  0.24515734131E+03  0.00000000000E+00 0. -1.
<mgrwt>
<rscale>  4 0.26850380E+03</rscale>
<asrwt>0</asrwt>
<pdfrwt beam="1">  1       21 0.11547108E+00 0.26850380E+03</pdfrwt>
<pdfrwt beam="2">  1       21 0.69594627E-01 0.26850380E+03</pdfrwt>
<totfact> 0.10200702E+03</totfact>
</mgrwt>
</event>
<event>
 5    0  0.1702508E-001  0.2650178E+03  0.7546771E-02  0.1104165E+00
         21   -1    0    0  503  502  0.00000000000E+00  0.00000000000E+00  0.22278604836E+04  0.22278604836E+04  0.00000000000E+00 0. -1.
         21   -1    0    0  501  503 -0.00000000000E+00 -0.00000000000E+00 -0.13873292160E+03  0.13873292160E+03  0.00000000000E+00 0. -1.
         25    1    1    2    0    0 -0.12962759173E+03 -0.19296962417E+03  0.19723101489E+04  0.19898926885E+04  0.12500000000E+03 0.  0.
          3    1    1    2  501    0  0.35263109864E+02 -0.35151256518E+02 -0.56317953702E+02  0.75171867485E+02  0.00000000000E+00 0.  1.
         -3    1    1    2    0  502  0.94364481869E+02  0.22812088069E+03  0.17313536678E+03  0.30152884916E+03  0.00000000000E+00 0. -1.
<mgrwt>
<rscale>  4 0.26501779E+03</rscale>
<asrwt>0</asrwt>
<pdfrwt beam="1">  1       21 0.34274774E+00 0.26501779E+03</pdfrwt>
<pdfrwt beam="2">  1       21 0.21343528E-01 0.26501779E+03</pdfrwt>
<totfact> 0.35809892E+02</totfact>
</mgrwt>
</event>
<event>
 5    0  0.1702508E-001  0.4906292E+03  0.7546771E-02  0.1016254E+00
         21   -1    0    0  503  502  0.00000000000E+00  0.00000000000E+00  0.12754077940E+04  0.12754077940E+04  0.00000000000E+00 0. -1.
         21   -1    0    0  501  503 -0.00000000000E+00 -0.00000000000E+00 -0.72731953212E+03  0.72731953212E+03  0.00000000000E+00 0.  1.
         25    1    1    2    0    0  0.19331797221E+03  0.39922106043E+03  0.38292622073E+03  0.59917174832E+03  0.12500000000E+03 0.  0.
          1    1    1    2  501    0 -0.21685676073E+02  0.68322137250E+02 -0.53751419418E+03  0.54227270992E+03  0.00000000000E+00 0.  1.
         -1    1    1    2    0  502 -0.17163229614E+03 -0.46754319768E+03  0.70267623530E+03  0.86128286783E+03  0.00000000000E+00 0. -1.
<mgrwt>
<rscale>  4 0.49062924E+03</rscale>
<asrwt>0</asrwt>
<pdfrwt beam="1">  1       21 0.19621658E+00 0.49062924E+03</pdfrwt>
<pdfrwt beam="2">  1       21 0.11189531E+00 0.49062924E+03</pdfrwt>
<totfact> 0.68685573E+01</totfact>
</mgrwt>
</event>
<event>
 5    0  0.1702508E-001  0.5293180E+03  0.7546771E-02  0.1006398E+00
         21   -1    0    0  503  502  0.00000000000E+00  0.00000000000E+00  0.16178291539E+03  0.16178291539E+03  0.00000000000E+00 0. -1.
         21   -1    0    0  501  503 -0.00000000000E+00 -0.00000000000E+00 -0.32054266207E+04  0.32054266207E+04  0.00000000000E+00 0. -1.
         25    1    1    2    0    0 -0.37617286138E+03  0.34297327319E+03 -0.91424146459E+03  0.10538496778E+04  0.12500000000E+03 0.  0.
          1    1    1    2  501    0 -0.21900396168E+02 -0.10753766324E+02 -0.14897964379E+04  0.14899962071E+04  0.00000000000E+00 0.  1.
         -1    1    1    2    0  502  0.39807325754E+03 -0.33221950687E+03 -0.63960580279E+03  0.82336365118E+03  0.00000000000E+00 0. -1.
<mgrwt>
<rscale>  4 0.52931795E+03</rscale>
<asrwt>0</asrwt>
<pdfrwt beam="1">  1       21 0.24889681E-01 0.52931795E+03</pdfrwt>
<pdfrwt beam="2">  1       21 0.49314253E+00 0.52931795E+03</pdfrwt>
<totfact> 0.22303251E+01</totfact>
</mgrwt>
</event>
<event>
 5    0  0.1702508E-001  0.2696379E+03  0.7546771E-02  0.1101487E+00
         21   -1    0    0  503  502  0.00000000000E+00  0.00000000000E+00  0.33991058926E+03  0.33991058926E+03  0.00000000000E+00 0.  1.
         21   -1    0    0  501  503 -0.00000000000E+00 -0.00000000000E+00 -0.54311892182E+03  0.54311892182E+03  0.00000000000E+00 0. -1.
         25    1    1    2    0    0  0.22093461855E+03 -0.87540309381E+02 -0.23312994229E+03  0.35559806162E+03  0.12500000000E+03 0.  0.
          2    1    1    2  501    0 -0.22952860692E+03  0.67615936472E+02  0.22660608494E+03  0.32955365874E+03  0.00000000000E+00 0.  1.
         -2    1    1    2    0  502  0.85939883675E+01  0.19924372909E+02 -0.19668447521E+03  0.19787779072E+03  0.00000000000E+00 0. -1.
<mgrwt>
<rscale>  4 0.26963785E+03</rscale>
<asrwt>0</asrwt>
<pdfrwt beam="1">  1       21 0.52293938E-01 0.26963785E+03</pdfrwt>
<pdfrwt beam="2">  1       21 0.83556755E-01 0.26963785E+03</pdfrwt>
<totfact> 0.40965470E+03</totfact>
</mgrwt>
</event>
<event>
 5    0  0.1702508E-001  0.2839425E+03  0.7546771E-02  0.1093555E+00
         21   -1    0    0  503  502  0.00000000000E+00  0.00000000000E+00  0.41040743187E+03  0.41040743187E+03  0.00000000000E+00 0. -1.
         21   -1    0    0  501  503 -0.00000000000E+00 -0.00000000000E+00 -0.45321532205E+03  0.45321532205E+03  0.00000000000E+00 0.  1.
         25    1    1    2    0    0  0.90740462188E+02  0.20381764564E+03  0.15432423257E+02  0.25620035878E+03  0.12500000000E+03 0.  0.
          2    1    1    2  501    0  0.31020439362E+02  0.40705917258E+02 -0.26179992539E+03  0.26675539412E+03  0.00000000000E+00 0.  1.
         -2    1    1    2    0  502 -0.12176090155E+03 -0.24452356290E+03  0.20355961196E+03  0.34066700101E+03  0.00000000000E+00 0. -1.
<mgrwt>
<rscale>  4 0.28394249E+03</rscale>
<asrwt>0</asrwt>
<pdfrwt beam="1">  1       21 0.63139605E-01 0.28394249E+03</pdfrwt>
<pdfrwt beam="2">  1       21 0.69725434E-01 0.28394249E+03</pdfrwt>
<totfact> 0.40790256E+03</totfact>
</mgrwt>
</event>
<event>
 5    0  0.1702508E-001  0.2599896E+03  0.7546771E-02  0.1107149E+00
         21   -1    0    0  503  502  0.00000000000E+00  0.00000000000E+00  0.42446598242E+03  0.42446598242E+03  0.00000000000E+00 0.  1.
         21   -1    0    0  501  503 -0.00000000000E+00 -0.00000000000E+00 -0.65938302654E+03  0.65938302654E+03  0.00000000000E+00 0. -1.
         25    1    1    2    0    0 -0.10120571001E+03 -0.19671007162E+03  0.11798278179E+03  0.28014707711E+03  0.12500000000E+03 0.  0.
          2    1    1    2  501    0  0.15699341444E+02  0.24167794896E+03  0.15444414305E+03  0.28724152495E+03  0.00000000000E+00 0.  1.
         -2    1    1    2    0  502  0.85506368564E+02 -0.44967877338E+02 -0.50734396895E+03  0.51646040690E+03  0.00000000000E+00 0. -1.
<mgrwt>
<rscale>  4 0.25998957E+03</rscale>
<asrwt>0</asrwt>
<pdfrwt beam="1">  1       21 0.65302459E-01 0.25998957E+03</pdfrwt>
<pdfrwt beam="2">  1       21 0.10144354E+00 0.25998957E+03</pdfrwt>
<totfact> 0.16196154E+03</totfact>
</mgrwt>
</event>
<event>
 5    0  0.1702508E-001  0.2841378E+03  0.7546771E-02  0.1093450E+00
         21   -1    0    0  503  502  0.00000000000E+00  0.00000000000E+00  0.81908820472E+03  0.81908820472E+03  0.00000000000E+00 0.  1.
         21   -1    0    0  501  503 -0.00000000000E+00 -0.00000000000E+00 -0.38221490369E+03  0.38221490369E+03  0.00000000000E+00 0.  1.
         25    1    1    2    0    0 -0.20924628622E+03  0.14582719368E+03  0.58447564668E+03  0.64983564097E+03  0.12500000000E+03 0.  0.
          4    1    1    2  501    0  0.22689396065E+03 -0.12028155043E+03  0.11901908633E+03  0.28304427863E+03  0.00000000000E+00 0. -1.
         -4    1    1    2    0  502 -0.17647674429E+02 -0.25545643245E+02 -0.26662143198E+03  0.26842318881E+03  0.00000000000E+00 0.  1.
<mgrwt>
<rscale>  4 0.28413782E+03</rscale>
<asrwt>0</asrwt>
<pdfrwt beam="1">  1       21 0.12601357E+00 0.28413782E+03</pdfrwt>
<pdfrwt beam="2">  1       21 0.58802293E-01 0.28413782E+03</pdfrwt>
<totfact> 0.11722614E+03</totfact>
</mgrwt>
</event>
<event>
 5    0  0.1702508E-001  0.2494947E+03  0.7546771E-02  0.1113625E+00
         21   -1    0    0  503  502  0.00000000000E+00  0.00000000000E+00  0.28675932096E+03  0.28675932096E+03  0.00000000000E+00 0. -1.
         21   -1    0    0  501  503 -0.00000000000E+00 -0.00000000000E+00 -0.22265338425E+03  0.22265338425E+03  0.00000000000E+00 0. -1.
         25    1    1    2    0    0  0.15357338592E+03 -0.15737887212E+03  0.59666977861E+02  0.25988082365E+03  0.12500000000E+03 0.  0.
          2    1    1    2  501    0 -0.17183941643E+03  0.12637061889E+03  0.73156673223E+01  0.21342876410E+03  0.00000000000E+00 0. -1.
         -2    1    1    2    0  502  0.18266030510E+02  0.31008253222E+02 -0.28767084709E+01  0.36103117457E+02  0.00000000000E+00 0.  1.
<mgrwt>
<rscale>  4 0.24949470E+03</rscale>
<asrwt>0</asrwt>
<pdfrwt beam="1">  1       21 0.44116819E-01 0.24949470E+03</pdfrwt>
<pdfrwt beam="2">  1       21 0.34254367E-01 0.24949470E+03</pdfrwt>
<totfact> 0.39461884E+04</totfact>
</mgrwt>
</event>
<event>
 5    0  0.1702508E-001  0.4576117E+03  0.7546771E-02  0.1025476E+00
         21   -1    0    0  503  502  0.00000000000E+00  0.00000000000E+00  0.43344971185E+03  0.43344971185E+03  0.00000000000E+00 0. -1.
         21   -1    0    0  501  503 -0.00000000000E+00 -0.00000000000E+00 -0.12059165845E+04  0.12059165845E+04  0.00000000000E+00 0.  1.
         25    1    1    2    0    0  0.36927387318E+03 -0.23436161199E+03  0.19138797078E+03  0.49350067269E+03  0.12500000000E+03 0.  0.
          4    1    1    2  501    0  0.89173480854E+02  0.11209273841E+03 -0.18663191272E+03  0.23526190201E+03  0.00000000000E+00 0. -1.
         -4    1    1    2    0  502 -0.45844735403E+03  0.12226887358E+03 -0.77722293070E+03  0.91060372164E+03  0.00000000000E+00 0.  1.
<mgrwt>
<rscale>  4 0.45761169E+03</rscale>
<asrwt>0</asrwt>
<pdfrwt beam="1">  1       21 0.66684571E-01 0.45761169E+03</pdfrwt>
<pdfrwt beam="2">  1       21 0.18552563E+00 0.45761169E+03</pdfrwt>
<totfact> 0.28012467E+02</totfact>
</mgrwt>
</event>
<event>
 5    0  0.1702508E-001  0.2803623E+03  0.7546771E-02  0.1095491E+00
         21   -1    0    0  503  502  0.00000000000E+00  0.00000000000E+00  0.14846798082E+03  0.14846798082E+03  0.00000000000E+00 0. -1.
         21   -1    0    0  501  503 -0.00000000000E+00 -0.00000000000E+00 -0.84399927251E+03  0.84399927251E+03  0.00000000000E+00 0. -1.
         25    1    1    2    0    0 -0.15715975534E+03 -0.20759164976E+03 -0.62504618527E+02  0.29550856008E+03  0.12500000000E+03 0.  0.
          3    1    1    2  501    0  0.13736321767E+03  0.18286746180E+03 -0.39186546052E+03  0.45372646088E+03  0.00000000000E+00 0. -1.
         -3    1    1    2    0  502  0.19796537664E+02  0.24724187958E+02 -0.24116121265E+03  0.24323223237E+03  0.00000000000E+00 0.  1.
<mgrwt>
<rscale>  4 0.28036230E+03</rscale>
<asrwt>0</asrwt>
<pdfrwt beam="1">  1       21 0.22841228E-01 0.28036230E+03</pdfrwt>
<pdfrwt beam="2">  1       21 0.12984604E+00 0.28036230E+03</pdfrwt>
<totfact> 0.73629605E+03</totfact>
</mgrwt>
</event>
<event>
 5    0  0.1702508E-001  0.2431816E+03  0.7546771E-02  0.1117691E+00
         21   -1    0    0  503  502  0.00000000000E+00  0.00000000000E+00  0.25772595245E+03  0.25772595245E+03  0.00000000000E+00 0. -1.
         21   -1    0    0  501  503 -0.00000000000E+00 -0.00000000000E+00 -0.46928713535E+03  0.46928713535E+03  0.00000000000E+00 0.  1.
         25    1    1    2    0    0  0.41000782277E+02  0.22788952807E+03  0.12536961887E+03  0.29147425699E+03  0.12500000000E+03 0.  0.
          2    1    1    2  501    0  0.46718485871E+02 -0.10835393286E+03 -0.93678136610E+02  0.15066115945E+03  0.00000000000E+00 0. -1.
         -2    1    1    2    0  502 -0.87719268148E+02 -0.11953559521E+03 -0.24325266517E+03  0.28487767135E+03  0.00000000000E+00 0.  1.
<mgrwt>
<rscale>  4 0.24318155E+03</rscale>
<asrwt>0</asrwt>
<pdfrwt beam="1">  1       21 0.39650147E-01 0.24318155E+03</pdfrwt>
<pdfrwt beam="2">  1       21 0.72198020E-01 0.24318155E+03</pdfrwt>
<totfact> 0.10276796E+04</totfact>
</mgrwt>
</event>
<event>
 5    0  0.1702508E-001  0.3027341E+03  0.7546771E-02  0.1083882E+00
         21   -1    0    0  503  502  0.00000000000E+00  0.00000000000E+00  0.30720435715E+03  0.30720435715E+03  0.00000000000E+00 0.  1.
         21   -1    0    0  501  503 -0.00000000000E+00 -0.00000000000E+00 -0.64117179323E+03  0.64117179323E+03  0.00000000000E+00 0.  1.
         25    1    1    2    0    0 -0.75956246374E+02  0.27230483155E+03  0.12829942353E+03  0.33467150271E+03  0.12500000000E+03 0.  0.
          3    1    1    2  501    0  0.64815184516E+02 -0.25233261177E+03 -0.15003843746E+03  0.30063979747E+03  0.00000000000E+00 0.  1.
         -3    1    1    2    0  502  0.11141061857E+02 -0.19972219775E+02 -0.31222842216E+03  0.31306485019E+03  0.00000000000E+00 0. -1.
<mgrwt>
<rscale>  4 0.30273408E+03</rscale>
<asrwt>0</asrwt>
<pdfrwt beam="1">  1       21 0.47262209E-01 0.30273408E+03</pdfrwt>
<pdfrwt beam="2">  1       21 0.98641813E-01 0.30273408E+03</pdfrwt>
<totfact> 0.33706665E+03</totfact>
</mgrwt>
</event>
<event>
 5    0  0.1702508E-001  0.2852954E+03  0.7546771E-02  0.1092831E+00
         21   -1    0    0  503  502  0.00000000000E+00  0.00000000000E+00  0.77309052765E+03  0.77309052765E+03  0.00000000000E+00 0. -1.
         21   -1    0    0  501  503 -0.00000000000E+00 -0.00000000000E+00 -0.37474783067E+03  0.37474783067E+03  0.00000000000E+00 0.  1.
         25    1    1    2    0    0  0.18670305162E+03 -0.17409808837E+03  0.65119507470E+03  0.71052670546E+03  0.12500000000E+03 0.  0.
          3    1    1    2  501    0  0.19608358033E+02  0.83573595840E+01 -0.15297284541E+03  0.15445071900E+03  0.00000000000E+00 0. -1.
         -3    1    1    2    0  502 -0.20631140965E+03  0.16574072878E+03 -0.99879532312E+02  0.28286093386E+03  0.00000000000E+00 0.  1.
<mgrwt>
<rscale>  4 0.28529544E+03</rscale>
<asrwt>0</asrwt>
<pdfrwt beam="1">  1       21 0.11893700E+00 0.28529544E+03</pdfrwt>
<pdfrwt beam="2">  1       21 0.57653513E-01 0.28529544E+03</pdfrwt>
<totfact> 0.14142549E+03</totfact>
</mgrwt>
</event>
<event>
 5    0  0.1702508E-001  0.2625000E+03  0.7546771E-02  0.1105650E+00
         21   -1    0    0  503  502  0.00000000000E+00  0.00000000000E+00  0.39417773434E+03  0.39417773434E+03  0.00000000000E+00 0.  1.
         21   -1    0    0  501  503 -0.00000000000E+00 -0.00000000000E+00 -0.61407259207E+03  0.61407259207E+03  0.00000000000E+00 0. -1.
         25    1    1    2    0    0  0.17345074688E+03  0.15302155953E+03  0.31485121019E+03  0.41019147216E+03  0.12500000000E+03 0.  0.
          2    1    1    2  501    0 -0.15024587958E+03 -0.17178259958E+03 -0.40450517850E+03  0.46444324226E+03  0.00000000000E+00 0. -1.
         -2    1    1    2    0  502 -0.23204867299E+02  0.18761040048E+02 -0.13024088943E+03  0.13361561199E+03  0.00000000000E+00 0.  1.
<mgrwt>
<rscale>  4 0.26250002E+03</rscale>
<asrwt>0</asrwt>
<pdfrwt beam="1">  1       21 0.60642729E-01 0.26250002E+03</pdfrwt>
<pdfrwt beam="2">  1       21 0.94472706E-01 0.26250002E+03</pdfrwt>
<totfact> 0.22509987E+03</totfact>
</mgrwt>
</event>
<event>
 5    0  0.1702508E-001  0.2405914E+03  0.7546771E-02  0.1119400E+00
         21   -1    0    0  503  502  0.00000000000E+00  0.00000000000E+00  0.22787302070E+04  0.22787302070E+04  0.00000000000E+00 0.  1.
         21   -1    0    0  501  503 -0.00000000000E+00 -0.00000000000E+00 -0.54278615035E+02  0.54278615035E+02  0.00000000000E+00 0.  1.
         25    1    1    2    0    0  0.11330788966E+03 -0.17152412738E+03  0.20231073629E+04  0.20373629048E+04  0.12500000000E+03 0.  0.
          4    1    1    2  501    0 -0.24139271642E+02  0.37148350381E+02  0.10022020561E+02  0.45421858918E+02  0.00000000000E+00 0.  1.
         -4    1    1    2    0  502 -0.89168618016E+02  0.13437577700E+03  0.19132220852E+03  0.25022405831E+03  0.00000000000E+00 0. -1.
<mgrwt>
<rscale>  4 0.24059136E+03</rscale>
<asrwt>0</asrwt>
<pdfrwt beam="1">  1       21 0.35057380E+00 0.24059136E+03</pdfrwt>
<pdfrwt beam="2">  1       21 0.83505579E-02 0.24059136E+03</pdfrwt>
<totfact> 0.18198472E+03</totfact>
</mgrwt>
</event>
<event>
 5    0  0.1702508E-001  0.2168671E+03  0.7546771E-02  0.1136241E+00
         21   -1    0    0  503  502  0.00000000000E+00  0.00000000000E+00  0.14586587130E+04  0.14586587130E+04  0.00000000000E+00 0. -1.
         21   -1    0    0  501  503 -0.00000000000E+00 -0.00000000000E+00 -0.10526161725E+03  0.10526161725E+03  0.00000000000E+00 0. -1.
         25    1    1    2    0    0 -0.19814923567E+03  0.35822544632E+02  0.75567929073E+02  0.24876070068E+03  0.12500000000E+03 0.  0.
          2    1    1    2  501    0  0.12871482066E+03 -0.50508124385E+02  0.25673025004E+03  0.29159731990E+03  0.00000000000E+00 0.  1.
         -2    1    1    2    0  502  0.69434415011E+02  0.14685579753E+02  0.10210989166E+04  0.10235623097E+04  0.00000000000E+00 0. -1.
<mgrwt>
<rscale>  4 0.21686713E+03</rscale>
<asrwt>0</asrwt>
<pdfrwt beam="1">  1       21 0.22440902E+00 0.21686713E+03</pdfrwt>
<pdfrwt beam="2">  1       21 0.16194096E-01 0.21686713E+03</pdfrwt>
<totfact> 0.31481070E+03</totfact>
</mgrwt>
</event>
<event>
 5    0  0.1702508E-001  0.2549967E+03  0.7546771E-02  0.1110187E+00
         21   -1    0    0  503  502  0.00000000000E+00  0.00000000000E+00  0.38244950938E+03  0.38244950938E+03  0.00000000000E+00 0. -1.
         21   -1    0    0  501  503 -0.00000000000E+00 -0.00000000000E+00 -0.38085237937E+03  0.38085237937E+03  0.00000000000E+00 0.  1.
         25    1    1    2    0    0  0.19945325422E+03  0.11062389758E+03  0.22966275831E+03  0.34697151164E+03  0.12500000000E+03 0.  0.
          2    1    1    2  501    0 -0.19181344337E+03 -0.87637905364E+02 -0.25614834593E+02  0.21243568266E+03  0.00000000000E+00 0.  1.
         -2    1    1    2    0  502 -0.76398108449E+01 -0.22985992216E+02 -0.20245079371E+03  0.20389469444E+03  0.00000000000E+00 0. -1.
<mgrwt>
<rscale>  4 0.25499670E+03</rscale>
<asrwt>0</asrwt>
<pdfrwt beam="1">  1       21 0.58838386E-01 0.25499670E+03</pdfrwt>
<pdfrwt beam="2">  1       21 0.58592674E-01 0.25499670E+03</pdfrwt>
<totfact> 0.70724895E+03</totfact>
</mgrwt>
</event>
<event>
 5    0  0.1702508E-001  0.6200391E+03  0.7546771E-02  0.9864682E-01
         21   -1    0    0  503  502  0.00000000000E+00  0.00000000000E+00  0.10718848465E+04  0.10718848465E+04  0.00000000000E+00 0. -1.
         21   -1    0    0  501  503 -0.00000000000E+00 -0.00000000000E+00 -0.47916234479E+03  0.47916234479E+03  0.00000000000E+00 0. -1.
         25    1    1    2    0    0  0.43759869586E+03  0.42182591167E+03  0.46983134655E+03  0.77832911585E+03  0.12500000000E+03 0.  0.
          4    1    1    2  501    0  0.12933594230E+02 -0.15298880165E+02 -0.11809919823E+03  0.11978628559E+03  0.00000000000E+00 0.  1.
         -4    1    1    2    0  502 -0.45053229009E+03 -0.40652703150E+03  0.24099035335E+03  0.65293178982E+03  0.00000000000E+00 0. -1.
<mgrwt>
<rscale>  4 0.62003914E+03</rscale>
<asrwt>0</asrwt>
<pdfrwt beam="1">  1       21 0.16490536E+00 0.62003914E+03</pdfrwt>
<pdfrwt beam="2">  1       21 0.73717284E-01 0.62003914E+03</pdfrwt>
<totfact> 0.29373083E+02</totfact>
</mgrwt>
</event>
<event>
 5    0  0.1702508E-001  0.2840766E+03  0.7546771E-02  0.1093483E+00
         21   -1    0    0  503  502  0.00000000000E+00  0.00000000000E+00  0.19948344150E+04  0.19948344150E+04  0.00000000000E+00 0.  1.
         21   -1    0    0  501  503 -0.00000000000E+00 -0.00000000000E+00 -0.13823637475E+03  0.13823637475E+03  0.00000000000E+00 0. -1.
         25    1    1    2    0    0 -0.32805060405E+02 -0.26365660304E+03  0.17963926368E+04  0.18202314363E+04  0.12500000000E+03 0.  0.
          3    1    1    2  501    0  0.62866749139E+02  0.63656768726E+02 -0.25728637179E+02  0.93093367772E+02  0.00000000000E+00 0.  1.
         -3    1    1    2    0  502 -0.30061688734E+02  0.19999983432E+03  0.85934040615E+02  0.21974598561E+03  0.00000000000E+00 0. -1.
<mgrwt>
<rscale>  4 0.28407662E+03</rscale>
<asrwt>0</asrwt>
<pdfrwt beam="1">  1       21 0.30689758E+00 0.28407662E+03</pdfrwt>
<pdfrwt beam="2">  1       21 0.21267136E-01 0.28407662E+03</pdfrwt>
<totfact> 0.57580207E+02</totfact>
</mgrwt>
</event>
<event>
 5    0  0.1702508E-001  0.2485467E+03  0.7546771E-02  0.1114227E+00
         21   -1    0    0  503  502  0.00000000000E+00  0.00000000000E+00  0.39471337160E+03  0.39471337160E+03  0.00000000000E+00 0. -1.
         21   -1    0    0  501  503 -0.00000000000E+00 -0.00000000000E+00 -0.19131048029E+03  0.19131048029E+03  0.00000000000E+00 0.  1.
         25    1    1    2    0    0  0.12573236905E+03 -0.18553539536E+03  0.14047611170E+03  0.29255862578E+03  0.12500000000E+03 0.  0.
          3    1    1    2  501    0 -0.13237910560E+03  0.16008357746E+03  0.11331431529E+03  0.23662441426E+03  0.00000000000E+00 0.  1.
         -3    1    1    2    0  502  0.66467365467E+01  0.25451817898E+02 -0.50387535672E+02  0.56840811853E+02  0.00000000000E+00 0. -1.
<mgrwt>
<rscale>  4 0.24854675E+03</rscale>
<asrwt>0</asrwt>
<pdfrwt beam="1">  1       21 0.60725134E-01 0.24854675E+03</pdfrwt>
<pdfrwt beam="2">  1       21 0.29432382E-01 0.24854675E+03</pdfrwt>
<totfact> 0.27135827E+04</totfact>
</mgrwt>
</event>
<event>
 5    0  0.1702508E-001  0.3340943E+03  0.7546771E-02  0.1069339E+00
         21   -1    0    0  503  502  0.00000000000E+00  0.00000000000E+00  0.38294214353E+03  0.38294214353E+03  0.00000000000E+00 0.  1.
         21   -1    0    0  501  503 -0.00000000000E+00 -0.00000000000E+00 -0.55371048734E+03  0.55371048734E+03  0.00000000000E+00 0.  1.
         25    1    1    2    0    0  0.59594319091E+02  0.28544882467E+03  0.16233336444E+03  0.35638411242E+03  0.12500000000E+03 0.  0.
          1    1    1    2  501    0  0.31782962953E+02  0.85513865643E+02 -0.44746008917E+02  0.10161192482E+03  0.00000000000E+00 0. -1.
         -1    1    1    2    0  502 -0.91377282044E+02 -0.37096269032E+03 -0.28835569933E+03  0.47865659362E+03  0.00000000000E+00 0.  1.
<mgrwt>
<rscale>  4 0.33409431E+03</rscale>
<asrwt>0</asrwt>
<pdfrwt beam="1">  1       21 0.58914176E-01 0.33409431E+03</pdfrwt>
<pdfrwt beam="2">  1       21 0.85186228E-01 0.33409431E+03</pdfrwt>
<totfact> 0.29312400E+03</totfact>
</mgrwt>
</event>
<event>
 5    0  0.1702508E-001  0.2915011E+03  0.7546771E-02  0.1089568E+00
         21   -1    0    0  503  502  0.00000000000E+00  0.00000000000E+00  0.70656618823E+03  0.70656618823E+03  0.00000000000E+00 0. -1.
         21   -1    0    0  501  503 -0.00000000000E+00 -0.00000000000E+00 -0.31653676784E+03  0.31653676784E+03  0.00000000000E+00 0.  1.
         25    1    1    2    0    0 -0.25086106185E+03  0.11889859415E+03  0.41992882002E+03  0.51868426034E+03  0.12500000000E+03 0.  0.
          2    1    1    2  501    0  0.35741332796E+02 -0.13201117546E+01 -0.20183590641E+03  0.20498028851E+03  0.00000000000E+00 0.  1.
         -2    1    1    2    0  502  0.21511972906E+03 -0.11757848239E+03  0.17193650678E+03  0.29943840721E+03  0.00000000000E+00 0. -1.
<mgrwt>
<rscale>  4 0.29150108E+03</rscale>
<asrwt>0</asrwt>
<pdfrwt beam="1">  1       21 0.10870249E+00 0.29150108E+03</pdfrwt>
<pdfrwt beam="2">  1       21 0.48697965E-01 0.29150108E+03</pdfrwt>
<totfact> 0.25176338E+03</totfact>
</mgrwt>
</event>
<event>
 5    0  0.1702508E-001  0.2386388E+03  0.7546771E-02  0.1120703E+00
         21   -1    0    0  503  502  0.00000000000E+00  0.00000000000E+00  0.24710346664E+03  0.24710346664E+03  0.00000000000E+00 0.  1.
         21   -1    0    0  501  503 -0.00000000000E+00 -0.00000000000E+00 -0.83853594605E+03  0.83853594605E+03  0.00000000000E+00 0. -1.
         25    1    1    2    0    0  0.63698176064E+02 -0.19964377061E+03  0.16091688067E+03  0.29229152444E+03  0.12500000000E+03 0.  0.
          1    1    1    2  501    0 -0.50386283260E+02  0.30658027440E+02 -0.37584717358E+03  0.38044682950E+03  0.00000000000E+00 0. -1.
         -1    1    1    2    0  502 -0.13311892804E+02  0.16898574317E+03 -0.37650218649E+03  0.41290105875E+03  0.00000000000E+00 0.  1.
<mgrwt>
<rscale>  4 0.23863881E+03</rscale>
<asrwt>0</asrwt>
<pdfrwt beam="1">  1       21 0.38015917E-01 0.23863881E+03</pdfrwt>
<pdfrwt beam="2">  1       21 0.12900553E+00 0.23863881E+03</pdfrwt>
<totfact> 0.28321418E+03</totfact>
</mgrwt>
</event>
<event>
 5    0  0.1702508E-001  0.4691583E+03  0.7546771E-02  0.1022158E+00
         21   -1    0    0  503  502  0.00000000000E+00  0.00000000000E+00  0.56722740285E+03  0.56722740285E+03  0.00000000000E+00 0.  1.
         21   -1    0    0  501  503 -0.00000000000E+00 -0.00000000000E+00 -0.99467702394E+03  0.99467702394E+03  0.00000000000E+00 0. -1.
         25    1    1    2    0    0  0.47617095394E+03  0.30242347277E+03  0.17905688933E+03  0.60488437232E+03  0.12500000000E+03 0.  0.
          2    1    1    2  501    0 -0.54049914401E+02 -0.19198565201E+03  0.12326925764E+02  0.19982951964E+03  0.00000000000E+00 0.  1.
         -2    1    1    2    0  502 -0.42212103954E+03 -0.11043782077E+03 -0.61883343619E+03  0.75719053482E+03  0.00000000000E+00 0. -1.
<mgrwt>
<rscale>  4 0.46915828E+03</rscale>
<asrwt>0</asrwt>
<pdfrwt beam="1">  1       21 0.87265754E-01 0.46915828E+03</pdfrwt>
<pdfrwt beam="2">  1       21 0.15302723E+00 0.46915828E+03</pdfrwt>
<totfact> 0.26017403E+02</totfact>
</mgrwt>
</event>
<event>
 5    0  0.1702508E-001  0.2613399E+03  0.7546771E-02  0.1106341E+00
         21   -1    0    0  503  502  0.00000000000E+00  0.00000000000E+00  0.64166383819E+03  0.64166383819E+03  0.00000000000E+00 0.  1.
         21   -1    0    0  501  503 -0.00000000000E+00 -0.00000000000E+00 -0.12297636714E+03  0.12297636714E+03  0.00000000000E+00 0. -1.
         25    1    1    2    0    0  0.13457618851E+03 -0.19249450619E+03  0.40554136189E+03  0.48502956779E+03  0.12500000000E+03 0.  0.
          3    1    1    2  501    0 -0.10096124602E+03  0.19698065664E+03  0.10351817492E+03  0.24435745298E+03  0.00000000000E+00 0. -1.
         -3    1    1    2    0  502 -0.33614942486E+02 -0.44861504517E+01  0.96279342261E+01  0.35253184560E+02  0.00000000000E+00 0.  1.
<mgrwt>
<rscale>  4 0.26133995E+03</rscale>
<asrwt>0</asrwt>
<pdfrwt beam="1">  1       21 0.98717512E-01 0.26133995E+03</pdfrwt>
<pdfrwt beam="2">  1       21 0.18919441E-01 0.26133995E+03</pdfrwt>
<totfact> 0.20871575E+04</totfact>
</mgrwt>
</event>
<event>
 5    0  0.1702508E-001  0.2971011E+03  0.7546771E-02  0.1086699E+00
         21   -1    0    0  503  502  0.00000000000E+00  0.00000000000E+00  0.32294675979E+03  0.32294675979E+03  0.00000000000E+00 0.  1.
         21   -1    0    0  501  503 -0.00000000000E+00 -0.00000000000E+00 -0.35770321752E+03  0.35770321752E+03  0.00000000000E+00 0. -1.
         25    1    1    2    0    0 -0.28349868337E+03 -0.34812011266E+01  0.10433865219E+03  0.32694827814E+03  0.12500000000E+03 0.  0.
          4    1    1    2  501    0  0.33316121042E+02  0.22492789841E+02 -0.89263491761E+02  0.97897193409E+02  0.00000000000E+00 0.  1.
         -4    1    1    2    0  502  0.25018256233E+03 -0.19011588715E+02 -0.49831618166E+02  0.25580450576E+03  0.00000000000E+00 0. -1.
<mgrwt>
<rscale>  4 0.29710105E+03</rscale>
<asrwt>0</asrwt>
<pdfrwt beam="1">  1       21 0.49684117E-01 0.29710105E+03</pdfrwt>
<pdfrwt beam="2">  1       21 0.55031264E-01 0.29710105E+03</pdfrwt>
<totfact> 0.11354789E+04</totfact>
</mgrwt>
</event>
<event>
 5    0  0.1702508E-001  0.3193580E+03  0.7546771E-02  0.1075945E+00
         21   -1    0    0  503  502  0.00000000000E+00  0.00000000000E+00  0.47824531269E+03  0.47824531269E+03  0.00000000000E+00 0.  1.
         21   -1    0    0  501  503 -0.00000000000E+00 -0.00000000000E+00 -0.38567245341E+03  0.38567245341E+03  0.00000000000E+00 0. -1.
         25    1    1    2    0    0 -0.20927732617E+03 -0.21067794553E+03  0.31576439408E+03  0.45112564608E+03  0.12500000000E+03 0.  0.
          3    1    1    2  501    0  0.23585628974E+02 -0.49653171582E+01 -0.99708163819E+02  0.10257998928E+03  0.00000000000E+00 0.  1.
         -3    1    1    2    0  502  0.18569169720E+03  0.21564326268E+03 -0.12348337098E+03  0.31021213074E+03  0.00000000000E+00 0. -1.
<mgrwt>
<rscale>  4 0.31935797E+03</rscale>
<asrwt>0</asrwt>
<pdfrwt beam="1">  1       21 0.73576202E-01 0.31935797E+03</pdfrwt>
<pdfrwt beam="2">  1       21 0.59334224E-01 0.31935797E+03</pdfrwt>
<totfact> 0.40653174E+03</totfact>
</mgrwt>
</event>
<event>
 5    0  0.1702508E-001  0.1781992E+03  0.7546771E-02  0.1169557E+00
         21   -1    0    0  503  502  0.00000000000E+00  0.00000000000E+00  0.31045350922E+03  0.31045350922E+03  0.00000000000E+00 0. -1.
         21   -1    0    0  501  503 -0.00000000000E+00 -0.00000000000E+00 -0.36288054862E+03  0.36288054862E+03  0.00000000000E+00 0.  1.
         25    1    1    2    0    0  0.10771143705E+03 -0.17156801314E+03  0.18616674141E+03  0.30219264123E+03  0.12500000000E+03 0.  0.
          4    1    1    2  501    0 -0.64147935855E+02  0.10466338501E+03 -0.26082288699E+03  0.28826716812E+03  0.00000000000E+00 0.  1.
         -4    1    1    2    0  502 -0.43563501196E+02  0.66904628130E+02  0.22229106184E+02  0.82874248494E+02  0.00000000000E+00 0. -1.
<mgrwt>
<rscale>  4 0.17819921E+03</rscale>
<asrwt>0</asrwt>
<pdfrwt beam="1">  1       21 0.47762079E-01 0.17819921E+03</pdfrwt>
<pdfrwt beam="2">  1       21 0.55827776E-01 0.17819921E+03</pdfrwt>
<totfact> 0.12786482E+04</totfact>
</mgrwt>
</event>
