<event>
 5    0  0.2349231E+000  0.8905786E+03  0.7546771E-02  0.9437436E-01
         21   -1    0    0  502  501  0.00000000000E+00  0.00000000000E+00  0.11981975162E+04  0.11981975162E+04  0.00000000000E+00 0. -1.
         21   -1    0    0  504  502 -0.00000000000E+00 -0.00000000000E+00 -0.18921746120E+03  0.18921746120E+03  0.00000000000E+00 0.  1.
         25    1    1    2    0    0  0.30902247960E+02 -0.44143937661E+03  0.65234252958E+03  0.79812245179E+03  0.12500000000E+03 0.  0.
         21    1    1    2  503  501  0.43326061861E+00  0.47853160776E+02  0.11948783721E+03  0.12871462991E+03  0.00000000000E+00 0. -1.
         21    1    1    2  504  503 -0.31335508579E+02  0.39358621584E+03  0.23714968821E+03  0.46057789571E+03  0.00000000000E+00 0.  1.
<mgrwt>
<rscale>  4 0.89057855E+03</rscale>
<asrwt>0</asrwt>
<pdfrwt beam="1">  1       21 0.18433807E+00 0.89057855E+03</pdfrwt>
<pdfrwt beam="2">  1       21 0.29110379E-01 0.89057855E+03</pdfrwt>
<totfact> 0.14303159E+03</totfact>
</mgrwt>
</event>
<event>
 5    0  0.2349231E+000  0.4396891E+03  0.7546771E-02  0.1030842E+00
         21   -1    0    0  503  501  0.00000000000E+00  0.00000000000E+00  0.15120500724E+04  0.15120500724E+04  0.00000000000E+00 0. -1.
         21   -1    0    0  504  502 -0.00000000000E+00 -0.00000000000E+00 -0.33342310090E+03  0.33342310090E+03  0.00000000000E+00 0. -1.
         25    1    1    2    0    0  0.95648431147E+02 -0.18484999029E+03 -0.34250546015E+02  0.24518613581E+03  0.12500000000E+03 0.  0.
         21    1    1    2  503  502 -0.56796963479E+02  0.16562489991E+03 -0.15372347409E+03  0.23299873179E+03  0.00000000000E+00 0. -1.
         21    1    1    2  504  501 -0.38851467669E+02  0.19225090386E+02  0.13666009916E+04  0.13672883057E+04  0.00000000000E+00 0. -1.
<mgrwt>
<rscale>  4 0.43968913E+03</rscale>
<asrwt>0</asrwt>
<pdfrwt beam="1">  1       21 0.23262308E+00 0.43968913E+03</pdfrwt>
<pdfrwt beam="2">  1       21 0.51295862E-01 0.43968913E+03</pdfrwt>
<totfact> 0.24630757E+02</totfact>
</mgrwt>
</event>
<event>
 5    0  0.2349231E+000  0.4398034E+03  0.7546771E-02  0.1030807E+00
         21   -1    0    0  502  501  0.00000000000E+00  0.00000000000E+00  0.26021496289E+03  0.26021496289E+03  0.00000000000E+00 0. -1.
         21   -1    0    0  504  502 -0.00000000000E+00 -0.00000000000E+00 -0.23720285575E+03  0.23720285575E+03  0.00000000000E+00 0. -1.
         25    1    1    2    0    0  0.31312759180E+02  0.20852485135E+03 -0.40195649494E+02  0.24840248138E+03  0.12500000000E+03 0.  0.
         21    1    1    2  503  501 -0.17607077732E+02 -0.17095409861E+02  0.51132006930E+02  0.56716350000E+02  0.00000000000E+00 0.  1.
         21    1    1    2  504  503 -0.13705681449E+02 -0.19142944149E+03  0.12075749697E+02  0.19229898726E+03  0.00000000000E+00 0. -1.
<mgrwt>
<rscale>  4 0.43980343E+03</rscale>
<asrwt>0</asrwt>
<pdfrwt beam="1">  1       21 0.40033071E-01 0.43980343E+03</pdfrwt>
<pdfrwt beam="2">  1       21 0.36492747E-01 0.43980343E+03</pdfrwt>
<totfact> 0.40033337E+04</totfact>
</mgrwt>
</event>
