<event>
 5    0  0.4115852E+000  0.4297638E+03  0.7546771E-02  0.1033935E+00
         21   -1    0    0  503  502  0.00000000000E+00  0.00000000000E+00  0.57018614076E+03  0.57018614076E+03  0.00000000000E+00 0. -1.
          1   -1    0    0  502    0 -0.00000000000E+00 -0.00000000000E+00 -0.70880503650E+03  0.70880503650E+03  0.00000000000E+00 0. -1.
         25    1    1    2    0    0  0.20957513090E+03 -0.39312032814E+03  0.31317339502E+02  0.46375759147E+03  0.12500000000E+03 0.  0.
         21    1    1    2  503  501 -0.84109996537E+02  0.11954290120E+02  0.23212459177E+03  0.24718256952E+03  0.00000000000E+00 0. -1.
          1    1    1    2  501    0 -0.12546513436E+03  0.38116603802E+03 -0.40206082700E+03  0.56805101628E+03  0.00000000000E+00 0. -1.
<mgrwt>
<rscale>  4 0.42976378E+03</rscale>
<asrwt>0</asrwt>
<pdfrwt beam="1">  1       21 0.87720945E-01 0.42976378E+03</pdfrwt>
<pdfrwt beam="2">  1        1 0.10904693E+00 0.42976378E+03</pdfrwt>
<totfact> 0.30843577E+02</totfact>
</mgrwt>
</event>
<event>
 5    0  0.6954679E+000  0.2448515E+03  0.7546771E-02  0.1116602E+00
         21   -1    0    0  503  502  0.00000000000E+00  0.00000000000E+00  0.50292812689E+03  0.50292812689E+03  0.00000000000E+00 0.  1.
          1   -1    0    0  502    0 -0.00000000000E+00 -0.00000000000E+00 -0.10804804128E+04  0.10804804128E+04  0.00000000000E+00 0.  1.
         25    1    1    2    0    0 -0.23135434757E+03 -0.55558243815E+02  0.44381670446E+03  0.51885433385E+03  0.12500000000E+03 0.  0.
         21    1    1    2  503  501  0.30394980563E+02 -0.51708136776E+01 -0.11202567152E+02  0.32803805699E+02  0.00000000000E+00 0. -1.
          1    1    1    2  501    0  0.20095936701E+03  0.60729057493E+02 -0.10101664232E+04  0.10317504001E+04  0.00000000000E+00 0.  1.
<mgrwt>
<rscale>  4 0.24485152E+03</rscale>
<asrwt>0</asrwt>
<pdfrwt beam="1">  1       21 0.77373559E-01 0.24485152E+03</pdfrwt>
<pdfrwt beam="2">  1        1 0.16622775E+00 0.24485152E+03</pdfrwt>
<totfact> 0.22440187E+02</totfact>
</mgrwt>
</event>
<event>
 5    0  0.4115852E+000  0.2779783E+03  0.7546771E-02  0.1096798E+00
         21   -1    0    0  503  502  0.00000000000E+00  0.00000000000E+00  0.11702535147E+03  0.11702535147E+03  0.00000000000E+00 0. -1.
          2   -1    0    0  502    0 -0.00000000000E+00 -0.00000000000E+00 -0.19283054749E+04  0.19283054749E+04  0.00000000000E+00 0. -1.
         25    1    1    2    0    0 -0.22269421112E+03 -0.16990975189E+03 -0.11564620044E+04  0.11964494988E+04  0.12500000000E+03 0.  0.
         21    1    1    2  503  501  0.33216819560E+02  0.53679159888E+02  0.67924186216E+02  0.92728120768E+02  0.00000000000E+00 0. -1.
          2    1    1    2  501    0  0.18947739156E+03  0.11623059201E+03 -0.72274230520E+03  0.75615320680E+03  0.00000000000E+00 0. -1.
<mgrwt>
<rscale>  4 0.27797830E+03</rscale>
<asrwt>0</asrwt>
<pdfrwt beam="1">  1       21 0.18003901E-01 0.27797830E+03</pdfrwt>
<pdfrwt beam="2">  1        2 0.29666237E+00 0.27797830E+03</pdfrwt>
<totfact> 0.28271653E+03</totfact>
</mgrwt>
</event>
<event>
 5    0  0.4115852E+000  0.2631990E+03  0.7546771E-02  0.1105236E+00
         21   -1    0    0  503  502  0.00000000000E+00  0.00000000000E+00  0.15511061795E+03  0.15511061795E+03  0.00000000000E+00 0.  1.
          2   -1    0    0  502    0 -0.00000000000E+00 -0.00000000000E+00 -0.15999286015E+04  0.15999286015E+04  0.00000000000E+00 0. -1.
         25    1    1    2    0    0 -0.11507188994E+03  0.19117640865E+03  0.65792554218E+01  0.25584809102E+03  0.12500000000E+03 0.  0.
         21    1    1    2  503  501 -0.31514808486E+02 -0.10879532744E+02 -0.43694177629E+01  0.33624978784E+02  0.00000000000E+00 0. -1.
          2    1    1    2  501    0  0.14658669843E+03 -0.18029687590E+03 -0.14470278212E+04  0.14655661496E+04  0.00000000000E+00 0. -1.
<mgrwt>
<rscale>  4 0.26319896E+03</rscale>
<asrwt>0</asrwt>
<pdfrwt beam="1">  1       21 0.23863172E-01 0.26319896E+03</pdfrwt>
<pdfrwt beam="2">  1        2 0.24614286E+00 0.26319896E+03</pdfrwt>
<totfact> 0.24876969E+03</totfact>
</mgrwt>
</event>
<event>
 5    0  0.4115852E+000  0.3490723E+03  0.7546771E-02  0.1062996E+00
          2   -1    0    0  502    0 -0.00000000000E+00  0.00000000000E+00  0.63912684635E+03  0.63912684635E+03  0.00000000000E+00 0. -1.
         21   -1    0    0  503  502  0.00000000000E+00 -0.00000000000E+00 -0.39047746094E+03  0.39047746094E+03  0.00000000000E+00 0.  1.
         25    1    1    2    0    0 -0.11659524489E+03 -0.28791399574E+03 -0.22600462364E+03  0.40397030829E+03  0.12500000000E+03 0.  0.
         21    1    1    2  503  501 -0.46500571145E+02  0.24101821451E+01 -0.19618902289E+01  0.46604303536E+02  0.00000000000E+00 0. -1.
          2    1    1    2  501    0  0.16309581603E+03  0.28550381359E+03  0.47661589928E+03  0.57902969546E+03  0.00000000000E+00 0. -1.
<mgrwt>
<rscale>  4 0.34907231E+03</rscale>
<asrwt>0</asrwt>
<pdfrwt beam="1">  1       21 0.60073456E-01 0.34907231E+03</pdfrwt>
<pdfrwt beam="2">  1        2 0.98327207E-01 0.34907231E+03</pdfrwt>
<totfact> 0.14355172E+03</totfact>
</mgrwt>
</event>
<event>
 5    0  0.4115852E+000  0.2686445E+03  0.7546771E-02  0.1102058E+00
         21   -1    0    0  503  502  0.00000000000E+00  0.00000000000E+00  0.24761798773E+03  0.24761798773E+03  0.00000000000E+00 0. -1.
          2   -1    0    0  502    0 -0.00000000000E+00 -0.00000000000E+00 -0.14503707853E+04  0.14503707853E+04  0.00000000000E+00 0. -1.
         25    1    1    2    0    0 -0.16421480438E+03  0.19356081035E+03 -0.36723199421E+03  0.46359101248E+03  0.12500000000E+03 0.  0.
         21    1    1    2  503  501  0.18537304988E+02 -0.11167265443E+02  0.18563970386E+03  0.18689686767E+03  0.00000000000E+00 0. -1.
          2    1    1    2  501    0  0.14567749940E+03 -0.18239354491E+03 -0.10211605073E+04  0.10475008929E+04  0.00000000000E+00 0. -1.
<mgrwt>
<rscale>  4 0.26864452E+03</rscale>
<asrwt>0</asrwt>
<pdfrwt beam="1">  1       21 0.38095075E-01 0.26864452E+03</pdfrwt>
<pdfrwt beam="2">  1        2 0.22313396E+00 0.26864452E+03</pdfrwt>
<totfact> 0.11894955E+03</totfact>
</mgrwt>
</event>
<event>
 5    0  0.4115852E+000  0.5227134E+03  0.7546771E-02  0.1008015E+00
          2   -1    0    0  502    0 -0.00000000000E+00  0.00000000000E+00  0.20059476807E+04  0.20059476807E+04  0.00000000000E+00 0. -1.
         21   -1    0    0  503  502  0.00000000000E+00 -0.00000000000E+00 -0.20393349978E+03  0.20393349978E+03  0.00000000000E+00 0. -1.
         25    1    1    2    0    0 -0.56602076426E+03 -0.13949256542E+03  0.64991449987E+03  0.88195892111E+03  0.12500000000E+03 0.  0.
         21    1    1    2  503  501  0.10034037980E+03  0.40731236339E+02  0.35303123227E+02  0.11390143081E+03  0.00000000000E+00 0. -1.
          2    1    1    2  501    0  0.46568038446E+03  0.98761329082E+02  0.11167965578E+04  0.12140208285E+04  0.00000000000E+00 0. -1.
<mgrwt>
<rscale>  4 0.52271336E+03</rscale>
<asrwt>0</asrwt>
<pdfrwt beam="1">  1       21 0.31374386E-01 0.52271336E+03</pdfrwt>
<pdfrwt beam="2">  1        2 0.30860732E+00 0.52271336E+03</pdfrwt>
<totfact> 0.81327286E+02</totfact>
</mgrwt>
</event>
<event>
 5    0  0.4115852E+000  0.4365106E+03  0.7546771E-02  0.1031823E+00
          2   -1    0    0  502    0 -0.00000000000E+00  0.00000000000E+00  0.11487827597E+04  0.11487827597E+04  0.00000000000E+00 0.  1.
         21   -1    0    0  503  502  0.00000000000E+00 -0.00000000000E+00 -0.44151548051E+03  0.44151548051E+03  0.00000000000E+00 0.  1.
         25    1    1    2    0    0 -0.97425637283E+02 -0.52476180510E+03  0.33235523356E+03  0.64105515221E+03  0.12500000000E+03 0.  0.
         21    1    1    2  503  501 -0.86296877718E+02  0.19119370462E+03 -0.17987717675E+03  0.27632948178E+03  0.00000000000E+00 0.  1.
          2    1    1    2  501    0  0.18372251500E+03  0.33356810049E+03  0.55478922238E+03  0.67291360623E+03  0.00000000000E+00 0.  1.
<mgrwt>
<rscale>  4 0.43651062E+03</rscale>
<asrwt>0</asrwt>
<pdfrwt beam="1">  1       21 0.67925459E-01 0.43651062E+03</pdfrwt>
<pdfrwt beam="2">  1        2 0.17673581E+00 0.43651062E+03</pdfrwt>
<totfact> 0.48374573E+02</totfact>
</mgrwt>
</event>
<event>
 5    0  0.4115852E+000  0.4626450E+03  0.7546771E-02  0.1024017E+00
          2   -1    0    0  502    0 -0.00000000000E+00  0.00000000000E+00  0.21938237942E+04  0.21938237942E+04  0.00000000000E+00 0.  1.
         21   -1    0    0  503  502  0.00000000000E+00 -0.00000000000E+00 -0.51166241510E+03  0.51166241510E+03  0.00000000000E+00 0.  1.
         25    1    1    2    0    0 -0.39225500036E+03  0.39556917089E+03  0.10602594039E+03  0.58069394202E+03  0.12500000000E+03 0.  0.
         21    1    1    2  503  501  0.13281976451E+03 -0.47816227909E+02 -0.22858052290E+03  0.26865691308E+03  0.00000000000E+00 0.  1.
          2    1    1    2  501    0  0.25943523585E+03 -0.34775294298E+03  0.18047159616E+04  0.18561353542E+04  0.00000000000E+00 0.  1.
<mgrwt>
<rscale>  4 0.46264501E+03</rscale>
<asrwt>0</asrwt>
<pdfrwt beam="1">  1       21 0.78717296E-01 0.46264501E+03</pdfrwt>
<pdfrwt beam="2">  1        2 0.33751135E+00 0.46264501E+03</pdfrwt>
<totfact> 0.91876872E+01</totfact>
</mgrwt>
</event>
<event>
 5    0  0.4115852E+000  0.2799053E+03  0.7546771E-02  0.1095741E+00
         21   -1    0    0  503  502  0.00000000000E+00  0.00000000000E+00  0.98645608779E+02  0.98645608779E+02  0.00000000000E+00 0. -1.
          2   -1    0    0  502    0 -0.00000000000E+00 -0.00000000000E+00 -0.24906133952E+04  0.24906133952E+04  0.00000000000E+00 0. -1.
         25    1    1    2    0    0 -0.28212050040E+03  0.22188327270E+03 -0.11985459390E+04  0.12573629275E+04  0.12500000000E+03 0.  0.
         21    1    1    2  503  501  0.23706422431E+03 -0.21746428000E+02 -0.18141408529E+03  0.29930490126E+03  0.00000000000E+00 0. -1.
          2    1    1    2  501    0  0.45056276092E+02 -0.20013684470E+03 -0.10120077621E+04  0.10325911752E+04  0.00000000000E+00 0. -1.
<mgrwt>
<rscale>  4 0.27990532E+03</rscale>
<asrwt>0</asrwt>
<pdfrwt beam="1">  1       21 0.15176248E-01 0.27990532E+03</pdfrwt>
<pdfrwt beam="2">  1        2 0.38317128E+00 0.27990532E+03</pdfrwt>
<totfact> 0.19400196E+03</totfact>
</mgrwt>
</event>
<event>
 5    0  0.4115852E+000  0.2517804E+03  0.7546771E-02  0.1112185E+00
         21   -1    0    0  501  502  0.00000000000E+00  0.00000000000E+00  0.42584511348E+03  0.42584511348E+03  0.00000000000E+00 0. -1.
         -4   -1    0    0    0  501 -0.00000000000E+00 -0.00000000000E+00 -0.93640299771E+03  0.93640299771E+03  0.00000000000E+00 0. -1.
         25    1    1    2    0    0  0.22710501509E+03  0.96082359002E+01  0.31974147309E+03  0.41173852830E+03  0.12500000000E+03 0.  0.
         21    1    1    2  503  502 -0.12001733911E+02  0.27643358949E+02  0.41783832667E+02  0.51517818114E+02  0.00000000000E+00 0.  1.
         -4    1    1    2    0  503 -0.21510328118E+03 -0.37251594849E+02 -0.87208318998E+03  0.89899176478E+03  0.00000000000E+00 0. -1.
<mgrwt>
<rscale>  4 0.25178040E+03</rscale>
<asrwt>0</asrwt>
<pdfrwt beam="1">  1       21 0.65514634E-01 0.25178040E+03</pdfrwt>
<pdfrwt beam="2">  1       -4 0.14406200E+00 0.25178040E+03</pdfrwt>
<totfact> 0.31054159E+01</totfact>
</mgrwt>
</event>
<event>
 5    0  0.4115852E+000  0.3686494E+03  0.7546771E-02  0.1055211E+00
          2   -1    0    0  502    0 -0.00000000000E+00  0.00000000000E+00  0.12059821994E+04  0.12059821994E+04  0.00000000000E+00 0.  1.
         21   -1    0    0  503  502  0.00000000000E+00 -0.00000000000E+00 -0.25359151651E+03  0.25359151651E+03  0.00000000000E+00 0. -1.
         25    1    1    2    0    0  0.29687322187E+03 -0.17497293322E+03 -0.57683383408E+02  0.37108167557E+03  0.12500000000E+03 0.  0.
         21    1    1    2  503  501  0.30221078574E+02  0.19587950168E+02  0.44508240884E+02  0.57253688864E+02  0.00000000000E+00 0. -1.
          2    1    1    2  501    0 -0.32709430045E+03  0.15538498305E+03  0.96556582541E+03  0.10312383515E+04  0.00000000000E+00 0.  1.
<mgrwt>
<rscale>  4 0.36864944E+03</rscale>
<asrwt>0</asrwt>
<pdfrwt beam="1">  1       21 0.39014080E-01 0.36864944E+03</pdfrwt>
<pdfrwt beam="2">  1        2 0.18553572E+00 0.36864944E+03</pdfrwt>
<totfact> 0.14937212E+03</totfact>
</mgrwt>
</event>
<event>
 5    0  0.4115852E+000  0.2198372E+03  0.7546771E-02  0.1134004E+00
         21   -1    0    0  503  502  0.00000000000E+00  0.00000000000E+00  0.13856833810E+03  0.13856833810E+03  0.00000000000E+00 0.  1.
          2   -1    0    0  502    0 -0.00000000000E+00 -0.00000000000E+00 -0.45014561632E+04  0.45014561632E+04  0.00000000000E+00 0.  1.
         25    1    1    2    0    0  0.10648682133E+03 -0.30616473147E+03 -0.17398977733E+04  0.17742450640E+04  0.12500000000E+03 0.  0.
         21    1    1    2  503  501 -0.39924751211E+01  0.17602092855E+03  0.53618376567E+02  0.18404955161E+03  0.00000000000E+00 0.  1.
          2    1    1    2  501    0 -0.10249434620E+03  0.13014380292E+03 -0.26766084284E+04  0.26817298856E+04  0.00000000000E+00 0.  1.
<mgrwt>
<rscale>  4 0.21983721E+03</rscale>
<asrwt>0</asrwt>
<pdfrwt beam="1">  1       21 0.21318206E-01 0.21983721E+03</pdfrwt>
<pdfrwt beam="2">  1        2 0.69253171E+00 0.21983721E+03</pdfrwt>
<totfact> 0.45468169E+01</totfact>
</mgrwt>
</event>
<event>
 5    0  0.4115852E+000  0.2512472E+03  0.7546771E-02  0.1112519E+00
         -1   -1    0    0    0  501 -0.00000000000E+00  0.00000000000E+00  0.18570476883E+04  0.18570476883E+04  0.00000000000E+00 0. -1.
         21   -1    0    0  501  502  0.00000000000E+00 -0.00000000000E+00 -0.56465688027E+03  0.56465688027E+03  0.00000000000E+00 0.  1.
         25    1    1    2    0    0 -0.25150492316E+03 -0.70631750978E+02  0.45668691688E+03  0.54076936921E+03  0.12500000000E+03 0.  0.
         21    1    1    2  503  502  0.54273642008E+02 -0.62887141309E+00 -0.51308141299E+03  0.51594433813E+03  0.00000000000E+00 0.  1.
         -1    1    1    2    0  503  0.19723128116E+03  0.71260622391E+02  0.13487853042E+04  0.13649908613E+04  0.00000000000E+00 0. -1.
<mgrwt>
<rscale>  4 0.25124722E+03</rscale>
<asrwt>0</asrwt>
<pdfrwt beam="1">  1       21 0.86870290E-01 0.25124722E+03</pdfrwt>
<pdfrwt beam="2">  1       -1 0.28569964E+00 0.25124722E+03</pdfrwt>
<totfact> 0.49259560E+00</totfact>
</mgrwt>
</event>
<event>
 5    0  0.4115852E+000  0.1975176E+03  0.7546771E-02  0.1151850E+00
         21   -1    0    0  503  502  0.00000000000E+00  0.00000000000E+00  0.54302767329E+02  0.54302767329E+02  0.00000000000E+00 0.  1.
          2   -1    0    0  502    0 -0.00000000000E+00 -0.00000000000E+00 -0.13350546251E+04  0.13350546251E+04  0.00000000000E+00 0. -1.
         25    1    1    2    0    0 -0.17008586783E+03 -0.10614292627E+03 -0.42889266144E+03  0.48966257593E+03  0.12500000000E+03 0.  0.
         21    1    1    2  503  501  0.88519352120E+02 -0.13804228362E+02 -0.10123657102E+03  0.13518533845E+03  0.00000000000E+00 0.  1.
          2    1    1    2  501    0  0.81566515710E+02  0.11994715463E+03 -0.75062262530E+03  0.76450947804E+03  0.00000000000E+00 0. -1.
<mgrwt>
<rscale>  4 0.19751758E+03</rscale>
<asrwt>0</asrwt>
<pdfrwt beam="1">  1       21 0.83542725E-02 0.19751758E+03</pdfrwt>
<pdfrwt beam="2">  1        2 0.20539300E+00 0.19751758E+03</pdfrwt>
<totfact> 0.23903886E+04</totfact>
</mgrwt>
</event>
<event>
 5    0  0.4115852E+000  0.2002911E+03  0.7546771E-02  0.1149494E+00
         21   -1    0    0  501  502  0.00000000000E+00  0.00000000000E+00  0.41512119368E+03  0.41512119368E+03  0.00000000000E+00 0. -1.
         -1   -1    0    0    0  501 -0.00000000000E+00 -0.00000000000E+00 -0.83051412605E+03  0.83051412605E+03  0.00000000000E+00 0. -1.
         25    1    1    2    0    0 -0.19440596444E+02  0.24338464927E+03 -0.21826507789E+03  0.35054053762E+03  0.12500000000E+03 0.  0.
         21    1    1    2  503  502 -0.11000992631E+02 -0.10265185132E+03  0.33150209187E+03  0.34720607905E+03  0.00000000000E+00 0. -1.
         -1    1    1    2    0  503  0.30441589076E+02 -0.14073279795E+03 -0.52862994635E+03  0.54788870306E+03  0.00000000000E+00 0. -1.
<mgrwt>
<rscale>  4 0.20029105E+03</rscale>
<asrwt>0</asrwt>
<pdfrwt beam="1">  1       21 0.63864800E-01 0.20029105E+03</pdfrwt>
<pdfrwt beam="2">  1       -1 0.12777140E+00 0.20029105E+03</pdfrwt>
<totfact> 0.12074917E+02</totfact>
</mgrwt>
</event>
<event>
 5    0  0.4115852E+000  0.3029461E+03  0.7546771E-02  0.1083777E+00
          2   -1    0    0  502    0 -0.00000000000E+00  0.00000000000E+00  0.10179912948E+04  0.10179912948E+04  0.00000000000E+00 0.  1.
         21   -1    0    0  503  502  0.00000000000E+00 -0.00000000000E+00 -0.32158494285E+03  0.32158494285E+03  0.00000000000E+00 0.  1.
         25    1    1    2    0    0 -0.14938006003E+02 -0.28356160885E+03  0.58385969727E+02  0.31569645468E+03  0.12500000000E+03 0.  0.
         21    1    1    2  503  501  0.46386281333E+02  0.10236154136E+02 -0.16674748176E+03  0.17338162711E+03  0.00000000000E+00 0.  1.
          2    1    1    2  501    0 -0.31448275329E+02  0.27332545472E+03  0.80476786395E+03  0.85049815583E+03  0.00000000000E+00 0.  1.
<mgrwt>
<rscale>  4 0.30294606E+03</rscale>
<asrwt>0</asrwt>
<pdfrwt beam="1">  1       21 0.49474607E-01 0.30294606E+03</pdfrwt>
<pdfrwt beam="2">  1        2 0.15661404E+00 0.30294606E+03</pdfrwt>
<totfact> 0.12053583E+03</totfact>
</mgrwt>
</event>
<event>
 5    0  0.4115852E+000  0.2743511E+03  0.7546771E-02  0.1098815E+00
         21   -1    0    0  501  502  0.00000000000E+00  0.00000000000E+00  0.28996903234E+03  0.28996903234E+03  0.00000000000E+00 0. -1.
         -4   -1    0    0    0  501 -0.00000000000E+00 -0.00000000000E+00 -0.11126170658E+04  0.11126170658E+04  0.00000000000E+00 0. -1.
         25    1    1    2    0    0  0.26280795252E+03  0.84290455768E+02  0.15793537533E+03  0.34167452879E+03  0.12500000000E+03 0.  0.
         21    1    1    2  503  502 -0.25073977929E+02 -0.36701912256E+02  0.61100614501E+01  0.44867221703E+02  0.00000000000E+00 0.  1.
         -4    1    1    2    0  503 -0.23773397459E+03 -0.47588543512E+02 -0.98669347021E+03  0.10160443476E+04  0.00000000000E+00 0. -1.
<mgrwt>
<rscale>  4 0.27435113E+03</rscale>
<asrwt>0</asrwt>
<pdfrwt beam="1">  1       21 0.44610621E-01 0.27435113E+03</pdfrwt>
<pdfrwt beam="2">  1       -4 0.17117185E+00 0.27435113E+03</pdfrwt>
<totfact> 0.44326347E+01</totfact>
</mgrwt>
</event>
<event>
 5    0  0.4115852E+000  0.3235058E+03  0.7546771E-02  0.1074047E+00
         21   -1    0    0  503  502  0.00000000000E+00  0.00000000000E+00  0.91342110947E+03  0.91342110947E+03  0.00000000000E+00 0.  1.
          2   -1    0    0  502    0 -0.00000000000E+00 -0.00000000000E+00 -0.16775358240E+04  0.16775358240E+04  0.00000000000E+00 0.  1.
         25    1    1    2    0    0 -0.18149599111E+03  0.18695165812E+03 -0.40529238658E+01  0.28902100867E+03  0.12500000000E+03 0.  0.
         21    1    1    2  503  501 -0.82229820217E+02 -0.36983701493E+02  0.75319218275E+03  0.75856970785E+03  0.00000000000E+00 0.  1.
          2    1    1    2  501    0  0.26372581133E+03 -0.14996795662E+03 -0.15132539734E+04  0.15433662170E+04  0.00000000000E+00 0.  1.
<mgrwt>
<rscale>  4 0.32350578E+03</rscale>
<asrwt>0</asrwt>
<pdfrwt beam="1">  1       21 0.14052633E+00 0.32350578E+03</pdfrwt>
<pdfrwt beam="2">  1        2 0.25808243E+00 0.32350578E+03</pdfrwt>
<totfact> 0.44909566E+01</totfact>
</mgrwt>
</event>
<event>
 5    0  0.4115852E+000  0.3560536E+03  0.7546771E-02  0.1060157E+00
          1   -1    0    0  502    0 -0.00000000000E+00  0.00000000000E+00  0.29812303588E+04  0.29812303588E+04  0.00000000000E+00 0.  1.
         21   -1    0    0  503  502  0.00000000000E+00 -0.00000000000E+00 -0.21421683396E+03  0.21421683396E+03  0.00000000000E+00 0.  1.
         25    1    1    2    0    0  0.46100746286E+03  0.34335053643E+03  0.61212806268E+03  0.84896598094E+03  0.12500000000E+03 0.  0.
         21    1    1    2  503  501 -0.26630893704E+03 -0.10149275236E+03  0.15851549367E+03  0.32611100942E+03  0.00000000000E+00 0.  1.
          1    1    1    2  501    0 -0.19469852581E+03 -0.24185778407E+03  0.19963699685E+04  0.20203702024E+04  0.00000000000E+00 0.  1.
<mgrwt>
<rscale>  4 0.35605361E+03</rscale>
<asrwt>0</asrwt>
<pdfrwt beam="1">  1       21 0.32956438E-01 0.35605361E+03</pdfrwt>
<pdfrwt beam="2">  1        1 0.45865080E+00 0.35605361E+03</pdfrwt>
<totfact> 0.68100846E+01</totfact>
</mgrwt>
</event>
<event>
 5    0  0.4115852E+000  0.3835185E+03  0.7546771E-02  0.1049641E+00
         -2   -1    0    0    0  501 -0.00000000000E+00  0.00000000000E+00  0.44942201071E+03  0.44942201071E+03  0.00000000000E+00 0. -1.
         21   -1    0    0  501  502  0.00000000000E+00 -0.00000000000E+00 -0.11151209684E+04  0.11151209684E+04  0.00000000000E+00 0.  1.
         25    1    1    2    0    0  0.27651772558E+03  0.39148256925E+03 -0.68537715187E+03  0.84562846149E+03  0.12500000000E+03 0.  0.
         21    1    1    2  503  502 -0.11888561366E+03 -0.79257269629E+02 -0.24272951347E+03  0.28166135808E+03  0.00000000000E+00 0.  1.
         -2    1    1    2    0  503 -0.15763211192E+03 -0.31222529962E+03  0.26240770769E+03  0.43725315949E+03  0.00000000000E+00 0. -1.
<mgrwt>
<rscale>  4 0.38351855E+03</rscale>
<asrwt>0</asrwt>
<pdfrwt beam="1">  1       21 0.17155707E+00 0.38351855E+03</pdfrwt>
<pdfrwt beam="2">  1       -2 0.69141849E-01 0.38351855E+03</pdfrwt>
<totfact> 0.29619267E+01</totfact>
</mgrwt>
</event>
<event>
 5    0  0.4115852E+000  0.2759722E+03  0.7546771E-02  0.1097909E+00
         21   -1    0    0  501  502  0.00000000000E+00  0.00000000000E+00  0.40424631584E+03  0.40424631584E+03  0.00000000000E+00 0.  1.
         -4   -1    0    0    0  501 -0.00000000000E+00 -0.00000000000E+00 -0.38615882891E+03  0.38615882891E+03  0.00000000000E+00 0.  1.
         25    1    1    2    0    0 -0.94508747374E+02  0.31168020714E+03 -0.17090536326E+02  0.34927573818E+03  0.12500000000E+03 0.  0.
         21    1    1    2  503  502 -0.16020262293E+02 -0.12494233010E+03  0.14979782370E+03  0.19572077723E+03  0.00000000000E+00 0.  1.
         -4    1    1    2    0  503  0.11052900967E+03 -0.18673787703E+03 -0.11461980044E+03  0.24540862933E+03  0.00000000000E+00 0.  1.
<mgrwt>
<rscale>  4 0.27597225E+03</rscale>
<asrwt>0</asrwt>
<pdfrwt beam="1">  1       21 0.62191741E-01 0.27597225E+03</pdfrwt>
<pdfrwt beam="2">  1       -4 0.59409051E-01 0.27597225E+03</pdfrwt>
<totfact> 0.27011352E+02</totfact>
</mgrwt>
</event>
<event>
 5    0  0.4115852E+000  0.2409202E+03  0.7546771E-02  0.1119181E+00
         21   -1    0    0  503  502  0.00000000000E+00  0.00000000000E+00  0.72869897021E+03  0.72869897021E+03  0.00000000000E+00 0.  1.
          4   -1    0    0  502    0 -0.00000000000E+00 -0.00000000000E+00 -0.40277598764E+03  0.40277598764E+03  0.00000000000E+00 0.  1.
         25    1    1    2    0    0 -0.25150696120E+03  0.10040142545E+03  0.47156474871E+03  0.55797357463E+03  0.12500000000E+03 0.  0.
         21    1    1    2  503  501  0.11105122383E+03 -0.12099820762E+03  0.16447807126E+03  0.23243488655E+03  0.00000000000E+00 0.  1.
          4    1    1    2  501    0  0.14045573737E+03  0.20596782168E+02 -0.31011983740E+03  0.34106649666E+03  0.00000000000E+00 0.  1.
<mgrwt>
<rscale>  4 0.24092020E+03</rscale>
<asrwt>0</asrwt>
<pdfrwt beam="1">  1       21 0.11210753E+00 0.24092020E+03</pdfrwt>
<pdfrwt beam="2">  1        4 0.61965537E-01 0.24092020E+03</pdfrwt>
<totfact> 0.63972858E+01</totfact>
</mgrwt>
</event>
<event>
 5    0  0.4115852E+000  0.2894762E+03  0.7546771E-02  0.1090623E+00
         21   -1    0    0  503  502  0.00000000000E+00  0.00000000000E+00  0.68532348500E+03  0.68532348500E+03  0.00000000000E+00 0.  1.
          2   -1    0    0  502    0 -0.00000000000E+00 -0.00000000000E+00 -0.26504624267E+03  0.26504624267E+03  0.00000000000E+00 0.  1.
         25    1    1    2    0    0 -0.32163345121E+03 -0.12125980514E+02  0.16242242374E+03  0.38157720068E+03  0.12500000000E+03 0.  0.
         21    1    1    2  503  501  0.12329763508E+03 -0.14139801585E+03  0.25673772455E+03  0.31797793149E+03  0.00000000000E+00 0.  1.
          2    1    1    2  501    0  0.19833581614E+03  0.15352399637E+03  0.11170940406E+01  0.25081459551E+03  0.00000000000E+00 0.  1.
<mgrwt>
<rscale>  4 0.28947619E+03</rscale>
<asrwt>0</asrwt>
<pdfrwt beam="1">  1       21 0.10543438E+00 0.28947619E+03</pdfrwt>
<pdfrwt beam="2">  1        2 0.40776345E-01 0.28947619E+03</pdfrwt>
<totfact> 0.10744183E+03</totfact>
</mgrwt>
</event>
<event>
 5    0  0.4115852E+000  0.2538881E+03  0.7546771E-02  0.1110872E+00
          1   -1    0    0  502    0 -0.00000000000E+00  0.00000000000E+00  0.10374352247E+04  0.10374352247E+04  0.00000000000E+00 0.  1.
         21   -1    0    0  503  502  0.00000000000E+00 -0.00000000000E+00 -0.15854635262E+03  0.15854635262E+03  0.00000000000E+00 0. -1.
         25    1    1    2    0    0  0.22261166397E+03  0.22612077061E+02 -0.24760766872E+02  0.25749826123E+03  0.12500000000E+03 0.  0.
         21    1    1    2  503  501 -0.25954723838E+02  0.20659271527E+02  0.41489174173E+02  0.53120662300E+02  0.00000000000E+00 0. -1.
          1    1    1    2  501    0 -0.19665694013E+03 -0.43271348588E+02  0.86216046476E+03  0.88536265378E+03  0.00000000000E+00 0.  1.
<mgrwt>
<rscale>  4 0.25388806E+03</rscale>
<asrwt>0</asrwt>
<pdfrwt beam="1">  1       21 0.24391747E-01 0.25388806E+03</pdfrwt>
<pdfrwt beam="2">  1        1 0.15960541E+00 0.25388806E+03</pdfrwt>
<totfact> 0.26110280E+03</totfact>
</mgrwt>
</event>
<event>
 5    0  0.4115852E+000  0.2676297E+03  0.7546771E-02  0.1102644E+00
         21   -1    0    0  503  502  0.00000000000E+00  0.00000000000E+00  0.29085659785E+03  0.29085659785E+03  0.00000000000E+00 0. -1.
          2   -1    0    0  502    0 -0.00000000000E+00 -0.00000000000E+00 -0.55679614641E+03  0.55679614641E+03  0.00000000000E+00 0. -1.
         25    1    1    2    0    0 -0.23423703985E+03 -0.50936704831E+02  0.54498274947E+02  0.27578361211E+03  0.12500000000E+03 0.  0.
         21    1    1    2  503  501 -0.22592706291E+01  0.80067773148E+02  0.75295907808E+02  0.10993373610E+03  0.00000000000E+00 0. -1.
          2    1    1    2  501    0  0.23649631048E+03 -0.29131068317E+02 -0.39573373132E+03  0.46193539604E+03  0.00000000000E+00 0. -1.
<mgrwt>
<rscale>  4 0.26762970E+03</rscale>
<asrwt>0</asrwt>
<pdfrwt beam="1">  1       21 0.44747169E-01 0.26762970E+03</pdfrwt>
<pdfrwt beam="2">  1        2 0.85660945E-01 0.26762970E+03</pdfrwt>
<totfact> 0.32271483E+03</totfact>
</mgrwt>
</event>
<event>
 5    0  0.4115852E+000  0.2126084E+03  0.7546771E-02  0.1139517E+00
         21   -1    0    0  503  502  0.00000000000E+00  0.00000000000E+00  0.89105814176E+03  0.89105814176E+03  0.00000000000E+00 0. -1.
          2   -1    0    0  502    0 -0.00000000000E+00 -0.00000000000E+00 -0.26368637151E+03  0.26368637151E+03  0.00000000000E+00 0.  1.
         25    1    1    2    0    0  0.27622438340E+02 -0.20529966319E+03  0.37625777235E+03  0.44733193722E+03  0.12500000000E+03 0.  0.
         21    1    1    2  503  501 -0.21828222596E+01  0.37930776071E+02  0.44694162036E+03  0.44855358710E+03  0.00000000000E+00 0. -1.
          2    1    1    2  501    0 -0.25439616080E+02  0.16736888712E+03 -0.19582762246E+03  0.25885898895E+03  0.00000000000E+00 0.  1.
<mgrwt>
<rscale>  4 0.21260844E+03</rscale>
<asrwt>0</asrwt>
<pdfrwt beam="1">  1       21 0.13708587E+00 0.21260844E+03</pdfrwt>
<pdfrwt beam="2">  1        2 0.40567135E-01 0.21260844E+03</pdfrwt>
<totfact> 0.58116597E+02</totfact>
</mgrwt>
</event>
<event>
 5    0  0.4115852E+000  0.3080285E+03  0.7546771E-02  0.1081295E+00
          4   -1    0    0  502    0 -0.00000000000E+00  0.00000000000E+00  0.16927471701E+03  0.16927471701E+03  0.00000000000E+00 0.  1.
         21   -1    0    0  503  502  0.00000000000E+00 -0.00000000000E+00 -0.65665883917E+03  0.65665883917E+03  0.00000000000E+00 0.  1.
         25    1    1    2    0    0 -0.12337690445E+02  0.26369086140E+03 -0.12188758483E+03  0.31649118839E+03  0.12500000000E+03 0.  0.
         21    1    1    2  503  501  0.64866009371E+02 -0.28734177924E+03 -0.28047161094E+03  0.40673974703E+03  0.00000000000E+00 0.  1.
          4    1    1    2  501    0 -0.52528318926E+02  0.23650917840E+02 -0.85024926388E+02  0.10270262076E+03  0.00000000000E+00 0.  1.
<mgrwt>
<rscale>  4 0.30802850E+03</rscale>
<asrwt>0</asrwt>
<pdfrwt beam="1">  1       21 0.10102444E+00 0.30802850E+03</pdfrwt>
<pdfrwt beam="2">  1        4 0.26042264E-01 0.30802850E+03</pdfrwt>
<totfact> 0.46089382E+02</totfact>
</mgrwt>
</event>
<event>
 5    0  0.4115852E+000  0.3233814E+03  0.7546771E-02  0.1074104E+00
          2   -1    0    0  502    0 -0.00000000000E+00  0.00000000000E+00  0.11103235758E+04  0.11103235758E+04  0.00000000000E+00 0. -1.
         21   -1    0    0  503  502  0.00000000000E+00 -0.00000000000E+00 -0.38837748239E+03  0.38837748239E+03  0.00000000000E+00 0. -1.
         25    1    1    2    0    0  0.27206240994E+03 -0.12219891393E+03  0.10184533377E+04  0.10685610560E+04  0.12500000000E+03 0.  0.
         21    1    1    2  503  501 -0.23203405370E+03  0.13626770639E+03 -0.25974809057E+03  0.37400235352E+03  0.00000000000E+00 0. -1.
          2    1    1    2  501    0 -0.40028356242E+02 -0.14068792454E+02 -0.36759153631E+02  0.56137648688E+02  0.00000000000E+00 0. -1.
<mgrwt>
<rscale>  4 0.32338140E+03</rscale>
<asrwt>0</asrwt>
<pdfrwt beam="1">  1       21 0.59750382E-01 0.32338140E+03</pdfrwt>
<pdfrwt beam="2">  1        2 0.17081901E+00 0.32338140E+03</pdfrwt>
<totfact> 0.70306200E+02</totfact>
</mgrwt>
</event>
<event>
 5    0  0.4115852E+000  0.2488943E+03  0.7546771E-02  0.1114006E+00
         21   -1    0    0  503  502  0.00000000000E+00  0.00000000000E+00  0.14503561108E+03  0.14503561108E+03  0.00000000000E+00 0.  1.
          4   -1    0    0  502    0 -0.00000000000E+00 -0.00000000000E+00 -0.54153285939E+03  0.54153285939E+03  0.00000000000E+00 0.  1.
         25    1    1    2    0    0  0.19298631085E+03  0.78578668029E+02 -0.33618222579E+03  0.41480334158E+03  0.12500000000E+03 0.  0.
         21    1    1    2  503  501  0.29145495557E+02 -0.92986124334E+01 -0.17274365137E+02  0.35133001513E+02  0.00000000000E+00 0. -1.
          4    1    1    2  501    0 -0.22213180641E+03 -0.69280055595E+02 -0.43040657390E+02  0.23663212738E+03  0.00000000000E+00 0.  1.
<mgrwt>
<rscale>  4 0.24889435E+03</rscale>
<asrwt>0</asrwt>
<pdfrwt beam="1">  1       21 0.22313171E-01 0.24889435E+03</pdfrwt>
<pdfrwt beam="2">  1        4 0.83312748E-01 0.24889435E+03</pdfrwt>
<totfact> 0.10267555E+03</totfact>
</mgrwt>
</event>
<event>
 5    0  0.4115852E+000  0.2388109E+03  0.7546771E-02  0.1120588E+00
         21   -1    0    0  501  502  0.00000000000E+00  0.00000000000E+00  0.77686693729E+03  0.77686693729E+03  0.00000000000E+00 0. -1.
         -2   -1    0    0    0  501 -0.00000000000E+00 -0.00000000000E+00 -0.73171681247E+02  0.73171681247E+02  0.00000000000E+00 0. -1.
         25    1    1    2    0    0  0.19364668634E+03  0.62502819006E+02  0.23712430868E+03  0.33653911999E+03  0.12500000000E+03 0.  0.
         21    1    1    2  503  502 -0.14005095412E+03 -0.15591407728E+02  0.27266911110E+03  0.30692964323E+03  0.00000000000E+00 0. -1.
         -2    1    1    2    0  503 -0.53595732223E+02 -0.46911411277E+02  0.19390183626E+03  0.20656985532E+03  0.00000000000E+00 0. -1.
<mgrwt>
<rscale>  4 0.23881089E+03</rscale>
<asrwt>0</asrwt>
<pdfrwt beam="1">  1       21 0.11951798E+00 0.23881089E+03</pdfrwt>
<pdfrwt beam="2">  1       -2 0.11257182E-01 0.23881089E+03</pdfrwt>
<totfact> 0.22667091E+03</totfact>
</mgrwt>
</event>
<event>
 5    0  0.4115852E+000  0.2513832E+03  0.7546771E-02  0.1112434E+00
         21   -1    0    0  503  502  0.00000000000E+00  0.00000000000E+00  0.72336820320E+02  0.72336820320E+02  0.00000000000E+00 0.  1.
          1   -1    0    0  502    0 -0.00000000000E+00 -0.00000000000E+00 -0.92508350952E+03  0.92508350952E+03  0.00000000000E+00 0.  1.
         25    1    1    2    0    0 -0.12955426519E+03  0.17146434758E+03 -0.39088060574E+03  0.46324613119E+03  0.12500000000E+03 0.  0.
         21    1    1    2  503  501  0.30305143322E+02  0.27229076016E+02 -0.38340532618E+02  0.55944800777E+02  0.00000000000E+00 0.  1.
          1    1    1    2  501    0  0.99249121867E+02 -0.19869342360E+03 -0.42352555084E+03  0.47822939787E+03  0.00000000000E+00 0.  1.
<mgrwt>
<rscale>  4 0.25138324E+03</rscale>
<asrwt>0</asrwt>
<pdfrwt beam="1">  1       21 0.11128742E-01 0.25138324E+03</pdfrwt>
<pdfrwt beam="2">  1        1 0.14232054E+00 0.25138324E+03</pdfrwt>
<totfact> 0.13556916E+04</totfact>
</mgrwt>
</event>
<event>
 5    0  0.4115852E+000  0.2812523E+03  0.7546771E-02  0.1095007E+00
         21   -1    0    0  503  502  0.00000000000E+00  0.00000000000E+00  0.54469016114E+03  0.54469016114E+03  0.00000000000E+00 0. -1.
          2   -1    0    0  502    0 -0.00000000000E+00 -0.00000000000E+00 -0.78707204014E+03  0.78707204014E+03  0.00000000000E+00 0. -1.
         25    1    1    2    0    0  0.25523815549E+03 -0.21381754031E+03 -0.30210827276E+02  0.35693437863E+03  0.12500000000E+03 0.  0.
         21    1    1    2  503  501 -0.15973572650E+03  0.17482650089E+03  0.33931301344E+03  0.41377908215E+03  0.00000000000E+00 0. -1.
          2    1    1    2  501    0 -0.95502428992E+02  0.38991039419E+02 -0.55148406516E+03  0.56104874051E+03  0.00000000000E+00 0. -1.
<mgrwt>
<rscale>  4 0.28125233E+03</rscale>
<asrwt>0</asrwt>
<pdfrwt beam="1">  1       21 0.83798487E-01 0.28125233E+03</pdfrwt>
<pdfrwt beam="2">  1        2 0.12108801E+00 0.28125233E+03</pdfrwt>
<totfact> 0.53999928E+02</totfact>
</mgrwt>
</event>
<event>
 5    0  0.4115852E+000  0.2708973E+03  0.7546771E-02  0.1100767E+00
          2   -1    0    0  502    0 -0.00000000000E+00  0.00000000000E+00  0.10814672606E+04  0.10814672606E+04  0.00000000000E+00 0. -1.
         21   -1    0    0  503  502  0.00000000000E+00 -0.00000000000E+00 -0.13210274311E+03  0.13210274311E+03  0.00000000000E+00 0.  1.
         25    1    1    2    0    0  0.87153822538E+02  0.19458456421E+03  0.28384132276E+03  0.37636397000E+03  0.12500000000E+03 0.  0.
         21    1    1    2  503  501  0.21504701300E+02  0.33824603474E+02 -0.58137161446E+02  0.70615051647E+02  0.00000000000E+00 0.  1.
          2    1    1    2  501    0 -0.10865852384E+03 -0.22840916768E+03  0.72366035622E+03  0.76659098210E+03  0.00000000000E+00 0. -1.
<mgrwt>
<rscale>  4 0.27089733E+03</rscale>
<asrwt>0</asrwt>
<pdfrwt beam="1">  1       21 0.20323500E-01 0.27089733E+03</pdfrwt>
<pdfrwt beam="2">  1        2 0.16637957E+00 0.27089733E+03</pdfrwt>
<totfact> 0.65212458E+03</totfact>
</mgrwt>
</event>
<event>
 5    0  0.4115852E+000  0.2541027E+03  0.7546771E-02  0.1110739E+00
          2   -1    0    0  502    0 -0.00000000000E+00  0.00000000000E+00  0.10035809564E+04  0.10035809564E+04  0.00000000000E+00 0. -1.
         21   -1    0    0  503  502  0.00000000000E+00 -0.00000000000E+00 -0.90842144666E+02  0.90842144666E+02  0.00000000000E+00 0. -1.
         25    1    1    2    0    0  0.11485925309E+03  0.16756565001E+03  0.53265151126E+03  0.58362104788E+03  0.12500000000E+03 0.  0.
         21    1    1    2  503  501  0.51675223091E+02  0.16927651121E+02 -0.26567149133E+01  0.54442007568E+02  0.00000000000E+00 0. -1.
          2    1    1    2  501    0 -0.16653447618E+03 -0.18449330113E+03  0.38274401538E+03  0.45636004561E+03  0.00000000000E+00 0. -1.
<mgrwt>
<rscale>  4 0.25410266E+03</rscale>
<asrwt>0</asrwt>
<pdfrwt beam="1">  1       21 0.13975715E-01 0.25410266E+03</pdfrwt>
<pdfrwt beam="2">  1        2 0.15439706E+00 0.25410266E+03</pdfrwt>
<totfact> 0.14599138E+04</totfact>
</mgrwt>
</event>
<event>
 5    0  0.4115852E+000  0.5902120E+03  0.7546771E-02  0.9925924E-01
          1   -1    0    0  502    0 -0.00000000000E+00  0.00000000000E+00  0.20550794027E+04  0.20550794027E+04  0.00000000000E+00 0. -1.
         21   -1    0    0  503  502  0.00000000000E+00 -0.00000000000E+00 -0.17742124681E+03  0.17742124681E+03  0.00000000000E+00 0. -1.
         25    1    1    2    0    0 -0.42315851485E+03 -0.39199757553E+03  0.68869893696E+03  0.90700410896E+03  0.12500000000E+03 0.  0.
         21    1    1    2  503  501  0.34251097306E+02  0.34062093203E+02  0.48205241027E+02  0.68243015191E+02  0.00000000000E+00 0. -1.
          1    1    1    2  501    0  0.38890741755E+03  0.35793548233E+03  0.11407539779E+04  0.12572535254E+04  0.00000000000E+00 0. -1.
<mgrwt>
<rscale>  4 0.59021202E+03</rscale>
<asrwt>0</asrwt>
<pdfrwt beam="1">  1       21 0.27295578E-01 0.59021202E+03</pdfrwt>
<pdfrwt beam="2">  1        1 0.31616604E+00 0.59021202E+03</pdfrwt>
<totfact> 0.38690747E+02</totfact>
</mgrwt>
</event>
<event>
 5    0  0.4115852E+000  0.2639239E+03  0.7546771E-02  0.1104808E+00
          2   -1    0    0  502    0 -0.00000000000E+00  0.00000000000E+00  0.56774180714E+03  0.56774180714E+03  0.00000000000E+00 0.  1.
         21   -1    0    0  503  502  0.00000000000E+00 -0.00000000000E+00 -0.18269308701E+03  0.18269308701E+03  0.00000000000E+00 0.  1.
         25    1    1    2    0    0 -0.19174874422E+02  0.22078221568E+03  0.35134763713E+03  0.43380021287E+03  0.12500000000E+03 0.  0.
         21    1    1    2  503  501 -0.25477952908E+02  0.40982708972E+02  0.14533217758E+02  0.50397648134E+02  0.00000000000E+00 0. -1.
          2    1    1    2  501    0  0.44652827330E+02 -0.26176492465E+03  0.19167865249E+02  0.26623703315E+03  0.00000000000E+00 0.  1.
<mgrwt>
<rscale>  4 0.26392391E+03</rscale>
<asrwt>0</asrwt>
<pdfrwt beam="1">  1       21 0.28106629E-01 0.26392391E+03</pdfrwt>
<pdfrwt beam="2">  1        2 0.87344893E-01 0.26392391E+03</pdfrwt>
<totfact> 0.80266899E+03</totfact>
</mgrwt>
</event>
<event>
 5    0  0.4115852E+000  0.3453905E+03  0.7546771E-02  0.1064523E+00
         21   -1    0    0  503  502  0.00000000000E+00  0.00000000000E+00  0.68876929067E+03  0.68876929067E+03  0.00000000000E+00 0.  1.
          4   -1    0    0  502    0 -0.00000000000E+00 -0.00000000000E+00 -0.90010565197E+03  0.90010565197E+03  0.00000000000E+00 0.  1.
         25    1    1    2    0    0 -0.58088746996E+01 -0.28694093888E+03  0.16307121701E+01  0.31304393406E+03  0.12500000000E+03 0.  0.
         21    1    1    2  503  501  0.19446112709E+02 -0.43015100466E+02  0.49362459234E+03  0.49587668661E+03  0.00000000000E+00 0.  1.
          4    1    1    2  501    0 -0.13637238009E+02  0.32995603935E+03 -0.70659166581E+03  0.77995432197E+03  0.00000000000E+00 0.  1.
<mgrwt>
<rscale>  4 0.34539054E+03</rscale>
<asrwt>0</asrwt>
<pdfrwt beam="1">  1       21 0.10596451E+00 0.34539054E+03</pdfrwt>
<pdfrwt beam="2">  1        4 0.13847779E+00 0.34539054E+03</pdfrwt>
<totfact> 0.10976068E+01</totfact>
</mgrwt>
</event>
<event>
 5    0  0.4115852E+000  0.2881856E+03  0.7546771E-02  0.1091300E+00
         21   -1    0    0  501  502  0.00000000000E+00  0.00000000000E+00  0.12291249016E+04  0.12291249016E+04  0.00000000000E+00 0. -1.
         -1   -1    0    0    0  501 -0.00000000000E+00 -0.00000000000E+00 -0.15086070698E+03  0.15086070698E+03  0.00000000000E+00 0. -1.
         25    1    1    2    0    0 -0.82887231432E+02  0.26836523273E+03  0.94199698858E+03  0.99089531120E+03  0.12500000000E+03 0.  0.
         21    1    1    2  503  502 -0.61438374123E+01 -0.27473982024E+02  0.12914116187E+03  0.13217415071E+03  0.00000000000E+00 0.  1.
         -1    1    1    2    0  503  0.89031068844E+02 -0.24089125071E+03  0.71260441322E+01  0.25691614662E+03  0.00000000000E+00 0. -1.
<mgrwt>
<rscale>  4 0.28818560E+03</rscale>
<asrwt>0</asrwt>
<pdfrwt beam="1">  1       21 0.18909613E+00 0.28818560E+03</pdfrwt>
<pdfrwt beam="2">  1       -1 0.23209340E-01 0.28818560E+03</pdfrwt>
<totfact> 0.21378938E+02</totfact>
</mgrwt>
</event>
<event>
 5    0  0.4115852E+000  0.2500968E+03  0.7546771E-02  0.1113244E+00
         21   -1    0    0  503  502  0.00000000000E+00  0.00000000000E+00  0.13583382327E+04  0.13583382327E+04  0.00000000000E+00 0. -1.
          2   -1    0    0  502    0 -0.00000000000E+00 -0.00000000000E+00 -0.91897482682E+02  0.91897482682E+02  0.00000000000E+00 0. -1.
         25    1    1    2    0    0 -0.20635793395E+03  0.14966821485E+03  0.56467325619E+03  0.63203248152E+03  0.12500000000E+03 0.  0.
         21    1    1    2  503  501  0.18540679365E+03 -0.80960026819E+02  0.71681027418E+03  0.74481351642E+03  0.00000000000E+00 0. -1.
          2    1    1    2  501    0  0.20951140295E+02 -0.68708188027E+02 -0.15042780371E+02  0.73389717420E+02  0.00000000000E+00 0. -1.
<mgrwt>
<rscale>  4 0.25009684E+03</rscale>
<asrwt>0</asrwt>
<pdfrwt beam="1">  1       21 0.20897510E+00 0.25009684E+03</pdfrwt>
<pdfrwt beam="2">  1        2 0.14138075E-01 0.25009684E+03</pdfrwt>
<totfact> 0.57769840E+02</totfact>
</mgrwt>
</event>
<event>
 5    0  0.4115852E+000  0.2400983E+03  0.7546771E-02  0.1119727E+00
          1   -1    0    0  502    0 -0.00000000000E+00  0.00000000000E+00  0.19242447165E+04  0.19242447165E+04  0.00000000000E+00 0. -1.
         21   -1    0    0  503  502  0.00000000000E+00 -0.00000000000E+00 -0.21060618650E+03  0.21060618650E+03  0.00000000000E+00 0. -1.
         25    1    1    2    0    0 -0.12239178314E+03 -0.22348480677E+03  0.14998217567E+04  0.15264388325E+04  0.12500000000E+03 0.  0.
         21    1    1    2  503  501  0.12400886354E+03  0.65643411616E+02 -0.15389176659E+03  0.20825448746E+03  0.00000000000E+00 0. -1.
          1    1    1    2  501    0 -0.16170804019E+01  0.15784139516E+03  0.36770853994E+03  0.40015758311E+03  0.00000000000E+00 0. -1.
<mgrwt>
<rscale>  4 0.24009828E+03</rscale>
<asrwt>0</asrwt>
<pdfrwt beam="1">  1       21 0.32400953E-01 0.24009828E+03</pdfrwt>
<pdfrwt beam="2">  1        1 0.29603764E+00 0.24009828E+03</pdfrwt>
<totfact> 0.38300597E+02</totfact>
</mgrwt>
</event>
<event>
 5    0  0.4115852E+000  0.4971073E+03  0.7546771E-02  0.1014896E+00
          1   -1    0    0  502    0 -0.00000000000E+00  0.00000000000E+00  0.42146812382E+03  0.42146812382E+03  0.00000000000E+00 0.  1.
         21   -1    0    0  503  502  0.00000000000E+00 -0.00000000000E+00 -0.11029781955E+04  0.11029781955E+04  0.00000000000E+00 0.  1.
         25    1    1    2    0    0  0.12885507684E+03  0.45772277285E+03 -0.86465959290E+03  0.99467330275E+03  0.12500000000E+03 0.  0.
         21    1    1    2  503  501 -0.31593242887E+02 -0.42170827846E+02 -0.20941827266E+02  0.56701603562E+02  0.00000000000E+00 0.  1.
          1    1    1    2  501    0 -0.97261833954E+02 -0.41555194500E+03  0.20409134844E+03  0.47307141305E+03  0.00000000000E+00 0.  1.
<mgrwt>
<rscale>  4 0.49574223E+03</rscale>
<asrwt>0</asrwt>
<pdfrwt beam="1">  1       21 0.16968895E+00 0.49710733E+03</pdfrwt>
<pdfrwt beam="2">  1        1 0.64841250E-01 0.49710733E+03</pdfrwt>
<totfact> 0.11421506E+02</totfact>
</mgrwt>
</event>
<event>
 5    0  0.4115852E+000  0.2227539E+03  0.7546771E-02  0.1131846E+00
         21   -1    0    0  503  502  0.00000000000E+00  0.00000000000E+00  0.23642560847E+03  0.23642560847E+03  0.00000000000E+00 0. -1.
          2   -1    0    0  502    0 -0.00000000000E+00 -0.00000000000E+00 -0.33977500724E+03  0.33977500724E+03  0.00000000000E+00 0. -1.
         25    1    1    2    0    0  0.39656956102E+02 -0.22858741504E+03 -0.11556133041E+03  0.28775736579E+03  0.12500000000E+03 0.  0.
         21    1    1    2  503  501  0.23565844307E+02  0.17122020961E+03  0.68796046424E+02  0.18602313082E+03  0.00000000000E+00 0. -1.
          2    1    1    2  501    0 -0.63222800408E+02  0.57367205431E+02 -0.56584114789E+02  0.10242011910E+03  0.00000000000E+00 0. -1.
<mgrwt>
<rscale>  4 0.22275391E+03</rscale>
<asrwt>0</asrwt>
<pdfrwt beam="1">  1       21 0.36373171E-01 0.22275391E+03</pdfrwt>
<pdfrwt beam="2">  1        2 0.52273078E-01 0.22275391E+03</pdfrwt>
<totfact> 0.85877185E+03</totfact>
</mgrwt>
</event>
<event>
 5    0  0.4115852E+000  0.2394039E+03  0.7546771E-02  0.1120191E+00
          1   -1    0    0  502    0 -0.00000000000E+00  0.00000000000E+00  0.95809069722E+03  0.95809069722E+03  0.00000000000E+00 0. -1.
         21   -1    0    0  503  502  0.00000000000E+00 -0.00000000000E+00 -0.20525236043E+03  0.20525236043E+03  0.00000000000E+00 0. -1.
         25    1    1    2    0    0 -0.21522269808E+03  0.14898576526E+03 -0.95893797974E+01  0.29023184564E+03  0.12500000000E+03 0.  0.
         21    1    1    2  503  501  0.12470996419E+03 -0.93290171739E+02  0.66886521616E+02  0.16949760495E+03  0.00000000000E+00 0. -1.
          1    1    1    2  501    0  0.90512733888E+02 -0.55695593519E+02  0.69554119497E+03  0.70361360706E+03  0.00000000000E+00 0. -1.
<mgrwt>
<rscale>  4 0.23940385E+03</rscale>
<asrwt>0</asrwt>
<pdfrwt beam="1">  1       21 0.31577287E-01 0.23940385E+03</pdfrwt>
<pdfrwt beam="2">  1        1 0.14739857E+00 0.23940385E+03</pdfrwt>
<totfact> 0.18230103E+03</totfact>
</mgrwt>
</event>
<event>
 5    0  0.4115852E+000  0.2657346E+03  0.7546771E-02  0.1103746E+00
         21   -1    0    0  503  502  0.00000000000E+00  0.00000000000E+00  0.76558640313E+03  0.76558640313E+03  0.00000000000E+00 0. -1.
          2   -1    0    0  502    0 -0.00000000000E+00 -0.00000000000E+00 -0.74347434408E+03  0.74347434408E+03  0.00000000000E+00 0. -1.
         25    1    1    2    0    0  0.14368702376E+03  0.18398769489E+03  0.70446072237E+03  0.75258709930E+03  0.12500000000E+03 0.  0.
         21    1    1    2  503  501  0.21275501558E+02  0.23470331875E+02 -0.91445804985E+01  0.32971605927E+02  0.00000000000E+00 0. -1.
          2    1    1    2  501    0 -0.16496252531E+03 -0.20745802677E+03 -0.67320408283E+03  0.72350204199E+03  0.00000000000E+00 0. -1.
<mgrwt>
<rscale>  4 0.26573460E+03</rscale>
<asrwt>0</asrwt>
<pdfrwt beam="1">  1       21 0.11778252E+00 0.26573460E+03</pdfrwt>
<pdfrwt beam="2">  1        2 0.11438067E+00 0.26573460E+03</pdfrwt>
<totfact> 0.25904456E+02</totfact>
</mgrwt>
</event>
<event>
 5    0  0.4115852E+000  0.3036229E+03  0.7546771E-02  0.1083443E+00
         21   -1    0    0  503  502  0.00000000000E+00  0.00000000000E+00  0.76151838356E+03  0.76151838356E+03  0.00000000000E+00 0.  1.
          1   -1    0    0  502    0 -0.00000000000E+00 -0.00000000000E+00 -0.37227122498E+04  0.37227122498E+04  0.00000000000E+00 0. -1.
         25    1    1    2    0    0  0.19650577708E+03  0.14515504126E+03  0.59293129503E+03  0.65335826853E+03  0.12500000000E+03 0.  0.
         21    1    1    2  503  501  0.12451342007E+02  0.36646995113E+02  0.13036351617E+03  0.13598781018E+03  0.00000000000E+00 0.  1.
          1    1    1    2  501    0 -0.20895711909E+03 -0.18180203637E+03 -0.36844886774E+04  0.36948845546E+04  0.00000000000E+00 0. -1.
<mgrwt>
<rscale>  4 0.30362293E+03</rscale>
<asrwt>0</asrwt>
<pdfrwt beam="1">  1       21 0.11715667E+00 0.30362293E+03</pdfrwt>
<pdfrwt beam="2">  1        1 0.57272496E+00 0.30362293E+03</pdfrwt>
<totfact> 0.12112486E+00</totfact>
</mgrwt>
</event>
<event>
 5    0  0.4115852E+000  0.2778432E+03  0.7546771E-02  0.1096873E+00
         -1   -1    0    0    0  501 -0.00000000000E+00  0.00000000000E+00  0.10345306831E+04  0.10345306831E+04  0.00000000000E+00 0. -1.
         21   -1    0    0  501  502  0.00000000000E+00 -0.00000000000E+00 -0.28459410446E+03  0.28459410446E+03  0.00000000000E+00 0.  1.
         25    1    1    2    0    0  0.31159980459E+02  0.22473584456E+03 -0.15216247006E+03  0.30042563390E+03  0.12500000000E+03 0.  0.
         21    1    1    2  503  502  0.19750473195E+02  0.19722532520E+02 -0.37352294151E+02  0.46628889744E+02  0.00000000000E+00 0.  1.
         -1    1    1    2    0  503 -0.50910453654E+02 -0.24445837708E+03  0.93945134280E+03  0.97207026388E+03  0.00000000000E+00 0. -1.
<mgrwt>
<rscale>  4 0.27784322E+03</rscale>
<asrwt>0</asrwt>
<pdfrwt beam="1">  1       21 0.43783709E-01 0.27784322E+03</pdfrwt>
<pdfrwt beam="2">  1       -1 0.15915856E+00 0.27784322E+03</pdfrwt>
<totfact> 0.14652664E+02</totfact>
</mgrwt>
</event>
<event>
 5    0  0.4115852E+000  0.2082503E+03  0.7546771E-02  0.1142959E+00
         21   -1    0    0  503  502  0.00000000000E+00  0.00000000000E+00  0.64664735165E+02  0.64664735165E+02  0.00000000000E+00 0. -1.
          2   -1    0    0  502    0 -0.00000000000E+00 -0.00000000000E+00 -0.26873889036E+04  0.26873889036E+04  0.00000000000E+00 0. -1.
         25    1    1    2    0    0 -0.18961261217E+03  0.64977092453E+02 -0.66577189830E+03  0.70643625742E+03  0.12500000000E+03 0.  0.
         21    1    1    2  503  501  0.39119099613E+02 -0.73515708982E+01  0.31429264065E+02  0.50716350311E+02  0.00000000000E+00 0. -1.
          2    1    1    2  501    0  0.15049351256E+03 -0.57625521555E+02 -0.19883815342E+04  0.19949010311E+04  0.00000000000E+00 0. -1.
<mgrwt>
<rscale>  4 0.20825034E+03</rscale>
<asrwt>0</asrwt>
<pdfrwt beam="1">  1       21 0.99484192E-02 0.20825034E+03</pdfrwt>
<pdfrwt beam="2">  1        2 0.41344451E+00 0.20825034E+03</pdfrwt>
<totfact> 0.33580397E+03</totfact>
</mgrwt>
</event>
<event>
 5    0  0.4115852E+000  0.3936025E+03  0.7546771E-02  0.1046018E+00
         21   -1    0    0  501  502  0.00000000000E+00  0.00000000000E+00  0.18761340807E+03  0.18761340807E+03  0.00000000000E+00 0. -1.
         -2   -1    0    0    0  501 -0.00000000000E+00 -0.00000000000E+00 -0.12525237060E+04  0.12525237060E+04  0.00000000000E+00 0. -1.
         25    1    1    2    0    0 -0.39784729725E+03  0.10109741572E+03 -0.43983080154E+03  0.61447481102E+03  0.12500000000E+03 0.  0.
         21    1    1    2  503  502  0.49617918563E+02 -0.34464619027E+02  0.39669623320E+02  0.72273278751E+02  0.00000000000E+00 0. -1.
         -2    1    1    2    0  503  0.34822937869E+03 -0.66632796693E+02 -0.66474911976E+03  0.75338902434E+03  0.00000000000E+00 0. -1.
<mgrwt>
<rscale>  4 0.39360245E+03</rscale>
<asrwt>0</asrwt>
<pdfrwt beam="1">  1       21 0.28863602E-01 0.39360245E+03</pdfrwt>
<pdfrwt beam="2">  1       -2 0.19269595E+00 0.39360245E+03</pdfrwt>
<totfact> 0.14247354E+02</totfact>
</mgrwt>
</event>
<event>
 5    0  0.4115852E+000  0.2443568E+03  0.7546771E-02  0.1116924E+00
          1   -1    0    0  502    0 -0.00000000000E+00  0.00000000000E+00  0.26934103869E+04  0.26934103869E+04  0.00000000000E+00 0. -1.
         21   -1    0    0  503  502  0.00000000000E+00 -0.00000000000E+00 -0.73514708967E+02  0.73514708967E+02  0.00000000000E+00 0.  1.
         25    1    1    2    0    0 -0.22192137618E+03 -0.52396068653E+02  0.22937769271E+04  0.23084696308E+04  0.12500000000E+03 0.  0.
         21    1    1    2  503  501  0.20813396005E+03  0.16861218782E+02  0.10435420167E+03  0.23343916858E+03  0.00000000000E+00 0.  1.
          1    1    1    2  501    0  0.13787416133E+02  0.35534849871E+02  0.22176454919E+03  0.22501629647E+03  0.00000000000E+00 0. -1.
<mgrwt>
<rscale>  4 0.24435675E+03</rscale>
<asrwt>0</asrwt>
<pdfrwt beam="1">  1       21 0.11309957E-01 0.24435675E+03</pdfrwt>
<pdfrwt beam="2">  1        1 0.41437075E+00 0.24435675E+03</pdfrwt>
<totfact> 0.85854098E+02</totfact>
</mgrwt>
</event>
<event>
 5    0  0.4115852E+000  0.2125277E+03  0.7546771E-02  0.1139580E+00
          2   -1    0    0  502    0 -0.00000000000E+00  0.00000000000E+00  0.12048564766E+04  0.12048564766E+04  0.00000000000E+00 0.  1.
         21   -1    0    0  503  502  0.00000000000E+00 -0.00000000000E+00 -0.59602040775E+03  0.59602040775E+03  0.00000000000E+00 0. -1.
         25    1    1    2    0    0  0.18017238691E+03  0.96360980354E+02  0.90607696721E+03  0.93720221833E+03  0.12500000000E+03 0.  0.
         21    1    1    2  503  501 -0.16981730431E+03 -0.24649893705E+02 -0.56281567547E+03  0.58839359162E+03  0.00000000000E+00 0. -1.
          2    1    1    2  501    0 -0.10355082595E+02 -0.71711086649E+02  0.26557477715E+03  0.27528107444E+03  0.00000000000E+00 0.  1.
<mgrwt>
<rscale>  4 0.21252773E+03</rscale>
<asrwt>0</asrwt>
<pdfrwt beam="1">  1       21 0.91695448E-01 0.21252773E+03</pdfrwt>
<pdfrwt beam="2">  1        2 0.18536253E+00 0.21252773E+03</pdfrwt>
<totfact> 0.25136724E+02</totfact>
</mgrwt>
</event>
<event>
 5    0  0.4115852E+000  0.3132644E+03  0.7546771E-02  0.1078792E+00
         21   -1    0    0  503  502  0.00000000000E+00  0.00000000000E+00  0.19049708996E+03  0.19049708996E+03  0.00000000000E+00 0.  1.
          1   -1    0    0  502    0 -0.00000000000E+00 -0.00000000000E+00 -0.13444511345E+04  0.13444511345E+04  0.00000000000E+00 0.  1.
         25    1    1    2    0    0 -0.17564022662E+03 -0.23363139305E+03 -0.29494726876E+03  0.43364963781E+03  0.12500000000E+03 0.  0.
         21    1    1    2  503  501 -0.25401258516E+02  0.29762113669E+02  0.96332322881E+02  0.10397559221E+03  0.00000000000E+00 0.  1.
          1    1    1    2  501    0  0.20104148514E+03  0.20386927938E+03 -0.95533909868E+03  0.99732299446E+03  0.00000000000E+00 0.  1.
<mgrwt>
<rscale>  4 0.31326435E+03</rscale>
<asrwt>0</asrwt>
<pdfrwt beam="1">  1       21 0.29307245E-01 0.31326435E+03</pdfrwt>
<pdfrwt beam="2">  1        1 0.20683863E+00 0.31326435E+03</pdfrwt>
<totfact> 0.10859249E+03</totfact>
</mgrwt>
</event>
<event>
 5    0  0.4115852E+000  0.4807038E+03  0.7546771E-02  0.1018942E+00
         21   -1    0    0  503  502  0.00000000000E+00  0.00000000000E+00  0.61366994689E+03  0.61366994689E+03  0.00000000000E+00 0.  1.
          1   -1    0    0  502    0 -0.00000000000E+00 -0.00000000000E+00 -0.19137834033E+04  0.19137834033E+04  0.00000000000E+00 0.  1.
         25    1    1    2    0    0 -0.44530326994E+03 -0.14310247262E+02  0.47496819680E+03  0.66311354485E+03  0.12500000000E+03 0.  0.
         21    1    1    2  503  501 -0.19829763692E+02  0.10203695685E+02  0.63451191043E+01  0.23186105110E+02  0.00000000000E+00 0. -1.
          1    1    1    2  501    0  0.46513303363E+03  0.41065515769E+01 -0.17814267723E+04  0.18411537002E+04  0.00000000000E+00 0.  1.
<mgrwt>
<rscale>  4 0.48070385E+03</rscale>
<asrwt>0</asrwt>
<pdfrwt beam="1">  1       21 0.94410761E-01 0.48070385E+03</pdfrwt>
<pdfrwt beam="2">  1        1 0.29442822E+00 0.48070385E+03</pdfrwt>
<totfact> 0.34227042E+01</totfact>
</mgrwt>
</event>
<event>
 5    0  0.4115852E+000  0.3034342E+03  0.7546771E-02  0.1083536E+00
         21   -1    0    0  503  502  0.00000000000E+00  0.00000000000E+00  0.13316882771E+03  0.13316882771E+03  0.00000000000E+00 0.  1.
          1   -1    0    0  502    0 -0.00000000000E+00 -0.00000000000E+00 -0.12953708501E+04  0.12953708501E+04  0.00000000000E+00 0. -1.
         25    1    1    2    0    0 -0.22835878566E+03  0.90097387413E+02 -0.10077699988E+03  0.29333645855E+03  0.12500000000E+03 0.  0.
         21    1    1    2  503  501 -0.34439201612E+02  0.13384278387E+02 -0.10901698895E+00  0.36948740172E+02  0.00000000000E+00 0. -1.
          1    1    1    2  501    0  0.26279798727E+03 -0.10348166580E+03 -0.10613160055E+04  0.10982544791E+04  0.00000000000E+00 0. -1.
<mgrwt>
<rscale>  4 0.30343421E+03</rscale>
<asrwt>0</asrwt>
<pdfrwt beam="1">  1       21 0.20487512E-01 0.30343421E+03</pdfrwt>
<pdfrwt beam="2">  1        1 0.19928782E+00 0.30343421E+03</pdfrwt>
<totfact> 0.23472925E+03</totfact>
</mgrwt>
</event>
<event>
 5    0  0.4115852E+000  0.2812166E+03  0.7546771E-02  0.1095026E+00
         21   -1    0    0  503  502  0.00000000000E+00  0.00000000000E+00  0.13334288583E+03  0.13334288583E+03  0.00000000000E+00 0.  1.
          2   -1    0    0  502    0 -0.00000000000E+00 -0.00000000000E+00 -0.90423424934E+03  0.90423424934E+03  0.00000000000E+00 0.  1.
         25    1    1    2    0    0  0.14227660111E+03 -0.26869707745E+03 -0.26165017438E+03  0.42015064490E+03  0.12500000000E+03 0.  0.
         21    1    1    2  503  501 -0.60487164013E+02  0.48735103995E+02 -0.29002163513E+02  0.82915214889E+02  0.00000000000E+00 0.  1.
          2    1    1    2  501    0 -0.81789437094E+02  0.21996197346E+03 -0.48023902561E+03  0.53451127538E+03  0.00000000000E+00 0.  1.
<mgrwt>
<rscale>  4 0.28121664E+03</rscale>
<asrwt>0</asrwt>
<pdfrwt beam="1">  1       21 0.20514290E-01 0.28121664E+03</pdfrwt>
<pdfrwt beam="2">  1        2 0.13911296E+00 0.28121664E+03</pdfrwt>
<totfact> 0.82255334E+03</totfact>
</mgrwt>
</event>
<event>
 5    0  0.4115852E+000  0.3418236E+03  0.7546771E-02  0.1066022E+00
         21   -1    0    0  503  502  0.00000000000E+00  0.00000000000E+00  0.70797604300E+03  0.70797604300E+03  0.00000000000E+00 0.  1.
          1   -1    0    0  502    0 -0.00000000000E+00 -0.00000000000E+00 -0.36571861505E+03  0.36571861505E+03  0.00000000000E+00 0.  1.
         25    1    1    2    0    0 -0.79447935781E+02 -0.28221441407E+03 -0.92343055132E+02  0.33182704808E+03  0.12500000000E+03 0.  0.
         21    1    1    2  503  501  0.10583149060E+03  0.30569824255E+03  0.54067640483E+03  0.63006562725E+03  0.00000000000E+00 0.  1.
          1    1    1    2  501    0 -0.26383554821E+02 -0.23483828481E+02 -0.10607592175E+03  0.11180198272E+03  0.00000000000E+00 0.  1.
<mgrwt>
<rscale>  4 0.34182362E+03</rscale>
<asrwt>0</asrwt>
<pdfrwt beam="1">  1       21 0.10891939E+00 0.34182362E+03</pdfrwt>
<pdfrwt beam="2">  1        1 0.56264403E-01 0.34182362E+03</pdfrwt>
<totfact> 0.46565262E+02</totfact>
</mgrwt>
</event>
<event>
 5    0  0.4115852E+000  0.2042798E+03  0.7546771E-02  0.1146178E+00
         21   -1    0    0  501  502  0.00000000000E+00  0.00000000000E+00  0.10709650822E+03  0.10709650822E+03  0.00000000000E+00 0.  1.
         -1   -1    0    0    0  501 -0.00000000000E+00 -0.00000000000E+00 -0.71272650144E+03  0.71272650144E+03  0.00000000000E+00 0.  1.
         25    1    1    2    0    0  0.52075319261E+02  0.20821300367E+03 -0.35272745249E+03  0.43140021965E+03  0.12500000000E+03 0.  0.
         21    1    1    2  503  502 -0.69967103924E+02 -0.68361169724E+02  0.11985829985E+01  0.97826794687E+02  0.00000000000E+00 0.  1.
         -1    1    1    2    0  503  0.17891784663E+02 -0.13985183395E+03 -0.25410112373E+03  0.29059599532E+03  0.00000000000E+00 0.  1.
<mgrwt>
<rscale>  4 0.20427979E+03</rscale>
<asrwt>0</asrwt>
<pdfrwt beam="1">  1       21 0.16476386E-01 0.20427979E+03</pdfrwt>
<pdfrwt beam="2">  1       -1 0.10965023E+00 0.20427979E+03</pdfrwt>
<totfact> 0.25311403E+03</totfact>
</mgrwt>
</event>
<event>
 5    0  0.4115852E+000  0.1893540E+03  0.7546771E-02  0.1159045E+00
          1   -1    0    0  502    0 -0.00000000000E+00  0.00000000000E+00  0.83699405839E+03  0.83699405839E+03  0.00000000000E+00 0.  1.
         21   -1    0    0  503  502  0.00000000000E+00 -0.00000000000E+00 -0.34882599375E+03  0.34882599375E+03  0.00000000000E+00 0.  1.
         25    1    1    2    0    0 -0.23677680859E+03  0.65991588187E+02  0.24898276620E+03  0.37153137777E+03  0.12500000000E+03 0.  0.
         21    1    1    2  503  501  0.11386124003E+03 -0.28018510257E+02 -0.26721101709E+03  0.29180669381E+03  0.00000000000E+00 0.  1.
          1    1    1    2  501    0  0.12291556856E+03 -0.37973077930E+02  0.50639631552E+03  0.52248198057E+03  0.00000000000E+00 0.  1.
<mgrwt>
<rscale>  4 0.18935400E+03</rscale>
<asrwt>0</asrwt>
<pdfrwt beam="1">  1       21 0.53665538E-01 0.18935400E+03</pdfrwt>
<pdfrwt beam="2">  1        1 0.12876832E+00 0.18935400E+03</pdfrwt>
<totfact> 0.79059661E+02</totfact>
</mgrwt>
</event>
<event>
 5    0  0.4115852E+000  0.2878652E+03  0.7546771E-02  0.1091469E+00
         21   -1    0    0  503  502  0.00000000000E+00  0.00000000000E+00  0.10373932943E+03  0.10373932943E+03  0.00000000000E+00 0.  1.
          2   -1    0    0  502    0 -0.00000000000E+00 -0.00000000000E+00 -0.11842384420E+04  0.11842384420E+04  0.00000000000E+00 0. -1.
         25    1    1    2    0    0 -0.17104637770E+03 -0.16010172424E+03 -0.42721795043E+03  0.50302047930E+03  0.12500000000E+03 0.  0.
         21    1    1    2  503  501 -0.36855230606E+02 -0.23419543525E+02  0.26298106311E+02  0.50974242883E+02  0.00000000000E+00 0.  1.
          2    1    1    2  501    0  0.20790160831E+03  0.18352126776E+03 -0.67957926843E+03  0.73398304921E+03  0.00000000000E+00 0. -1.
<mgrwt>
<rscale>  4 0.28786521E+03</rscale>
<asrwt>0</asrwt>
<pdfrwt beam="1">  1       21 0.15959897E-01 0.28786521E+03</pdfrwt>
<pdfrwt beam="2">  1        2 0.18219053E+00 0.28786521E+03</pdfrwt>
<totfact> 0.88774162E+03</totfact>
</mgrwt>
</event>
<event>
 5    0  0.4115852E+000  0.3033473E+03  0.7546771E-02  0.1083579E+00
         21   -1    0    0  503  502  0.00000000000E+00  0.00000000000E+00  0.80798423247E+02  0.80798423247E+02  0.00000000000E+00 0.  1.
          2   -1    0    0  502    0 -0.00000000000E+00 -0.00000000000E+00 -0.29871174742E+04  0.29871174742E+04  0.00000000000E+00 0.  1.
         25    1    1    2    0    0  0.96630368738E+02 -0.23701628348E+03 -0.24640532866E+03  0.37663607473E+03  0.12500000000E+03 0.  0.
         21    1    1    2  503  501  0.38516786883E+01 -0.22930718853E+02 -0.77437995530E+01  0.24507544295E+02  0.00000000000E+00 0.  1.
          2    1    1    2  501    0 -0.10048204743E+03  0.25994700233E+03 -0.26521699227E+04  0.26667722784E+04  0.00000000000E+00 0.  1.
<mgrwt>
<rscale>  4 0.30334730E+03</rscale>
<asrwt>0</asrwt>
<pdfrwt beam="1">  1       21 0.12430525E-01 0.30334730E+03</pdfrwt>
<pdfrwt beam="2">  1        2 0.45955659E+00 0.30334730E+03</pdfrwt>
<totfact> 0.14411921E+03</totfact>
</mgrwt>
</event>
<event>
 5    0  0.4115852E+000  0.2622799E+03  0.7546771E-02  0.1105781E+00
          2   -1    0    0  502    0 -0.00000000000E+00  0.00000000000E+00  0.18929636509E+04  0.18929636509E+04  0.00000000000E+00 0. -1.
         21   -1    0    0  503  502  0.00000000000E+00 -0.00000000000E+00 -0.12721783740E+03  0.12721783740E+03  0.00000000000E+00 0. -1.
         25    1    1    2    0    0 -0.19604602085E+03  0.68380650029E+02  0.13489016713E+02  0.24272805599E+03  0.12500000000E+03 0.  0.
         21    1    1    2  503  501 -0.24952787659E+02  0.26658696771E+01  0.27836274781E+02  0.37478082485E+02  0.00000000000E+00 0. -1.
          2    1    1    2  501    0  0.22099880851E+03 -0.71046519706E+02  0.17244205220E+04  0.17399753498E+04  0.00000000000E+00 0. -1.
<mgrwt>
<rscale>  4 0.26227989E+03</rscale>
<asrwt>0</asrwt>
<pdfrwt beam="1">  1       21 0.19571976E-01 0.26227989E+03</pdfrwt>
<pdfrwt beam="2">  1        2 0.29122516E+00 0.26227989E+03</pdfrwt>
<totfact> 0.25405681E+03</totfact>
</mgrwt>
</event>
<event>
 5    0  0.4115852E+000  0.3087836E+03  0.7546771E-02  0.1080930E+00
          2   -1    0    0  502    0 -0.00000000000E+00  0.00000000000E+00  0.84681826622E+03  0.84681826622E+03  0.00000000000E+00 0. -1.
         21   -1    0    0  503  502  0.00000000000E+00 -0.00000000000E+00 -0.87690584715E+03  0.87690584715E+03  0.00000000000E+00 0. -1.
         25    1    1    2    0    0  0.93873297087E+02  0.21484196020E+03 -0.58611399652E+03  0.64352457660E+03  0.12500000000E+03 0.  0.
         21    1    1    2  503  501  0.39715703168E+02  0.36128572095E+02 -0.23425674559E+03  0.24033067564E+03  0.00000000000E+00 0. -1.
          2    1    1    2  501    0 -0.13358900026E+03 -0.25097053229E+03  0.79028316118E+03  0.83986886114E+03  0.00000000000E+00 0. -1.
<mgrwt>
<rscale>  4 0.30878361E+03</rscale>
<asrwt>0</asrwt>
<pdfrwt beam="1">  1       21 0.13490859E+00 0.30878361E+03</pdfrwt>
<pdfrwt beam="2">  1        2 0.13027973E+00 0.30878361E+03</pdfrwt>
<totfact> 0.15177051E+02</totfact>
</mgrwt>
</event>
<event>
 5    0  0.4115852E+000  0.2537357E+03  0.7546771E-02  0.1110966E+00
         21   -1    0    0  503  502  0.00000000000E+00  0.00000000000E+00  0.55624405796E+02  0.55624405796E+02  0.00000000000E+00 0. -1.
          2   -1    0    0  502    0 -0.00000000000E+00 -0.00000000000E+00 -0.16672297338E+04  0.16672297338E+04  0.00000000000E+00 0. -1.
         25    1    1    2    0    0 -0.20397465099E+03 -0.40239359480E+02 -0.42596499102E+03  0.49019999783E+03  0.12500000000E+03 0.  0.
         21    1    1    2  503  501 -0.22180006892E+02  0.89399084740E+02 -0.19975960318E+03  0.21997283496E+03  0.00000000000E+00 0. -1.
          2    1    1    2  501    0  0.22615465788E+03 -0.49159725260E+02 -0.98588073378E+03  0.10126813068E+04  0.00000000000E+00 0. -1.
<mgrwt>
<rscale>  4 0.25373573E+03</rscale>
<asrwt>0</asrwt>
<pdfrwt beam="1">  1       21 0.85575990E-02 0.25373573E+03</pdfrwt>
<pdfrwt beam="2">  1        2 0.25649694E+00 0.25373573E+03</pdfrwt>
<totfact> 0.15013097E+04</totfact>
</mgrwt>
</event>
<event>
 5    0  0.4115852E+000  0.3069844E+03  0.7546771E-02  0.1081800E+00
         -3   -1    0    0    0  501 -0.00000000000E+00  0.00000000000E+00  0.22155071712E+03  0.22155071712E+03  0.00000000000E+00 0. -1.
         21   -1    0    0  501  502  0.00000000000E+00 -0.00000000000E+00 -0.87084425081E+03  0.87084425081E+03  0.00000000000E+00 0.  1.
         25    1    1    2    0    0  0.20235604269E+03 -0.16846368233E+03 -0.11907775722E+03  0.31485312852E+03  0.12500000000E+03 0.  0.
         21    1    1    2  503  502  0.42718705443E+02  0.42327304598E+01 -0.47557692889E+03  0.47751043873E+03  0.00000000000E+00 0.  1.
         -3    1    1    2    0  503 -0.24507474813E+03  0.16423095187E+03 -0.54638847572E+02  0.30003140067E+03  0.00000000000E+00 0. -1.
<mgrwt>
<rscale>  4 0.30698442E+03</rscale>
<asrwt>0</asrwt>
<pdfrwt beam="1">  1       21 0.13397604E+00 0.30698442E+03</pdfrwt>
<pdfrwt beam="2">  1       -3 0.34084725E-01 0.30698442E+03</pdfrwt>
<totfact> 0.16060933E+02</totfact>
</mgrwt>
</event>
<event>
 5    0  0.4115852E+000  0.2323442E+03  0.7546771E-02  0.1125001E+00
         21   -1    0    0  503  502  0.00000000000E+00  0.00000000000E+00  0.10455647050E+04  0.10455647050E+04  0.00000000000E+00 0. -1.
          2   -1    0    0  502    0 -0.00000000000E+00 -0.00000000000E+00 -0.32028929836E+04  0.32028929836E+04  0.00000000000E+00 0.  1.
         25    1    1    2    0    0  0.10236530994E+03 -0.21341358577E+03  0.74039826760E+03  0.78729829793E+03  0.12500000000E+03 0.  0.
         21    1    1    2  503  501  0.20478784529E+02  0.61049836134E+02  0.27498148180E+03  0.28242039311E+03  0.00000000000E+00 0. -1.
          2    1    1    2  501    0 -0.12284409447E+03  0.15236374964E+03 -0.31727080280E+04  0.31787389975E+04  0.00000000000E+00 0.  1.
<mgrwt>
<rscale>  4 0.23234418E+03</rscale>
<asrwt>0</asrwt>
<pdfrwt beam="1">  1       21 0.16085611E+00 0.23234418E+03</pdfrwt>
<pdfrwt beam="2">  1        2 0.49275276E+00 0.23234418E+03</pdfrwt>
<totfact> 0.48683300E+00</totfact>
</mgrwt>
</event>
<event>
 5    0  0.4115852E+000  0.2620906E+03  0.7546771E-02  0.1105894E+00
         -1   -1    0    0    0  501 -0.00000000000E+00  0.00000000000E+00  0.28680009084E+03  0.28680009084E+03  0.00000000000E+00 0. -1.
         21   -1    0    0  501  502  0.00000000000E+00 -0.00000000000E+00 -0.95123593647E+03  0.95123593647E+03  0.00000000000E+00 0. -1.
         25    1    1    2    0    0 -0.16544857202E+03 -0.19694311725E+03  0.14995297726E+03  0.32290976573E+03  0.12500000000E+03 0.  0.
         21    1    1    2  503  502  0.14828484443E+03  0.17402601060E+03 -0.84371282390E+03  0.87414230916E+03  0.00000000000E+00 0. -1.
         -1    1    1    2    0  503  0.17163727584E+02  0.22917106646E+02  0.29324001000E+02  0.40983952423E+02  0.00000000000E+00 0. -1.
<mgrwt>
<rscale>  4 0.26209056E+03</rscale>
<asrwt>0</asrwt>
<pdfrwt beam="1">  1       21 0.14634399E+00 0.26209056E+03</pdfrwt>
<pdfrwt beam="2">  1       -1 0.44123091E-01 0.26209056E+03</pdfrwt>
<totfact> 0.14562105E+02</totfact>
</mgrwt>
</event>
<event>
 5    0  0.4115852E+000  0.2818934E+03  0.7546771E-02  0.1094659E+00
          2   -1    0    0  502    0 -0.00000000000E+00  0.00000000000E+00  0.85452534028E+03  0.85452534028E+03  0.00000000000E+00 0.  1.
         21   -1    0    0  503  502  0.00000000000E+00 -0.00000000000E+00 -0.30366027136E+03  0.30366027136E+03  0.00000000000E+00 0. -1.
         25    1    1    2    0    0  0.21690558851E+03 -0.83561841635E+02 -0.17202815471E+03  0.31503857179E+03  0.12500000000E+03 0.  0.
         21    1    1    2  503  501  0.18769667724E+02 -0.12203359591E+02 -0.36199124056E+02  0.42562882823E+02  0.00000000000E+00 0. -1.
          2    1    1    2  501    0 -0.23567525623E+03  0.95765201225E+02  0.75909234769E+03  0.80058415703E+03  0.00000000000E+00 0.  1.
<mgrwt>
<rscale>  4 0.28189344E+03</rscale>
<asrwt>0</asrwt>
<pdfrwt beam="1">  1       21 0.46716965E-01 0.28189344E+03</pdfrwt>
<pdfrwt beam="2">  1        2 0.13146544E+00 0.28189344E+03</pdfrwt>
<totfact> 0.17415373E+03</totfact>
</mgrwt>
</event>
<event>
 5    0  0.4115852E+000  0.3341489E+03  0.7546771E-02  0.1069316E+00
          1   -1    0    0  502    0 -0.00000000000E+00  0.00000000000E+00  0.57169842101E+03  0.57169842101E+03  0.00000000000E+00 0. -1.
         21   -1    0    0  503  502  0.00000000000E+00 -0.00000000000E+00 -0.56749952203E+03  0.56749952203E+03  0.00000000000E+00 0.  1.
         25    1    1    2    0    0 -0.27850704346E+03 -0.71612660176E+02 -0.16706987180E+03  0.35529127264E+03  0.12500000000E+03 0.  0.
         21    1    1    2  503  501 -0.30906679522E+02  0.15564177975E+02 -0.25325528362E+03  0.25560849977E+03  0.00000000000E+00 0.  1.
          1    1    1    2  501    0  0.30941372298E+03  0.56048482201E+02  0.42452405440E+03  0.52829817063E+03  0.00000000000E+00 0. -1.
<mgrwt>
<rscale>  4 0.33414886E+03</rscale>
<asrwt>0</asrwt>
<pdfrwt beam="1">  1       21 0.87307619E-01 0.33414886E+03</pdfrwt>
<pdfrwt beam="2">  1        1 0.87953603E-01 0.33414886E+03</pdfrwt>
<totfact> 0.43858069E+02</totfact>
</mgrwt>
</event>
<event>
 5    0  0.4115852E+000  0.2615745E+03  0.7546771E-02  0.1106201E+00
          1   -1    0    0  502    0 -0.00000000000E+00  0.00000000000E+00  0.56451034601E+03  0.56451034601E+03  0.00000000000E+00 0.  1.
         21   -1    0    0  503  502  0.00000000000E+00 -0.00000000000E+00 -0.11107039665E+03  0.11107039665E+03  0.00000000000E+00 0.  1.
         25    1    1    2    0    0 -0.11581452300E+03  0.19845206086E+03  0.21760413129E+03  0.34025399653E+03  0.12500000000E+03 0.  0.
         21    1    1    2  503  501  0.14756143909E+02 -0.22903491516E+02  0.41172576668E+01  0.27554773042E+02  0.00000000000E+00 0. -1.
          1    1    1    2  501    0  0.10105837909E+03 -0.17554856935E+03  0.23171856040E+03  0.30777197309E+03  0.00000000000E+00 0.  1.
<mgrwt>
<rscale>  4 0.26157451E+03</rscale>
<asrwt>0</asrwt>
<pdfrwt beam="1">  1       21 0.17087754E-01 0.26157451E+03</pdfrwt>
<pdfrwt beam="2">  1        1 0.86847744E-01 0.26157451E+03</pdfrwt>
<totfact> 0.12937820E+04</totfact>
</mgrwt>
</event>
<event>
 5    0  0.4115852E+000  0.2536581E+03  0.7546771E-02  0.1111015E+00
         21   -1    0    0  501  502  0.00000000000E+00  0.00000000000E+00  0.10782635211E+03  0.10782635211E+03  0.00000000000E+00 0.  1.
         -1   -1    0    0    0  501 -0.00000000000E+00 -0.00000000000E+00 -0.72254681125E+03  0.72254681125E+03  0.00000000000E+00 0. -1.
         25    1    1    2    0    0 -0.20391111493E+03  0.73137055840E+02 -0.20626491217E+03  0.32418973722E+03  0.12500000000E+03 0.  0.
         21    1    1    2  503  502 -0.16244065376E+02 -0.33593941158E+02  0.34390989784E+01  0.37473323101E+02  0.00000000000E+00 0.  1.
         -1    1    1    2    0  503  0.22015518030E+03 -0.39543114682E+02 -0.41189464595E+03  0.46871010304E+03  0.00000000000E+00 0. -1.
<mgrwt>
<rscale>  4 0.25365814E+03</rscale>
<asrwt>0</asrwt>
<pdfrwt beam="1">  1       21 0.16588669E-01 0.25365814E+03</pdfrwt>
<pdfrwt beam="2">  1       -1 0.11116105E+00 0.25365814E+03</pdfrwt>
<totfact> 0.23911216E+03</totfact>
</mgrwt>
</event>
<event>
 5    0  0.4115852E+000  0.3174938E+03  0.7546771E-02  0.1076809E+00
         21   -1    0    0  503  502  0.00000000000E+00  0.00000000000E+00  0.36252570376E+03  0.36252570376E+03  0.00000000000E+00 0.  1.
          2   -1    0    0  502    0 -0.00000000000E+00 -0.00000000000E+00 -0.16055100242E+04  0.16055100242E+04  0.00000000000E+00 0.  1.
         25    1    1    2    0    0  0.28255439552E+03  0.98880984657E+01  0.22349781517E+03  0.38145908601E+03  0.12500000000E+03 0.  0.
         21    1    1    2  503  501  0.96245321019E+01 -0.18288675572E+02  0.43714041386E+02  0.48353124890E+02  0.00000000000E+00 0.  1.
          2    1    1    2  501    0 -0.29217892762E+03  0.84005771058E+01 -0.15101961770E+04  0.15382235171E+04  0.00000000000E+00 0.  1.
<mgrwt>
<rscale>  4 0.31749378E+03</rscale>
<asrwt>0</asrwt>
<pdfrwt beam="1">  1       21 0.55773185E-01 0.31749378E+03</pdfrwt>
<pdfrwt beam="2">  1        2 0.24700154E+00 0.31749378E+03</pdfrwt>
<totfact> 0.43408091E+02</totfact>
</mgrwt>
</event>
<event>
 5    0  0.4115852E+000  0.4198587E+03  0.7546771E-02  0.1037112E+00
         21   -1    0    0  503  502  0.00000000000E+00  0.00000000000E+00  0.20254388717E+04  0.20254388717E+04  0.00000000000E+00 0. -1.
          2   -1    0    0  502    0 -0.00000000000E+00 -0.00000000000E+00 -0.25759634617E+03  0.25759634617E+03  0.00000000000E+00 0. -1.
         25    1    1    2    0    0 -0.38166240642E+03  0.15424704993E+03  0.14630676708E+04  0.15250083129E+04  0.12500000000E+03 0.  0.
         21    1    1    2  503  501  0.18019762805E+02  0.11370437468E+02  0.35469953832E+03  0.35533893846E+03  0.00000000000E+00 0. -1.
          2    1    1    2  501    0  0.36364264362E+03 -0.16561748740E+03 -0.49924683591E+02  0.40268796657E+03  0.00000000000E+00 0. -1.
<mgrwt>
<rscale>  4 0.41985870E+03</rscale>
<asrwt>0</asrwt>
<pdfrwt beam="1">  1       21 0.31160597E+00 0.41985870E+03</pdfrwt>
<pdfrwt beam="2">  1        2 0.39630208E-01 0.41985870E+03</pdfrwt>
<totfact> 0.38669596E+01</totfact>
</mgrwt>
</event>
<event>
 5    0  0.4115852E+000  0.2187021E+03  0.7546771E-02  0.1134854E+00
          2   -1    0    0  502    0 -0.00000000000E+00  0.00000000000E+00  0.12764656904E+04  0.12764656904E+04  0.00000000000E+00 0.  1.
         21   -1    0    0  503  502  0.00000000000E+00 -0.00000000000E+00 -0.70109367484E+03  0.70109367484E+03  0.00000000000E+00 0. -1.
         25    1    1    2    0    0  0.16283039763E+03 -0.13019722526E+03  0.20881105124E+03  0.32045609837E+03  0.12500000000E+03 0.  0.
         21    1    1    2  503  501 -0.20351298695E+02  0.27675109999E+02 -0.63719230681E+03  0.63811764035E+03  0.00000000000E+00 0. -1.
          2    1    1    2  501    0 -0.14247909894E+03  0.10252211526E+03  0.10037532712E+04  0.10189856266E+04  0.00000000000E+00 0.  1.
<mgrwt>
<rscale>  4 0.21870206E+03</rscale>
<asrwt>0</asrwt>
<pdfrwt beam="1">  1       21 0.10786057E+00 0.21870206E+03</pdfrwt>
<pdfrwt beam="2">  1        2 0.19637934E+00 0.21870206E+03</pdfrwt>
<totfact> 0.15510864E+02</totfact>
</mgrwt>
</event>
<event>
 5    0  0.4115852E+000  0.3818588E+03  0.7546771E-02  0.1050249E+00
          2   -1    0    0  502    0 -0.00000000000E+00  0.00000000000E+00  0.23759740874E+04  0.23759740874E+04  0.00000000000E+00 0. -1.
         21   -1    0    0  503  502  0.00000000000E+00 -0.00000000000E+00 -0.26371030641E+03  0.26371030641E+03  0.00000000000E+00 0. -1.
         25    1    1    2    0    0  0.36537413317E+03 -0.12952321858E+03  0.22691970516E+02  0.40793926860E+03  0.12500000000E+03 0.  0.
         21    1    1    2  503  501 -0.34068081837E+02 -0.81682284857E+01 -0.50690846369E+02  0.61619120914E+02  0.00000000000E+00 0.  1.
          2    1    1    2  501    0 -0.33130605133E+03  0.13769144706E+03  0.21402626569E+04  0.21701260043E+04  0.00000000000E+00 0. -1.
<mgrwt>
<rscale>  4 0.38185881E+03</rscale>
<asrwt>0</asrwt>
<pdfrwt beam="1">  1       21 0.40570818E-01 0.38185881E+03</pdfrwt>
<pdfrwt beam="2">  1        2 0.36553446E+00 0.38185881E+03</pdfrwt>
<totfact> 0.31886416E+02</totfact>
</mgrwt>
</event>
<event>
 5    0  0.4115852E+000  0.2181658E+03  0.7546771E-02  0.1135258E+00
         21   -1    0    0  503  502  0.00000000000E+00  0.00000000000E+00  0.86353511372E+02  0.86353511372E+02  0.00000000000E+00 0. -1.
          1   -1    0    0  502    0 -0.00000000000E+00 -0.00000000000E+00 -0.72968315532E+03  0.72968315532E+03  0.00000000000E+00 0. -1.
         25    1    1    2    0    0  0.11082665600E+03  0.16791372487E+03 -0.17276687612E+03  0.29317394182E+03  0.12500000000E+03 0.  0.
         21    1    1    2  503  501 -0.20618917704E+02 -0.20301247941E+02 -0.95664051405E+01  0.30476163514E+02  0.00000000000E+00 0. -1.
          1    1    1    2  501    0 -0.90207738291E+02 -0.14761247693E+03 -0.46099636269E+03  0.49238656136E+03  0.00000000000E+00 0. -1.
<mgrwt>
<rscale>  4 0.21816581E+03</rscale>
<asrwt>0</asrwt>
<pdfrwt beam="1">  1       21 0.13285155E-01 0.21816581E+03</pdfrwt>
<pdfrwt beam="2">  1        1 0.11225895E+00 0.21816581E+03</pdfrwt>
<totfact> 0.14366852E+04</totfact>
</mgrwt>
</event>
<event>
 5    0  0.4115852E+000  0.2744314E+03  0.7546771E-02  0.1098770E+00
         21   -1    0    0  503  502  0.00000000000E+00  0.00000000000E+00  0.18717346206E+03  0.18717346206E+03  0.00000000000E+00 0.  1.
          1   -1    0    0  502    0 -0.00000000000E+00 -0.00000000000E+00 -0.20430674634E+04  0.20430674634E+04  0.00000000000E+00 0. -1.
         25    1    1    2    0    0 -0.22250426184E+03 -0.23398374473E+02  0.42421423600E+02  0.25976952794E+03  0.12500000000E+03 0.  0.
         21    1    1    2  503  501 -0.22935650381E+02  0.24671978456E+02  0.18210218829E+02  0.38293114906E+02  0.00000000000E+00 0.  1.
          1    1    1    2  501    0  0.24543991222E+03 -0.12736039837E+01 -0.19165256437E+04  0.19321782826E+04  0.00000000000E+00 0. -1.
<mgrwt>
<rscale>  4 0.27443138E+03</rscale>
<asrwt>0</asrwt>
<pdfrwt beam="1">  1       21 0.28795917E-01 0.27443138E+03</pdfrwt>
<pdfrwt beam="2">  1        1 0.31431807E+00 0.27443138E+03</pdfrwt>
<totfact> 0.39640549E+02</totfact>
</mgrwt>
</event>
<event>
 5    0  0.4115852E+000  0.2427844E+03  0.7546771E-02  0.1117952E+00
         -1   -1    0    0    0  501 -0.00000000000E+00  0.00000000000E+00  0.15789417666E+04  0.15789417666E+04  0.00000000000E+00 0.  1.
         21   -1    0    0  501  502  0.00000000000E+00 -0.00000000000E+00 -0.99787770143E+02  0.99787770143E+02  0.00000000000E+00 0.  1.
         25    1    1    2    0    0 -0.14076810882E+03  0.20573040470E+03  0.23352736767E+03  0.36373161992E+03  0.12500000000E+03 0.  0.
         21    1    1    2  503  502  0.36002504719E+01 -0.55828711179E+02  0.31678293781E+01  0.56034292521E+02  0.00000000000E+00 0.  1.
         -1    1    1    2    0  503  0.13716785834E+03 -0.14990169353E+03  0.12424587994E+04  0.12589636243E+04  0.00000000000E+00 0.  1.
<mgrwt>
<rscale>  4 0.24278438E+03</rscale>
<asrwt>0</asrwt>
<pdfrwt beam="1">  1       21 0.15351966E-01 0.24278438E+03</pdfrwt>
<pdfrwt beam="2">  1       -1 0.24291410E+00 0.24278438E+03</pdfrwt>
<totfact> 0.30917268E+02</totfact>
</mgrwt>
</event>
<event>
 5    0  0.4115852E+000  0.3258842E+03  0.7546771E-02  0.1072973E+00
         21   -1    0    0  503  502  0.00000000000E+00  0.00000000000E+00  0.27923897358E+03  0.27923897358E+03  0.00000000000E+00 0. -1.
          2   -1    0    0  502    0 -0.00000000000E+00 -0.00000000000E+00 -0.68969510325E+03  0.68969510325E+03  0.00000000000E+00 0. -1.
         25    1    1    2    0    0  0.22850679209E+03 -0.21658309060E+03 -0.31978324021E+02  0.34025167505E+03  0.12500000000E+03 0.  0.
         21    1    1    2  503  501 -0.23053649186E+03  0.17466243826E+03 -0.45162138842E+02  0.29273479499E+03  0.00000000000E+00 0. -1.
          2    1    1    2  501    0  0.20296997644E+01  0.41920652336E+02 -0.33331566680E+03  0.33594760679E+03  0.00000000000E+00 0. -1.
<mgrwt>
<rscale>  4 0.32588421E+03</rscale>
<asrwt>0</asrwt>
<pdfrwt beam="1">  1       21 0.42959843E-01 0.32588421E+03</pdfrwt>
<pdfrwt beam="2">  1        2 0.10610694E+00 0.32588421E+03</pdfrwt>
<totfact> 0.26820201E+03</totfact>
</mgrwt>
</event>
<event>
 5    0  0.4115852E+000  0.4202174E+03  0.7546771E-02  0.1036996E+00
         21   -1    0    0  503  502  0.00000000000E+00  0.00000000000E+00  0.19237548232E+04  0.19237548232E+04  0.00000000000E+00 0.  1.
          1   -1    0    0  502    0 -0.00000000000E+00 -0.00000000000E+00 -0.20826374828E+03  0.20826374828E+03  0.00000000000E+00 0.  1.
         25    1    1    2    0    0 -0.59356549207E+02 -0.30897910730E+03  0.54629028280E+03  0.64268916419E+03  0.12500000000E+03 0.  0.
         21    1    1    2  503  501 -0.69863795633E+02 -0.12119927611E+03  0.99939161294E+03  0.10091351795E+04  0.00000000000E+00 0.  1.
          1    1    1    2  501    0  0.12922034484E+03  0.43017838340E+03  0.16980917915E+03  0.48019422778E+03  0.00000000000E+00 0.  1.
<mgrwt>
<rscale>  4 0.42021741E+03</rscale>
<asrwt>0</asrwt>
<pdfrwt beam="1">  1       21 0.29596227E+00 0.42021741E+03</pdfrwt>
<pdfrwt beam="2">  1        1 0.32040578E-01 0.42021741E+03</pdfrwt>
<totfact> 0.45498975E+01</totfact>
</mgrwt>
</event>
<event>
 5    0  0.4115852E+000  0.1974555E+03  0.7546771E-02  0.1151904E+00
          2   -1    0    0  502    0 -0.00000000000E+00  0.00000000000E+00  0.27296262620E+04  0.27296262620E+04  0.00000000000E+00 0. -1.
         21   -1    0    0  503  502  0.00000000000E+00 -0.00000000000E+00 -0.50361410087E+03  0.50361410087E+03  0.00000000000E+00 0. -1.
         25    1    1    2    0    0 -0.63972836541E+02  0.22457365285E+03 -0.43355420861E+03  0.50805521469E+03  0.12500000000E+03 0.  0.
         21    1    1    2  503  501 -0.17146805052E+02 -0.95421358270E+02  0.46240117852E+02  0.10741227600E+03  0.00000000000E+00 0. -1.
          2    1    1    2  501    0  0.81119641593E+02 -0.12915229458E+03  0.26133262519E+04  0.26177728722E+04  0.00000000000E+00 0. -1.
<mgrwt>
<rscale>  4 0.19745555E+03</rscale>
<asrwt>0</asrwt>
<pdfrwt beam="1">  1       21 0.77479094E-01 0.19745555E+03</pdfrwt>
<pdfrwt beam="2">  1        2 0.41994249E+00 0.19745555E+03</pdfrwt>
<totfact> 0.57656172E+01</totfact>
</mgrwt>
</event>
<event>
 5    0  0.4115852E+000  0.2483075E+03  0.7546771E-02  0.1114379E+00
          1   -1    0    0  502    0 -0.00000000000E+00  0.00000000000E+00  0.17548064208E+04  0.17548064208E+04  0.00000000000E+00 0. -1.
         21   -1    0    0  503  502  0.00000000000E+00 -0.00000000000E+00 -0.52842354447E+03  0.52842354447E+03  0.00000000000E+00 0. -1.
         25    1    1    2    0    0  0.59660399640E+02  0.23693332243E+03  0.83319807057E+03  0.87723473903E+03  0.12500000000E+03 0.  0.
         21    1    1    2  503  501  0.55097265906E+01 -0.48056243486E+02 -0.49411522217E+03  0.49647720230E+03  0.00000000000E+00 0. -1.
          1    1    1    2  501    0 -0.65170126231E+02 -0.18887707894E+03  0.88730002795E+03  0.90951802396E+03  0.00000000000E+00 0. -1.
<mgrwt>
<rscale>  4 0.24830749E+03</rscale>
<asrwt>0</asrwt>
<pdfrwt beam="1">  1       21 0.81295930E-01 0.24830749E+03</pdfrwt>
<pdfrwt beam="2">  1        1 0.26997022E+00 0.24830749E+03</pdfrwt>
<totfact> 0.70147330E+01</totfact>
</mgrwt>
</event>
<event>
 5    0  0.4115852E+000  0.3223029E+03  0.7546771E-02  0.1074594E+00
         21   -1    0    0  503  502  0.00000000000E+00  0.00000000000E+00  0.28921040706E+03  0.28921040706E+03  0.00000000000E+00 0.  1.
          3   -1    0    0  502    0 -0.00000000000E+00 -0.00000000000E+00 -0.89959238081E+03  0.89959238081E+03  0.00000000000E+00 0. -1.
         25    1    1    2    0    0  0.34302236529E+02  0.33487380711E+03 -0.16464265703E+02  0.35946235153E+03  0.12500000000E+03 0.  0.
         21    1    1    2  503  501 -0.11481487054E+02 -0.45567045527E+02  0.81577889616E+02  0.94144209898E+02  0.00000000000E+00 0.  1.
          3    1    1    2  501    0 -0.22820749475E+02 -0.28930676158E+03 -0.67549559766E+03  0.73519622644E+03  0.00000000000E+00 0. -1.
<mgrwt>
<rscale>  4 0.32230290E+03</rscale>
<asrwt>0</asrwt>
<pdfrwt beam="1">  1       21 0.44493909E-01 0.32230290E+03</pdfrwt>
<pdfrwt beam="2">  1        3 0.13839883E+00 0.32230290E+03</pdfrwt>
<totfact> 0.96987043E+01</totfact>
</mgrwt>
</event>
<event>
 5    0  0.4115852E+000  0.3012406E+03  0.7546771E-02  0.1084622E+00
          2   -1    0    0  502    0 -0.00000000000E+00  0.00000000000E+00  0.11024071009E+04  0.11024071009E+04  0.00000000000E+00 0.  1.
         21   -1    0    0  503  502  0.00000000000E+00 -0.00000000000E+00 -0.10381414537E+03  0.10381414537E+03  0.00000000000E+00 0.  1.
         25    1    1    2    0    0  0.24561027435E+03 -0.84555205293E+02  0.27460150032E+03  0.39812683103E+03  0.12500000000E+03 0.  0.
         21    1    1    2  503  501  0.31899300580E+02  0.37321099145E+02  0.26174147163E+02  0.55637359738E+02  0.00000000000E+00 0. -1.
          2    1    1    2  501    0 -0.27750957493E+03  0.47234106148E+02  0.69781730799E+03  0.75245705545E+03  0.00000000000E+00 0.  1.
<mgrwt>
<rscale>  4 0.30124059E+03</rscale>
<asrwt>0</asrwt>
<pdfrwt beam="1">  1       21 0.15971408E-01 0.30124059E+03</pdfrwt>
<pdfrwt beam="2">  1        2 0.16960108E+00 0.30124059E+03</pdfrwt>
<totfact> 0.98631186E+03</totfact>
</mgrwt>
</event>
<event>
 5    0  0.4115852E+000  0.3350685E+03  0.7546771E-02  0.1068916E+00
         21   -1    0    0  503  502  0.00000000000E+00  0.00000000000E+00  0.88489175898E+02  0.88489175898E+02  0.00000000000E+00 0. -1.
          1   -1    0    0  502    0 -0.00000000000E+00 -0.00000000000E+00 -0.17199122608E+04  0.17199122608E+04  0.00000000000E+00 0. -1.
         25    1    1    2    0    0  0.26719095018E+03  0.14722668247E+03 -0.69294929933E+03  0.76737893594E+03  0.12500000000E+03 0.  0.
         21    1    1    2  503  501 -0.23288442402E+02  0.55789433946E+02 -0.11902801182E+02  0.61615656821E+02  0.00000000000E+00 0. -1.
          1    1    1    2  501    0 -0.24390250778E+03 -0.20301611642E+03 -0.92657098440E+03  0.97940684395E+03  0.00000000000E+00 0. -1.
<mgrwt>
<rscale>  4 0.33506845E+03</rscale>
<asrwt>0</asrwt>
<pdfrwt beam="1">  1       21 0.13613720E-01 0.33506845E+03</pdfrwt>
<pdfrwt beam="2">  1        1 0.26460188E+00 0.33506845E+03</pdfrwt>
<totfact> 0.25839544E+03</totfact>
</mgrwt>
</event>
<event>
 5    0  0.4115852E+000  0.2898970E+03  0.7546771E-02  0.1090403E+00
          1   -1    0    0  502    0 -0.00000000000E+00  0.00000000000E+00  0.17873577836E+04  0.17873577836E+04  0.00000000000E+00 0.  1.
         21   -1    0    0  503  502  0.00000000000E+00 -0.00000000000E+00 -0.88553502877E+02  0.88553502877E+02  0.00000000000E+00 0.  1.
         25    1    1    2    0    0  0.23943292916E+03  0.29780645572E+02  0.10777902533E+04  0.11115178111E+04  0.12500000000E+03 0.  0.
         21    1    1    2  503  501  0.75143796022E+02  0.81928304236E+02  0.17413385909E+03  0.20659486440E+03  0.00000000000E+00 0.  1.
          1    1    1    2  501    0 -0.31457672518E+03 -0.11170894981E+03  0.44688016834E+03  0.55779861092E+03  0.00000000000E+00 0.  1.
<mgrwt>
<rscale>  4 0.28989695E+03</rscale>
<asrwt>0</asrwt>
<pdfrwt beam="1">  1       21 0.13623617E-01 0.28989695E+03</pdfrwt>
<pdfrwt beam="2">  1        1 0.27497809E+00 0.28989695E+03</pdfrwt>
<totfact> 0.23666170E+03</totfact>
</mgrwt>
</event>
<event>
 5    0  0.4115852E+000  0.2718037E+03  0.7546771E-02  0.1100252E+00
          2   -1    0    0  502    0 -0.00000000000E+00  0.00000000000E+00  0.26742448320E+04  0.26742448320E+04  0.00000000000E+00 0.  1.
         21   -1    0    0  503  502  0.00000000000E+00 -0.00000000000E+00 -0.11527468327E+03  0.11527468327E+03  0.00000000000E+00 0. -1.
         25    1    1    2    0    0 -0.17691399860E+03  0.12655022198E+03  0.38672902396E+03  0.46097490122E+03  0.12500000000E+03 0.  0.
         21    1    1    2  503  501 -0.10400230303E+02  0.32592105924E+02 -0.67331672039E+02  0.75524593467E+02  0.00000000000E+00 0. -1.
          2    1    1    2  501    0  0.18731422891E+03 -0.15914232790E+03  0.22395727968E+04  0.22530200205E+04  0.00000000000E+00 0.  1.
<mgrwt>
<rscale>  4 0.27180367E+03</rscale>
<asrwt>0</asrwt>
<pdfrwt beam="1">  1       21 0.17734569E-01 0.27180367E+03</pdfrwt>
<pdfrwt beam="2">  1        2 0.41142223E+00 0.27180367E+03</pdfrwt>
<totfact> 0.11551431E+03</totfact>
</mgrwt>
</event>
<event>
 5    0  0.4115852E+000  0.2740371E+03  0.7546771E-02  0.1098991E+00
          1   -1    0    0  502    0 -0.00000000000E+00  0.00000000000E+00  0.19322957206E+04  0.19322957206E+04  0.00000000000E+00 0. -1.
         21   -1    0    0  503  502  0.00000000000E+00 -0.00000000000E+00 -0.14603595009E+03  0.14603595009E+03  0.00000000000E+00 0. -1.
         25    1    1    2    0    0 -0.34657030400E+03  0.38450253905E+02  0.44338997046E+03  0.57776211675E+03  0.12500000000E+03 0.  0.
         21    1    1    2  503  501  0.14527806455E+03  0.76056075644E+02  0.29099243794E+02  0.16654431443E+03  0.00000000000E+00 0. -1.
          1    1    1    2  501    0  0.20129223946E+03 -0.11450632955E+03  0.13137705563E+04  0.13340252395E+04  0.00000000000E+00 0. -1.
<mgrwt>
<rscale>  4 0.27403706E+03</rscale>
<asrwt>0</asrwt>
<pdfrwt beam="1">  1       21 0.22467071E-01 0.27403706E+03</pdfrwt>
<pdfrwt beam="2">  1        1 0.29727625E+00 0.27403706E+03</pdfrwt>
<totfact> 0.75539684E+02</totfact>
</mgrwt>
</event>
<event>
 5    0  0.4115852E+000  0.3523096E+03  0.7546771E-02  0.1061671E+00
          1   -1    0    0  502    0 -0.00000000000E+00  0.00000000000E+00  0.33793354798E+03  0.33793354798E+03  0.00000000000E+00 0. -1.
         21   -1    0    0  503  502  0.00000000000E+00 -0.00000000000E+00 -0.50630049502E+03  0.50630049502E+03  0.00000000000E+00 0.  1.
         25    1    1    2    0    0 -0.30230740274E+03  0.63108148639E+02 -0.19925618948E+03  0.38820153687E+03  0.12500000000E+03 0.  0.
         21    1    1    2  503  501 -0.38489229969E+02 -0.68953423836E+02 -0.64641315384E+02  0.10205143378E+03  0.00000000000E+00 0. -1.
          1    1    1    2  501    0  0.34079663271E+03  0.58452751970E+01  0.95530557826E+02  0.35398107236E+03  0.00000000000E+00 0. -1.
<mgrwt>
<rscale>  4 0.35230962E+03</rscale>
<asrwt>0</asrwt>
<pdfrwt beam="1">  1       21 0.77892383E-01 0.35230962E+03</pdfrwt>
<pdfrwt beam="2">  1        1 0.51989777E-01 0.35230962E+03</pdfrwt>
<totfact> 0.11365164E+03</totfact>
</mgrwt>
</event>
<event>
 5    0  0.4115852E+000  0.3075665E+03  0.7546771E-02  0.1081518E+00
         21   -1    0    0  503  502  0.00000000000E+00  0.00000000000E+00  0.11148644853E+03  0.11148644853E+03  0.00000000000E+00 0.  1.
          2   -1    0    0  502    0 -0.00000000000E+00 -0.00000000000E+00 -0.25292887183E+04  0.25292887183E+04  0.00000000000E+00 0.  1.
         25    1    1    2    0    0  0.30194661814E+03  0.81814911417E+02 -0.90027964893E+03  0.96124600713E+03  0.12500000000E+03 0.  0.
         21    1    1    2  503  501 -0.46252318321E+02  0.25369947018E+01  0.61904455403E+02  0.77316718055E+02  0.00000000000E+00 0.  1.
          2    1    1    2  501    0 -0.25569429982E+03 -0.84351906119E+02 -0.15794270763E+04  0.16022124417E+04  0.00000000000E+00 0.  1.
<mgrwt>
<rscale>  4 0.30756653E+03</rscale>
<asrwt>0</asrwt>
<pdfrwt beam="1">  1       21 0.17151761E-01 0.30756653E+03</pdfrwt>
<pdfrwt beam="2">  1        2 0.38912134E+00 0.30756653E+03</pdfrwt>
<totfact> 0.14547399E+03</totfact>
</mgrwt>
</event>
<event>
 5    0  0.4115852E+000  0.2193227E+03  0.7546771E-02  0.1134389E+00
         21   -1    0    0  503  502  0.00000000000E+00  0.00000000000E+00  0.27068445852E+02  0.27068445852E+02  0.00000000000E+00 0. -1.
          1   -1    0    0  502    0 -0.00000000000E+00 -0.00000000000E+00 -0.25764084019E+04  0.25764084019E+04  0.00000000000E+00 0.  1.
         25    1    1    2    0    0 -0.23744029689E+02 -0.22486764544E+03 -0.11844252886E+04  0.12122778152E+04  0.12500000000E+03 0.  0.
         21    1    1    2  503  501 -0.17586742810E+02  0.67242607828E+02 -0.14900043104E+03  0.16441408176E+03  0.00000000000E+00 0. -1.
          1    1    1    2  501    0  0.41330772498E+02  0.15762503761E+03 -0.12159142365E+04  0.12267849509E+04  0.00000000000E+00 0.  1.
<mgrwt>
<rscale>  4 0.21932268E+03</rscale>
<asrwt>0</asrwt>
<pdfrwt beam="1">  1       21 0.41643768E-02 0.21932268E+03</pdfrwt>
<pdfrwt beam="2">  1        1 0.39637048E+00 0.21932268E+03</pdfrwt>
<totfact> 0.58900590E+03</totfact>
</mgrwt>
</event>
<event>
 5    0  0.4115852E+000  0.4461437E+03  0.7546771E-02  0.1028878E+00
         21   -1    0    0  503  502  0.00000000000E+00  0.00000000000E+00  0.34146560446E+03  0.34146560446E+03  0.00000000000E+00 0.  1.
          2   -1    0    0  502    0 -0.00000000000E+00 -0.00000000000E+00 -0.74704330485E+03  0.74704330485E+03  0.00000000000E+00 0. -1.
         25    1    1    2    0    0 -0.44183382148E+03 -0.13708875300E+01 -0.21520470122E+03  0.50710656530E+03  0.12500000000E+03 0.  0.
         21    1    1    2  503  501  0.24509669253E+02 -0.20733217232E+02  0.78268408569E+02  0.84596299940E+02  0.00000000000E+00 0.  1.
          2    1    1    2  501    0  0.41732415223E+03  0.22104104762E+02 -0.26864140773E+03  0.49680604408E+03  0.00000000000E+00 0. -1.
<mgrwt>
<rscale>  4 0.44614370E+03</rscale>
<asrwt>0</asrwt>
<pdfrwt beam="1">  1       21 0.52533170E-01 0.44614370E+03</pdfrwt>
<pdfrwt beam="2">  1        2 0.11492974E+00 0.44614370E+03</pdfrwt>
<totfact> 0.15449664E+03</totfact>
</mgrwt>
</event>
<event>
 5    0  0.4115852E+000  0.2111743E+03  0.7546771E-02  0.1140639E+00
         21   -1    0    0  503  502  0.00000000000E+00  0.00000000000E+00  0.57080159921E+02  0.57080159921E+02  0.00000000000E+00 0.  1.
          2   -1    0    0  502    0 -0.00000000000E+00 -0.00000000000E+00 -0.38212640342E+04  0.38212640342E+04  0.00000000000E+00 0. -1.
         25    1    1    2    0    0  0.17592607935E+03  0.11399826909E+03 -0.34325348371E+03  0.42118113067E+03  0.12500000000E+03 0.  0.
         21    1    1    2  503  501 -0.37199890643E+02 -0.19041385449E+02 -0.11164786144E+02  0.43255735728E+02  0.00000000000E+00 0.  1.
          2    1    1    2  501    0 -0.13872618871E+03 -0.94956883639E+02 -0.34097656044E+04  0.34139073277E+04  0.00000000000E+00 0. -1.
<mgrwt>
<rscale>  4 0.21117429E+03</rscale>
<asrwt>0</asrwt>
<pdfrwt beam="1">  1       21 0.87815619E-02 0.21117429E+03</pdfrwt>
<pdfrwt beam="2">  1        2 0.58788685E+00 0.21117429E+03</pdfrwt>
<totfact> 0.81567704E+02</totfact>
</mgrwt>
</event>
<event>
 5    0  0.4115852E+000  0.2580527E+03  0.7546771E-02  0.1108319E+00
         -4   -1    0    0    0  501 -0.00000000000E+00  0.00000000000E+00  0.66259741265E+03  0.66259741265E+03  0.00000000000E+00 0.  1.
         21   -1    0    0  501  502  0.00000000000E+00 -0.00000000000E+00 -0.15462876266E+03  0.15462876266E+03  0.00000000000E+00 0.  1.
         25    1    1    2    0    0 -0.22382511605E+03  0.50985140541E+02  0.12482592687E+03  0.28966131801E+03  0.12500000000E+03 0.  0.
         21    1    1    2  503  502 -0.24127999931E+00 -0.30733398114E+02 -0.38735027324E+02  0.49446964694E+02  0.00000000000E+00 0.  1.
         -4    1    1    2    0  503  0.22406639605E+03 -0.20251742427E+02  0.42187775044E+03  0.47811789260E+03  0.00000000000E+00 0.  1.
<mgrwt>
<rscale>  4 0.25805267E+03</rscale>
<asrwt>0</asrwt>
<pdfrwt beam="1">  1       21 0.23789041E-01 0.25805267E+03</pdfrwt>
<pdfrwt beam="2">  1       -4 0.10193806E+00 0.25805267E+03</pdfrwt>
<totfact> 0.57076805E+02</totfact>
</mgrwt>
</event>
<event>
 5    0  0.4115852E+000  0.2933717E+03  0.7546771E-02  0.1088602E+00
         21   -1    0    0  503  502  0.00000000000E+00  0.00000000000E+00  0.46225209676E+02  0.46225209676E+02  0.00000000000E+00 0.  1.
          1   -1    0    0  502    0 -0.00000000000E+00 -0.00000000000E+00 -0.20178819415E+04  0.20178819415E+04  0.00000000000E+00 0.  1.
         25    1    1    2    0    0  0.24108015912E+03  0.11100600900E+03 -0.13902736937E+04  0.14208898341E+04  0.12500000000E+03 0.  0.
         21    1    1    2  503  501 -0.23170966544E+02 -0.15807644436E+02 -0.22879741454E+02  0.36197484474E+02  0.00000000000E+00 0.  1.
          1    1    1    2  501    0 -0.21790919258E+03 -0.95198364565E+02 -0.55850329668E+03  0.60701983265E+03  0.00000000000E+00 0.  1.
<mgrwt>
<rscale>  4 0.29337174E+03</rscale>
<asrwt>0</asrwt>
<pdfrwt beam="1">  1       21 0.71115701E-02 0.29337174E+03</pdfrwt>
<pdfrwt beam="2">  1        1 0.31044340E+00 0.29337174E+03</pdfrwt>
<totfact> 0.53278659E+03</totfact>
</mgrwt>
</event>
<event>
 5    0  0.4115852E+000  0.2374800E+03  0.7546771E-02  0.1121483E+00
         21   -1    0    0  501  502  0.00000000000E+00  0.00000000000E+00  0.26348524704E+03  0.26348524704E+03  0.00000000000E+00 0. -1.
         -2   -1    0    0    0  501 -0.00000000000E+00 -0.00000000000E+00 -0.39057815156E+03  0.39057815156E+03  0.00000000000E+00 0. -1.
         25    1    1    2    0    0 -0.86123458174E+01  0.21103259453E+03 -0.42207880948E+02  0.24902898158E+03  0.12500000000E+03 0.  0.
         21    1    1    2  503  502  0.22217074773E+02 -0.12867066936E+02  0.11820233775E+03  0.12095847417E+03  0.00000000000E+00 0.  1.
         -2    1    1    2    0  503 -0.13604728956E+02 -0.19816552759E+03 -0.20308736132E+03  0.28407594285E+03  0.00000000000E+00 0. -1.
<mgrwt>
<rscale>  4 0.23748003E+03</rscale>
<asrwt>0</asrwt>
<pdfrwt beam="1">  1       21 0.40536192E-01 0.23748003E+03</pdfrwt>
<pdfrwt beam="2">  1       -2 0.60088946E-01 0.23748003E+03</pdfrwt>
<totfact> 0.12411580E+03</totfact>
</mgrwt>
</event>
<event>
 5    0  0.4115852E+000  0.1924141E+03  0.7546771E-02  0.1156302E+00
         21   -1    0    0  501  502  0.00000000000E+00  0.00000000000E+00  0.75138161611E+02  0.75138161611E+02  0.00000000000E+00 0. -1.
         -4   -1    0    0    0  501 -0.00000000000E+00 -0.00000000000E+00 -0.21406279939E+04  0.21406279939E+04  0.00000000000E+00 0. -1.
         25    1    1    2    0    0  0.18329916447E+03  0.14135871944E+03 -0.27182734898E+03  0.37828029146E+03  0.12500000000E+03 0.  0.
         21    1    1    2  503  502 -0.82284090693E+02 -0.42056282090E+02 -0.93594784586E+02  0.13152713084E+03  0.00000000000E+00 0. -1.
         -4    1    1    2    0  503 -0.10101507377E+03 -0.99302437346E+02 -0.17000676987E+04  0.17059587332E+04  0.00000000000E+00 0. -1.
<mgrwt>
<rscale>  4 0.19241414E+03</rscale>
<asrwt>0</asrwt>
<pdfrwt beam="1">  1       21 0.11559717E-01 0.19241414E+03</pdfrwt>
<pdfrwt beam="2">  1       -4 0.32932740E+00 0.19241414E+03</pdfrwt>
<totfact> 0.65528135E+01</totfact>
</mgrwt>
</event>
<event>
 5    0  0.4115852E+000  0.3037418E+03  0.7546771E-02  0.1083385E+00
         21   -1    0    0  501  502  0.00000000000E+00  0.00000000000E+00  0.14765893167E+04  0.14765893167E+04  0.00000000000E+00 0. -1.
         -1   -1    0    0    0  501 -0.00000000000E+00 -0.00000000000E+00 -0.11368819113E+03  0.11368819113E+03  0.00000000000E+00 0. -1.
         25    1    1    2    0    0  0.72438838088E+02 -0.30520882075E+03  0.44206787434E+03  0.55628123737E+03  0.12500000000E+03 0.  0.
         21    1    1    2  503  502  0.41441137264E+02  0.74817905523E+02  0.66808634971E+03  0.67353875725E+03  0.00000000000E+00 0. -1.
         -1    1    1    2    0  503 -0.11387997535E+03  0.23039091523E+03  0.25274690150E+03  0.36045751320E+03  0.00000000000E+00 0. -1.
<mgrwt>
<rscale>  4 0.30374183E+03</rscale>
<asrwt>0</asrwt>
<pdfrwt beam="1">  1       21 0.22716757E+00 0.30374183E+03</pdfrwt>
<pdfrwt beam="2">  1       -1 0.17490492E-01 0.30374183E+03</pdfrwt>
<totfact> 0.19166009E+02</totfact>
</mgrwt>
</event>
<event>
 5    0  0.4115852E+000  0.4411673E+03  0.7546771E-02  0.1030389E+00
          2   -1    0    0  502    0 -0.00000000000E+00  0.00000000000E+00  0.41277033914E+03  0.41277033914E+03  0.00000000000E+00 0.  1.
         21   -1    0    0  503  502  0.00000000000E+00 -0.00000000000E+00 -0.50310456794E+03  0.50310456794E+03  0.00000000000E+00 0. -1.
         25    1    1    2    0    0 -0.55549272783E+02  0.43062123775E+03 -0.94180473876E+02  0.46153584235E+03  0.12500000000E+03 0.  0.
         21    1    1    2  503  501 -0.27397219252E+02 -0.23391647798E+02 -0.13281675154E+02  0.38395047914E+02  0.00000000000E+00 0. -1.
          2    1    1    2  501    0  0.82946492035E+02 -0.40722958996E+03  0.17127920239E+02  0.41594401682E+03  0.00000000000E+00 0.  1.
<mgrwt>
<rscale>  4 0.44116735E+03</rscale>
<asrwt>0</asrwt>
<pdfrwt beam="1">  1       21 0.77400702E-01 0.44116735E+03</pdfrwt>
<pdfrwt beam="2">  1        2 0.63503130E-01 0.44116735E+03</pdfrwt>
<totfact> 0.13158364E+03</totfact>
</mgrwt>
</event>
<event>
 5    0  0.4115852E+000  0.2289225E+03  0.7546771E-02  0.1127400E+00
         21   -1    0    0  503  502  0.00000000000E+00  0.00000000000E+00  0.20935803959E+03  0.20935803959E+03  0.00000000000E+00 0.  1.
          2   -1    0    0  502    0 -0.00000000000E+00 -0.00000000000E+00 -0.64579274019E+03  0.64579274019E+03  0.00000000000E+00 0.  1.
         25    1    1    2    0    0 -0.20758716624E+03 -0.38253849154E+02  0.10268046551E+03  0.26593996796E+03  0.12500000000E+03 0.  0.
         21    1    1    2  503  501  0.20307487021E+02  0.58173181112E+01 -0.42086664955E+01  0.21539454329E+02  0.00000000000E+00 0. -1.
          2    1    1    2  501    0  0.18727967922E+03  0.32436531042E+02 -0.53490649961E+03  0.56767135750E+03  0.00000000000E+00 0.  1.
<mgrwt>
<rscale>  4 0.22892245E+03</rscale>
<asrwt>0</asrwt>
<pdfrwt beam="1">  1       21 0.32208929E-01 0.22892245E+03</pdfrwt>
<pdfrwt beam="2">  1        2 0.99352729E-01 0.22892245E+03</pdfrwt>
<totfact> 0.53350888E+03</totfact>
</mgrwt>
</event>
<event>
 5    0  0.4115852E+000  0.2974380E+03  0.7546771E-02  0.1086528E+00
         21   -1    0    0  503  502  0.00000000000E+00  0.00000000000E+00  0.89929614823E+02  0.89929614823E+02  0.00000000000E+00 0. -1.
          2   -1    0    0  502    0 -0.00000000000E+00 -0.00000000000E+00 -0.27711218604E+04  0.27711218604E+04  0.00000000000E+00 0.  1.
         25    1    1    2    0    0 -0.29377299841E+03 -0.22361675941E+03 -0.52172344690E+03  0.65125063127E+03  0.12500000000E+03 0.  0.
         21    1    1    2  503  501  0.15697322235E+03  0.11302894469E+03 -0.43115028467E+03  0.47255338624E+03  0.00000000000E+00 0. -1.
          2    1    1    2  501    0  0.13679977605E+03  0.11058781472E+03 -0.17283185140E+04  0.17372474577E+04  0.00000000000E+00 0.  1.
<mgrwt>
<rscale>  4 0.29743804E+03</rscale>
<asrwt>0</asrwt>
<pdfrwt beam="1">  1       21 0.13835326E-01 0.29743804E+03</pdfrwt>
<pdfrwt beam="2">  1        2 0.42632643E+00 0.29743804E+03</pdfrwt>
<totfact> 0.15887075E+03</totfact>
</mgrwt>
</event>
<event>
 5    0  0.4115852E+000  0.2362901E+03  0.7546771E-02  0.1122289E+00
          2   -1    0    0  502    0 -0.00000000000E+00  0.00000000000E+00  0.15177985021E+04  0.15177985021E+04  0.00000000000E+00 0. -1.
         21   -1    0    0  503  502  0.00000000000E+00 -0.00000000000E+00 -0.75847078671E+02  0.75847078671E+02  0.00000000000E+00 0.  1.
         25    1    1    2    0    0  0.20940891248E+03  0.25723706320E+02  0.16906370915E+03  0.29786127551E+03  0.12500000000E+03 0.  0.
         21    1    1    2  503  501 -0.62653922603E+02  0.84135054347E+01  0.14920101712E+03  0.16204087324E+03  0.00000000000E+00 0.  1.
          2    1    1    2  501    0 -0.14675498988E+03 -0.34137211755E+02  0.11236866971E+04  0.11337434320E+04  0.00000000000E+00 0. -1.
<mgrwt>
<rscale>  4 0.23629013E+03</rscale>
<asrwt>0</asrwt>
<pdfrwt beam="1">  1       21 0.11668782E-01 0.23629013E+03</pdfrwt>
<pdfrwt beam="2">  1        2 0.23350744E+00 0.23629013E+03</pdfrwt>
<totfact> 0.10436776E+04</totfact>
</mgrwt>
</event>
<event>
 5    0  0.4115852E+000  0.4339158E+03  0.7546771E-02  0.1032630E+00
         21   -1    0    0  503  502  0.00000000000E+00  0.00000000000E+00  0.34956666923E+03  0.34956666923E+03  0.00000000000E+00 0. -1.
          2   -1    0    0  502    0 -0.00000000000E+00 -0.00000000000E+00 -0.35941804823E+04  0.35941804823E+04  0.00000000000E+00 0. -1.
         25    1    1    2    0    0 -0.37867377514E+03  0.40076146837E+03 -0.72516261834E+03  0.91950497853E+03  0.12500000000E+03 0.  0.
         21    1    1    2  503  501  0.27957412182E+03 -0.27249079975E+03  0.97406457766E+02  0.40236916327E+03  0.00000000000E+00 0. -1.
          2    1    1    2  501    0  0.99099653324E+02 -0.12827066862E+03 -0.26168576525E+04  0.26218730097E+04  0.00000000000E+00 0. -1.
<mgrwt>
<rscale>  4 0.43391577E+03</rscale>
<asrwt>0</asrwt>
<pdfrwt beam="1">  1       21 0.53779487E-01 0.43391577E+03</pdfrwt>
<pdfrwt beam="2">  1        2 0.55295085E+00 0.43391577E+03</pdfrwt>
<totfact> 0.31486610E+01</totfact>
</mgrwt>
</event>
<event>
 5    0  0.4115852E+000  0.2676352E+03  0.7546771E-02  0.1102641E+00
          1   -1    0    0  502    0 -0.00000000000E+00  0.00000000000E+00  0.60892477598E+03  0.60892477598E+03  0.00000000000E+00 0. -1.
         21   -1    0    0  503  502  0.00000000000E+00 -0.00000000000E+00 -0.28799142499E+03  0.28799142499E+03  0.00000000000E+00 0. -1.
         25    1    1    2    0    0 -0.19407159343E+02 -0.22959005039E+03  0.36860248653E+03  0.45230633662E+03  0.12500000000E+03 0.  0.
         21    1    1    2  503  501  0.23231943534E+02 -0.19563951102E+02 -0.16600129006E+03  0.16875692485E+03  0.00000000000E+00 0. -1.
          1    1    1    2  501    0 -0.38247841913E+01  0.24915400149E+03  0.11833215453E+03  0.27585293950E+03  0.00000000000E+00 0. -1.
<mgrwt>
<rscale>  4 0.26763519E+03</rscale>
<asrwt>0</asrwt>
<pdfrwt beam="1">  1       21 0.44306373E-01 0.26763519E+03</pdfrwt>
<pdfrwt beam="2">  1        1 0.93680734E-01 0.26763519E+03</pdfrwt>
<totfact> 0.18158298E+03</totfact>
</mgrwt>
</event>
<event>
 5    0  0.4115852E+000  0.2023634E+03  0.7546771E-02  0.1147760E+00
          2   -1    0    0  502    0 -0.00000000000E+00  0.00000000000E+00  0.12634218236E+04  0.12634218236E+04  0.00000000000E+00 0.  1.
         21   -1    0    0  503  502  0.00000000000E+00 -0.00000000000E+00 -0.15741538597E+03  0.15741538597E+03  0.00000000000E+00 0. -1.
         25    1    1    2    0    0  0.23695476093E+03 -0.25658475356E+01  0.93517939162E+02  0.28376882712E+03  0.12500000000E+03 0.  0.
         21    1    1    2  503  501 -0.88651399414E+02 -0.42193235914E+02 -0.13808153721E+02  0.99146381095E+02  0.00000000000E+00 0. -1.
          2    1    1    2  501    0 -0.14830336152E+03  0.44759083450E+02  0.10262966522E+04  0.10379220013E+04  0.00000000000E+00 0.  1.
<mgrwt>
<rscale>  4 0.20236337E+03</rscale>
<asrwt>0</asrwt>
<pdfrwt beam="1">  1       21 0.24217753E-01 0.20236337E+03</pdfrwt>
<pdfrwt beam="2">  1        2 0.19437258E+00 0.20236337E+03</pdfrwt>
<totfact> 0.37716616E+03</totfact>
</mgrwt>
</event>
<event>
 5    0  0.4115852E+000  0.2249216E+03  0.7546771E-02  0.1130266E+00
          2   -1    0    0  502    0 -0.00000000000E+00  0.00000000000E+00  0.38444685014E+04  0.38444685014E+04  0.00000000000E+00 0.  1.
         21   -1    0    0  503  502  0.00000000000E+00 -0.00000000000E+00 -0.52146021323E+02  0.52146021323E+02  0.00000000000E+00 0. -1.
         25    1    1    2    0    0 -0.25409963231E+03 -0.73650601374E+02  0.46919526454E+03  0.55295590285E+03  0.12500000000E+03 0.  0.
         21    1    1    2  503  501  0.82418235104E+02  0.13031487089E+02  0.22155596918E+03  0.23674803613E+03  0.00000000000E+00 0.  1.
          2    1    1    2  501    0  0.17168139721E+03  0.60619114285E+02  0.31015712464E+04  0.31069105838E+04  0.00000000000E+00 0.  1.
<mgrwt>
<rscale>  4 0.22492155E+03</rscale>
<asrwt>0</asrwt>
<pdfrwt beam="1">  1       21 0.80224678E-02 0.22492155E+03</pdfrwt>
<pdfrwt beam="2">  1        2 0.59145647E+00 0.22492155E+03</pdfrwt>
<totfact> 0.90941031E+02</totfact>
</mgrwt>
</event>
<event>
 5    0  0.4115852E+000  0.2490220E+03  0.7546771E-02  0.1113924E+00
         21   -1    0    0  503  502  0.00000000000E+00  0.00000000000E+00  0.89144968489E+02  0.89144968489E+02  0.00000000000E+00 0. -1.
          1   -1    0    0  502    0 -0.00000000000E+00 -0.00000000000E+00 -0.15464225488E+04  0.15464225488E+04  0.00000000000E+00 0. -1.
         25    1    1    2    0    0  0.16073302639E+03  0.15164783511E+03 -0.12810939965E+03  0.28437508671E+03  0.12500000000E+03 0.  0.
         21    1    1    2  503  501 -0.21883598998E+02 -0.34333636820E+02 -0.90231194071E+02  0.98991711298E+02  0.00000000000E+00 0. -1.
          1    1    1    2  501    0 -0.13884942739E+03 -0.11731419829E+03 -0.12389369866E+04  0.12522007193E+04  0.00000000000E+00 0. -1.
<mgrwt>
<rscale>  4 0.24902204E+03</rscale>
<asrwt>0</asrwt>
<pdfrwt beam="1">  1       21 0.13714611E-01 0.24902204E+03</pdfrwt>
<pdfrwt beam="2">  1        1 0.23791115E+00 0.24902204E+03</pdfrwt>
<totfact> 0.34140497E+03</totfact>
</mgrwt>
</event>
<event>
 5    0  0.4115852E+000  0.2204860E+03  0.7546771E-02  0.1133521E+00
         21   -1    0    0  503  502  0.00000000000E+00  0.00000000000E+00  0.47819853246E+03  0.47819853246E+03  0.00000000000E+00 0. -1.
          2   -1    0    0  502    0 -0.00000000000E+00 -0.00000000000E+00 -0.69797494024E+03  0.69797494024E+03  0.00000000000E+00 0.  1.
         25    1    1    2    0    0  0.16570167558E+03  0.12364705574E+03 -0.18442104213E+03  0.30394367975E+03  0.12500000000E+03 0.  0.
         21    1    1    2  503  501 -0.16475545754E+02 -0.32736055185E+02  0.40074889568E+03  0.40242113551E+03  0.00000000000E+00 0. -1.
          2    1    1    2  501    0 -0.14922612982E+03 -0.90911000557E+02 -0.43610426134E+03  0.46980865744E+03  0.00000000000E+00 0.  1.
<mgrwt>
<rscale>  4 0.22048602E+03</rscale>
<asrwt>0</asrwt>
<pdfrwt beam="1">  1       21 0.73569005E-01 0.22048602E+03</pdfrwt>
<pdfrwt beam="2">  1        2 0.10738076E+00 0.22048602E+03</pdfrwt>
<totfact> 0.86736902E+02</totfact>
</mgrwt>
</event>
