<event>
 5    0  0.3040647E+000  0.3169333E+03  0.7546771E-02  0.1077069E+00
         21   -1    0    0  501  502  0.00000000000E+00  0.00000000000E+00  0.19395418346E+03  0.19395418346E+03  0.00000000000E+00 0. -1.
         -1   -1    0    0    0  501 -0.00000000000E+00 -0.00000000000E+00 -0.76127431263E+03  0.76127431263E+03  0.00000000000E+00 0. -1.
         25    1    1    2    0    0  0.31717637035E+03  0.48848453180E+02 -0.10766627529E+03  0.36083798043E+03  0.12500000000E+03 0.  0.
         21    1    1    2  503  502 -0.25418844856E+03 -0.44825155963E+02 -0.19820874364E+03  0.32543473699E+03  0.00000000000E+00 0. -1.
         -1    1    1    2    0  503 -0.62987921785E+02 -0.40232972175E+01 -0.26144511024E+03  0.26895577867E+03  0.00000000000E+00 0. -1.
<mgrwt>
<rscale>  4 0.31693332E+03</rscale>
<asrwt>0</asrwt>
<pdfrwt beam="1">  1       21 0.29839105E-01 0.31693332E+03</pdfrwt>
<pdfrwt beam="2">  1       -1 0.11711913E+00 0.31693332E+03</pdfrwt>
<totfact> 0.67985804E+02</totfact>
</mgrwt>
</event>
<event>
 5    0  0.3040647E+000  0.2086849E+03  0.7546771E-02  0.1142612E+00
          2   -1    0    0  502    0 -0.00000000000E+00  0.00000000000E+00  0.22128615446E+03  0.22128615446E+03  0.00000000000E+00 0. -1.
         21   -1    0    0  503  502  0.00000000000E+00 -0.00000000000E+00 -0.12337089975E+04  0.12337089975E+04  0.00000000000E+00 0. -1.
         25    1    1    2    0    0 -0.18794421469E+03 -0.10024093831E+03 -0.13886151321E+03  0.28333512560E+03  0.12500000000E+03 0.  0.
         21    1    1    2  503  501  0.66950071236E+02 -0.23372657561E+01 -0.97893535659E+03  0.98122485050E+03  0.00000000000E+00 0. -1.
          2    1    1    2  501    0  0.12099414346E+03  0.10257820407E+03  0.10537402674E+03  0.19043517588E+03  0.00000000000E+00 0. -1.
<mgrwt>
<rscale>  4 0.20868492E+03</rscale>
<asrwt>0</asrwt>
<pdfrwt beam="1">  1       21 0.18980138E+00 0.20868492E+03</pdfrwt>
<pdfrwt beam="2">  1        2 0.34044024E-01 0.20868492E+03</pdfrwt>
<totfact> 0.29075229E+02</totfact>
</mgrwt>
</event>
<event>
 5    0  0.3040647E+000  0.2192165E+03  0.7546771E-02  0.1134469E+00
          1   -1    0    0  502    0 -0.00000000000E+00  0.00000000000E+00  0.59407397246E+03  0.59407397246E+03  0.00000000000E+00 0. -1.
         21   -1    0    0  503  502  0.00000000000E+00 -0.00000000000E+00 -0.11064946088E+03  0.11064946088E+03  0.00000000000E+00 0. -1.
         25    1    1    2    0    0  0.22137802352E+03  0.35414218093E+02  0.19433514785E+03  0.32195270744E+03  0.12500000000E+03 0.  0.
         21    1    1    2  503  501 -0.15220029015E+03 -0.28110992436E+02  0.10786169813E+03  0.18865127124E+03  0.00000000000E+00 0. -1.
          1    1    1    2  501    0 -0.69177733368E+02 -0.73032256571E+01  0.18122766560E+03  0.19411945466E+03  0.00000000000E+00 0. -1.
<mgrwt>
<rscale>  4 0.21921648E+03</rscale>
<asrwt>0</asrwt>
<pdfrwt beam="1">  1       21 0.17022994E-01 0.21921648E+03</pdfrwt>
<pdfrwt beam="2">  1        1 0.91395994E-01 0.21921648E+03</pdfrwt>
<totfact> 0.12242958E+04</totfact>
</mgrwt>
</event>
<event>
 5    0  0.3040647E+000  0.3862622E+03  0.7546771E-02  0.1048643E+00
         21   -1    0    0  503  502  0.00000000000E+00  0.00000000000E+00  0.83489100654E+03  0.83489100654E+03  0.00000000000E+00 0.  1.
          2   -1    0    0  502    0 -0.00000000000E+00 -0.00000000000E+00 -0.22842368713E+04  0.22842368713E+04  0.00000000000E+00 0.  1.
         25    1    1    2    0    0 -0.16472579080E+03 -0.25049614855E+03 -0.12721430262E+03  0.34884292365E+03  0.12500000000E+03 0.  0.
         21    1    1    2  503  501 -0.45253637275E+02 -0.61059995933E+02  0.70477004846E+03  0.70885614620E+03  0.00000000000E+00 0.  1.
          2    1    1    2  501    0  0.20997942807E+03  0.31155614448E+03 -0.20269016106E+04  0.20614288080E+04  0.00000000000E+00 0.  1.
<mgrwt>
<rscale>  4 0.38626224E+03</rscale>
<asrwt>0</asrwt>
<pdfrwt beam="1">  1       21 0.12844477E+00 0.38626224E+03</pdfrwt>
<pdfrwt beam="2">  1        2 0.35142106E+00 0.38626224E+03</pdfrwt>
<totfact> 0.25908487E+01</totfact>
</mgrwt>
</event>
<event>
 5    0  0.3040647E+000  0.2589216E+03  0.7546771E-02  0.1107793E+00
          2   -1    0    0  502    0 -0.00000000000E+00  0.00000000000E+00  0.36277708970E+04  0.36277708970E+04  0.00000000000E+00 0. -1.
         21   -1    0    0  503  502  0.00000000000E+00 -0.00000000000E+00 -0.66420906840E+03  0.66420906840E+03  0.00000000000E+00 0.  1.
         25    1    1    2    0    0  0.79172928320E+02 -0.25096054385E+03  0.21947660879E+04  0.22140173278E+04  0.12500000000E+03 0.  0.
         21    1    1    2  503  501 -0.73040615091E+02  0.47958580152E+02 -0.64437512058E+03  0.65027244512E+03  0.00000000000E+00 0.  1.
          2    1    1    2  501    0 -0.61323132296E+01  0.20300196370E+03  0.14131708613E+04  0.14276901925E+04  0.00000000000E+00 0. -1.
<mgrwt>
<rscale>  4 0.25892159E+03</rscale>
<asrwt>0</asrwt>
<pdfrwt beam="1">  1       21 0.10218601E+00 0.25892159E+03</pdfrwt>
<pdfrwt beam="2">  1        2 0.55811859E+00 0.25892159E+03</pdfrwt>
<totfact> 0.79486794E+00</totfact>
</mgrwt>
</event>
<event>
 5    0  0.3040647E+000  0.3654424E+03  0.7546771E-02  0.1056449E+00
         21   -1    0    0  503  502  0.00000000000E+00  0.00000000000E+00  0.37833703370E+03  0.37833703370E+03  0.00000000000E+00 0. -1.
          2   -1    0    0  502    0 -0.00000000000E+00 -0.00000000000E+00 -0.12867355463E+04  0.12867355463E+04  0.00000000000E+00 0.  1.
         25    1    1    2    0    0 -0.28732456128E+03  0.19430918428E+03  0.24529879881E+03  0.44284078777E+03  0.12500000000E+03 0.  0.
         21    1    1    2  503  501  0.58516912344E+02  0.98491013844E+01 -0.52817242657E+02  0.79441141421E+02  0.00000000000E+00 0. -1.
          2    1    1    2  501    0  0.22880764893E+03 -0.20415828567E+03 -0.11008800688E+04  0.11427906509E+04  0.00000000000E+00 0.  1.
<mgrwt>
<rscale>  4 0.36544245E+03</rscale>
<asrwt>0</asrwt>
<pdfrwt beam="1">  1       21 0.58205698E-01 0.36544245E+03</pdfrwt>
<pdfrwt beam="2">  1        2 0.19795931E+00 0.36544245E+03</pdfrwt>
<totfact> 0.57967081E+02</totfact>
</mgrwt>
</event>
<event>
 5    0  0.3040647E+000  0.2635443E+03  0.7546771E-02  0.1105032E+00
          2   -1    0    0  502    0 -0.00000000000E+00  0.00000000000E+00  0.16208800735E+04  0.16208800735E+04  0.00000000000E+00 0. -1.
         21   -1    0    0  503  502  0.00000000000E+00 -0.00000000000E+00 -0.11218329625E+03  0.11218329625E+03  0.00000000000E+00 0. -1.
         25    1    1    2    0    0 -0.25114546053E+03 -0.13663844914E+02  0.57265825999E+03  0.63782695595E+03  0.12500000000E+03 0.  0.
         21    1    1    2  503  501  0.32947144168E+02  0.81716854550E+02 -0.37111199277E+02  0.95605437807E+02  0.00000000000E+00 0. -1.
          2    1    1    2  501    0  0.21819831636E+03 -0.68053009636E+02  0.97314971657E+03  0.99963097603E+03  0.00000000000E+00 0. -1.
<mgrwt>
<rscale>  4 0.26354426E+03</rscale>
<asrwt>0</asrwt>
<pdfrwt beam="1">  1       21 0.17258970E-01 0.26354426E+03</pdfrwt>
<pdfrwt beam="2">  1        2 0.24936615E+00 0.26354426E+03</pdfrwt>
<totfact> 0.44645796E+03</totfact>
</mgrwt>
</event>
<event>
 5    0  0.3040647E+000  0.2401734E+03  0.7546771E-02  0.1119677E+00
         -4   -1    0    0    0  501 -0.00000000000E+00  0.00000000000E+00  0.21523204962E+04  0.21523204962E+04  0.00000000000E+00 0.  1.
         21   -1    0    0  501  502  0.00000000000E+00 -0.00000000000E+00 -0.23449480798E+03  0.23449480798E+03  0.00000000000E+00 0.  1.
         25    1    1    2    0    0  0.10592454503E+02 -0.22179391726E+03 -0.90901262377E+02  0.27054164435E+03  0.12500000000E+03 0.  0.
         21    1    1    2  503  502 -0.11647420961E+02  0.17696294521E+03  0.93428975516E+02  0.20045079162E+03  0.00000000000E+00 0.  1.
         -4    1    1    2    0  503  0.10549664587E+01  0.44830972046E+02  0.19152979751E+04  0.19158228682E+04  0.00000000000E+00 0.  1.
<mgrwt>
<rscale>  4 0.24017341E+03</rscale>
<asrwt>0</asrwt>
<pdfrwt beam="1">  1       21 0.36076126E-01 0.24017341E+03</pdfrwt>
<pdfrwt beam="2">  1       -4 0.33112622E+00 0.24017341E+03</pdfrwt>
<totfact> 0.73116505E+00</totfact>
</mgrwt>
</event>
<event>
 5    0  0.3040647E+000  0.2663256E+03  0.7546771E-02  0.1103401E+00
         -3   -1    0    0    0  501 -0.00000000000E+00  0.00000000000E+00  0.55052669389E+03  0.55052669389E+03  0.00000000000E+00 0.  1.
         21   -1    0    0  501  502  0.00000000000E+00 -0.00000000000E+00 -0.86394749158E+03  0.86394749158E+03  0.00000000000E+00 0. -1.
         25    1    1    2    0    0 -0.11312042264E+03  0.18395613518E+03  0.95828212792E+02  0.26729035908E+03  0.12500000000E+03 0.  0.
         21    1    1    2  503  502 -0.36372331668E+02  0.97414341041E+01 -0.73711919103E+03  0.73808030988E+03  0.00000000000E+00 0. -1.
         -3    1    1    2    0  503  0.14949275430E+03 -0.19369756929E+03  0.32787018055E+03  0.40910351652E+03  0.00000000000E+00 0.  1.
<mgrwt>
<rscale>  4 0.26632558E+03</rscale>
<asrwt>0</asrwt>
<pdfrwt beam="1">  1       21 0.13291500E+00 0.26632558E+03</pdfrwt>
<pdfrwt beam="2">  1       -3 0.84696415E-01 0.26632558E+03</pdfrwt>
<totfact> 0.25565466E+01</totfact>
</mgrwt>
</event>
<event>
 5    0  0.3653351E+000  0.3883233E+03  0.7546771E-02  0.1047900E+00
         21   -1    0    0  503  502  0.00000000000E+00  0.00000000000E+00  0.22920210845E+03  0.22920210845E+03  0.00000000000E+00 0. -1.
          2   -1    0    0  502    0 -0.00000000000E+00 -0.00000000000E+00 -0.74257697883E+03  0.74257697883E+03  0.00000000000E+00 0. -1.
         25    1    1    2    0    0 -0.34160551890E+03 -0.14652387837E+03 -0.12391180165E+03  0.41126963426E+03  0.12500000000E+03 0.  0.
         21    1    1    2  503  501  0.13662043063E+02 -0.15568816093E+02  0.62274663283E+01  0.21629165311E+02  0.00000000000E+00 0.  1.
          2    1    1    2  501    0  0.32794347584E+03  0.16209269447E+03 -0.39569053506E+03  0.53888028771E+03  0.00000000000E+00 0. -1.
<mgrwt>
<rscale>  4 0.38832329E+03</rscale>
<asrwt>0</asrwt>
<pdfrwt beam="1">  1       21 0.35261863E-01 0.38832329E+03</pdfrwt>
<pdfrwt beam="2">  1        2 0.11424261E+00 0.38832329E+03</pdfrwt>
<totfact> 0.36097108E+03</totfact>
</mgrwt>
</event>
<event>
 5    0  0.3040647E+000  0.2522815E+03  0.7546771E-02  0.1111871E+00
         21   -1    0    0  503  502  0.00000000000E+00  0.00000000000E+00  0.90592305932E+03  0.90592305932E+03  0.00000000000E+00 0.  1.
          1   -1    0    0  502    0 -0.00000000000E+00 -0.00000000000E+00 -0.90426872661E+03  0.90426872661E+03  0.00000000000E+00 0. -1.
         25    1    1    2    0    0 -0.17705628557E+03 -0.13156751648E+03  0.85758852188E+03  0.89428295998E+03  0.12500000000E+03 0.  0.
         21    1    1    2  503  501  0.66537894006E+02  0.23160904730E+02 -0.31690669477E+02  0.77252944142E+02  0.00000000000E+00 0.  1.
          1    1    1    2  501    0  0.11051839156E+03  0.10840661175E+03 -0.82424351969E+03  0.83865588181E+03  0.00000000000E+00 0. -1.
<mgrwt>
<rscale>  4 0.25228153E+03</rscale>
<asrwt>0</asrwt>
<pdfrwt beam="1">  1       21 0.13937278E+00 0.25228153E+03</pdfrwt>
<pdfrwt beam="2">  1        1 0.13911826E+00 0.25228153E+03</pdfrwt>
<totfact> 0.73150910E+01</totfact>
</mgrwt>
</event>
<event>
 5    0  0.3040647E+000  0.3449948E+03  0.7546771E-02  0.1064688E+00
         21   -1    0    0  503  502  0.00000000000E+00  0.00000000000E+00  0.11469845104E+03  0.11469845104E+03  0.00000000000E+00 0. -1.
          2   -1    0    0  502    0 -0.00000000000E+00 -0.00000000000E+00 -0.11110800766E+04  0.11110800766E+04  0.00000000000E+00 0. -1.
         25    1    1    2    0    0 -0.16957634622E+03 -0.25842749742E+03 -0.44261302189E+03  0.55414095298E+03  0.12500000000E+03 0.  0.
         21    1    1    2  503  501 -0.19975606298E+02 -0.13935518368E+02  0.18985677777E+01  0.24430065059E+02  0.00000000000E+00 0. -1.
          2    1    1    2  501    0  0.18955195252E+03  0.27236301579E+03 -0.55566717148E+03  0.64720750964E+03  0.00000000000E+00 0. -1.
<mgrwt>
<rscale>  4 0.34499484E+03</rscale>
<asrwt>0</asrwt>
<pdfrwt beam="1">  1       21 0.17645916E-01 0.34499484E+03</pdfrwt>
<pdfrwt beam="2">  1        2 0.17093539E+00 0.34499484E+03</pdfrwt>
<totfact> 0.80224250E+03</totfact>
</mgrwt>
</event>
<event>
 5    0  0.3040647E+000  0.2272223E+03  0.7546771E-02  0.1128610E+00
         -3   -1    0    0    0  501 -0.00000000000E+00  0.00000000000E+00  0.16822929910E+02  0.16822929910E+02  0.00000000000E+00 0. -1.
         21   -1    0    0  501  502  0.00000000000E+00 -0.00000000000E+00 -0.33379217542E+04  0.33379217542E+04  0.00000000000E+00 0. -1.
         25    1    1    2    0    0  0.11761754313E+03 -0.16694329051E+03 -0.13083434587E+04  0.13300720111E+04  0.12500000000E+03 0.  0.
         21    1    1    2  503  502 -0.24696512708E+02  0.18786713715E+02 -0.65017984591E+03  0.65091988016E+03  0.00000000000E+00 0. -1.
         -3    1    1    2    0  503 -0.92921030422E+02  0.14815657679E+03 -0.13625755197E+04  0.13737527929E+04  0.00000000000E+00 0. -1.
<mgrwt>
<rscale>  4 0.22722228E+03</rscale>
<asrwt>0</asrwt>
<pdfrwt beam="1">  1       21 0.51352614E+00 0.22722228E+03</pdfrwt>
<pdfrwt beam="2">  1       -3 0.25881445E-02 0.22722228E+03</pdfrwt>
<totfact> 0.46085446E+01</totfact>
</mgrwt>
</event>
<event>
 5    0  0.3040647E+000  0.1975712E+03  0.7546771E-02  0.1151805E+00
         21   -1    0    0  501  502  0.00000000000E+00  0.00000000000E+00  0.71446516640E+03  0.71446516640E+03  0.00000000000E+00 0. -1.
         -3   -1    0    0    0  501 -0.00000000000E+00 -0.00000000000E+00 -0.64348551384E+03  0.64348551384E+03  0.00000000000E+00 0. -1.
         25    1    1    2    0    0 -0.97521468130E+02  0.25110072744E+03 -0.81724624061E+01  0.29707541334E+03  0.12500000000E+03 0.  0.
         21    1    1    2  503  502  0.11420088706E+02 -0.14591189328E+03  0.55086005462E+03  0.56997148947E+03  0.00000000000E+00 0. -1.
         -3    1    1    2    0  503  0.86101379424E+02 -0.10518883416E+03 -0.47170793965E+03  0.49090377743E+03  0.00000000000E+00 0. -1.
<mgrwt>
<rscale>  4 0.19757121E+03</rscale>
<asrwt>0</asrwt>
<pdfrwt beam="1">  1       21 0.10991772E+00 0.19757121E+03</pdfrwt>
<pdfrwt beam="2">  1       -3 0.98997771E-01 0.19757121E+03</pdfrwt>
<totfact> 0.29868727E+01</totfact>
</mgrwt>
</event>
<event>
 5    0  0.3040647E+000  0.5617973E+03  0.7546771E-02  0.9987996E-01
         21   -1    0    0  503  502  0.00000000000E+00  0.00000000000E+00  0.31773334733E+03  0.31773334733E+03  0.00000000000E+00 0. -1.
          1   -1    0    0  502    0 -0.00000000000E+00 -0.00000000000E+00 -0.14794350772E+04  0.14794350772E+04  0.00000000000E+00 0. -1.
         25    1    1    2    0    0 -0.32109044272E+03 -0.45509901364E+03 -0.11332553552E+03  0.58196379752E+03  0.12500000000E+03 0.  0.
         21    1    1    2  503  501 -0.37304081858E+02  0.72783169654E+02 -0.81566932682E+02  0.11550821969E+03  0.00000000000E+00 0.  1.
          1    1    1    2  501    0  0.35839452457E+03  0.38231584399E+03 -0.96680926163E+03  0.10996964073E+04  0.00000000000E+00 0. -1.
<mgrwt>
<rscale>  4 0.56179731E+03</rscale>
<asrwt>0</asrwt>
<pdfrwt beam="1">  1       21 0.48882053E-01 0.56179731E+03</pdfrwt>
<pdfrwt beam="2">  1        1 0.22760540E+00 0.56179731E+03</pdfrwt>
<totfact> 0.28640906E+02</totfact>
</mgrwt>
</event>
<event>
 5    0  0.3040647E+000  0.2265106E+03  0.7546771E-02  0.1129120E+00
          1   -1    0    0  502    0 -0.00000000000E+00  0.00000000000E+00  0.95137224578E+03  0.95137224578E+03  0.00000000000E+00 0. -1.
         21   -1    0    0  503  502  0.00000000000E+00 -0.00000000000E+00 -0.76090772390E+02  0.76090772390E+02  0.00000000000E+00 0. -1.
         25    1    1    2    0    0 -0.14883704620E+03 -0.17913035517E+03  0.55367327355E+03  0.61353014947E+03  0.12500000000E+03 0.  0.
         21    1    1    2  503  501  0.92212136216E+02  0.14884157162E+03  0.14949344563E+03  0.23022854253E+03  0.00000000000E+00 0. -1.
          1    1    1    2  501    0  0.56624909980E+02  0.30288783548E+02  0.17211475421E+03  0.18370432618E+03  0.00000000000E+00 0. -1.
<mgrwt>
<rscale>  4 0.22651063E+03</rscale>
<asrwt>0</asrwt>
<pdfrwt beam="1">  1       21 0.11706273E-01 0.22651063E+03</pdfrwt>
<pdfrwt beam="2">  1        1 0.14636495E+00 0.22651063E+03</pdfrwt>
<totfact> 0.11885244E+04</totfact>
</mgrwt>
</event>
<event>
 5    0  0.3040647E+000  0.2546025E+03  0.7546771E-02  0.1110430E+00
          4   -1    0    0  502    0 -0.00000000000E+00  0.00000000000E+00  0.21611967001E+03  0.21611967001E+03  0.00000000000E+00 0. -1.
         21   -1    0    0  503  502  0.00000000000E+00 -0.00000000000E+00 -0.59487014501E+03  0.59487014501E+03  0.00000000000E+00 0.  1.
         25    1    1    2    0    0 -0.18460659828E+03 -0.13721307751E+03 -0.45951099352E+03  0.52885005241E+03  0.12500000000E+03 0.  0.
         21    1    1    2  503  501 -0.98302054632E+01  0.32321992275E+02 -0.20067005825E+02  0.39294132474E+02  0.00000000000E+00 0. -1.
          4    1    1    2  501    0  0.19443680374E+03  0.10489108523E+03  0.10082752434E+03  0.24284563013E+03  0.00000000000E+00 0. -1.
<mgrwt>
<rscale>  4 0.25460253E+03</rscale>
<asrwt>0</asrwt>
<pdfrwt beam="1">  1       21 0.91518484E-01 0.25460253E+03</pdfrwt>
<pdfrwt beam="2">  1        4 0.33249180E-01 0.25460253E+03</pdfrwt>
<totfact> 0.36772691E+02</totfact>
</mgrwt>
</event>
<event>
 5    0  0.3040647E+000  0.2242772E+03  0.7546771E-02  0.1130734E+00
         21   -1    0    0  503  502  0.00000000000E+00  0.00000000000E+00  0.20128208831E+04  0.20128208831E+04  0.00000000000E+00 0.  1.
          1   -1    0    0  502    0 -0.00000000000E+00 -0.00000000000E+00 -0.18313533921E+04  0.18313533921E+04  0.00000000000E+00 0. -1.
         25    1    1    2    0    0  0.21700304872E+03 -0.11489013550E+03 -0.86922882155E+02  0.28891288277E+03  0.12500000000E+03 0.  0.
         21    1    1    2  503  501 -0.43903258385E+02  0.54472231848E+02  0.19060687572E+04  0.19073523081E+04  0.00000000000E+00 0.  1.
          1    1    1    2  501    0 -0.17309979034E+03  0.60417903652E+02 -0.16376783840E+04  0.16479090842E+04  0.00000000000E+00 0. -1.
<mgrwt>
<rscale>  4 0.22427723E+03</rscale>
<asrwt>0</asrwt>
<pdfrwt beam="1">  1       21 0.30966475E+00 0.22427723E+03</pdfrwt>
<pdfrwt beam="2">  1        1 0.28174668E+00 0.22427723E+03</pdfrwt>
<totfact> 0.14091737E+00</totfact>
</mgrwt>
</event>
<event>
 5    0  0.3040647E+000  0.3146486E+03  0.7546771E-02  0.1078139E+00
         21   -1    0    0  503  502  0.00000000000E+00  0.00000000000E+00  0.13336603862E+03  0.13336603862E+03  0.00000000000E+00 0. -1.
          2   -1    0    0  502    0 -0.00000000000E+00 -0.00000000000E+00 -0.21300557508E+04  0.21300557508E+04  0.00000000000E+00 0.  1.
         25    1    1    2    0    0 -0.34617651500E+03 -0.44185900118E+02 -0.34836540013E+03  0.50869836378E+03  0.12500000000E+03 0.  0.
         21    1    1    2  503  501  0.86455085071E+02 -0.63657746611E+02 -0.29068131771E+02  0.11122835395E+03  0.00000000000E+00 0. -1.
          2    1    1    2  501    0  0.25972142993E+03  0.10784364673E+03 -0.16192561803E+04  0.16434950717E+04  0.00000000000E+00 0.  1.
<mgrwt>
<rscale>  4 0.31464863E+03</rscale>
<asrwt>0</asrwt>
<pdfrwt beam="1">  1       21 0.20517851E-01 0.31464863E+03</pdfrwt>
<pdfrwt beam="2">  1        2 0.32770090E+00 0.31464863E+03</pdfrwt>
<totfact> 0.17043041E+03</totfact>
</mgrwt>
</event>
<event>
 5    0  0.3040647E+000  0.2345763E+03  0.7546771E-02  0.1123460E+00
         21   -1    0    0  503  502  0.00000000000E+00  0.00000000000E+00  0.15845741699E+04  0.15845741699E+04  0.00000000000E+00 0.  1.
          2   -1    0    0  502    0 -0.00000000000E+00 -0.00000000000E+00 -0.61488052841E+03  0.61488052841E+03  0.00000000000E+00 0.  1.
         25    1    1    2    0    0 -0.64767651673E+01  0.21683570516E+03  0.13358214096E+04  0.13590818628E+04  0.12500000000E+03 0.  0.
         21    1    1    2  503  501 -0.26476228371E+02 -0.15626665817E+03  0.20834409281E+03  0.26177761580E+03  0.00000000000E+00 0.  1.
          2    1    1    2  501    0  0.32952993538E+02 -0.60569046994E+02 -0.57447186092E+03  0.57859521968E+03  0.00000000000E+00 0.  1.
<mgrwt>
<rscale>  4 0.23457629E+03</rscale>
<asrwt>0</asrwt>
<pdfrwt beam="1">  1       21 0.24378064E+00 0.23457629E+03</pdfrwt>
<pdfrwt beam="2">  1        2 0.94597005E-01 0.23457629E+03</pdfrwt>
<totfact> 0.42620109E+01</totfact>
</mgrwt>
</event>
<event>
 5    0  0.3040647E+000  0.2302940E+03  0.7546771E-02  0.1126433E+00
         21   -1    0    0  501  502  0.00000000000E+00  0.00000000000E+00  0.24523778234E+03  0.24523778234E+03  0.00000000000E+00 0. -1.
         -4   -1    0    0    0  501 -0.00000000000E+00 -0.00000000000E+00 -0.31458487581E+03  0.31458487581E+03  0.00000000000E+00 0. -1.
         25    1    1    2    0    0 -0.15786790653E+03 -0.16218403977E+03 -0.13083085655E+02  0.25888627967E+03  0.12500000000E+03 0.  0.
         21    1    1    2  503  502  0.18957683601E+02  0.46353898893E+02  0.65832075436E+02  0.82716019406E+02  0.00000000000E+00 0. -1.
         -4    1    1    2    0  503  0.13891022293E+03  0.11583014088E+03 -0.12209608325E+03  0.21822035908E+03  0.00000000000E+00 0. -1.
<mgrwt>
<rscale>  4 0.23029404E+03</rscale>
<asrwt>0</asrwt>
<pdfrwt beam="1">  1       21 0.37728890E-01 0.23029404E+03</pdfrwt>
<pdfrwt beam="2">  1       -4 0.48397673E-01 0.23029404E+03</pdfrwt>
<totfact> 0.11820627E+03</totfact>
</mgrwt>
</event>
<event>
 5    0  0.3040647E+000  0.2223508E+03  0.7546771E-02  0.1132142E+00
          2   -1    0    0  502    0 -0.00000000000E+00  0.00000000000E+00  0.94782031279E+03  0.94782031279E+03  0.00000000000E+00 0. -1.
         21   -1    0    0  503  502  0.00000000000E+00 -0.00000000000E+00 -0.62995685518E+03  0.62995685518E+03  0.00000000000E+00 0.  1.
         25    1    1    2    0    0 -0.18757126754E+03  0.84954221436E+02 -0.33103188362E+03  0.40939871534E+03  0.12500000000E+03 0.  0.
         21    1    1    2  503  501  0.18278949702E+02 -0.14571634502E+02 -0.24994225449E+03  0.25103303192E+03  0.00000000000E+00 0.  1.
          2    1    1    2  501    0  0.16929231783E+03 -0.70382586934E+02  0.89883759572E+03  0.91734542071E+03  0.00000000000E+00 0. -1.
<mgrwt>
<rscale>  4 0.22235078E+03</rscale>
<asrwt>0</asrwt>
<pdfrwt beam="1">  1       21 0.96916439E-01 0.22235078E+03</pdfrwt>
<pdfrwt beam="2">  1        2 0.14581851E+00 0.22235078E+03</pdfrwt>
<totfact> 0.31106248E+02</totfact>
</mgrwt>
</event>
<event>
 5    0  0.3040647E+000  0.2208754E+03  0.7546771E-02  0.1133232E+00
         21   -1    0    0  501  502  0.00000000000E+00  0.00000000000E+00  0.15944053467E+04  0.15944053467E+04  0.00000000000E+00 0.  1.
         -4   -1    0    0    0  501 -0.00000000000E+00 -0.00000000000E+00 -0.71170756865E+02  0.71170756865E+02  0.00000000000E+00 0. -1.
         25    1    1    2    0    0 -0.11323464281E+03 -0.19591729661E+03  0.85774766311E+03  0.89585809424E+03  0.12500000000E+03 0.  0.
         21    1    1    2  503  502  0.45445926132E+02  0.34841522905E+02  0.56547031559E+03  0.56836250908E+03  0.00000000000E+00 0.  1.
         -4    1    1    2    0  503  0.67788716677E+02  0.16107577370E+03  0.10001661118E+03  0.20135550028E+03  0.00000000000E+00 0. -1.
<mgrwt>
<rscale>  4 0.22087539E+03</rscale>
<asrwt>0</asrwt>
<pdfrwt beam="1">  1       21 0.24529310E+00 0.22087539E+03</pdfrwt>
<pdfrwt beam="2">  1       -4 0.10949348E-01 0.22087539E+03</pdfrwt>
<totfact> 0.19126881E+02</totfact>
</mgrwt>
</event>
<event>
 5    0  0.3040647E+000  0.3082479E+03  0.7546771E-02  0.1081189E+00
         21   -1    0    0  503  502  0.00000000000E+00  0.00000000000E+00  0.89793098088E+02  0.89793098088E+02  0.00000000000E+00 0.  1.
          2   -1    0    0  502    0 -0.00000000000E+00 -0.00000000000E+00 -0.14557760508E+04  0.14557760508E+04  0.00000000000E+00 0.  1.
         25    1    1    2    0    0  0.24751844777E+03  0.11418678744E+03 -0.39556664051E+03  0.49638893168E+03  0.12500000000E+03 0.  0.
         21    1    1    2  503  501 -0.19117271912E+02  0.60873818970E+02 -0.40070385092E+02  0.75344062027E+02  0.00000000000E+00 0.  1.
          2    1    1    2  501    0 -0.22840117585E+03 -0.17506060641E+03 -0.93034592709E+03  0.97383615516E+03  0.00000000000E+00 0.  1.
<mgrwt>
<rscale>  4 0.30824795E+03</rscale>
<asrwt>0</asrwt>
<pdfrwt beam="1">  1       21 0.13814323E-01 0.30824795E+03</pdfrwt>
<pdfrwt beam="2">  1        2 0.22396554E+00 0.30824795E+03</pdfrwt>
<totfact> 0.81340166E+03</totfact>
</mgrwt>
</event>
<event>
 5    0  0.3040647E+000  0.3125846E+03  0.7546771E-02  0.1079114E+00
         21   -1    0    0  503  502  0.00000000000E+00  0.00000000000E+00  0.35530618148E+03  0.35530618148E+03  0.00000000000E+00 0.  1.
          2   -1    0    0  502    0 -0.00000000000E+00 -0.00000000000E+00 -0.44015450808E+03  0.44015450808E+03  0.00000000000E+00 0.  1.
         25    1    1    2    0    0 -0.23317937618E+03 -0.21817835701E+03  0.13656299525E+03  0.36911904396E+03  0.12500000000E+03 0.  0.
         21    1    1    2  503  501  0.18578751406E+02  0.40621637160E+02  0.27785450585E+02  0.52605310317E+02  0.00000000000E+00 0.  1.
          2    1    1    2  501    0  0.21460062477E+03  0.17755671985E+03 -0.24919677243E+03  0.37373633528E+03  0.00000000000E+00 0.  1.
<mgrwt>
<rscale>  4 0.31258457E+03</rscale>
<asrwt>0</asrwt>
<pdfrwt beam="1">  1       21 0.54662490E-01 0.31258457E+03</pdfrwt>
<pdfrwt beam="2">  1        2 0.67716077E-01 0.31258457E+03</pdfrwt>
<totfact> 0.27272518E+03</totfact>
</mgrwt>
</event>
<event>
 5    0  0.3040647E+000  0.3971943E+03  0.7546771E-02  0.1044756E+00
          2   -1    0    0  502    0 -0.00000000000E+00  0.00000000000E+00  0.19913140451E+04  0.19913140451E+04  0.00000000000E+00 0. -1.
         21   -1    0    0  503  502  0.00000000000E+00 -0.00000000000E+00 -0.25073236633E+03  0.25073236633E+03  0.00000000000E+00 0. -1.
         25    1    1    2    0    0 -0.36595944022E+03  0.39969484383E+02 -0.59109708467E+02  0.39324652472E+03  0.12500000000E+03 0.  0.
         21    1    1    2  503  501 -0.71784396375E+01  0.19359995614E+02  0.17704123518E+02  0.27198812756E+02  0.00000000000E+00 0. -1.
          2    1    1    2  501    0  0.37313787985E+03 -0.59329479997E+02  0.17819872637E+04  0.18216010739E+04  0.00000000000E+00 0. -1.
<mgrwt>
<rscale>  4 0.39719428E+03</rscale>
<asrwt>0</asrwt>
<pdfrwt beam="1">  1       21 0.38574212E-01 0.39719428E+03</pdfrwt>
<pdfrwt beam="2">  1        2 0.30635600E+00 0.39719428E+03</pdfrwt>
<totfact> 0.56663572E+02</totfact>
</mgrwt>
</event>
<event>
 5    0  0.3040647E+000  0.3196734E+03  0.7546771E-02  0.1075800E+00
         21   -1    0    0  501  502  0.00000000000E+00  0.00000000000E+00  0.36135245443E+03  0.36135245443E+03  0.00000000000E+00 0. -1.
         -3   -1    0    0    0  501 -0.00000000000E+00 -0.00000000000E+00 -0.33702807852E+03  0.33702807852E+03  0.00000000000E+00 0. -1.
         25    1    1    2    0    0  0.81292915590E+02 -0.28677193670E+03  0.85017672722E+02  0.33421503030E+03  0.12500000000E+03 0.  0.
         21    1    1    2  503  502 -0.23157547383E+02 -0.23255020304E-01  0.46963313124E+02  0.52362441895E+02  0.00000000000E+00 0. -1.
         -3    1    1    2    0  503 -0.58135368207E+02  0.28679519172E+03 -0.10765660994E+03  0.31180306075E+03  0.00000000000E+00 0. -1.
<mgrwt>
<rscale>  4 0.31967345E+03</rscale>
<asrwt>0</asrwt>
<pdfrwt beam="1">  1       21 0.55592686E-01 0.31967345E+03</pdfrwt>
<pdfrwt beam="2">  1       -3 0.51850473E-01 0.31967345E+03</pdfrwt>
<totfact> 0.54763879E+02</totfact>
</mgrwt>
</event>
<event>
 5    0  0.3040647E+000  0.2433036E+03  0.7546771E-02  0.1117611E+00
          1   -1    0    0  502    0 -0.00000000000E+00  0.00000000000E+00  0.18144021171E+03  0.18144021171E+03  0.00000000000E+00 0. -1.
         21   -1    0    0  503  502  0.00000000000E+00 -0.00000000000E+00 -0.48356724670E+03  0.48356724670E+03  0.00000000000E+00 0.  1.
         25    1    1    2    0    0 -0.21952193128E+03 -0.86875146472E+02 -0.21119740224E+03  0.34053856184E+03  0.12500000000E+03 0.  0.
         21    1    1    2  503  501  0.34214760834E+02  0.11515570165E+02 -0.11726702505E+03  0.12269805776E+03  0.00000000000E+00 0.  1.
          1    1    1    2  501    0  0.18530717044E+03  0.75359576307E+02  0.26337392302E+02  0.20177083881E+03  0.00000000000E+00 0. -1.
<mgrwt>
<rscale>  4 0.24330357E+03</rscale>
<asrwt>0</asrwt>
<pdfrwt beam="1">  1       21 0.74394960E-01 0.24330357E+03</pdfrwt>
<pdfrwt beam="2">  1        1 0.27913879E-01 0.24330357E+03</pdfrwt>
<totfact> 0.28621740E+03</totfact>
</mgrwt>
</event>
<event>
 5    0  0.3040647E+000  0.3627627E+03  0.7546771E-02  0.1057495E+00
         21   -1    0    0  501  502  0.00000000000E+00  0.00000000000E+00  0.10433521672E+04  0.10433521672E+04  0.00000000000E+00 0.  1.
         -2   -1    0    0    0  501 -0.00000000000E+00 -0.00000000000E+00 -0.73897489812E+03  0.73897489812E+03  0.00000000000E+00 0. -1.
         25    1    1    2    0    0 -0.33290500530E+03  0.62358074119E+02  0.77790696907E+03  0.85760044571E+03  0.12500000000E+03 0.  0.
         21    1    1    2  503  502 -0.65013515853E+01 -0.32488215746E+02  0.18250616079E+03  0.18548921926E+03  0.00000000000E+00 0.  1.
         -2    1    1    2    0  503  0.33940635688E+03 -0.29869858373E+02 -0.65603586075E+03  0.73923740038E+03  0.00000000000E+00 0. -1.
<mgrwt>
<rscale>  4 0.36276269E+03</rscale>
<asrwt>0</asrwt>
<pdfrwt beam="1">  1       21 0.16051572E+00 0.36276269E+03</pdfrwt>
<pdfrwt beam="2">  1       -2 0.11368845E+00 0.36276269E+03</pdfrwt>
<totfact> 0.11596530E+01</totfact>
</mgrwt>
</event>
<event>
 5    0  0.3040647E+000  0.2595515E+03  0.7546771E-02  0.1107413E+00
          2   -1    0    0  502    0 -0.00000000000E+00  0.00000000000E+00  0.26452275370E+03  0.26452275370E+03  0.00000000000E+00 0. -1.
         21   -1    0    0  503  502  0.00000000000E+00 -0.00000000000E+00 -0.25643188359E+03  0.25643188359E+03  0.00000000000E+00 0. -1.
         25    1    1    2    0    0 -0.93600874534E+02  0.20731820411E+03  0.86316105639E+02  0.27352775282E+03  0.12500000000E+03 0.  0.
         21    1    1    2  503  501  0.45932807946E+01 -0.20439703055E+02 -0.27028702190E+02  0.34196935996E+02  0.00000000000E+00 0. -1.
          2    1    1    2  501    0  0.89007593739E+02 -0.18687850106E+03 -0.51196533333E+02  0.21322994848E+03  0.00000000000E+00 0. -1.
<mgrwt>
<rscale>  4 0.25955146E+03</rscale>
<asrwt>0</asrwt>
<pdfrwt beam="1">  1       21 0.39451059E-01 0.25955146E+03</pdfrwt>
<pdfrwt beam="2">  1        2 0.40695808E-01 0.25955146E+03</pdfrwt>
<totfact> 0.94817379E+03</totfact>
</mgrwt>
</event>
<event>
 5    0  0.3040647E+000  0.2619206E+03  0.7546771E-02  0.1105995E+00
          2   -1    0    0  502    0 -0.00000000000E+00  0.00000000000E+00  0.18367355981E+04  0.18367355981E+04  0.00000000000E+00 0.  1.
         21   -1    0    0  503  502  0.00000000000E+00 -0.00000000000E+00 -0.26197415189E+03  0.26197415189E+03  0.00000000000E+00 0. -1.
         25    1    1    2    0    0  0.18699287629E+03  0.18133343396E+03 -0.93457376643E+02  0.30365676561E+03  0.12500000000E+03 0.  0.
         21    1    1    2  503  501 -0.46449025676E+02 -0.40840987541E+00 -0.46129411799E+02  0.65464505022E+02  0.00000000000E+00 0.  1.
          2    1    1    2  501    0 -0.14054385061E+03 -0.18092502408E+03  0.17143482347E+04  0.17295884794E+04  0.00000000000E+00 0.  1.
<mgrwt>
<rscale>  4 0.26192059E+03</rscale>
<asrwt>0</asrwt>
<pdfrwt beam="1">  1       21 0.40303717E-01 0.26192059E+03</pdfrwt>
<pdfrwt beam="2">  1        2 0.28257470E+00 0.26192059E+03</pdfrwt>
<totfact> 0.66440591E+02</totfact>
</mgrwt>
</event>
<event>
 5    0  0.3040647E+000  0.2411330E+03  0.7546771E-02  0.1119040E+00
          1   -1    0    0  502    0 -0.00000000000E+00  0.00000000000E+00  0.11491040998E+04  0.11491040998E+04  0.00000000000E+00 0. -1.
         21   -1    0    0  503  502  0.00000000000E+00 -0.00000000000E+00 -0.68694312093E+02  0.68694312093E+02  0.00000000000E+00 0.  1.
         25    1    1    2    0    0  0.19381073119E+03 -0.10465243480E+03  0.52321447408E+03  0.58128574515E+03  0.12500000000E+03 0.  0.
         21    1    1    2  503  501 -0.19144580718E+02  0.11041377725E+02 -0.17767481146E+02  0.28356840078E+02  0.00000000000E+00 0.  1.
          1    1    1    2  501    0 -0.17466615047E+03  0.93611057071E+02  0.57496279475E+03  0.60815582664E+03  0.00000000000E+00 0. -1.
<mgrwt>
<rscale>  4 0.24113299E+03</rscale>
<asrwt>0</asrwt>
<pdfrwt beam="1">  1       21 0.10568356E-01 0.24113299E+03</pdfrwt>
<pdfrwt beam="2">  1        1 0.17678523E+00 0.24113299E+03</pdfrwt>
<totfact> 0.10181840E+04</totfact>
</mgrwt>
</event>
<event>
 5    0  0.3040647E+000  0.2719722E+03  0.7546771E-02  0.1100156E+00
          2   -1    0    0  502    0 -0.00000000000E+00  0.00000000000E+00  0.22628327643E+03  0.22628327643E+03  0.00000000000E+00 0. -1.
         21   -1    0    0  503  502  0.00000000000E+00 -0.00000000000E+00 -0.44229614363E+03  0.44229614363E+03  0.00000000000E+00 0. -1.
         25    1    1    2    0    0 -0.37660352884E+02 -0.22920584883E+03 -0.20598428449E+03  0.33467618495E+03  0.12500000000E+03 0.  0.
         21    1    1    2  503  501 -0.66635722574E+02 -0.14759759510E+02 -0.64511737105E+01  0.68554997382E+02  0.00000000000E+00 0. -1.
          2    1    1    2  501    0  0.10429607546E+03  0.24396560834E+03 -0.35774089958E+01  0.26534823772E+03  0.00000000000E+00 0. -1.
<mgrwt>
<rscale>  4 0.27197217E+03</rscale>
<asrwt>0</asrwt>
<pdfrwt beam="1">  1       21 0.68045560E-01 0.27197217E+03</pdfrwt>
<pdfrwt beam="2">  1        2 0.34812812E-01 0.27197217E+03</pdfrwt>
<totfact> 0.35353577E+03</totfact>
</mgrwt>
</event>
<event>
 5    0  0.3040647E+000  0.3126743E+03  0.7546771E-02  0.1079071E+00
          4   -1    0    0  502    0 -0.00000000000E+00  0.00000000000E+00  0.95466937202E+03  0.95466937202E+03  0.00000000000E+00 0.  1.
         21   -1    0    0  503  502  0.00000000000E+00 -0.00000000000E+00 -0.21715961164E+03  0.21715961164E+03  0.00000000000E+00 0.  1.
         25    1    1    2    0    0 -0.15560598594E+03 -0.25534353273E+03 -0.39550092132E+02  0.32650076931E+03  0.12500000000E+03 0.  0.
         21    1    1    2  503  501  0.20841821748E+02  0.42985958034E+01  0.42973174707E+01  0.21710052904E+02  0.00000000000E+00 0. -1.
          4    1    1    2  501    0  0.13476416419E+03  0.25104493693E+03  0.77276253505E+03  0.82361816145E+03  0.00000000000E+00 0.  1.
<mgrwt>
<rscale>  4 0.31267425E+03</rscale>
<asrwt>0</asrwt>
<pdfrwt beam="1">  1       21 0.33409172E-01 0.31267425E+03</pdfrwt>
<pdfrwt beam="2">  1        4 0.14687221E+00 0.31267425E+03</pdfrwt>
<totfact> 0.11878661E+02</totfact>
</mgrwt>
</event>
<event>
 5    0  0.3040647E+000  0.1987954E+03  0.7546771E-02  0.1150759E+00
          2   -1    0    0  502    0 -0.00000000000E+00  0.00000000000E+00  0.13020453497E+04  0.13020453497E+04  0.00000000000E+00 0. -1.
         21   -1    0    0  503  502  0.00000000000E+00 -0.00000000000E+00 -0.16486704195E+03  0.16486704195E+03  0.00000000000E+00 0. -1.
         25    1    1    2    0    0  0.56140804034E+02  0.19366759939E+03  0.59030696674E+02  0.24447607671E+03  0.12500000000E+03 0.  0.
         21    1    1    2  503  501 -0.53783528074E+02 -0.41338791908E+02 -0.49859700924E+02  0.84187608261E+02  0.00000000000E+00 0. -1.
          2    1    1    2  501    0 -0.23572759598E+01 -0.15232880748E+03  0.11280073120E+04  0.11382487067E+04  0.00000000000E+00 0. -1.
<mgrwt>
<rscale>  4 0.19879543E+03</rscale>
<asrwt>0</asrwt>
<pdfrwt beam="1">  1       21 0.25364161E-01 0.19879543E+03</pdfrwt>
<pdfrwt beam="2">  1        2 0.20031466E+00 0.19879543E+03</pdfrwt>
<totfact> 0.32933696E+03</totfact>
</mgrwt>
</event>
<event>
 5    0  0.3040647E+000  0.2252124E+03  0.7546771E-02  0.1130056E+00
         21   -1    0    0  501  502  0.00000000000E+00  0.00000000000E+00  0.35378618854E+03  0.35378618854E+03  0.00000000000E+00 0. -1.
         -1   -1    0    0    0  501 -0.00000000000E+00 -0.00000000000E+00 -0.35617796938E+03  0.35617796938E+03  0.00000000000E+00 0.  1.
         25    1    1    2    0    0  0.14072731458E+03 -0.17608534103E+03  0.45099785625E+02  0.26166622835E+03  0.12500000000E+03 0.  0.
         21    1    1    2  503  502 -0.23061267338E+02  0.40898430776E+02  0.16428519727E+03  0.17086289747E+03  0.00000000000E+00 0. -1.
         -1    1    1    2    0  503 -0.11766604724E+03  0.13518691025E+03 -0.21177676374E+03  0.27743503210E+03  0.00000000000E+00 0.  1.
<mgrwt>
<rscale>  4 0.22521235E+03</rscale>
<asrwt>0</asrwt>
<pdfrwt beam="1">  1       21 0.54428645E-01 0.22521235E+03</pdfrwt>
<pdfrwt beam="2">  1       -1 0.54796610E-01 0.22521235E+03</pdfrwt>
<totfact> 0.10088073E+03</totfact>
</mgrwt>
</event>
<event>
 5    0  0.3040647E+000  0.2986341E+03  0.7546771E-02  0.1085925E+00
          2   -1    0    0  502    0 -0.00000000000E+00  0.00000000000E+00  0.12010807026E+04  0.12010807026E+04  0.00000000000E+00 0. -1.
         21   -1    0    0  503  502  0.00000000000E+00 -0.00000000000E+00 -0.10056089186E+03  0.10056089186E+03  0.00000000000E+00 0. -1.
         25    1    1    2    0    0 -0.82282415359E+02  0.29316589520E+03  0.40928289057E+03  0.52521816658E+03  0.12500000000E+03 0.  0.
         21    1    1    2  503  501  0.12339436900E+01 -0.48502837800E+02  0.12071680317E+02  0.49997733523E+02  0.00000000000E+00 0. -1.
          2    1    1    2  501    0  0.81048471669E+02 -0.24466305740E+03  0.67916523985E+03  0.72642569437E+03  0.00000000000E+00 0. -1.
<mgrwt>
<rscale>  4 0.29863413E+03</rscale>
<asrwt>0</asrwt>
<pdfrwt beam="1">  1       21 0.15470907E-01 0.29863413E+03</pdfrwt>
<pdfrwt beam="2">  1        2 0.18478164E+00 0.29863413E+03</pdfrwt>
<totfact> 0.91717255E+03</totfact>
</mgrwt>
</event>
<event>
 5    0  0.3040647E+000  0.2781967E+03  0.7546771E-02  0.1096678E+00
          1   -1    0    0  502    0 -0.00000000000E+00  0.00000000000E+00  0.19815634810E+04  0.19815634810E+04  0.00000000000E+00 0. -1.
         21   -1    0    0  503  502  0.00000000000E+00 -0.00000000000E+00 -0.63182796814E+03  0.63182796814E+03  0.00000000000E+00 0. -1.
         25    1    1    2    0    0 -0.25262823180E+03  0.14515809096E+03  0.35910655946E+03  0.47903487965E+03  0.12500000000E+03 0.  0.
         21    1    1    2  503  501  0.54568244977E+02 -0.61178896950E+01 -0.56114604480E+03  0.56382621926E+03  0.00000000000E+00 0. -1.
          1    1    1    2  501    0  0.19805998683E+03 -0.13904020126E+03  0.15517749982E+04  0.15705303502E+04  0.00000000000E+00 0. -1.
<mgrwt>
<rscale>  4 0.27819671E+03</rscale>
<asrwt>0</asrwt>
<pdfrwt beam="1">  1       21 0.97204304E-01 0.27819671E+03</pdfrwt>
<pdfrwt beam="2">  1        1 0.30485592E+00 0.27819671E+03</pdfrwt>
<totfact> 0.32208680E+01</totfact>
</mgrwt>
</event>
<event>
 5    0  0.3040647E+000  0.2420644E+03  0.7546771E-02  0.1118425E+00
         21   -1    0    0  503  502  0.00000000000E+00  0.00000000000E+00  0.98547698871E+02  0.98547698871E+02  0.00000000000E+00 0. -1.
          2   -1    0    0  502    0 -0.00000000000E+00 -0.00000000000E+00 -0.14859960302E+04  0.14859960302E+04  0.00000000000E+00 0. -1.
         25    1    1    2    0    0 -0.18269896127E+03 -0.86936796995E+02 -0.79268143752E+02  0.25068975993E+03  0.12500000000E+03 0.  0.
         21    1    1    2  503  501  0.45562943623E+01 -0.20164608012E+02 -0.19173623608E+02  0.28195727989E+02  0.00000000000E+00 0. -1.
          2    1    1    2  501    0  0.17814266691E+03  0.10710140501E+03 -0.12890065639E+04  0.13056582411E+04  0.00000000000E+00 0. -1.
<mgrwt>
<rscale>  4 0.24206440E+03</rscale>
<asrwt>0</asrwt>
<pdfrwt beam="1">  1       21 0.15161185E-01 0.24206440E+03</pdfrwt>
<pdfrwt beam="2">  1        2 0.22861476E+00 0.24206440E+03</pdfrwt>
<totfact> 0.67389675E+03</totfact>
</mgrwt>
</event>
<event>
 5    0  0.3040647E+000  0.3317890E+03  0.7546771E-02  0.1070348E+00
          2   -1    0    0  502    0 -0.00000000000E+00  0.00000000000E+00  0.24679071654E+04  0.24679071654E+04  0.00000000000E+00 0. -1.
         21   -1    0    0  503  502  0.00000000000E+00 -0.00000000000E+00 -0.16943873235E+03  0.16943873235E+03  0.00000000000E+00 0.  1.
         25    1    1    2    0    0 -0.70519020438E+02 -0.21891333481E+03  0.28096471207E+02  0.26326866903E+03  0.12500000000E+03 0.  0.
         21    1    1    2  503  501 -0.16689291423E+02 -0.83243792750E+02  0.29523193846E+01  0.84951619581E+02  0.00000000000E+00 0. -1.
          2    1    1    2  501    0  0.87208311861E+02  0.30215712756E+03  0.22674196424E+04  0.22891256091E+04  0.00000000000E+00 0. -1.
<mgrwt>
<rscale>  4 0.33178903E+03</rscale>
<asrwt>0</asrwt>
<pdfrwt beam="1">  1       21 0.26067499E-01 0.33178903E+03</pdfrwt>
<pdfrwt beam="2">  1        2 0.37967800E+00 0.33178903E+03</pdfrwt>
<totfact> 0.70214431E+02</totfact>
</mgrwt>
</event>
<event>
 5    0  0.3040647E+000  0.4050923E+03  0.7546771E-02  0.1042031E+00
         21   -1    0    0  503  502  0.00000000000E+00  0.00000000000E+00  0.10584637669E+03  0.10584637669E+03  0.00000000000E+00 0. -1.
          2   -1    0    0  502    0 -0.00000000000E+00 -0.00000000000E+00 -0.17271396054E+04  0.17271396054E+04  0.00000000000E+00 0. -1.
         25    1    1    2    0    0  0.19099755531E+03 -0.32360308120E+03 -0.79423920262E+03  0.88749080630E+03  0.12500000000E+03 0.  0.
         21    1    1    2  503  501 -0.37993411595E+02 -0.42979317806E+02 -0.69542076841E+02  0.90148885379E+02  0.00000000000E+00 0.  1.
          2    1    1    2  501    0 -0.15300414371E+03  0.36658239901E+03 -0.75751194928E+03  0.85534629043E+03  0.00000000000E+00 0. -1.
<mgrwt>
<rscale>  4 0.40509231E+03</rscale>
<asrwt>0</asrwt>
<pdfrwt beam="1">  1       21 0.16284060E-01 0.40509231E+03</pdfrwt>
<pdfrwt beam="2">  1        2 0.26571376E+00 0.40509231E+03</pdfrwt>
<totfact> 0.41888880E+03</totfact>
</mgrwt>
</event>
<event>
 5    0  0.3040647E+000  0.2460592E+03  0.7546771E-02  0.1115821E+00
         -1   -1    0    0    0  501 -0.00000000000E+00  0.00000000000E+00  0.79065917497E+02  0.79065917497E+02  0.00000000000E+00 0.  1.
         21   -1    0    0  501  502  0.00000000000E+00 -0.00000000000E+00 -0.99691352965E+03  0.99691352965E+03  0.00000000000E+00 0.  1.
         25    1    1    2    0    0 -0.14997504339E+03 -0.14158780452E+03 -0.60458335243E+03  0.65091139955E+03  0.12500000000E+03 0.  0.
         21    1    1    2  503  502 -0.38983177645E+02  0.37342959767E+02 -0.13418571479E+03  0.14463744618E+03  0.00000000000E+00 0.  1.
         -1    1    1    2    0  503  0.18895822104E+03  0.10424484475E+03 -0.17907854494E+03  0.28043060142E+03  0.00000000000E+00 0.  1.
<mgrwt>
<rscale>  4 0.24605919E+03</rscale>
<asrwt>0</asrwt>
<pdfrwt beam="1">  1       21 0.15337132E+00 0.24605919E+03</pdfrwt>
<pdfrwt beam="2">  1       -1 0.12163987E-01 0.24605919E+03</pdfrwt>
<totfact> 0.11071276E+03</totfact>
</mgrwt>
</event>
<event>
 5    0  0.3040647E+000  0.2627519E+03  0.7546771E-02  0.1105501E+00
         21   -1    0    0  503  502  0.00000000000E+00  0.00000000000E+00  0.19951974661E+03  0.19951974661E+03  0.00000000000E+00 0.  1.
          2   -1    0    0  502    0 -0.00000000000E+00 -0.00000000000E+00 -0.64292818133E+03  0.64292818133E+03  0.00000000000E+00 0. -1.
         25    1    1    2    0    0 -0.41119405883E+02  0.20792224113E+03  0.73653112053E+02  0.25685062743E+03  0.12500000000E+03 0.  0.
         21    1    1    2  503  501 -0.58323695054E+01  0.21391141403E+02 -0.52272008684E+01  0.22779839628E+02  0.00000000000E+00 0.  1.
          2    1    1    2  501    0  0.46951775388E+02 -0.22931338253E+03 -0.51183434590E+03  0.56281746088E+03  0.00000000000E+00 0. -1.
<mgrwt>
<rscale>  4 0.26275192E+03</rscale>
<asrwt>0</asrwt>
<pdfrwt beam="1">  1       21 0.30695346E-01 0.26275192E+03</pdfrwt>
<pdfrwt beam="2">  1        2 0.98912028E-01 0.26275192E+03</pdfrwt>
<totfact> 0.58419221E+03</totfact>
</mgrwt>
</event>
<event>
 5    0  0.3040647E+000  0.3201877E+03  0.7546771E-02  0.1075563E+00
          2   -1    0    0  502    0 -0.00000000000E+00  0.00000000000E+00  0.22376903814E+04  0.22376903814E+04  0.00000000000E+00 0.  1.
         21   -1    0    0  503  502  0.00000000000E+00 -0.00000000000E+00 -0.42873027751E+02  0.42873027751E+02  0.00000000000E+00 0.  1.
         25    1    1    2    0    0  0.24103342513E+03  0.16969983261E+03  0.11582611204E+04  0.12017025290E+04  0.12500000000E+03 0.  0.
         21    1    1    2  503  501 -0.41742997181E+02 -0.39004154712E+02  0.14095342379E+03  0.15209099111E+03  0.00000000000E+00 0.  1.
          2    1    1    2  501    0 -0.19929042795E+03 -0.13069567789E+03  0.89560280940E+03  0.92676988896E+03  0.00000000000E+00 0.  1.
<mgrwt>
<rscale>  4 0.32018767E+03</rscale>
<asrwt>0</asrwt>
<pdfrwt beam="1">  1       21 0.65958521E-02 0.32018767E+03</pdfrwt>
<pdfrwt beam="2">  1        2 0.34425997E+00 0.32018767E+03</pdfrwt>
<totfact> 0.11609665E+04</totfact>
</mgrwt>
</event>
<event>
 5    0  0.3040647E+000  0.3485625E+03  0.7546771E-02  0.1063207E+00
         21   -1    0    0  503  502  0.00000000000E+00  0.00000000000E+00  0.15223412135E+03  0.15223412135E+03  0.00000000000E+00 0.  1.
          1   -1    0    0  502    0 -0.00000000000E+00 -0.00000000000E+00 -0.14090932558E+04  0.14090932558E+04  0.00000000000E+00 0.  1.
         25    1    1    2    0    0  0.29458583467E+03 -0.12304784934E+03 -0.10221013867E+04  0.10780713482E+04  0.12500000000E+03 0.  0.
         21    1    1    2  503  501  0.68071317849E+01 -0.47548773355E+02  0.21306986625E+02  0.52547222284E+02  0.00000000000E+00 0.  1.
          1    1    1    2  501    0 -0.30139296645E+03  0.17059662269E+03 -0.25606473437E+03  0.43070880661E+03  0.00000000000E+00 0.  1.
<mgrwt>
<rscale>  4 0.34856250E+03</rscale>
<asrwt>0</asrwt>
<pdfrwt beam="1">  1       21 0.23420634E-01 0.34856250E+03</pdfrwt>
<pdfrwt beam="2">  1        1 0.21678357E+00 0.34856250E+03</pdfrwt>
<totfact> 0.14991569E+03</totfact>
</mgrwt>
</event>
<event>
 5    0  0.3040647E+000  0.2825903E+03  0.7546771E-02  0.1094283E+00
          2   -1    0    0  502    0 -0.00000000000E+00  0.00000000000E+00  0.19250901956E+04  0.19250901956E+04  0.00000000000E+00 0. -1.
         21   -1    0    0  503  502  0.00000000000E+00 -0.00000000000E+00 -0.41970917011E+02  0.41970917011E+02  0.00000000000E+00 0.  1.
         25    1    1    2    0    0 -0.95334908136E+01  0.24202772011E+03  0.77357088753E+03  0.82018609034E+03  0.12500000000E+03 0.  0.
         21    1    1    2  503  501 -0.12482893033E+02  0.18130178004E+02  0.37420370507E+02  0.43414399706E+02  0.00000000000E+00 0.  1.
          2    1    1    2  501    0  0.22016383847E+02 -0.26015789811E+03  0.10721280206E+04  0.11034606226E+04  0.00000000000E+00 0. -1.
<mgrwt>
<rscale>  4 0.28259026E+03</rscale>
<asrwt>0</asrwt>
<pdfrwt beam="1">  1       21 0.64570656E-02 0.28259026E+03</pdfrwt>
<pdfrwt beam="2">  1        2 0.29616765E+00 0.28259026E+03</pdfrwt>
<totfact> 0.17828473E+04</totfact>
</mgrwt>
</event>
<event>
 5    0  0.3040647E+000  0.3144901E+03  0.7546771E-02  0.1078213E+00
         21   -1    0    0  503  502  0.00000000000E+00  0.00000000000E+00  0.43309972551E+03  0.43309972551E+03  0.00000000000E+00 0. -1.
          1   -1    0    0  502    0 -0.00000000000E+00 -0.00000000000E+00 -0.65731811636E+03  0.65731811636E+03  0.00000000000E+00 0. -1.
         25    1    1    2    0    0 -0.12055894246E+03 -0.17287378941E+03  0.12375652346E+03  0.27451863829E+03  0.12500000000E+03 0.  0.
         21    1    1    2  503  501 -0.30351960605E+02 -0.91770055003E+02  0.18115813000E+03  0.20533205442E+03  0.00000000000E+00 0. -1.
          1    1    1    2  501    0  0.15091090306E+03  0.26464384441E+03 -0.52913304431E+03  0.61056714916E+03  0.00000000000E+00 0. -1.
<mgrwt>
<rscale>  4 0.31449007E+03</rscale>
<asrwt>0</asrwt>
<pdfrwt beam="1">  1       21 0.66630727E-01 0.31449007E+03</pdfrwt>
<pdfrwt beam="2">  1        1 0.10112586E+00 0.31449007E+03</pdfrwt>
<totfact> 0.67028685E+02</totfact>
</mgrwt>
</event>
<event>
 5    0  0.3040647E+000  0.3152728E+03  0.7546771E-02  0.1077846E+00
         21   -1    0    0  503  502  0.00000000000E+00  0.00000000000E+00  0.22377683450E+03  0.22377683450E+03  0.00000000000E+00 0. -1.
          2   -1    0    0  502    0 -0.00000000000E+00 -0.00000000000E+00 -0.32118744485E+04  0.32118744485E+04  0.00000000000E+00 0. -1.
         25    1    1    2    0    0  0.35919124028E+03  0.11218920614E+03 -0.14924834646E+03  0.42368010809E+03  0.12500000000E+03 0.  0.
         21    1    1    2  503  501 -0.21682140507E+03 -0.10111158626E+03 -0.84200211729E+02  0.25362324466E+03  0.00000000000E+00 0. -1.
          2    1    1    2  501    0 -0.14236983520E+03 -0.11077619879E+02 -0.27546490558E+04  0.27583479302E+04  0.00000000000E+00 0. -1.
<mgrwt>
<rscale>  4 0.31527276E+03</rscale>
<asrwt>0</asrwt>
<pdfrwt beam="1">  1       21 0.34427207E-01 0.31527276E+03</pdfrwt>
<pdfrwt beam="2">  1        2 0.49413451E+00 0.31527276E+03</pdfrwt>
<totfact> 0.15111848E+02</totfact>
</mgrwt>
</event>
<event>
 5    0  0.3040647E+000  0.3781290E+03  0.7546771E-02  0.1051627E+00
          2   -1    0    0  502    0 -0.00000000000E+00  0.00000000000E+00  0.29940291296E+03  0.29940291296E+03  0.00000000000E+00 0.  1.
         21   -1    0    0  503  502  0.00000000000E+00 -0.00000000000E+00 -0.87150557800E+03  0.87150557800E+03  0.00000000000E+00 0. -1.
         25    1    1    2    0    0 -0.22422604169E+03  0.29987796971E+03 -0.62687146875E+03  0.74080831044E+03  0.12500000000E+03 0.  0.
         21    1    1    2  503  501  0.39721888285E+02  0.19063817233E+01 -0.47448766137E+02  0.61910000066E+02  0.00000000000E+00 0.  1.
          2    1    1    2  501    0  0.18450415341E+03 -0.30178435143E+03  0.10221756984E+03  0.36819018045E+03  0.00000000000E+00 0.  1.
<mgrwt>
<rscale>  4 0.37812903E+03</rscale>
<asrwt>0</asrwt>
<pdfrwt beam="1">  1       21 0.13407778E+00 0.37812903E+03</pdfrwt>
<pdfrwt beam="2">  1        2 0.46061987E-01 0.37812903E+03</pdfrwt>
<totfact> 0.49933692E+02</totfact>
</mgrwt>
</event>
<event>
 5    0  0.3040647E+000  0.2405915E+03  0.7546771E-02  0.1119399E+00
         21   -1    0    0  503  502  0.00000000000E+00  0.00000000000E+00  0.16047042228E+03  0.16047042228E+03  0.00000000000E+00 0. -1.
          3   -1    0    0  502    0 -0.00000000000E+00 -0.00000000000E+00 -0.57342024380E+03  0.57342024380E+03  0.00000000000E+00 0. -1.
         25    1    1    2    0    0 -0.21635757117E+03  0.47367792484E+02 -0.12814059794E+03  0.28477942203E+03  0.12500000000E+03 0.  0.
         21    1    1    2  503  501  0.17459748114E+02 -0.24239072607E+02  0.50435772844E+02  0.58618620143E+02  0.00000000000E+00 0. -1.
          3    1    1    2  501    0  0.19889782306E+03 -0.23128719877E+02 -0.33524499643E+03  0.39049262391E+03  0.00000000000E+00 0. -1.
<mgrwt>
<rscale>  4 0.24059148E+03</rscale>
<asrwt>0</asrwt>
<pdfrwt beam="1">  1       21 0.24687757E-01 0.24059148E+03</pdfrwt>
<pdfrwt beam="2">  1        3 0.88218499E-01 0.24059148E+03</pdfrwt>
<totfact> 0.91804715E+02</totfact>
</mgrwt>
</event>
<event>
 5    0  0.3040647E+000  0.2097729E+03  0.7546771E-02  0.1141746E+00
          1   -1    0    0  502    0 -0.00000000000E+00  0.00000000000E+00  0.60313599623E+03  0.60313599623E+03  0.00000000000E+00 0. -1.
         21   -1    0    0  503  502  0.00000000000E+00 -0.00000000000E+00 -0.35019285222E+03  0.35019285222E+03  0.00000000000E+00 0. -1.
         25    1    1    2    0    0 -0.22310997845E+03 -0.33981382274E+02  0.83650381267E+01  0.25812355702E+03  0.12500000000E+03 0.  0.
         21    1    1    2  503  501  0.61380993642E+02  0.23462437831E+02 -0.20607314289E+03  0.21629667725E+03  0.00000000000E+00 0. -1.
          1    1    1    2  501    0  0.16172898481E+03  0.10518944442E+02  0.45065124876E+03  0.47890861418E+03  0.00000000000E+00 0. -1.
<mgrwt>
<rscale>  4 0.20977287E+03</rscale>
<asrwt>0</asrwt>
<pdfrwt beam="1">  1       21 0.53875824E-01 0.20977287E+03</pdfrwt>
<pdfrwt beam="2">  1        1 0.92790153E-01 0.20977287E+03</pdfrwt>
<totfact> 0.12519990E+03</totfact>
</mgrwt>
</event>
<event>
 5    0  0.3040647E+000  0.2371562E+03  0.7546771E-02  0.1121702E+00
         21   -1    0    0  503  502  0.00000000000E+00  0.00000000000E+00  0.86857453256E+02  0.86857453256E+02  0.00000000000E+00 0.  1.
          2   -1    0    0  502    0 -0.00000000000E+00 -0.00000000000E+00 -0.24752402409E+04  0.24752402409E+04  0.00000000000E+00 0.  1.
         25    1    1    2    0    0 -0.22361856796E+03  0.64005092052E+02 -0.17959387867E+03  0.31934444883E+03  0.12500000000E+03 0.  0.
         21    1    1    2  503  501  0.25248147293E+02 -0.41047570270E+02 -0.34389235715E+02  0.59202968674E+02  0.00000000000E+00 0.  1.
          2    1    1    2  501    0  0.19837042066E+03 -0.22957521782E+02 -0.21743996733E+04  0.21835502767E+04  0.00000000000E+00 0.  1.
<mgrwt>
<rscale>  4 0.23715617E+03</rscale>
<asrwt>0</asrwt>
<pdfrwt beam="1">  1       21 0.13362683E-01 0.23715617E+03</pdfrwt>
<pdfrwt beam="2">  1        2 0.38080624E+00 0.23715617E+03</pdfrwt>
<totfact> 0.25488118E+03</totfact>
</mgrwt>
</event>
<event>
 5    0  0.3040647E+000  0.1856098E+03  0.7546771E-02  0.1162482E+00
         21   -1    0    0  501  502  0.00000000000E+00  0.00000000000E+00  0.12862276484E+04  0.12862276484E+04  0.00000000000E+00 0. -1.
         -1   -1    0    0    0  501 -0.00000000000E+00 -0.00000000000E+00 -0.45247235652E+03  0.45247235652E+03  0.00000000000E+00 0.  1.
         25    1    1    2    0    0  0.25141630248E+03 -0.34987282818E+02 -0.34914798572E+03  0.44940358592E+03  0.12500000000E+03 0.  0.
         21    1    1    2  503  502 -0.13456049423E+03  0.20065889650E+02  0.11616504456E+04  0.11695900667E+04  0.00000000000E+00 0. -1.
         -1    1    1    2    0  503 -0.11685580825E+03  0.14921393168E+02  0.21252831997E+02  0.11970635222E+03  0.00000000000E+00 0.  1.
<mgrwt>
<rscale>  4 0.18560982E+03</rscale>
<asrwt>0</asrwt>
<pdfrwt beam="1">  1       21 0.19788117E+00 0.18560982E+03</pdfrwt>
<pdfrwt beam="2">  1       -1 0.69611132E-01 0.18560982E+03</pdfrwt>
<totfact> 0.28187008E+01</totfact>
</mgrwt>
</event>
<event>
 5    0  0.3040647E+000  0.2845430E+03  0.7546771E-02  0.1093233E+00
          2   -1    0    0  502    0 -0.00000000000E+00  0.00000000000E+00  0.37096783611E+04  0.37096783611E+04  0.00000000000E+00 0. -1.
         21   -1    0    0  503  502  0.00000000000E+00 -0.00000000000E+00 -0.55607552128E+02  0.55607552128E+02  0.00000000000E+00 0. -1.
         25    1    1    2    0    0 -0.23476504978E+03  0.69966791943E+02  0.19225110444E+04  0.19420823094E+04  0.12500000000E+03 0.  0.
         21    1    1    2  503  501 -0.19043670008E+02  0.11415632377E+02 -0.32368410743E+02  0.39251650207E+02  0.00000000000E+00 0. -1.
          2    1    1    2  501    0  0.25380871978E+03 -0.81382424320E+02  0.17639281753E+04  0.17839519536E+04  0.00000000000E+00 0. -1.
<mgrwt>
<rscale>  4 0.28454298E+03</rscale>
<asrwt>0</asrwt>
<pdfrwt beam="1">  1       21 0.85550109E-02 0.28454298E+03</pdfrwt>
<pdfrwt beam="2">  1        2 0.57071955E+00 0.28454298E+03</pdfrwt>
<totfact> 0.97447656E+02</totfact>
</mgrwt>
</event>
<event>
 5    0  0.3040647E+000  0.3737984E+03  0.7546771E-02  0.1053250E+00
         21   -1    0    0  503  502  0.00000000000E+00  0.00000000000E+00  0.75347361408E+02  0.75347361408E+02  0.00000000000E+00 0. -1.
          2   -1    0    0  502    0 -0.00000000000E+00 -0.00000000000E+00 -0.30087860518E+04  0.30087860518E+04  0.00000000000E+00 0. -1.
         25    1    1    2    0    0  0.32665592248E+03  0.13154667256E+03 -0.51899088694E+03  0.63951947545E+03  0.12500000000E+03 0.  0.
         21    1    1    2  503  501  0.10399744216E+02 -0.24626040347E+02 -0.11044719550E+03  0.11363617178E+03  0.00000000000E+00 0. -1.
          2    1    1    2  501    0 -0.33705566670E+03 -0.10692063221E+03 -0.23040006080E+04  0.23309777660E+04  0.00000000000E+00 0. -1.
<mgrwt>
<rscale>  4 0.37379841E+03</rscale>
<asrwt>0</asrwt>
<pdfrwt beam="1">  1       21 0.11591903E-01 0.37379841E+03</pdfrwt>
<pdfrwt beam="2">  1        2 0.46289013E+00 0.37379841E+03</pdfrwt>
<totfact> 0.15408627E+03</totfact>
</mgrwt>
</event>
<event>
 5    0  0.3040647E+000  0.4508244E+03  0.7546771E-02  0.1027476E+00
         21   -1    0    0  501  502  0.00000000000E+00  0.00000000000E+00  0.34509523896E+03  0.34509523896E+03  0.00000000000E+00 0. -1.
         -2   -1    0    0    0  501 -0.00000000000E+00 -0.00000000000E+00 -0.79906605108E+03  0.79906605108E+03  0.00000000000E+00 0.  1.
         25    1    1    2    0    0 -0.36008093926E+03  0.27629297965E+03  0.60473470207E+01  0.47080533539E+03  0.12500000000E+03 0.  0.
         21    1    1    2  503  502  0.28018246142E+02 -0.92648044292E+01  0.16740327743E+02  0.33927824730E+02  0.00000000000E+00 0. -1.
         -2    1    1    2    0  503  0.33206269311E+03 -0.26702817523E+03 -0.47675848688E+03  0.63942812992E+03  0.00000000000E+00 0.  1.
<mgrwt>
<rscale>  4 0.45082440E+03</rscale>
<asrwt>0</asrwt>
<pdfrwt beam="1">  1       21 0.53091575E-01 0.45082440E+03</pdfrwt>
<pdfrwt beam="2">  1       -2 0.12293324E+00 0.45082440E+03</pdfrwt>
<totfact> 0.13246536E+02</totfact>
</mgrwt>
</event>
<event>
 5    0  0.3040647E+000  0.2527754E+03  0.7546771E-02  0.1111563E+00
         21   -1    0    0  503  502  0.00000000000E+00  0.00000000000E+00  0.45765895763E+02  0.45765895763E+02  0.00000000000E+00 0. -1.
          2   -1    0    0  502    0 -0.00000000000E+00 -0.00000000000E+00 -0.14095754992E+04  0.14095754992E+04  0.00000000000E+00 0. -1.
         25    1    1    2    0    0  0.16000168612E+03 -0.15076827674E+03 -0.78239161274E+03  0.82224889694E+03  0.12500000000E+03 0.  0.
         21    1    1    2  503  501 -0.19568176491E+02 -0.19149830087E+02 -0.39559286246E+02  0.48109943378E+02  0.00000000000E+00 0. -1.
          2    1    1    2  501    0 -0.14043350963E+03  0.16991810682E+03 -0.54185870445E+03  0.58498255465E+03  0.00000000000E+00 0. -1.
<mgrwt>
<rscale>  4 0.25277539E+03</rscale>
<asrwt>0</asrwt>
<pdfrwt beam="1">  1       21 0.70409080E-02 0.25277539E+03</pdfrwt>
<pdfrwt beam="2">  1        2 0.21685774E+00 0.25277539E+03</pdfrwt>
<totfact> 0.28977996E+04</totfact>
</mgrwt>
</event>
<event>
 5    0  0.3040647E+000  0.2779905E+03  0.7546771E-02  0.1096792E+00
          1   -1    0    0  502    0 -0.00000000000E+00  0.00000000000E+00  0.19385150086E+04  0.19385150086E+04  0.00000000000E+00 0. -1.
         21   -1    0    0  503  502  0.00000000000E+00 -0.00000000000E+00 -0.28539586038E+03  0.28539586038E+03  0.00000000000E+00 0.  1.
         25    1    1    2    0    0  0.22026625733E+03 -0.23864715563E+03  0.70361209906E+02  0.35502871555E+03  0.12500000000E+03 0.  0.
         21    1    1    2  503  501 -0.23767799197E+02  0.94066156270E+02 -0.11683624463E+03  0.15186855531E+03  0.00000000000E+00 0.  1.
          1    1    1    2  501    0 -0.19649845813E+03  0.14458099936E+03  0.16995941830E+04  0.17170135982E+04  0.00000000000E+00 0. -1.
<mgrwt>
<rscale>  4 0.27799046E+03</rscale>
<asrwt>0</asrwt>
<pdfrwt beam="1">  1       21 0.43907057E-01 0.27799046E+03</pdfrwt>
<pdfrwt beam="2">  1        1 0.29823307E+00 0.27799046E+03</pdfrwt>
<totfact> 0.19834226E+02</totfact>
</mgrwt>
</event>
<event>
 5    0  0.3040647E+000  0.2760976E+03  0.7546771E-02  0.1097840E+00
         21   -1    0    0  503  502  0.00000000000E+00  0.00000000000E+00  0.74523440187E+02  0.74523440187E+02  0.00000000000E+00 0. -1.
          2   -1    0    0  502    0 -0.00000000000E+00 -0.00000000000E+00 -0.16622861004E+04  0.16622861004E+04  0.00000000000E+00 0. -1.
         25    1    1    2    0    0  0.21537055804E+03  0.13644636519E+03 -0.12808906493E+04  0.13119862588E+04  0.12500000000E+03 0.  0.
         21    1    1    2  503  501 -0.33276247823E+02 -0.22923879263E+01  0.10621732228E+02  0.35005498241E+02  0.00000000000E+00 0.  1.
          2    1    1    2  501    0 -0.18209431022E+03 -0.13415397726E+03 -0.31749374317E+03  0.38981778356E+03  0.00000000000E+00 0. -1.
<mgrwt>
<rscale>  4 0.27609759E+03</rscale>
<asrwt>0</asrwt>
<pdfrwt beam="1">  1       21 0.11465144E-01 0.27609759E+03</pdfrwt>
<pdfrwt beam="2">  1        2 0.25573633E+00 0.27609759E+03</pdfrwt>
<totfact> 0.89211153E+03</totfact>
</mgrwt>
</event>
<event>
 5    0  0.3040647E+000  0.2532283E+03  0.7546771E-02  0.1111281E+00
         21   -1    0    0  503  502  0.00000000000E+00  0.00000000000E+00  0.62750271241E+03  0.62750271241E+03  0.00000000000E+00 0. -1.
          2   -1    0    0  502    0 -0.00000000000E+00 -0.00000000000E+00 -0.93387159385E+03  0.93387159385E+03  0.00000000000E+00 0.  1.
         25    1    1    2    0    0 -0.18992198475E+03 -0.89344614855E+02  0.18581564281E+03  0.30692877612E+03  0.12500000000E+03 0.  0.
         21    1    1    2  503  501 -0.29898126706E+00 -0.22886499941E+02  0.36680409880E+03  0.36751752090E+03  0.00000000000E+00 0. -1.
          2    1    1    2  501    0  0.19022096602E+03  0.11223111480E+03 -0.85898862305E+03  0.88692800924E+03  0.00000000000E+00 0.  1.
<mgrwt>
<rscale>  4 0.25322833E+03</rscale>
<asrwt>0</asrwt>
<pdfrwt beam="1">  1       21 0.96538879E-01 0.25322833E+03</pdfrwt>
<pdfrwt beam="2">  1        2 0.14367255E+00 0.25322833E+03</pdfrwt>
<totfact> 0.31428917E+02</totfact>
</mgrwt>
</event>
<event>
 5    0  0.3040647E+000  0.1813213E+03  0.7546771E-02  0.1166530E+00
          1   -1    0    0  502    0 -0.00000000000E+00  0.00000000000E+00  0.15278626324E+03  0.15278626324E+03  0.00000000000E+00 0. -1.
         21   -1    0    0  503  502  0.00000000000E+00 -0.00000000000E+00 -0.21852549740E+04  0.21852549740E+04  0.00000000000E+00 0. -1.
         25    1    1    2    0    0  0.16903243369E+03  0.11583892259E+03 -0.37868189609E+03  0.44834763081E+03  0.12500000000E+03 0.  0.
         21    1    1    2  503  501 -0.41849377402E+02 -0.10896197413E+03 -0.17348137859E+04  0.17387360219E+04  0.00000000000E+00 0. -1.
          1    1    1    2  501    0 -0.12718305629E+03 -0.68769484591E+01  0.81026971283E+02  0.15095758445E+03  0.00000000000E+00 0. -1.
<mgrwt>
<rscale>  4 0.18132128E+03</rscale>
<asrwt>0</asrwt>
<pdfrwt beam="1">  1       21 0.33619309E+00 0.18132128E+03</pdfrwt>
<pdfrwt beam="2">  1        1 0.23505578E-01 0.18132128E+03</pdfrwt>
<totfact> 0.47851303E+01</totfact>
</mgrwt>
</event>
<event>
 5    0  0.3040647E+000  0.2753928E+03  0.7546771E-02  0.1098232E+00
          1   -1    0    0  502    0 -0.00000000000E+00  0.00000000000E+00  0.95297799778E+03  0.95297799778E+03  0.00000000000E+00 0.  1.
         21   -1    0    0  503  502  0.00000000000E+00 -0.00000000000E+00 -0.17038783984E+03  0.17038783984E+03  0.00000000000E+00 0. -1.
         25    1    1    2    0    0  0.20010425343E+03  0.16245988983E+03  0.38703402535E+01  0.28648718571E+03  0.12500000000E+03 0.  0.
         21    1    1    2  503  501 -0.18359696971E+02 -0.89016539258E+02  0.12600891558E+03  0.15536817415E+03  0.00000000000E+00 0.  1.
          1    1    1    2  501    0 -0.18174455646E+03 -0.73443350572E+02  0.65271090212E+03  0.68151047775E+03  0.00000000000E+00 0.  1.
<mgrwt>
<rscale>  4 0.27539279E+03</rscale>
<asrwt>0</asrwt>
<pdfrwt beam="1">  1       21 0.26213514E-01 0.27539279E+03</pdfrwt>
<pdfrwt beam="2">  1        1 0.14661200E+00 0.27539279E+03</pdfrwt>
<totfact> 0.26112907E+03</totfact>
</mgrwt>
</event>
<event>
 5    0  0.3040647E+000  0.2293989E+03  0.7546771E-02  0.1127064E+00
          2   -1    0    0  502    0 -0.00000000000E+00  0.00000000000E+00  0.25278530098E+04  0.25278530098E+04  0.00000000000E+00 0.  1.
         21   -1    0    0  503  502  0.00000000000E+00 -0.00000000000E+00 -0.33701578498E+02  0.33701578498E+02  0.00000000000E+00 0.  1.
         25    1    1    2    0    0 -0.10234612915E+03  0.17514606459E+03  0.52476035978E+03  0.57632396210E+03  0.12500000000E+03 0.  0.
         21    1    1    2  503  501  0.94610377053E+02 -0.14572819074E+03  0.97403846343E+03  0.98941333995E+03  0.00000000000E+00 0.  1.
          2    1    1    2  501    0  0.77357521022E+01 -0.29417873851E+02  0.99535260805E+03  0.99581728621E+03  0.00000000000E+00 0.  1.
<mgrwt>
<rscale>  4 0.22939893E+03</rscale>
<asrwt>0</asrwt>
<pdfrwt beam="1">  1       21 0.51848602E-02 0.22939893E+03</pdfrwt>
<pdfrwt beam="2">  1        2 0.38890031E+00 0.22939893E+03</pdfrwt>
<totfact> 0.12610032E+04</totfact>
</mgrwt>
</event>
<event>
 5    0  0.3040647E+000  0.2704889E+03  0.7546771E-02  0.1101000E+00
          1   -1    0    0  502    0 -0.00000000000E+00  0.00000000000E+00  0.16174191279E+04  0.16174191279E+04  0.00000000000E+00 0.  1.
         21   -1    0    0  503  502  0.00000000000E+00 -0.00000000000E+00 -0.63989348006E+02  0.63989348006E+02  0.00000000000E+00 0. -1.
         25    1    1    2    0    0  0.19380062881E+03  0.69026963573E+02  0.10127953226E+04  0.10410104567E+04  0.12500000000E+03 0.  0.
         21    1    1    2  503  501 -0.21400748166E+03 -0.13522916007E+03  0.31349240925E+03  0.40294369159E+03  0.00000000000E+00 0. -1.
          1    1    1    2  501    0  0.20206852845E+02  0.66202196499E+02  0.22714204806E+03  0.23745432765E+03  0.00000000000E+00 0.  1.
<mgrwt>
<rscale>  4 0.27048895E+03</rscale>
<asrwt>0</asrwt>
<pdfrwt beam="1">  1       21 0.98445163E-02 0.27048895E+03</pdfrwt>
<pdfrwt beam="2">  1        1 0.24883368E+00 0.27048895E+03</pdfrwt>
<totfact> 0.55229071E+03</totfact>
</mgrwt>
</event>
<event>
 5    0  0.3040647E+000  0.2715207E+03  0.7546771E-02  0.1100412E+00
         21   -1    0    0  503  502  0.00000000000E+00  0.00000000000E+00  0.29225831073E+03  0.29225831073E+03  0.00000000000E+00 0. -1.
          2   -1    0    0  502    0 -0.00000000000E+00 -0.00000000000E+00 -0.13432078344E+04  0.13432078344E+04  0.00000000000E+00 0. -1.
         25    1    1    2    0    0  0.20827027817E+03 -0.66924520896E+02 -0.65195314956E+03  0.69894442518E+03  0.12500000000E+03 0.  0.
         21    1    1    2  503  501  0.36689373658E+02 -0.39586808110E+02  0.23891885119E+03  0.24493967210E+03  0.00000000000E+00 0. -1.
          2    1    1    2  501    0 -0.24495965183E+03  0.10651132901E+03 -0.63791522533E+03  0.69158204787E+03  0.00000000000E+00 0. -1.
<mgrwt>
<rscale>  4 0.27152068E+03</rscale>
<asrwt>0</asrwt>
<pdfrwt beam="1">  1       21 0.44962817E-01 0.27152068E+03</pdfrwt>
<pdfrwt beam="2">  1        2 0.20664736E+00 0.27152068E+03</pdfrwt>
<totfact> 0.96792398E+02</totfact>
</mgrwt>
</event>
<event>
 5    0  0.3040647E+000  0.3050922E+03  0.7546771E-02  0.1082722E+00
          1   -1    0    0  502    0 -0.00000000000E+00  0.00000000000E+00  0.26284138667E+04  0.26284138667E+04  0.00000000000E+00 0.  1.
         21   -1    0    0  503  502  0.00000000000E+00 -0.00000000000E+00 -0.54596071171E+02  0.54596071171E+02  0.00000000000E+00 0.  1.
         25    1    1    2    0    0 -0.12266415576E+03 -0.24981947026E+03  0.48245887114E+03  0.57083082009E+03  0.12500000000E+03 0.  0.
         21    1    1    2  503  501  0.79685938059E+02  0.13720429639E+03  0.82667051661E+03  0.84175947319E+03  0.00000000000E+00 0.  1.
          1    1    1    2  501    0  0.42978217700E+02  0.11261517387E+03  0.12646884078E+04  0.12704196446E+04  0.00000000000E+00 0.  1.
<mgrwt>
<rscale>  4 0.30509222E+03</rscale>
<asrwt>0</asrwt>
<pdfrwt beam="1">  1       21 0.83993976E-02 0.30509222E+03</pdfrwt>
<pdfrwt beam="2">  1        1 0.40437127E+00 0.30509222E+03</pdfrwt>
<totfact> 0.15655380E+03</totfact>
</mgrwt>
</event>
<event>
 5    0  0.3040647E+000  0.2846776E+03  0.7546771E-02  0.1093161E+00
         21   -1    0    0  501  502  0.00000000000E+00  0.00000000000E+00  0.11815467007E+03  0.11815467007E+03  0.00000000000E+00 0. -1.
         -3   -1    0    0    0  501 -0.00000000000E+00 -0.00000000000E+00 -0.63187944232E+03  0.63187944232E+03  0.00000000000E+00 0. -1.
         25    1    1    2    0    0 -0.26221853170E+02 -0.25441844459E+03 -0.24413364984E+03  0.37502342529E+03  0.12500000000E+03 0.  0.
         21    1    1    2  503  502  0.12018596284E+02  0.22111897929E+02 -0.12105170740E+02  0.27927009244E+02  0.00000000000E+00 0.  1.
         -3    1    1    2    0  503  0.14203256886E+02  0.23230654666E+03 -0.25748595166E+03  0.34708367785E+03  0.00000000000E+00 0. -1.
<mgrwt>
<rscale>  4 0.28467759E+03</rscale>
<asrwt>0</asrwt>
<pdfrwt beam="1">  1       21 0.18177641E-01 0.28467759E+03</pdfrwt>
<pdfrwt beam="2">  1       -3 0.97212222E-01 0.28467759E+03</pdfrwt>
<totfact> 0.13084745E+03</totfact>
</mgrwt>
</event>
<event>
 5    0  0.3040647E+000  0.1950385E+03  0.7546771E-02  0.1153994E+00
         21   -1    0    0  501  502  0.00000000000E+00  0.00000000000E+00  0.65621021848E+02  0.65621021848E+02  0.00000000000E+00 0. -1.
         -1   -1    0    0    0  501 -0.00000000000E+00 -0.00000000000E+00 -0.28259860092E+04  0.28259860092E+04  0.00000000000E+00 0.  1.
         25    1    1    2    0    0  0.78027736304E+02 -0.19927398836E+03 -0.87133479719E+03  0.90589611924E+03  0.12500000000E+03 0.  0.
         21    1    1    2  503  502 -0.70872965872E+02  0.12334504113E+03 -0.58860741973E+02  0.15395312081E+03  0.00000000000E+00 0. -1.
         -1    1    1    2    0  503 -0.71547704319E+01  0.75928947229E+02 -0.18301694482E+04  0.18317577910E+04  0.00000000000E+00 0.  1.
<mgrwt>
<rscale>  4 0.19503850E+03</rscale>
<asrwt>0</asrwt>
<pdfrwt beam="1">  1       21 0.10095542E-01 0.19503850E+03</pdfrwt>
<pdfrwt beam="2">  1       -1 0.43476707E+00 0.19503850E+03</pdfrwt>
<totfact> 0.39802623E+01</totfact>
</mgrwt>
</event>
<event>
 5    0  0.3040647E+000  0.3824037E+03  0.7546771E-02  0.1051048E+00
         21   -1    0    0  503  502  0.00000000000E+00  0.00000000000E+00  0.29049898917E+03  0.29049898917E+03  0.00000000000E+00 0. -1.
          1   -1    0    0  502    0 -0.00000000000E+00 -0.00000000000E+00 -0.49471613825E+03  0.49471613825E+03  0.00000000000E+00 0. -1.
         25    1    1    2    0    0 -0.21801973946E+03 -0.27382100849E+03 -0.14156163630E+03  0.39771251974E+03  0.12500000000E+03 0.  0.
         21    1    1    2  503  501  0.12364637477E+03  0.12952376770E+03  0.44482102098E+02  0.18450877974E+03  0.00000000000E+00 0. -1.
          1    1    1    2  501    0  0.94373364693E+02  0.14429724079E+03 -0.10713761487E+03  0.20299382794E+03  0.00000000000E+00 0. -1.
<mgrwt>
<rscale>  4 0.37969053E+03</rscale>
<asrwt>0</asrwt>
<pdfrwt beam="1">  1       21 0.44692153E-01 0.38240366E+03</pdfrwt>
<pdfrwt beam="2">  1        1 0.76110174E-01 0.38240366E+03</pdfrwt>
<totfact> 0.22989076E+03</totfact>
</mgrwt>
</event>
<event>
 5    0  0.3040647E+000  0.4296204E+03  0.7546771E-02  0.1033980E+00
          1   -1    0    0  502    0 -0.00000000000E+00  0.00000000000E+00  0.57536900214E+03  0.57536900214E+03  0.00000000000E+00 0.  1.
         21   -1    0    0  503  502  0.00000000000E+00 -0.00000000000E+00 -0.35242588301E+03  0.35242588301E+03  0.00000000000E+00 0.  1.
         25    1    1    2    0    0 -0.38234721594E+03 -0.47524356734E+02  0.51485482033E+02  0.40831815154E+03  0.12500000000E+03 0.  0.
         21    1    1    2  503  501 -0.42591759883E+02 -0.34216160561E+02  0.17564983818E+01  0.54661585597E+02  0.00000000000E+00 0. -1.
          1    1    1    2  501    0  0.42493897582E+03  0.81740517294E+02  0.16970113872E+03  0.46481514801E+03  0.00000000000E+00 0.  1.
<mgrwt>
<rscale>  4 0.42962038E+03</rscale>
<asrwt>0</asrwt>
<pdfrwt beam="1">  1       21 0.54219367E-01 0.42962038E+03</pdfrwt>
<pdfrwt beam="2">  1        1 0.88518308E-01 0.42962038E+03</pdfrwt>
<totfact> 0.12283283E+03</totfact>
</mgrwt>
</event>
<event>
 5    0  0.3040647E+000  0.2042597E+03  0.7546771E-02  0.1146194E+00
         21   -1    0    0  503  502  0.00000000000E+00  0.00000000000E+00  0.25676479278E+03  0.25676479278E+03  0.00000000000E+00 0. -1.
          2   -1    0    0  502    0 -0.00000000000E+00 -0.00000000000E+00 -0.49441755060E+03  0.49441755060E+03  0.00000000000E+00 0. -1.
         25    1    1    2    0    0  0.18328947668E+03 -0.10361440273E+03  0.98183997080E+02  0.26381067832E+03  0.12500000000E+03 0.  0.
         21    1    1    2  503  501 -0.53367498086E+02  0.14759186966E+02  0.47515771354E+02  0.72963497581E+02  0.00000000000E+00 0. -1.
          2    1    1    2  501    0 -0.12992197860E+03  0.88855215761E+02 -0.38335252625E+03  0.41440816747E+03  0.00000000000E+00 0. -1.
<mgrwt>
<rscale>  4 0.20425969E+03</rscale>
<asrwt>0</asrwt>
<pdfrwt beam="1">  1       21 0.39502276E-01 0.20425969E+03</pdfrwt>
<pdfrwt beam="2">  1        2 0.76064238E-01 0.20425969E+03</pdfrwt>
<totfact> 0.48572888E+03</totfact>
</mgrwt>
</event>
<event>
 5    0  0.3040647E+000  0.2148729E+03  0.7546771E-02  0.1137764E+00
         21   -1    0    0  503  502  0.00000000000E+00  0.00000000000E+00  0.11712520343E+04  0.11712520343E+04  0.00000000000E+00 0. -1.
          1   -1    0    0  502    0 -0.00000000000E+00 -0.00000000000E+00 -0.57996664154E+03  0.57996664154E+03  0.00000000000E+00 0. -1.
         25    1    1    2    0    0  0.15429452401E+03 -0.14317800246E+03  0.74809584787E+03  0.78713349448E+03  0.12500000000E+03 0.  0.
         21    1    1    2  503  501 -0.72301717958E+02 -0.10676707115E+02  0.38657197919E+03  0.39342016418E+03  0.00000000000E+00 0. -1.
          1    1    1    2  501    0 -0.81992806050E+02  0.15385470958E+03 -0.54338243431E+03  0.57066501716E+03  0.00000000000E+00 0. -1.
<mgrwt>
<rscale>  4 0.21487294E+03</rscale>
<asrwt>0</asrwt>
<pdfrwt beam="1">  1       21 0.18019262E+00 0.21487294E+03</pdfrwt>
<pdfrwt beam="2">  1        1 0.89225638E-01 0.21487294E+03</pdfrwt>
<totfact> 0.72664224E+01</totfact>
</mgrwt>
</event>
<event>
 5    0  0.3040647E+000  0.2549922E+03  0.7546771E-02  0.1110190E+00
          2   -1    0    0  502    0 -0.00000000000E+00  0.00000000000E+00  0.28247244739E+04  0.28247244739E+04  0.00000000000E+00 0. -1.
         21   -1    0    0  503  502  0.00000000000E+00 -0.00000000000E+00 -0.23784734551E+02  0.23784734551E+02  0.00000000000E+00 0. -1.
         25    1    1    2    0    0  0.19039964608E+03  0.83656473159E+02  0.10887672649E+04  0.11154772915E+04  0.12500000000E+03 0.  0.
         21    1    1    2  503  501  0.19625889848E+02  0.12032089428E+02  0.51663084112E+02  0.56559888510E+02  0.00000000000E+00 0. -1.
          2    1    1    2  501    0 -0.21002553593E+03 -0.95688562587E+02  0.16605093903E+04  0.16764720284E+04  0.00000000000E+00 0. -1.
<mgrwt>
<rscale>  4 0.25499219E+03</rscale>
<asrwt>0</asrwt>
<pdfrwt beam="1">  1       21 0.36591922E-02 0.25499219E+03</pdfrwt>
<pdfrwt beam="2">  1        2 0.43457273E+00 0.25499219E+03</pdfrwt>
<totfact> 0.15365945E+04</totfact>
</mgrwt>
</event>
<event>
 5    0  0.3040647E+000  0.2858760E+03  0.7546771E-02  0.1092522E+00
          2   -1    0    0  502    0 -0.00000000000E+00  0.00000000000E+00  0.11994506651E+04  0.11994506651E+04  0.00000000000E+00 0.  1.
         21   -1    0    0  503  502  0.00000000000E+00 -0.00000000000E+00 -0.12679326629E+03  0.12679326629E+03  0.00000000000E+00 0. -1.
         25    1    1    2    0    0  0.12089083556E+03 -0.23731239543E+03  0.32857694579E+03  0.44104373531E+03  0.12500000000E+03 0.  0.
         21    1    1    2  503  501 -0.20580989064E+02  0.39732470250E+01 -0.48544200988E+02  0.52876301425E+02  0.00000000000E+00 0. -1.
          2    1    1    2  501    0 -0.10030984650E+03  0.23333914840E+03  0.79262465401E+03  0.83232389466E+03  0.00000000000E+00 0.  1.
<mgrwt>
<rscale>  4 0.28587603E+03</rscale>
<asrwt>0</asrwt>
<pdfrwt beam="1">  1       21 0.19506657E-01 0.28587603E+03</pdfrwt>
<pdfrwt beam="2">  1        2 0.18453086E+00 0.28587603E+03</pdfrwt>
<totfact> 0.59899810E+03</totfact>
</mgrwt>
</event>
<event>
 5    0  0.3040647E+000  0.2583052E+03  0.7546771E-02  0.1108166E+00
         21   -1    0    0  503  502  0.00000000000E+00  0.00000000000E+00  0.10036199902E+03  0.10036199902E+03  0.00000000000E+00 0.  1.
          2   -1    0    0  502    0 -0.00000000000E+00 -0.00000000000E+00 -0.25100317702E+04  0.25100317702E+04  0.00000000000E+00 0.  1.
         25    1    1    2    0    0  0.63118277851E+02  0.22831828860E+03 -0.45428503949E+03  0.52736425268E+03  0.12500000000E+03 0.  0.
         21    1    1    2  503  501  0.31631467325E+02 -0.24618803895E+02  0.50572779852E+02  0.64530932833E+02  0.00000000000E+00 0. -1.
          2    1    1    2  501    0 -0.94749745177E+02 -0.20369948471E+03 -0.20059575116E+04  0.20184985837E+04  0.00000000000E+00 0.  1.
<mgrwt>
<rscale>  4 0.25830517E+03</rscale>
<asrwt>0</asrwt>
<pdfrwt beam="1">  1       21 0.15440308E-01 0.25830517E+03</pdfrwt>
<pdfrwt beam="2">  1        2 0.38615872E+00 0.25830517E+03</pdfrwt>
<totfact> 0.18536311E+03</totfact>
</mgrwt>
</event>
<event>
 5    0  0.3040647E+000  0.2263637E+03  0.7546771E-02  0.1129226E+00
          1   -1    0    0  502    0 -0.00000000000E+00  0.00000000000E+00  0.13788079602E+04  0.13788079602E+04  0.00000000000E+00 0.  1.
         21   -1    0    0  503  502  0.00000000000E+00 -0.00000000000E+00 -0.77338299310E+03  0.77338299310E+03  0.00000000000E+00 0. -1.
         25    1    1    2    0    0  0.27201229913E+03  0.13722990069E+03  0.28338662888E+03  0.43446026049E+03  0.12500000000E+03 0.  0.
         21    1    1    2  503  501 -0.92920489067E+02 -0.13260176835E+03 -0.68040443212E+03  0.69940520266E+03  0.00000000000E+00 0. -1.
          1    1    1    2  501    0 -0.17909181006E+03 -0.46281323421E+01  0.10024427704E+04  0.10183254902E+04  0.00000000000E+00 0.  1.
<mgrwt>
<rscale>  4 0.22636371E+03</rscale>
<asrwt>0</asrwt>
<pdfrwt beam="1">  1       21 0.11898200E+00 0.22636371E+03</pdfrwt>
<pdfrwt beam="2">  1        1 0.21212430E+00 0.22636371E+03</pdfrwt>
<totfact> 0.51057062E+01</totfact>
</mgrwt>
</event>
<event>
 5    0  0.3040647E+000  0.2535619E+03  0.7546771E-02  0.1111074E+00
          2   -1    0    0  502    0 -0.00000000000E+00  0.00000000000E+00  0.10333342435E+04  0.10333342435E+04  0.00000000000E+00 0.  1.
         21   -1    0    0  503  502  0.00000000000E+00 -0.00000000000E+00 -0.11316645870E+03  0.11316645870E+03  0.00000000000E+00 0.  1.
         25    1    1    2    0    0  0.21744484863E+03  0.12207857585E+03  0.31652571079E+03  0.42189923734E+03  0.12500000000E+03 0.  0.
         21    1    1    2  503  501 -0.18486893948E+03 -0.92473990712E+02  0.12010979899E+03  0.23906971275E+03  0.00000000000E+00 0.  1.
          2    1    1    2  501    0 -0.32575909154E+02 -0.29604585134E+02  0.48353227499E+03  0.48553175208E+03  0.00000000000E+00 0.  1.
<mgrwt>
<rscale>  4 0.25356191E+03</rscale>
<asrwt>0</asrwt>
<pdfrwt beam="1">  1       21 0.17410225E-01 0.25356191E+03</pdfrwt>
<pdfrwt beam="2">  1        2 0.15897449E+00 0.25356191E+03</pdfrwt>
<totfact> 0.93506211E+03</totfact>
</mgrwt>
</event>
<event>
 5    0  0.3040647E+000  0.4926338E+03  0.7546771E-02  0.1015720E+00
          2   -1    0    0  502    0 -0.00000000000E+00  0.00000000000E+00  0.18107544543E+04  0.18107544543E+04  0.00000000000E+00 0. -1.
         21   -1    0    0  503  502  0.00000000000E+00 -0.00000000000E+00 -0.14589975252E+03  0.14589975252E+03  0.00000000000E+00 0. -1.
         25    1    1    2    0    0 -0.18697736088E+03 -0.42063687460E+03  0.61827129511E+03  0.78088431161E+03  0.12500000000E+03 0.  0.
         21    1    1    2  503  501  0.17748458434E+02 -0.37171028843E+02  0.41651328121E+02  0.58579230929E+02  0.00000000000E+00 0.  1.
          2    1    1    2  501    0  0.16922890245E+03  0.45780790344E+03  0.10049320786E+04  0.11171906643E+04  0.00000000000E+00 0. -1.
<mgrwt>
<rscale>  4 0.49263379E+03</rscale>
<asrwt>0</asrwt>
<pdfrwt beam="1">  1       21 0.22446117E-01 0.49263379E+03</pdfrwt>
<pdfrwt beam="2">  1        2 0.27857759E+00 0.49263379E+03</pdfrwt>
<totfact> 0.20143176E+03</totfact>
</mgrwt>
</event>
<event>
 5    0  0.3040647E+000  0.2184678E+03  0.7546771E-02  0.1135031E+00
         21   -1    0    0  501  502  0.00000000000E+00  0.00000000000E+00  0.17511071822E+03  0.17511071822E+03  0.00000000000E+00 0.  1.
         -4   -1    0    0    0  501 -0.00000000000E+00 -0.00000000000E+00 -0.12989204225E+04  0.12989204225E+04  0.00000000000E+00 0.  1.
         25    1    1    2    0    0  0.23223700591E+03 -0.11826815556E+01 -0.12909296450E+03  0.29364165088E+03  0.12500000000E+03 0.  0.
         21    1    1    2  503  502 -0.57772047884E+02 -0.62621827344E+01  0.75919194440E+02  0.95606215978E+02  0.00000000000E+00 0. -1.
         -4    1    1    2    0  503 -0.17446495803E+03  0.74448642900E+01 -0.10706359342E+04  0.10847832739E+04  0.00000000000E+00 0.  1.
<mgrwt>
<rscale>  4 0.21846777E+03</rscale>
<asrwt>0</asrwt>
<pdfrwt beam="1">  1       21 0.26940112E-01 0.21846777E+03</pdfrwt>
<pdfrwt beam="2">  1       -4 0.19983390E+00 0.21846777E+03</pdfrwt>
<totfact> 0.79719040E+01</totfact>
</mgrwt>
</event>
<event>
 5    0  0.3040647E+000  0.3310078E+03  0.7546771E-02  0.1070692E+00
          2   -1    0    0  502    0 -0.00000000000E+00  0.00000000000E+00  0.45302024982E+03  0.45302024982E+03  0.00000000000E+00 0. -1.
         21   -1    0    0  503  502  0.00000000000E+00 -0.00000000000E+00 -0.43641612153E+03  0.43641612153E+03  0.00000000000E+00 0. -1.
         25    1    1    2    0    0  0.23397789947E+03  0.22823312502E+03 -0.21212777985E+03  0.40921780482E+03  0.12500000000E+03 0.  0.
         21    1    1    2  503  501  0.52054022233E+00 -0.37256854683E+02 -0.54403186792E+02  0.65939752169E+02  0.00000000000E+00 0. -1.
          2    1    1    2  501    0 -0.23449843969E+03 -0.19097627033E+03  0.28313509494E+03  0.41427881436E+03  0.00000000000E+00 0. -1.
<mgrwt>
<rscale>  4 0.33100776E+03</rscale>
<asrwt>0</asrwt>
<pdfrwt beam="1">  1       21 0.67140942E-01 0.33100776E+03</pdfrwt>
<pdfrwt beam="2">  1        2 0.69695423E-01 0.33100776E+03</pdfrwt>
<totfact> 0.16793102E+03</totfact>
</mgrwt>
</event>
<event>
 5    0  0.3040647E+000  0.2247853E+03  0.7546771E-02  0.1130365E+00
         21   -1    0    0  503  502  0.00000000000E+00  0.00000000000E+00  0.61219291636E+03  0.61219291636E+03  0.00000000000E+00 0.  1.
          2   -1    0    0  502    0 -0.00000000000E+00 -0.00000000000E+00 -0.47977834889E+03  0.47977834889E+03  0.00000000000E+00 0. -1.
         25    1    1    2    0    0  0.73372436435E+02  0.18960031169E+03 -0.36106502190E+03  0.43281028484E+03  0.12500000000E+03 0.  0.
         21    1    1    2  503  501 -0.19231533623E+02 -0.45833388322E+02  0.50280400573E+03  0.50525480656E+03  0.00000000000E+00 0.  1.
          2    1    1    2  501    0 -0.54140902812E+02 -0.14376692337E+03 -0.93244163521E+01  0.15390617386E+03  0.00000000000E+00 0. -1.
<mgrwt>
<rscale>  4 0.22478533E+03</rscale>
<asrwt>0</asrwt>
<pdfrwt beam="1">  1       21 0.94183526E-01 0.22478533E+03</pdfrwt>
<pdfrwt beam="2">  1        2 0.73812054E-01 0.22478533E+03</pdfrwt>
<totfact> 0.75776101E+02</totfact>
</mgrwt>
</event>
<event>
 5    0  0.3040647E+000  0.2459774E+03  0.7546771E-02  0.1115874E+00
          4   -1    0    0  502    0 -0.00000000000E+00  0.00000000000E+00  0.14434153901E+04  0.14434153901E+04  0.00000000000E+00 0. -1.
         21   -1    0    0  503  502  0.00000000000E+00 -0.00000000000E+00 -0.60128513794E+03  0.60128513794E+03  0.00000000000E+00 0. -1.
         25    1    1    2    0    0 -0.32546883329E+03  0.59778467515E+02  0.34413195102E+03  0.49351314707E+03  0.12500000000E+03 0.  0.
         21    1    1    2  503  501  0.20449517860E+03 -0.25645237208E+02 -0.50234428416E+03  0.54297857793E+03  0.00000000000E+00 0. -1.
          4    1    1    2  501    0  0.12097365469E+03 -0.34133230307E+02  0.10003425853E+04  0.10082088031E+04  0.00000000000E+00 0. -1.
<mgrwt>
<rscale>  4 0.24597738E+03</rscale>
<asrwt>0</asrwt>
<pdfrwt beam="1">  1       21 0.92505406E-01 0.24597738E+03</pdfrwt>
<pdfrwt beam="2">  1        4 0.22206391E+00 0.24597738E+03</pdfrwt>
<totfact> 0.42562819E+00</totfact>
</mgrwt>
</event>
<event>
 5    0  0.3040647E+000  0.2809185E+03  0.7546771E-02  0.1095188E+00
          2   -1    0    0  502    0 -0.00000000000E+00  0.00000000000E+00  0.10563269146E+04  0.10563269146E+04  0.00000000000E+00 0.  1.
         21   -1    0    0  503  502  0.00000000000E+00 -0.00000000000E+00 -0.80248714295E+02  0.80248714295E+02  0.00000000000E+00 0. -1.
         25    1    1    2    0    0  0.22042313403E+03 -0.10350969383E+03  0.48940982407E+03  0.56075626669E+03  0.12500000000E+03 0.  0.
         21    1    1    2  503  501 -0.50010984284E+01 -0.44814199318E+02  0.55301823691E+02  0.71355554441E+02  0.00000000000E+00 0. -1.
          2    1    1    2  501    0 -0.21542203560E+03  0.14832389315E+03  0.43136655258E+03  0.50446380781E+03  0.00000000000E+00 0.  1.
<mgrwt>
<rscale>  4 0.28091846E+03</rscale>
<asrwt>0</asrwt>
<pdfrwt beam="1">  1       21 0.12345957E-01 0.28091846E+03</pdfrwt>
<pdfrwt beam="2">  1        2 0.16251182E+00 0.28091846E+03</pdfrwt>
<totfact> 0.16894667E+04</totfact>
</mgrwt>
</event>
<event>
 5    0  0.3040647E+000  0.1881560E+03  0.7546771E-02  0.1160135E+00
         21   -1    0    0  503  502  0.00000000000E+00  0.00000000000E+00  0.31973141025E+02  0.31973141025E+02  0.00000000000E+00 0. -1.
          2   -1    0    0  502    0 -0.00000000000E+00 -0.00000000000E+00 -0.19269833579E+04  0.19269833579E+04  0.00000000000E+00 0. -1.
         25    1    1    2    0    0  0.59074675094E+02 -0.20222740546E+03 -0.80796173027E+03  0.84428247544E+03  0.12500000000E+03 0.  0.
         21    1    1    2  503  501 -0.21340930008E+02  0.83896508449E+02 -0.18663116440E+03  0.20573101601E+03  0.00000000000E+00 0. -1.
          2    1    1    2  501    0 -0.37733745086E+02  0.11833089701E+03 -0.90041732218E+03  0.90894300744E+03  0.00000000000E+00 0. -1.
<mgrwt>
<rscale>  4 0.18815600E+03</rscale>
<asrwt>0</asrwt>
<pdfrwt beam="1">  1       21 0.49189427E-02 0.18815600E+03</pdfrwt>
<pdfrwt beam="2">  1        2 0.29645910E+00 0.18815600E+03</pdfrwt>
<totfact> 0.29114457E+04</totfact>
</mgrwt>
</event>
<event>
 5    0  0.3040647E+000  0.4102462E+03  0.7546771E-02  0.1040288E+00
         21   -1    0    0  503  502  0.00000000000E+00  0.00000000000E+00  0.18502917486E+04  0.18502917486E+04  0.00000000000E+00 0.  1.
          2   -1    0    0  502    0 -0.00000000000E+00 -0.00000000000E+00 -0.16538330240E+03  0.16538330240E+03  0.00000000000E+00 0.  1.
         25    1    1    2    0    0 -0.35841836845E+03 -0.11409372708E+03  0.62407710120E+03  0.73930936261E+03  0.12500000000E+03 0.  0.
         21    1    1    2  503  501 -0.15977038243E+02 -0.23229024143E+02  0.79857715260E+03  0.79907466608E+03  0.00000000000E+00 0. -1.
          2    1    1    2  501    0  0.37439540669E+03  0.13732275123E+03  0.26225419241E+03  0.47729102233E+03  0.00000000000E+00 0.  1.
<mgrwt>
<rscale>  4 0.41024620E+03</rscale>
<asrwt>0</asrwt>
<pdfrwt beam="1">  1       21 0.28466025E+00 0.41024620E+03</pdfrwt>
<pdfrwt beam="2">  1        2 0.25443586E-01 0.41024620E+03</pdfrwt>
<totfact> 0.92327015E+01</totfact>
</mgrwt>
</event>
<event>
 5    0  0.3040647E+000  0.3116001E+03  0.7546771E-02  0.1079581E+00
         21   -1    0    0  503  502  0.00000000000E+00  0.00000000000E+00  0.27151702626E+03  0.27151702626E+03  0.00000000000E+00 0. -1.
          2   -1    0    0  502    0 -0.00000000000E+00 -0.00000000000E+00 -0.13427114853E+04  0.13427114853E+04  0.00000000000E+00 0.  1.
         25    1    1    2    0    0 -0.88124957197E+02 -0.38112972854E+03 -0.69073572656E+03  0.80359611871E+03  0.12500000000E+03 0.  0.
         21    1    1    2  503  501 -0.21369685531E+02  0.27341524723E+03  0.11090263437E+03  0.29582419642E+03  0.00000000000E+00 0. -1.
          2    1    1    2  501    0  0.10949464273E+03  0.10771448131E+03 -0.49136136689E+03  0.51480819647E+03  0.00000000000E+00 0.  1.
<mgrwt>
<rscale>  4 0.31160011E+03</rscale>
<asrwt>0</asrwt>
<pdfrwt beam="1">  1       21 0.41771850E-01 0.31160011E+03</pdfrwt>
<pdfrwt beam="2">  1        2 0.20657100E+00 0.31160011E+03</pdfrwt>
<totfact> 0.11085389E+03</totfact>
</mgrwt>
</event>
<event>
 5    0  0.3040647E+000  0.2270737E+03  0.7546771E-02  0.1128717E+00
          2   -1    0    0  502    0 -0.00000000000E+00  0.00000000000E+00  0.76686545700E+03  0.76686545700E+03  0.00000000000E+00 0. -1.
         21   -1    0    0  503  502  0.00000000000E+00 -0.00000000000E+00 -0.76655840408E+02  0.76655840408E+02  0.00000000000E+00 0. -1.
         25    1    1    2    0    0  0.20497152373E+03  0.67289071657E+02  0.37560545262E+03  0.45082768409E+03  0.12500000000E+03 0.  0.
         21    1    1    2  503  501 -0.42072586302E+02 -0.75640366582E+01  0.12887587844E+02  0.44647587719E+02  0.00000000000E+00 0. -1.
          2    1    1    2  501    0 -0.16289893743E+03 -0.59725034999E+02  0.30171657613E+03  0.34804602559E+03  0.00000000000E+00 0. -1.
<mgrwt>
<rscale>  4 0.22707372E+03</rscale>
<asrwt>0</asrwt>
<pdfrwt beam="1">  1       21 0.11793207E-01 0.22707372E+03</pdfrwt>
<pdfrwt beam="2">  1        2 0.11797930E+00 0.22707372E+03</pdfrwt>
<totfact> 0.28490502E+04</totfact>
</mgrwt>
</event>
<event>
 5    0  0.3040647E+000  0.2420936E+03  0.7546771E-02  0.1118406E+00
          2   -1    0    0  502    0 -0.00000000000E+00  0.00000000000E+00  0.77083212113E+03  0.77083212113E+03  0.00000000000E+00 0.  1.
         21   -1    0    0  503  502  0.00000000000E+00 -0.00000000000E+00 -0.28525242729E+03  0.28525242729E+03  0.00000000000E+00 0.  1.
         25    1    1    2    0    0 -0.25155913827E+03  0.10199379967E+03 -0.85294360065E+02  0.31078105328E+03  0.12500000000E+03 0.  0.
         21    1    1    2  503  501  0.64804264989E+02 -0.24570408318E+02 -0.54433560811E+02  0.88126671719E+02  0.00000000000E+00 0.  1.
          2    1    1    2  501    0  0.18675487328E+03 -0.77423391352E+02  0.62530761472E+03  0.65717682342E+03  0.00000000000E+00 0.  1.
<mgrwt>
<rscale>  4 0.24209357E+03</rscale>
<asrwt>0</asrwt>
<pdfrwt beam="1">  1       21 0.43884989E-01 0.24209357E+03</pdfrwt>
<pdfrwt beam="2">  1        2 0.11858956E+00 0.24209357E+03</pdfrwt>
<totfact> 0.22964617E+03</totfact>
</mgrwt>
</event>
<event>
 5    0  0.3040647E+000  0.3660484E+03  0.7546771E-02  0.1056214E+00
          1   -1    0    0  502    0 -0.00000000000E+00  0.00000000000E+00  0.28283492701E+04  0.28283492701E+04  0.00000000000E+00 0.  1.
         21   -1    0    0  503  502  0.00000000000E+00 -0.00000000000E+00 -0.14778656295E+03  0.14778656295E+03  0.00000000000E+00 0. -1.
         25    1    1    2    0    0  0.79185770067E+02 -0.30437425874E+03  0.20371904597E+03  0.39501965173E+03  0.12500000000E+03 0.  0.
         21    1    1    2  503  501  0.65074914405E+02 -0.12667835636E+02 -0.12548327974E+02  0.67473543552E+02  0.00000000000E+00 0. -1.
          1    1    1    2  501    0 -0.14426068447E+03  0.31704209438E+03  0.24893919892E+04  0.25136426378E+04  0.00000000000E+00 0.  1.
<mgrwt>
<rscale>  4 0.36604840E+03</rscale>
<asrwt>0</asrwt>
<pdfrwt beam="1">  1       21 0.22736396E-01 0.36604840E+03</pdfrwt>
<pdfrwt beam="2">  1        1 0.43513062E+00 0.36604840E+03</pdfrwt>
<totfact> 0.17911951E+02</totfact>
</mgrwt>
</event>
<event>
 5    0  0.3040647E+000  0.4459220E+03  0.7546771E-02  0.1028945E+00
          1   -1    0    0  502    0 -0.00000000000E+00  0.00000000000E+00  0.19114933914E+04  0.19114933914E+04  0.00000000000E+00 0.  1.
         21   -1    0    0  503  502  0.00000000000E+00 -0.00000000000E+00 -0.17896810405E+03  0.17896810405E+03  0.00000000000E+00 0.  1.
         25    1    1    2    0    0  0.28229972140E+03 -0.43600346824E+03  0.87929350728E+03  0.10288703655E+04  0.12500000000E+03 0.  0.
         21    1    1    2  503  501 -0.58457703884E+02  0.13090029440E+03  0.17808371333E+02  0.14446220373E+03  0.00000000000E+00 0.  1.
          1    1    1    2  501    0 -0.22384201751E+03  0.30510317383E+03  0.83542340872E+03  0.91712892622E+03  0.00000000000E+00 0.  1.
<mgrwt>
<rscale>  4 0.44592202E+03</rscale>
<asrwt>0</asrwt>
<pdfrwt beam="1">  1       21 0.27533556E-01 0.44592202E+03</pdfrwt>
<pdfrwt beam="2">  1        1 0.29407589E+00 0.44592202E+03</pdfrwt>
<totfact> 0.49227990E+02</totfact>
</mgrwt>
</event>
<event>
 5    0  0.3040647E+000  0.3716519E+03  0.7546771E-02  0.1054063E+00
         21   -1    0    0  503  502  0.00000000000E+00  0.00000000000E+00  0.10718653485E+04  0.10718653485E+04  0.00000000000E+00 0. -1.
          2   -1    0    0  502    0 -0.00000000000E+00 -0.00000000000E+00 -0.11323023411E+04  0.11323023411E+04  0.00000000000E+00 0. -1.
         25    1    1    2    0    0  0.25802551443E+03  0.22656893509E+03  0.30575431201E+03  0.47646757262E+03  0.12500000000E+03 0.  0.
         21    1    1    2  503  501 -0.18167853163E+03 -0.31100296696E+03  0.62964193493E+03  0.72538189978E+03  0.00000000000E+00 0. -1.
          2    1    1    2  501    0 -0.76346982802E+02  0.84434031868E+02 -0.99583323957E+03  0.10023182172E+04  0.00000000000E+00 0. -1.
<mgrwt>
<rscale>  4 0.37165186E+03</rscale>
<asrwt>0</asrwt>
<pdfrwt beam="1">  1       21 0.16490236E+00 0.37165186E+03</pdfrwt>
<pdfrwt beam="2">  1        2 0.17420036E+00 0.37165186E+03</pdfrwt>
<totfact> 0.56666216E+01</totfact>
</mgrwt>
</event>
<event>
 5    0  0.3040647E+000  0.2326472E+03  0.7546771E-02  0.1124790E+00
          2   -1    0    0  502    0 -0.00000000000E+00  0.00000000000E+00  0.64960352891E+03  0.64960352891E+03  0.00000000000E+00 0.  1.
         21   -1    0    0  503  502  0.00000000000E+00 -0.00000000000E+00 -0.86292461735E+03  0.86292461735E+03  0.00000000000E+00 0.  1.
         25    1    1    2    0    0  0.22913821510E+03 -0.43903535526E+02  0.49115946531E+03  0.55793768686E+03  0.12500000000E+03 0.  0.
         21    1    1    2  503  501 -0.19503644230E+03  0.12463870403E+02 -0.81321888257E+03  0.83637283125E+03  0.00000000000E+00 0.  1.
          2    1    1    2  501    0 -0.34101772801E+02  0.31439665123E+02  0.10873832881E+03  0.11821762815E+03  0.00000000000E+00 0.  1.
<mgrwt>
<rscale>  4 0.23264723E+03</rscale>
<asrwt>0</asrwt>
<pdfrwt beam="1">  1       21 0.13275763E+00 0.23264723E+03</pdfrwt>
<pdfrwt beam="2">  1        2 0.99939005E-01 0.23264723E+03</pdfrwt>
<totfact> 0.23017703E+02</totfact>
</mgrwt>
</event>
<event>
 5    0  0.3040647E+000  0.1872494E+03  0.7546771E-02  0.1160966E+00
          1   -1    0    0  502    0 -0.00000000000E+00  0.00000000000E+00  0.29683714450E+03  0.29683714450E+03  0.00000000000E+00 0.  1.
         21   -1    0    0  503  502  0.00000000000E+00 -0.00000000000E+00 -0.85450693332E+03  0.85450693332E+03  0.00000000000E+00 0.  1.
         25    1    1    2    0    0 -0.13377108234E+03 -0.19675035645E+03 -0.37820729541E+03  0.46397323580E+03  0.12500000000E+03 0.  0.
         21    1    1    2  503  501  0.17568472419E+02  0.12629505145E+03 -0.40470074406E+03  0.42431330817E+03  0.00000000000E+00 0.  1.
          1    1    1    2  501    0  0.11620260992E+03  0.70455305000E+02  0.22523825066E+03  0.26305753385E+03  0.00000000000E+00 0.  1.
<mgrwt>
<rscale>  4 0.18724936E+03</rscale>
<asrwt>0</asrwt>
<pdfrwt beam="1">  1       21 0.13146261E+00 0.18724936E+03</pdfrwt>
<pdfrwt beam="2">  1        1 0.45667253E-01 0.18724936E+03</pdfrwt>
<totfact> 0.40936627E+02</totfact>
</mgrwt>
</event>
<event>
 5    0  0.3040647E+000  0.2389054E+03  0.7546771E-02  0.1120524E+00
          2   -1    0    0  502    0 -0.00000000000E+00  0.00000000000E+00  0.12289839297E+04  0.12289839297E+04  0.00000000000E+00 0. -1.
         21   -1    0    0  503  502  0.00000000000E+00 -0.00000000000E+00 -0.56341041236E+03  0.56341041236E+03  0.00000000000E+00 0. -1.
         25    1    1    2    0    0  0.11007121956E+03 -0.19335172001E+03 -0.29983554645E+03  0.39373457547E+03  0.12500000000E+03 0.  0.
         21    1    1    2  503  501 -0.25588288925E+02  0.86124456604E+01 -0.20701455003E+03  0.20876771464E+03  0.00000000000E+00 0. -1.
          2    1    1    2  501    0 -0.84482930636E+02  0.18473927435E+03  0.11724236139E+04  0.11898920520E+04  0.00000000000E+00 0. -1.
<mgrwt>
<rscale>  4 0.23890542E+03</rscale>
<asrwt>0</asrwt>
<pdfrwt beam="1">  1       21 0.86678525E-01 0.23890542E+03</pdfrwt>
<pdfrwt beam="2">  1        2 0.18907445E+00 0.23890542E+03</pdfrwt>
<totfact> 0.27250508E+02</totfact>
</mgrwt>
</event>
<event>
 5    0  0.3040647E+000  0.2469779E+03  0.7546771E-02  0.1115230E+00
         21   -1    0    0  503  502  0.00000000000E+00  0.00000000000E+00  0.79122034119E+03  0.79122034119E+03  0.00000000000E+00 0.  1.
          2   -1    0    0  502    0 -0.00000000000E+00 -0.00000000000E+00 -0.94859101685E+02  0.94859101685E+02  0.00000000000E+00 0. -1.
         25    1    1    2    0    0  0.19810639866E+03 -0.27813384712E+02  0.35649788273E+03  0.42747569515E+03  0.12500000000E+03 0.  0.
         21    1    1    2  503  501  0.20809597853E+02  0.71788154686E+01  0.19284178385E+03  0.19409412241E+03  0.00000000000E+00 0.  1.
          2    1    1    2  501    0 -0.21891599651E+03  0.20634569244E+02  0.14702157293E+03  0.26450962531E+03  0.00000000000E+00 0. -1.
<mgrwt>
<rscale>  4 0.24697787E+03</rscale>
<asrwt>0</asrwt>
<pdfrwt beam="1">  1       21 0.12172620E+00 0.24697787E+03</pdfrwt>
<pdfrwt beam="2">  1        2 0.14593708E-01 0.24697787E+03</pdfrwt>
<totfact> 0.24476525E+03</totfact>
</mgrwt>
</event>
<event>
 5    0  0.3040647E+000  0.4960670E+03  0.7546771E-02  0.1014811E+00
         21   -1    0    0  503  502  0.00000000000E+00  0.00000000000E+00  0.45156744058E+03  0.45156744058E+03  0.00000000000E+00 0.  1.
          2   -1    0    0  502    0 -0.00000000000E+00 -0.00000000000E+00 -0.91968204586E+03  0.91968204586E+03  0.00000000000E+00 0. -1.
         25    1    1    2    0    0  0.47760117622E+03  0.13392490988E+03 -0.24872209384E+03  0.56879385104E+03  0.12500000000E+03 0.  0.
         21    1    1    2  503  501 -0.22021654852E+02 -0.20981166207E+02  0.18220495967E+03  0.18472631092E+03  0.00000000000E+00 0.  1.
          2    1    1    2  501    0 -0.45557952137E+03 -0.11294374367E+03 -0.40159747111E+03  0.61772932448E+03  0.00000000000E+00 0. -1.
<mgrwt>
<rscale>  4 0.49606703E+03</rscale>
<asrwt>0</asrwt>
<pdfrwt beam="1">  1       21 0.69471914E-01 0.49606703E+03</pdfrwt>
<pdfrwt beam="2">  1        2 0.14148955E+00 0.49606703E+03</pdfrwt>
<totfact> 0.62739982E+02</totfact>
</mgrwt>
</event>
<event>
 5    0  0.3040647E+000  0.2400633E+03  0.7546771E-02  0.1119751E+00
          1   -1    0    0  502    0 -0.00000000000E+00  0.00000000000E+00  0.10482187316E+04  0.10482187316E+04  0.00000000000E+00 0.  1.
         21   -1    0    0  503  502  0.00000000000E+00 -0.00000000000E+00 -0.33101506473E+03  0.33101506473E+03  0.00000000000E+00 0. -1.
         25    1    1    2    0    0 -0.13633680849E+03  0.25800206404E+03 -0.16037022513E+03  0.35566332325E+03  0.12500000000E+03 0.  0.
         21    1    1    2  503  501 -0.21972232976E+02 -0.13240425985E+03  0.12034071135E+02  0.13475342636E+03  0.00000000000E+00 0.  1.
          1    1    1    2  501    0  0.15830904147E+03 -0.12559780419E+03  0.86553982091E+03  0.88881704676E+03  0.00000000000E+00 0.  1.
<mgrwt>
<rscale>  4 0.24006325E+03</rscale>
<asrwt>0</asrwt>
<pdfrwt beam="1">  1       21 0.50925395E-01 0.24006325E+03</pdfrwt>
<pdfrwt beam="2">  1        1 0.16126442E+00 0.24006325E+03</pdfrwt>
<totfact> 0.59065857E+02</totfact>
</mgrwt>
</event>
<event>
 5    0  0.3040647E+000  0.1814299E+03  0.7546771E-02  0.1166426E+00
          2   -1    0    0  502    0 -0.00000000000E+00  0.00000000000E+00  0.10489585954E+04  0.10489585954E+04  0.00000000000E+00 0. -1.
         21   -1    0    0  503  502  0.00000000000E+00 -0.00000000000E+00 -0.57057779105E+03  0.57057779105E+03  0.00000000000E+00 0. -1.
         25    1    1    2    0    0  0.10360653891E+02  0.23296131610E+03  0.15521452561E+03  0.30674886619E+03  0.12500000000E+03 0.  0.
         21    1    1    2  503  501 -0.18686696906E+02 -0.10812816305E+03 -0.48384703804E+03  0.49613390179E+03  0.00000000000E+00 0. -1.
          2    1    1    2  501    0  0.83260430155E+01 -0.12483315306E+03  0.80701331675E+03  0.81665361844E+03  0.00000000000E+00 0. -1.
<mgrwt>
<rscale>  4 0.18142990E+03</rscale>
<asrwt>0</asrwt>
<pdfrwt beam="1">  1       21 0.87781199E-01 0.18142990E+03</pdfrwt>
<pdfrwt beam="2">  1        2 0.16137824E+00 0.18142990E+03</pdfrwt>
<totfact> 0.35034891E+02</totfact>
</mgrwt>
</event>
<event>
 5    0  0.3040647E+000  0.2639567E+03  0.7546771E-02  0.1104789E+00
         21   -1    0    0  503  502  0.00000000000E+00  0.00000000000E+00  0.33274044071E+03  0.33274044071E+03  0.00000000000E+00 0.  1.
          2   -1    0    0  502    0 -0.00000000000E+00 -0.00000000000E+00 -0.11378694170E+04  0.11378694170E+04  0.00000000000E+00 0. -1.
         25    1    1    2    0    0  0.82176640858E+02  0.24613384321E+03 -0.17468551434E+02  0.28855678707E+03  0.12500000000E+03 0.  0.
         21    1    1    2  503  501  0.16392452612E+02 -0.38359158264E+02  0.18137145435E+03  0.18610680261E+03  0.00000000000E+00 0.  1.
          2    1    1    2  501    0 -0.98569093470E+02 -0.20777468494E+03 -0.96903187923E+03  0.99594626805E+03  0.00000000000E+00 0. -1.
<mgrwt>
<rscale>  4 0.26395675E+03</rscale>
<asrwt>0</asrwt>
<pdfrwt beam="1">  1       21 0.51190836E-01 0.26395675E+03</pdfrwt>
<pdfrwt beam="2">  1        2 0.17505684E+00 0.26395675E+03</pdfrwt>
<totfact> 0.96705209E+02</totfact>
</mgrwt>
</event>
<event>
 5    0  0.3040647E+000  0.2622456E+03  0.7546771E-02  0.1105802E+00
          1   -1    0    0  502    0 -0.00000000000E+00  0.00000000000E+00  0.26764763560E+04  0.26764763560E+04  0.00000000000E+00 0. -1.
         21   -1    0    0  503  502  0.00000000000E+00 -0.00000000000E+00 -0.51025034159E+02  0.51025034159E+02  0.00000000000E+00 0. -1.
         25    1    1    2    0    0  0.20649962237E+03  0.10168114891E+03  0.35124322518E+03  0.43815288806E+03  0.12500000000E+03 0.  0.
         21    1    1    2  503  501 -0.76141842573E+01  0.20478531373E+02  0.86177064095E+02  0.88903500634E+02  0.00000000000E+00 0. -1.
          1    1    1    2  501    0 -0.19888543811E+03 -0.12215968028E+03  0.21880310326E+04  0.22004450015E+04  0.00000000000E+00 0. -1.
<mgrwt>
<rscale>  4 0.26224556E+03</rscale>
<asrwt>0</asrwt>
<pdfrwt beam="1">  1       21 0.78500073E-02 0.26224556E+03</pdfrwt>
<pdfrwt beam="2">  1        1 0.41176548E+00 0.26224556E+03</pdfrwt>
<totfact> 0.16671282E+03</totfact>
</mgrwt>
</event>
<event>
 5    0  0.3040647E+000  0.3802886E+03  0.7546771E-02  0.1050827E+00
         21   -1    0    0  503  502  0.00000000000E+00  0.00000000000E+00  0.30245331108E+03  0.30245331108E+03  0.00000000000E+00 0. -1.
          2   -1    0    0  502    0 -0.00000000000E+00 -0.00000000000E+00 -0.11213494464E+04  0.11213494464E+04  0.00000000000E+00 0. -1.
         25    1    1    2    0    0  0.16089060450E+03 -0.36770530158E+03 -0.19421891060E+02  0.42082678774E+03  0.12500000000E+03 0.  0.
         21    1    1    2  503  501  0.24377709436E+01  0.55915722806E+02  0.55231672652E+02  0.78632362600E+02  0.00000000000E+00 0.  1.
          2    1    1    2  501    0 -0.16332837544E+03  0.31178957878E+03 -0.85470591691E+03  0.92434360714E+03  0.00000000000E+00 0. -1.
<mgrwt>
<rscale>  4 0.38028859E+03</rscale>
<asrwt>0</asrwt>
<pdfrwt beam="1">  1       21 0.46531280E-01 0.38028859E+03</pdfrwt>
<pdfrwt beam="2">  1        2 0.17251530E+00 0.38028859E+03</pdfrwt>
<totfact> 0.11580797E+03</totfact>
</mgrwt>
</event>
<event>
 5    0  0.3040647E+000  0.2144765E+03  0.7546771E-02  0.1138069E+00
         21   -1    0    0  503  502  0.00000000000E+00  0.00000000000E+00  0.77248050142E+02  0.77248050142E+02  0.00000000000E+00 0.  1.
          2   -1    0    0  502    0 -0.00000000000E+00 -0.00000000000E+00 -0.11743289984E+04  0.11743289984E+04  0.00000000000E+00 0.  1.
         25    1    1    2    0    0 -0.18238325494E+03  0.10172223311E+03 -0.34575880841E+03  0.42283001074E+03  0.12500000000E+03 0.  0.
         21    1    1    2  503  501  0.29585264944E+02 -0.35743587392E+02  0.11644619198E+02  0.47838155250E+02  0.00000000000E+00 0.  1.
          2    1    1    2  501    0  0.15279798999E+03 -0.65978645720E+02 -0.76296675901E+03  0.78090888251E+03  0.00000000000E+00 0.  1.
<mgrwt>
<rscale>  4 0.21447650E+03</rscale>
<asrwt>0</asrwt>
<pdfrwt beam="1">  1       21 0.11884316E-01 0.21447650E+03</pdfrwt>
<pdfrwt beam="2">  1        2 0.18066599E+00 0.21447650E+03</pdfrwt>
<totfact> 0.15670087E+04</totfact>
</mgrwt>
</event>
<event>
 5    0  0.3040647E+000  0.3009009E+03  0.7546771E-02  0.1084791E+00
          2   -1    0    0  502    0 -0.00000000000E+00  0.00000000000E+00  0.34152887303E+04  0.34152887303E+04  0.00000000000E+00 0. -1.
         21   -1    0    0  503  502  0.00000000000E+00 -0.00000000000E+00 -0.54632867113E+02  0.54632867113E+02  0.00000000000E+00 0.  1.
         25    1    1    2    0    0 -0.16652925801E+03  0.22300528665E+03  0.51842753094E+03  0.60154422654E+03  0.12500000000E+03 0.  0.
         21    1    1    2  503  501 -0.20760571831E+02 -0.24078743253E+02  0.32745230350E+02  0.45640303790E+02  0.00000000000E+00 0. -1.
          2    1    1    2  501    0  0.18728982984E+03 -0.19892654340E+03  0.28094831019E+04  0.28227370671E+04  0.00000000000E+00 0. -1.
<mgrwt>
<rscale>  4 0.30090095E+03</rscale>
<asrwt>0</asrwt>
<pdfrwt beam="1">  1       21 0.84050591E-02 0.30090095E+03</pdfrwt>
<pdfrwt beam="2">  1        2 0.52542887E+00 0.30090095E+03</pdfrwt>
<totfact> 0.15752070E+03</totfact>
</mgrwt>
</event>
<event>
 5    0  0.3040647E+000  0.3164182E+03  0.7546771E-02  0.1077310E+00
         21   -1    0    0  503  502  0.00000000000E+00  0.00000000000E+00  0.18371807551E+04  0.18371807551E+04  0.00000000000E+00 0.  1.
          2   -1    0    0  502    0 -0.00000000000E+00 -0.00000000000E+00 -0.36191726157E+03  0.36191726157E+03  0.00000000000E+00 0.  1.
         25    1    1    2    0    0  0.17099383573E+03  0.18694226131E+03  0.16218280152E+04  0.16462494986E+04  0.12500000000E+03 0.  0.
         21    1    1    2  503  501  0.50475115783E+02  0.36061329020E+01  0.13679056933E+03  0.14585061318E+03  0.00000000000E+00 0. -1.
          2    1    1    2  501    0 -0.22146895151E+03 -0.19054839421E+03 -0.28335509094E+03  0.40699790489E+03  0.00000000000E+00 0.  1.
<mgrwt>
<rscale>  4 0.31641819E+03</rscale>
<asrwt>0</asrwt>
<pdfrwt beam="1">  1       21 0.28264319E+00 0.31641819E+03</pdfrwt>
<pdfrwt beam="2">  1        2 0.55679580E-01 0.31641819E+03</pdfrwt>
<totfact> 0.42368239E+01</totfact>
</mgrwt>
</event>
<event>
 5    0  0.3040647E+000  0.5250909E+03  0.7546771E-02  0.1007430E+00
         21   -1    0    0  503  502  0.00000000000E+00  0.00000000000E+00  0.65712237902E+03  0.65712237902E+03  0.00000000000E+00 0. -1.
          1   -1    0    0  502    0 -0.00000000000E+00 -0.00000000000E+00 -0.16599397142E+04  0.16599397142E+04  0.00000000000E+00 0. -1.
         25    1    1    2    0    0 -0.29684507629E+03  0.44263663447E+03 -0.25186867637E+03  0.60258362044E+03  0.12500000000E+03 0.  0.
         21    1    1    2  503  501  0.31265106413E+02 -0.15068082406E+02  0.42965592165E+03  0.43105540827E+03  0.00000000000E+00 0. -1.
          1    1    1    2  501    0  0.26557996988E+03 -0.42756855206E+03 -0.11806045804E+04  0.12834230645E+04  0.00000000000E+00 0. -1.
<mgrwt>
<rscale>  4 0.52509095E+03</rscale>
<asrwt>0</asrwt>
<pdfrwt beam="1">  1       21 0.10109575E+00 0.52509095E+03</pdfrwt>
<pdfrwt beam="2">  1        1 0.25537534E+00 0.52509095E+03</pdfrwt>
<totfact> 0.42024227E+01</totfact>
</mgrwt>
</event>
<event>
 5    0  0.3040647E+000  0.1692514E+03  0.7546771E-02  0.1178631E+00
          2   -1    0    0  502    0 -0.00000000000E+00  0.00000000000E+00  0.26041110572E+04  0.26041110572E+04  0.00000000000E+00 0.  1.
         21   -1    0    0  503  502  0.00000000000E+00 -0.00000000000E+00 -0.90657877525E+02  0.90657877525E+02  0.00000000000E+00 0.  1.
         25    1    1    2    0    0 -0.60947681436E+02 -0.19388691181E+03  0.19825333945E+03  0.31021950462E+03  0.12500000000E+03 0.  0.
         21    1    1    2  503  501  0.33259127932E+02  0.85429423745E+02  0.29781280383E+02  0.96391289510E+02  0.00000000000E+00 0.  1.
          2    1    1    2  501    0  0.27688553505E+02  0.10845748806E+03  0.22854185599E+04  0.22881581406E+04  0.00000000000E+00 0.  1.
<mgrwt>
<rscale>  4 0.16925144E+03</rscale>
<asrwt>0</asrwt>
<pdfrwt beam="1">  1       21 0.13947368E-01 0.16925144E+03</pdfrwt>
<pdfrwt beam="2">  1        2 0.40063241E+00 0.16925144E+03</pdfrwt>
<totfact> 0.20951080E+03</totfact>
</mgrwt>
</event>
<event>
 5    0  0.3040647E+000  0.3040605E+03  0.7546771E-02  0.1083228E+00
         21   -1    0    0  503  502  0.00000000000E+00  0.00000000000E+00  0.12145743762E+03  0.12145743762E+03  0.00000000000E+00 0.  1.
          2   -1    0    0  502    0 -0.00000000000E+00 -0.00000000000E+00 -0.28427744670E+04  0.28427744670E+04  0.00000000000E+00 0.  1.
         25    1    1    2    0    0  0.21551983499E+03  0.85902664242E+02 -0.98648430154E+03  0.10210799891E+04  0.12500000000E+03 0.  0.
         21    1    1    2  503  501 -0.25557416087E+03 -0.12886160318E+03 -0.93992480251E+02  0.30126076881E+03  0.00000000000E+00 0.  1.
          2    1    1    2  501    0  0.40054325885E+02  0.42958938935E+02 -0.16408402476E+04  0.16418911467E+04  0.00000000000E+00 0.  1.
<mgrwt>
<rscale>  4 0.30406045E+03</rscale>
<asrwt>0</asrwt>
<pdfrwt beam="1">  1       21 0.18685761E-01 0.30406045E+03</pdfrwt>
<pdfrwt beam="2">  1        2 0.43734989E+00 0.30406045E+03</pdfrwt>
<totfact> 0.82595290E+02</totfact>
</mgrwt>
</event>
<event>
 5    0  0.3040647E+000  0.2604395E+03  0.7546771E-02  0.1106879E+00
         21   -1    0    0  503  502  0.00000000000E+00  0.00000000000E+00  0.65943855764E+03  0.65943855764E+03  0.00000000000E+00 0. -1.
          2   -1    0    0  502    0 -0.00000000000E+00 -0.00000000000E+00 -0.32177716783E+03  0.32177716783E+03  0.00000000000E+00 0.  1.
         25    1    1    2    0    0 -0.17364257242E+03 -0.10220237740E+03  0.19132071747E+02  0.23788254470E+03  0.12500000000E+03 0.  0.
         21    1    1    2  503  501  0.56734204824E+01 -0.79099253386E+02  0.45441929101E+03  0.46128708157E+03  0.00000000000E+00 0. -1.
          2    1    1    2  501    0  0.16796915194E+03  0.18130163078E+03 -0.13588997294E+03  0.28204609920E+03  0.00000000000E+00 0.  1.
<mgrwt>
<rscale>  4 0.26043952E+03</rscale>
<asrwt>0</asrwt>
<pdfrwt beam="1">  1       21 0.10145209E+00 0.26043952E+03</pdfrwt>
<pdfrwt beam="2">  1        2 0.49504180E-01 0.26043952E+03</pdfrwt>
<totfact> 0.96647236E+02</totfact>
</mgrwt>
</event>
<event>
 5    0  0.3040647E+000  0.2560785E+03  0.7546771E-02  0.1109523E+00
         21   -1    0    0  503  502  0.00000000000E+00  0.00000000000E+00  0.68601948241E+02  0.68601948241E+02  0.00000000000E+00 0. -1.
          2   -1    0    0  502    0 -0.00000000000E+00 -0.00000000000E+00 -0.22536032775E+04  0.22536032775E+04  0.00000000000E+00 0. -1.
         25    1    1    2    0    0  0.99636018077E+01  0.20273876928E+03 -0.58811894451E+03  0.63459528427E+03  0.12500000000E+03 0.  0.
         21    1    1    2  503  501 -0.66481235331E+02  0.23699680389E+02  0.31466566252E+01  0.70649352082E+02  0.00000000000E+00 0. -1.
          2    1    1    2  501    0  0.56517633524E+02 -0.22643844967E+03 -0.16000290414E+04  0.16169605894E+04  0.00000000000E+00 0. -1.
<mgrwt>
<rscale>  4 0.25607846E+03</rscale>
<asrwt>0</asrwt>
<pdfrwt beam="1">  1       21 0.10554148E-01 0.25607846E+03</pdfrwt>
<pdfrwt beam="2">  1        2 0.34670812E+00 0.25607846E+03</pdfrwt>
<totfact> 0.50821653E+03</totfact>
</mgrwt>
</event>
<event>
 5    0  0.3040647E+000  0.2397509E+03  0.7546771E-02  0.1119959E+00
          2   -1    0    0  502    0 -0.00000000000E+00  0.00000000000E+00  0.25076735298E+03  0.25076735298E+03  0.00000000000E+00 0. -1.
         21   -1    0    0  503  502  0.00000000000E+00 -0.00000000000E+00 -0.81979264313E+03  0.81979264313E+03  0.00000000000E+00 0.  1.
         25    1    1    2    0    0  0.54797469925E+02  0.20131872048E+03  0.14902172156E+03  0.28524456774E+03  0.12500000000E+03 0.  0.
         21    1    1    2  503  501 -0.52197447223E+00 -0.20530262633E+02 -0.48490458572E+03  0.48533928483E+03  0.00000000000E+00 0.  1.
          2    1    1    2  501    0 -0.54275495452E+02 -0.18078845785E+03 -0.23314242599E+03  0.29997614354E+03  0.00000000000E+00 0. -1.
<mgrwt>
<rscale>  4 0.23975089E+03</rscale>
<asrwt>0</asrwt>
<pdfrwt beam="1">  1       21 0.12612194E+00 0.23975089E+03</pdfrwt>
<pdfrwt beam="2">  1        2 0.38579593E-01 0.23975089E+03</pdfrwt>
<totfact> 0.74764969E+02</totfact>
</mgrwt>
</event>
<event>
 5    0  0.3040647E+000  0.3098722E+03  0.7546771E-02  0.1080407E+00
         21   -1    0    0  503  502  0.00000000000E+00  0.00000000000E+00  0.46627736629E+02  0.46627736629E+02  0.00000000000E+00 0. -1.
          2   -1    0    0  502    0 -0.00000000000E+00 -0.00000000000E+00 -0.21537882873E+04  0.21537882873E+04  0.00000000000E+00 0. -1.
         25    1    1    2    0    0  0.27014249983E+03 -0.27561020306E+02 -0.91330996339E+03  0.96098734085E+03  0.12500000000E+03 0.  0.
         21    1    1    2  503  501  0.20954506986E+02 -0.16694426195E+01 -0.17831121575E+02  0.27564965052E+02  0.00000000000E+00 0.  1.
          2    1    1    2  501    0 -0.29109700681E+03  0.29230462925E+02 -0.11760194657E+04  0.12118637180E+04  0.00000000000E+00 0. -1.
<mgrwt>
<rscale>  4 0.30987223E+03</rscale>
<asrwt>0</asrwt>
<pdfrwt beam="1">  1       21 0.71734982E-02 0.30987223E+03</pdfrwt>
<pdfrwt beam="2">  1        2 0.33135203E+00 0.30987223E+03</pdfrwt>
<totfact> 0.11152201E+04</totfact>
</mgrwt>
</event>
<event>
 5    0  0.3040647E+000  0.3007088E+03  0.7546771E-02  0.1084887E+00
         21   -1    0    0  503  502  0.00000000000E+00  0.00000000000E+00  0.12117833498E+03  0.12117833498E+03  0.00000000000E+00 0.  1.
          2   -1    0    0  502    0 -0.00000000000E+00 -0.00000000000E+00 -0.77015153838E+03  0.77015153838E+03  0.00000000000E+00 0. -1.
         25    1    1    2    0    0  0.84365529387E+02  0.26178577822E+03 -0.27355716674E+03  0.40756331987E+03  0.12500000000E+03 0.  0.
         21    1    1    2  503  501 -0.22612867306E+02  0.39799911051E+01 -0.46489211076E+01  0.23426364730E+02  0.00000000000E+00 0.  1.
          2    1    1    2  501    0 -0.61752662081E+02 -0.26576576932E+03 -0.37076711555E+03  0.46034018876E+03  0.00000000000E+00 0. -1.
<mgrwt>
<rscale>  4 0.30070884E+03</rscale>
<asrwt>0</asrwt>
<pdfrwt beam="1">  1       21 0.18642820E-01 0.30070884E+03</pdfrwt>
<pdfrwt beam="2">  1        2 0.11848486E+00 0.30070884E+03</pdfrwt>
<totfact> 0.12094686E+04</totfact>
</mgrwt>
</event>
<event>
 5    0  0.3040647E+000  0.2689965E+03  0.7546771E-02  0.1101855E+00
         21   -1    0    0  503  502  0.00000000000E+00  0.00000000000E+00  0.27535049644E+03  0.27535049644E+03  0.00000000000E+00 0. -1.
          2   -1    0    0  502    0 -0.00000000000E+00 -0.00000000000E+00 -0.11331586248E+04  0.11331586248E+04  0.00000000000E+00 0. -1.
         25    1    1    2    0    0 -0.18715098461E+02 -0.25201347848E+03  0.16633179069E+03  0.32734127885E+03  0.12500000000E+03 0.  0.
         21    1    1    2  503  501 -0.13393578197E+02  0.16773893929E+02  0.73638794532E+01  0.22693130570E+02  0.00000000000E+00 0. -1.
          2    1    1    2  501    0  0.32108676658E+02  0.23523958455E+03 -0.10315037985E+04  0.10584747119E+04  0.00000000000E+00 0. -1.
<mgrwt>
<rscale>  4 0.26899652E+03</rscale>
<asrwt>0</asrwt>
<pdfrwt beam="1">  1       21 0.42361616E-01 0.26899652E+03</pdfrwt>
<pdfrwt beam="2">  1        2 0.17433209E+00 0.26899652E+03</pdfrwt>
<totfact> 0.14397341E+03</totfact>
</mgrwt>
</event>
<event>
 5    0  0.3040647E+000  0.3330144E+03  0.7546771E-02  0.1069811E+00
         21   -1    0    0  503  502  0.00000000000E+00  0.00000000000E+00  0.30262155038E+03  0.30262155038E+03  0.00000000000E+00 0. -1.
          2   -1    0    0  502    0 -0.00000000000E+00 -0.00000000000E+00 -0.78964044268E+03  0.78964044268E+03  0.00000000000E+00 0. -1.
         25    1    1    2    0    0 -0.19893784947E+03 -0.30147092506E+03  0.54565812752E+02  0.38608731464E+03  0.12500000000E+03 0.  0.
         21    1    1    2  503  501  0.19882192799E+02  0.60977451030E+02  0.21993366688E+02  0.67803092133E+02  0.00000000000E+00 0. -1.
          2    1    1    2  501    0  0.17905565667E+03  0.24049347403E+03 -0.56357807174E+03  0.63837158629E+03  0.00000000000E+00 0. -1.
<mgrwt>
<rscale>  4 0.33301444E+03</rscale>
<asrwt>0</asrwt>
<pdfrwt beam="1">  1       21 0.46557163E-01 0.33301444E+03</pdfrwt>
<pdfrwt beam="2">  1        2 0.12148314E+00 0.33301444E+03</pdfrwt>
<totfact> 0.19120519E+03</totfact>
</mgrwt>
</event>
<event>
 5    0  0.3040647E+000  0.3169464E+03  0.7546771E-02  0.1077063E+00
          2   -1    0    0  502    0 -0.00000000000E+00  0.00000000000E+00  0.18513270394E+04  0.18513270394E+04  0.00000000000E+00 0. -1.
         21   -1    0    0  503  502  0.00000000000E+00 -0.00000000000E+00 -0.19707389032E+03  0.19707389032E+03  0.00000000000E+00 0. -1.
         25    1    1    2    0    0  0.25108630471E+03  0.17936041289E+03  0.63524558288E+03  0.71720041877E+03  0.12500000000E+03 0.  0.
         21    1    1    2  503  501 -0.40557843590E+02  0.12110033387E+02 -0.13559363905E+03  0.14204656468E+03  0.00000000000E+00 0. -1.
          2    1    1    2  501    0 -0.21052846112E+03 -0.19147044628E+03  0.11546012053E+04  0.11891539463E+04  0.00000000000E+00 0. -1.
<mgrwt>
<rscale>  4 0.31694637E+03</rscale>
<asrwt>0</asrwt>
<pdfrwt beam="1">  1       21 0.30319061E-01 0.31694637E+03</pdfrwt>
<pdfrwt beam="2">  1        2 0.28481953E+00 0.31694637E+03</pdfrwt>
<totfact> 0.11250919E+03</totfact>
</mgrwt>
</event>
<event>
 5    0  0.3040647E+000  0.2700761E+03  0.7546771E-02  0.1101236E+00
          2   -1    0    0  502    0 -0.00000000000E+00  0.00000000000E+00  0.29045045014E+03  0.29045045014E+03  0.00000000000E+00 0. -1.
         21   -1    0    0  503  502  0.00000000000E+00 -0.00000000000E+00 -0.80472723578E+03  0.80472723578E+03  0.00000000000E+00 0.  1.
         25    1    1    2    0    0 -0.19756441494E+03 -0.14046063442E+03 -0.71504016724E+03  0.76528970242E+03  0.12500000000E+03 0.  0.
         21    1    1    2  503  501  0.13010713381E+02  0.37422551871E+02  0.18847424204E+01  0.39664572420E+02  0.00000000000E+00 0. -1.
          2    1    1    2  501    0  0.18455370156E+03  0.10303808255E+03  0.19887863918E+03  0.29022341108E+03  0.00000000000E+00 0. -1.
<mgrwt>
<rscale>  4 0.27007612E+03</rscale>
<asrwt>0</asrwt>
<pdfrwt beam="1">  1       21 0.12380419E+00 0.27007612E+03</pdfrwt>
<pdfrwt beam="2">  1        2 0.44684686E-01 0.27007612E+03</pdfrwt>
<totfact> 0.65916715E+02</totfact>
</mgrwt>
</event>
<event>
 5    0  0.3040647E+000  0.4057690E+03  0.7546771E-02  0.1041800E+00
         21   -1    0    0  503  502  0.00000000000E+00  0.00000000000E+00  0.46647180676E+03  0.46647180676E+03  0.00000000000E+00 0.  1.
          1   -1    0    0  502    0 -0.00000000000E+00 -0.00000000000E+00 -0.95852595054E+03  0.95852595054E+03  0.00000000000E+00 0.  1.
         25    1    1    2    0    0 -0.21744164322E+03  0.35630308546E+03  0.26924594466E+03  0.51220224095E+03  0.12500000000E+03 0.  0.
         21    1    1    2  503  501  0.25646305664E+02 -0.25371161514E+02  0.21179502200E+02  0.41833003050E+02  0.00000000000E+00 0.  1.
          1    1    1    2  501    0  0.19179533756E+03 -0.33093192394E+03 -0.78247959065E+03  0.87096251330E+03  0.00000000000E+00 0.  1.
<mgrwt>
<rscale>  4 0.40576896E+03</rscale>
<asrwt>0</asrwt>
<pdfrwt beam="1">  1       21 0.71764895E-01 0.40576896E+03</pdfrwt>
<pdfrwt beam="2">  1        1 0.14746553E+00 0.40576896E+03</pdfrwt>
<totfact> 0.30514133E+02</totfact>
</mgrwt>
</event>
<event>
 5    0  0.3040647E+000  0.1946468E+03  0.7546771E-02  0.1154336E+00
         -4   -1    0    0    0  501 -0.00000000000E+00  0.00000000000E+00  0.16374962921E+03  0.16374962921E+03  0.00000000000E+00 0.  1.
         21   -1    0    0  501  502  0.00000000000E+00 -0.00000000000E+00 -0.19594548671E+04  0.19594548671E+04  0.00000000000E+00 0.  1.
         25    1    1    2    0    0 -0.95066414060E+02 -0.22692547618E+03 -0.47996333671E+03  0.55364483146E+03  0.12500000000E+03 0.  0.
         21    1    1    2  503  502  0.25499882159E+02  0.10338548066E+03 -0.14003900221E+04  0.14044326312E+04  0.00000000000E+00 0.  1.
         -4    1    1    2    0  503  0.69566531901E+02  0.12353999552E+03  0.84648120941E+02  0.16512703362E+03  0.00000000000E+00 0.  1.
<mgrwt>
<rscale>  4 0.19464676E+03</rscale>
<asrwt>0</asrwt>
<pdfrwt beam="1">  1       21 0.30145458E+00 0.19464676E+03</pdfrwt>
<pdfrwt beam="2">  1       -4 0.25192252E-01 0.19464676E+03</pdfrwt>
<totfact> 0.20758857E+01</totfact>
</mgrwt>
</event>
<event>
 5    0  0.3040647E+000  0.2654136E+03  0.7546771E-02  0.1103934E+00
          2   -1    0    0  502    0 -0.00000000000E+00  0.00000000000E+00  0.23033918522E+04  0.23033918522E+04  0.00000000000E+00 0. -1.
         21   -1    0    0  503  502  0.00000000000E+00 -0.00000000000E+00 -0.39066571162E+02  0.39066571162E+02  0.00000000000E+00 0. -1.
         25    1    1    2    0    0 -0.24641203498E+03  0.29821335063E+02  0.65692255657E+03  0.71328847484E+03  0.12500000000E+03 0.  0.
         21    1    1    2  503  501  0.16698735785E+02 -0.17925468898E+02  0.60709480764E+02  0.65466107771E+02  0.00000000000E+00 0. -1.
          2    1    1    2  501    0  0.22971329920E+03 -0.11895866165E+02  0.15466932437E+04  0.15637038408E+04  0.00000000000E+00 0. -1.
<mgrwt>
<rscale>  4 0.26541358E+03</rscale>
<asrwt>0</asrwt>
<pdfrwt beam="1">  1       21 0.60102435E-02 0.26541358E+03</pdfrwt>
<pdfrwt beam="2">  1        2 0.35436787E+00 0.26541358E+03</pdfrwt>
<totfact> 0.12781819E+04</totfact>
</mgrwt>
</event>
<event>
 5    0  0.3040647E+000  0.3050364E+03  0.7546771E-02  0.1082750E+00
         21   -1    0    0  503  502  0.00000000000E+00  0.00000000000E+00  0.18341196342E+04  0.18341196342E+04  0.00000000000E+00 0. -1.
          1   -1    0    0  502    0 -0.00000000000E+00 -0.00000000000E+00 -0.15112352458E+04  0.15112352458E+04  0.00000000000E+00 0. -1.
         25    1    1    2    0    0  0.12181766790E+01  0.37914370006E+03 -0.51137844280E+03  0.64875599497E+03  0.12500000000E+03 0.  0.
         21    1    1    2  503  501 -0.39070985581E+02 -0.27365377111E+03  0.17511770906E+04  0.17728604376E+04  0.00000000000E+00 0. -1.
          1    1    1    2  501    0  0.37852808903E+02 -0.10548992894E+03 -0.91691425938E+03  0.92373844745E+03  0.00000000000E+00 0. -1.
<mgrwt>
<rscale>  4 0.30503637E+03</rscale>
<asrwt>0</asrwt>
<pdfrwt beam="1">  1       21 0.28217225E+00 0.30503637E+03</pdfrwt>
<pdfrwt beam="2">  1        1 0.23249773E+00 0.30503637E+03</pdfrwt>
<totfact> 0.29833855E+00</totfact>
</mgrwt>
</event>
<event>
 5    0  0.3040647E+000  0.2215943E+03  0.7546771E-02  0.1132700E+00
          2   -1    0    0  502    0 -0.00000000000E+00  0.00000000000E+00  0.23292614497E+04  0.23292614497E+04  0.00000000000E+00 0.  1.
         21   -1    0    0  503  502  0.00000000000E+00 -0.00000000000E+00 -0.55784349517E+02  0.55784349517E+02  0.00000000000E+00 0. -1.
         25    1    1    2    0    0 -0.22496960876E+03  0.10134567402E+03  0.40636680041E+03  0.49157018521E+03  0.12500000000E+03 0.  0.
         21    1    1    2  503  501  0.56064348667E+02 -0.50533486876E+02  0.15601453671E+03  0.17331295437E+03  0.00000000000E+00 0. -1.
          2    1    1    2  501    0  0.16890526010E+03 -0.50812187142E+02  0.17110957630E+04  0.17201626596E+04  0.00000000000E+00 0.  1.
<mgrwt>
<rscale>  4 0.22159434E+03</rscale>
<asrwt>0</asrwt>
<pdfrwt beam="1">  1       21 0.85822094E-02 0.22159434E+03</pdfrwt>
<pdfrwt beam="2">  1        2 0.35834784E+00 0.22159434E+03</pdfrwt>
<totfact> 0.67777561E+03</totfact>
</mgrwt>
</event>
<event>
 5    0  0.3040647E+000  0.2546756E+03  0.7546771E-02  0.1110385E+00
         21   -1    0    0  503  502  0.00000000000E+00  0.00000000000E+00  0.51590636461E+02  0.51590636461E+02  0.00000000000E+00 0. -1.
          2   -1    0    0  502    0 -0.00000000000E+00 -0.00000000000E+00 -0.14506825805E+04  0.14506825805E+04  0.00000000000E+00 0. -1.
         25    1    1    2    0    0 -0.16068132331E+03 -0.15421207033E+03 -0.41652997003E+03  0.48859192199E+03  0.12500000000E+03 0.  0.
         21    1    1    2  503  501  0.18370730464E+02 -0.16107224748E+02 -0.59715067960E+02  0.64519886612E+02  0.00000000000E+00 0.  1.
          2    1    1    2  501    0  0.14231059285E+03  0.17031929508E+03 -0.92284690601E+03  0.94916140832E+03  0.00000000000E+00 0. -1.
<mgrwt>
<rscale>  4 0.25467559E+03</rscale>
<asrwt>0</asrwt>
<pdfrwt beam="1">  1       21 0.79370205E-02 0.25467559E+03</pdfrwt>
<pdfrwt beam="2">  1        2 0.22318195E+00 0.25467559E+03</pdfrwt>
<totfact> 0.22331953E+04</totfact>
</mgrwt>
</event>
<event>
 5    0  0.3040647E+000  0.2852620E+03  0.7546771E-02  0.1092849E+00
         21   -1    0    0  503  502  0.00000000000E+00  0.00000000000E+00  0.43882159763E+03  0.43882159763E+03  0.00000000000E+00 0.  1.
          2   -1    0    0  502    0 -0.00000000000E+00 -0.00000000000E+00 -0.26530558088E+03  0.26530558088E+03  0.00000000000E+00 0.  1.
         25    1    1    2    0    0  0.12528630170E+03  0.23255791115E+03  0.19273546704E+03  0.35007399173E+03  0.12500000000E+03 0.  0.
         21    1    1    2  503  501 -0.25218424094E+02  0.10916069640E+01  0.77950934757E+02  0.81936003985E+02  0.00000000000E+00 0.  1.
          2    1    1    2  501    0 -0.10006787761E+03 -0.23364951811E+03 -0.97170385046E+02  0.27211718279E+03  0.00000000000E+00 0.  1.
<mgrwt>
<rscale>  4 0.28526196E+03</rscale>
<asrwt>0</asrwt>
<pdfrwt beam="1">  1       21 0.67511015E-01 0.28526196E+03</pdfrwt>
<pdfrwt beam="2">  1        2 0.40816243E-01 0.28526196E+03</pdfrwt>
<totfact> 0.30145524E+03</totfact>
</mgrwt>
</event>
<event>
 5    0  0.3040647E+000  0.1945363E+03  0.7546771E-02  0.1154432E+00
          2   -1    0    0  502    0 -0.00000000000E+00  0.00000000000E+00  0.14349209563E+04  0.14349209563E+04  0.00000000000E+00 0.  1.
         21   -1    0    0  503  502  0.00000000000E+00 -0.00000000000E+00 -0.24855011737E+04  0.24855011737E+04  0.00000000000E+00 0. -1.
         25    1    1    2    0    0  0.18360973362E+03  0.17163083170E+03 -0.21669026919E+03  0.35461154724E+03  0.12500000000E+03 0.  0.
         21    1    1    2  503  501 -0.12337055833E+03 -0.77389815641E+02 -0.21951437449E+04  0.21999694404E+04  0.00000000000E+00 0. -1.
          2    1    1    2  501    0 -0.60239175294E+02 -0.94241016064E+02  0.13612537966E+04  0.13658411424E+04  0.00000000000E+00 0.  1.
<mgrwt>
<rscale>  4 0.19453628E+03</rscale>
<asrwt>0</asrwt>
<pdfrwt beam="1">  1       21 0.38238480E+00 0.19453628E+03</pdfrwt>
<pdfrwt beam="2">  1        2 0.22075707E+00 0.19453628E+03</pdfrwt>
<totfact> 0.21174375E+00</totfact>
</mgrwt>
</event>
<event>
 5    0  0.3040647E+000  0.3161310E+03  0.7546771E-02  0.1077444E+00
         -1   -1    0    0    0  501 -0.00000000000E+00  0.00000000000E+00  0.16704287754E+04  0.16704287754E+04  0.00000000000E+00 0.  1.
         21   -1    0    0  501  502  0.00000000000E+00 -0.00000000000E+00 -0.27843244074E+03  0.27843244074E+03  0.00000000000E+00 0.  1.
         25    1    1    2    0    0  0.77196674243E+02  0.27965986616E+03  0.65755111266E+01  0.31597025905E+03  0.12500000000E+03 0.  0.
         21    1    1    2  503  502  0.96082635847E+02 -0.44595359995E+02 -0.83713712337E+02  0.13501335000E+03  0.00000000000E+00 0.  1.
         -1    1    1    2    0  503 -0.17327931009E+03 -0.23506450617E+03  0.14691345358E+04  0.14978776071E+04  0.00000000000E+00 0.  1.
<mgrwt>
<rscale>  4 0.31613097E+03</rscale>
<asrwt>0</asrwt>
<pdfrwt beam="1">  1       21 0.42835761E-01 0.31613097E+03</pdfrwt>
<pdfrwt beam="2">  1       -1 0.25698903E+00 0.31613097E+03</pdfrwt>
<totfact> 0.33351019E+01</totfact>
</mgrwt>
</event>
<event>
 5    0  0.3040647E+000  0.4268377E+03  0.7546771E-02  0.1034864E+00
          4   -1    0    0  502    0 -0.00000000000E+00  0.00000000000E+00  0.38217482358E+03  0.38217482358E+03  0.00000000000E+00 0.  1.
         21   -1    0    0  503  502  0.00000000000E+00 -0.00000000000E+00 -0.82755016071E+03  0.82755016071E+03  0.00000000000E+00 0. -1.
         25    1    1    2    0    0 -0.38832946881E+03  0.12899770869E+03 -0.55886653093E+03  0.70384443209E+03  0.12500000000E+03 0.  0.
         21    1    1    2  503  501 -0.48562752772E+01 -0.20100612693E+02 -0.59306834910E+02  0.62808587846E+02  0.00000000000E+00 0. -1.
          4    1    1    2  501    0  0.39318574409E+03 -0.10889709600E+03  0.17279802871E+03  0.44307196436E+03  0.00000000000E+00 0.  1.
<mgrwt>
<rscale>  4 0.42683773E+03</rscale>
<asrwt>0</asrwt>
<pdfrwt beam="1">  1       21 0.12731541E+00 0.42683773E+03</pdfrwt>
<pdfrwt beam="2">  1        4 0.58796127E-01 0.42683773E+03</pdfrwt>
<totfact> 0.49701067E+01</totfact>
</mgrwt>
</event>
<event>
 5    0  0.3040647E+000  0.3117235E+03  0.7546771E-02  0.1079523E+00
          2   -1    0    0  502    0 -0.00000000000E+00  0.00000000000E+00  0.76510520308E+03  0.76510520308E+03  0.00000000000E+00 0.  1.
         21   -1    0    0  503  502  0.00000000000E+00 -0.00000000000E+00 -0.13014104375E+03  0.13014104375E+03  0.00000000000E+00 0.  1.
         25    1    1    2    0    0  0.75450345629E+02 -0.27541571065E+03  0.45323077550E+03  0.55008154322E+03  0.12500000000E+03 0.  0.
         21    1    1    2  503  501 -0.70969994276E+02  0.21277060497E+03  0.10997983636E+03  0.24980719532E+03  0.00000000000E+00 0.  1.
          2    1    1    2  501    0 -0.44803513524E+01  0.62645105681E+02  0.71753547465E+02  0.95357508293E+02  0.00000000000E+00 0.  1.
<mgrwt>
<rscale>  4 0.31172354E+03</rscale>
<asrwt>0</asrwt>
<pdfrwt beam="1">  1       21 0.20021700E-01 0.31172354E+03</pdfrwt>
<pdfrwt beam="2">  1        2 0.11770849E+00 0.31172354E+03</pdfrwt>
<totfact> 0.10641992E+04</totfact>
</mgrwt>
</event>
<event>
 5    0  0.3040647E+000  0.2361431E+03  0.7546771E-02  0.1122389E+00
         21   -1    0    0  503  502  0.00000000000E+00  0.00000000000E+00  0.98967228792E+03  0.98967228792E+03  0.00000000000E+00 0.  1.
          1   -1    0    0  502    0 -0.00000000000E+00 -0.00000000000E+00 -0.19423142075E+03  0.19423142075E+03  0.00000000000E+00 0. -1.
         25    1    1    2    0    0 -0.14664386235E+03  0.22031779969E+03  0.69577469326E+03  0.75483228535E+03  0.12500000000E+03 0.  0.
         21    1    1    2  503  501 -0.21614500157E+02 -0.11872450621E+03  0.18002394559E+03  0.21672866903E+03  0.00000000000E+00 0.  1.
          1    1    1    2  501    0  0.16825836250E+03 -0.10159329348E+03 -0.80357771680E+02  0.21234275430E+03  0.00000000000E+00 0. -1.
<mgrwt>
<rscale>  4 0.23614314E+03</rscale>
<asrwt>0</asrwt>
<pdfrwt beam="1">  1       21 0.15225727E+00 0.23614314E+03</pdfrwt>
<pdfrwt beam="2">  1        1 0.29881758E-01 0.23614314E+03</pdfrwt>
<totfact> 0.46188182E+02</totfact>
</mgrwt>
</event>
<event>
 5    0  0.3040647E+000  0.2797134E+03  0.7546771E-02  0.1095846E+00
         21   -1    0    0  503  502  0.00000000000E+00  0.00000000000E+00  0.92133604292E+02  0.92133604292E+02  0.00000000000E+00 0. -1.
          2   -1    0    0  502    0 -0.00000000000E+00 -0.00000000000E+00 -0.92217950189E+03  0.92217950189E+03  0.00000000000E+00 0. -1.
         25    1    1    2    0    0 -0.18319630623E+03  0.18225696476E+03 -0.28357845922E+03  0.40350988879E+03  0.12500000000E+03 0.  0.
         21    1    1    2  503  501  0.16198855395E+03 -0.17628315438E+03 -0.42894273344E+03  0.49123101561E+03  0.00000000000E+00 0. -1.
          2    1    1    2  501    0  0.21207752283E+02 -0.59738103800E+01 -0.11752470494E+03  0.11957220178E+03  0.00000000000E+00 0. -1.
<mgrwt>
<rscale>  4 0.27971338E+03</rscale>
<asrwt>0</asrwt>
<pdfrwt beam="1">  1       21 0.14174400E-01 0.27971338E+03</pdfrwt>
<pdfrwt beam="2">  1        2 0.14187377E+00 0.27971338E+03</pdfrwt>
<totfact> 0.15918513E+04</totfact>
</mgrwt>
</event>
<event>
 5    0  0.3040647E+000  0.2202017E+03  0.7546771E-02  0.1133733E+00
         21   -1    0    0  503  502  0.00000000000E+00  0.00000000000E+00  0.34874979022E+03  0.34874979022E+03  0.00000000000E+00 0. -1.
          1   -1    0    0  502    0 -0.00000000000E+00 -0.00000000000E+00 -0.99215643815E+03  0.99215643815E+03  0.00000000000E+00 0. -1.
         25    1    1    2    0    0  0.46513466553E+02 -0.19843369016E+03  0.12456881371E+02  0.23941513289E+03  0.12500000000E+03 0.  0.
         21    1    1    2  503  501 -0.68595575879E+02  0.16111989307E+03  0.18776436231E+03  0.25674973949E+03  0.00000000000E+00 0. -1.
          1    1    1    2  501    0  0.22082109325E+02  0.37313797091E+02 -0.84362789161E+03  0.84474135598E+03  0.00000000000E+00 0. -1.
<mgrwt>
<rscale>  4 0.22020167E+03</rscale>
<asrwt>0</asrwt>
<pdfrwt beam="1">  1       21 0.53653815E-01 0.22020167E+03</pdfrwt>
<pdfrwt beam="2">  1        1 0.15263945E+00 0.22020167E+03</pdfrwt>
<totfact> 0.58862836E+02</totfact>
</mgrwt>
</event>
<event>
 5    0  0.3040647E+000  0.3659162E+03  0.7546771E-02  0.1056266E+00
          1   -1    0    0  502    0 -0.00000000000E+00  0.00000000000E+00  0.14751031954E+04  0.14751031954E+04  0.00000000000E+00 0. -1.
         21   -1    0    0  503  502  0.00000000000E+00 -0.00000000000E+00 -0.89646307249E+03  0.89646307249E+03  0.00000000000E+00 0. -1.
         25    1    1    2    0    0  0.27107070084E+03  0.10736202042E+03 -0.62233542465E+03  0.69852151653E+03  0.12500000000E+03 0.  0.
         21    1    1    2  503  501 -0.16100771946E+02  0.12679740278E+03 -0.19590170020E+03  0.23391086411E+03  0.00000000000E+00 0.  1.
          1    1    1    2  501    0 -0.25496992889E+03 -0.23415942320E+03  0.13968772478E+04  0.14391338873E+04  0.00000000000E+00 0. -1.
<mgrwt>
<rscale>  4 0.36591623E+03</rscale>
<asrwt>0</asrwt>
<pdfrwt beam="1">  1       21 0.13791740E+00 0.36591623E+03</pdfrwt>
<pdfrwt beam="2">  1        1 0.22693895E+00 0.36591623E+03</pdfrwt>
<totfact> 0.27364623E+01</totfact>
</mgrwt>
</event>
<event>
 5    0  0.3040647E+000  0.2908306E+03  0.7546771E-02  0.1089916E+00
         21   -1    0    0  501  502  0.00000000000E+00  0.00000000000E+00  0.82436459250E+03  0.82436459250E+03  0.00000000000E+00 0.  1.
         -4   -1    0    0    0  501 -0.00000000000E+00 -0.00000000000E+00 -0.95331910933E+03  0.95331910933E+03  0.00000000000E+00 0. -1.
         25    1    1    2    0    0 -0.16437606062E+03 -0.19028240339E+03  0.34487566102E+03  0.44473711775E+03  0.12500000000E+03 0.  0.
         21    1    1    2  503  502 -0.36225572927E+02  0.19770980473E+02  0.40931652131E+03  0.41139178215E+03  0.00000000000E+00 0.  1.
         -4    1    1    2    0  503  0.20060163355E+03  0.17051142292E+03 -0.88314669915E+03  0.92155480193E+03  0.00000000000E+00 0. -1.
<mgrwt>
<rscale>  4 0.29083056E+03</rscale>
<asrwt>0</asrwt>
<pdfrwt beam="1">  1       21 0.12682532E+00 0.29083056E+03</pdfrwt>
<pdfrwt beam="2">  1       -4 0.14666448E+00 0.29083056E+03</pdfrwt>
<totfact> 0.61772537E+00</totfact>
</mgrwt>
</event>
<event>
 5    0  0.3040647E+000  0.1924725E+03  0.7546771E-02  0.1156250E+00
          2   -1    0    0  502    0 -0.00000000000E+00  0.00000000000E+00  0.18329369605E+04  0.18329369605E+04  0.00000000000E+00 0. -1.
         21   -1    0    0  503  502  0.00000000000E+00 -0.00000000000E+00 -0.16381279268E+03  0.16381279268E+03  0.00000000000E+00 0. -1.
         25    1    1    2    0    0 -0.21188832381E+03  0.38520129023E+02  0.35822064364E+03  0.43626539129E+03  0.12500000000E+03 0.  0.
         21    1    1    2  503  501  0.13848277416E+03 -0.17246440857E+02 -0.84399700304E+02  0.16308963141E+03  0.00000000000E+00 0. -1.
          2    1    1    2  501    0  0.73405549653E+02 -0.21273688166E+02  0.13953032245E+04  0.13973947305E+04  0.00000000000E+00 0. -1.
<mgrwt>
<rscale>  4 0.19247255E+03</rscale>
<asrwt>0</asrwt>
<pdfrwt beam="1">  1       21 0.25201969E-01 0.19247255E+03</pdfrwt>
<pdfrwt beam="2">  1        2 0.28199029E+00 0.19247255E+03</pdfrwt>
<totfact> 0.17548218E+03</totfact>
</mgrwt>
</event>
<event>
 5    0  0.3040647E+000  0.2023983E+03  0.7546771E-02  0.1147731E+00
          1   -1    0    0  502    0 -0.00000000000E+00  0.00000000000E+00  0.19680895660E+04  0.19680895660E+04  0.00000000000E+00 0.  1.
         21   -1    0    0  503  502  0.00000000000E+00 -0.00000000000E+00 -0.70775070171E+02  0.70775070171E+02  0.00000000000E+00 0.  1.
         25    1    1    2    0    0  0.15445993093E+03 -0.13041274174E+03  0.17062868108E+03  0.29258246748E+03  0.12500000000E+03 0.  0.
         21    1    1    2  503  501 -0.33366435871E+02  0.31161218930E+02  0.79537380167E+02  0.91708971490E+02  0.00000000000E+00 0.  1.
          1    1    1    2  501    0 -0.12109349506E+03  0.99251522814E+02  0.16471484346E+04  0.16545731972E+04  0.00000000000E+00 0.  1.
<mgrwt>
<rscale>  4 0.20239834E+03</rscale>
<asrwt>0</asrwt>
<pdfrwt beam="1">  1       21 0.10888474E-01 0.20239834E+03</pdfrwt>
<pdfrwt beam="2">  1        1 0.30278297E+00 0.20239834E+03</pdfrwt>
<totfact> 0.28111732E+03</totfact>
</mgrwt>
</event>
<event>
 5    0  0.3040647E+000  0.3443419E+03  0.7546771E-02  0.1064962E+00
          3   -1    0    0  502    0 -0.00000000000E+00  0.00000000000E+00  0.35670189342E+03  0.35670189342E+03  0.00000000000E+00 0. -1.
         21   -1    0    0  503  502  0.00000000000E+00 -0.00000000000E+00 -0.65962310498E+03  0.65962310498E+03  0.00000000000E+00 0. -1.
         25    1    1    2    0    0  0.27220314650E+03  0.13032945027E+03 -0.36538094339E+03  0.49011075520E+03  0.12500000000E+03 0.  0.
         21    1    1    2  503  501  0.49419412117E+01  0.39769760619E+02 -0.13834245682E+03  0.14403017740E+03  0.00000000000E+00 0. -1.
          3    1    1    2  501    0 -0.27714508771E+03 -0.17009921089E+03  0.20080218866E+03  0.38218406580E+03  0.00000000000E+00 0. -1.
<mgrwt>
<rscale>  4 0.34434191E+03</rscale>
<asrwt>0</asrwt>
<pdfrwt beam="1">  1       21 0.10148048E+00 0.34434191E+03</pdfrwt>
<pdfrwt beam="2">  1        3 0.54877215E-01 0.34434191E+03</pdfrwt>
<totfact> 0.12376884E+02</totfact>
</mgrwt>
</event>
<event>
 5    0  0.3040647E+000  0.4074417E+03  0.7546771E-02  0.1041233E+00
          1   -1    0    0  502    0 -0.00000000000E+00  0.00000000000E+00  0.62777342832E+03  0.62777342832E+03  0.00000000000E+00 0.  1.
         21   -1    0    0  503  502  0.00000000000E+00 -0.00000000000E+00 -0.10236487939E+04  0.10236487939E+04  0.00000000000E+00 0.  1.
         25    1    1    2    0    0  0.23379463170E+03 -0.25848922551E+03 -0.72826581564E+03  0.81699002916E+03  0.12500000000E+03 0.  0.
         21    1    1    2  503  501 -0.10278171263E+02 -0.62794250903E+02 -0.17927921746E+03  0.19023615998E+03  0.00000000000E+00 0.  1.
          1    1    1    2  501    0 -0.22351646043E+03  0.32128347641E+03  0.51166966755E+03  0.64419603305E+03  0.00000000000E+00 0.  1.
<mgrwt>
<rscale>  4 0.40744166E+03</rscale>
<asrwt>0</asrwt>
<pdfrwt beam="1">  1       21 0.15748443E+00 0.40744166E+03</pdfrwt>
<pdfrwt beam="2">  1        1 0.96580528E-01 0.40744166E+03</pdfrwt>
<totfact> 0.84398031E+01</totfact>
</mgrwt>
</event>
<event>
 5    0  0.3040647E+000  0.2447820E+03  0.7546771E-02  0.1116648E+00
         21   -1    0    0  501  502  0.00000000000E+00  0.00000000000E+00  0.58935770984E+03  0.58935770984E+03  0.00000000000E+00 0. -1.
         -3   -1    0    0    0  501 -0.00000000000E+00 -0.00000000000E+00 -0.20035218051E+03  0.20035218051E+03  0.00000000000E+00 0.  1.
         25    1    1    2    0    0  0.20535724740E+03 -0.14482892872E+03  0.35452035771E+03  0.45216888624E+03  0.12500000000E+03 0.  0.
         21    1    1    2  503  502 -0.55711968593E+02  0.68867679416E+01  0.10753454942E+03  0.12130511257E+03  0.00000000000E+00 0.  1.
         -3    1    1    2    0  503 -0.14964527881E+03  0.13794216078E+03 -0.73049377799E+02  0.21623589153E+03  0.00000000000E+00 0.  1.
<mgrwt>
<rscale>  4 0.24478204E+03</rscale>
<asrwt>0</asrwt>
<pdfrwt beam="1">  1       21 0.90670416E-01 0.24478204E+03</pdfrwt>
<pdfrwt beam="2">  1       -3 0.30823413E-01 0.24478204E+03</pdfrwt>
<totfact> 0.51402482E+02</totfact>
</mgrwt>
</event>
<event>
 5    0  0.3040647E+000  0.2631084E+03  0.7546771E-02  0.1105290E+00
          1   -1    0    0  502    0 -0.00000000000E+00  0.00000000000E+00  0.21291250423E+04  0.21291250423E+04  0.00000000000E+00 0. -1.
         21   -1    0    0  503  502  0.00000000000E+00 -0.00000000000E+00 -0.89392519489E+03  0.89392519489E+03  0.00000000000E+00 0.  1.
         25    1    1    2    0    0 -0.31787753083E+02 -0.22082217368E+03  0.56584909701E+03  0.62095337524E+03  0.12500000000E+03 0.  0.
         21    1    1    2  503  501  0.24089660319E+02 -0.13644976877E+02 -0.85718927565E+03  0.85763625822E+03  0.00000000000E+00 0.  1.
          1    1    1    2  501    0  0.76980927637E+01  0.23446715055E+03  0.15265400260E+04  0.15444606037E+04  0.00000000000E+00 0. -1.
<mgrwt>
<rscale>  4 0.26310843E+03</rscale>
<asrwt>0</asrwt>
<pdfrwt beam="1">  1       21 0.13752695E+00 0.26310843E+03</pdfrwt>
<pdfrwt beam="2">  1        1 0.32755770E+00 0.26310843E+03</pdfrwt>
<totfact> 0.11060374E+01</totfact>
</mgrwt>
</event>
<event>
 5    0  0.3040647E+000  0.2747370E+03  0.7546771E-02  0.1098599E+00
         21   -1    0    0  503  502  0.00000000000E+00  0.00000000000E+00  0.39252796928E+02  0.39252796928E+02  0.00000000000E+00 0.  1.
          2   -1    0    0  502    0 -0.00000000000E+00 -0.00000000000E+00 -0.26321441484E+04  0.26321441484E+04  0.00000000000E+00 0. -1.
         25    1    1    2    0    0 -0.50459381758E+02 -0.26556278764E+03 -0.75971329721E+03  0.81600186112E+03  0.12500000000E+03 0.  0.
         21    1    1    2  503  501 -0.44120468478E+01  0.34642321560E+02 -0.97537302581E+02  0.10360058878E+03  0.00000000000E+00 0.  1.
          2    1    1    2  501    0  0.54871428606E+02  0.23092046608E+03 -0.17356407517E+04  0.17517944954E+04  0.00000000000E+00 0. -1.
<mgrwt>
<rscale>  4 0.27473704E+03</rscale>
<asrwt>0</asrwt>
<pdfrwt beam="1">  1       21 0.60388909E-02 0.27473704E+03</pdfrwt>
<pdfrwt beam="2">  1        2 0.40494532E+00 0.27473704E+03</pdfrwt>
<totfact> 0.83557368E+03</totfact>
</mgrwt>
</event>
<event>
 5    0  0.3040647E+000  0.1744568E+03  0.7546771E-02  0.1173278E+00
          1   -1    0    0  502    0 -0.00000000000E+00  0.00000000000E+00  0.13242404621E+04  0.13242404621E+04  0.00000000000E+00 0. -1.
         21   -1    0    0  503  502  0.00000000000E+00 -0.00000000000E+00 -0.61215080311E+03  0.61215080311E+03  0.00000000000E+00 0. -1.
         25    1    1    2    0    0  0.49330004864E+02 -0.20324842945E+03 -0.18566251209E+03  0.30633142485E+03  0.12500000000E+03 0.  0.
         21    1    1    2  503  501 -0.36345052093E+02  0.83260293740E+02 -0.35757974281E+03  0.36893971295E+03  0.00000000000E+00 0. -1.
          1    1    1    2  501    0 -0.12984952771E+02  0.11998813571E+03  0.12553319139E+04  0.12611201274E+04  0.00000000000E+00 0. -1.
<mgrwt>
<rscale>  4 0.17445683E+03</rscale>
<asrwt>0</asrwt>
<pdfrwt beam="1">  1       21 0.94177047E-01 0.17445683E+03</pdfrwt>
<pdfrwt beam="2">  1        1 0.20372930E+00 0.17445683E+03</pdfrwt>
<totfact> 0.10234729E+02</totfact>
</mgrwt>
</event>
<event>
 5    0  0.3040647E+000  0.3317775E+03  0.7546771E-02  0.1070353E+00
         21   -1    0    0  503  502  0.00000000000E+00  0.00000000000E+00  0.10831213487E+03  0.10831213487E+03  0.00000000000E+00 0.  1.
          2   -1    0    0  502    0 -0.00000000000E+00 -0.00000000000E+00 -0.11152099408E+04  0.11152099408E+04  0.00000000000E+00 0. -1.
         25    1    1    2    0    0  0.10181393488E+03 -0.27085786610E+03 -0.31848959569E+03  0.44809673456E+03  0.12500000000E+03 0.  0.
         21    1    1    2  503  501  0.15762328725E+02 -0.23778906221E+02 -0.17952788278E+02  0.33707417505E+02  0.00000000000E+00 0.  1.
          2    1    1    2  501    0 -0.11757626361E+03  0.29463677232E+03 -0.67045542201E+03  0.74171792365E+03  0.00000000000E+00 0. -1.
<mgrwt>
<rscale>  4 0.33177754E+03</rscale>
<asrwt>0</asrwt>
<pdfrwt beam="1">  1       21 0.16663405E-01 0.33177754E+03</pdfrwt>
<pdfrwt beam="2">  1        2 0.17157076E+00 0.33177754E+03</pdfrwt>
<totfact> 0.89012123E+03</totfact>
</mgrwt>
</event>
<event>
 5    0  0.3040647E+000  0.1895055E+03  0.7546771E-02  0.1158908E+00
          2   -1    0    0  502    0 -0.00000000000E+00  0.00000000000E+00  0.84388985059E+03  0.84388985059E+03  0.00000000000E+00 0.  1.
         21   -1    0    0  503  502  0.00000000000E+00 -0.00000000000E+00 -0.29525600717E+03  0.29525600717E+03  0.00000000000E+00 0. -1.
         25    1    1    2    0    0  0.20844993825E+03  0.17557441961E+03 -0.15390814727E+03  0.33703185513E+03  0.12500000000E+03 0.  0.
         21    1    1    2  503  501 -0.10490313322E+03 -0.83590739440E+02  0.63811448457E+02  0.14853948981E+03  0.00000000000E+00 0. -1.
          2    1    1    2  501    0 -0.10354680503E+03 -0.91983680169E+02  0.63873054222E+03  0.65357451283E+03  0.00000000000E+00 0.  1.
<mgrwt>
<rscale>  4 0.18950552E+03</rscale>
<asrwt>0</asrwt>
<pdfrwt beam="1">  1       21 0.45424001E-01 0.18950552E+03</pdfrwt>
<pdfrwt beam="2">  1        2 0.12982921E+00 0.18950552E+03</pdfrwt>
<totfact> 0.19515501E+03</totfact>
</mgrwt>
</event>
<event>
 5    0  0.3040647E+000  0.4093273E+03  0.7546771E-02  0.1040597E+00
          2   -1    0    0  502    0 -0.00000000000E+00  0.00000000000E+00  0.13778108416E+04  0.13778108416E+04  0.00000000000E+00 0.  1.
         21   -1    0    0  503  502  0.00000000000E+00 -0.00000000000E+00 -0.23940931603E+03  0.23940931603E+03  0.00000000000E+00 0.  1.
         25    1    1    2    0    0  0.35796073792E+03  0.11945795540E+03  0.12286208666E+02  0.39772106296E+03  0.12500000000E+03 0.  0.
         21    1    1    2  503  501  0.18823620116E+02 -0.11485506301E+02 -0.48186266439E+01  0.22571324551E+02  0.00000000000E+00 0.  1.
          2    1    1    2  501    0 -0.37678435804E+03 -0.10797244910E+03  0.11309339435E+04  0.11969277701E+04  0.00000000000E+00 0.  1.
<mgrwt>
<rscale>  4 0.40932726E+03</rscale>
<asrwt>0</asrwt>
<pdfrwt beam="1">  1       21 0.36832203E-01 0.40932726E+03</pdfrwt>
<pdfrwt beam="2">  1        2 0.21197090E+00 0.40932726E+03</pdfrwt>
<totfact> 0.13275052E+03</totfact>
</mgrwt>
</event>
<event>
 5    0  0.3040647E+000  0.2621072E+03  0.7546771E-02  0.1105884E+00
         21   -1    0    0  503  502  0.00000000000E+00  0.00000000000E+00  0.55539553181E+03  0.55539553181E+03  0.00000000000E+00 0.  1.
          1   -1    0    0  502    0 -0.00000000000E+00 -0.00000000000E+00 -0.58840404241E+03  0.58840404241E+03  0.00000000000E+00 0. -1.
         25    1    1    2    0    0 -0.13397438088E+03 -0.15788846341E+03 -0.34973225588E+02  0.24438909165E+03  0.12500000000E+03 0.  0.
         21    1    1    2  503  501 -0.19392248776E+02 -0.23293967198E+02  0.41870766806E+03  0.41980326287E+03  0.00000000000E+00 0.  1.
          1    1    1    2  501    0  0.15336662966E+03  0.18118243060E+03 -0.41674295307E+03  0.47960721970E+03  0.00000000000E+00 0. -1.
<mgrwt>
<rscale>  4 0.26210720E+03</rscale>
<asrwt>0</asrwt>
<pdfrwt beam="1">  1       21 0.85445467E-01 0.26210720E+03</pdfrwt>
<pdfrwt beam="2">  1        1 0.90523698E-01 0.26210720E+03</pdfrwt>
<totfact> 0.45668293E+02</totfact>
</mgrwt>
</event>
<event>
 5    0  0.3040647E+000  0.2243770E+03  0.7546771E-02  0.1130661E+00
         21   -1    0    0  503  502  0.00000000000E+00  0.00000000000E+00  0.35925252620E+03  0.35925252620E+03  0.00000000000E+00 0. -1.
          2   -1    0    0  502    0 -0.00000000000E+00 -0.00000000000E+00 -0.32831920267E+03  0.32831920267E+03  0.00000000000E+00 0. -1.
         25    1    1    2    0    0  0.23409720390E+03 -0.39118478749E+02 -0.11998254835E+02  0.26851576187E+03  0.12500000000E+03 0.  0.
         21    1    1    2  503  501 -0.13441425824E+03  0.11892980656E+03  0.16397758013E+03  0.24310520047E+03  0.00000000000E+00 0. -1.
          2    1    1    2  501    0 -0.99682945658E+02 -0.79811327815E+02 -0.12104600177E+03  0.17595076654E+03  0.00000000000E+00 0. -1.
<mgrwt>
<rscale>  4 0.22437695E+03</rscale>
<asrwt>0</asrwt>
<pdfrwt beam="1">  1       21 0.55269619E-01 0.22437695E+03</pdfrwt>
<pdfrwt beam="2">  1        2 0.50510647E-01 0.22437695E+03</pdfrwt>
<totfact> 0.37603143E+03</totfact>
</mgrwt>
</event>
<event>
 5    0  0.3040647E+000  0.2511993E+03  0.7546771E-02  0.1112549E+00
         21   -1    0    0  503  502  0.00000000000E+00  0.00000000000E+00  0.39820124903E+03  0.39820124903E+03  0.00000000000E+00 0. -1.
          3   -1    0    0  502    0 -0.00000000000E+00 -0.00000000000E+00 -0.45323282444E+03  0.45323282444E+03  0.00000000000E+00 0. -1.
         25    1    1    2    0    0  0.18353370356E+02  0.20263016384E+03  0.24464707632E+03  0.34186696455E+03  0.12500000000E+03 0.  0.
         21    1    1    2  503  501  0.92680182094E+02 -0.11054822498E+02  0.42049821881E+02  0.10237193353E+03  0.00000000000E+00 0. -1.
          3    1    1    2  501    0 -0.11103355245E+03 -0.19157534134E+03 -0.34172847361E+03  0.40719517539E+03  0.00000000000E+00 0. -1.
<mgrwt>
<rscale>  4 0.25119934E+03</rscale>
<asrwt>0</asrwt>
<pdfrwt beam="1">  1       21 0.61261730E-01 0.25119934E+03</pdfrwt>
<pdfrwt beam="2">  1        3 0.69728127E-01 0.25119934E+03</pdfrwt>
<totfact> 0.24217036E+02</totfact>
</mgrwt>
</event>
<event>
 5    0  0.3040647E+000  0.2742209E+03  0.7546771E-02  0.1098888E+00
          1   -1    0    0  502    0 -0.00000000000E+00  0.00000000000E+00  0.23075039997E+03  0.23075039997E+03  0.00000000000E+00 0.  1.
         21   -1    0    0  503  502  0.00000000000E+00 -0.00000000000E+00 -0.39512927479E+03  0.39512927479E+03  0.00000000000E+00 0.  1.
         25    1    1    2    0    0 -0.20938242810E+03 -0.14714200914E+03 -0.18551717286E+03  0.33990203512E+03  0.12500000000E+03 0.  0.
         21    1    1    2  503  501  0.52667503467E+02 -0.19386550993E+02  0.10212227142E+02  0.57043789005E+02  0.00000000000E+00 0.  1.
          1    1    1    2  501    0  0.15671492463E+03  0.16652856013E+03  0.10926070900E+02  0.22893385064E+03  0.00000000000E+00 0.  1.
<mgrwt>
<rscale>  4 0.27422092E+03</rscale>
<asrwt>0</asrwt>
<pdfrwt beam="1">  1       21 0.60789119E-01 0.27422092E+03</pdfrwt>
<pdfrwt beam="2">  1        1 0.35500062E-01 0.27422092E+03</pdfrwt>
<totfact> 0.32692898E+03</totfact>
</mgrwt>
</event>
<event>
 5    0  0.3040647E+000  0.2291276E+03  0.7546771E-02  0.1127255E+00
          2   -1    0    0  502    0 -0.00000000000E+00  0.00000000000E+00  0.13021490081E+04  0.13021490081E+04  0.00000000000E+00 0.  1.
         21   -1    0    0  503  502  0.00000000000E+00 -0.00000000000E+00 -0.45281669941E+03  0.45281669941E+03  0.00000000000E+00 0. -1.
         25    1    1    2    0    0 -0.17439501503E+03 -0.15217376332E+03 -0.23782962752E+03  0.35462431845E+03  0.12500000000E+03 0.  0.
         21    1    1    2  503  501  0.16172688497E+02  0.45025780778E+02 -0.14539279355E+03  0.15306188684E+03  0.00000000000E+00 0. -1.
          2    1    1    2  501    0  0.15822232653E+03  0.10714798254E+03  0.12325547298E+04  0.12472795022E+04  0.00000000000E+00 0.  1.
<mgrwt>
<rscale>  4 0.22912758E+03</rscale>
<asrwt>0</asrwt>
<pdfrwt beam="1">  1       21 0.69664108E-01 0.22912758E+03</pdfrwt>
<pdfrwt beam="2">  1        2 0.20033062E+00 0.22912758E+03</pdfrwt>
<totfact> 0.40916323E+02</totfact>
</mgrwt>
</event>
<event>
 5    0  0.3040647E+000  0.3638194E+03  0.7546771E-02  0.1057082E+00
          1   -1    0    0  502    0 -0.00000000000E+00  0.00000000000E+00  0.68409062531E+03  0.68409062531E+03  0.00000000000E+00 0.  1.
         21   -1    0    0  503  502  0.00000000000E+00 -0.00000000000E+00 -0.92571922396E+03  0.92571922396E+03  0.00000000000E+00 0.  1.
         25    1    1    2    0    0  0.33715880257E+03  0.88357386131E+02 -0.35749489941E+03  0.51469475317E+03  0.12500000000E+03 0.  0.
         21    1    1    2  503  501 -0.84072001319E+00 -0.31728273887E+02 -0.44098294445E+03  0.44212367893E+03  0.00000000000E+00 0.  1.
          1    1    1    2  501    0 -0.33631808256E+03 -0.56629112244E+02  0.55684924522E+03  0.65299141718E+03  0.00000000000E+00 0.  1.
<mgrwt>
<rscale>  4 0.36381942E+03</rscale>
<asrwt>0</asrwt>
<pdfrwt beam="1">  1       21 0.14241834E+00 0.36381942E+03</pdfrwt>
<pdfrwt beam="2">  1        1 0.10524471E+00 0.36381942E+03</pdfrwt>
<totfact> 0.99683603E+01</totfact>
</mgrwt>
</event>
<event>
 5    0  0.3040647E+000  0.3462622E+03  0.7546771E-02  0.1064160E+00
         21   -1    0    0  501  502  0.00000000000E+00  0.00000000000E+00  0.12662658186E+03  0.12662658186E+03  0.00000000000E+00 0.  1.
         -1   -1    0    0    0  501 -0.00000000000E+00 -0.00000000000E+00 -0.16432058512E+04  0.16432058512E+04  0.00000000000E+00 0. -1.
         25    1    1    2    0    0 -0.23867899019E+03  0.22428567805E+03 -0.22329127037E+03  0.41563892642E+03  0.12500000000E+03 0.  0.
         21    1    1    2  503  502 -0.10419426396E+02 -0.20096261569E+02 -0.13133144933E+01  0.22674853262E+02  0.00000000000E+00 0.  1.
         -1    1    1    2    0  503  0.24909841658E+03 -0.20418941648E+03 -0.12919746845E+04  0.13315186534E+04  0.00000000000E+00 0. -1.
<mgrwt>
<rscale>  4 0.34626225E+03</rscale>
<asrwt>0</asrwt>
<pdfrwt beam="1">  1       21 0.19481013E-01 0.34626225E+03</pdfrwt>
<pdfrwt beam="2">  1       -1 0.25280089E+00 0.34626225E+03</pdfrwt>
<totfact> 0.16506914E+02</totfact>
</mgrwt>
</event>
<event>
 5    0  0.3040647E+000  0.2488809E+03  0.7546771E-02  0.1114014E+00
          2   -1    0    0  502    0 -0.00000000000E+00  0.00000000000E+00  0.11286368743E+04  0.11286368743E+04  0.00000000000E+00 0. -1.
         21   -1    0    0  503  502  0.00000000000E+00 -0.00000000000E+00 -0.86580447779E+02  0.86580447779E+02  0.00000000000E+00 0. -1.
         25    1    1    2    0    0 -0.23277166572E+03 -0.22436918684E+02  0.26292169792E+03  0.37341516161E+03  0.12500000000E+03 0.  0.
         21    1    1    2  503  501  0.43640255849E+02 -0.76609634906E+02  0.11968727691E+03  0.14865581841E+03  0.00000000000E+00 0.  1.
          2    1    1    2  501    0  0.18913140987E+03  0.99046553590E+02  0.65944745165E+03  0.69314634203E+03  0.00000000000E+00 0. -1.
<mgrwt>
<rscale>  4 0.24888092E+03</rscale>
<asrwt>0</asrwt>
<pdfrwt beam="1">  1       21 0.13320070E-01 0.24888092E+03</pdfrwt>
<pdfrwt beam="2">  1        2 0.17363643E+00 0.24888092E+03</pdfrwt>
<totfact> 0.13436013E+04</totfact>
</mgrwt>
</event>
<event>
 5    0  0.3040647E+000  0.2403429E+03  0.7546771E-02  0.1119565E+00
         21   -1    0    0  503  502  0.00000000000E+00  0.00000000000E+00  0.37502899272E+03  0.37502899272E+03  0.00000000000E+00 0.  1.
          2   -1    0    0  502    0 -0.00000000000E+00 -0.00000000000E+00 -0.18194159746E+04  0.18194159746E+04  0.00000000000E+00 0.  1.
         25    1    1    2    0    0 -0.79960139348E+02 -0.21141587512E+03  0.31093750460E+03  0.40422447712E+03  0.12500000000E+03 0.  0.
         21    1    1    2  503  501 -0.13325785551E+02  0.28922012829E+02 -0.10693190154E+02  0.33591720740E+02  0.00000000000E+00 0.  1.
          2    1    1    2  501    0  0.93285924900E+02  0.18249386229E+03 -0.17446312963E+04  0.17566287694E+04  0.00000000000E+00 0.  1.
<mgrwt>
<rscale>  4 0.24034287E+03</rscale>
<asrwt>0</asrwt>
<pdfrwt beam="1">  1       21 0.57696768E-01 0.24034287E+03</pdfrwt>
<pdfrwt beam="2">  1        2 0.27991015E+00 0.24034287E+03</pdfrwt>
<totfact> 0.32491143E+02</totfact>
</mgrwt>
</event>
<event>
 5    0  0.3040647E+000  0.3361358E+03  0.7546771E-02  0.1068454E+00
         21   -1    0    0  503  502  0.00000000000E+00  0.00000000000E+00  0.99650019492E+02  0.99650019492E+02  0.00000000000E+00 0.  1.
          1   -1    0    0  502    0 -0.00000000000E+00 -0.00000000000E+00 -0.13528401868E+04  0.13528401868E+04  0.00000000000E+00 0.  1.
         25    1    1    2    0    0  0.23112656574E+03  0.13572550487E+03 -0.36779574083E+03  0.47195297333E+03  0.12500000000E+03 0.  0.
         21    1    1    2  503  501  0.69639091230E+02  0.29435492784E+02 -0.12127169932E+03  0.14290862927E+03  0.00000000000E+00 0.  1.
          1    1    1    2  501    0 -0.30076565697E+03 -0.16516099765E+03 -0.76412272711E+03  0.83762860365E+03  0.00000000000E+00 0.  1.
<mgrwt>
<rscale>  4 0.33613577E+03</rscale>
<asrwt>0</asrwt>
<pdfrwt beam="1">  1       21 0.15330772E-01 0.33613577E+03</pdfrwt>
<pdfrwt beam="2">  1        1 0.20812926E+00 0.33613577E+03</pdfrwt>
<totfact> 0.36498375E+03</totfact>
</mgrwt>
</event>
<event>
 5    0  0.3040647E+000  0.1891664E+03  0.7546771E-02  0.1159215E+00
         21   -1    0    0  503  502  0.00000000000E+00  0.00000000000E+00  0.23183863272E+03  0.23183863272E+03  0.00000000000E+00 0. -1.
          2   -1    0    0  502    0 -0.00000000000E+00 -0.00000000000E+00 -0.15046672719E+04  0.15046672719E+04  0.00000000000E+00 0. -1.
         25    1    1    2    0    0 -0.19948403311E+03  0.20057697125E+02 -0.66118477990E+02  0.24534229927E+03  0.12500000000E+03 0.  0.
         21    1    1    2  503  501  0.61569745439E+02  0.17214237827E+01  0.13175202979E+03  0.14543862694E+03  0.00000000000E+00 0. -1.
          2    1    1    2  501    0  0.13791428767E+03 -0.21779120908E+02 -0.13384621910E+04  0.13457249784E+04  0.00000000000E+00 0. -1.
<mgrwt>
<rscale>  4 0.18916636E+03</rscale>
<asrwt>0</asrwt>
<pdfrwt beam="1">  1       21 0.35667482E-01 0.18916636E+03</pdfrwt>
<pdfrwt beam="2">  1        2 0.23148727E+00 0.18916636E+03</pdfrwt>
<totfact> 0.13256002E+03</totfact>
</mgrwt>
</event>
<event>
 5    0  0.3040647E+000  0.4085418E+03  0.7546771E-02  0.1040861E+00
         21   -1    0    0  503  502  0.00000000000E+00  0.00000000000E+00  0.15074720157E+03  0.15074720157E+03  0.00000000000E+00 0.  1.
          2   -1    0    0  502    0 -0.00000000000E+00 -0.00000000000E+00 -0.36201443330E+04  0.36201443330E+04  0.00000000000E+00 0.  1.
         25    1    1    2    0    0  0.40668232054E+03 -0.41956831647E+02 -0.24053496418E+03  0.49054352973E+03  0.12500000000E+03 0.  0.
         21    1    1    2  503  501 -0.22020822735E+02 -0.15508127037E+01  0.56225045607E+01  0.22780127557E+02  0.00000000000E+00 0.  1.
          2    1    1    2  501    0 -0.38466149781E+03  0.43507644351E+02 -0.32344846718E+04  0.32575678773E+04  0.00000000000E+00 0.  1.
<mgrwt>
<rscale>  4 0.40854182E+03</rscale>
<asrwt>0</asrwt>
<pdfrwt beam="1">  1       21 0.23191877E-01 0.40854182E+03</pdfrwt>
<pdfrwt beam="2">  1        2 0.55694528E+00 0.40854182E+03</pdfrwt>
<totfact> 0.16852995E+02</totfact>
</mgrwt>
</event>
<event>
 5    0  0.3040647E+000  0.3913164E+03  0.7546771E-02  0.1046829E+00
          1   -1    0    0  502    0 -0.00000000000E+00  0.00000000000E+00  0.21951883465E+04  0.21951883465E+04  0.00000000000E+00 0. -1.
         21   -1    0    0  503  502  0.00000000000E+00 -0.00000000000E+00 -0.80306024482E+02  0.80306024482E+02  0.00000000000E+00 0. -1.
         25    1    1    2    0    0 -0.38184069727E+03 -0.24425239184E+02  0.76487383353E+03  0.86432395062E+03  0.12500000000E+03 0.  0.
         21    1    1    2  503  501  0.16651538672E+02  0.31750649653E+02  0.55143073179E+02  0.65773368571E+02  0.00000000000E+00 0. -1.
          1    1    1    2  501    0  0.36518915860E+03 -0.73254104697E+01  0.12948654153E+04  0.13453970518E+04  0.00000000000E+00 0. -1.
<mgrwt>
<rscale>  4 0.39131642E+03</rscale>
<asrwt>0</asrwt>
<pdfrwt beam="1">  1       21 0.12354775E-01 0.39131642E+03</pdfrwt>
<pdfrwt beam="2">  1        1 0.33772124E+00 0.39131642E+03</pdfrwt>
<totfact> 0.14784579E+03</totfact>
</mgrwt>
</event>
<event>
 5    0  0.3040647E+000  0.2474030E+03  0.7546771E-02  0.1114957E+00
          2   -1    0    0  502    0 -0.00000000000E+00  0.00000000000E+00  0.12624708397E+04  0.12624708397E+04  0.00000000000E+00 0.  1.
         21   -1    0    0  503  502  0.00000000000E+00 -0.00000000000E+00 -0.99268748174E+02  0.99268748174E+02  0.00000000000E+00 0.  1.
         25    1    1    2    0    0  0.21806747792E+03  0.66779482999E+02  0.12138263155E+03  0.28700464720E+03  0.12500000000E+03 0.  0.
         21    1    1    2  503  501 -0.19753501262E+02  0.71706459138E+01  0.13770341847E+02  0.25124515706E+02  0.00000000000E+00 0.  1.
          2    1    1    2  501    0 -0.19831397666E+03 -0.73950128912E+02  0.10280491181E+04  0.10496104250E+04  0.00000000000E+00 0.  1.
<mgrwt>
<rscale>  4 0.24740297E+03</rscale>
<asrwt>0</asrwt>
<pdfrwt beam="1">  1       21 0.15272116E-01 0.24740297E+03</pdfrwt>
<pdfrwt beam="2">  1        2 0.19422627E+00 0.24740297E+03</pdfrwt>
<totfact> 0.87888275E+03</totfact>
</mgrwt>
</event>
<event>
 5    0  0.3040647E+000  0.3239675E+03  0.7546771E-02  0.1073838E+00
          1   -1    0    0  502    0 -0.00000000000E+00  0.00000000000E+00  0.24180795891E+04  0.24180795891E+04  0.00000000000E+00 0. -1.
         21   -1    0    0  503  502  0.00000000000E+00 -0.00000000000E+00 -0.10165834661E+03  0.10165834661E+03  0.00000000000E+00 0. -1.
         25    1    1    2    0    0  0.26407836095E+03 -0.95029591210E+02  0.26960149313E+03  0.40875172052E+03  0.12500000000E+03 0.  0.
         21    1    1    2  503  501  0.25083395088E+02  0.85370263129E+01 -0.12760080280E+02  0.29408794197E+02  0.00000000000E+00 0. -1.
          1    1    1    2  501    0 -0.28916175604E+03  0.86492564897E+02  0.20595798296E+04  0.20815774210E+04  0.00000000000E+00 0. -1.
<mgrwt>
<rscale>  4 0.32396753E+03</rscale>
<asrwt>0</asrwt>
<pdfrwt beam="1">  1       21 0.15639747E-01 0.32396753E+03</pdfrwt>
<pdfrwt beam="2">  1        1 0.37201220E+00 0.32396753E+03</pdfrwt>
<totfact> 0.69973536E+02</totfact>
</mgrwt>
</event>
<event>
 5    0  0.3040647E+000  0.2029723E+03  0.7546771E-02  0.1147255E+00
          1   -1    0    0  502    0 -0.00000000000E+00  0.00000000000E+00  0.12793846885E+04  0.12793846885E+04  0.00000000000E+00 0.  1.
         21   -1    0    0  503  502  0.00000000000E+00 -0.00000000000E+00 -0.15382082474E+03  0.15382082474E+03  0.00000000000E+00 0. -1.
         25    1    1    2    0    0  0.29408139404E+03 -0.25357732390E+01  0.91988950911E+03  0.97381312654E+03  0.12500000000E+03 0.  0.
         21    1    1    2  503  501 -0.14771927070E+03  0.38365656340E+02 -0.51711098083E+02  0.16114262064E+03  0.00000000000E+00 0. -1.
          1    1    1    2  501    0 -0.14636212334E+03 -0.35829883101E+02  0.25738545277E+03  0.29824976609E+03  0.00000000000E+00 0.  1.
<mgrwt>
<rscale>  4 0.20297226E+03</rscale>
<asrwt>0</asrwt>
<pdfrwt beam="1">  1       21 0.23664743E-01 0.20297226E+03</pdfrwt>
<pdfrwt beam="2">  1        1 0.19682841E+00 0.20297226E+03</pdfrwt>
<totfact> 0.19076958E+03</totfact>
</mgrwt>
</event>
<event>
 5    0  0.3040647E+000  0.5342990E+03  0.7546771E-02  0.1005195E+00
          2   -1    0    0  502    0 -0.00000000000E+00  0.00000000000E+00  0.17689745165E+04  0.17689745165E+04  0.00000000000E+00 0.  1.
         21   -1    0    0  503  502  0.00000000000E+00 -0.00000000000E+00 -0.30890422958E+03  0.30890422958E+03  0.00000000000E+00 0. -1.
         25    1    1    2    0    0 -0.27834395669E+03  0.41426490579E+03  0.34936430944E+03  0.62190931100E+03  0.12500000000E+03 0.  0.
         21    1    1    2  503  501 -0.52185509194E+02 -0.23223253858E+01 -0.11226696009E+03  0.12382483956E+03  0.00000000000E+00 0.  1.
          2    1    1    2  501    0  0.33052946588E+03 -0.41194258041E+03  0.12229729376E+04  0.13321445956E+04  0.00000000000E+00 0.  1.
<mgrwt>
<rscale>  4 0.53429901E+03</rscale>
<asrwt>0</asrwt>
<pdfrwt beam="1">  1       21 0.47523729E-01 0.53429901E+03</pdfrwt>
<pdfrwt beam="2">  1        2 0.27214992E+00 0.53429901E+03</pdfrwt>
<totfact> 0.46277974E+02</totfact>
</mgrwt>
</event>
<event>
 5    0  0.3040647E+000  0.2067740E+03  0.7546771E-02  0.1144146E+00
          2   -1    0    0  502    0 -0.00000000000E+00  0.00000000000E+00  0.27139813299E+04  0.27139813299E+04  0.00000000000E+00 0. -1.
         21   -1    0    0  503  502  0.00000000000E+00 -0.00000000000E+00 -0.14514267245E+03  0.14514267245E+03  0.00000000000E+00 0.  1.
         25    1    1    2    0    0  0.16849273313E+03 -0.13551226412E+03  0.33710487764E+02  0.25202137177E+03  0.12500000000E+03 0.  0.
         21    1    1    2  503  501 -0.28846368964E+02  0.50443555568E+02 -0.80580075695E+01  0.58665124109E+02  0.00000000000E+00 0.  1.
          2    1    1    2  501    0 -0.13964636416E+03  0.85068708556E+02  0.25431861773E+04  0.25484375065E+04  0.00000000000E+00 0. -1.
<mgrwt>
<rscale>  4 0.20677401E+03</rscale>
<asrwt>0</asrwt>
<pdfrwt beam="1">  1       21 0.22329644E-01 0.20677401E+03</pdfrwt>
<pdfrwt beam="2">  1        2 0.41753555E+00 0.20677401E+03</pdfrwt>
<totfact> 0.74265543E+02</totfact>
</mgrwt>
</event>
<event>
 5    0  0.3040647E+000  0.2898285E+03  0.7546771E-02  0.1090439E+00
          2   -1    0    0  502    0 -0.00000000000E+00  0.00000000000E+00  0.17247697208E+04  0.17247697208E+04  0.00000000000E+00 0.  1.
         21   -1    0    0  503  502  0.00000000000E+00 -0.00000000000E+00 -0.14537147118E+03  0.14537147118E+03  0.00000000000E+00 0. -1.
         25    1    1    2    0    0  0.20741727354E+03 -0.18950331863E+03  0.18417991696E+03  0.35844201058E+03  0.12500000000E+03 0.  0.
         21    1    1    2  503  501 -0.44107763830E+02 -0.11841805384E+02 -0.35398576278E+02  0.57782197841E+02  0.00000000000E+00 0. -1.
          2    1    1    2  501    0 -0.16330950971E+03  0.20134512401E+03  0.14306169090E+04  0.14539169836E+04  0.00000000000E+00 0.  1.
<mgrwt>
<rscale>  4 0.28982846E+03</rscale>
<asrwt>0</asrwt>
<pdfrwt beam="1">  1       21 0.22364843E-01 0.28982846E+03</pdfrwt>
<pdfrwt beam="2">  1        2 0.26534917E+00 0.28982846E+03</pdfrwt>
<totfact> 0.23929264E+03</totfact>
</mgrwt>
</event>
<event>
 5    0  0.3040647E+000  0.4738300E+03  0.7546771E-02  0.1020845E+00
         21   -1    0    0  503  502  0.00000000000E+00  0.00000000000E+00  0.20385210833E+03  0.20385210833E+03  0.00000000000E+00 0.  1.
          1   -1    0    0  502    0 -0.00000000000E+00 -0.00000000000E+00 -0.15847614682E+04  0.15847614682E+04  0.00000000000E+00 0. -1.
         25    1    1    2    0    0  0.31008449267E+03 -0.29770206032E+03 -0.87112546206E+03  0.97941997119E+03  0.12500000000E+03 0.  0.
         21    1    1    2  503  501  0.94136598099E+02 -0.19273527096E+02 -0.17425674878E+02  0.97656654117E+02  0.00000000000E+00 0.  1.
          1    1    1    2  501    0 -0.40422109077E+03  0.31697558741E+03 -0.49235822289E+03  0.71153695117E+03  0.00000000000E+00 0. -1.
<mgrwt>
<rscale>  4 0.47383002E+03</rscale>
<asrwt>0</asrwt>
<pdfrwt beam="1">  1       21 0.31361861E-01 0.47383002E+03</pdfrwt>
<pdfrwt beam="2">  1        1 0.24380947E+00 0.47383002E+03</pdfrwt>
<totfact> 0.62115999E+02</totfact>
</mgrwt>
</event>
<event>
 5    0  0.3040647E+000  0.3515570E+03  0.7546771E-02  0.1061978E+00
         21   -1    0    0  503  502  0.00000000000E+00  0.00000000000E+00  0.46270455746E+03  0.46270455746E+03  0.00000000000E+00 0.  1.
          1   -1    0    0  502    0 -0.00000000000E+00 -0.00000000000E+00 -0.61866713622E+03  0.61866713622E+03  0.00000000000E+00 0.  1.
         25    1    1    2    0    0 -0.33926105861E+03  0.72966454023E+02  0.28508334563E+03  0.46617559273E+03  0.12500000000E+03 0.  0.
         21    1    1    2  503  501  0.31291286236E+02  0.35047878951E+02  0.19388374643E+02  0.50827231723E+02  0.00000000000E+00 0.  1.
          1    1    1    2  501    0  0.30796977237E+03 -0.10801433297E+03 -0.46043429903E+03  0.56436886923E+03  0.00000000000E+00 0.  1.
<mgrwt>
<rscale>  4 0.35155695E+03</rscale>
<asrwt>0</asrwt>
<pdfrwt beam="1">  1       21 0.71185317E-01 0.35155695E+03</pdfrwt>
<pdfrwt beam="2">  1        1 0.95179559E-01 0.35155695E+03</pdfrwt>
<totfact> 0.62272412E+02</totfact>
</mgrwt>
</event>
