<event>
 4    0  0.1775285E-001  0.5241529E+03  0.7546771E-02  0.1007660E+00
         21   -1    0    0  503  501  0.00000000000E+00  0.00000000000E+00  0.13666804395E+04  0.13666804395E+04  0.00000000000E+00 0.  1.
         21   -1    0    0  501  502 -0.00000000000E+00 -0.00000000000E+00 -0.50256125363E+02  0.50256125363E+02  0.00000000000E+00 0.  1.
         25    1    1    2    0    0 -0.97551094210E+02  0.21001032025E+03  0.92933905051E+03  0.96587609009E+03  0.12500000000E+03 0.  0.
         21    1    1    2  503  502  0.97551094210E+02 -0.21001032025E+03  0.38708526363E+03  0.45106047478E+03  0.00000000000E+00 0.  1.
<mgrwt>
<rscale>  3 0.52415289E+03</rscale>
<asrwt>0</asrwt>
<pdfrwt beam="1">  1       21 0.21025850E+00 0.52415289E+03</pdfrwt>
<pdfrwt beam="2">  1       21 0.77317126E-02 0.52415289E+03</pdfrwt>
<totfact> 0.12533478E+04</totfact>
</mgrwt>
</event>
<event>
 4    0  0.1775285E-001  0.4576951E+03  0.7546771E-02  0.1025452E+00
         21   -1    0    0  503  501  0.00000000000E+00  0.00000000000E+00  0.40729514896E+03  0.40729514896E+03  0.00000000000E+00 0.  1.
         21   -1    0    0  501  502 -0.00000000000E+00 -0.00000000000E+00 -0.12858292150E+03  0.12858292150E+03  0.00000000000E+00 0.  1.
         25    1    1    2    0    0  0.13335180341E+03  0.16451500404E+03  0.14802623035E+03  0.28702727205E+03  0.12500000000E+03 0.  0.
         21    1    1    2  503  502 -0.13335180341E+03 -0.16451500404E+03  0.13068599711E+03  0.24885079841E+03  0.00000000000E+00 0.  1.
<mgrwt>
<rscale>  3 0.45769510E+03</rscale>
<asrwt>0</asrwt>
<pdfrwt beam="1">  1       21 0.62660791E-01 0.45769510E+03</pdfrwt>
<pdfrwt beam="2">  1       21 0.19781988E-01 0.45769510E+03</pdfrwt>
<totfact> 0.51104822E+04</totfact>
</mgrwt>
</event>
<event>
 4    0  0.1775285E-001  0.5244159E+03  0.7546771E-02  0.1007595E+00
         21   -1    0    0  503  501  0.00000000000E+00  0.00000000000E+00  0.69434549214E+02  0.69434549214E+02  0.00000000000E+00 0.  1.
         21   -1    0    0  501  502 -0.00000000000E+00 -0.00000000000E+00 -0.99018436907E+03  0.99018436907E+03  0.00000000000E+00 0.  1.
         25    1    1    2    0    0  0.17973619673E+03 -0.10867306813E+03 -0.75034934696E+03  0.78915402719E+03  0.12500000000E+03 0.  0.
         21    1    1    2  503  502 -0.17973619673E+03  0.10867306813E+03 -0.17040047290E+03  0.27046489110E+03  0.00000000000E+00 0.  1.
<mgrwt>
<rscale>  3 0.52441589E+03</rscale>
<asrwt>0</asrwt>
<pdfrwt beam="1">  1       21 0.10682239E-01 0.52441589E+03</pdfrwt>
<pdfrwt beam="2">  1       21 0.15233605E+00 0.52441589E+03</pdfrwt>
<totfact> 0.18107704E+04</totfact>
</mgrwt>
</event>
<event>
 4    0  0.1775285E-001  0.5967154E+03  0.7546771E-02  0.9912244E-01
         21   -1    0    0  503  501  0.00000000000E+00  0.00000000000E+00  0.14158925880E+03  0.14158925880E+03  0.00000000000E+00 0.  1.
         21   -1    0    0  501  502 -0.00000000000E+00 -0.00000000000E+00 -0.62870110193E+03  0.62870110193E+03  0.00000000000E+00 0.  1.
         25    1    1    2    0    0  0.27132916535E+03 -0.84056279253E+02 -0.28818337955E+03  0.42350871809E+03  0.12500000000E+03 0.  0.
         21    1    1    2  503  502 -0.27132916535E+03  0.84056279253E+02 -0.19892846359E+03  0.34678164264E+03  0.00000000000E+00 0.  1.
<mgrwt>
<rscale>  3 0.59671542E+03</rscale>
<asrwt>0</asrwt>
<pdfrwt beam="1">  1       21 0.21782963E-01 0.59671542E+03</pdfrwt>
<pdfrwt beam="2">  1       21 0.96723245E-01 0.59671542E+03</pdfrwt>
<totfact> 0.15136661E+04</totfact>
</mgrwt>
</event>
<event>
 4    0  0.1775285E-001  0.5900412E+03  0.7546771E-02  0.9926285E-01
         21   -1    0    0  502  501  0.00000000000E+00  0.00000000000E+00  0.13848552068E+03  0.13848552068E+03  0.00000000000E+00 0. -1.
         21   -1    0    0  503  502 -0.00000000000E+00 -0.00000000000E+00 -0.62849288586E+03  0.62849288586E+03  0.00000000000E+00 0. -1.
         25    1    1    2    0    0  0.26088295641E+03  0.55359069085E+02 -0.13775086346E+03  0.32515356965E+03  0.12500000000E+03 0.  0.
         21    1    1    2  503  501 -0.26088295641E+03 -0.55359069085E+02 -0.35225650173E+03  0.44182483689E+03  0.00000000000E+00 0. -1.
<mgrwt>
<rscale>  3 0.59004123E+03</rscale>
<asrwt>0</asrwt>
<pdfrwt beam="1">  1       21 0.21305465E-01 0.59004123E+03</pdfrwt>
<pdfrwt beam="2">  1       21 0.96691214E-01 0.59004123E+03</pdfrwt>
<totfact> 0.15832443E+04</totfact>
</mgrwt>
</event>
<event>
 4    0  0.1775285E-001  0.5323454E+03  0.7546771E-02  0.1005665E+00
         21   -1    0    0  502  501  0.00000000000E+00  0.00000000000E+00  0.46576094131E+02  0.46576094131E+02  0.00000000000E+00 0.  1.
         21   -1    0    0  503  502 -0.00000000000E+00 -0.00000000000E+00 -0.15211216865E+04  0.15211216865E+04  0.00000000000E+00 0.  1.
         25    1    1    2    0    0  0.14913303382E+03  0.20068753619E+03 -0.85774138289E+03  0.90214268765E+03  0.12500000000E+03 0.  0.
         21    1    1    2  503  501 -0.14913303382E+03 -0.20068753619E+03 -0.61680420947E+03  0.66555509297E+03  0.00000000000E+00 0.  1.
<mgrwt>
<rscale>  3 0.53234540E+03</rscale>
<asrwt>0</asrwt>
<pdfrwt beam="1">  1       21 0.71655538E-02 0.53234540E+03</pdfrwt>
<pdfrwt beam="2">  1       21 0.23401869E+00 0.53234540E+03</pdfrwt>
<totfact> 0.10065598E+04</totfact>
</mgrwt>
</event>
<event>
 4    0  0.1775285E-001  0.4643153E+03  0.7546771E-02  0.1023537E+00
         21   -1    0    0  503  501  0.00000000000E+00  0.00000000000E+00  0.19161402383E+03  0.19161402383E+03  0.00000000000E+00 0.  1.
         21   -1    0    0  501  502 -0.00000000000E+00 -0.00000000000E+00 -0.28127988235E+03  0.28127988235E+03  0.00000000000E+00 0.  1.
         25    1    1    2    0    0 -0.18563456575E+03  0.86332835263E+02 -0.11605532860E+03  0.26647211814E+03  0.12500000000E+03 0.  0.
         21    1    1    2  503  502  0.18563456575E+03 -0.86332835263E+02  0.26389470080E+02  0.20642178804E+03  0.00000000000E+00 0.  1.
<mgrwt>
<rscale>  3 0.46431528E+03</rscale>
<asrwt>0</asrwt>
<pdfrwt beam="1">  1       21 0.29479081E-01 0.46431528E+03</pdfrwt>
<pdfrwt beam="2">  1       21 0.43273828E-01 0.46431528E+03</pdfrwt>
<totfact> 0.52021388E+04</totfact>
</mgrwt>
</event>
<event>
 4    0  0.1775285E-001  0.4960046E+03  0.7546771E-02  0.1014827E+00
         21   -1    0    0  503  501  0.00000000000E+00  0.00000000000E+00  0.53416368310E+03  0.53416368310E+03  0.00000000000E+00 0. -1.
         21   -1    0    0  501  502 -0.00000000000E+00 -0.00000000000E+00 -0.11514287262E+03  0.11514287262E+03  0.00000000000E+00 0. -1.
         25    1    1    2    0    0  0.23204991749E+03  0.96496895464E+01  0.22369462694E+03  0.34583893193E+03  0.12500000000E+03 0.  0.
         21    1    1    2  503  502 -0.23204991749E+03 -0.96496895464E+01  0.19532618354E+03  0.30346762379E+03  0.00000000000E+00 0. -1.
<mgrwt>
<rscale>  3 0.49600460E+03</rscale>
<asrwt>0</asrwt>
<pdfrwt beam="1">  1       21 0.82179027E-01 0.49600460E+03</pdfrwt>
<pdfrwt beam="2">  1       21 0.17714288E-01 0.49600460E+03</pdfrwt>
<totfact> 0.33786765E+04</totfact>
</mgrwt>
</event>
<event>
 4    0  0.1775285E-001  0.5926687E+03  0.7546771E-02  0.9920734E-01
         21   -1    0    0  503  501  0.00000000000E+00  0.00000000000E+00  0.15355472685E+03  0.15355472685E+03  0.00000000000E+00 0. -1.
         21   -1    0    0  501  502 -0.00000000000E+00 -0.00000000000E+00 -0.57187465841E+03  0.57187465841E+03  0.00000000000E+00 0. -1.
         25    1    1    2    0    0  0.14296428170E+03 -0.19990855272E+03 -0.39057979620E+03  0.47810019086E+03  0.12500000000E+03 0.  0.
         21    1    1    2  503  502 -0.14296428170E+03  0.19990855272E+03 -0.27740135359E+02  0.24732919440E+03  0.00000000000E+00 0. -1.
<mgrwt>
<rscale>  3 0.59266873E+03</rscale>
<asrwt>0</asrwt>
<pdfrwt beam="1">  1       21 0.23623804E-01 0.59266873E+03</pdfrwt>
<pdfrwt beam="2">  1       21 0.87980717E-01 0.59266873E+03</pdfrwt>
<totfact> 0.16247974E+04</totfact>
</mgrwt>
</event>
<event>
 4    0  0.1775285E-001  0.5213950E+03  0.7546771E-02  0.1008341E+00
         21   -1    0    0  503  501  0.00000000000E+00  0.00000000000E+00  0.16036966421E+03  0.16036966421E+03  0.00000000000E+00 0. -1.
         21   -1    0    0  501  502 -0.00000000000E+00 -0.00000000000E+00 -0.42379084698E+03  0.42379084698E+03  0.00000000000E+00 0. -1.
         25    1    1    2    0    0  0.22561772444E+03 -0.37260608192E+02 -0.24001222514E+03  0.35429165770E+03  0.12500000000E+03 0.  0.
         21    1    1    2  503  502 -0.22561772444E+03  0.37260608192E+02 -0.23408957627E+02  0.22986885348E+03  0.00000000000E+00 0. -1.
<mgrwt>
<rscale>  3 0.52139504E+03</rscale>
<asrwt>0</asrwt>
<pdfrwt beam="1">  1       21 0.24672256E-01 0.52139504E+03</pdfrwt>
<pdfrwt beam="2">  1       21 0.65198592E-01 0.52139504E+03</pdfrwt>
<totfact> 0.30174981E+04</totfact>
</mgrwt>
</event>
<event>
 4    0  0.1775285E-001  0.4883942E+03  0.7546771E-02  0.1016853E+00
         21   -1    0    0  502  501  0.00000000000E+00  0.00000000000E+00  0.10493085101E+03  0.10493085101E+03  0.00000000000E+00 0.  1.
         21   -1    0    0  503  502 -0.00000000000E+00 -0.00000000000E+00 -0.56830022186E+03  0.56830022186E+03  0.00000000000E+00 0.  1.
         25    1    1    2    0    0  0.13150618966E+03 -0.17402954011E+03 -0.33928437380E+03  0.42227839757E+03  0.12500000000E+03 0.  0.
         21    1    1    2  503  501 -0.13150618966E+03  0.17402954011E+03 -0.12408499705E+03  0.25095267530E+03  0.00000000000E+00 0.  1.
<mgrwt>
<rscale>  3 0.48839421E+03</rscale>
<asrwt>0</asrwt>
<pdfrwt beam="1">  1       21 0.16143207E-01 0.48839421E+03</pdfrwt>
<pdfrwt beam="2">  1       21 0.87430806E-01 0.48839421E+03</pdfrwt>
<totfact> 0.34844079E+04</totfact>
</mgrwt>
</event>
<event>
 4    0  0.1775285E-001  0.8377948E+03  0.7546771E-02  0.9506866E-01
         21   -1    0    0  502  501  0.00000000000E+00  0.00000000000E+00  0.15265710269E+04  0.15265710269E+04  0.00000000000E+00 0.  1.
         21   -1    0    0  503  502 -0.00000000000E+00 -0.00000000000E+00 -0.11494717386E+03  0.11494717386E+03  0.00000000000E+00 0.  1.
         25    1    1    2    0    0 -0.20359936175E+02  0.40157239194E+03  0.56881459891E+03  0.70770753910E+03  0.12500000000E+03 0.  0.
         21    1    1    2  503  501  0.20359936175E+02 -0.40157239194E+03  0.84280925415E+03  0.93381066167E+03  0.00000000000E+00 0.  1.
<mgrwt>
<rscale>  3 0.83779478E+03</rscale>
<asrwt>0</asrwt>
<pdfrwt beam="1">  1       21 0.23485707E+00 0.83779478E+03</pdfrwt>
<pdfrwt beam="2">  1       21 0.17684182E-01 0.83779478E+03</pdfrwt>
<totfact> 0.17516451E+03</totfact>
</mgrwt>
</event>
<event>
 4    0  0.1775285E-001  0.1577679E+04  0.7546771E-02  0.8834379E-01
         21   -1    0    0  503  501  0.00000000000E+00  0.00000000000E+00  0.45914334161E+03  0.45914334161E+03  0.00000000000E+00 0. -1.
         21   -1    0    0  501  502 -0.00000000000E+00 -0.00000000000E+00 -0.13552795870E+04  0.13552795870E+04  0.00000000000E+00 0. -1.
         25    1    1    2    0    0 -0.63313350651E+03 -0.20733279785E+03 -0.92594646748E+03  0.11475394489E+04  0.12500000000E+03 0.  0.
         21    1    1    2  503  502  0.63313350651E+03  0.20733279785E+03  0.29810222130E+02  0.66688347968E+03  0.00000000000E+00 0. -1.
<mgrwt>
<rscale>  3 0.15776788E+04</rscale>
<asrwt>0</asrwt>
<pdfrwt beam="1">  1       21 0.70637438E-01 0.15776788E+04</pdfrwt>
<pdfrwt beam="2">  1       21 0.20850455E+00 0.15776788E+04</pdfrwt>
<totfact> 0.12892776E+02</totfact>
</mgrwt>
</event>
<event>
 4    0  0.1775285E-001  0.4372899E+03  0.7546771E-02  0.1031582E+00
         21   -1    0    0  502  501  0.00000000000E+00  0.00000000000E+00  0.37531371492E+02  0.37531371492E+02  0.00000000000E+00 0. -1.
         21   -1    0    0  503  502 -0.00000000000E+00 -0.00000000000E+00 -0.12737508477E+04  0.12737508477E+04  0.00000000000E+00 0. -1.
         25    1    1    2    0    0  0.12722875222E+02 -0.20031031075E+03 -0.65326488608E+03  0.69474175312E+03  0.12500000000E+03 0.  0.
         21    1    1    2  503  501 -0.12722875222E+02  0.20031031075E+03 -0.58295459011E+03  0.61654046605E+03  0.00000000000E+00 0. -1.
<mgrwt>
<rscale>  3 0.43728991E+03</rscale>
<asrwt>0</asrwt>
<pdfrwt beam="1">  1       21 0.57740571E-02 0.43728991E+03</pdfrwt>
<pdfrwt beam="2">  1       21 0.19596167E+00 0.43728991E+03</pdfrwt>
<totfact> 0.26746118E+04</totfact>
</mgrwt>
</event>
<event>
 4    0  0.1775285E-001  0.5808127E+03  0.7546771E-02  0.9946033E-01
         21   -1    0    0  502  501  0.00000000000E+00  0.00000000000E+00  0.30357095646E+03  0.30357095646E+03  0.00000000000E+00 0. -1.
         21   -1    0    0  503  502 -0.00000000000E+00 -0.00000000000E+00 -0.27781266407E+03  0.27781266407E+03  0.00000000000E+00 0. -1.
         25    1    1    2    0    0  0.25986236914E+03  0.13805816009E+02  0.10835932303E+03  0.30835984553E+03  0.12500000000E+03 0.  0.
         21    1    1    2  503  501 -0.25986236914E+03 -0.13805816009E+02 -0.82601030652E+02  0.27302377500E+03  0.00000000000E+00 0.  1.
<mgrwt>
<rscale>  3 0.58081273E+03</rscale>
<asrwt>0</asrwt>
<pdfrwt beam="1">  1       21 0.46703224E-01 0.58081273E+03</pdfrwt>
<pdfrwt beam="2">  1       21 0.42740410E-01 0.58081273E+03</pdfrwt>
<totfact> 0.20325226E+04</totfact>
</mgrwt>
</event>
<event>
 4    0  0.1775285E-001  0.6874270E+03  0.7546771E-02  0.9738979E-01
         21   -1    0    0  502  501  0.00000000000E+00  0.00000000000E+00  0.81034108534E+02  0.81034108534E+02  0.00000000000E+00 0.  1.
         21   -1    0    0  503  502 -0.00000000000E+00 -0.00000000000E+00 -0.14578920342E+04  0.14578920342E+04  0.00000000000E+00 0.  1.
         25    1    1    2    0    0 -0.27315399479E+03 -0.12562502749E+02 -0.28829700559E+03  0.41654661777E+03  0.12500000000E+03 0.  0.
         21    1    1    2  503  501  0.27315399479E+03  0.12562502749E+02 -0.10885609200E+04  0.11223795249E+04  0.00000000000E+00 0.  1.
<mgrwt>
<rscale>  3 0.68742703E+03</rscale>
<asrwt>0</asrwt>
<pdfrwt beam="1">  1       21 0.12466785E-01 0.68742703E+03</pdfrwt>
<pdfrwt beam="2">  1       21 0.22429109E+00 0.68742703E+03</pdfrwt>
<totfact> 0.40918903E+03</totfact>
</mgrwt>
</event>
<event>
 4    0  0.1775285E-001  0.4944434E+03  0.7546771E-02  0.1015240E+00
         21   -1    0    0  502  501  0.00000000000E+00  0.00000000000E+00  0.15555279865E+03  0.15555279865E+03  0.00000000000E+00 0.  1.
         21   -1    0    0  503  502 -0.00000000000E+00 -0.00000000000E+00 -0.39291197834E+03  0.39291197834E+03  0.00000000000E+00 0.  1.
         25    1    1    2    0    0 -0.20745881430E+03  0.25496201900E+02 -0.16081926619E+02  0.24407548895E+03  0.12500000000E+03 0.  0.
         21    1    1    2  503  501  0.20745881430E+03 -0.25496201900E+02 -0.22127725307E+03  0.30438928804E+03  0.00000000000E+00 0.  1.
<mgrwt>
<rscale>  3 0.49444336E+03</rscale>
<asrwt>0</asrwt>
<pdfrwt beam="1">  1       21 0.23931200E-01 0.49444336E+03</pdfrwt>
<pdfrwt beam="2">  1       21 0.60447996E-01 0.49444336E+03</pdfrwt>
<totfact> 0.38072280E+04</totfact>
</mgrwt>
</event>
<event>
 4    0  0.1775285E-001  0.4565179E+03  0.7546771E-02  0.1025796E+00
         21   -1    0    0  503  501  0.00000000000E+00  0.00000000000E+00  0.64657913312E+02  0.64657913312E+02  0.00000000000E+00 0. -1.
         21   -1    0    0  501  502 -0.00000000000E+00 -0.00000000000E+00 -0.80581231027E+03  0.80581231027E+03  0.00000000000E+00 0. -1.
         25    1    1    2    0    0 -0.15617545858E+03 -0.13970281495E+03 -0.34882668211E+03  0.42569085557E+03  0.12500000000E+03 0.  0.
         21    1    1    2  503  502  0.15617545858E+03  0.13970281495E+03 -0.39232771485E+03  0.44477936801E+03  0.00000000000E+00 0. -1.
<mgrwt>
<rscale>  3 0.45651787E+03</rscale>
<asrwt>0</asrwt>
<pdfrwt beam="1">  1       21 0.99473711E-02 0.45651787E+03</pdfrwt>
<pdfrwt beam="2">  1       21 0.12397113E+00 0.45651787E+03</pdfrwt>
<totfact> 0.36165001E+04</totfact>
</mgrwt>
</event>
<event>
 4    0  0.1775285E-001  0.4752967E+03  0.7546771E-02  0.1020436E+00
         21   -1    0    0  502  501  0.00000000000E+00  0.00000000000E+00  0.29207144233E+02  0.29207144233E+02  0.00000000000E+00 0.  1.
         21   -1    0    0  503  502 -0.00000000000E+00 -0.00000000000E+00 -0.19336616807E+04  0.19336616807E+04  0.00000000000E+00 0.  1.
         25    1    1    2    0    0 -0.20769996735E+03 -0.40716416560E+02 -0.12837238496E+04  0.13070459154E+04  0.12500000000E+03 0.  0.
         21    1    1    2  503  501  0.20769996735E+03  0.40716416560E+02 -0.62073068693E+03  0.65582290957E+03  0.00000000000E+00 0.  1.
<mgrwt>
<rscale>  3 0.47529669E+03</rscale>
<asrwt>0</asrwt>
<pdfrwt beam="1">  1       21 0.44934066E-02 0.47529669E+03</pdfrwt>
<pdfrwt beam="2">  1       21 0.29748643E+00 0.47529669E+03</pdfrwt>
<totfact> 0.94676420E+03</totfact>
</mgrwt>
</event>
<event>
 4    0  0.1775285E-001  0.5575296E+03  0.7546771E-02  0.9997660E-01
         21   -1    0    0  502  501  0.00000000000E+00  0.00000000000E+00  0.19804298142E+04  0.19804298142E+04  0.00000000000E+00 0.  1.
         21   -1    0    0  503  502 -0.00000000000E+00 -0.00000000000E+00 -0.39238861831E+02  0.39238861831E+02  0.00000000000E+00 0.  1.
         25    1    1    2    0    0  0.21235424387E+02  0.26287305932E+03  0.93516715299E+03  0.97965085240E+03  0.12500000000E+03 0.  0.
         21    1    1    2  503  501 -0.21235424387E+02 -0.26287305932E+03  0.10060237993E+04  0.10400178236E+04  0.00000000000E+00 0.  1.
<mgrwt>
<rscale>  3 0.55752959E+03</rscale>
<asrwt>0</asrwt>
<pdfrwt beam="1">  1       21 0.30468143E+00 0.55752959E+03</pdfrwt>
<pdfrwt beam="2">  1       21 0.60367495E-02 0.55752959E+03</pdfrwt>
<totfact> 0.49712918E+03</totfact>
</mgrwt>
</event>
