<event>
 5    0  0.1467858E+000  0.2781410E+03  0.7546771E-02  0.1096709E+00
         21   -1    0    0  504  501  0.00000000000E+00  0.00000000000E+00  0.21181943352E+03  0.21181943352E+03  0.00000000000E+00 0.  1.
         21   -1    0    0  501  502 -0.00000000000E+00 -0.00000000000E+00 -0.52207057696E+03  0.52207057696E+03  0.00000000000E+00 0. -1.
         25    1    1    2    0    0 -0.24833977429E+03  0.80488919008E+01 -0.37984155492E+03  0.47078873712E+03  0.12500000000E+03 0.  0.
         21    1    1    2  503  502  0.43396739571E+02  0.12339928733E+02 -0.17218542521E+01  0.45149923905E+02  0.00000000000E+00 0.  1.
         21    1    1    2  504  503  0.20494303472E+03 -0.20388820634E+02  0.71312265729E+02  0.21795134946E+03  0.00000000000E+00 0.  1.
<mgrwt>
<rscale>  4 0.27814102E+03</rscale>
<asrwt>0</asrwt>
<pdfrwt beam="1">  1       21 0.32587605E-01 0.27814102E+03</pdfrwt>
<pdfrwt beam="2">  1       21 0.80318550E-01 0.27814102E+03</pdfrwt>
<totfact> 0.11759193E+04</totfact>
</mgrwt>
</event>
<event>
 5    0  0.1467858E+000  0.3021459E+03  0.7546771E-02  0.1084173E+00
         21   -1    0    0  504  501  0.00000000000E+00  0.00000000000E+00  0.26719363524E+03  0.26719363524E+03  0.00000000000E+00 0.  1.
         21   -1    0    0  501  502 -0.00000000000E+00 -0.00000000000E+00 -0.39447162032E+03  0.39447162032E+03  0.00000000000E+00 0.  1.
         25    1    1    2    0    0  0.22586576372E+03  0.15700886393E+03 -0.20794682674E+03  0.36678878026E+03  0.12500000000E+03 0.  0.
         21    1    1    2  503  502 -0.43433947913E+02 -0.15103056116E+02  0.38418976441E+02  0.59921848154E+02  0.00000000000E+00 0.  1.
         21    1    1    2  504  503 -0.18243181580E+03 -0.14190580781E+03  0.42249865224E+02  0.23495462715E+03  0.00000000000E+00 0.  1.
<mgrwt>
<rscale>  4 0.30214587E+03</rscale>
<asrwt>0</asrwt>
<pdfrwt beam="1">  1       21 0.41106714E-01 0.30214587E+03</pdfrwt>
<pdfrwt beam="2">  1       21 0.60687941E-01 0.30214587E+03</pdfrwt>
<totfact> 0.13599899E+04</totfact>
</mgrwt>
</event>
<event>
 5    0  0.1467858E+000  0.3661954E+03  0.7546771E-02  0.1056157E+00
         21   -1    0    0  504  501  0.00000000000E+00  0.00000000000E+00  0.17811399319E+04  0.17811399319E+04  0.00000000000E+00 0. -1.
         21   -1    0    0  501  502 -0.00000000000E+00 -0.00000000000E+00 -0.19050715132E+03  0.19050715132E+03  0.00000000000E+00 0. -1.
         25    1    1    2    0    0  0.17404082654E+03  0.29695765276E+03  0.23791049966E+02  0.36696739759E+03  0.12500000000E+03 0.  0.
         21    1    1    2  503  502 -0.79101492416E+01 -0.28824910219E+02  0.10358833139E+03  0.10781460156E+03  0.00000000000E+00 0.  1.
         21    1    1    2  504  503 -0.16613067730E+03 -0.26813274254E+03  0.14632533992E+04  0.14968650841E+04  0.00000000000E+00 0. -1.
<mgrwt>
<rscale>  4 0.36619538E+03</rscale>
<asrwt>0</asrwt>
<pdfrwt beam="1">  1       21 0.27402152E+00 0.36619538E+03</pdfrwt>
<pdfrwt beam="2">  1       21 0.29308794E-01 0.36619538E+03</pdfrwt>
<totfact> 0.45386294E+02</totfact>
</mgrwt>
</event>
<event>
 5    0  0.1467858E+000  0.5292922E+03  0.7546771E-02  0.1006404E+00
         21   -1    0    0  504  501  0.00000000000E+00  0.00000000000E+00  0.83929279160E+03  0.83929279160E+03  0.00000000000E+00 0.  1.
         21   -1    0    0  501  502 -0.00000000000E+00 -0.00000000000E+00 -0.42668898080E+03  0.42668898080E+03  0.00000000000E+00 0.  1.
         25    1    1    2    0    0  0.32516787229E+03 -0.39848594649E+03 -0.96344702020E+02  0.53798930875E+03  0.12500000000E+03 0.  0.
         21    1    1    2  503  502 -0.28633613767E+03  0.38313720754E+03  0.45941601905E+03  0.66320855099E+03  0.00000000000E+00 0.  1.
         21    1    1    2  504  503 -0.38831734616E+02  0.15348738948E+02  0.49532493774E+02  0.64783912664E+02  0.00000000000E+00 0.  1.
<mgrwt>
<rscale>  4 0.52929216E+03</rscale>
<asrwt>0</asrwt>
<pdfrwt beam="1">  1       21 0.12912197E+00 0.52929216E+03</pdfrwt>
<pdfrwt beam="2">  1       21 0.65644458E-01 0.52929216E+03</pdfrwt>
<totfact> 0.76680854E+02</totfact>
</mgrwt>
</event>
<event>
 5    0  0.1467858E+000  0.3435591E+03  0.7546771E-02  0.1065290E+00
         21   -1    0    0  504  501  0.00000000000E+00  0.00000000000E+00  0.10964452800E+03  0.10964452800E+03  0.00000000000E+00 0. -1.
         21   -1    0    0  501  502 -0.00000000000E+00 -0.00000000000E+00 -0.14424539778E+04  0.14424539778E+04  0.00000000000E+00 0.  1.
         25    1    1    2    0    0 -0.12554796912E+03  0.32759893128E+03 -0.94505354008E+03  0.10157925703E+04  0.12500000000E+03 0.  0.
         21    1    1    2  503  502  0.11221239868E+03 -0.28832314028E+03 -0.26715257933E+03  0.40876931916E+03  0.00000000000E+00 0. -1.
         21    1    1    2  504  503  0.13335570436E+02 -0.39275791002E+02 -0.12060333040E+03  0.12753661631E+03  0.00000000000E+00 0. -1.
<mgrwt>
<rscale>  4 0.34355912E+03</rscale>
<asrwt>0</asrwt>
<pdfrwt beam="1">  1       21 0.16868390E-01 0.34355912E+03</pdfrwt>
<pdfrwt beam="2">  1       21 0.22191599E+00 0.34355912E+03</pdfrwt>
<totfact> 0.27573382E+03</totfact>
</mgrwt>
</event>
<event>
 5    0  0.1467858E+000  0.2601785E+03  0.7546771E-02  0.1107036E+00
         21   -1    0    0  504  501  0.00000000000E+00  0.00000000000E+00  0.89993268372E+03  0.89993268372E+03  0.00000000000E+00 0.  1.
         21   -1    0    0  501  502 -0.00000000000E+00 -0.00000000000E+00 -0.86549500500E+02  0.86549500500E+02  0.00000000000E+00 0.  1.
         25    1    1    2    0    0  0.21851176072E+03  0.25074670544E+02  0.24428897360E+03  0.35167915960E+03  0.12500000000E+03 0.  0.
         21    1    1    2  503  502 -0.24275212083E+03  0.83207011328E+00  0.46059864638E+03  0.52065381738E+03  0.00000000000E+00 0.  1.
         21    1    1    2  504  503  0.24240360117E+02 -0.25906740658E+02  0.10849556324E+03  0.11414920724E+03  0.00000000000E+00 0.  1.
<mgrwt>
<rscale>  4 0.26017846E+03</rscale>
<asrwt>0</asrwt>
<pdfrwt beam="1">  1       21 0.13845118E+00 0.26017846E+03</pdfrwt>
<pdfrwt beam="2">  1       21 0.13315308E-01 0.26017846E+03</pdfrwt>
<totfact> 0.17215619E+04</totfact>
</mgrwt>
</event>
<event>
 5    0  0.1467858E+000  0.4337027E+03  0.7546771E-02  0.1032697E+00
         21   -1    0    0  504  501  0.00000000000E+00  0.00000000000E+00  0.84880485365E+03  0.84880485365E+03  0.00000000000E+00 0.  1.
         21   -1    0    0  501  502 -0.00000000000E+00 -0.00000000000E+00 -0.10692837780E+04  0.10692837780E+04  0.00000000000E+00 0.  1.
         25    1    1    2    0    0 -0.10633051089E+03  0.41782481084E+03 -0.93056794250E+03  0.10331821939E+04  0.12500000000E+03 0.  0.
         21    1    1    2  503  502  0.13449203173E+03 -0.17502089268E+03  0.13180528518E+03  0.25708569131E+03  0.00000000000E+00 0.  1.
         21    1    1    2  504  503 -0.28161520836E+02 -0.24280391816E+03  0.57828373295E+03  0.62782074649E+03  0.00000000000E+00 0.  1.
<mgrwt>
<rscale>  4 0.43370270E+03</rscale>
<asrwt>0</asrwt>
<pdfrwt beam="1">  1       21 0.13058536E+00 0.43370270E+03</pdfrwt>
<pdfrwt beam="2">  1       21 0.16450520E+00 0.43370270E+03</pdfrwt>
<totfact> 0.80182129E+01</totfact>
</mgrwt>
</event>
<event>
 5    0  0.1467858E+000  0.3444751E+03  0.7546771E-02  0.1065674E+00
         21   -1    0    0  504  501  0.00000000000E+00  0.00000000000E+00  0.22146655868E+04  0.22146655868E+04  0.00000000000E+00 0.  1.
         21   -1    0    0  501  502 -0.00000000000E+00 -0.00000000000E+00 -0.70600265057E+02  0.70600265057E+02  0.00000000000E+00 0.  1.
         25    1    1    2    0    0 -0.62546203716E+02  0.30689014148E+03  0.48435947190E+03  0.59018868556E+03  0.12500000000E+03 0.  0.
         21    1    1    2  503  502 -0.32209521395E+00 -0.98237850703E+02  0.88080566917E+03  0.88626711882E+03  0.00000000000E+00 0.  1.
         21    1    1    2  504  503  0.62868298930E+02 -0.20865229078E+03  0.77890018065E+03  0.80881004746E+03  0.00000000000E+00 0.  1.
<mgrwt>
<rscale>  4 0.34264729E+03</rscale>
<asrwt>0</asrwt>
<pdfrwt beam="1">  1       21 0.34071773E+00 0.34447510E+03</pdfrwt>
<pdfrwt beam="2">  1       21 0.10861581E-01 0.34447510E+03</pdfrwt>
<totfact> 0.11887232E+03</totfact>
</mgrwt>
</event>
<event>
 5    0  0.1467858E+000  0.2663251E+03  0.7546771E-02  0.1103401E+00
         21   -1    0    0  504  501  0.00000000000E+00  0.00000000000E+00  0.17649600638E+04  0.17649600638E+04  0.00000000000E+00 0.  1.
         21   -1    0    0  501  502 -0.00000000000E+00 -0.00000000000E+00 -0.13362975722E+03  0.13362975722E+03  0.00000000000E+00 0. -1.
         25    1    1    2    0    0  0.23510583036E+03  0.54131392404E+01  0.17486835610E+02  0.26689856307E+03  0.12500000000E+03 0.  0.
         21    1    1    2  503  502 -0.36931286520E+02  0.68944504916E+01  0.15999678728E+03  0.16434848740E+03  0.00000000000E+00 0. -1.
         21    1    1    2  504  503 -0.19817454384E+03 -0.12307589732E+02  0.14538466837E+04  0.14673427706E+04  0.00000000000E+00 0.  1.
<mgrwt>
<rscale>  4 0.26632509E+03</rscale>
<asrwt>0</asrwt>
<pdfrwt beam="1">  1       21 0.27153230E+00 0.26632509E+03</pdfrwt>
<pdfrwt beam="2">  1       21 0.20558425E-01 0.26632509E+03</pdfrwt>
<totfact> 0.10075874E+03</totfact>
</mgrwt>
</event>
<event>
 5    0  0.1467858E+000  0.3041627E+03  0.7546771E-02  0.1083178E+00
         21   -1    0    0  504  501  0.00000000000E+00  0.00000000000E+00  0.13809955369E+04  0.13809955369E+04  0.00000000000E+00 0.  1.
         21   -1    0    0  501  502 -0.00000000000E+00 -0.00000000000E+00 -0.65126928789E+02  0.65126928789E+02  0.00000000000E+00 0.  1.
         25    1    1    2    0    0 -0.21826226737E+03  0.17103083476E+03  0.69356495559E+03  0.75732906416E+03  0.12500000000E+03 0.  0.
         21    1    1    2  503  502  0.23731620018E+02 -0.59097860312E+02  0.20895428544E+03  0.21844367760E+03  0.00000000000E+00 0.  1.
         21    1    1    2  504  503  0.19453064735E+03 -0.11193297445E+03  0.41334936704E+03  0.47034972388E+03  0.00000000000E+00 0.  1.
<mgrwt>
<rscale>  4 0.30416273E+03</rscale>
<asrwt>0</asrwt>
<pdfrwt beam="1">  1       21 0.21246083E+00 0.30416273E+03</pdfrwt>
<pdfrwt beam="2">  1       21 0.10019529E-01 0.30416273E+03</pdfrwt>
<totfact> 0.83649844E+03</totfact>
</mgrwt>
</event>
<event>
 5    0  0.1467858E+000  0.2891473E+03  0.7546771E-02  0.1090795E+00
         21   -1    0    0  504  501  0.00000000000E+00  0.00000000000E+00  0.51881356555E+03  0.51881356555E+03  0.00000000000E+00 0.  1.
         21   -1    0    0  501  502 -0.00000000000E+00 -0.00000000000E+00 -0.27277070690E+03  0.27277070690E+03  0.00000000000E+00 0. -1.
         25    1    1    2    0    0  0.14131894225E+03 -0.21911212255E+03 -0.13141294737E+03  0.31760908114E+03  0.12500000000E+03 0.  0.
         21    1    1    2  503  502 -0.95710607734E+02  0.13863939639E+03  0.13968311284E+03  0.21884417899E+03  0.00000000000E+00 0.  1.
         21    1    1    2  504  503 -0.45608334513E+02  0.80472726166E+02  0.23777269318E+03  0.25513101233E+03  0.00000000000E+00 0.  1.
<mgrwt>
<rscale>  4 0.28914731E+03</rscale>
<asrwt>0</asrwt>
<pdfrwt beam="1">  1       21 0.79817471E-01 0.28914731E+03</pdfrwt>
<pdfrwt beam="2">  1       21 0.41964724E-01 0.28914731E+03</pdfrwt>
<totfact> 0.71220297E+03</totfact>
</mgrwt>
</event>
<event>
 5    0  0.1467858E+000  0.4018994E+03  0.7546771E-02  0.1044174E+00
         21   -1    0    0  504  501  0.00000000000E+00  0.00000000000E+00  0.40532613165E+03  0.40532613165E+03  0.00000000000E+00 0. -1.
         21   -1    0    0  501  502 -0.00000000000E+00 -0.00000000000E+00 -0.39952693574E+03  0.39952693574E+03  0.00000000000E+00 0. -1.
         25    1    1    2    0    0 -0.19159578867E+03 -0.31572418849E+03  0.74998775243E+02  0.39703970296E+03  0.12500000000E+03 0.  0.
         21    1    1    2  503  502  0.81839691049E+02  0.25940819931E+03 -0.81193172223E+02  0.28387088635E+03  0.00000000000E+00 0. -1.
         21    1    1    2  504  503  0.10975609762E+03  0.56315989186E+02  0.11993592890E+02  0.12394247809E+03  0.00000000000E+00 0. -1.
<mgrwt>
<rscale>  4 0.39886333E+03</rscale>
<asrwt>0</asrwt>
<pdfrwt beam="1">  1       21 0.62357866E-01 0.40189944E+03</pdfrwt>
<pdfrwt beam="2">  1       21 0.61465682E-01 0.40189944E+03</pdfrwt>
<totfact> 0.52534129E+03</totfact>
</mgrwt>
</event>
<event>
 5    0  0.1467858E+000  0.2070370E+03  0.7546771E-02  0.1143934E+00
         21   -1    0    0  504  501  0.00000000000E+00  0.00000000000E+00  0.50951561010E+02  0.50951561010E+02  0.00000000000E+00 0.  1.
         21   -1    0    0  501  502 -0.00000000000E+00 -0.00000000000E+00 -0.11917037327E+04  0.11917037327E+04  0.00000000000E+00 0.  1.
         25    1    1    2    0    0 -0.20532286582E+03  0.40825122422E+02 -0.72217310812E+03  0.76222251866E+03  0.12500000000E+03 0.  0.
         21    1    1    2  503  502  0.13184829588E+03 -0.39043597247E+02 -0.36334762083E+03  0.38849693586E+03  0.00000000000E+00 0.  1.
         21    1    1    2  504  503  0.73474569942E+02 -0.17815251749E+01 -0.55231442726E+02  0.91935839180E+02  0.00000000000E+00 0.  1.
<mgrwt>
<rscale>  4 0.20703703E+03</rscale>
<asrwt>0</asrwt>
<pdfrwt beam="1">  1       21 0.78387017E-02 0.20703703E+03</pdfrwt>
<pdfrwt beam="2">  1       21 0.18333904E+00 0.20703703E+03</pdfrwt>
<totfact> 0.21256809E+04</totfact>
</mgrwt>
</event>
<event>
 5    0  0.1467858E+000  0.2467687E+03  0.7546771E-02  0.1115364E+00
         21   -1    0    0  504  501  0.00000000000E+00  0.00000000000E+00  0.16200524727E+04  0.16200524727E+04  0.00000000000E+00 0. -1.
         21   -1    0    0  501  502 -0.00000000000E+00 -0.00000000000E+00 -0.33815907127E+02  0.33815907127E+02  0.00000000000E+00 0. -1.
         25    1    1    2    0    0  0.19647619131E+03 -0.81651119631E+02  0.81747890598E+03  0.85391250184E+03  0.12500000000E+03 0.  0.
         21    1    1    2  503  502 -0.14534424534E+02  0.23292075728E+02  0.61638733355E+02  0.67476690330E+02  0.00000000000E+00 0.  1.
         21    1    1    2  504  503 -0.18194176677E+03  0.58359043903E+02  0.70711892627E+03  0.73247918768E+03  0.00000000000E+00 0. -1.
<mgrwt>
<rscale>  4 0.24676872E+03</rscale>
<asrwt>0</asrwt>
<pdfrwt beam="1">  1       21 0.24923878E+00 0.24676872E+03</pdfrwt>
<pdfrwt beam="2">  1       21 0.52024485E-02 0.24676872E+03</pdfrwt>
<totfact> 0.16171855E+04</totfact>
</mgrwt>
</event>
<event>
 5    0  0.1467858E+000  0.2601803E+03  0.7546771E-02  0.1107035E+00
         21   -1    0    0  504  501  0.00000000000E+00  0.00000000000E+00  0.22393908658E+04  0.22393908658E+04  0.00000000000E+00 0. -1.
         21   -1    0    0  501  502 -0.00000000000E+00 -0.00000000000E+00 -0.44066378545E+02  0.44066378545E+02  0.00000000000E+00 0.  1.
         25    1    1    2    0    0  0.37353429696E+02  0.22510774156E+03  0.42570060248E+03  0.49891359670E+03  0.12500000000E+03 0.  0.
         21    1    1    2  503  502 -0.41513425250E+02 -0.20216637795E+03  0.15481952005E+04  0.15618908373E+04  0.00000000000E+00 0. -1.
         21    1    1    2  504  503  0.41599955538E+01 -0.22941363605E+02  0.22142868429E+03  0.22265281034E+03  0.00000000000E+00 0. -1.
<mgrwt>
<rscale>  4 0.26018027E+03</rscale>
<asrwt>0</asrwt>
<pdfrwt beam="1">  1       21 0.34452158E+00 0.26018027E+03</pdfrwt>
<pdfrwt beam="2">  1       21 0.67794446E-02 0.26018027E+03</pdfrwt>
<totfact> 0.27881559E+03</totfact>
</mgrwt>
</event>
<event>
 5    0  0.1467858E+000  0.2811605E+03  0.7546771E-02  0.1095057E+00
         21   -1    0    0  504  501  0.00000000000E+00  0.00000000000E+00  0.17484437095E+04  0.17484437095E+04  0.00000000000E+00 0.  1.
         21   -1    0    0  501  502 -0.00000000000E+00 -0.00000000000E+00 -0.13868829981E+03  0.13868829981E+03  0.00000000000E+00 0.  1.
         25    1    1    2    0    0  0.40150229199E+03 -0.12429157383E+02  0.39070726378E+03  0.57413912983E+03  0.12500000000E+03 0.  0.
         21    1    1    2  503  502 -0.17041073374E+03  0.18183752653E+02  0.17998212091E+03  0.24852370285E+03  0.00000000000E+00 0.  1.
         21    1    1    2  504  503 -0.23109155825E+03 -0.57545952698E+01  0.10390660250E+04  0.10644691766E+04  0.00000000000E+00 0.  1.
<mgrwt>
<rscale>  4 0.28116048E+03</rscale>
<asrwt>0</asrwt>
<pdfrwt beam="1">  1       21 0.26899132E+00 0.28116048E+03</pdfrwt>
<pdfrwt beam="2">  1       21 0.21336663E-01 0.28116048E+03</pdfrwt>
<totfact> 0.95915329E+02</totfact>
</mgrwt>
</event>
<event>
 5    0  0.1467858E+000  0.3011344E+03  0.7546771E-02  0.1084675E+00
         21   -1    0    0  504  501  0.00000000000E+00  0.00000000000E+00  0.17017019830E+03  0.17017019830E+03  0.00000000000E+00 0.  1.
         21   -1    0    0  501  502 -0.00000000000E+00 -0.00000000000E+00 -0.10091456742E+04  0.10091456742E+04  0.00000000000E+00 0.  1.
         25    1    1    2    0    0  0.48884340722E+02  0.26956868382E+03 -0.72121261387E+01  0.30122079747E+03  0.12500000000E+03 0.  0.
         21    1    1    2  503  502 -0.17275298815E+02 -0.20814329392E+03 -0.55973677796E+03  0.59743395229E+03  0.00000000000E+00 0.  1.
         21    1    1    2  504  503 -0.31609041908E+02 -0.61425389893E+02 -0.27202657180E+03  0.28066112274E+03  0.00000000000E+00 0. -1.
<mgrwt>
<rscale>  4 0.30113445E+03</rscale>
<asrwt>0</asrwt>
<pdfrwt beam="1">  1       21 0.26180031E-01 0.30113445E+03</pdfrwt>
<pdfrwt beam="2">  1       21 0.15525318E+00 0.30113445E+03</pdfrwt>
<totfact> 0.34995235E+03</totfact>
</mgrwt>
</event>
<event>
 5    0  0.1467858E+000  0.2545310E+03  0.7546771E-02  0.1110474E+00
         21   -1    0    0  504  501  0.00000000000E+00  0.00000000000E+00  0.10512332172E+04  0.10512332172E+04  0.00000000000E+00 0. -1.
         21   -1    0    0  501  502 -0.00000000000E+00 -0.00000000000E+00 -0.14207536109E+03  0.14207536109E+03  0.00000000000E+00 0.  1.
         25    1    1    2    0    0  0.73393761935E+02  0.20922331712E+03 -0.20186495267E+01  0.25453902581E+03  0.12500000000E+03 0.  0.
         21    1    1    2  503  502 -0.73688825277E+02 -0.18749615381E+03  0.85781625071E+03  0.88115468032E+03  0.00000000000E+00 0. -1.
         21    1    1    2  504  503  0.29506334210E+00 -0.21727163303E+02  0.53360254960E+02  0.57614872186E+02  0.00000000000E+00 0. -1.
<mgrwt>
<rscale>  4 0.25453102E+03</rscale>
<asrwt>0</asrwt>
<pdfrwt beam="1">  1       21 0.16172818E+00 0.25453102E+03</pdfrwt>
<pdfrwt beam="2">  1       21 0.21857749E-01 0.25453102E+03</pdfrwt>
<totfact> 0.45542173E+03</totfact>
</mgrwt>
</event>
<event>
 5    0  0.1467858E+000  0.2547927E+03  0.7546771E-02  0.1110313E+00
         21   -1    0    0  504  501  0.00000000000E+00  0.00000000000E+00  0.34926454122E+02  0.34926454122E+02  0.00000000000E+00 0.  1.
         21   -1    0    0  501  502 -0.00000000000E+00 -0.00000000000E+00 -0.17698971169E+04  0.17698971169E+04  0.00000000000E+00 0.  1.
         25    1    1    2    0    0 -0.15469543536E+03  0.15925968721E+03 -0.11181904476E+04  0.11468518661E+04  0.12500000000E+03 0.  0.
         21    1    1    2  503  502  0.13044541880E+03 -0.15688585613E+03 -0.53288760615E+03  0.57061228512E+03  0.00000000000E+00 0.  1.
         21    1    1    2  504  503  0.24250016560E+02 -0.23738310841E+01 -0.83892609025E+02  0.87359419791E+02  0.00000000000E+00 0.  1.
<mgrwt>
<rscale>  4 0.25479271E+03</rscale>
<asrwt>0</asrwt>
<pdfrwt beam="1">  1       21 0.53733014E-02 0.25479271E+03</pdfrwt>
<pdfrwt beam="2">  1       21 0.27229183E+00 0.25479271E+03</pdfrwt>
<totfact> 0.11113690E+04</totfact>
</mgrwt>
</event>
<event>
 5    0  0.1467858E+000  0.4013635E+03  0.7546771E-02  0.1043309E+00
         21   -1    0    0  504  501  0.00000000000E+00  0.00000000000E+00  0.24173072392E+03  0.24173072392E+03  0.00000000000E+00 0.  1.
         21   -1    0    0  501  502 -0.00000000000E+00 -0.00000000000E+00 -0.67622806651E+03  0.67622806651E+03  0.00000000000E+00 0.  1.
         25    1    1    2    0    0 -0.20186115221E+03  0.32360424681E+03 -0.28741464622E+03  0.49365961166E+03  0.12500000000E+03 0.  0.
         21    1    1    2  503  502  0.11969949956E+02 -0.51444809869E+02 -0.62504775307E+02  0.81833337342E+02  0.00000000000E+00 0.  1.
         21    1    1    2  504  503  0.18989120225E+03 -0.27215943694E+03 -0.84577921062E+02  0.34246584142E+03  0.00000000000E+00 0.  1.
<mgrwt>
<rscale>  4 0.40136347E+03</rscale>
<asrwt>0</asrwt>
<pdfrwt beam="1">  1       21 0.37189342E-01 0.40136347E+03</pdfrwt>
<pdfrwt beam="2">  1       21 0.10403509E+00 0.40136347E+03</pdfrwt>
<totfact> 0.46445743E+03</totfact>
</mgrwt>
</event>
<event>
 5    0  0.1467858E+000  0.2897904E+03  0.7546771E-02  0.1090459E+00
         21   -1    0    0  504  501  0.00000000000E+00  0.00000000000E+00  0.28550573874E+03  0.28550573874E+03  0.00000000000E+00 0.  1.
         21   -1    0    0  501  502 -0.00000000000E+00 -0.00000000000E+00 -0.39054495506E+03  0.39054495506E+03  0.00000000000E+00 0.  1.
         25    1    1    2    0    0 -0.25956891579E+03  0.31263883583E+02 -0.23872791081E+03  0.37545900956E+03  0.12500000000E+03 0.  0.
         21    1    1    2  503  502  0.10197928881E+03  0.15667385732E+02  0.35692079272E+02  0.10917493689E+03  0.00000000000E+00 0.  1.
         21    1    1    2  504  503  0.15758962697E+03 -0.46931269315E+02  0.97996615221E+02  0.19141674734E+03  0.00000000000E+00 0.  1.
<mgrwt>
<rscale>  4 0.28979036E+03</rscale>
<asrwt>0</asrwt>
<pdfrwt beam="1">  1       21 0.43923960E-01 0.28979036E+03</pdfrwt>
<pdfrwt beam="2">  1       21 0.60083839E-01 0.28979036E+03</pdfrwt>
<totfact> 0.12191414E+04</totfact>
</mgrwt>
</event>
<event>
 5    0  0.1467858E+000  0.2350369E+03  0.7546771E-02  0.1123144E+00
         21   -1    0    0  504  501  0.00000000000E+00  0.00000000000E+00  0.71879190718E+02  0.71879190718E+02  0.00000000000E+00 0. -1.
         21   -1    0    0  501  502 -0.00000000000E+00 -0.00000000000E+00 -0.21992348157E+04  0.21992348157E+04  0.00000000000E+00 0. -1.
         25    1    1    2    0    0 -0.41066040564E+02  0.20622316473E+03 -0.18921786688E+04  0.19079254514E+04  0.12500000000E+03 0.  0.
         21    1    1    2  503  502  0.22482713734E+02 -0.19689838408E+03 -0.91967396678E+02  0.21847756892E+03  0.00000000000E+00 0. -1.
         21    1    1    2  504  503  0.18583326831E+02 -0.93247806478E+01 -0.14320955950E+03  0.14471098612E+03  0.00000000000E+00 0.  1.
<mgrwt>
<rscale>  4 0.23503691E+03</rscale>
<asrwt>0</asrwt>
<pdfrwt beam="1">  1       21 0.11058337E-01 0.23503691E+03</pdfrwt>
<pdfrwt beam="2">  1       21 0.33834383E+00 0.23503691E+03</pdfrwt>
<totfact> 0.13164222E+03</totfact>
</mgrwt>
</event>
<event>
 5    0  0.1467858E+000  0.2625001E+03  0.7546771E-02  0.1105650E+00
         21   -1    0    0  504  501  0.00000000000E+00  0.00000000000E+00  0.34873060394E+02  0.34873060394E+02  0.00000000000E+00 0. -1.
         21   -1    0    0  501  502 -0.00000000000E+00 -0.00000000000E+00 -0.21329278490E+04  0.21329278490E+04  0.00000000000E+00 0. -1.
         25    1    1    2    0    0 -0.22858408049E+03  0.32102990286E+02 -0.15530572087E+04  0.15750850699E+04  0.12500000000E+03 0.  0.
         21    1    1    2  503  502  0.28842473948E+02  0.25160842074E+01 -0.49370184579E+02  0.57233155675E+02  0.00000000000E+00 0. -1.
         21    1    1    2  504  503  0.19974160655E+03 -0.34619074493E+02 -0.49562739536E+03  0.53548268388E+03  0.00000000000E+00 0. -1.
<mgrwt>
<rscale>  4 0.26250006E+03</rscale>
<asrwt>0</asrwt>
<pdfrwt beam="1">  1       21 0.53650855E-02 0.26250006E+03</pdfrwt>
<pdfrwt beam="2">  1       21 0.32814279E+00 0.26250006E+03</pdfrwt>
<totfact> 0.52087790E+03</totfact>
</mgrwt>
</event>
<event>
 5    0  0.1467858E+000  0.3307659E+03  0.7546771E-02  0.1070798E+00
         21   -1    0    0  504  501  0.00000000000E+00  0.00000000000E+00  0.90954539776E+03  0.90954539776E+03  0.00000000000E+00 0.  1.
         21   -1    0    0  501  502 -0.00000000000E+00 -0.00000000000E+00 -0.13235008743E+03  0.13235008743E+03  0.00000000000E+00 0.  1.
         25    1    1    2    0    0 -0.30011712587E+03  0.60916182729E+02  0.20872844067E+03  0.39111843795E+03  0.12500000000E+03 0.  0.
         21    1    1    2  503  502  0.26734346495E+03 -0.30258614854E+02  0.51438749143E+03  0.58050202701E+03  0.00000000000E+00 0.  1.
         21    1    1    2  504  503  0.32773660928E+02 -0.30657567875E+02  0.54079378228E+02  0.70275020229E+02  0.00000000000E+00 0.  1.
<mgrwt>
<rscale>  4 0.33076588E+03</rscale>
<asrwt>0</asrwt>
<pdfrwt beam="1">  1       21 0.13993006E+00 0.33076588E+03</pdfrwt>
<pdfrwt beam="2">  1       21 0.20361553E-01 0.33076588E+03</pdfrwt>
<totfact> 0.73610142E+03</totfact>
</mgrwt>
</event>
<event>
 5    0  0.1467858E+000  0.2492652E+03  0.7546771E-02  0.1113770E+00
         21   -1    0    0  504  501  0.00000000000E+00  0.00000000000E+00  0.30115545316E+03  0.30115545316E+03  0.00000000000E+00 0.  1.
         21   -1    0    0  501  502 -0.00000000000E+00 -0.00000000000E+00 -0.25610420593E+03  0.25610420593E+03  0.00000000000E+00 0.  1.
         25    1    1    2    0    0 -0.84956864842E+02  0.19821823219E+03 -0.11263296147E+03  0.27353120565E+03  0.12500000000E+03 0.  0.
         21    1    1    2  503  502  0.81832503968E+02 -0.13272934066E+03  0.62143784956E+02  0.16785555274E+03  0.00000000000E+00 0.  1.
         21    1    1    2  504  503  0.31243608748E+01 -0.65488891536E+02  0.95540423744E+02  0.11587290069E+03  0.00000000000E+00 0.  1.
<mgrwt>
<rscale>  4 0.24926519E+03</rscale>
<asrwt>0</asrwt>
<pdfrwt beam="1">  1       21 0.46331608E-01 0.24926519E+03</pdfrwt>
<pdfrwt beam="2">  1       21 0.39400647E-01 0.24926519E+03</pdfrwt>
<totfact> 0.26919969E+04</totfact>
</mgrwt>
</event>
<event>
 5    0  0.1467858E+000  0.2834934E+03  0.7546771E-02  0.1093796E+00
         21   -1    0    0  504  501  0.00000000000E+00  0.00000000000E+00  0.33773680116E+03  0.33773680116E+03  0.00000000000E+00 0. -1.
         21   -1    0    0  501  502 -0.00000000000E+00 -0.00000000000E+00 -0.29040356421E+03  0.29040356421E+03  0.00000000000E+00 0. -1.
         25    1    1    2    0    0  0.24781390095E+03 -0.56749844403E+02 -0.39065345836E+02  0.28597792850E+03  0.12500000000E+03 0.  0.
         21    1    1    2  503  502 -0.25964990374E+03 -0.10972321956E+02  0.51011241819E+02  0.26484072789E+03  0.00000000000E+00 0. -1.
         21    1    1    2  504  503  0.11836002783E+02  0.67722166359E+02  0.35387340970E+02  0.77321708977E+02  0.00000000000E+00 0.  1.
<mgrwt>
<rscale>  4 0.28349338E+03</rscale>
<asrwt>0</asrwt>
<pdfrwt beam="1">  1       21 0.51959508E-01 0.28349338E+03</pdfrwt>
<pdfrwt beam="2">  1       21 0.44677472E-01 0.28349338E+03</pdfrwt>
<totfact> 0.16112846E+04</totfact>
</mgrwt>
</event>
<event>
 5    0  0.1467858E+000  0.2669198E+03  0.7546771E-02  0.1103056E+00
         21   -1    0    0  504  501  0.00000000000E+00  0.00000000000E+00  0.17778559493E+04  0.17778559493E+04  0.00000000000E+00 0. -1.
         21   -1    0    0  501  502 -0.00000000000E+00 -0.00000000000E+00 -0.49226472654E+02  0.49226472654E+02  0.00000000000E+00 0. -1.
         25    1    1    2    0    0 -0.18470592626E+03  0.15802035456E+03  0.48643619950E+03  0.55797122491E+03  0.12500000000E+03 0.  0.
         21    1    1    2  503  502  0.18316460656E+03 -0.12702929212E+03  0.97680154388E+03  0.10019116579E+04  0.00000000000E+00 0. -1.
         21    1    1    2  504  503  0.15413197021E+01 -0.30991062436E+02  0.26539173330E+03  0.26719953915E+03  0.00000000000E+00 0. -1.
<mgrwt>
<rscale>  4 0.26691984E+03</rscale>
<asrwt>0</asrwt>
<pdfrwt beam="1">  1       21 0.27351625E+00 0.26691984E+03</pdfrwt>
<pdfrwt beam="2">  1       21 0.75733048E-02 0.26691984E+03</pdfrwt>
<totfact> 0.59814601E+03</totfact>
</mgrwt>
</event>
<event>
 5    0  0.1467858E+000  0.3776584E+03  0.7546771E-02  0.1051803E+00
         21   -1    0    0  504  501  0.00000000000E+00  0.00000000000E+00  0.16758706657E+03  0.16758706657E+03  0.00000000000E+00 0. -1.
         21   -1    0    0  501  502 -0.00000000000E+00 -0.00000000000E+00 -0.93883207091E+03  0.93883207091E+03  0.00000000000E+00 0. -1.
         25    1    1    2    0    0  0.31378031648E+03 -0.16894617825E+03 -0.59575789116E+03  0.70537462602E+03  0.12500000000E+03 0.  0.
         21    1    1    2  503  502 -0.29980495394E+03  0.15048708930E+03 -0.15275132254E+03  0.36859509084E+03  0.00000000000E+00 0. -1.
         21    1    1    2  504  503 -0.13975362535E+02  0.18459088952E+02 -0.22735790635E+02  0.32449420622E+02  0.00000000000E+00 0. -1.
<mgrwt>
<rscale>  4 0.37765844E+03</rscale>
<asrwt>0</asrwt>
<pdfrwt beam="1">  1       21 0.25782626E-01 0.37765844E+03</pdfrwt>
<pdfrwt beam="2">  1       21 0.14443570E+00 0.37765844E+03</pdfrwt>
<totfact> 0.42133021E+03</totfact>
</mgrwt>
</event>
<event>
 5    0  0.1467858E+000  0.2447234E+03  0.7546771E-02  0.1116686E+00
         21   -1    0    0  504  501  0.00000000000E+00  0.00000000000E+00  0.23589442329E+03  0.23589442329E+03  0.00000000000E+00 0. -1.
         21   -1    0    0  501  502 -0.00000000000E+00 -0.00000000000E+00 -0.30577544225E+03  0.30577544225E+03  0.00000000000E+00 0. -1.
         25    1    1    2    0    0 -0.20000102176E+03 -0.65300499987E+02 -0.16081684952E+03  0.29283378066E+03  0.12500000000E+03 0.  0.
         21    1    1    2  503  502  0.41070409462E+02  0.43252751086E+02 -0.82327320197E+01  0.60210936601E+02  0.00000000000E+00 0. -1.
         21    1    1    2  504  503  0.15893061230E+03  0.22047748901E+02  0.99168562581E+02  0.18862514828E+03  0.00000000000E+00 0. -1.
<mgrwt>
<rscale>  4 0.24472344E+03</rscale>
<asrwt>0</asrwt>
<pdfrwt beam="1">  1       21 0.36291450E-01 0.24472344E+03</pdfrwt>
<pdfrwt beam="2">  1       21 0.47042375E-01 0.24472344E+03</pdfrwt>
<totfact> 0.30846853E+04</totfact>
</mgrwt>
</event>
<event>
 5    0  0.1467858E+000  0.3292512E+03  0.7546771E-02  0.1071469E+00
         21   -1    0    0  504  501  0.00000000000E+00  0.00000000000E+00  0.16861244547E+03  0.16861244547E+03  0.00000000000E+00 0.  1.
         21   -1    0    0  501  502 -0.00000000000E+00 -0.00000000000E+00 -0.66884565037E+03  0.66884565037E+03  0.00000000000E+00 0.  1.
         25    1    1    2    0    0 -0.30650184900E+03  0.57831272127E+02 -0.33333469349E+03  0.47331264230E+03  0.12500000000E+03 0.  0.
         21    1    1    2  503  502  0.29127669660E+03 -0.73689709548E+02 -0.14697081642E+03  0.33447377798E+03  0.00000000000E+00 0.  1.
         21    1    1    2  504  503  0.15225152406E+02  0.15858437421E+02 -0.19927694986E+02  0.29671675562E+02  0.00000000000E+00 0.  1.
<mgrwt>
<rscale>  4 0.32925118E+03</rscale>
<asrwt>0</asrwt>
<pdfrwt beam="1">  1       21 0.25940377E-01 0.32925118E+03</pdfrwt>
<pdfrwt beam="2">  1       21 0.10289933E+00 0.32925118E+03</pdfrwt>
<totfact> 0.10043689E+04</totfact>
</mgrwt>
</event>
<event>
 5    0  0.1467858E+000  0.2400486E+03  0.7546771E-02  0.1119760E+00
         21   -1    0    0  504  501  0.00000000000E+00  0.00000000000E+00  0.58631575747E+03  0.58631575747E+03  0.00000000000E+00 0. -1.
         21   -1    0    0  501  502 -0.00000000000E+00 -0.00000000000E+00 -0.12778768082E+03  0.12778768082E+03  0.00000000000E+00 0. -1.
         25    1    1    2    0    0 -0.11835760254E+03 -0.16730150382E+03  0.40899206621E+02  0.24350782403E+03  0.12500000000E+03 0.  0.
         21    1    1    2  503  502  0.30567501481E+02  0.83938425639E+02  0.12259617045E+03  0.15168998799E+03  0.00000000000E+00 0. -1.
         21    1    1    2  504  503  0.87790101058E+02  0.83363078185E+02  0.29503269958E+03  0.31890562627E+03  0.00000000000E+00 0. -1.
<mgrwt>
<rscale>  4 0.24004857E+03</rscale>
<asrwt>0</asrwt>
<pdfrwt beam="1">  1       21 0.90202422E-01 0.24004857E+03</pdfrwt>
<pdfrwt beam="2">  1       21 0.19659644E-01 0.24004857E+03</pdfrwt>
<totfact> 0.24270242E+04</totfact>
</mgrwt>
</event>
<event>
 5    0  0.1467858E+000  0.3081256E+03  0.7546771E-02  0.1081248E+00
         21   -1    0    0  504  501  0.00000000000E+00  0.00000000000E+00  0.22950722852E+04  0.22950722852E+04  0.00000000000E+00 0.  1.
         21   -1    0    0  501  502 -0.00000000000E+00 -0.00000000000E+00 -0.39234856602E+02  0.39234856602E+02  0.00000000000E+00 0.  1.
         25    1    1    2    0    0  0.26002555018E+03  0.10818095413E+03  0.12507068083E+04  0.12881028398E+04  0.12500000000E+03 0.  0.
         21    1    1    2  503  502 -0.12477051939E+03 -0.85307605699E+02  0.46617068354E+03  0.49006140054E+03  0.00000000000E+00 0.  1.
         21    1    1    2  504  503 -0.13525503079E+03 -0.22873348436E+02  0.53895993680E+03  0.55614290151E+03  0.00000000000E+00 0.  1.
<mgrwt>
<rscale>  4 0.30812563E+03</rscale>
<asrwt>0</asrwt>
<pdfrwt beam="1">  1       21 0.35308794E+00 0.30812563E+03</pdfrwt>
<pdfrwt beam="2">  1       21 0.60361336E-02 0.30812563E+03</pdfrwt>
<totfact> 0.29023378E+03</totfact>
</mgrwt>
</event>
<event>
 5    0  0.1467858E+000  0.3313572E+03  0.7546771E-02  0.1070538E+00
         21   -1    0    0  504  501  0.00000000000E+00  0.00000000000E+00  0.18532853700E+03  0.18532853700E+03  0.00000000000E+00 0. -1.
         21   -1    0    0  501  502 -0.00000000000E+00 -0.00000000000E+00 -0.59248021470E+03  0.59248021470E+03  0.00000000000E+00 0.  1.
         25    1    1    2    0    0  0.29641865699E+03  0.79426455191E+02 -0.30746783000E+03  0.45203323825E+03  0.12500000000E+03 0.  0.
         21    1    1    2  503  502 -0.42914283837E+02 -0.71485383020E+01 -0.30838728660E+02  0.53326958871E+02  0.00000000000E+00 0. -1.
         21    1    1    2  504  503 -0.25350437315E+03 -0.72277916889E+02 -0.68845119044E+02  0.27244855458E+03  0.00000000000E+00 0. -1.
<mgrwt>
<rscale>  4 0.33135718E+03</rscale>
<asrwt>0</asrwt>
<pdfrwt beam="1">  1       21 0.28512083E-01 0.33135718E+03</pdfrwt>
<pdfrwt beam="2">  1       21 0.91150801E-01 0.33135718E+03</pdfrwt>
<totfact> 0.11149663E+04</totfact>
</mgrwt>
</event>
<event>
 5    0  0.1467858E+000  0.2725812E+03  0.7546771E-02  0.1099811E+00
         21   -1    0    0  504  501  0.00000000000E+00  0.00000000000E+00  0.75506418077E+03  0.75506418077E+03  0.00000000000E+00 0. -1.
         21   -1    0    0  501  502 -0.00000000000E+00 -0.00000000000E+00 -0.10807867066E+03  0.10807867066E+03  0.00000000000E+00 0. -1.
         25    1    1    2    0    0 -0.18132815948E+03 -0.16061016639E+03  0.15944435404E+03  0.31578953276E+03  0.12500000000E+03 0.  0.
         21    1    1    2  503  502  0.33056459024E+02  0.44417632150E+02  0.16246922801E+03  0.17164470740E+03  0.00000000000E+00 0. -1.
         21    1    1    2  504  503  0.14827170046E+03  0.11619253424E+03  0.32507192806E+03  0.37570861127E+03  0.00000000000E+00 0. -1.
<mgrwt>
<rscale>  4 0.27258123E+03</rscale>
<asrwt>0</asrwt>
<pdfrwt beam="1">  1       21 0.11616372E+00 0.27258123E+03</pdfrwt>
<pdfrwt beam="2">  1       21 0.16627488E-01 0.27258123E+03</pdfrwt>
<totfact> 0.17771585E+04</totfact>
</mgrwt>
</event>
<event>
 5    0  0.1467858E+000  0.3682001E+03  0.7546771E-02  0.1055383E+00
         21   -1    0    0  504  501  0.00000000000E+00  0.00000000000E+00  0.11845267421E+04  0.11845267421E+04  0.00000000000E+00 0. -1.
         21   -1    0    0  501  502 -0.00000000000E+00 -0.00000000000E+00 -0.11011621019E+03  0.11011621019E+03  0.00000000000E+00 0. -1.
         25    1    1    2    0    0 -0.30797391646E+03 -0.15842475812E+03  0.49262965198E+03  0.61502464277E+03  0.12500000000E+03 0.  0.
         21    1    1    2  503  502  0.27944574034E+03  0.13905911299E+03  0.48383858437E+03  0.57578393033E+03  0.00000000000E+00 0. -1.
         21    1    1    2  504  503  0.28528176114E+02  0.19365645138E+02  0.97942295539E+02  0.10383437918E+03  0.00000000000E+00 0. -1.
<mgrwt>
<rscale>  4 0.36820013E+03</rscale>
<asrwt>0</asrwt>
<pdfrwt beam="1">  1       21 0.18223487E+00 0.36820013E+03</pdfrwt>
<pdfrwt beam="2">  1       21 0.16940956E-01 0.36820013E+03</pdfrwt>
<totfact> 0.49302616E+03</totfact>
</mgrwt>
</event>
<event>
 5    0  0.1467858E+000  0.2419267E+03  0.7546771E-02  0.1118516E+00
         21   -1    0    0  504  501  0.00000000000E+00  0.00000000000E+00  0.41163097792E+03  0.41163097792E+03  0.00000000000E+00 0. -1.
         21   -1    0    0  501  502 -0.00000000000E+00 -0.00000000000E+00 -0.13490221940E+03  0.13490221940E+03  0.00000000000E+00 0. -1.
         25    1    1    2    0    0 -0.84503827677E+02  0.18911013162E+03  0.12417589242E+03  0.27193416673E+03  0.12500000000E+03 0.  0.
         21    1    1    2  503  502  0.19063806299E+02 -0.15172516111E+03  0.99739529528E+02  0.18257033433E+03  0.00000000000E+00 0. -1.
         21    1    1    2  504  503  0.65440021378E+02 -0.37384970510E+02  0.52813336560E+02  0.92028696267E+02  0.00000000000E+00 0. -1.
<mgrwt>
<rscale>  4 0.24192672E+03</rscale>
<asrwt>0</asrwt>
<pdfrwt beam="1">  1       21 0.63327842E-01 0.24192672E+03</pdfrwt>
<pdfrwt beam="2">  1       21 0.20754188E-01 0.24192672E+03</pdfrwt>
<totfact> 0.48564349E+04</totfact>
</mgrwt>
</event>
<event>
 5    0  0.1467858E+000  0.2025793E+03  0.7546771E-02  0.1147581E+00
         21   -1    0    0  504  501  0.00000000000E+00  0.00000000000E+00  0.56371783826E+03  0.56371783826E+03  0.00000000000E+00 0. -1.
         21   -1    0    0  501  502 -0.00000000000E+00 -0.00000000000E+00 -0.18087091472E+03  0.18087091472E+03  0.00000000000E+00 0. -1.
         25    1    1    2    0    0 -0.23646478249E+03  0.75350292879E+02  0.14795846854E+02  0.27827536197E+03  0.12500000000E+03 0.  0.
         21    1    1    2  503  502  0.12988654185E+03 -0.72258571750E+02  0.31259198369E+03  0.34612940241E+03  0.00000000000E+00 0. -1.
         21    1    1    2  504  503  0.10657824064E+03 -0.30917211285E+01  0.55459092995E+02  0.12018398859E+03  0.00000000000E+00 0. -1.
<mgrwt>
<rscale>  4 0.20257929E+03</rscale>
<asrwt>0</asrwt>
<pdfrwt beam="1">  1       21 0.86725821E-01 0.20257929E+03</pdfrwt>
<pdfrwt beam="2">  1       21 0.27826295E-01 0.20257929E+03</pdfrwt>
<totfact> 0.14018691E+04</totfact>
</mgrwt>
</event>
<event>
 5    0  0.1467858E+000  0.2438641E+03  0.7546771E-02  0.1117245E+00
         21   -1    0    0  504  501  0.00000000000E+00  0.00000000000E+00  0.14059423234E+04  0.14059423234E+04  0.00000000000E+00 0. -1.
         21   -1    0    0  501  502 -0.00000000000E+00 -0.00000000000E+00 -0.12514089862E+03  0.12514089862E+03  0.00000000000E+00 0. -1.
         25    1    1    2    0    0  0.19883335186E+03 -0.76270804165E+02  0.19970985725E+02  0.24774135233E+03  0.12500000000E+03 0.  0.
         21    1    1    2  503  502 -0.18283528272E+03  0.44899362795E+02  0.83045720263E+03  0.85153030409E+03  0.00000000000E+00 0. -1.
         21    1    1    2  504  503 -0.15998069138E+02  0.31371441371E+02  0.43037323642E+03  0.43181156559E+03  0.00000000000E+00 0. -1.
<mgrwt>
<rscale>  4 0.24386406E+03</rscale>
<asrwt>0</asrwt>
<pdfrwt beam="1">  1       21 0.21629881E+00 0.24386406E+03</pdfrwt>
<pdfrwt beam="2">  1       21 0.19252447E-01 0.24386406E+03</pdfrwt>
<totfact> 0.25035095E+03</totfact>
</mgrwt>
</event>
<event>
 5    0  0.1467858E+000  0.2510477E+03  0.7546771E-02  0.1112644E+00
         21   -1    0    0  504  501  0.00000000000E+00  0.00000000000E+00  0.24540861193E+03  0.24540861193E+03  0.00000000000E+00 0.  1.
         21   -1    0    0  501  502 -0.00000000000E+00 -0.00000000000E+00 -0.23706883854E+03  0.23706883854E+03  0.00000000000E+00 0.  1.
         25    1    1    2    0    0 -0.13646138691E+03 -0.16964149187E+03  0.55713687692E+02  0.25715551885E+03  0.12500000000E+03 0.  0.
         21    1    1    2  503  502  0.15475795286E+02  0.24528083438E+02 -0.17962158439E+02  0.34114018419E+02  0.00000000000E+00 0. -1.
         21    1    1    2  504  503  0.12098559162E+03  0.14511340843E+03 -0.29411755870E+02  0.19120791320E+03  0.00000000000E+00 0.  1.
<mgrwt>
<rscale>  4 0.25104770E+03</rscale>
<asrwt>0</asrwt>
<pdfrwt beam="1">  1       21 0.37755171E-01 0.25104770E+03</pdfrwt>
<pdfrwt beam="2">  1       21 0.36472129E-01 0.25104770E+03</pdfrwt>
<totfact> 0.47785804E+04</totfact>
</mgrwt>
</event>
<event>
 5    0  0.1467858E+000  0.2565481E+03  0.7546771E-02  0.1109235E+00
         21   -1    0    0  504  501  0.00000000000E+00  0.00000000000E+00  0.90627094718E+03  0.90627094718E+03  0.00000000000E+00 0.  1.
         21   -1    0    0  501  502 -0.00000000000E+00 -0.00000000000E+00 -0.10392463074E+03  0.10392463074E+03  0.00000000000E+00 0.  1.
         25    1    1    2    0    0 -0.33101747694E+02 -0.22608641322E+03  0.13513028791E+03  0.29342117622E+03  0.12500000000E+03 0.  0.
         21    1    1    2  503  502  0.56050061207E+02  0.20752385353E+03  0.46337301844E+03  0.51080555338E+03  0.00000000000E+00 0.  1.
         21    1    1    2  504  503 -0.22948313513E+02  0.18562559684E+02  0.20384301009E+03  0.20596884832E+03  0.00000000000E+00 0.  1.
<mgrwt>
<rscale>  4 0.25654814E+03</rscale>
<asrwt>0</asrwt>
<pdfrwt beam="1">  1       21 0.13942629E+00 0.25654814E+03</pdfrwt>
<pdfrwt beam="2">  1       21 0.15988405E-01 0.25654814E+03</pdfrwt>
<totfact> 0.12119389E+04</totfact>
</mgrwt>
</event>
<event>
 5    0  0.1467858E+000  0.2450267E+03  0.7546771E-02  0.1116489E+00
         21   -1    0    0  504  501  0.00000000000E+00  0.00000000000E+00  0.93010060859E+03  0.93010060859E+03  0.00000000000E+00 0.  1.
         21   -1    0    0  501  502 -0.00000000000E+00 -0.00000000000E+00 -0.10857635421E+03  0.10857635421E+03  0.00000000000E+00 0.  1.
         25    1    1    2    0    0 -0.36718341917E+02 -0.20966200269E+03  0.75317571889E+02  0.25807775697E+03  0.12500000000E+03 0.  0.
         21    1    1    2  503  502 -0.14338927866E+02  0.14178877743E+02  0.27937453780E+02  0.34454996011E+02  0.00000000000E+00 0. -1.
         21    1    1    2  504  503  0.51057269784E+02  0.19548312495E+03  0.71826922871E+03  0.74614420982E+03  0.00000000000E+00 0.  1.
<mgrwt>
<rscale>  4 0.24502669E+03</rscale>
<asrwt>0</asrwt>
<pdfrwt beam="1">  1       21 0.14309240E+00 0.24502669E+03</pdfrwt>
<pdfrwt beam="2">  1       21 0.16704055E-01 0.24502669E+03</pdfrwt>
<totfact> 0.10514841E+04</totfact>
</mgrwt>
</event>
<event>
 5    0  0.1467858E+000  0.2797872E+03  0.7546771E-02  0.1095805E+00
         21   -1    0    0  504  501  0.00000000000E+00  0.00000000000E+00  0.44080767972E+03  0.44080767972E+03  0.00000000000E+00 0.  1.
         21   -1    0    0  501  502 -0.00000000000E+00 -0.00000000000E+00 -0.62811639673E+03  0.62811639673E+03  0.00000000000E+00 0.  1.
         25    1    1    2    0    0 -0.17586956539E+03 -0.11455514236E+03 -0.45521756821E+03  0.51662464041E+03  0.12500000000E+03 0.  0.
         21    1    1    2  503  502  0.25750300009E+03 -0.84152049462E+01  0.30584759686E+03  0.39990169196E+03  0.00000000000E+00 0.  1.
         21    1    1    2  504  503 -0.81633434705E+02  0.12297034730E+03 -0.37938745655E+02  0.15239774408E+03  0.00000000000E+00 0.  1.
<mgrwt>
<rscale>  4 0.27978720E+03</rscale>
<asrwt>0</asrwt>
<pdfrwt beam="1">  1       21 0.67816567E-01 0.27978720E+03</pdfrwt>
<pdfrwt beam="2">  1       21 0.96633291E-01 0.27978720E+03</pdfrwt>
<totfact> 0.16511326E+03</totfact>
</mgrwt>
</event>
<event>
 5    0  0.1467858E+000  0.2291891E+03  0.7546771E-02  0.1127212E+00
         21   -1    0    0  504  501  0.00000000000E+00  0.00000000000E+00  0.28485523265E+03  0.28485523265E+03  0.00000000000E+00 0.  1.
         21   -1    0    0  501  502 -0.00000000000E+00 -0.00000000000E+00 -0.32436992392E+03  0.32436992392E+03  0.00000000000E+00 0.  1.
         25    1    1    2    0    0 -0.51721345162E+02 -0.20255252034E+03  0.16195739594E+03  0.29250268229E+03  0.12500000000E+03 0.  0.
         21    1    1    2  503  502  0.67645860200E+02  0.42873804849E+02 -0.94465550844E+02  0.12384613777E+03  0.00000000000E+00 0.  1.
         21    1    1    2  504  503 -0.15924515038E+02  0.15967871550E+03 -0.10700653637E+03  0.19287633652E+03  0.00000000000E+00 0.  1.
<mgrwt>
<rscale>  4 0.22918915E+03</rscale>
<asrwt>0</asrwt>
<pdfrwt beam="1">  1       21 0.43823882E-01 0.22918915E+03</pdfrwt>
<pdfrwt beam="2">  1       21 0.49903066E-01 0.22918915E+03</pdfrwt>
<totfact> 0.18740355E+04</totfact>
</mgrwt>
</event>
<event>
 5    0  0.1467858E+000  0.4205238E+03  0.7546771E-02  0.1036896E+00
         21   -1    0    0  504  501  0.00000000000E+00  0.00000000000E+00  0.12923676342E+04  0.12923676342E+04  0.00000000000E+00 0.  1.
         21   -1    0    0  501  502 -0.00000000000E+00 -0.00000000000E+00 -0.15551454729E+03  0.15551454729E+03  0.00000000000E+00 0.  1.
         25    1    1    2    0    0 -0.29831853649E+03 -0.26874031365E+03  0.29711354364E+03  0.51489490501E+03  0.12500000000E+03 0.  0.
         21    1    1    2  503  502  0.23751445604E+03  0.22070406402E+03  0.72877416044E+03  0.79764351538E+03  0.00000000000E+00 0.  1.
         21    1    1    2  504  503  0.60804080451E+02  0.48036249635E+02  0.11096538281E+03  0.13534376107E+03  0.00000000000E+00 0.  1.
<mgrwt>
<rscale>  4 0.42052385E+03</rscale>
<asrwt>0</asrwt>
<pdfrwt beam="1">  1       21 0.19882578E+00 0.42052385E+03</pdfrwt>
<pdfrwt beam="2">  1       21 0.23925316E-01 0.42052385E+03</pdfrwt>
<totfact> 0.19262765E+03</totfact>
</mgrwt>
</event>
<event>
 5    0  0.1467858E+000  0.3531646E+03  0.7546771E-02  0.1061324E+00
         21   -1    0    0  504  501  0.00000000000E+00  0.00000000000E+00  0.15225129539E+03  0.15225129539E+03  0.00000000000E+00 0. -1.
         21   -1    0    0  501  502 -0.00000000000E+00 -0.00000000000E+00 -0.13353129656E+04  0.13353129656E+04  0.00000000000E+00 0. -1.
         25    1    1    2    0    0  0.31922552622E+03 -0.84825260802E+02 -0.10837227261E+04  0.11398158661E+04  0.12500000000E+03 0.  0.
         21    1    1    2  503  502 -0.29943068782E+03  0.69804907272E+02 -0.84719357954E+02  0.31891822071E+03  0.00000000000E+00 0. -1.
         21    1    1    2  504  503 -0.19794838395E+02  0.15020353530E+02 -0.14619586208E+02  0.28830174264E+02  0.00000000000E+00 0. -1.
<mgrwt>
<rscale>  4 0.35316464E+03</rscale>
<asrwt>0</asrwt>
<pdfrwt beam="1">  1       21 0.23423276E-01 0.35316464E+03</pdfrwt>
<pdfrwt beam="2">  1       21 0.20543276E+00 0.35316464E+03</pdfrwt>
<totfact> 0.18787737E+03</totfact>
</mgrwt>
</event>
<event>
 5    0  0.1467858E+000  0.2455223E+03  0.7546771E-02  0.1116168E+00
         21   -1    0    0  504  501  0.00000000000E+00  0.00000000000E+00  0.69324150415E+03  0.69324150415E+03  0.00000000000E+00 0.  1.
         21   -1    0    0  501  502 -0.00000000000E+00 -0.00000000000E+00 -0.15487723324E+03  0.15487723324E+03  0.00000000000E+00 0.  1.
         25    1    1    2    0    0 -0.13995375427E+03  0.19473224373E+03  0.32112749929E+02  0.27233055060E+03  0.12500000000E+03 0.  0.
         21    1    1    2  503  502  0.65116185159E+02 -0.11652100421E+03  0.40914014811E+03  0.43036370988E+03  0.00000000000E+00 0.  1.
         21    1    1    2  504  503  0.74837569115E+02 -0.78211239522E+02  0.97111372875E+02  0.14542447690E+03  0.00000000000E+00 0.  1.
<mgrwt>
<rscale>  4 0.24552227E+03</rscale>
<asrwt>0</asrwt>
<pdfrwt beam="1">  1       21 0.10665254E+00 0.24552227E+03</pdfrwt>
<pdfrwt beam="2">  1       21 0.23827267E-01 0.24552227E+03</pdfrwt>
<totfact> 0.11293786E+04</totfact>
</mgrwt>
</event>
<event>
 5    0  0.1467858E+000  0.2681769E+03  0.7546771E-02  0.1102328E+00
         21   -1    0    0  504  501  0.00000000000E+00  0.00000000000E+00  0.19787415490E+03  0.19787415490E+03  0.00000000000E+00 0. -1.
         21   -1    0    0  501  502 -0.00000000000E+00 -0.00000000000E+00 -0.68590941601E+03  0.68590941601E+03  0.00000000000E+00 0. -1.
         25    1    1    2    0    0 -0.27658669554E+02 -0.23564558760E+03 -0.56759954809E+03  0.62776436021E+03  0.12500000000E+03 0.  0.
         21    1    1    2  503  502  0.18973939735E+02  0.12227792687E+03  0.69379645250E+02  0.14186414968E+03  0.00000000000E+00 0. -1.
         21    1    1    2  504  503  0.86847298194E+01  0.11336766073E+03  0.10184641730E+02  0.11415506103E+03  0.00000000000E+00 0.  1.
<mgrwt>
<rscale>  4 0.26817689E+03</rscale>
<asrwt>0</asrwt>
<pdfrwt beam="1">  1       21 0.30442178E-01 0.26817689E+03</pdfrwt>
<pdfrwt beam="2">  1       21 0.10552453E+00 0.26817689E+03</pdfrwt>
<totfact> 0.71168832E+03</totfact>
</mgrwt>
</event>
<event>
 5    0  0.1467858E+000  0.2470300E+03  0.7546771E-02  0.1115196E+00
         21   -1    0    0  504  501  0.00000000000E+00  0.00000000000E+00  0.32096558936E+03  0.32096558936E+03  0.00000000000E+00 0.  1.
         21   -1    0    0  501  502 -0.00000000000E+00 -0.00000000000E+00 -0.11445362885E+04  0.11445362885E+04  0.00000000000E+00 0. -1.
         25    1    1    2    0    0  0.20110889674E+03  0.10185526759E+03 -0.10639778589E+04  0.10947571274E+04  0.12500000000E+03 0.  0.
         21    1    1    2  503  502 -0.14182078805E+03 -0.15893876028E+02  0.45777312126E+02  0.14987098960E+03  0.00000000000E+00 0.  1.
         21    1    1    2  504  503 -0.59288108693E+02 -0.85961391564E+02  0.19462984757E+03  0.22087376086E+03  0.00000000000E+00 0.  1.
<mgrwt>
<rscale>  4 0.24702998E+03</rscale>
<asrwt>0</asrwt>
<pdfrwt beam="1">  1       21 0.49379322E-01 0.24702998E+03</pdfrwt>
<pdfrwt beam="2">  1       21 0.17608250E+00 0.24702998E+03</pdfrwt>
<totfact> 0.71656431E+02</totfact>
</mgrwt>
</event>
<event>
 5    0  0.1467858E+000  0.2368258E+03  0.7546771E-02  0.1121926E+00
         21   -1    0    0  504  501  0.00000000000E+00  0.00000000000E+00  0.19850421898E+03  0.19850421898E+03  0.00000000000E+00 0.  1.
         21   -1    0    0  501  502 -0.00000000000E+00 -0.00000000000E+00 -0.52733030264E+03  0.52733030264E+03  0.00000000000E+00 0.  1.
         25    1    1    2    0    0 -0.27772491333E+02  0.20940551799E+03 -0.38888562103E+03  0.45986846868E+03  0.12500000000E+03 0.  0.
         21    1    1    2  503  502  0.54498428151E+02 -0.17091480021E+03 -0.12238525153E+02  0.17981025860E+03  0.00000000000E+00 0.  1.
         21    1    1    2  504  503 -0.26725936818E+02 -0.38490717779E+02  0.72298062518E+02  0.86155794337E+02  0.00000000000E+00 0.  1.
<mgrwt>
<rscale>  4 0.23682576E+03</rscale>
<asrwt>0</asrwt>
<pdfrwt beam="1">  1       21 0.30539111E-01 0.23682576E+03</pdfrwt>
<pdfrwt beam="2">  1       21 0.81127737E-01 0.23682576E+03</pdfrwt>
<totfact> 0.13346484E+04</totfact>
</mgrwt>
</event>
<event>
 5    0  0.1467858E+000  0.2837846E+03  0.7546771E-02  0.1093640E+00
         21   -1    0    0  504  501  0.00000000000E+00  0.00000000000E+00  0.31145978028E+03  0.31145978028E+03  0.00000000000E+00 0. -1.
         21   -1    0    0  501  502 -0.00000000000E+00 -0.00000000000E+00 -0.11909463173E+04  0.11909463173E+04  0.00000000000E+00 0.  1.
         25    1    1    2    0    0 -0.13248800893E+03 -0.21940239443E+03 -0.11034757916E+04  0.11397255397E+04  0.12500000000E+03 0.  0.
         21    1    1    2  503  502  0.11360284696E+03  0.20085297216E+03  0.23902626214E+03  0.33223647791E+03  0.00000000000E+00 0. -1.
         21    1    1    2  504  503  0.18885161971E+02  0.18549422268E+02 -0.15037007571E+02  0.30444079980E+02  0.00000000000E+00 0. -1.
<mgrwt>
<rscale>  4 0.28378461E+03</rscale>
<asrwt>0</asrwt>
<pdfrwt beam="1">  1       21 0.47916890E-01 0.28378461E+03</pdfrwt>
<pdfrwt beam="2">  1       21 0.18322251E+00 0.28378461E+03</pdfrwt>
<totfact> 0.66058179E+02</totfact>
</mgrwt>
</event>
<event>
 5    0  0.1467858E+000  0.2648906E+03  0.7546771E-02  0.1104240E+00
         21   -1    0    0  504  501  0.00000000000E+00  0.00000000000E+00  0.17138032761E+03  0.17138032761E+03  0.00000000000E+00 0.  1.
         21   -1    0    0  501  502 -0.00000000000E+00 -0.00000000000E+00 -0.47316092642E+03  0.47316092642E+03  0.00000000000E+00 0.  1.
         25    1    1    2    0    0 -0.23061656407E+03  0.10145968967E+03 -0.21238727059E+03  0.35243640697E+03  0.12500000000E+03 0.  0.
         21    1    1    2  503  502  0.21352854244E+03 -0.71803060249E+02 -0.35205097546E+02  0.22801209790E+03  0.00000000000E+00 0.  1.
         21    1    1    2  504  503  0.17088021629E+02 -0.29656629417E+02 -0.54188230672E+02  0.64092749160E+02  0.00000000000E+00 0.  1.
<mgrwt>
<rscale>  4 0.26489064E+03</rscale>
<asrwt>0</asrwt>
<pdfrwt beam="1">  1       21 0.26366205E-01 0.26489064E+03</pdfrwt>
<pdfrwt beam="2">  1       21 0.72793986E-01 0.26489064E+03</pdfrwt>
<totfact> 0.22386119E+04</totfact>
</mgrwt>
</event>
<event>
 5    0  0.1467858E+000  0.5043483E+03  0.7546771E-02  0.1012650E+00
         21   -1    0    0  504  501  0.00000000000E+00  0.00000000000E+00  0.10586437386E+04  0.10586437386E+04  0.00000000000E+00 0.  1.
         21   -1    0    0  501  502 -0.00000000000E+00 -0.00000000000E+00 -0.14792452764E+04  0.14792452764E+04  0.00000000000E+00 0.  1.
         25    1    1    2    0    0 -0.27218969418E+02  0.48785383150E+03 -0.13728596226E+04  0.14625699220E+04  0.12500000000E+03 0.  0.
         21    1    1    2  503  502  0.54284918561E+02 -0.26525747957E+03  0.44818145909E+03  0.52361722959E+03  0.00000000000E+00 0.  1.
         21    1    1    2  504  503 -0.27065949142E+02 -0.22259635193E+03  0.50407662570E+03  0.55170186340E+03  0.00000000000E+00 0.  1.
<mgrwt>
<rscale>  4 0.50434833E+03</rscale>
<asrwt>0</asrwt>
<pdfrwt beam="1">  1       21 0.16286827E+00 0.50434833E+03</pdfrwt>
<pdfrwt beam="2">  1       21 0.22757620E+00 0.50434833E+03</pdfrwt>
<totfact> 0.15774749E+01</totfact>
</mgrwt>
</event>
<event>
 5    0  0.1467858E+000  0.2403670E+03  0.7546771E-02  0.1119549E+00
         21   -1    0    0  504  501  0.00000000000E+00  0.00000000000E+00  0.14851800380E+03  0.14851800380E+03  0.00000000000E+00 0. -1.
         21   -1    0    0  501  502 -0.00000000000E+00 -0.00000000000E+00 -0.36488377404E+03  0.36488377404E+03  0.00000000000E+00 0. -1.
         25    1    1    2    0    0 -0.14816422777E+03  0.14212192483E+03 -0.11547855070E+03  0.26666753754E+03  0.12500000000E+03 0.  0.
         21    1    1    2  503  502  0.11348272538E+03 -0.90593626187E+02 -0.11231880786E+03  0.18357845370E+03  0.00000000000E+00 0. -1.
         21    1    1    2  504  503  0.34681502390E+02 -0.51528298640E+02  0.11431588334E+02  0.63155786597E+02  0.00000000000E+00 0. -1.
<mgrwt>
<rscale>  4 0.24036697E+03</rscale>
<asrwt>0</asrwt>
<pdfrwt beam="1">  1       21 0.22848924E-01 0.24036697E+03</pdfrwt>
<pdfrwt beam="2">  1       21 0.56135965E-01 0.24036697E+03</pdfrwt>
<totfact> 0.52538194E+04</totfact>
</mgrwt>
</event>
<event>
 5    0  0.1467858E+000  0.3915525E+03  0.7546771E-02  0.1046745E+00
         21   -1    0    0  504  501  0.00000000000E+00  0.00000000000E+00  0.31383624278E+03  0.31383624278E+03  0.00000000000E+00 0.  1.
         21   -1    0    0  501  502 -0.00000000000E+00 -0.00000000000E+00 -0.87552678471E+03  0.87552678471E+03  0.00000000000E+00 0. -1.
         25    1    1    2    0    0  0.31872350590E+03 -0.19000966679E+03 -0.68854028757E+03  0.79208653208E+03  0.12500000000E+03 0.  0.
         21    1    1    2  503  502 -0.29407221654E+03  0.16833446824E+03  0.95880234182E+02  0.35214766937E+03  0.00000000000E+00 0.  1.
         21    1    1    2  504  503 -0.24651289357E+02  0.21675198549E+02  0.30969511458E+02  0.45128826033E+02  0.00000000000E+00 0.  1.
<mgrwt>
<rscale>  4 0.39155248E+03</rscale>
<asrwt>0</asrwt>
<pdfrwt beam="1">  1       21 0.48282499E-01 0.39155248E+03</pdfrwt>
<pdfrwt beam="2">  1       21 0.13469643E+00 0.39155248E+03</pdfrwt>
<totfact> 0.14158033E+03</totfact>
</mgrwt>
</event>
<event>
 5    0  0.1467858E+000  0.2912796E+03  0.7546771E-02  0.1089683E+00
         21   -1    0    0  504  501  0.00000000000E+00  0.00000000000E+00  0.11209195789E+04  0.11209195789E+04  0.00000000000E+00 0. -1.
         21   -1    0    0  501  502 -0.00000000000E+00 -0.00000000000E+00 -0.10931384803E+03  0.10931384803E+03  0.00000000000E+00 0.  1.
         25    1    1    2    0    0 -0.20667045887E+03  0.16280704844E+03  0.15197720850E+03  0.32854358234E+03  0.12500000000E+03 0.  0.
         21    1    1    2  503  502  0.24678897705E+02 -0.40470425463E+02  0.93983449373E+02  0.10526059132E+03  0.00000000000E+00 0. -1.
         21    1    1    2  504  503  0.18199156117E+03 -0.12233662297E+03  0.76564507301E+03  0.79642925328E+03  0.00000000000E+00 0. -1.
<mgrwt>
<rscale>  4 0.29127961E+03</rscale>
<asrwt>0</asrwt>
<pdfrwt beam="1">  1       21 0.17244916E+00 0.29127961E+03</pdfrwt>
<pdfrwt beam="2">  1       21 0.16817516E-01 0.29127961E+03</pdfrwt>
<totfact> 0.60905751E+03</totfact>
</mgrwt>
</event>
<event>
 5    0  0.1467858E+000  0.2418247E+03  0.7546771E-02  0.1118583E+00
         21   -1    0    0  504  501  0.00000000000E+00  0.00000000000E+00  0.27060069555E+03  0.27060069555E+03  0.00000000000E+00 0.  1.
         21   -1    0    0  501  502 -0.00000000000E+00 -0.00000000000E+00 -0.19166628582E+03  0.19166628582E+03  0.00000000000E+00 0.  1.
         25    1    1    2    0    0 -0.19585917725E+03 -0.67032714520E+02  0.30207050972E+02  0.24370405835E+03  0.12500000000E+03 0.  0.
         21    1    1    2  503  502  0.49538783527E+02  0.13714966822E+02 -0.95539383773E+01  0.52282589136E+02  0.00000000000E+00 0.  1.
         21    1    1    2  504  503  0.14632039373E+03  0.53317747698E+02  0.58281297139E+02  0.16628033388E+03  0.00000000000E+00 0.  1.
<mgrwt>
<rscale>  4 0.24182473E+03</rscale>
<asrwt>0</asrwt>
<pdfrwt beam="1">  1       21 0.41630876E-01 0.24182473E+03</pdfrwt>
<pdfrwt beam="2">  1       21 0.29487121E-01 0.24182473E+03</pdfrwt>
<totfact> 0.59931631E+04</totfact>
</mgrwt>
</event>
<event>
 5    0  0.1467858E+000  0.3544174E+03  0.7546771E-02  0.1060816E+00
         21   -1    0    0  504  501  0.00000000000E+00  0.00000000000E+00  0.10245349286E+03  0.10245349286E+03  0.00000000000E+00 0. -1.
         21   -1    0    0  501  502 -0.00000000000E+00 -0.00000000000E+00 -0.13224454377E+04  0.13224454377E+04  0.00000000000E+00 0. -1.
         25    1    1    2    0    0  0.32641644081E+03  0.58643118306E+02 -0.87627428619E+03  0.94523453851E+03  0.12500000000E+03 0.  0.
         21    1    1    2  503  502 -0.29911263855E+03 -0.41896866456E+02 -0.31812595512E+03  0.43866597917E+03  0.00000000000E+00 0. -1.
         21    1    1    2  504  503 -0.27303802265E+02 -0.16746251850E+02 -0.25591703502E+02  0.40998412863E+02  0.00000000000E+00 0. -1.
<mgrwt>
<rscale>  4 0.35441742E+03</rscale>
<asrwt>0</asrwt>
<pdfrwt beam="1">  1       21 0.15762077E-01 0.35441742E+03</pdfrwt>
<pdfrwt beam="2">  1       21 0.20345313E+00 0.35441742E+03</pdfrwt>
<totfact> 0.40844681E+03</totfact>
</mgrwt>
</event>
<event>
 5    0  0.1467858E+000  0.2612273E+03  0.7546771E-02  0.1106408E+00
         21   -1    0    0  504  501  0.00000000000E+00  0.00000000000E+00  0.29375532541E+03  0.29375532541E+03  0.00000000000E+00 0.  1.
         21   -1    0    0  501  502 -0.00000000000E+00 -0.00000000000E+00 -0.21560108963E+03  0.21560108963E+03  0.00000000000E+00 0.  1.
         25    1    1    2    0    0  0.78559169538E+02 -0.21550678191E+03  0.41788662566E+02  0.26454868831E+03  0.12500000000E+03 0.  0.
         21    1    1    2  503  502 -0.13980561372E+02  0.41231091968E+02  0.39702996298E+02  0.58921871629E+02  0.00000000000E+00 0. -1.
         21    1    1    2  504  503 -0.64578608165E+02  0.17427568994E+03 -0.33374230820E+01  0.18588585511E+03  0.00000000000E+00 0.  1.
<mgrwt>
<rscale>  4 0.26122733E+03</rscale>
<asrwt>0</asrwt>
<pdfrwt beam="1">  1       21 0.45193127E-01 0.26122733E+03</pdfrwt>
<pdfrwt beam="2">  1       21 0.33169398E-01 0.26122733E+03</pdfrwt>
<totfact> 0.39837287E+04</totfact>
</mgrwt>
</event>
<event>
 5    0  0.1467858E+000  0.4767179E+03  0.7546771E-02  0.1020041E+00
         21   -1    0    0  504  501  0.00000000000E+00  0.00000000000E+00  0.10470756619E+04  0.10470756619E+04  0.00000000000E+00 0.  1.
         21   -1    0    0  501  502 -0.00000000000E+00 -0.00000000000E+00 -0.21662295541E+03  0.21662295541E+03  0.00000000000E+00 0.  1.
         25    1    1    2    0    0  0.17835371217E+03  0.42405767872E+03  0.33444517182E+03  0.58233455546E+03  0.12500000000E+03 0.  0.
         21    1    1    2  503  502 -0.58468306815E+02 -0.87580381320E+02  0.15601050502E+03  0.18822365359E+03  0.00000000000E+00 0. -1.
         21    1    1    2  504  503 -0.11988540536E+03 -0.33647729740E+03  0.33999702967E+03  0.49314040827E+03  0.00000000000E+00 0.  1.
<mgrwt>
<rscale>  4 0.47671791E+03</rscale>
<asrwt>0</asrwt>
<pdfrwt beam="1">  1       21 0.16108856E+00 0.47671791E+03</pdfrwt>
<pdfrwt beam="2">  1       21 0.33326609E-01 0.47671791E+03</pdfrwt>
<totfact> 0.18076975E+03</totfact>
</mgrwt>
</event>
<event>
 5    0  0.1467858E+000  0.3533265E+03  0.7546771E-02  0.1061258E+00
         21   -1    0    0  504  501  0.00000000000E+00  0.00000000000E+00  0.16485598643E+03  0.16485598643E+03  0.00000000000E+00 0.  1.
         21   -1    0    0  501  502 -0.00000000000E+00 -0.00000000000E+00 -0.10239356847E+04  0.10239356847E+04  0.00000000000E+00 0.  1.
         25    1    1    2    0    0 -0.19909597254E+03  0.26377146647E+03 -0.76103928412E+03  0.83905922602E+03  0.12500000000E+03 0.  0.
         21    1    1    2  503  502  0.18031469455E+03 -0.25364680473E+03 -0.78863436228E+02  0.32104443959E+03  0.00000000000E+00 0.  1.
         21    1    1    2  504  503  0.18781277987E+02 -0.10124661741E+02 -0.19176977944E+02  0.28688005529E+02  0.00000000000E+00 0.  1.
<mgrwt>
<rscale>  4 0.35332647E+03</rscale>
<asrwt>0</asrwt>
<pdfrwt beam="1">  1       21 0.25362460E-01 0.35332647E+03</pdfrwt>
<pdfrwt beam="2">  1       21 0.15752856E+00 0.35332647E+03</pdfrwt>
<totfact> 0.34789776E+03</totfact>
</mgrwt>
</event>
<event>
 5    0  0.1467858E+000  0.4416233E+03  0.7546771E-02  0.1030250E+00
         21   -1    0    0  504  501  0.00000000000E+00  0.00000000000E+00  0.69736921394E+03  0.69736921394E+03  0.00000000000E+00 0.  1.
         21   -1    0    0  501  502 -0.00000000000E+00 -0.00000000000E+00 -0.81060166350E+03  0.81060166350E+03  0.00000000000E+00 0.  1.
         25    1    1    2    0    0  0.33354290237E+03  0.26106571959E+03 -0.67237604708E+03  0.80443814327E+03  0.12500000000E+03 0.  0.
         21    1    1    2  503  502 -0.29741798718E+03 -0.23164733856E+03  0.46605918141E+03  0.59944066357E+03  0.00000000000E+00 0.  1.
         21    1    1    2  504  503 -0.36124915189E+02 -0.29418381026E+02  0.93084416107E+02  0.10409207060E+03  0.00000000000E+00 0.  1.
<mgrwt>
<rscale>  4 0.44162334E+03</rscale>
<asrwt>0</asrwt>
<pdfrwt beam="1">  1       21 0.10728757E+00 0.44162334E+03</pdfrwt>
<pdfrwt beam="2">  1       21 0.12470795E+00 0.44162334E+03</pdfrwt>
<totfact> 0.27549683E+02</totfact>
</mgrwt>
</event>
<event>
 5    0  0.1467858E+000  0.2540459E+03  0.7546771E-02  0.1110774E+00
         21   -1    0    0  504  501  0.00000000000E+00  0.00000000000E+00  0.24774901742E+03  0.24774901742E+03  0.00000000000E+00 0. -1.
         21   -1    0    0  501  502 -0.00000000000E+00 -0.00000000000E+00 -0.24061133076E+03  0.24061133076E+03  0.00000000000E+00 0. -1.
         25    1    1    2    0    0  0.10719814108E+03 -0.19344997311E+03 -0.15857016496E+02  0.25454032788E+03  0.12500000000E+03 0.  0.
         21    1    1    2  503  502 -0.59115357748E+01  0.35629105388E+02 -0.20201609713E+02  0.41382175401E+02  0.00000000000E+00 0. -1.
         21    1    1    2  504  503 -0.10128660531E+03  0.15782086772E+03  0.43196312867E+02  0.19243784490E+03  0.00000000000E+00 0. -1.
<mgrwt>
<rscale>  4 0.25404593E+03</rscale>
<asrwt>0</asrwt>
<pdfrwt beam="1">  1       21 0.38115234E-01 0.25404593E+03</pdfrwt>
<pdfrwt beam="2">  1       21 0.37017128E-01 0.25404593E+03</pdfrwt>
<totfact> 0.45448283E+04</totfact>
</mgrwt>
</event>
<event>
 5    0  0.1467858E+000  0.2714034E+03  0.7546771E-02  0.1100479E+00
         21   -1    0    0  504  501  0.00000000000E+00  0.00000000000E+00  0.20820282686E+03  0.20820282686E+03  0.00000000000E+00 0.  1.
         21   -1    0    0  501  502 -0.00000000000E+00 -0.00000000000E+00 -0.60747982265E+03  0.60747982265E+03  0.00000000000E+00 0. -1.
         25    1    1    2    0    0 -0.19950028568E+03  0.13503491488E+03 -0.46866019267E+03  0.54157378852E+03  0.12500000000E+03 0.  0.
         21    1    1    2  503  502  0.11251953373E+03 -0.12596556744E+03  0.11619069457E+02  0.16930142476E+03  0.00000000000E+00 0.  1.
         21    1    1    2  504  503  0.86980751945E+02 -0.90693474412E+01  0.57764127423E+02  0.10480743623E+03  0.00000000000E+00 0.  1.
<mgrwt>
<rscale>  4 0.27140338E+03</rscale>
<asrwt>0</asrwt>
<pdfrwt beam="1">  1       21 0.32031204E-01 0.27140338E+03</pdfrwt>
<pdfrwt beam="2">  1       21 0.93458434E-01 0.27140338E+03</pdfrwt>
<totfact> 0.85911326E+03</totfact>
</mgrwt>
</event>
<event>
 5    0  0.1467858E+000  0.2713142E+03  0.7546771E-02  0.1100530E+00
         21   -1    0    0  504  501  0.00000000000E+00  0.00000000000E+00  0.98716837292E+03  0.98716837292E+03  0.00000000000E+00 0. -1.
         21   -1    0    0  501  502 -0.00000000000E+00 -0.00000000000E+00 -0.23616111430E+03  0.23616111430E+03  0.00000000000E+00 0. -1.
         25    1    1    2    0    0  0.23545695869E+03 -0.64553805829E+02 -0.13045054404E+03  0.30372605697E+03  0.12500000000E+03 0.  0.
         21    1    1    2  503  502 -0.22779050132E+02  0.25138485443E+02  0.24631377559E+03  0.24863890408E+03  0.00000000000E+00 0.  1.
         21    1    1    2  504  503 -0.21267790856E+03  0.39415320386E+02  0.63514402707E+03  0.67096452618E+03  0.00000000000E+00 0. -1.
<mgrwt>
<rscale>  4 0.27131421E+03</rscale>
<asrwt>0</asrwt>
<pdfrwt beam="1">  1       21 0.15187206E+00 0.27131421E+03</pdfrwt>
<pdfrwt beam="2">  1       21 0.36332480E-01 0.27131421E+03</pdfrwt>
<totfact> 0.19812545E+03</totfact>
</mgrwt>
</event>
<event>
 5    0  0.1467858E+000  0.2987540E+03  0.7546771E-02  0.1085865E+00
         21   -1    0    0  504  501  0.00000000000E+00  0.00000000000E+00  0.78223584267E+02  0.78223584267E+02  0.00000000000E+00 0.  1.
         21   -1    0    0  501  502 -0.00000000000E+00 -0.00000000000E+00 -0.16489571426E+04  0.16489571426E+04  0.00000000000E+00 0.  1.
         25    1    1    2    0    0  0.12790277126E+03 -0.23931119008E+03 -0.13055377676E+04  0.13392844460E+04  0.12500000000E+03 0.  0.
         21    1    1    2  503  502 -0.79731122776E+02  0.10064429976E+03 -0.78857429466E+02  0.15068119058E+03  0.00000000000E+00 0.  1.
         21    1    1    2  504  503 -0.48171648486E+02  0.13866689032E+03 -0.18633836125E+03  0.23721509029E+03  0.00000000000E+00 0.  1.
<mgrwt>
<rscale>  4 0.29875402E+03</rscale>
<asrwt>0</asrwt>
<pdfrwt beam="1">  1       21 0.12034399E-01 0.29875402E+03</pdfrwt>
<pdfrwt beam="2">  1       21 0.25368568E+00 0.29875402E+03</pdfrwt>
<totfact> 0.33658207E+03</totfact>
</mgrwt>
</event>
<event>
 5    0  0.1467858E+000  0.2500395E+03  0.7546771E-02  0.1113280E+00
         21   -1    0    0  504  501  0.00000000000E+00  0.00000000000E+00  0.58083881867E+02  0.58083881867E+02  0.00000000000E+00 0. -1.
         21   -1    0    0  501  502 -0.00000000000E+00 -0.00000000000E+00 -0.11690078386E+04  0.11690078386E+04  0.00000000000E+00 0. -1.
         25    1    1    2    0    0 -0.15658071564E+03  0.13685069587E+03 -0.74876096054E+03  0.78709186852E+03  0.12500000000E+03 0.  0.
         21    1    1    2  503  502  0.17824417408E+03 -0.12974037629E+03 -0.28977462857E+03  0.36410559759E+03  0.00000000000E+00 0. -1.
         21    1    1    2  504  503 -0.21663458439E+02 -0.71103195761E+01 -0.72388367601E+02  0.75894254328E+02  0.00000000000E+00 0.  1.
<mgrwt>
<rscale>  4 0.25003946E+03</rscale>
<asrwt>0</asrwt>
<pdfrwt beam="1">  1       21 0.89359820E-02 0.25003946E+03</pdfrwt>
<pdfrwt beam="2">  1       21 0.17984736E+00 0.25003946E+03</pdfrwt>
<totfact> 0.17363546E+04</totfact>
</mgrwt>
</event>
<event>
 5    0  0.1467858E+000  0.2878729E+03  0.7546771E-02  0.1091465E+00
         21   -1    0    0  504  501  0.00000000000E+00  0.00000000000E+00  0.45595207677E+03  0.45595207677E+03  0.00000000000E+00 0.  1.
         21   -1    0    0  501  502 -0.00000000000E+00 -0.00000000000E+00 -0.19951428584E+03  0.19951428584E+03  0.00000000000E+00 0.  1.
         25    1    1    2    0    0  0.83375449642E+02  0.25941080769E+03  0.11444505526E+03  0.32088643384E+03  0.12500000000E+03 0.  0.
         21    1    1    2  503  502 -0.74082342171E+01 -0.21895366609E+02  0.71934825857E+02  0.75557317212E+02  0.00000000000E+00 0.  1.
         21    1    1    2  504  503 -0.75967215425E+02 -0.23751544108E+03  0.70057909822E+02  0.25902261156E+03  0.00000000000E+00 0.  1.
<mgrwt>
<rscale>  4 0.28787292E+03</rscale>
<asrwt>0</asrwt>
<pdfrwt beam="1">  1       21 0.70146473E-01 0.28787292E+03</pdfrwt>
<pdfrwt beam="2">  1       21 0.30694506E-01 0.28787292E+03</pdfrwt>
<totfact> 0.17888832E+04</totfact>
</mgrwt>
</event>
<event>
 5    0  0.1467858E+000  0.3617689E+03  0.7546771E-02  0.1057886E+00
         21   -1    0    0  504  501  0.00000000000E+00  0.00000000000E+00  0.42273735109E+03  0.42273735109E+03  0.00000000000E+00 0.  1.
         21   -1    0    0  501  502 -0.00000000000E+00 -0.00000000000E+00 -0.40419698181E+03  0.40419698181E+03  0.00000000000E+00 0.  1.
         25    1    1    2    0    0 -0.92690785347E+02 -0.32658862646E+03 -0.19181076871E+03  0.40947293393E+03  0.12500000000E+03 0.  0.
         21    1    1    2  503  502  0.47530008611E+02  0.35605645118E+02  0.74361263203E+01  0.59851145833E+02  0.00000000000E+00 0. -1.
         21    1    1    2  504  503  0.45160776736E+02  0.29098298135E+03  0.20291501168E+03  0.35761025314E+03  0.00000000000E+00 0.  1.
<mgrwt>
<rscale>  4 0.36176887E+03</rscale>
<asrwt>0</asrwt>
<pdfrwt beam="1">  1       21 0.65036516E-01 0.36176887E+03</pdfrwt>
<pdfrwt beam="2">  1       21 0.62184151E-01 0.36176887E+03</pdfrwt>
<totfact> 0.47414988E+03</totfact>
</mgrwt>
</event>
<event>
 5    0  0.1467858E+000  0.2448907E+03  0.7546771E-02  0.1116577E+00
         21   -1    0    0  504  501  0.00000000000E+00  0.00000000000E+00  0.77018403141E+03  0.77018403141E+03  0.00000000000E+00 0.  1.
         21   -1    0    0  501  502 -0.00000000000E+00 -0.00000000000E+00 -0.16616688944E+03  0.16616688944E+03  0.00000000000E+00 0.  1.
         25    1    1    2    0    0  0.25096615726E+02  0.23041741443E+03 -0.11033093659E+02  0.26356925873E+03  0.12500000000E+03 0.  0.
         21    1    1    2  503  502 -0.65350968499E+02 -0.69350399214E+02  0.32386282736E+03  0.33759051809E+03  0.00000000000E+00 0.  1.
         21    1    1    2  504  503  0.40254352773E+02 -0.16106701521E+03  0.29118740827E+03  0.33519114404E+03  0.00000000000E+00 0.  1.
<mgrwt>
<rscale>  4 0.24489071E+03</rscale>
<asrwt>0</asrwt>
<pdfrwt beam="1">  1       21 0.11848985E+00 0.24489071E+03</pdfrwt>
<pdfrwt beam="2">  1       21 0.25564137E-01 0.24489071E+03</pdfrwt>
<totfact> 0.76300254E+03</totfact>
</mgrwt>
</event>
<event>
 5    0  0.3126286E+000  0.3783593E+03  0.7546771E-02  0.1051542E+00
         21   -1    0    0  504  501  0.00000000000E+00  0.00000000000E+00  0.11187511545E+04  0.11187511545E+04  0.00000000000E+00 0. -1.
         21   -1    0    0  501  502 -0.00000000000E+00 -0.00000000000E+00 -0.24874553477E+03  0.24874553477E+03  0.00000000000E+00 0. -1.
         25    1    1    2    0    0  0.59856128621E+02 -0.35206245869E+03  0.92763922411E+03  0.10018334498E+04  0.12500000000E+03 0.  0.
         21    1    1    2  503  502 -0.14743941345E+02  0.15086243797E+02 -0.41707346196E+01  0.21502873891E+02  0.00000000000E+00 0.  1.
         21    1    1    2  504  503 -0.45112187276E+02  0.33697621490E+03 -0.53462869729E+02  0.34416036565E+03  0.00000000000E+00 0. -1.
<mgrwt>
<rscale>  4 0.37835926E+03</rscale>
<asrwt>0</asrwt>
<pdfrwt beam="1">  1       21 0.17211556E+00 0.37835926E+03</pdfrwt>
<pdfrwt beam="2">  1       21 0.38268544E-01 0.37835926E+03</pdfrwt>
<totfact> 0.11843289E+03</totfact>
</mgrwt>
</event>
<event>
 5    0  0.1467858E+000  0.2472018E+03  0.7546771E-02  0.1115086E+00
         21   -1    0    0  504  501  0.00000000000E+00  0.00000000000E+00  0.28692615757E+04  0.28692615757E+04  0.00000000000E+00 0. -1.
         21   -1    0    0  501  502 -0.00000000000E+00 -0.00000000000E+00 -0.14445209716E+03  0.14445209716E+03  0.00000000000E+00 0. -1.
         25    1    1    2    0    0  0.21119719589E+03  0.29656189716E+02 -0.30798991150E+02  0.24911307271E+03  0.12500000000E+03 0.  0.
         21    1    1    2  503  502 -0.33060556496E+02 -0.34128297102E+01  0.20817047148E+03  0.21080700415E+03  0.00000000000E+00 0. -1.
         21    1    1    2  504  503 -0.17813663939E+03 -0.26243360006E+02  0.25474379982E+04  0.25537935960E+04  0.00000000000E+00 0. -1.
<mgrwt>
<rscale>  4 0.24720183E+03</rscale>
<asrwt>0</asrwt>
<pdfrwt beam="1">  1       21 0.44142482E+00 0.24720183E+03</pdfrwt>
<pdfrwt beam="2">  1       21 0.22223402E-01 0.24720183E+03</pdfrwt>
<totfact> 0.82002732E+01</totfact>
</mgrwt>
</event>
<event>
 5    0  0.1467858E+000  0.2935551E+03  0.7546771E-02  0.1088507E+00
         21   -1    0    0  504  501  0.00000000000E+00  0.00000000000E+00  0.14245834242E+03  0.14245834242E+03  0.00000000000E+00 0.  1.
         21   -1    0    0  501  502 -0.00000000000E+00 -0.00000000000E+00 -0.10306639448E+04  0.10306639448E+04  0.00000000000E+00 0.  1.
         25    1    1    2    0    0 -0.25818150008E+03  0.62385117270E+02 -0.82753782894E+03  0.87806232590E+03  0.12500000000E+03 0.  0.
         21    1    1    2  503  502  0.17859690513E+03 -0.18755223022E+02 -0.88400395810E+02  0.20015804478E+03  0.00000000000E+00 0.  1.
         21    1    1    2  504  503  0.79584594957E+02 -0.43629894248E+02  0.27732622344E+02  0.94901916570E+02  0.00000000000E+00 0.  1.
<mgrwt>
<rscale>  4 0.29355509E+03</rscale>
<asrwt>0</asrwt>
<pdfrwt beam="1">  1       21 0.21916667E-01 0.29355509E+03</pdfrwt>
<pdfrwt beam="2">  1       21 0.15856369E+00 0.29355509E+03</pdfrwt>
<totfact> 0.46681004E+03</totfact>
</mgrwt>
</event>
<event>
 5    0  0.1467858E+000  0.2390498E+03  0.7546771E-02  0.1120427E+00
         21   -1    0    0  504  501  0.00000000000E+00  0.00000000000E+00  0.37601449947E+03  0.37601449947E+03  0.00000000000E+00 0. -1.
         21   -1    0    0  501  502 -0.00000000000E+00 -0.00000000000E+00 -0.19790279087E+03  0.19790279087E+03  0.00000000000E+00 0. -1.
         25    1    1    2    0    0 -0.16469079301E+03 -0.11998637975E+03 -0.68434116940E+02  0.24865240193E+03  0.12500000000E+03 0.  0.
         21    1    1    2  503  502  0.24769948261E+02 -0.40069893424E+01  0.32725431079E+02  0.41237848389E+02  0.00000000000E+00 0.  1.
         21    1    1    2  504  503  0.13992084475E+03  0.12399336909E+03  0.21382039446E+03  0.28402704001E+03  0.00000000000E+00 0. -1.
<mgrwt>
<rscale>  4 0.23904976E+03</rscale>
<asrwt>0</asrwt>
<pdfrwt beam="1">  1       21 0.57848384E-01 0.23904976E+03</pdfrwt>
<pdfrwt beam="2">  1       21 0.30446583E-01 0.23904976E+03</pdfrwt>
<totfact> 0.28317365E+04</totfact>
</mgrwt>
</event>
<event>
 5    0  0.1467858E+000  0.2745956E+03  0.7546771E-02  0.1098678E+00
         21   -1    0    0  504  501  0.00000000000E+00  0.00000000000E+00  0.14011992025E+04  0.14011992025E+04  0.00000000000E+00 0. -1.
         21   -1    0    0  501  502 -0.00000000000E+00 -0.00000000000E+00 -0.50376919020E+02  0.50376919020E+02  0.00000000000E+00 0. -1.
         25    1    1    2    0    0 -0.93247712323E+01 -0.24431696819E+03  0.59649881737E+03  0.65666854000E+03  0.12500000000E+03 0.  0.
         21    1    1    2  503  502  0.17342338029E+02  0.21784346452E+03  0.61014971281E+03  0.64810431550E+03  0.00000000000E+00 0. -1.
         21    1    1    2  504  503 -0.80175667970E+01  0.26473503672E+02  0.14417375331E+03  0.14680326603E+03  0.00000000000E+00 0. -1.
<mgrwt>
<rscale>  4 0.27459558E+03</rscale>
<asrwt>0</asrwt>
<pdfrwt beam="1">  1       21 0.21556908E+00 0.27459558E+03</pdfrwt>
<pdfrwt beam="2">  1       21 0.77502963E-02 0.27459558E+03</pdfrwt>
<totfact> 0.12804734E+04</totfact>
</mgrwt>
</event>
<event>
 5    0  0.1467858E+000  0.2962731E+03  0.7546771E-02  0.1087119E+00
         21   -1    0    0  504  501  0.00000000000E+00  0.00000000000E+00  0.77091815850E+03  0.77091815850E+03  0.00000000000E+00 0. -1.
         21   -1    0    0  501  502 -0.00000000000E+00 -0.00000000000E+00 -0.12783527689E+03  0.12783527689E+03  0.00000000000E+00 0. -1.
         25    1    1    2    0    0 -0.26687717570E+03 -0.30484833248E+02  0.14115033942E+03  0.32817856463E+03  0.12500000000E+03 0.  0.
         21    1    1    2  503  502  0.24360776073E+03  0.29839819799E+02  0.43174188249E+03  0.49662481717E+03  0.00000000000E+00 0. -1.
         21    1    1    2  504  503  0.23269414965E+02  0.64501344949E+00  0.70190659697E+02  0.73950053576E+02  0.00000000000E+00 0. -1.
<mgrwt>
<rscale>  4 0.29627310E+03</rscale>
<asrwt>0</asrwt>
<pdfrwt beam="1">  1       21 0.11860279E+00 0.29627310E+03</pdfrwt>
<pdfrwt beam="2">  1       21 0.19666966E-01 0.29627310E+03</pdfrwt>
<totfact> 0.12201715E+04</totfact>
</mgrwt>
</event>
<event>
 5    0  0.1467858E+000  0.2566918E+03  0.7546771E-02  0.1109147E+00
         21   -1    0    0  504  501  0.00000000000E+00  0.00000000000E+00  0.15108975258E+04  0.15108975258E+04  0.00000000000E+00 0.  1.
         21   -1    0    0  501  502 -0.00000000000E+00 -0.00000000000E+00 -0.97854941334E+02  0.97854941334E+02  0.00000000000E+00 0. -1.
         25    1    1    2    0    0 -0.21013231260E+03 -0.78167189959E+02  0.98966693668E+02  0.27510925983E+03  0.12500000000E+03 0.  0.
         21    1    1    2  503  502  0.19274052810E+03  0.59266884203E+02  0.11432197112E+04  0.11608672546E+04  0.00000000000E+00 0.  1.
         21    1    1    2  504  503  0.17391784503E+02  0.18900305755E+02  0.17085617966E+03  0.17277595276E+03  0.00000000000E+00 0.  1.
<mgrwt>
<rscale>  4 0.25669184E+03</rscale>
<asrwt>0</asrwt>
<pdfrwt beam="1">  1       21 0.23244576E+00 0.25669184E+03</pdfrwt>
<pdfrwt beam="2">  1       21 0.15054607E-01 0.25669184E+03</pdfrwt>
<totfact> 0.31053678E+03</totfact>
</mgrwt>
</event>
<event>
 5    0  0.1467858E+000  0.2454852E+03  0.7546771E-02  0.1116192E+00
         21   -1    0    0  504  501  0.00000000000E+00  0.00000000000E+00  0.20156054245E+03  0.20156054245E+03  0.00000000000E+00 0. -1.
         21   -1    0    0  501  502 -0.00000000000E+00 -0.00000000000E+00 -0.30627237670E+03  0.30627237670E+03  0.00000000000E+00 0. -1.
         25    1    1    2    0    0 -0.10626925245E+03 -0.18260567663E+03 -0.14177257309E+03  0.28348271488E+03  0.12500000000E+03 0.  0.
         21    1    1    2  503  502  0.11321053974E+03  0.15892025356E+03  0.40928126370E+02  0.19936746181E+03  0.00000000000E+00 0. -1.
         21    1    1    2  504  503 -0.69412872971E+01  0.23685423063E+02 -0.38673875220E+01  0.24982742469E+02  0.00000000000E+00 0. -1.
<mgrwt>
<rscale>  4 0.24548521E+03</rscale>
<asrwt>0</asrwt>
<pdfrwt beam="1">  1       21 0.31009314E-01 0.24548521E+03</pdfrwt>
<pdfrwt beam="2">  1       21 0.47118827E-01 0.24548521E+03</pdfrwt>
<totfact> 0.42003976E+04</totfact>
</mgrwt>
</event>
<event>
 5    0  0.1467858E+000  0.2365862E+03  0.7546771E-02  0.1122088E+00
         21   -1    0    0  504  501  0.00000000000E+00  0.00000000000E+00  0.57768389936E+03  0.57768389936E+03  0.00000000000E+00 0. -1.
         21   -1    0    0  501  502 -0.00000000000E+00 -0.00000000000E+00 -0.18146387611E+04  0.18146387611E+04  0.00000000000E+00 0.  1.
         25    1    1    2    0    0 -0.11422857030E+03 -0.17911534262E+03 -0.17196157665E+04  0.17371913702E+04  0.12500000000E+03 0.  0.
         21    1    1    2  503  502  0.14064921935E+03  0.36223921317E+02  0.48856679436E+03  0.50969783983E+03  0.00000000000E+00 0. -1.
         21    1    1    2  504  503 -0.26420649042E+02  0.14289142130E+03 -0.59058895933E+01  0.14543345045E+03  0.00000000000E+00 0.  1.
<mgrwt>
<rscale>  4 0.23658618E+03</rscale>
<asrwt>0</asrwt>
<pdfrwt beam="1">  1       21 0.88874446E-01 0.23658618E+03</pdfrwt>
<pdfrwt beam="2">  1       21 0.27917519E+00 0.23658618E+03</pdfrwt>
<totfact> 0.45459412E+01</totfact>
</mgrwt>
</event>
<event>
 5    0  0.1467858E+000  0.2771879E+03  0.7546771E-02  0.1097235E+00
         21   -1    0    0  504  501  0.00000000000E+00  0.00000000000E+00  0.11879589911E+04  0.11879589911E+04  0.00000000000E+00 0.  1.
         21   -1    0    0  501  502 -0.00000000000E+00 -0.00000000000E+00 -0.87956054681E+02  0.87956054681E+02  0.00000000000E+00 0.  1.
         25    1    1    2    0    0  0.13090149783E+03 -0.20993557856E+03  0.20630700085E+03  0.34553686906E+03  0.12500000000E+03 0.  0.
         21    1    1    2  503  502 -0.70558628040E+02  0.16255408141E+03  0.69895801134E+03  0.72107187644E+03  0.00000000000E+00 0.  1.
         21    1    1    2  504  503 -0.60342869786E+02  0.47381497155E+02  0.19473792427E+03  0.20930630032E+03  0.00000000000E+00 0. -1.
<mgrwt>
<rscale>  4 0.27718793E+03</rscale>
<asrwt>0</asrwt>
<pdfrwt beam="1">  1       21 0.18276291E+00 0.27718793E+03</pdfrwt>
<pdfrwt beam="2">  1       21 0.13531702E-01 0.27718793E+03</pdfrwt>
<totfact> 0.77586616E+03</totfact>
</mgrwt>
</event>
<event>
 5    0  0.1467858E+000  0.2572166E+03  0.7546771E-02  0.1108827E+00
         21   -1    0    0  504  501  0.00000000000E+00  0.00000000000E+00  0.12018302660E+03  0.12018302660E+03  0.00000000000E+00 0.  1.
         21   -1    0    0  501  502 -0.00000000000E+00 -0.00000000000E+00 -0.53480143954E+03  0.53480143954E+03  0.00000000000E+00 0.  1.
         25    1    1    2    0    0  0.12078119177E+02 -0.22447603784E+03 -0.30794943220E+03  0.40123961086E+03  0.12500000000E+03 0.  0.
         21    1    1    2  503  502 -0.29095526522E+02  0.18298813888E+03 -0.82805552678E+02  0.20294819090E+03  0.00000000000E+00 0.  1.
         21    1    1    2  504  503  0.17017407345E+02  0.41487898966E+02 -0.23863428061E+02  0.50796664381E+02  0.00000000000E+00 0.  1.
<mgrwt>
<rscale>  4 0.25721659E+03</rscale>
<asrwt>0</asrwt>
<pdfrwt beam="1">  1       21 0.18489697E-01 0.25721659E+03</pdfrwt>
<pdfrwt beam="2">  1       21 0.82277143E-01 0.25721659E+03</pdfrwt>
<totfact> 0.33401399E+04</totfact>
</mgrwt>
</event>
<event>
 5    0  0.1467858E+000  0.2669864E+03  0.7546771E-02  0.1103017E+00
         21   -1    0    0  504  501  0.00000000000E+00  0.00000000000E+00  0.13670179993E+03  0.13670179993E+03  0.00000000000E+00 0.  1.
         21   -1    0    0  501  502 -0.00000000000E+00 -0.00000000000E+00 -0.53431960533E+03  0.53431960533E+03  0.00000000000E+00 0.  1.
         25    1    1    2    0    0  0.10440963434E+03 -0.21155460388E+03 -0.32159007906E+03  0.41797356510E+03  0.12500000000E+03 0.  0.
         21    1    1    2  503  502 -0.98185912629E+02  0.15602383888E+03 -0.47796402182E+02  0.19044266276E+03  0.00000000000E+00 0.  1.
         21    1    1    2  504  503 -0.62237217107E+01  0.55530765000E+02 -0.28231324151E+02  0.62605177396E+02  0.00000000000E+00 0.  1.
<mgrwt>
<rscale>  4 0.26698637E+03</rscale>
<asrwt>0</asrwt>
<pdfrwt beam="1">  1       21 0.21031046E-01 0.26698637E+03</pdfrwt>
<pdfrwt beam="2">  1       21 0.82203016E-01 0.26698637E+03</pdfrwt>
<totfact> 0.26166375E+04</totfact>
</mgrwt>
</event>
<event>
 5    0  0.1467858E+000  0.3148602E+03  0.7546771E-02  0.1078039E+00
         21   -1    0    0  504  501  0.00000000000E+00  0.00000000000E+00  0.11689227779E+04  0.11689227779E+04  0.00000000000E+00 0. -1.
         21   -1    0    0  501  502 -0.00000000000E+00 -0.00000000000E+00 -0.13829139949E+03  0.13829139949E+03  0.00000000000E+00 0.  1.
         25    1    1    2    0    0  0.11772362571E+02  0.28874441371E+03  0.98606034810E+02  0.32993950214E+03  0.12500000000E+03 0.  0.
         21    1    1    2  503  502 -0.14704540127E+02 -0.18331932046E+02  0.74963951900E+02  0.78561296561E+02  0.00000000000E+00 0. -1.
         21    1    1    2  504  503  0.29321775556E+01 -0.27041248167E+03  0.85706139169E+03  0.89871337869E+03  0.00000000000E+00 0. -1.
<mgrwt>
<rscale>  4 0.31486017E+03</rscale>
<asrwt>0</asrwt>
<pdfrwt beam="1">  1       21 0.17983427E+00 0.31486017E+03</pdfrwt>
<pdfrwt beam="2">  1       21 0.21275601E-01 0.31486017E+03</pdfrwt>
<totfact> 0.34291575E+03</totfact>
</mgrwt>
</event>
<event>
 5    0  0.1467858E+000  0.2480650E+03  0.7546771E-02  0.1114534E+00
         21   -1    0    0  504  501  0.00000000000E+00  0.00000000000E+00  0.11288667912E+04  0.11288667912E+04  0.00000000000E+00 0. -1.
         21   -1    0    0  501  502 -0.00000000000E+00 -0.00000000000E+00 -0.74997263266E+02  0.74997263266E+02  0.00000000000E+00 0. -1.
         25    1    1    2    0    0 -0.14486770185E+03 -0.16586192317E+03  0.26131816933E+03  0.36388049442E+03  0.12500000000E+03 0.  0.
         21    1    1    2  503  502  0.63023424148E+02 -0.26730200576E+02  0.17335102119E+03  0.18637873312E+03  0.00000000000E+00 0. -1.
         21    1    1    2  504  503  0.81844277702E+02  0.19259212374E+03  0.61920033742E+03  0.65360482693E+03  0.00000000000E+00 0. -1.
<mgrwt>
<rscale>  4 0.24806504E+03</rscale>
<asrwt>0</asrwt>
<pdfrwt beam="1">  1       21 0.17367180E+00 0.24806504E+03</pdfrwt>
<pdfrwt beam="2">  1       21 0.11538041E-01 0.24806504E+03</pdfrwt>
<totfact> 0.12181288E+04</totfact>
</mgrwt>
</event>
<event>
 5    0  0.1467858E+000  0.3097958E+03  0.7546771E-02  0.1080444E+00
         21   -1    0    0  504  501  0.00000000000E+00  0.00000000000E+00  0.30991291677E+03  0.30991291677E+03  0.00000000000E+00 0.  1.
         21   -1    0    0  501  502 -0.00000000000E+00 -0.00000000000E+00 -0.37606976198E+03  0.37606976198E+03  0.00000000000E+00 0.  1.
         25    1    1    2    0    0  0.41332159744E+02 -0.29813815949E+03 -0.91563134236E+02  0.33853141231E+03  0.12500000000E+03 0.  0.
         21    1    1    2  503  502 -0.38540229463E+02  0.22636525077E+02 -0.44640406458E+02  0.63170621679E+02  0.00000000000E+00 0.  1.
         21    1    1    2  504  503 -0.27919302807E+01  0.27550163441E+03  0.70046695479E+02  0.28428064476E+03  0.00000000000E+00 0.  1.
<mgrwt>
<rscale>  4 0.30979583E+03</rscale>
<asrwt>0</asrwt>
<pdfrwt beam="1">  1       21 0.47678910E-01 0.30979583E+03</pdfrwt>
<pdfrwt beam="2">  1       21 0.57856887E-01 0.30979583E+03</pdfrwt>
<totfact> 0.11056633E+04</totfact>
</mgrwt>
</event>
<event>
 5    0  0.1467858E+000  0.2777432E+03  0.7546771E-02  0.1096928E+00
         21   -1    0    0  504  501  0.00000000000E+00  0.00000000000E+00  0.34800579932E+03  0.34800579932E+03  0.00000000000E+00 0. -1.
         21   -1    0    0  501  502 -0.00000000000E+00 -0.00000000000E+00 -0.53290440884E+03  0.53290440884E+03  0.00000000000E+00 0.  1.
         25    1    1    2    0    0 -0.71647073774E+02  0.24015182109E+03 -0.43567158512E+03  0.51791981081E+03  0.12500000000E+03 0.  0.
         21    1    1    2  503  502 -0.71961720711E+01 -0.24087015983E+02  0.36613249663E+01  0.25404222719E+02  0.00000000000E+00 0.  1.
         21    1    1    2  504  503  0.78843245845E+02 -0.21606480510E+03  0.24711165063E+03  0.33758617462E+03  0.00000000000E+00 0. -1.
<mgrwt>
<rscale>  4 0.27774317E+03</rscale>
<asrwt>0</asrwt>
<pdfrwt beam="1">  1       21 0.53539354E-01 0.27774317E+03</pdfrwt>
<pdfrwt beam="2">  1       21 0.81985293E-01 0.27774317E+03</pdfrwt>
<totfact> 0.40515019E+03</totfact>
</mgrwt>
</event>
<event>
 5    0  0.1467858E+000  0.3599120E+03  0.7546771E-02  0.1058619E+00
         21   -1    0    0  504  501  0.00000000000E+00  0.00000000000E+00  0.69077881355E+03  0.69077881355E+03  0.00000000000E+00 0. -1.
         21   -1    0    0  501  502 -0.00000000000E+00 -0.00000000000E+00 -0.18207121833E+03  0.18207121833E+03  0.00000000000E+00 0. -1.
         25    1    1    2    0    0  0.19655789885E+03  0.27436589809E+03  0.22019567100E+03  0.42192746671E+03  0.12500000000E+03 0.  0.
         21    1    1    2  503  502 -0.11661756311E+03 -0.18816320840E+03  0.23134478701E+03  0.32019597046E+03  0.00000000000E+00 0. -1.
         21    1    1    2  504  503 -0.79940335747E+02 -0.86202689684E+02  0.57167137216E+02  0.13072659471E+03  0.00000000000E+00 0. -1.
<mgrwt>
<rscale>  4 0.35991201E+03</rscale>
<asrwt>0</asrwt>
<pdfrwt beam="1">  1       21 0.10627366E+00 0.35991201E+03</pdfrwt>
<pdfrwt beam="2">  1       21 0.28010957E-01 0.35991201E+03</pdfrwt>
<totfact> 0.78918802E+03</totfact>
</mgrwt>
</event>
<event>
 5    0  0.1467858E+000  0.4057626E+03  0.7546771E-02  0.1041802E+00
         21   -1    0    0  504  501  0.00000000000E+00  0.00000000000E+00  0.63608523330E+03  0.63608523330E+03  0.00000000000E+00 0.  1.
         21   -1    0    0  501  502 -0.00000000000E+00 -0.00000000000E+00 -0.26554283013E+03  0.26554283013E+03  0.00000000000E+00 0.  1.
         25    1    1    2    0    0  0.12573464039E+03  0.36497820326E+03  0.94310723897E+02  0.41657868559E+03  0.12500000000E+03 0.  0.
         21    1    1    2  503  502 -0.47603722037E+02 -0.99912138571E+02  0.29373979156E+02  0.11450493630E+03  0.00000000000E+00 0.  1.
         21    1    1    2  504  503 -0.78130918351E+02 -0.26506606469E+03  0.24685770011E+03  0.37054444154E+03  0.00000000000E+00 0.  1.
<mgrwt>
<rscale>  4 0.40576260E+03</rscale>
<asrwt>0</asrwt>
<pdfrwt beam="1">  1       21 0.97859266E-01 0.40576260E+03</pdfrwt>
<pdfrwt beam="2">  1       21 0.40852743E-01 0.40576260E+03</pdfrwt>
<totfact> 0.44385580E+03</totfact>
</mgrwt>
</event>
<event>
 5    0  0.1467858E+000  0.4218607E+03  0.7546771E-02  0.1036462E+00
         21   -1    0    0  504  501  0.00000000000E+00  0.00000000000E+00  0.26581006784E+03  0.26581006784E+03  0.00000000000E+00 0.  1.
         21   -1    0    0  501  502 -0.00000000000E+00 -0.00000000000E+00 -0.87420607681E+03  0.87420607681E+03  0.00000000000E+00 0.  1.
         25    1    1    2    0    0  0.66864534622E+02  0.39732930429E+03 -0.58486332647E+03  0.72113213261E+03  0.12500000000E+03 0.  0.
         21    1    1    2  503  502  0.56462264984E+01 -0.14340717431E+03  0.36471840999E+02  0.14808002128E+03  0.00000000000E+00 0.  1.
         21    1    1    2  504  503 -0.72510761120E+02 -0.25392212998E+03 -0.60004523498E+02  0.27080399076E+03  0.00000000000E+00 0.  1.
<mgrwt>
<rscale>  4 0.42186069E+03</rscale>
<asrwt>0</asrwt>
<pdfrwt beam="1">  1       21 0.40893857E-01 0.42186069E+03</pdfrwt>
<pdfrwt beam="2">  1       21 0.13449324E+00 0.42186069E+03</pdfrwt>
<totfact> 0.19831835E+03</totfact>
</mgrwt>
</event>
<event>
 5    0  0.1467858E+000  0.2743086E+03  0.7546771E-02  0.1098839E+00
         21   -1    0    0  504  501  0.00000000000E+00  0.00000000000E+00  0.30878555432E+02  0.30878555432E+02  0.00000000000E+00 0.  1.
         21   -1    0    0  501  502 -0.00000000000E+00 -0.00000000000E+00 -0.22342384933E+04  0.22342384933E+04  0.00000000000E+00 0.  1.
         25    1    1    2    0    0 -0.70313407884E+02  0.23382945171E+03 -0.12083928119E+04  0.12391361408E+04  0.12500000000E+03 0.  0.
         21    1    1    2  503  502  0.79832465499E+02 -0.20688728482E+03 -0.87678032684E+03  0.90438891673E+03  0.00000000000E+00 0.  1.
         21    1    1    2  504  503 -0.95190576146E+01 -0.26942166890E+02 -0.11818679919E+03  0.12159199117E+03  0.00000000000E+00 0.  1.
<mgrwt>
<rscale>  4 0.27430856E+03</rscale>
<asrwt>0</asrwt>
<pdfrwt beam="1">  1       21 0.47505466E-02 0.27430856E+03</pdfrwt>
<pdfrwt beam="2">  1       21 0.34372902E+00 0.27430856E+03</pdfrwt>
<totfact> 0.51266127E+03</totfact>
</mgrwt>
</event>
<event>
 5    0  0.1467858E+000  0.2581151E+03  0.7546771E-02  0.1108281E+00
         21   -1    0    0  504  501  0.00000000000E+00  0.00000000000E+00  0.54169193528E+03  0.54169193528E+03  0.00000000000E+00 0.  1.
         21   -1    0    0  501  502 -0.00000000000E+00 -0.00000000000E+00 -0.15877621748E+03  0.15877621748E+03  0.00000000000E+00 0.  1.
         25    1    1    2    0    0 -0.22544914462E+03  0.13080743584E+02  0.10324493128E+02  0.25832153960E+03  0.12500000000E+03 0.  0.
         21    1    1    2  503  502  0.35053372724E+02 -0.44908033294E+00  0.17842835888E+02  0.39335828515E+02  0.00000000000E+00 0. -1.
         21    1    1    2  504  503  0.19039577190E+03 -0.12631663251E+02  0.35474838879E+03  0.40281078464E+03  0.00000000000E+00 0.  1.
<mgrwt>
<rscale>  4 0.25811513E+03</rscale>
<asrwt>0</asrwt>
<pdfrwt beam="1">  1       21 0.83337220E-01 0.25811513E+03</pdfrwt>
<pdfrwt beam="2">  1       21 0.24427111E-01 0.25811513E+03</pdfrwt>
<totfact> 0.19144503E+04</totfact>
</mgrwt>
</event>
<event>
 5    0  0.1467858E+000  0.3977468E+03  0.7546771E-02  0.1044563E+00
         21   -1    0    0  504  501  0.00000000000E+00  0.00000000000E+00  0.60263383653E+03  0.60263383653E+03  0.00000000000E+00 0.  1.
         21   -1    0    0  501  502 -0.00000000000E+00 -0.00000000000E+00 -0.55848637437E+03  0.55848637437E+03  0.00000000000E+00 0.  1.
         25    1    1    2    0    0 -0.11213427018E+03 -0.37960738831E+03 -0.36914345248E+03  0.55548875084E+03  0.12500000000E+03 0.  0.
         21    1    1    2  503  502  0.30493896096E+02  0.10230602618E+03  0.69777855242E+01  0.10698172826E+03  0.00000000000E+00 0.  1.
         21    1    1    2  504  503  0.81640374081E+02  0.27730136213E+03  0.40631312912E+03  0.49864973179E+03  0.00000000000E+00 0.  1.
<mgrwt>
<rscale>  4 0.39774683E+03</rscale>
<asrwt>0</asrwt>
<pdfrwt beam="1">  1       21 0.92712898E-01 0.39774683E+03</pdfrwt>
<pdfrwt beam="2">  1       21 0.85920981E-01 0.39774683E+03</pdfrwt>
<totfact> 0.99697733E+02</totfact>
</mgrwt>
</event>
<event>
 5    0  0.1467858E+000  0.2311945E+03  0.7546771E-02  0.1125802E+00
         21   -1    0    0  504  501  0.00000000000E+00  0.00000000000E+00  0.21191844914E+03  0.21191844914E+03  0.00000000000E+00 0.  1.
         21   -1    0    0  501  502 -0.00000000000E+00 -0.00000000000E+00 -0.41300934303E+03  0.41300934303E+03  0.00000000000E+00 0.  1.
         25    1    1    2    0    0  0.10658543596E+03  0.20545688364E+03 -0.18421749382E+03  0.32114493803E+03  0.12500000000E+03 0.  0.
         21    1    1    2  503  502 -0.79198036765E+01 -0.18778203012E+03  0.34592886032E+02  0.19110594415E+03  0.00000000000E+00 0.  1.
         21    1    1    2  504  503 -0.98665632280E+02 -0.17674853526E+02 -0.51466286091E+02  0.11267690999E+03  0.00000000000E+00 0.  1.
<mgrwt>
<rscale>  4 0.23119448E+03</rscale>
<asrwt>0</asrwt>
<pdfrwt beam="1">  1       21 0.32602839E-01 0.23119448E+03</pdfrwt>
<pdfrwt beam="2">  1       21 0.63539898E-01 0.23119448E+03</pdfrwt>
<totfact> 0.20281239E+04</totfact>
</mgrwt>
</event>
<event>
 5    0  0.1467858E+000  0.2410263E+03  0.7546771E-02  0.1119111E+00
         21   -1    0    0  504  501  0.00000000000E+00  0.00000000000E+00  0.17350765963E+04  0.17350765963E+04  0.00000000000E+00 0.  1.
         21   -1    0    0  501  502 -0.00000000000E+00 -0.00000000000E+00 -0.62733401616E+02  0.62733401616E+02  0.00000000000E+00 0. -1.
         25    1    1    2    0    0  0.65874156697E+02 -0.19072517553E+03  0.30350327692E+03  0.38529824319E+03  0.12500000000E+03 0.  0.
         21    1    1    2  503  502 -0.40290621497E+02 -0.15325070461E+02  0.19537868521E+02  0.47327795972E+02  0.00000000000E+00 0.  1.
         21    1    1    2  504  503 -0.25583535200E+02  0.20605024600E+03  0.13493020492E+04  0.13651839588E+04  0.00000000000E+00 0.  1.
<mgrwt>
<rscale>  4 0.24102630E+03</rscale>
<asrwt>0</asrwt>
<pdfrwt beam="1">  1       21 0.26693483E+00 0.24102630E+03</pdfrwt>
<pdfrwt beam="2">  1       21 0.96512939E-02 0.24102630E+03</pdfrwt>
<totfact> 0.43607813E+03</totfact>
</mgrwt>
</event>
<event>
 5    0  0.1467858E+000  0.2737468E+03  0.7546771E-02  0.1099154E+00
         21   -1    0    0  504  501  0.00000000000E+00  0.00000000000E+00  0.11242045724E+04  0.11242045724E+04  0.00000000000E+00 0. -1.
         21   -1    0    0  501  502 -0.00000000000E+00 -0.00000000000E+00 -0.73389374617E+02  0.73389374617E+02  0.00000000000E+00 0. -1.
         25    1    1    2    0    0  0.23881536514E+03  0.68517119968E+02  0.51707605522E+03  0.58712862410E+03  0.12500000000E+03 0.  0.
         21    1    1    2  503  502 -0.32085715052E+01 -0.21295329213E+02 -0.36097845019E+01  0.21836128813E+02  0.00000000000E+00 0.  1.
         21    1    1    2  504  503 -0.23560679364E+03 -0.47221790755E+02  0.53734892702E+03  0.58862919406E+03  0.00000000000E+00 0. -1.
<mgrwt>
<rscale>  4 0.27374682E+03</rscale>
<asrwt>0</asrwt>
<pdfrwt beam="1">  1       21 0.17295454E+00 0.27374682E+03</pdfrwt>
<pdfrwt beam="2">  1       21 0.11290674E-01 0.27374682E+03</pdfrwt>
<totfact> 0.12621495E+04</totfact>
</mgrwt>
</event>
<event>
 5    0  0.1467858E+000  0.4063982E+03  0.7546771E-02  0.1041586E+00
         21   -1    0    0  504  501  0.00000000000E+00  0.00000000000E+00  0.10825141661E+04  0.10825141661E+04  0.00000000000E+00 0. -1.
         21   -1    0    0  501  502 -0.00000000000E+00 -0.00000000000E+00 -0.21763588154E+03  0.21763588154E+03  0.00000000000E+00 0. -1.
         25    1    1    2    0    0 -0.14490682735E+03  0.35851991906E+03  0.69379276862E+02  0.41227782506E+03  0.12500000000E+03 0.  0.
         21    1    1    2  503  502  0.76229054336E+02 -0.27616568114E+03  0.55635455935E+03  0.62578650343E+03  0.00000000000E+00 0. -1.
         21    1    1    2  504  503  0.68677773013E+02 -0.82354237922E+02  0.23914444840E+03  0.26208571920E+03  0.00000000000E+00 0. -1.
<mgrwt>
<rscale>  4 0.40639823E+03</rscale>
<asrwt>0</asrwt>
<pdfrwt beam="1">  1       21 0.16654064E+00 0.40639823E+03</pdfrwt>
<pdfrwt beam="2">  1       21 0.33482444E-01 0.40639823E+03</pdfrwt>
<totfact> 0.16798661E+03</totfact>
</mgrwt>
</event>
<event>
 5    0  0.1467858E+000  0.3314972E+03  0.7546771E-02  0.1070476E+00
         21   -1    0    0  504  501  0.00000000000E+00  0.00000000000E+00  0.17216618831E+03  0.17216618831E+03  0.00000000000E+00 0.  1.
         21   -1    0    0  501  502 -0.00000000000E+00 -0.00000000000E+00 -0.63111430857E+03  0.63111430857E+03  0.00000000000E+00 0.  1.
         25    1    1    2    0    0 -0.92842230521E+02 -0.29265283504E+03 -0.20324885009E+03  0.38884502914E+03  0.12500000000E+03 0.  0.
         21    1    1    2  503  502  0.58919174120E+02  0.49879837733E+02 -0.89907074005E+02  0.11850210651E+03  0.00000000000E+00 0.  1.
         21    1    1    2  504  503  0.33923056402E+02  0.24277299730E+03 -0.16579219617E+03  0.29593336122E+03  0.00000000000E+00 0.  1.
<mgrwt>
<rscale>  4 0.33149715E+03</rscale>
<asrwt>0</asrwt>
<pdfrwt beam="1">  1       21 0.26487106E-01 0.33149715E+03</pdfrwt>
<pdfrwt beam="2">  1       21 0.97094509E-01 0.33149715E+03</pdfrwt>
<totfact> 0.11083173E+04</totfact>
</mgrwt>
</event>
<event>
 5    0  0.1467858E+000  0.3891080E+03  0.7546771E-02  0.1047618E+00
         21   -1    0    0  504  501  0.00000000000E+00  0.00000000000E+00  0.16035470094E+03  0.16035470094E+03  0.00000000000E+00 0. -1.
         21   -1    0    0  501  502 -0.00000000000E+00 -0.00000000000E+00 -0.91223359232E+03  0.91223359232E+03  0.00000000000E+00 0. -1.
         25    1    1    2    0    0 -0.23920391861E+03 -0.28028833623E+03 -0.42638505696E+03  0.57724282838E+03  0.12500000000E+03 0.  0.
         21    1    1    2  503  502  0.21407485918E+03  0.22298523639E+03 -0.25194344359E+03  0.39878059099E+03  0.00000000000E+00 0. -1.
         21    1    1    2  504  503  0.25129059429E+02  0.57303099840E+02 -0.73550390833E+02  0.96564873897E+02  0.00000000000E+00 0. -1.
<mgrwt>
<rscale>  4 0.38910804E+03</rscale>
<asrwt>0</asrwt>
<pdfrwt beam="1">  1       21 0.24669954E-01 0.38910804E+03</pdfrwt>
<pdfrwt beam="2">  1       21 0.14034363E+00 0.38910804E+03</pdfrwt>
<totfact> 0.49308182E+03</totfact>
</mgrwt>
</event>
<event>
 5    0  0.1467858E+000  0.2628990E+03  0.7546771E-02  0.1105414E+00
         21   -1    0    0  504  501  0.00000000000E+00  0.00000000000E+00  0.33116900031E+03  0.33116900031E+03  0.00000000000E+00 0. -1.
         21   -1    0    0  501  502 -0.00000000000E+00 -0.00000000000E+00 -0.31060501660E+03  0.31060501660E+03  0.00000000000E+00 0. -1.
         25    1    1    2    0    0  0.73218949242E+02 -0.23052630938E+03  0.18900283869E+03  0.33143697271E+03  0.12500000000E+03 0.  0.
         21    1    1    2  503  502 -0.23385768357E+02  0.69012197219E+01  0.24627740774E+01  0.24506861313E+02  0.00000000000E+00 0.  1.
         21    1    1    2  504  503 -0.49833180885E+02  0.22362508966E+03 -0.17090162905E+03  0.28583018290E+03  0.00000000000E+00 0. -1.
<mgrwt>
<rscale>  4 0.26289902E+03</rscale>
<asrwt>0</asrwt>
<pdfrwt beam="1">  1       21 0.50949077E-01 0.26289902E+03</pdfrwt>
<pdfrwt beam="2">  1       21 0.47785387E-01 0.26289902E+03</pdfrwt>
<totfact> 0.14743602E+04</totfact>
</mgrwt>
</event>
<event>
 5    0  0.1467858E+000  0.2829215E+03  0.7546771E-02  0.1094104E+00
         21   -1    0    0  504  501  0.00000000000E+00  0.00000000000E+00  0.12028117354E+03  0.12028117354E+03  0.00000000000E+00 0. -1.
         21   -1    0    0  501  502 -0.00000000000E+00 -0.00000000000E+00 -0.66536698482E+03  0.66536698482E+03  0.00000000000E+00 0. -1.
         25    1    1    2    0    0 -0.19960622227E+03 -0.16432891898E+03 -0.26779148350E+03  0.39266259844E+03  0.12500000000E+03 0.  0.
         21    1    1    2  503  502 -0.63025533973E+01  0.22245797121E+02 -0.49535841809E+02  0.54666235398E+02  0.00000000000E+00 0. -1.
         21    1    1    2  504  503  0.20590877566E+03  0.14208312185E+03 -0.22775848598E+03  0.33831932452E+03  0.00000000000E+00 0. -1.
<mgrwt>
<rscale>  4 0.28292148E+03</rscale>
<asrwt>0</asrwt>
<pdfrwt beam="1">  1       21 0.18504796E-01 0.28292148E+03</pdfrwt>
<pdfrwt beam="2">  1       21 0.10236415E+00 0.28292148E+03</pdfrwt>
<totfact> 0.19744357E+04</totfact>
</mgrwt>
</event>
<event>
 5    0  0.1467858E+000  0.2253132E+03  0.7546771E-02  0.1129983E+00
         21   -1    0    0  504  501  0.00000000000E+00  0.00000000000E+00  0.28679879883E+03  0.28679879883E+03  0.00000000000E+00 0.  1.
         21   -1    0    0  501  502 -0.00000000000E+00 -0.00000000000E+00 -0.31863898159E+03  0.31863898159E+03  0.00000000000E+00 0.  1.
         25    1    1    2    0    0 -0.20098602296E+03 -0.18455817233E+02 -0.20730378266E+03  0.31517591424E+03  0.12500000000E+03 0.  0.
         21    1    1    2  503  502  0.67722018832E+02 -0.34875787787E+02  0.20187234293E+02  0.78804294533E+02  0.00000000000E+00 0.  1.
         21    1    1    2  504  503  0.13326400413E+03  0.53331605020E+02  0.15527636561E+03  0.21145757164E+03  0.00000000000E+00 0.  1.
<mgrwt>
<rscale>  4 0.22531321E+03</rscale>
<asrwt>0</asrwt>
<pdfrwt beam="1">  1       21 0.44122892E-01 0.22531321E+03</pdfrwt>
<pdfrwt beam="2">  1       21 0.49021381E-01 0.22531321E+03</pdfrwt>
<totfact> 0.19222020E+04</totfact>
</mgrwt>
</event>
<event>
 5    0  0.1467858E+000  0.2420424E+03  0.7546771E-02  0.1118440E+00
         21   -1    0    0  504  501  0.00000000000E+00  0.00000000000E+00  0.12988188715E+03  0.12988188715E+03  0.00000000000E+00 0.  1.
         21   -1    0    0  501  502 -0.00000000000E+00 -0.00000000000E+00 -0.56521737606E+03  0.56521737606E+03  0.00000000000E+00 0.  1.
         25    1    1    2    0    0  0.19911400380E+03 -0.57559876215E+02 -0.41942225079E+03  0.48425153621E+03  0.12500000000E+03 0.  0.
         21    1    1    2  503  502 -0.15589692422E+03  0.38531894722E+02 -0.25677892731E+02  0.16262814045E+03  0.00000000000E+00 0.  1.
         21    1    1    2  504  503 -0.43217079587E+02  0.19027981494E+02  0.97646546131E+01  0.48219586554E+02  0.00000000000E+00 0.  1.
<mgrwt>
<rscale>  4 0.24204241E+03</rscale>
<asrwt>0</asrwt>
<pdfrwt beam="1">  1       21 0.19981828E-01 0.24204241E+03</pdfrwt>
<pdfrwt beam="2">  1       21 0.86956522E-01 0.24204241E+03</pdfrwt>
<totfact> 0.25606927E+04</totfact>
</mgrwt>
</event>
<event>
 5    0  0.1467858E+000  0.2969699E+03  0.7546771E-02  0.1086765E+00
         21   -1    0    0  504  501  0.00000000000E+00  0.00000000000E+00  0.37057153906E+03  0.37057153906E+03  0.00000000000E+00 0. -1.
         21   -1    0    0  501  502 -0.00000000000E+00 -0.00000000000E+00 -0.41758319303E+03  0.41758319303E+03  0.00000000000E+00 0. -1.
         25    1    1    2    0    0  0.17945390929E+03  0.20090398908E+03 -0.29322701749E+03  0.41734063087E+03  0.12500000000E+03 0.  0.
         21    1    1    2  503  502 -0.66276829461E+02 -0.11598554141E+03  0.14290136574E+03  0.19561713696E+03  0.00000000000E+00 0. -1.
         21    1    1    2  504  503 -0.11317707983E+03 -0.84918447666E+02  0.10331399777E+03  0.17519696427E+03  0.00000000000E+00 0. -1.
<mgrwt>
<rscale>  4 0.29696989E+03</rscale>
<asrwt>0</asrwt>
<pdfrwt beam="1">  1       21 0.57011006E-01 0.29696989E+03</pdfrwt>
<pdfrwt beam="2">  1       21 0.64243568E-01 0.29696989E+03</pdfrwt>
<totfact> 0.60593387E+03</totfact>
</mgrwt>
</event>
<event>
 5    0  0.1467858E+000  0.2801279E+03  0.7546771E-02  0.1095619E+00
         21   -1    0    0  504  501  0.00000000000E+00  0.00000000000E+00  0.21465346590E+04  0.21465346590E+04  0.00000000000E+00 0. -1.
         21   -1    0    0  501  502 -0.00000000000E+00 -0.00000000000E+00 -0.69562076841E+02  0.69562076841E+02  0.00000000000E+00 0. -1.
         25    1    1    2    0    0 -0.22941184085E+03 -0.10107838122E+03  0.26310777389E+03  0.38431410663E+03  0.12500000000E+03 0.  0.
         21    1    1    2  503  502  0.16015164126E+03  0.47896207401E+02  0.11084426299E+04  0.11209762079E+04  0.00000000000E+00 0. -1.
         21    1    1    2  504  503  0.69260199584E+02  0.53182173820E+02  0.70542217836E+03  0.71080642131E+03  0.00000000000E+00 0. -1.
<mgrwt>
<rscale>  4 0.28012788E+03</rscale>
<asrwt>0</asrwt>
<pdfrwt beam="1">  1       21 0.33023605E+00 0.28012788E+03</pdfrwt>
<pdfrwt beam="2">  1       21 0.10701860E-01 0.28012788E+03</pdfrwt>
<totfact> 0.14880788E+03</totfact>
</mgrwt>
</event>
<event>
 5    0  0.1467858E+000  0.3091835E+03  0.7546771E-02  0.1080738E+00
         21   -1    0    0  504  501  0.00000000000E+00  0.00000000000E+00  0.16609675092E+03  0.16609675092E+03  0.00000000000E+00 0.  1.
         21   -1    0    0  501  502 -0.00000000000E+00 -0.00000000000E+00 -0.64994365916E+03  0.64994365916E+03  0.00000000000E+00 0.  1.
         25    1    1    2    0    0  0.11022392019E+03  0.26042291255E+03 -0.40904494614E+03  0.51274962109E+03  0.12500000000E+03 0.  0.
         21    1    1    2  503  502 -0.35333147526E+02 -0.14101393776E+03 -0.72201952086E+02  0.16231599995E+03  0.00000000000E+00 0.  1.
         21    1    1    2  504  503 -0.74890772663E+02 -0.11940897480E+03 -0.26000100134E+01  0.14097478904E+03  0.00000000000E+00 0.  1.
<mgrwt>
<rscale>  4 0.30918345E+03</rscale>
<asrwt>0</asrwt>
<pdfrwt beam="1">  1       21 0.25553346E-01 0.30918345E+03</pdfrwt>
<pdfrwt beam="2">  1       21 0.99991333E-01 0.30918345E+03</pdfrwt>
<totfact> 0.11180194E+04</totfact>
</mgrwt>
</event>
