<event>
 5    0  0.1911311E+001  0.2874039E+03  0.7546771E-02  0.1091712E+00
         21   -1    0    0  504  501  0.00000000000E+00  0.00000000000E+00  0.20522651709E+03  0.20522651709E+03  0.00000000000E+00 0. -1.
         21   -1    0    0  503  502 -0.00000000000E+00 -0.00000000000E+00 -0.58335485648E+03  0.58335485648E+03  0.00000000000E+00 0. -1.
         25    1    1    2    0    0  0.22931636325E+03 -0.60443011143E+02 -0.11565521502E+03  0.29195972464E+03  0.12500000000E+03 0.  0.
         21    1    1    2  503  501 -0.26925567053E+03  0.36247249328E+02 -0.32178135466E+03  0.42113622428E+03  0.00000000000E+00 0. -1.
         21    1    1    2  504  502  0.39939307282E+02  0.24195761815E+02  0.59308230279E+02  0.75485424651E+02  0.00000000000E+00 0. -1.
<mgrwt>
<rscale>  4 0.28740389E+03</rscale>
<asrwt>0</asrwt>
<pdfrwt beam="1">  1       21 0.31573310E-01 0.28740389E+03</pdfrwt>
<pdfrwt beam="2">  1       21 0.89746901E-01 0.28740389E+03</pdfrwt>
<totfact> 0.96436552E+03</totfact>
</mgrwt>
</event>
<event>
 5    0  0.1911311E+001  0.2131239E+03  0.7546771E-02  0.1139116E+00
         21   -1    0    0  502  501  0.00000000000E+00  0.00000000000E+00  0.12841183620E+03  0.12841183620E+03  0.00000000000E+00 0.  1.
         21   -1    0    0  504  502 -0.00000000000E+00 -0.00000000000E+00 -0.64884158423E+03  0.64884158423E+03  0.00000000000E+00 0.  1.
         25    1    1    2    0    0 -0.19097783849E+03  0.65981759197E+02 -0.26222860312E+03  0.35385727015E+03  0.12500000000E+03 0.  0.
         21    1    1    2  503  501  0.14541749547E+03 -0.78087557075E+02 -0.42556288385E+01  0.16511215866E+03  0.00000000000E+00 0.  1.
         21    1    1    2  504  503  0.45560343018E+02  0.12105797877E+02 -0.25394551607E+03  0.25828399163E+03  0.00000000000E+00 0.  1.
<mgrwt>
<rscale>  4 0.21312388E+03</rscale>
<asrwt>0</asrwt>
<pdfrwt beam="1">  1       21 0.19755667E-01 0.21312388E+03</pdfrwt>
<pdfrwt beam="2">  1       21 0.99821782E-01 0.21312388E+03</pdfrwt>
<totfact> 0.19228804E+04</totfact>
</mgrwt>
</event>
<event>
 5    0  0.1911311E+001  0.2160619E+03  0.7546771E-02  0.1136854E+00
         21   -1    0    0  504  501  0.00000000000E+00  0.00000000000E+00  0.13812960296E+04  0.13812960296E+04  0.00000000000E+00 0.  1.
         21   -1    0    0  503  502 -0.00000000000E+00 -0.00000000000E+00 -0.11446683396E+03  0.11446683396E+03  0.00000000000E+00 0.  1.
         25    1    1    2    0    0 -0.30210552050E+03 -0.14522551545E+02  0.44356293862E+03  0.55122747622E+03  0.12500000000E+03 0.  0.
         21    1    1    2  503  501  0.14530381798E+03 -0.22116212735E+01  0.47473990675E+02  0.15287861387E+03  0.00000000000E+00 0.  1.
         21    1    1    2  504  502  0.15680170253E+03  0.16734172819E+02  0.77579226638E+03  0.79165677350E+03  0.00000000000E+00 0.  1.
<mgrwt>
<rscale>  4 0.21606194E+03</rscale>
<asrwt>0</asrwt>
<pdfrwt beam="1">  1       21 0.21250707E+00 0.21606194E+03</pdfrwt>
<pdfrwt beam="2">  1       21 0.17610283E-01 0.21606194E+03</pdfrwt>
<totfact> 0.31987298E+03</totfact>
</mgrwt>
</event>
<event>
 5    0  0.1911311E+001  0.2411771E+03  0.7546771E-02  0.1119011E+00
         21   -1    0    0  504  501  0.00000000000E+00  0.00000000000E+00  0.25977864774E+03  0.25977864774E+03  0.00000000000E+00 0. -1.
         21   -1    0    0  503  502 -0.00000000000E+00 -0.00000000000E+00 -0.44372826862E+03  0.44372826862E+03  0.00000000000E+00 0. -1.
         25    1    1    2    0    0  0.10437671756E+02  0.22789505282E+03  0.13717668697E+03  0.29408764602E+03  0.12500000000E+03 0.  0.
         21    1    1    2  503  501 -0.11062643738E+02 -0.68153647758E+02 -0.19192484596E+03  0.20396678231E+03  0.00000000000E+00 0. -1.
         21    1    1    2  504  502  0.62497198206E+00 -0.15974140506E+03 -0.12920146190E+03  0.20545248803E+03  0.00000000000E+00 0. -1.
<mgrwt>
<rscale>  4 0.24117705E+03</rscale>
<asrwt>0</asrwt>
<pdfrwt beam="1">  1       21 0.39965946E-01 0.24117705E+03</pdfrwt>
<pdfrwt beam="2">  1       21 0.68265888E-01 0.24117705E+03</pdfrwt>
<totfact> 0.11463661E+04</totfact>
</mgrwt>
</event>
<event>
 5    0  0.1911311E+001  0.2865586E+03  0.7546771E-02  0.1092160E+00
         21   -1    0    0  502  501  0.00000000000E+00  0.00000000000E+00  0.24151830095E+03  0.24151830095E+03  0.00000000000E+00 0.  1.
         21   -1    0    0  504  502 -0.00000000000E+00 -0.00000000000E+00 -0.42041567000E+03  0.42041567000E+03  0.00000000000E+00 0.  1.
         25    1    1    2    0    0  0.25036424382E+03 -0.19403645836E+02 -0.16165632202E+03  0.32375379921E+03  0.12500000000E+03 0.  0.
         21    1    1    2  503  501  0.16416093643E+02  0.19989055443E+02  0.55866108071E+02  0.61563564703E+02  0.00000000000E+00 0.  1.
         21    1    1    2  504  503 -0.26678033746E+03 -0.58540960704E+00 -0.73107155099E+02  0.27661660703E+03  0.00000000000E+00 0.  1.
<mgrwt>
<rscale>  4 0.28655857E+03</rscale>
<asrwt>0</asrwt>
<pdfrwt beam="1">  1       21 0.37156662E-01 0.28655857E+03</pdfrwt>
<pdfrwt beam="2">  1       21 0.64679333E-01 0.28655857E+03</pdfrwt>
<totfact> 0.14629632E+04</totfact>
</mgrwt>
</event>
<event>
 5    0  0.1911311E+001  0.3182665E+03  0.7546771E-02  0.1076450E+00
         21   -1    0    0  503  501  0.00000000000E+00  0.00000000000E+00  0.12700316542E+04  0.12700316542E+04  0.00000000000E+00 0. -1.
         21   -1    0    0  504  502 -0.00000000000E+00 -0.00000000000E+00 -0.14619792349E+03  0.14619792349E+03  0.00000000000E+00 0. -1.
         25    1    1    2    0    0  0.20082710441E+03 -0.49556020394E+02  0.23307306489E+03  0.33576089498E+03  0.12500000000E+03 0.  0.
         21    1    1    2  503  502  0.11477617454E+03 -0.11756482608E+03  0.57785597044E+02  0.17416725812E+03  0.00000000000E+00 0. -1.
         21    1    1    2  504  501 -0.31560327895E+03  0.16712084648E+03  0.83297506877E+03  0.90630142458E+03  0.00000000000E+00 0. -1.
<mgrwt>
<rscale>  4 0.31826654E+03</rscale>
<asrwt>0</asrwt>
<pdfrwt beam="1">  1       21 0.19538948E+00 0.31826654E+03</pdfrwt>
<pdfrwt beam="2">  1       21 0.22491989E-01 0.31826654E+03</pdfrwt>
<totfact> 0.24134634E+03</totfact>
</mgrwt>
</event>
