<LesHouchesEvents version="3.0">
  <!--
  <scalesfunctionalform>
    muR  H_T/2 := sum_i mT(i)/2, i=final state
    muF1 H_T/2 := sum_i mT(i)/2, i=final state
    muF2 H_T/2 := sum_i mT(i)/2, i=final state
    QES  H_T/2 := sum_i mT(i)/2, i=final state
  </scalesfunctionalform>
HERWIG6   
  -->
  <header>
      329
  </header>
  <init>
   2212   2212 0.65000000D+04 0.65000000D+04 -1 -1   244800   244800 -4   1
 0.30294651D-03 0.13590625D-04 0.17652913D-05     66
  </init>
  <event>
  5     66 0.17652913E-05 0.13355433E+03 0.75467711E-02 0.92140277E-01
       -2 -1    0    0    0  501 0.00000000E+00 0.00000000E+00 0.53602836E+03 0.53602846E+03 0.32000000E+00 0.0000E+00 0.9000E+01
        2 -1    0    0  502    0 -.00000000E+00 -.00000000E+00 -.14497310E+04 0.14497310E+04 0.32000000E+00 0.0000E+00 0.9000E+01
       25  1    1    2    0    0 0.46957836E+03 -.32008955E+03 -.61938590E+02 0.58516882E+03 0.12500000E+03 0.0000E+00 0.9000E+01
        1  1    1    2  502    0 -.10855043E+03 -.77768253E+02 -.85295510E+03 0.86334443E+03 0.32000000E+00 0.0000E+00 0.9000E+01
       -1  1    1    2    0  501 -.36102793E+03 0.39785780E+03 0.11910646E+01 0.53724623E+03 0.32000000E+00 0.0000E+00 0.9000E+01
#aMCatNLO 1  0  0  4  2 0.29638739D+01 0.00000000D+00  -5  6  0 0.00000000D+00 0.00000000D+00 0.00000000D+00 0.00000000D+00 0.00000000D+00
  <mgrwgt>
 0.1770462749D-02    9    2    0
 0.881531085872260D+03 0.000000000000000D+00 0.000000000000000D+00 0.881531085872260D+03
 0.881531085872260D+03 -.000000000000000D+00 -.000000000000000D+00 -.881531085872260D+03
 0.626975303353139D+03 0.469547730080539D+03 -.320024982614952D+03 0.233627846570723D+03
 0.530445667964827D+03 -.108569446953597D+03 -.777781160799042D+02 -.513357425688869D+03
 0.605641200426555D+03 -.360978283126942D+03 0.397803098694856D+03 0.279729579118146D+03
 0.000000000000000D+00 0.000000000000000D+00 -.000000000000000D+00 0.000000000000000D+00
 0.881531085872260D+03 0.000000000000000D+00 0.000000000000000D+00 0.881531085872260D+03
 0.881531085872260D+03 -.000000000000000D+00 -.000000000000000D+00 -.881531085872260D+03
 0.626969511307063D+03 0.469545029981966D+03 -.320026916939811D+03 0.233615079483007D+03
 0.178422333710344D+03 -.346727693865711D+02 -.239508917499882D+02 -.173374401265271D+03
 0.605635831687109D+03 -.360980891349686D+03 0.397801230188963D+03 0.279717246454111D+03
 0.352034495040005D+03 -.738913692457088D+02 -.538234214991637D+02 -.339957924671846D+03
0.424187766746D-05 0.000000000000D+00 0.000000000000D+00 0.796080694210D-06 0.000000000000D+00  6 -2 2 25 1 -1 21 0 0.82465912D-01 0.22303555D+00 0.39221825D+06 0.39221825D+06 0.39221825D+06 0.10760432D+01  1  2  2  3  6  4        1 0.955504406644D-05 0.100000000000D+01
0.667157226769D-06 0.000000000000D+00 -.162899271551D-07 0.796080694210D-06 0.000000000000D+00  6 -2 2 25 1 -1 21 2 0.82465912D-01 0.22303555D+00 0.39221825D+06 0.39221825D+06 0.39221825D+06 0.10760432D+01  1  2  3  3  6  4        1 0.174005187760D-05 0.100000000000D+01
-.294463415720D-05 0.000000000000D+00 0.000000000000D+00 0.796080694210D-06 0.000000000000D+00  6 -2 2 25 1 -1 21 2 0.82465912D-01 0.22303555D+00 0.39221825D+06 0.39221825D+06 0.39221825D+06 0.10760432D+01  1  2 15  3  6  4        1 -.768007298504D-05 0.100000000000D+01
0.611543085684D-09 0.000000000000D+00 0.000000000000D+00 0.796080694210D-06 0.000000000000D+00  6 -2 2 25 1 -1 21 2 0.82465912D-01 0.22303555D+00 0.39221936D+06 0.39221936D+06 0.39221936D+06 0.10760432D+01  1  2 12  3  6  4        1 0.159500088131D-08 0.100000000000D+01
0.430352970233D-04 0.000000000000D+00 0.000000000000D+00 0.796080694210D-06 0.000000000000D+00  6 -2 2 25 1 -1 21 2 0.82465912D-01 0.22303555D+00 0.39221936D+06 0.39221936D+06 0.39221936D+06 0.10760432D+01  1  2 12  3  6  4        1 0.112242846475D-03 0.100000000000D+01
-.435512236340D-02 0.000000000000D+00 0.000000000000D+00 0.796080694210D-06 0.000000000000D+00  6 -2 2 25 1 -1 21 2 0.82465912D-01 0.22303555D+00 0.39221825D+06 0.39221825D+06 0.39221825D+06 0.10760432D+01  1  2  4  3  6  4        1 -.113588499705D-01 0.100000000000D+01
-.290732936940D-02 0.000000000000D+00 0.000000000000D+00 0.796080694210D-06 0.000000000000D+00  6 -2 2 25 1 -1 21 2 0.82465912D-01 0.22303555D+00 0.39221825D+06 0.39221825D+06 0.39221825D+06 0.10760432D+01  1  2  5  3  6  4        1 -.758277618087D-02 0.100000000000D+01
0.522372035218D-02 0.000000000000D+00 -.000000000000D+00 0.796080694210D-06 0.000000000000D+00  6 -2 2 25 1 -1 21 2 0.82465912D-01 0.22303555D+00 0.39221825D+06 0.39221825D+06 0.39221825D+06 0.10760432D+01  1  2  6  3  6  4        1 0.136242913097D-01 0.100000000000D+01
0.267312739745D-02 0.000000000000D+00 0.000000000000D+00 0.796080694210D-06 0.977704095609D-07  6 -2 2 25 1 -1 21 2 0.82465912D-01 0.22303555D+00 0.39221936D+06 0.39221936D+06 0.39221936D+06 0.10760432D+01  1  2 11  3  6  4        1 0.697193812599D-02 0.100000000000D+01
  </mgrwgt>
  </event>
  <event>
  5     66 0.17652913E-05 0.11850334E+03 0.75467711E-02 0.85524373E-01
       -2 -1    0    0    0  501 0.00000000E+00 0.00000000E+00 0.87038699E+03 0.87038705E+03 0.32000000E+00 0.0000E+00 0.9000E+01
        2 -1    0    0  502    0 0.00000000E+00 0.00000000E+00 -.29289088E+04 0.29289088E+04 0.32000000E+00 0.0000E+00 0.9000E+01
       25  1    1    2    0    0 -.44396781E+03 -.10131007E+04 -.13463583E+04 0.17469363E+04 0.12500000E+03 0.0000E+00 0.9000E+01
        1  1    1    2  502    0 0.27610048E+01 0.11846176E+03 -.10056156E+04 0.10125728E+04 0.32000000E+00 0.0000E+00 0.9000E+01
       -1  1    1    2    0  501 0.44120680E+03 0.89463897E+03 0.29345215E+03 0.10397868E+04 0.32000000E+00 0.0000E+00 0.9000E+01
#aMCatNLO 1  0  0  2  1 0.24974262D+03 0.00000000D+00  -5  6  0 0.00000000D+00 0.00000000D+00 0.00000000D+00 0.00000000D+00 0.00000000D+00
  <mgrwgt>
 0.9288744389D-04    7    2    0
 0.159664782500223D+04 0.000000000000000D+00 0.000000000000000D+00 0.159664782500223D+04
 0.159664782500223D+04 0.000000000000000D+00 0.000000000000000D+00 -.159664782500223D+04
 0.121050764264378D+04 -.443961703609941D+03 -.101309603302783D+04 -.475645021512920D+03
 0.556529990624064D+03 0.276185050058615D+01 0.118471151827778D+03 -.543767035439289D+03
 0.142625801673662D+04 0.441199853109355D+03 0.894624881200056D+03 0.101941205695221D+04
 0.000000000000000D+00 -.000000000000000D+00 0.000000000000000D+00 -.000000000000000D+00
 0.168156647678469D+04 0.000000000000000D+00 0.000000000000000D+00 0.168156647678469D+04
 0.179632897741509D+04 0.000000000000000D+00 0.000000000000000D+00 -.179632897741509D+04
 0.128488046173388D+04 -.424454136310764D+03 -.110855459974876D+04 -.475645021512920D+03
 0.549194838093003D+03 0.114057970966000D+02 0.761727585830935D+02 -.543767035439289D+03
 0.136897145079147D+04 0.463051414739703D+03 0.787696184153599D+03 0.101941205695221D+04
 0.274848703581411D+03 -.500030755255384D+02 0.244685657012068D+03 -.114762500630400D+03
0.306059356590D-03 0.000000000000D+00 0.000000000000D+00 0.906015670212D-06 0.000000000000D+00  6 -2 2 25 1 -1 21 0 0.13390570D+00 0.45060136D+00 0.12422776D+07 0.12422776D+07 0.12422776D+07 0.10416491D+01  1  2  2  2  6  2        2 0.270334606367D-04 0.100000000000D+01
0.754394903754D-04 0.000000000000D+00 -.117534851658D-05 0.906015670212D-06 0.000000000000D+00  6 -2 2 25 1 -1 21 2 0.13390570D+00 0.45060136D+00 0.12422776D+07 0.12422776D+07 0.12422776D+07 0.10416491D+01  1  2  3  2  6  2        2 0.722998909543D-05 0.100000000000D+01
-.163888622976D-03 0.000000000000D+00 0.000000000000D+00 0.906015670212D-06 0.000000000000D+00  6 -2 2 25 1 -1 21 2 0.13390570D+00 0.45060136D+00 0.12422776D+07 0.12422776D+07 0.12422776D+07 0.10416491D+01  1  2 15  2  6  2        2 -.157067995964D-04 0.100000000000D+01
-.126681714834D-04 0.000000000000D+00 0.000000000000D+00 0.906015670212D-06 0.000000000000D+00  6 -2 2 25 1 -1 21 2 0.13390570D+00 0.45060136D+00 0.12422776D+07 0.12422776D+07 0.12422776D+07 0.10416491D+01  1  2  4  2  6  2        2 -.121409544561D-05 0.100000000000D+01
-.159827545605D-02 0.000000000000D+00 -.375051169897D-03 0.906015670212D-06 0.000000000000D+00  6 -2 2 25 1 -1 21 2 0.13390570D+00 0.51436809D+00 0.12422776D+07 0.12422776D+07 0.12422776D+07 0.10416491D+01  1  2  5  2  6  2        2 -.812610483409D-04 0.100000000000D+01
0.163681910190D-02 0.000000000000D+00 0.371789880336D-03 0.906015670212D-06 0.000000000000D+00  6 -2 2 25 1 -1 21 2 0.13390570D+00 0.45060136D+00 0.12422776D+07 0.12422776D+07 0.12422776D+07 0.10416491D+01  1  2  6  2  6  2        2 0.156869886037D-03 0.100000000000D+01
-.308330553087D-04 0.000000000000D+00 -.772233915325D-05 0.906015670212D-06 0.000000000000D+00  6 -2 21 25 1 -1 -2 2 0.13390570D+00 0.51436809D+00 0.12422776D+07 0.12422776D+07 0.12422776D+07 0.10416491D+01  1  2  5  6  6  2        2 -.639485001390D-07 0.100000000000D+01
  </mgrwgt>
  </event>
  <event>
  6     66 0.17652913E-05 0.14572836E+03 0.75467711E-02 0.93333287E-01
       -2 -1    0    0    0  503 0.00000000E+00 0.00000000E+00 0.55397524E+03 0.55397534E+03 0.32000000E+00 0.0000E+00 0.9000E+01
        2 -1    0    0  502    0 0.00000000E+00 0.00000000E+00 -.19639329E+04 0.19639329E+04 0.32000000E+00 0.0000E+00 0.9000E+01
       25  1    1    2    0    0 -.99794820E+02 -.45870393E+03 -.92599570E+03 0.10456870E+04 0.12500000E+03 0.0000E+00 0.9000E+01
        1  1    1    2  502    0 -.15505822E+01 0.85037516E+02 -.49985555E+03 0.50703990E+03 0.32000000E+00 0.0000E+00 0.9000E+01
       -1  1    1    2    0  501 0.25247644E+03 0.26140414E+03 -.38061024E+03 0.52625159E+03 0.32000000E+00 0.0000E+00 0.9000E+01
       21  1    1    2  501  503 -.15113103E+03 0.11226227E+03 0.39650388E+03 0.43892972E+03 0.75000000E+00 0.0000E+00 0.9000E+01
#aMCatNLO 2  0  0  1  2 0.27229407D+03 0.00000000D+00  -5  6  0 0.00000000D+00 0.00000000D+00 0.00000000D+00 0.00000000D+00 0.00000000D+00
  <mgrwgt>
 0.9740135857D-03    1    2    0
 0.505817428729784D+03 0.000000000000000D+00 0.000000000000000D+00 0.505817428729784D+03
 0.505817428729784D+03 0.000000000000000D+00 0.000000000000000D+00 -.505817428729784D+03
 0.459413443978778D+03 -.169874107165084D+03 -.406632118461087D+03 -.350545355004947D+02
 0.159134806176543D+03 -.242118807718084D+02 0.101895983320035D+03 -.119811852291753D+03
 0.393086607304248D+03 0.194085987936892D+03 0.304736135141052D+03 0.154866387792248D+03
 0.000000000000000D+00 -.000000000000000D+00 0.000000000000000D+00 0.000000000000000D+00
 0.209176853974873D+04 0.000000000000000D+00 0.000000000000000D+00 0.209176853974873D+04
 0.520119672275924D+03 0.000000000000000D+00 0.000000000000000D+00 -.520119672275924D+03
 0.487047570945535D+03 -.997785796201190D+02 -.458700066441876D+03 -.350545355004947D+02
 0.146942400244537D+03 -.154360081598764D+01 0.850576647725859D+02 -.119811852291753D+03
 0.395013668698728D+03 0.252453214619946D+03 0.261380134706264D+03 0.154866387792248D+03
 0.158288457213585D+04 -.151131034183839D+03 0.112262266963026D+03 0.157164886747280D+04
0.751078073742D-03 0.000000000000D+00 0.000000000000D+00 0.144976891730D-06 0.870183163094D-10  6 -2 2 25 1 -1 21 2 0.85226955D-01 0.30214347D+00 0.31500727D+06 0.31500727D+06 0.31500727D+06 0.10829869D+01  1  2  1  1  6  1       -2 0.974013585726D-03 0.100000000000D+01
  </mgrwgt>
  </event>
  <event>
  5     66 0.17652913E-05 0.13363637E+03 0.75467711E-02 0.95022645E-01
       -2 -1    0    0    0  501 0.00000000E+00 0.00000000E+00 0.11162614E+04 0.11162614E+04 0.32000000E+00 0.0000E+00 0.9000E+01
        2 -1    0    0  502    0 0.00000000E+00 0.00000000E+00 -.45759337E+03 0.45759349E+03 0.32000000E+00 0.0000E+00 0.9000E+01
       25  1    1    2    0    0 -.39214015E+03 0.24904325E+03 0.22076903E+03 0.52930181E+03 0.12500000E+03 0.0000E+00 0.9000E+01
        1  1    1    2  502    0 0.31199976E+03 -.14205841E+03 -.19723327E+03 0.39550664E+03 0.32000000E+00 0.0000E+00 0.9000E+01
       -1  1    1    2    0  501 0.80140398E+02 -.10698484E+03 0.63513221E+03 0.64904643E+03 0.32000000E+00 0.0000E+00 0.9000E+01
#aMCatNLO 1  0  0  1  5 0.62966248D+01 0.00000000D+00  -5  6  0 0.00000000D+00 0.00000000D+00 0.00000000D+00 0.00000000D+00 0.00000000D+00
  <mgrwgt>
 0.6364227392D-02   13    4    0
 0.714698483049641D+03 0.000000000000000D+00 0.000000000000000D+00 0.714698483049641D+03
 0.714698483049641D+03 0.000000000000000D+00 0.000000000000000D+00 -.714698483049641D+03
 0.481108382431161D+03 -.392188973571688D+03 0.249053413475218D+03 -.694183445701213D+00
 0.526430897039599D+03 0.312070016940044D+03 -.142097196260330D+03 -.399437330128157D+03
 0.421857686628522D+03 0.801189566316437D+02 -.106956217214888D+03 0.400131513573859D+03
 0.000000000000000D+00 -.000000000000000D+00 0.000000000000000D+00 0.000000000000000D+00
 0.744085883720818D+03 0.000000000000000D+00 0.000000000000000D+00 0.744085883720818D+03
 0.715042779931824D+03 0.000000000000000D+00 0.000000000000000D+00 -.715042779931824D+03
 0.479164102156793D+03 -.390142714286545D+03 0.248518444776635D+03 -.694183445701213D+00
 0.527924326367146D+03 0.314316758568449D+03 -.142684578540633D+03 -.399437330128157D+03
 0.422322406113023D+03 0.819178328681597D+02 -.107426510733479D+03 0.400131513573859D+03
 0.297178290156783D+02 -.609187715006401D+01 0.159264449747749D+01 0.290431037889940D+02
 0.714698483049641D+03 0.000000000000000D+00 0.000000000000000D+00 0.714698483049641D+03
 0.714698483049641D+03 0.000000000000000D+00 0.000000000000000D+00 -.714698483049641D+03
 0.481108382431161D+03 -.392188973571688D+03 0.249053413475218D+03 -.694183445701213D+00
 0.526430897039599D+03 0.312070016940044D+03 -.142097196260330D+03 -.399437330128157D+03
 0.000000000000000D+00 -.000000000000000D+00 0.000000000000000D+00 0.000000000000000D+00
 0.421857686628522D+03 0.801189566316437D+02 -.106956217214888D+03 0.400131513573859D+03
 0.744085883720818D+03 0.000000000000000D+00 0.000000000000000D+00 0.744085883720818D+03
 0.715042779931824D+03 0.000000000000000D+00 0.000000000000000D+00 -.715042779931824D+03
 0.479164102156793D+03 -.390142714286545D+03 0.248518444776635D+03 -.694183445701213D+00
 0.527924326367146D+03 0.314316758568449D+03 -.142684578540633D+03 -.399437330128157D+03
 0.297178290156783D+02 -.609187715006401D+01 0.159264449747749D+01 0.290431037889940D+02
 0.422322406113023D+03 0.819178328681597D+02 -.107426510733479D+03 0.400131513573859D+03
0.106632647320D-03 0.000000000000D+00 0.000000000000D+00 0.391907052130D-05 0.000000000000D+00  6 -2 2 25 1 -1 21 0 0.17173253D+00 0.70398993D-01 0.22926986D+06 0.22926986D+06 0.22926986D+06 0.10932985D+01  1  2  2  1  6  1       -2 0.179513667412D-03 0.100000000000D+01
0.129505396138D-04 0.000000000000D+00 -.409497442728D-06 0.391907052130D-05 0.000000000000D+00  6 -2 2 25 1 -1 21 2 0.17173253D+00 0.70398993D-01 0.22926986D+06 0.22926986D+06 0.22926986D+06 0.10932985D+01  1  2  3  1  6  1       -2 0.260598989772D-04 0.100000000000D+01
-.747085773691D-04 0.000000000000D+00 0.000000000000D+00 0.391907052130D-05 0.000000000000D+00  6 -2 2 25 1 -1 21 2 0.17173253D+00 0.70398993D-01 0.22926986D+06 0.22926986D+06 0.22926986D+06 0.10932985D+01  1  2 15  1  6  1       -2 -.150333348032D-03 0.100000000000D+01
0.462027869404D-07 0.000000000000D+00 0.000000000000D+00 0.391907052130D-05 0.000000000000D+00  6 -2 2 25 1 -1 21 2 0.17883438D+00 0.70398993D-01 0.23316499D+06 0.23316499D+06 0.23316499D+06 0.10927441D+01  1  2 12  1  6  1       -2 0.824246993457D-07 0.100000000000D+01
0.507285121706D-02 0.000000000000D+00 0.000000000000D+00 0.391907052130D-05 0.000000000000D+00  6 -2 2 25 1 -1 21 2 0.18152667D+00 0.70398993D-01 0.23316499D+06 0.23316499D+06 0.23316499D+06 0.10927441D+01  1  2 12  1  6  1       -2 0.865762257789D-02 0.100000000000D+01
-.373931216577D-02 0.000000000000D+00 0.000000000000D+00 0.391907052130D-05 0.000000000000D+00  6 -2 2 25 1 -1 21 2 0.17173253D+00 0.70398993D-01 0.22926986D+06 0.22926986D+06 0.22926986D+06 0.10932985D+01  1  2  4  1  6  1       -2 -.752448161931D-02 0.100000000000D+01
-.153875301664D-01 0.000000000000D+00 -.633203929508D-03 0.391907052130D-05 0.000000000000D+00  6 -2 2 25 1 -1 21 2 0.17882919D+00 0.70398993D-01 0.22926986D+06 0.22926986D+06 0.22926986D+06 0.10932985D+01  1  2  5  1  6  1       -2 -.275013030122D-01 0.100000000000D+01
0.154010611068D-01 0.000000000000D+00 0.632685159946D-03 0.391907052130D-05 0.000000000000D+00  6 -2 2 25 1 -1 21 2 0.17173253D+00 0.70398993D-01 0.22926986D+06 0.22926986D+06 0.22926986D+06 0.10932985D+01  1  2  6  1  6  1       -2 0.309909940862D-01 0.100000000000D+01
0.125165600807D-02 0.000000000000D+00 0.000000000000D+00 0.391907052130D-05 0.240009591876D-06  6 -2 2 25 1 -1 21 2 0.17879393D+00 0.70432907D-01 0.23316499D+06 0.23316499D+06 0.23316499D+06 0.10927441D+01  1  2 11  1  6  1       -2 0.223321531791D-02 0.100000000000D+01
0.107729787497D-08 0.000000000000D+00 0.000000000000D+00 0.391907052130D-05 0.000000000000D+00  6 21 2 25 1 2 -1 2 0.17883438D+00 0.70398993D-01 0.23316499D+06 0.23316499D+06 0.23316499D+06 0.10927441D+01  3  4 12  5  5  1       -2 0.158117769790D-07 0.100000000000D+01
0.158450148169D-03 0.000000000000D+00 0.000000000000D+00 0.391907052130D-05 0.000000000000D+00  6 21 2 25 1 2 -1 2 0.18152667D+00 0.70398993D-01 0.23316499D+06 0.23316499D+06 0.23316499D+06 0.10927441D+01  3  4 12  5  5  1       -2 0.221584072130D-02 0.100000000000D+01
-.213662279871D-03 0.000000000000D+00 -.452855428075D-05 0.391907052130D-05 0.000000000000D+00  6 21 2 25 1 2 -1 2 0.17882919D+00 0.70398993D-01 0.22926986D+06 0.22926986D+06 0.22926986D+06 0.10932985D+01  3  4  5  5  5  1       -2 -.314364044392D-02 0.100000000000D+01
0.259291446477D-04 0.000000000000D+00 0.000000000000D+00 0.391907052130D-05 0.423823263045D-08  6 21 2 25 1 2 -1 2 0.17879393D+00 0.70432907D-01 0.23316499D+06 0.23316499D+06 0.23316499D+06 0.10927441D+01  3  4 11  5  5  1       -2 0.380641309586D-03 0.100000000000D+01
  </mgrwgt>
  </event>
  <event>
  5     66 0.17652913E-05 0.49160195E+02 0.75467711E-02 0.90584246E-01
       -2 -1    0    0    0  501 0.00000000E+00 0.00000000E+00 0.15276263E+04 0.15276263E+04 0.32000000E+00 0.0000E+00 0.9000E+01
        2 -1    0    0  502    0 0.00000000E+00 0.00000000E+00 -.38098077E+04 0.38098077E+04 0.32000000E+00 0.0000E+00 0.9000E+01
       25  1    1    2    0    0 0.57503988E+03 0.14815848E+03 0.22146271E+03 0.64598183E+03 0.12500000E+03 0.0000E+00 0.9000E+01
        1  1    1    2  502    0 -.47907911E+02 0.11011609E+02 -.35280722E+04 0.35284146E+04 0.32000000E+00 0.0000E+00 0.9000E+01
       -1  1    1    2    0  501 -.52713197E+03 -.15917009E+03 0.10244281E+04 0.11630375E+04 0.32000000E+00 0.0000E+00 0.9000E+01
#aMCatNLO 1  0  0  1  1 0.13517702D+03 0.00000000D+00  -5  6  0 0.00000000D+00 0.00000000D+00 0.00000000D+00 0.00000000D+00 0.00000000D+00
  <mgrwgt>
 0.2993487352D-02    7    4    0
 0.241245984547176D+04 0.000000000000000D+00 0.000000000000000D+00 0.241245984547176D+04
 0.241245984547176D+04 0.000000000000000D+00 0.000000000000000D+00 -.241245984547176D+04
 0.819403482841652D+03 0.575019414831480D+03 0.148150724601247D+03 0.550636997540137D+03
 0.223446362430279D+04 -.479109015703733D+02 0.110122801633773D+02 -.223392277474595D+04
 0.177105258379909D+04 -.527108513261106D+03 -.159163004764624D+03 0.168328577720582D+04
 0.000000000000000D+00 0.000000000000000D+00 0.000000000000000D+00 0.000000000000000D+00
 0.251795450896574D+04 0.000000000000000D+00 0.000000000000000D+00 0.251795450896574D+04
 0.247141405541635D+04 0.000000000000000D+00 0.000000000000000D+00 -.247141405541635D+04
 0.802605524428128D+03 0.555055401021074D+03 0.131388837348799D+03 0.550636997540137D+03
 0.223657021230764D+04 -.102941287259247D+03 -.351915107744371D+02 -.223392277474595D+04
 0.178823699694830D+04 -.570916966868205D+03 -.195944804609080D+03 0.168328577720582D+04
 0.161955830698020D+03 0.118802853106379D+03 0.997474780347183D+02 0.465404535493925D+02
 0.241245984547176D+04 0.000000000000000D+00 0.000000000000000D+00 0.241245984547176D+04
 0.241245984547176D+04 0.000000000000000D+00 0.000000000000000D+00 -.241245984547176D+04
 0.819403482841652D+03 0.575019414831480D+03 0.148150724601247D+03 0.550636997540137D+03
 0.223446362430279D+04 -.479109015703733D+02 0.110122801633773D+02 -.223392277474595D+04
 0.000000000000000D+00 0.000000000000000D+00 0.000000000000000D+00 0.000000000000000D+00
 0.177105258379909D+04 -.527108513261106D+03 -.159163004764624D+03 0.168328577720582D+04
 0.251795450896574D+04 0.000000000000000D+00 0.000000000000000D+00 0.251795450896574D+04
 0.247141405541635D+04 0.000000000000000D+00 0.000000000000000D+00 -.247141405541635D+04
 0.802605524428128D+03 0.555055401021074D+03 0.131388837348799D+03 0.550636997540137D+03
 0.223657021230764D+04 -.102941287259247D+03 -.351915107744371D+02 -.223392277474595D+04
 0.161955830698020D+03 0.118802853106379D+03 0.997474780347183D+02 0.465404535493925D+02
 0.178823699694830D+04 -.570916966868205D+03 -.195944804609080D+03 0.168328577720582D+04
0.212329104284D+00 0.000000000000D+00 0.000000000000D+00 0.296311557433D-02 0.000000000000D+00  6 -2 2 25 1 -1 21 0 0.23501943D+00 0.58612426D+00 0.36396290D+06 0.36396290D+06 0.36396290D+06 0.10783960D+01  1  2  2  1  6  1       -2 0.949245296556D-03 0.100000000000D+01
0.127174100539D+00 0.000000000000D+00 -.815399667988D-03 0.296311557433D-02 0.000000000000D+00  6 -2 2 25 1 -1 21 2 0.23501943D+00 0.58612426D+00 0.36396290D+06 0.36396290D+06 0.36396290D+06 0.10783960D+01  1  2  3  1  6  1       -2 0.661186759913D-03 0.100000000000D+01
-.125337102116D+00 0.000000000000D+00 0.000000000000D+00 0.296311557433D-02 0.000000000000D+00  6 -2 2 25 1 -1 21 2 0.23501943D+00 0.58612426D+00 0.36396290D+06 0.36396290D+06 0.36396290D+06 0.10783960D+01  1  2 15  1  6  1       -2 -.651636080725D-03 0.100000000000D+01
-.130039070832D-01 0.000000000000D+00 0.000000000000D+00 0.296311557433D-02 0.000000000000D+00  6 -2 2 25 1 -1 21 2 0.23501943D+00 0.58612426D+00 0.36396290D+06 0.36396290D+06 0.36396290D+06 0.10783960D+01  1  2  4  1  6  1       -2 -.676081934459D-04 0.100000000000D+01
-.233243380894D+01 0.000000000000D+00 -.706346086436D+00 0.296311557433D-02 0.000000000000D+00  6 -2 2 25 1 -1 21 2 0.25149785D+00 0.58612426D+00 0.36396290D+06 0.36396290D+06 0.36396290D+06 0.10783960D+01  1  2  5  1  6  1       -2 -.948042005824D-02 0.100000000000D+01
0.237646023316D+01 0.000000000000D+00 0.704727320892D+00 0.296311557433D-02 0.000000000000D+00  6 -2 2 25 1 -1 21 2 0.23501943D+00 0.58612426D+00 0.36396290D+06 0.36396290D+06 0.36396290D+06 0.10783960D+01  1  2  6  1  6  1       -2 0.123553776671D-01 0.100000000000D+01
-.257310370932D-01 0.000000000000D+00 -.813023067359D-02 0.296311557433D-02 0.000000000000D+00  6 21 2 25 1 2 -1 2 0.25149785D+00 0.58612426D+00 0.36396290D+06 0.36396290D+06 0.36396290D+06 0.10783960D+01  3  4  5  5  5  1       -2 -.772658039334D-03 0.100000000000D+01
  </mgrwgt>
  </event>
  <event>
  5     66 -.17652913E-05 0.74518916E+02 0.75467711E-02 0.95349686E-01
       -2 -1    0    0    0  501 0.00000000E+00 0.00000000E+00 0.44834455E+03 0.44834466E+03 0.32000000E+00 0.0000E+00 0.9000E+01
        2 -1    0    0  502    0 -.00000000E+00 -.00000000E+00 -.22288607E+04 0.22288607E+04 0.32000000E+00 0.0000E+00 0.9000E+01
       25  1    1    2    0    0 0.27950151E+03 0.36572346E+03 0.40853092E+02 0.47871569E+03 0.12500000E+03 0.0000E+00 0.9000E+01
        1  1    1    2  502    0 -.24375394E+03 -.30029653E+03 -.19830661E+04 0.20204319E+04 0.32000000E+00 0.0000E+00 0.9000E+01
       -1  1    1    2    0  501 -.35747570E+02 -.65426928E+02 0.16169688E+03 0.17805773E+03 0.32000000E+00 0.0000E+00 0.9000E+01
#aMCatNLO 1  0  0  4  2 0.85077500D+01 0.00000000D+00  -5  6  0 0.00000000D+00 0.00000000D+00 0.00000000D+00 0.00000000D+00 0.00000000D+00
  <mgrwgt>
 -.2073776507D-01    9    2    0
 0.999648795024507D+03 0.000000000000000D+00 0.000000000000000D+00 0.999648795024507D+03
 0.999648795024507D+03 -.000000000000000D+00 -.000000000000000D+00 -.999648795024507D+03
 0.677573774419804D+03 0.279523259219599D+03 0.365740600306834D+03 0.481229446962619D+03
 0.939478483646123D+03 -.243793388285954D+03 -.300346065077939D+03 -.856140669664905D+03
 0.382245331983088D+03 -.357298709336447D+02 -.653945352288955D+02 0.374911222702286D+03
 0.000000000000000D+00 0.000000000000000D+00 0.000000000000000D+00 -.000000000000000D+00
 0.999648795024507D+03 0.000000000000000D+00 0.000000000000000D+00 0.999648795024507D+03
 0.999648795024507D+03 -.000000000000000D+00 -.000000000000000D+00 -.999648795024507D+03
 0.677499371509754D+03 0.279502427545030D+03 0.365714936315166D+03 0.481156291394533D+03
 0.747448479459595D+03 -.202119115671127D+03 -.239065730701554D+03 -.678730188610256D+03
 0.382208430022567D+03 -.357416229575417D+02 -.654090133661368D+02 0.374869952569081D+03
 0.192141309057099D+03 -.416416889163609D+02 -.612401922474754D+02 -.177296055353358D+03
0.871018933829D-04 0.000000000000D+00 0.000000000000D+00 0.510230368802D-04 0.000000000000D+00  6 -2 2 25 1 -1 21 0 0.68976095D-01 0.34290165D+00 0.22012578D+06 0.22012578D+06 0.22012578D+06 0.10946415D+01  1  2  2  3  6  4        1 0.112641101009D-03 0.100000000000D+01
0.143209895882D-04 0.000000000000D+00 -.334494205045D-06 0.510230368802D-04 0.000000000000D+00  6 -2 2 25 1 -1 21 2 0.68976095D-01 0.34290165D+00 0.22012578D+06 0.22012578D+06 0.22012578D+06 0.10946415D+01  1  2  3  3  6  4        1 0.221914735083D-04 0.100000000000D+01
-.509188586402D-04 0.000000000000D+00 0.000000000000D+00 0.510230368802D-04 0.000000000000D+00  6 -2 2 25 1 -1 21 2 0.68976095D-01 0.34290165D+00 0.22012578D+06 0.22012578D+06 0.22012578D+06 0.10946415D+01  1  2 15  3  6  4        1 -.789026830606D-04 0.100000000000D+01
0.709803366859D-08 0.000000000000D+00 0.000000000000D+00 0.510230368802D-04 0.000000000000D+00  6 -2 2 25 1 -1 21 2 0.68976095D-01 0.34290165D+00 0.22024909D+06 0.22024909D+06 0.22024909D+06 0.10946230D+01  1  2 12  3  6  4        1 0.109981760801D-07 0.100000000000D+01
0.570131548051D-01 0.000000000000D+00 0.000000000000D+00 0.510230368802D-04 0.000000000000D+00  6 -2 2 25 1 -1 21 2 0.68976095D-01 0.34290165D+00 0.22024909D+06 0.22024909D+06 0.22024909D+06 0.10946230D+01  1  2 12  3  6  4        1 0.883400593325D-01 0.100000000000D+01
-.834279609424D-01 0.000000000000D+00 0.000000000000D+00 0.510230368802D-04 0.000000000000D+00  6 -2 2 25 1 -1 21 2 0.68976095D-01 0.34290165D+00 0.22012578D+06 0.22012578D+06 0.22012578D+06 0.10946415D+01  1  2  4  3  6  4        1 -.129278034434D+00 0.100000000000D+01
-.574511100761D-01 0.000000000000D+00 0.000000000000D+00 0.510230368802D-04 0.000000000000D+00  6 -2 2 25 1 -1 21 2 0.68976095D-01 0.34290165D+00 0.22012578D+06 0.22012578D+06 0.22012578D+06 0.10946415D+01  1  2  5  3  6  4        1 -.890249084694D-01 0.100000000000D+01
0.703717144555D-01 0.000000000000D+00 -.000000000000D+00 0.510230368802D-04 0.000000000000D+00  6 -2 2 25 1 -1 21 2 0.68976095D-01 0.34290165D+00 0.22012578D+06 0.22012578D+06 0.22012578D+06 0.10946415D+01  1  2  6  3  6  4        1 0.109046377519D+00 0.100000000000D+01
0.792530696916D-04 0.000000000000D+00 0.000000000000D+00 0.510230368802D-04 0.335523820258D-05  6 -2 2 25 1 -1 21 2 0.68976095D-01 0.34290165D+00 0.22024909D+06 0.22024909D+06 0.22024909D+06 0.10946230D+01  1  2 11  3  6  4        1 0.122800095921D-03 0.100000000000D+01
  </mgrwgt>
  </event>
  <event>
  5     66 0.17652913E-05 0.20661464E+03 0.75467711E-02 0.88609373E-01
       -2 -1    0    0    0  501 0.00000000E+00 0.00000000E+00 0.15703076E+04 0.15703076E+04 0.32000000E+00 0.0000E+00 0.9000E+01
        2 -1    0    0  502    0 0.00000000E+00 0.00000000E+00 -.67688763E+03 0.67688770E+03 0.32000000E+00 0.0000E+00 0.9000E+01
       25  1    1    2    0    0 0.81748951E+03 -.24829078E+03 0.45331658E+03 0.97522220E+03 0.12500000E+03 0.0000E+00 0.9000E+01
        1  1    1    2  502    0 -.20632508E+03 0.10254788E+02 -.24705430E+03 0.32204212E+03 0.32000000E+00 0.0000E+00 0.9000E+01
       -1  1    1    2    0  501 -.61116444E+03 0.23803599E+03 0.68715765E+03 0.94993096E+03 0.32000000E+00 0.0000E+00 0.9000E+01
#aMCatNLO 1  0  0  2  4 0.32723037D+02 0.00000000D+00  -5  6  0 0.00000000D+00 0.00000000D+00 0.00000000D+00 0.00000000D+00 0.00000000D+00
  <mgrwgt>
 0.2204700044D-04   11    2    0
 0.103098102416518D+04 0.000000000000000D+00 0.000000000000000D+00 0.103098102416518D+04
 0.103098102416518D+04 0.000000000000000D+00 0.000000000000000D+00 -.103098102416518D+04
 0.866391752258428D+03 0.817461026628927D+03 -.248270324011392D+03 0.716169291403055D+02
 0.458116059369450D+03 -.206359789629947D+03 0.102589481712409D+02 -.408877383892161D+03
 0.737454236702477D+03 -.611101236998980D+03 0.238011375840151D+03 0.337260454751855D+03
 0.000000000000000D+00 0.000000000000000D+00 -.000000000000000D+00 -.000000000000000D+00
 0.103187572286648D+04 0.000000000000000D+00 0.000000000000000D+00 0.103187572286648D+04
 0.138109973055395D+04 0.000000000000000D+00 0.000000000000000D+00 -.138109973055395D+04
 0.853771339140188D+03 0.806564965384693D+03 -.240050977110552D+03 0.716169291403055D+02
 0.460886252012218D+03 -.212181043160196D+03 0.146501590033361D+02 -.408877383892161D+03
 0.747564095751118D+03 -.620507816398419D+03 0.245107145357342D+03 0.337260454751855D+03
 0.350753766516906D+03 0.261238941739216D+02 -.197063272501263D+02 -.349224007687468D+03
0.139071113275D-05 0.000000000000D+00 0.000000000000D+00 0.610795899500D-07 0.000000000000D+00  6 -2 2 25 1 -1 21 0 0.24158579D+00 0.10413657D+00 0.74464558D+06 0.74464558D+06 0.74464558D+06 0.10564957D+01  1  2  2  2  6  2        2 0.465783326897D-06 0.100000000000D+01
0.138477227539D-06 0.000000000000D+00 -.534069693240D-08 0.610795899500D-07 0.000000000000D+00  6 -2 2 25 1 -1 21 2 0.24158579D+00 0.10413657D+00 0.74464558D+06 0.74464558D+06 0.74464558D+06 0.10564957D+01  1  2  3  2  6  2        2 0.517679351601D-07 0.100000000000D+01
-.100025299386D-05 0.000000000000D+00 0.000000000000D+00 0.610795899500D-07 0.000000000000D+00  6 -2 2 25 1 -1 21 2 0.24158579D+00 0.10413657D+00 0.74464558D+06 0.74464558D+06 0.74464558D+06 0.10564957D+01  1  2 15  2  6  2        2 -.373931750729D-06 0.100000000000D+01
0.568317257815D-07 0.000000000000D+00 0.000000000000D+00 0.610795899500D-07 0.000000000000D+00  6 -2 2 25 1 -1 21 2 0.24158579D+00 0.13953526D+00 0.77733785D+06 0.77733785D+06 0.77733785D+06 0.10552243D+01  1  2 12  2  6  2        2 0.144549270367D-07 0.100000000000D+01
0.225173853307D-03 0.000000000000D+00 0.000000000000D+00 0.610795899500D-07 0.000000000000D+00  6 -2 2 25 1 -1 21 2 0.24158579D+00 0.14161790D+00 0.77733785D+06 0.77733785D+06 0.77733785D+06 0.10552243D+01  1  2 12  2  6  2        2 0.561069038444D-04 0.100000000000D+01
-.158233720682D-03 0.000000000000D+00 0.000000000000D+00 0.610795899500D-07 0.000000000000D+00  6 -2 2 25 1 -1 21 2 0.24158579D+00 0.10413657D+00 0.74464558D+06 0.74464558D+06 0.74464558D+06 0.10564957D+01  1  2  4  2  6  2        2 -.591536466895D-04 0.100000000000D+01
-.242592577055D-03 0.000000000000D+00 -.140392628520D-05 0.610795899500D-07 0.000000000000D+00  6 -2 2 25 1 -1 21 2 0.24158579D+00 0.13954602D+00 0.74464558D+06 0.74464558D+06 0.74464558D+06 0.10564957D+01  1  2  5  2  6  2        2 -.620209948376D-04 0.100000000000D+01
0.233009353719D-03 0.000000000000D+00 0.134586465330D-05 0.610795899500D-07 0.000000000000D+00  6 -2 2 25 1 -1 21 2 0.24158579D+00 0.10413657D+00 0.74464558D+06 0.74464558D+06 0.74464558D+06 0.10564957D+01  1  2  6  2  6  2        2 0.871075578952D-04 0.100000000000D+01
0.215759604702D-08 0.000000000000D+00 0.000000000000D+00 0.610795899500D-07 0.000000000000D+00  6 -2 21 25 1 -1 -2 2 0.24158579D+00 0.13953526D+00 0.77733785D+06 0.77733785D+06 0.77733785D+06 0.10552243D+01  1  2 12  6  6  2        2 0.427946213680D-09 0.100000000000D+01
0.885925601695D-05 0.000000000000D+00 0.000000000000D+00 0.610795899500D-07 0.000000000000D+00  6 -2 21 25 1 -1 -2 2 0.24158579D+00 0.14161790D+00 0.77733785D+06 0.77733785D+06 0.77733785D+06 0.10552243D+01  1  2 12  6  6  2        2 0.168212682603D-05 0.100000000000D+01
-.918140555865D-05 0.000000000000D+00 -.533097268057D-07 0.610795899500D-07 0.000000000000D+00  6 -2 21 25 1 -1 -2 2 0.24158579D+00 0.13954602D+00 0.74464558D+06 0.74464558D+06 0.74464558D+06 0.10564957D+01  1  2  5  6  6  2        2 -.183344898244D-05 0.100000000000D+01
  </mgrwgt>
  </event>
  <event>
  5     66 0.17652913E-05 0.49128027E+02 0.75467711E-02 0.90950967E-01
       -2 -1    0    0    0  501 0.00000000E+00 0.00000000E+00 0.38031394E+03 0.38031407E+03 0.32000000E+00 0.0000E+00 0.9000E+01
        2 -1    0    0  502    0 0.00000000E+00 0.00000000E+00 -.14375236E+04 0.14375237E+04 0.32000000E+00 0.0000E+00 0.9000E+01
       25  1    1    2    0    0 -.54236909E+02 0.59501104E+03 -.65246266E+03 0.89348324E+03 0.12500000E+03 0.0000E+00 0.9000E+01
        1  1    1    2  502    0 -.49081855E+02 -.21575841E+01 -.31153993E+03 0.31539010E+03 0.32000000E+00 0.0000E+00 0.9000E+01
       -1  1    1    2    0  501 0.10331876E+03 -.59285345E+03 -.93207110E+02 0.60896441E+03 0.32000000E+00 0.0000E+00 0.9000E+01
#aMCatNLO 1  0  0  2  2 0.14591804D+03 0.00000000D+00  -5  6  0 0.00000000D+00 0.00000000D+00 0.00000000D+00 0.00000000D+00 0.00000000D+00
  <mgrwgt>
 0.2944118518D-02    7    2    0
 0.739398695515597D+03 0.000000000000000D+00 0.000000000000000D+00 0.739398695515597D+03
 0.739398695515597D+03 0.000000000000000D+00 0.000000000000000D+00 -.739398695515597D+03
 0.631880900607292D+03 -.542385149445077D+02 0.595013286360678D+03 -.163296800651948D+03
 0.164968737525888D+03 -.490806216534574D+02 -.215769446921672D+01 -.157483717550650D+03
 0.681947752898014D+03 0.103319136597965D+03 -.592855591891461D+03 0.320780518202598D+03
 0.000000000000000D+00 0.000000000000000D+00 0.000000000000000D+00 -.000000000000000D+00
 0.797144478010191D+03 0.000000000000000D+00 0.000000000000000D+00 0.797144478010191D+03
 0.812233548604218D+03 0.000000000000000D+00 0.000000000000000D+00 -.812233548604218D+03
 0.618291693439250D+03 -.102373687903653D+03 0.574032578428976D+03 -.163296800651948D+03
 0.169410526547294D+03 -.619551669656506D+02 -.776933058357842D+01 -.157483717550650D+03
 0.696321917669653D+03 0.502518646924278D+02 -.615986056874464D+03 0.320780518202598D+03
 0.125353888958211D+03 0.114076990176876D+03 0.497228090290661D+02 -.150890705940269D+02
0.238556160244D-03 0.000000000000D+00 0.000000000000D+00 0.984098014019D-06 0.000000000000D+00  6 -2 2 25 1 -1 21 0 0.58509849D-01 0.22115750D+00 0.39774158D+06 0.39774158D+06 0.39774158D+06 0.10756049D+01  1  2  2  2  6  2        2 0.114812138715D-02 0.100000000000D+01
0.611854009699D-04 0.000000000000D+00 -.916118468617D-06 0.984098014019D-06 0.000000000000D+00  6 -2 2 25 1 -1 21 2 0.58509849D-01 0.22115750D+00 0.39774158D+06 0.39774158D+06 0.39774158D+06 0.10756049D+01  1  2  3  2  6  2        2 0.340683070841D-03 0.100000000000D+01
-.139123523215D-03 0.000000000000D+00 0.000000000000D+00 0.984098014019D-06 0.000000000000D+00  6 -2 2 25 1 -1 21 2 0.58509849D-01 0.22115750D+00 0.39774158D+06 0.39774158D+06 0.39774158D+06 0.10756049D+01  1  2 15  2  6  2        2 -.774646048954D-03 0.100000000000D+01
-.192052111382D-04 0.000000000000D+00 0.000000000000D+00 0.984098014019D-06 0.000000000000D+00  6 -2 2 25 1 -1 21 2 0.58509849D-01 0.22115750D+00 0.39774158D+06 0.39774158D+06 0.39774158D+06 0.10756049D+01  1  2  4  2  6  2        2 -.106935481389D-03 0.100000000000D+01
-.162120982052D-02 0.000000000000D+00 -.398919549969D-03 0.984098014019D-06 0.000000000000D+00  6 -2 2 25 1 -1 21 2 0.58509849D-01 0.25387849D+00 0.39774158D+06 0.39774158D+06 0.39774158D+06 0.10756049D+01  1  2  5  2  6  2        2 -.688972786899D-02 0.100000000000D+01
0.166415377726D-02 0.000000000000D+00 0.395151995448D-03 0.984098014019D-06 0.000000000000D+00  6 -2 2 25 1 -1 21 2 0.58509849D-01 0.22115750D+00 0.39774158D+06 0.39774158D+06 0.39774158D+06 0.10756049D+01  1  2  6  2  6  2        2 0.926608325189D-02 0.100000000000D+01
-.321649712632D-04 0.000000000000D+00 -.850053000820D-05 0.984098014019D-06 0.000000000000D+00  6 -2 21 25 1 -1 -2 2 0.58509849D-01 0.25387849D+00 0.39774158D+06 0.39774158D+06 0.39774158D+06 0.10756049D+01  1  2  5  6  6  2        2 -.394597921916D-04 0.100000000000D+01
  </mgrwgt>
  </event>
  <event>
  6     66 0.17652913E-05 0.10065130E+03 0.75467711E-02 0.88319504E-01
       -2 -1    0    0    0  501 0.00000000E+00 0.00000000E+00 0.84033010E+03 0.84033016E+03 0.32000000E+00 0.0000E+00 0.9000E+01
        2 -1    0    0  502    0 -.00000000E+00 -.00000000E+00 -.19281038E+04 0.19281038E+04 0.32000000E+00 0.0000E+00 0.9000E+01
       25  1    1    2    0    0 0.27225201E+03 -.84431843E+03 -.76690008E+03 0.11793030E+04 0.12500000E+03 0.0000E+00 0.9000E+01
        1  1    1    2  502    0 0.15777969E+02 0.78613693E+02 -.66864088E+03 0.67343135E+03 0.32000000E+00 0.0000E+00 0.9000E+01
       -1  1    1    2    0  503 -.12849107E+03 0.58412362E+03 0.19203322E+03 0.62816178E+03 0.32000000E+00 0.0000E+00 0.9000E+01
       21  1    1    2  503  501 -.15953891E+03 0.18158111E+03 0.15573406E+03 0.28753787E+03 0.75000000E+00 0.0000E+00 0.9000E+01
#aMCatNLO 2  0  0  5  4 0.11319887D+02 0.00000000D+00  -5  6  0 0.00000000D+00 0.00000000D+00 0.00000000D+00 0.00000000D+00 0.00000000D+00
  <mgrwgt>
 0.2467951120D-03    1    2    0
 0.127288796028830D+04 0.000000000000000D+00 0.000000000000000D+00 0.127288796028830D+04
 0.127288796028830D+04 -.000000000000000D+00 -.000000000000000D+00 -.127288796028830D+04
 0.961968571747398D+03 0.274286903866289D+03 -.849773562747238D+03 -.335276183844068D+03
 0.449008759170654D+03 0.167475462575013D+02 0.760816892752064D+02 -.442199007307066D+03
 0.113479858965854D+04 -.291034450123790D+03 0.773691873472031D+03 0.777475191151133D+03
 0.000000000000000D+00 0.000000000000000D+00 0.000000000000000D+00 0.000000000000000D+00
 0.127288796028830D+04 0.000000000000000D+00 0.000000000000000D+00 0.127288796028830D+04
 0.127288796028830D+04 -.000000000000000D+00 -.000000000000000D+00 -.127288796028830D+04
 0.954612281834850D+03 0.272221614945502D+03 -.844283156873622D+03 -.329758930138234D+03
 0.446878469172402D+03 0.157821468779173D+02 0.786481265279831D+02 -.439620020294154D+03
 0.764892269131992D+03 -.128410395499160D+03 0.583953437620262D+03 0.477042279464951D+03
 0.379392900437347D+03 -.159593366324260D+03 0.181681592725377D+03 0.292336670967437D+03
0.572626954798D-03 0.000000000000D+00 0.000000000000D+00 0.291554168059D-05 0.946945686236D-09  6 -2 2 25 1 -1 21 2 0.12928156D+00 0.29663136D+00 0.82427526D+06 0.82427526D+06 0.82427526D+06 0.10534969D+01  1  2  1  4  6  5       -1 0.246795112039D-03 0.100000000000D+01
  </mgrwgt>
  </event>
  <event>
  5     66 -.17652913E-05 0.33952347E+02 0.75467711E-02 0.92470724E-01
       -2 -1    0    0    0  501 0.00000000E+00 0.00000000E+00 0.12209259E+04 0.12209259E+04 0.32000000E+00 0.0000E+00 0.9000E+01
        2 -1    0    0  502    0 -.00000000E+00 -.00000000E+00 -.18390164E+04 0.18390164E+04 0.32000000E+00 0.0000E+00 0.9000E+01
       25  1    1    2    0    0 0.36279312E+03 0.45695425E+03 0.22656361E+03 0.63826492E+03 0.12500000E+03 0.0000E+00 0.9000E+01
        1  1    1    2  502    0 -.31393569E+02 0.12922119E+02 -.15281314E+04 0.15285085E+04 0.32000000E+00 0.0000E+00 0.9000E+01
       -1  1    1    2    0  501 -.33139955E+03 -.46987637E+03 0.68347726E+03 0.89316893E+03 0.32000000E+00 0.0000E+00 0.9000E+01
#aMCatNLO 1  0  0  5  1 0.53885547D+02 0.00000000D+00  -5  6  0 0.00000000D+00 0.00000000D+00 0.00000000D+00 0.00000000D+00 0.00000000D+00
  <mgrwgt>
 -.2000937707D-01    6    2    0
 0.149843344901370D+04 0.000000000000000D+00 0.000000000000000D+00 0.149843344901370D+04
 0.149843344901370D+04 -.000000000000000D+00 -.000000000000000D+00 -.149843344901370D+04
 0.698454903791621D+03 0.362769345201168D+03 0.456914980297797D+03 0.363099649672570D+03
 0.124556563658470D+04 -.313966514032816D+02 0.129233173236167D+02 -.124510280426584D+04
 0.105284635765108D+04 -.331372693797886D+03 -.469838297621413D+03 0.882003154593272D+03
 0.000000000000000D+00 0.000000000000000D+00 0.000000000000000D+00 0.000000000000000D+00
 0.149843344901370D+04 0.000000000000000D+00 0.000000000000000D+00 0.149843344901370D+04
 0.149843344901370D+04 -.000000000000000D+00 -.000000000000000D+00 -.149843344901370D+04
 0.698420294698181D+03 0.362182598122538D+03 0.456083058254377D+03 0.364661373930440D+03
 0.124279696963564D+04 -.324418696814431D+02 0.114413497817959D+02 -.124232078318857D+04
 0.813345089877030D+03 -.229041983619666D+03 -.407471855743381D+03 0.665610014756154D+03
 0.242304543816549D+03 -.100698744821429D+03 -.600525522927921D+02 0.212049394501979D+03
0.414774849810D-02 0.000000000000D+00 0.000000000000D+00 0.327729389370D-03 0.000000000000D+00  6 -2 2 25 1 -1 21 0 0.18783476D+00 0.28292560D+00 0.36333640D+06 0.36333640D+06 0.36333640D+06 0.10784504D+01  1  2  2  4  6  5       -1 0.667390966787D-03 0.100000000000D+01
0.296163188809D-02 0.000000000000D+00 -.159284463600D-04 0.327729389370D-03 0.000000000000D+00  6 -2 2 25 1 -1 21 2 0.18783476D+00 0.28292560D+00 0.36333640D+06 0.36333640D+06 0.36333640D+06 0.10784504D+01  1  2  3  4  6  5       -1 0.554241893580D-03 0.100000000000D+01
-.305715848611D-02 0.000000000000D+00 0.000000000000D+00 0.327729389370D-03 0.000000000000D+00  6 -2 2 25 1 -1 21 2 0.18783476D+00 0.28292560D+00 0.36333640D+06 0.36333640D+06 0.36333640D+06 0.10784504D+01  1  2 15  4  6  5       -1 -.572118808936D-03 0.100000000000D+01
-.133459315837D+00 0.000000000000D+00 0.000000000000D+00 0.327729389370D-03 0.000000000000D+00  6 -2 2 25 1 -1 21 2 0.18783476D+00 0.28292560D+00 0.36333640D+06 0.36333640D+06 0.36333640D+06 0.10784504D+01  1  2  4  4  6  5       -1 -.249756710896D-01 0.100000000000D+01
-.901956280426D-01 0.000000000000D+00 0.000000000000D+00 0.327729389370D-03 0.000000000000D+00  6 -2 2 25 1 -1 21 2 0.18783476D+00 0.28292560D+00 0.36333640D+06 0.36333640D+06 0.36333640D+06 0.10784504D+01  1  2  5  4  6  5       -1 -.168792738490D-01 0.100000000000D+01
0.113262655902D+00 0.000000000000D+00 -.000000000000D+00 0.327729389370D-03 0.000000000000D+00  6 -2 2 25 1 -1 21 2 0.18783476D+00 0.28292560D+00 0.36333640D+06 0.36333640D+06 0.36333640D+06 0.10784504D+01  1  2  6  4  6  5       -1 0.211960538147D-01 0.100000000000D+01
  </mgrwgt>
  </event>
  <event>
  5     66 0.17652913E-05 0.90038816E+02 0.75467711E-02 0.87170760E-01
       -2 -1    0    0    0  501 0.00000000E+00 0.00000000E+00 0.35890243E+03 0.35890257E+03 0.32000000E+00 0.0000E+00 0.9000E+01
        2 -1    0    0  502    0 0.00000000E+00 0.00000000E+00 -.31677344E+04 0.31677344E+04 0.32000000E+00 0.0000E+00 0.9000E+01
       25  1    1    2    0    0 -.14650156E+03 0.60124491E+03 -.10352698E+04 0.12125867E+04 0.12500000E+03 0.0000E+00 0.9000E+01
        1  1    1    2  502    0 0.61056328E+02 -.62968421E+03 -.19854579E+04 0.20838122E+04 0.32000000E+00 0.0000E+00 0.9000E+01
       -1  1    1    2    0  501 0.85445237E+02 0.28439296E+02 0.21189568E+03 0.23023805E+03 0.32000000E+00 0.0000E+00 0.9000E+01
#aMCatNLO 1  0  0  1  2 0.16262813D+04 0.00000000D+00  -5  6  0 0.00000000D+00 0.00000000D+00 0.00000000D+00 0.00000000D+00 0.00000000D+00
  <mgrwgt>
 0.5634397007D-02    7    4    0
 0.106625880720615D+04 0.000000000000000D+00 0.000000000000000D+00 0.106625880720615D+04
 0.106625880720615D+04 0.000000000000000D+00 0.000000000000000D+00 -.106625880720615D+04
 0.641779536576783D+03 -.146504942679875D+03 0.601333104445319D+03 -.114851089839112D+03
 0.830996048698756D+03 0.610738976575989D+02 -.629767677220725D+03 -.538718001096927D+03
 0.659742029136751D+03 0.854310450222765D+02 0.284345727754056D+02 0.653569090936038D+03
 0.000000000000000D+00 -.000000000000000D+00 -.000000000000000D+00 0.000000000000000D+00
 0.174606317448384D+04 0.000000000000000D+00 0.000000000000000D+00 0.174606317448384D+04
 0.119448210703778D+04 0.000000000000000D+00 0.000000000000000D+00 -.119448210703778D+04
 0.646063298912500D+03 0.267066507041707D+01 0.623357747134462D+03 -.114851089839112D+03
 0.846604123045475D+03 0.255396541916331D+03 -.601077418332206D+03 -.538718001096927D+03
 0.699136311773790D+03 0.242834958588347D+03 0.516740621694662D+02 0.653569090936038D+03
 0.748741547789855D+03 -.500902165575096D+03 -.739543909717226D+02 0.551581067446055D+03
 0.106625880720615D+04 0.000000000000000D+00 0.000000000000000D+00 0.106625880720615D+04
 0.106625880720615D+04 0.000000000000000D+00 0.000000000000000D+00 -.106625880720615D+04
 0.641779536576783D+03 -.146504942679875D+03 0.601333104445319D+03 -.114851089839112D+03
 0.830996048698756D+03 0.610738976575989D+02 -.629767677220725D+03 -.538718001096927D+03
 0.000000000000000D+00 -.000000000000000D+00 -.000000000000000D+00 0.000000000000000D+00
 0.659742029136751D+03 0.854310450222765D+02 0.284345727754056D+02 0.653569090936038D+03
 0.174606317448384D+04 0.000000000000000D+00 0.000000000000000D+00 0.174606317448384D+04
 0.119448210703778D+04 0.000000000000000D+00 0.000000000000000D+00 -.119448210703778D+04
 0.646063298912500D+03 0.267066507041707D+01 0.623357747134462D+03 -.114851089839112D+03
 0.846604123045475D+03 0.255396541916331D+03 -.601077418332206D+03 -.538718001096927D+03
 0.748741547789855D+03 -.500902165575096D+03 -.739543909717226D+02 0.551581067446055D+03
 0.699136311773790D+03 0.242834958588347D+03 0.516740621694662D+02 0.653569090936038D+03
0.580873501698D-02 0.000000000000D+00 0.000000000000D+00 0.672000557648D-05 0.000000000000D+00  6 -2 2 25 1 -1 21 0 0.55215771D-01 0.48734376D+00 0.45845099D+06 0.45845099D+06 0.45845099D+06 0.10711834D+01  1  2  2  1  6  1       -2 0.309218644772D-02 0.100000000000D+01
0.171084460167D-02 0.000000000000D+00 -.223070719403D-04 0.672000557648D-05 0.000000000000D+00  6 -2 2 25 1 -1 21 2 0.55215771D-01 0.48734376D+00 0.45845099D+06 0.45845099D+06 0.45845099D+06 0.10711834D+01  1  2  3  1  6  1       -2 0.104501462983D-02 0.100000000000D+01
-.378353814169D-02 0.000000000000D+00 0.000000000000D+00 0.672000557648D-05 0.000000000000D+00  6 -2 2 25 1 -1 21 2 0.55215771D-01 0.48734376D+00 0.45845099D+06 0.45845099D+06 0.45845099D+06 0.10711834D+01  1  2 15  1  6  1       -2 -.231105309433D-02 0.100000000000D+01
-.264694263164D-03 0.000000000000D+00 0.000000000000D+00 0.672000557648D-05 0.000000000000D+00  6 -2 2 25 1 -1 21 2 0.55215771D-01 0.48734376D+00 0.45845099D+06 0.45845099D+06 0.45845099D+06 0.10711834D+01  1  2  4  1  6  1       -2 -.161680013000D-03 0.100000000000D+01
-.778150832011D-02 0.000000000000D+00 -.405145553112D-02 0.672000557648D-05 0.000000000000D+00  6 -2 2 25 1 -1 21 2 0.10243765D+00 0.48734376D+00 0.45845099D+06 0.45845099D+06 0.45845099D+06 0.10711834D+01  1  2  5  1  6  1       -2 -.120028645217D-02 0.100000000000D+01
0.914899278179D-02 0.000000000000D+00 0.338433129564D-02 0.672000557648D-05 0.000000000000D+00  6 -2 2 25 1 -1 21 2 0.55215771D-01 0.48734376D+00 0.45845099D+06 0.45845099D+06 0.45845099D+06 0.10711834D+01  1  2  6  1  6  1       -2 0.558836921594D-02 0.100000000000D+01
-.299599551885D-03 0.000000000000D+00 -.272998976745D-03 0.672000557648D-05 0.000000000000D+00  6 21 2 25 1 2 -1 2 0.10243765D+00 0.48734376D+00 0.45845099D+06 0.45845099D+06 0.45845099D+06 0.10711834D+01  3  4  5  5  5  1       -2 -.418153727001D-03 0.100000000000D+01
  </mgrwgt>
  </event>
  <event>
  5     66 -.17652913E-05 0.45185224E+02 0.75467711E-02 0.94108114E-01
       -2 -1    0    0    0  501 0.00000000E+00 0.00000000E+00 0.15671486E+03 0.15671518E+03 0.32000000E+00 0.0000E+00 0.9000E+01
        2 -1    0    0  502    0 -.00000000E+00 -.00000000E+00 -.30696925E+04 0.30696925E+04 0.32000000E+00 0.0000E+00 0.9000E+01
       25  1    1    2    0    0 0.46165793E+03 -.20918450E+03 -.10795434E+04 0.11991352E+04 0.12500000E+03 0.0000E+00 0.9000E+01
        1  1    1    2  502    0 -.15851024E+02 0.42306088E+02 -.13431861E+04 0.13439457E+04 0.32000000E+00 0.0000E+00 0.9000E+01
       -1  1    1    2    0  501 -.44580690E+03 0.16687841E+03 -.49024813E+03 0.68332681E+03 0.32000000E+00 0.0000E+00 0.9000E+01
#aMCatNLO 1  0  0  5  1 0.20512548D+03 0.00000000D+00  -5  6  0 0.00000000D+00 0.00000000D+00 0.00000000D+00 0.00000000D+00 0.00000000D+00
  <mgrwgt>
 -.3129230821D-02    6    2    0
 0.693589911372230D+03 0.000000000000000D+00 0.000000000000000D+00 0.693589911372230D+03
 0.693589911372230D+03 -.000000000000000D+00 -.000000000000000D+00 -.693589911372230D+03
 0.522052556462192D+03 0.461632242185780D+03 -.209180237608807D+03 0.729197347514422D+01
 0.305315992271825D+03 -.158540456494370D+02 0.423125716098317D+02 -.301953888296272D+03
 0.559811274010442D+03 -.445778196536343D+03 0.166867665998975D+03 0.294661914821128D+03
 0.000000000000000D+00 0.000000000000000D+00 0.000000000000000D+00 0.000000000000000D+00
 0.693589911372230D+03 0.000000000000000D+00 0.000000000000000D+00 0.693589911372230D+03
 0.693589911372230D+03 -.000000000000000D+00 -.000000000000000D+00 -.693589911372230D+03
 0.519630337999934D+03 0.459266382969498D+03 -.208294628109351D+03 0.885581982806919D+01
 0.304558286448479D+03 -.172391856865389D+02 0.428310695688365D+02 -.301038302880029D+03
 0.291762086318951D+03 -.212959967948056D+03 0.129828116869483D+03 0.151386350556694D+03
 0.271229111977095D+03 -.229067229334904D+03 0.356354416710314D+02 0.140796132495266D+03
0.185680201018D-03 0.000000000000D+00 0.000000000000D+00 0.721461579413D-05 0.000000000000D+00  6 -2 2 25 1 -1 21 0 0.24110004D-01 0.47226041D+00 0.27205259D+06 0.27205259D+06 0.27205259D+06 0.10877079D+01  1  2  2  4  6  5       -1 0.554190360129D-03 0.100000000000D+01
0.640278746163D-04 0.000000000000D+00 -.713060862628D-06 0.721461579413D-05 0.000000000000D+00  6 -2 2 25 1 -1 21 2 0.24110004D-01 0.47226041D+00 0.27205259D+06 0.27205259D+06 0.27205259D+06 0.10877079D+01  1  2  3  4  6  5       -1 0.226092956961D-03 0.100000000000D+01
-.127830828233D-03 0.000000000000D+00 0.000000000000D+00 0.721461579413D-05 0.000000000000D+00  6 -2 2 25 1 -1 21 2 0.24110004D-01 0.47226041D+00 0.27205259D+06 0.27205259D+06 0.27205259D+06 0.10877079D+01  1  2 15  4  6  5       -1 -.451391680876D-03 0.100000000000D+01
-.165551426552D-02 0.000000000000D+00 0.000000000000D+00 0.721461579413D-05 0.000000000000D+00  6 -2 2 25 1 -1 21 2 0.24110004D-01 0.47226041D+00 0.27205259D+06 0.27205259D+06 0.27205259D+06 0.10877079D+01  1  2  4  4  6  5       -1 -.584589318050D-02 0.100000000000D+01
-.116565115244D-02 0.000000000000D+00 0.000000000000D+00 0.721461579413D-05 0.000000000000D+00  6 -2 2 25 1 -1 21 2 0.24110004D-01 0.47226041D+00 0.27205259D+06 0.27205259D+06 0.27205259D+06 0.10877079D+01  1  2  5  4  6  5       -1 -.411610595258D-02 0.100000000000D+01
0.184185038723D-02 0.000000000000D+00 -.000000000000D+00 0.721461579413D-05 0.000000000000D+00  6 -2 2 25 1 -1 21 2 0.24110004D-01 0.47226041D+00 0.27205259D+06 0.27205259D+06 0.27205259D+06 0.10877079D+01  1  2  6  4  6  5       -1 0.650387667594D-02 0.100000000000D+01
  </mgrwgt>
  </event>
  <event>
  6     66 0.17652913E-05 0.11888048E+03 0.75467711E-02 0.95499516E-01
       -2 -1    0    0    0  501 0.00000000E+00 0.00000000E+00 0.21029700E+03 0.21029724E+03 0.32000000E+00 0.0000E+00 0.9000E+01
        2 -1    0    0  502    0 -.00000000E+00 -.00000000E+00 -.29144029E+04 0.29144029E+04 0.32000000E+00 0.0000E+00 0.9000E+01
       25  1    1    2    0    0 0.19626880E+03 0.40722284E+03 -.26283648E+03 0.53764291E+03 0.12500000E+03 0.0000E+00 0.9000E+01
        1  1    1    2  503    0 -.10873574E+03 -.25991866E+03 -.10984652E+04 0.11340225E+04 0.32000000E+00 0.0000E+00 0.9000E+01
       -1  1    1    2    0  501 -.15829006E+02 -.56018944E+01 0.49206723E+02 0.51993679E+02 0.32000000E+00 0.0000E+00 0.9000E+01
       21  1    1    2  502  503 -.71704051E+02 -.14170228E+03 -.13920109E+04 0.14010410E+04 0.75000000E+00 0.0000E+00 0.9000E+01
#aMCatNLO 2  0  0  4  2 0.35363194D+01 0.00000000D+00  -5  6  0 0.00000000D+00 0.00000000D+00 0.00000000D+00 0.00000000D+00 0.00000000D+00
  <mgrwgt>
 0.3392848474D-02    1    2    0
 0.782873288770829D+03 0.000000000000000D+00 0.000000000000000D+00 0.782873288770829D+03
 0.782873288770829D+03 -.000000000000000D+00 -.000000000000000D+00 -.782873288770829D+03
 0.626974029678099D+03 0.198266913547548D+03 0.411699501491221D+03 0.410688672055856D+03
 0.748364462144819D+03 -.183057964516993D+03 -.407443463214363D+03 -.600440649949756D+03
 0.190408085718741D+03 -.152089490305547D+02 -.425603827685808D+01 0.189751977893901D+03
 0.000000000000000D+00 0.000000000000000D+00 0.000000000000000D+00 -.000000000000000D+00
 0.782873288770829D+03 0.000000000000000D+00 0.000000000000000D+00 0.782873288770829D+03
 0.782873288770829D+03 -.000000000000000D+00 -.000000000000000D+00 -.782873288770829D+03
 0.619207261320149D+03 0.196287734572859D+03 0.407294320116589D+03 0.404196851210668D+03
 0.365763738631415D+03 -.108679281067380D+03 -.259789435300356D+03 -.233412458259257D+03
 0.188525482263402D+03 -.158107694526486D+02 -.559554730973767D+01 0.187777972303111D+03
 0.392250095326693D+03 -.717976840528307D+02 -.141909337506495D+03 -.358562365254522D+03
0.124800937342D-02 0.000000000000D+00 0.000000000000D+00 0.495537255308D-04 0.264997944362D-07  6 -2 2 25 1 -1 21 2 0.32353404D-01 0.44836969D+00 0.21460174D+06 0.21460174D+06 0.21460174D+06 0.10954827D+01  1  2  1  3  6  4        1 0.339284847395D-02 0.100000000000D+01
  </mgrwgt>
  </event>
  <event>
  5     66 -.17652913E-05 0.33659176E+02 0.75467711E-02 0.95418165E-01
       -2 -1    0    0    0  501 0.00000000E+00 0.00000000E+00 0.51950869E+03 0.51950878E+03 0.32000000E+00 0.0000E+00 0.9000E+01
        2 -1    0    0  502    0 -.00000000E+00 -.00000000E+00 -.65455649E+03 0.65455657E+03 0.32000000E+00 0.0000E+00 0.9000E+01
       25  1    1    2    0    0 0.61186433E+01 0.45836105E+03 0.13979780E+02 0.47534485E+03 0.12500000E+03 0.0000E+00 0.9000E+01
        1  1    1    2  502    0 -.50847198E+01 -.42468176E+03 -.31537092E+03 0.52899846E+03 0.32000000E+00 0.0000E+00 0.9000E+01
       -1  1    1    2    0  501 -.10339235E+01 -.33679289E+02 0.16634333E+03 0.16972204E+03 0.32000000E+00 0.0000E+00 0.9000E+01
#aMCatNLO 1  0  0  4  4 0.22663198D+03 0.00000000D+00  -5  6  0 0.00000000D+00 0.00000000D+00 0.00000000D+00 0.00000000D+00 0.00000000D+00
  <mgrwgt>
 -.8663939789D-02    6    2    0
 0.583136249932272D+03 0.000000000000000D+00 0.000000000000000D+00 0.583136249932272D+03
 0.583136249932272D+03 -.000000000000000D+00 -.000000000000000D+00 -.583136249932272D+03
 0.480251041030762D+03 0.611931681186423D+01 0.458452312448987D+03 0.692827076770441D+02
 0.496107011098580D+03 -.508649727747769D+01 -.424808985836511D+03 -.256190592253439D+03
 0.189914447735203D+03 -.103281953438653D+01 -.336433266124763D+02 0.186907884576395D+03
 0.000000000000000D+00 -.000000000000000D+00 0.000000000000000D+00 0.000000000000000D+00
 0.583136249932272D+03 0.000000000000000D+00 0.000000000000000D+00 0.583136249932272D+03
 0.583136249932272D+03 -.000000000000000D+00 -.000000000000000D+00 -.583136249932272D+03
 0.478588665621418D+03 0.610020161547325D+01 0.456855868619384D+03 0.683199363990309D+02
 0.323624887942769D+03 0.189841678018156D+02 -.264150989670304D+03 -.186002484190510D+03
 0.189652605997278D+03 -.104038649132971D+01 -.342752961446596D+02 0.186526761167676D+03
 0.174406340303080D+03 -.240439829259592D+02 -.158429582804420D+03 -.688442133761977D+02
0.136071954982D-03 0.000000000000D+00 0.000000000000D+00 0.592346523276D-05 0.000000000000D+00  6 -2 2 25 1 -1 21 0 0.79924427D-01 0.10070101D+00 0.21796101D+06 0.21796101D+06 0.21796101D+06 0.10949684D+01  1  2  2  3  6  4        1 0.106525802376D-02 0.100000000000D+01
0.460062462399D-04 0.000000000000D+00 -.522552135701D-06 0.592346523276D-05 0.000000000000D+00  6 -2 2 25 1 -1 21 2 0.79924427D-01 0.10070101D+00 0.21796101D+06 0.21796101D+06 0.21796101D+06 0.10949684D+01  1  2  3  3  6  4        1 0.431823362007D-03 0.100000000000D+01
-.940394783796D-04 0.000000000000D+00 0.000000000000D+00 0.592346523276D-05 0.000000000000D+00  6 -2 2 25 1 -1 21 2 0.79924427D-01 0.10070101D+00 0.21796101D+06 0.21796101D+06 0.21796101D+06 0.10949684D+01  1  2 15  3  6  4        1 -.882672398514D-03 0.100000000000D+01
-.171071245859D-02 0.000000000000D+00 0.000000000000D+00 0.592346523276D-05 0.000000000000D+00  6 -2 2 25 1 -1 21 2 0.79924427D-01 0.10070101D+00 0.21796101D+06 0.21796101D+06 0.21796101D+06 0.10949684D+01  1  2  4  3  6  4        1 -.160570719341D-01 0.100000000000D+01
-.177024463787D-02 0.000000000000D+00 0.000000000000D+00 0.592346523276D-05 0.000000000000D+00  6 -2 2 25 1 -1 21 2 0.79924427D-01 0.10070101D+00 0.21796101D+06 0.21796101D+06 0.21796101D+06 0.10949684D+01  1  2  5  3  6  4        1 -.166158522717D-01 0.100000000000D+01
0.249244643201D-02 0.000000000000D+00 -.000000000000D+00 0.592346523276D-05 0.000000000000D+00  6 -2 2 25 1 -1 21 2 0.79924427D-01 0.10070101D+00 0.21796101D+06 0.21796101D+06 0.21796101D+06 0.10949684D+01  1  2  6  3  6  4        1 0.233945754296D-01 0.100000000000D+01
  </mgrwgt>
  </event>
  <event>
  5     66 0.17652913E-05 0.33633649E+02 0.75467711E-02 0.93688736E-01
       -2 -1    0    0    0  501 0.00000000E+00 0.00000000E+00 0.44778680E+03 0.44778692E+03 0.32000000E+00 0.0000E+00 0.9000E+01
        2 -1    0    0  502    0 -.00000000E+00 -.00000000E+00 -.98153044E+03 0.98153050E+03 0.32000000E+00 0.0000E+00 0.9000E+01
       25  1    1    2    0    0 0.14272159E+03 0.48846282E+03 0.10947422E+02 0.52412806E+03 0.12500000E+03 0.0000E+00 0.9000E+01
        1  1    1    2  502    0 -.19488214E+02 -.27403972E+02 -.40712870E+03 0.40851517E+03 0.32000000E+00 0.0000E+00 0.9000E+01
       -1  1    1    2    0  501 -.12323338E+03 -.46105885E+03 -.13756236E+03 0.49667418E+03 0.32000000E+00 0.0000E+00 0.9000E+01
#aMCatNLO 1  0  0  4  1 0.23491460D+01 0.00000000D+00  -5  6  0 0.00000000D+00 0.00000000D+00 0.00000000D+00 0.00000000D+00 0.00000000D+00
  <mgrwgt>
 0.8162069225D-02    6    2    0
 0.662960405247197D+03 0.000000000000000D+00 0.000000000000000D+00 0.662960405247197D+03
 0.662960405247197D+03 -.000000000000000D+00 -.000000000000000D+00 -.662960405247197D+03
 0.569390119912504D+03 0.142708909426597D+03 0.488406850593901D+03 0.222874458198319D+03
 0.276564721438503D+03 -.194919893239379D+02 -.274095736979289D+02 -.274511971990750D+03
 0.479965969143386D+03 -.123216920102659D+03 -.460997276895972D+03 0.516375137924307D+02
 0.000000000000000D+00 -.000000000000000D+00 0.000000000000000D+00 0.000000000000000D+00
 0.662960405247197D+03 0.000000000000000D+00 0.000000000000000D+00 0.662960405247197D+03
 0.662960405247197D+03 -.000000000000000D+00 -.000000000000000D+00 -.662960405247197D+03
 0.566662069538266D+03 0.142314469108082D+03 0.487852189866353D+03 0.217319427982126D+03
 0.802496969002818D+02 0.304910293970563D+02 -.196482228903045D+02 -.715839249842300D+02
 0.480019988723106D+03 -.123550229760884D+03 -.461465975882489D+03 0.469434063802991D+02
 0.198989055332740D+03 -.492552687442551D+02 -.673799109355971D+01 -.192678909378195D+03
0.840964448059D-03 0.000000000000D+00 0.000000000000D+00 0.231269630051D-05 0.000000000000D+00  6 -2 2 25 1 -1 21 0 0.68890290D-01 0.15100470D+00 0.26768822D+06 0.26768822D+06 0.26768822D+06 0.10882326D+01  1  2  2  3  6  4        1 0.537652933912D-02 0.100000000000D+01
0.343948561293D-03 0.000000000000D+00 -.322952491157D-05 0.231269630051D-05 0.000000000000D+00  6 -2 2 25 1 -1 21 2 0.68890290D-01 0.15100470D+00 0.26768822D+06 0.26768822D+06 0.26768822D+06 0.10882326D+01  1  2  3  3  6  4        1 0.260412211650D-02 0.100000000000D+01
-.607631336594D-03 0.000000000000D+00 0.000000000000D+00 0.231269630051D-05 0.000000000000D+00  6 -2 2 25 1 -1 21 2 0.68890290D-01 0.15100470D+00 0.26768822D+06 0.26768822D+06 0.26768822D+06 0.10882326D+01  1  2 15  3  6  4        1 -.460053153400D-02 0.100000000000D+01
-.164933567828D-03 0.000000000000D+00 0.000000000000D+00 0.231269630051D-05 0.000000000000D+00  6 -2 2 25 1 -1 21 2 0.68890290D-01 0.15100470D+00 0.26768822D+06 0.26768822D+06 0.26768822D+06 0.10882326D+01  1  2  4  3  6  4        1 -.124875402915D-02 0.100000000000D+01
-.726925663967D-03 0.000000000000D+00 0.000000000000D+00 0.231269630051D-05 0.000000000000D+00  6 -2 2 25 1 -1 21 2 0.68890290D-01 0.15100470D+00 0.26768822D+06 0.26768822D+06 0.26768822D+06 0.10882326D+01  1  2  5  3  6  4        1 -.550373925529D-02 0.100000000000D+01
0.152345195650D-02 0.000000000000D+00 -.000000000000D+00 0.231269630051D-05 0.000000000000D+00  6 -2 2 25 1 -1 21 2 0.68890290D-01 0.15100470D+00 0.26768822D+06 0.26768822D+06 0.26768822D+06 0.10882326D+01  1  2  6  3  6  4        1 0.115344425877D-01 0.100000000000D+01
  </mgrwgt>
  </event>
  <event>
  5     66 -.17652913E-05 0.20470417E+02 0.75467711E-02 0.89420509E-01
       -2 -1    0    0    0  501 0.00000000E+00 0.00000000E+00 0.17013104E+04 0.17013104E+04 0.32000000E+00 0.0000E+00 0.9000E+01
        2 -1    0    0  502    0 0.00000000E+00 0.00000000E+00 -.97517274E+03 0.97517279E+03 0.32000000E+00 0.0000E+00 0.9000E+01
       25  1    1    2    0    0 0.75178071E+03 -.23469260E+03 0.65404868E+03 0.10313387E+04 0.12500000E+03 0.0000E+00 0.9000E+01
        1  1    1    2  502    0 -.77131392E+03 0.24084213E+03 -.57878853E+03 0.99394485E+03 0.32000000E+00 0.0000E+00 0.9000E+01
       -1  1    1    2    0  501 0.19533211E+02 -.61495333E+01 0.65087748E+03 0.65119963E+03 0.32000000E+00 0.0000E+00 0.9000E+01
#aMCatNLO 1  0  0  4  1 0.23491460D+01 0.00000000D+00  -5  6  0 0.00000000D+00 0.00000000D+00 0.00000000D+00 0.00000000D+00 0.00000000D+00
  <mgrwgt>
 -.1699630773D-01    1    2    0
 0.128804953328638D+04 0.000000000000000D+00 0.000000000000000D+00 0.128804953328638D+04
 0.128804953328638D+04 -.000000000000000D+00 -.000000000000000D+00 -.128804953328638D+04
 0.887324995931562D+03 0.751879839606341D+03 -.234723568368071D+03 0.388975836847289D+03
 0.119585613191493D+04 -.771405477066213D+03 0.240870717304274D+03 -.881468533605206D+03
 0.492917938726259D+03 0.195256374598725D+02 -.614714893620319D+01 0.492492696757917D+03
 0.000000000000000D+00 0.000000000000000D+00 0.000000000000000D+00 0.000000000000000D+00
 0.128804953328638D+04 0.000000000000000D+00 0.000000000000000D+00 0.128804953328638D+04
 0.128804953328638D+04 -.000000000000000D+00 -.000000000000000D+00 -.128804953328638D+04
 0.824420117259591D+03 0.707621651044954D+03 -.220903985875719D+03 0.338402951729077D+03
 0.129989447930674D+03 0.109194173917752D+03 -.647955021271908D+02 -.278465771653601D+02
 0.464245710874714D+03 -.522239830882371D+01 0.158040460690709D+01 0.464213645795501D+03
 0.115744379050777D+04 -.811593426653882D+03 0.284119083396002D+03 -.774770020359219D+03
-.980978583615D-01 0.000000000000D+00 0.000000000000D+00 0.447431225612D-04 0.000000000000D+00  6 -2 2 25 1 -1 21 2 0.26174006D+00 0.15002658D+00 0.66107514D+06 0.66107514D+06 0.66107514D+06 0.10600430D+01  1  2 14  3  6  4        1 -.169963077285D-01 0.100000000000D+01
  </mgrwgt>
  </event>
  <event>
  5     66 -.17652913E-05 0.63538991E+02 0.75467711E-02 0.92214630E-01
       -2 -1    0    0    0  501 0.00000000E+00 0.00000000E+00 0.13511724E+04 0.13511724E+04 0.32000000E+00 0.0000E+00 0.9000E+01
        2 -1    0    0  502    0 0.00000000E+00 0.00000000E+00 -.12695043E+04 0.12695043E+04 0.32000000E+00 0.0000E+00 0.9000E+01
       25  1    1    2    0    0 0.27557965E+03 -.37853425E+03 -.28131912E+03 0.56035504E+03 0.12500000E+03 0.0000E+00 0.9000E+01
        1  1    1    2  502    0 -.29022707E+03 0.31670476E+03 -.79337919E+03 0.90221079E+03 0.32000000E+00 0.0000E+00 0.9000E+01
       -1  1    1    2    0  501 0.14647419E+02 0.61829492E+02 0.11563664E+04 0.11581109E+04 0.32000000E+00 0.0000E+00 0.9000E+01
#aMCatNLO 1  0  0  5  1 0.29250521D+03 0.00000000D+00  -5  6  0 0.00000000D+00 0.00000000D+00 0.00000000D+00 0.00000000D+00 0.00000000D+00
  <mgrwgt>
 -.2027202950D-02    4    2    0
 0.130970196065034D+04 0.000000000000000D+00 0.000000000000000D+00 0.130970196065034D+04
 0.130970196065034D+04 -.000000000000000D+00 -.000000000000000D+00 -.130970196065034D+04
 0.569413348759316D+03 0.275605216250127D+03 -.378562430634541D+03 -.298895989657083D+03
 0.927402230950586D+03 -.290252218293654D+03 0.316734696799116D+03 -.821892742145414D+03
 0.112258834159078D+04 0.146470020435269D+02 0.618277338354267D+02 0.112078873180250D+04
 0.000000000000000D+00 0.000000000000000D+00 0.000000000000000D+00 0.000000000000000D+00
 0.130970196065034D+04 0.000000000000000D+00 0.000000000000000D+00 0.130970196065034D+04
 0.130970196065034D+04 -.000000000000000D+00 -.000000000000000D+00 -.130970196065034D+04
 0.561164613485010D+03 0.275802680976641D+03 -.377728895108535D+03 -.283785986958419D+03
 0.906127488726782D+03 -.289931977269380D+03 0.318086494030601D+03 -.797387896006889D+03
 0.275763839648837D+03 -.148627031044856D+03 0.739693452740881D+02 0.220191364182122D+03
 0.876347979440052D+03 0.162756327337595D+03 -.143269441961539D+02 0.860982518783186D+03
0.649823248923D-01 0.000000000000D+00 0.000000000000D+00 0.338123112274D-03 0.000000000000D+00  6 -2 2 25 1 -1 21 0 0.20787268D+00 0.19530835D+00 0.23902771D+06 0.23902771D+06 0.23902771D+06 0.10919285D+01  1  2  2  4  6  5       -1 0.162005902018D-01 0.100000000000D+01
0.256579866652D-01 0.000000000000D+00 -.249549237826D-03 0.338123112274D-03 0.000000000000D+00  6 -2 2 25 1 -1 21 2 0.20787268D+00 0.19530835D+00 0.23902771D+06 0.23902771D+06 0.23902771D+06 0.10919285D+01  1  2  3  4  6  5       -1 0.762687397497D-02 0.100000000000D+01
-.504591986824D-01 0.000000000000D+00 0.000000000000D+00 0.338123112274D-03 0.000000000000D+00  6 -2 2 25 1 -1 21 2 0.20787268D+00 0.19530835D+00 0.23902771D+06 0.23902771D+06 0.23902771D+06 0.10919285D+01  1  2 15  4  6  5       -1 -.149990704357D-01 0.100000000000D+01
-.365199105242D-01 0.000000000000D+00 0.000000000000D+00 0.338123112274D-03 0.000000000000D+00  6 -2 2 25 1 -1 21 2 0.20787268D+00 0.19530835D+00 0.23902771D+06 0.23902771D+06 0.23902771D+06 0.10919285D+01  1  2  5  4  6  5       -1 -.108555966912D-01 0.100000000000D+01
  </mgrwgt>
  </event>
  <event>
  5     66 0.17652913E-05 0.27506380E+02 0.75467711E-02 0.89897217E-01
       -2 -1    0    0    0  501 0.00000000E+00 0.00000000E+00 0.32409319E+03 0.32409335E+03 0.32000000E+00 0.0000E+00 0.9000E+01
        2 -1    0    0  502    0 0.00000000E+00 0.00000000E+00 -.13048384E+04 0.13048385E+04 0.32000000E+00 0.0000E+00 0.9000E+01
       25  1    1    2    0    0 0.11590204E+03 0.55743299E+03 -.37733154E+03 0.69438384E+03 0.12500000E+03 0.0000E+00 0.9000E+01
        1  1    1    2  502    0 -.13014280E+03 -.53384180E+03 -.66762896E+03 0.86466915E+03 0.32000000E+00 0.0000E+00 0.9000E+01
       -1  1    1    2    0  501 0.14240768E+02 -.23591193E+02 0.64215280E+02 0.69878813E+02 0.32000000E+00 0.0000E+00 0.9000E+01
#aMCatNLO 1  0  0  1  4 0.35066838D+03 0.00000000D+00  -5  6  0 0.00000000D+00 0.00000000D+00 0.00000000D+00 0.00000000D+00 0.00000000D+00
  <mgrwgt>
 0.9322262355D-02    7    4    0
 0.650299474178860D+03 0.000000000000000D+00 0.000000000000000D+00 0.650299474178860D+03
 0.650299474178860D+03 0.000000000000000D+00 0.000000000000000D+00 -.650299474178860D+03
 0.585269908457871D+03 0.115948480725950D+03 0.557539601696801D+03 0.511996885088284D+02
 0.579632683567898D+03 -.130163504984294D+03 -.533991055332957D+03 -.184078957664151D+03
 0.135696356331952D+03 0.142150242583439D+02 -.235485463638437D+02 0.132879269155323D+03
 0.000000000000000D+00 0.000000000000000D+00 -.000000000000000D+00 0.000000000000000D+00
 0.908777866732058D+03 0.000000000000000D+00 0.000000000000000D+00 0.908777866732058D+03
 0.804196616019950D+03 0.000000000000000D+00 0.000000000000000D+00 -.804196616019950D+03
 0.637844161966263D+03 -.324383195397196D+02 0.622532346369634D+03 0.511996885088284D+02
 0.574715136179988D+03 -.270207662359283D+03 -.472652350361229D+03 -.184078957664151D+03
 0.134484108365579D+03 -.185629607392910D+02 -.919193778392204D+01 0.132879269155323D+03
 0.365931076240178D+03 0.321208942638294D+03 -.140688058224483D+03 0.104581250712109D+03
 0.650299474178860D+03 0.000000000000000D+00 0.000000000000000D+00 0.650299474178860D+03
 0.650299474178860D+03 0.000000000000000D+00 0.000000000000000D+00 -.650299474178860D+03
 0.585269908457871D+03 0.115948480725950D+03 0.557539601696801D+03 0.511996885088284D+02
 0.579632683567898D+03 -.130163504984294D+03 -.533991055332957D+03 -.184078957664151D+03
 0.000000000000000D+00 0.000000000000000D+00 -.000000000000000D+00 0.000000000000000D+00
 0.135696356331952D+03 0.142150242583439D+02 -.235485463638437D+02 0.132879269155323D+03
 0.908777866732058D+03 0.000000000000000D+00 0.000000000000000D+00 0.908777866732058D+03
 0.804196616019950D+03 0.000000000000000D+00 0.000000000000000D+00 -.804196616019950D+03
 0.637844161966263D+03 -.324383195397196D+02 0.622532346369634D+03 0.511996885088284D+02
 0.574715136179988D+03 -.270207662359283D+03 -.472652350361229D+03 -.184078957664151D+03
 0.365931076240178D+03 0.321208942638294D+03 -.140688058224483D+03 0.104581250712109D+03
 0.134484108365579D+03 -.185629607392910D+02 -.919193778392204D+01 0.132879269155323D+03
0.662746781113D-03 0.000000000000D+00 0.000000000000D+00 0.155542254256D-05 0.000000000000D+00  6 -2 2 25 1 -1 21 0 0.49860506D-01 0.20074439D+00 0.33649207D+06 0.33649207D+06 0.33649207D+06 0.10808826D+01  1  2  2  1  6  1       -2 0.527192309200D-02 0.100000000000D+01
0.250363447407D-03 0.000000000000D+00 -.254512214471D-05 0.155542254256D-05 0.000000000000D+00  6 -2 2 25 1 -1 21 2 0.49860506D-01 0.20074439D+00 0.33649207D+06 0.33649207D+06 0.33649207D+06 0.10808826D+01  1  2  3  1  6  1       -2 0.232674850935D-02 0.100000000000D+01
-.432142489604D-03 0.000000000000D+00 0.000000000000D+00 0.155542254256D-05 0.000000000000D+00  6 -2 2 25 1 -1 21 2 0.49860506D-01 0.20074439D+00 0.33649207D+06 0.33649207D+06 0.33649207D+06 0.10808826D+01  1  2 15  1  6  1       -2 -.401610899646D-02 0.100000000000D+01
-.165999601922D-04 0.000000000000D+00 0.000000000000D+00 0.155542254256D-05 0.000000000000D+00  6 -2 2 25 1 -1 21 2 0.49860506D-01 0.20074439D+00 0.33649207D+06 0.33649207D+06 0.33649207D+06 0.10808826D+01  1  2  4  1  6  1       -2 -.154271452293D-03 0.100000000000D+01
-.746217239137D-03 0.000000000000D+00 -.497999319360D-03 0.155542254256D-05 0.000000000000D+00  6 -2 2 25 1 -1 21 2 0.84653554D-01 0.20074439D+00 0.33649207D+06 0.33649207D+06 0.33649207D+06 0.10808826D+01  1  2  5  1  6  1       -2 -.224788956371D-02 0.100000000000D+01
0.937802352732D-03 0.000000000000D+00 0.435542029080D-03 0.155542254256D-05 0.000000000000D+00  6 -2 2 25 1 -1 21 2 0.49860506D-01 0.20074439D+00 0.33649207D+06 0.33649207D+06 0.33649207D+06 0.10808826D+01  1  2  6  1  6  1       -2 0.871545047365D-02 0.100000000000D+01
-.201436754347D-04 0.000000000000D+00 -.293955968323D-04 0.155542254256D-05 0.000000000000D+00  6 21 2 25 1 2 -1 2 0.84653554D-01 0.20074439D+00 0.33649207D+06 0.33649207D+06 0.33649207D+06 0.10808826D+01  3  4  5  5  5  1       -2 -.573589707717D-03 0.100000000000D+01
  </mgrwgt>
  </event>
  <event>
  5     66 0.17652913E-05 0.60671165E+02 0.75467711E-02 0.94374161E-01
       -2 -1    0    0    0  501 0.00000000E+00 0.00000000E+00 0.13039632E+04 0.13039632E+04 0.32000000E+00 0.0000E+00 0.9000E+01
        2 -1    0    0  502    0 0.00000000E+00 0.00000000E+00 -.13869080E+04 0.13869080E+04 0.32000000E+00 0.0000E+00 0.9000E+01
       25  1    1    2    0    0 -.94494950E+02 -.47618098E+03 -.12551626E+03 0.51677553E+03 0.12500000E+03 0.0000E+00 0.9000E+01
        1  1    1    2  502    0 0.58211427E+02 0.17083216E+02 -.10169799E+04 0.10187878E+04 0.32000000E+00 0.0000E+00 0.9000E+01
       -1  1    1    2    0  501 0.36283523E+02 0.45909776E+03 0.10595513E+04 0.11553079E+04 0.32000000E+00 0.0000E+00 0.9000E+01
#aMCatNLO 1  0  0  2  4 0.86085005D-01 0.00000000D+00  -5  6  0 0.00000000D+00 0.00000000D+00 0.00000000D+00 0.00000000D+00 0.00000000D+00
  <mgrwgt>
 0.1075910779D-01    4    2    0
 0.134479626283992D+04 0.000000000000000D+00 0.000000000000000D+00 0.134479626283992D+04
 0.134479626283992D+04 0.000000000000000D+00 0.000000000000000D+00 -.134479626283992D+04
 0.513130353626625D+03 -.944987857307195D+02 -.476173537414901D+03 -.109574182972924D+03
 0.987952750736465D+03 0.582159756285086D+02 0.170848010769843D+02 -.986088052580259D+03
 0.118850942131674D+04 0.362828101022109D+02 0.459088736337917D+03 0.109566223555318D+04
 0.000000000000000D+00 -.000000000000000D+00 -.000000000000000D+00 0.000000000000000D+00
 0.197502072973234D+04 0.000000000000000D+00 0.000000000000000D+00 0.197502072973234D+04
 0.140508463403764D+04 0.000000000000000D+00 0.000000000000000D+00 -.140508463403764D+04
 0.463558829038328D+03 -.520754929140593D+02 -.429585182988147D+03 -.109574182972924D+03
 0.100292598012828D+04 0.144691420284794D+03 0.112050288133097D+03 -.986088052580259D+03
 0.124558938646657D+04 0.142009881006710D+03 0.575195948314330D+03 0.109566223555318D+04
 0.668031168136811D+03 -.234625808377444D+03 -.257661053459280D+03 0.569936095694699D+03
0.947889077132D-01 0.000000000000D+00 0.000000000000D+00 0.473401927901D-03 0.000000000000D+00  6 -2 2 25 1 -1 21 0 0.20060972D+00 0.21337046D+00 0.26136941D+06 0.26136941D+06 0.26136941D+06 0.10890090D+01  1  2  2  2  6  2        2 0.225831524906D-01 0.100000000000D+01
0.372034604603D-01 0.000000000000D+00 -.364014364111D-03 0.473401927901D-03 0.000000000000D+00  6 -2 2 25 1 -1 21 2 0.20060972D+00 0.21337046D+00 0.26136941D+06 0.26136941D+06 0.26136941D+06 0.10890090D+01  1  2  3  2  6  2        2 0.105117095323D-01 0.100000000000D+01
-.776458237555D-01 0.000000000000D+00 0.000000000000D+00 0.473401927901D-03 0.000000000000D+00  6 -2 2 25 1 -1 21 2 0.20060972D+00 0.21337046D+00 0.26136941D+06 0.26136941D+06 0.26136941D+06 0.10890090D+01  1  2 15  2  6  2        2 -.219385598977D-01 0.100000000000D+01
-.140576597689D-02 0.000000000000D+00 0.000000000000D+00 0.473401927901D-03 0.000000000000D+00  6 -2 2 25 1 -1 21 2 0.20060972D+00 0.21337046D+00 0.26136941D+06 0.26136941D+06 0.26136941D+06 0.10890090D+01  1  2  4  2  6  2        2 -.397194331833D-03 0.100000000000D+01
  </mgrwgt>
  </event>
  <event>
  5     66 0.17652913E-05 0.30760321E+02 0.75467711E-02 0.95375448E-01
       -2 -1    0    0    0  501 0.00000000E+00 0.00000000E+00 0.57553283E+03 0.57553292E+03 0.32000000E+00 0.0000E+00 0.9000E+01
        2 -1    0    0  502    0 -.00000000E+00 -.00000000E+00 -.86648967E+03 0.86648973E+03 0.32000000E+00 0.0000E+00 0.9000E+01
       25  1    1    2    0    0 -.39349549E+03 0.22467233E+03 -.48249506E+03 0.67360437E+03 0.12500000E+03 0.0000E+00 0.9000E+01
        1  1    1    2  502    0 0.30729073E+02 0.15042448E+01 -.19178062E+03 0.19423298E+03 0.32000000E+00 0.0000E+00 0.9000E+01
       -1  1    1    2    0  501 0.36276642E+03 -.22617658E+03 0.38331885E+03 0.57418531E+03 0.32000000E+00 0.0000E+00 0.9000E+01
#aMCatNLO 1  0  0  4  2 0.94380067D+01 0.00000000D+00  -5  6  0 0.00000000D+00 0.00000000D+00 0.00000000D+00 0.00000000D+00 0.00000000D+00
  <mgrwgt>
 0.1156060068D-01    9    2    0
 0.706182244054013D+03 0.000000000000000D+00 0.000000000000000D+00 0.706182244054013D+03
 0.706182244054013D+03 -.000000000000000D+00 -.000000000000000D+00 -.706182244054013D+03
 0.588383886014248D+03 -.393495824416806D+03 0.224676064524070D+03 -.353910016130854D+03
 0.158760973891352D+03 0.307235213510046D+02 0.150417888444347D+01 -.155752526504736D+03
 0.665219628202427D+03 0.362772303065802D+03 -.226180243408513D+03 0.509662542635590D+03
 0.000000000000000D+00 0.000000000000000D+00 0.000000000000000D+00 -.000000000000000D+00
 0.706182244054013D+03 0.000000000000000D+00 0.000000000000000D+00 0.706182244054013D+03
 0.706182244054013D+03 -.000000000000000D+00 -.000000000000000D+00 -.706182244054013D+03
 0.588748820460009D+03 -.393343888421488D+03 0.224683503089244D+03 -.354680253854174D+03
 0.129238424242810D+03 0.314960657708836D+02 0.787695792846246D+01 -.125094051319453D+03
 0.664644030551709D+03 0.362943952496251D+03 -.226171839702250D+03 0.508792367887058D+03
 0.297332128534987D+02 -.109612984564648D+01 -.638862131545632D+01 -.290180627134315D+02
0.367617195925D-03 0.000000000000D+00 0.000000000000D+00 0.157405439842D-04 0.000000000000D+00  6 -2 2 25 1 -1 21 0 0.88543524D-01 0.13330611D+00 0.21544090D+06 0.21544090D+06 0.21544090D+06 0.10953534D+01  1  2  2  3  6  4        1 0.160466020652D-02 0.100000000000D+01
0.107695234012D-03 0.000000000000D+00 -.141174682818D-05 0.157405439842D-04 0.000000000000D+00  6 -2 2 25 1 -1 21 2 0.88543524D-01 0.13330611D+00 0.21544090D+06 0.21544090D+06 0.21544090D+06 0.10953534D+01  1  2  3  3  6  4        1 0.564017082091D-03 0.100000000000D+01
-.256656961494D-03 0.000000000000D+00 0.000000000000D+00 0.157405439842D-04 0.000000000000D+00  6 -2 2 25 1 -1 21 2 0.88543524D-01 0.13330611D+00 0.21544090D+06 0.21544090D+06 0.21544090D+06 0.10953534D+01  1  2 15  3  6  4        1 -.134415335877D-02 0.100000000000D+01
0.612150084881D-08 0.000000000000D+00 0.000000000000D+00 0.157405439842D-04 0.000000000000D+00  6 -2 2 25 1 -1 21 2 0.88543524D-01 0.13330611D+00 0.21926630D+06 0.21926630D+06 0.21926630D+06 0.10947709D+01  1  2 12  3  6  4        1 0.320032551170D-07 0.100000000000D+01
0.124222657781D-02 0.000000000000D+00 0.000000000000D+00 0.157405439842D-04 0.000000000000D+00  6 -2 2 25 1 -1 21 2 0.88543524D-01 0.13330611D+00 0.21926630D+06 0.21926630D+06 0.21926630D+06 0.10947709D+01  1  2 12  3  6  4        1 0.649437042725D-02 0.100000000000D+01
-.120709542564D-02 0.000000000000D+00 0.000000000000D+00 0.157405439842D-04 0.000000000000D+00  6 -2 2 25 1 -1 21 2 0.88543524D-01 0.13330611D+00 0.21544090D+06 0.21544090D+06 0.21544090D+06 0.10953534D+01  1  2  4  3  6  4        1 -.632175087433D-02 0.100000000000D+01
-.511284789196D-02 0.000000000000D+00 0.000000000000D+00 0.157405439842D-04 0.000000000000D+00  6 -2 2 25 1 -1 21 2 0.88543524D-01 0.13330611D+00 0.21544090D+06 0.21544090D+06 0.21544090D+06 0.10953534D+01  1  2  5  3  6  4        1 -.267767982090D-01 0.100000000000D+01
0.712982390934D-02 0.000000000000D+00 -.000000000000D+00 0.157405439842D-04 0.000000000000D+00  6 -2 2 25 1 -1 21 2 0.88543524D-01 0.13330611D+00 0.21544090D+06 0.21544090D+06 0.21544090D+06 0.10953534D+01  1  2  6  3  6  4        1 0.373400226489D-01 0.100000000000D+01
0.383988781294D-07 0.000000000000D+00 0.000000000000D+00 0.157405439842D-04 0.495935701170D-06  6 -2 2 25 1 -1 21 2 0.88543524D-01 0.13330611D+00 0.21926630D+06 0.21926630D+06 0.21926630D+06 0.10947709D+01  1  2 11  3  6  4        1 0.200749640216D-06 0.100000000000D+01
  </mgrwgt>
  </event>
  <event>
  5     66 0.17652913E-05 0.12731935E+03 0.75467711E-02 0.92775376E-01
       -2 -1    0    0    0  501 0.00000000E+00 0.00000000E+00 0.29378499E+03 0.29378516E+03 0.32000000E+00 0.0000E+00 0.9000E+01
        2 -1    0    0  502    0 0.00000000E+00 0.00000000E+00 -.14096586E+04 0.14096586E+04 0.32000000E+00 0.0000E+00 0.9000E+01
       25  1    1    2    0    0 -.24760674E+03 0.37800769E+03 -.40282824E+03 0.61813793E+03 0.12500000E+03 0.0000E+00 0.9000E+01
        1  1    1    2  502    0 -.40226471E+02 -.12077148E+03 -.68667804E+03 0.69837723E+03 0.32000000E+00 0.0000E+00 0.9000E+01
       -1  1    1    2    0  501 0.28783321E+03 -.25723621E+03 -.26367318E+02 0.38692863E+03 0.32000000E+00 0.0000E+00 0.9000E+01
#aMCatNLO 1  0  0  2  5 0.21134593D+03 0.00000000D+00  -5  6  0 0.00000000D+00 0.00000000D+00 0.00000000D+00 0.00000000D+00 0.00000000D+00
  <mgrwgt>
 0.8962387729D-02    7    2    0
 0.643534546824792D+03 0.000000000000000D+00 0.000000000000000D+00 0.643534546824792D+03
 0.643534546824792D+03 0.000000000000000D+00 0.000000000000000D+00 -.643534546824792D+03
 0.468844067921812D+03 -.247573940655342D+03 0.378006190484698D+03 0.286773239758335D+01
 0.329033360091286D+03 -.402295727877116D+02 -.120796517699399D+03 -.303401936114421D+03
 0.489191665636486D+03 0.287803513443054D+03 -.257209672785299D+03 0.300534203716837D+03
 0.000000000000000D+00 0.000000000000000D+00 -.000000000000000D+00 -.000000000000000D+00
 0.705464410669483D+03 0.000000000000000D+00 0.000000000000000D+00 0.705464410669483D+03
 0.861615966607003D+03 0.000000000000000D+00 0.000000000000000D+00 -.861615966607003D+03
 0.548818582916098D+03 -.300816315979823D+03 0.441676529946133D+03 0.286773239758335D+01
 0.322461002827779D+03 -.743146474082259D+02 -.800355963762926D+02 -.303401936114421D+03
 0.433026342505911D+03 0.239554639142632D+03 -.199510853252590D+03 0.300534203716837D+03
 0.262774449026699D+03 0.135576324245417D+03 -.162130080317250D+03 -.156151555937520D+03
0.544551595642D-03 0.000000000000D+00 0.000000000000D+00 0.106972492867D-05 0.000000000000D+00  6 -2 2 25 1 -1 21 0 0.45197707D-01 0.21687057D+00 0.24115164D+06 0.24115164D+06 0.24115164D+06 0.10916384D+01  1  2  2  2  6  2        2 0.464443465410D-02 0.100000000000D+01
0.577462099777D-04 0.000000000000D+00 -.209122151099D-05 0.106972492867D-05 0.000000000000D+00  6 -2 2 25 1 -1 21 2 0.45197707D-01 0.21687057D+00 0.24115164D+06 0.24115164D+06 0.24115164D+06 0.10916384D+01  1  2  3  2  6  2        2 0.586914594351D-03 0.100000000000D+01
-.326017013295D-03 0.000000000000D+00 0.000000000000D+00 0.106972492867D-05 0.000000000000D+00  6 -2 2 25 1 -1 21 2 0.45197707D-01 0.21687057D+00 0.24115164D+06 0.24115164D+06 0.24115164D+06 0.10916384D+01  1  2 15  2  6  2        2 -.331353595644D-02 0.100000000000D+01
-.545688013831D-04 0.000000000000D+00 0.000000000000D+00 0.106972492867D-05 0.000000000000D+00  6 -2 2 25 1 -1 21 2 0.45197707D-01 0.21687057D+00 0.24115164D+06 0.24115164D+06 0.24115164D+06 0.10916384D+01  1  2  4  2  6  2        2 -.554620397431D-03 0.100000000000D+01
-.132359818724D-02 0.000000000000D+00 -.437701385614D-03 0.106972492867D-05 0.000000000000D+00  6 -2 2 25 1 -1 21 2 0.45197707D-01 0.30197896D+00 0.24115164D+06 0.24115164D+06 0.24115164D+06 0.10916384D+01  1  2  5  2  6  2        2 -.671882098526D-02 0.100000000000D+01
0.141328250634D-02 0.000000000000D+00 0.414764268965D-03 0.106972492867D-05 0.000000000000D+00  6 -2 2 25 1 -1 21 2 0.45197707D-01 0.21687057D+00 0.24115164D+06 0.24115164D+06 0.24115164D+06 0.10916384D+01  1  2  6  2  6  2        2 0.143641657043D-01 0.100000000000D+01
-.435274018646D-04 0.000000000000D+00 -.181648200323D-04 0.106972492867D-05 0.000000000000D+00  6 -2 21 25 1 -1 -2 2 0.45197707D-01 0.30197896D+00 0.24115164D+06 0.24115164D+06 0.24115164D+06 0.10916384D+01  1  2  5  6  6  2        2 -.461498847008D-04 0.100000000000D+01
  </mgrwgt>
  </event>
  <event>
  5     66 0.17652913E-05 0.14823657E+03 0.75467711E-02 0.93102831E-01
       -2 -1    0    0    0  501 0.00000000E+00 0.00000000E+00 0.41374366E+03 0.41374378E+03 0.32000000E+00 0.0000E+00 0.9000E+01
        2 -1    0    0  502    0 0.00000000E+00 0.00000000E+00 -.20279465E+04 0.20279465E+04 0.32000000E+00 0.0000E+00 0.9000E+01
       25  1    1    2    0    0 0.34956682E+03 0.41258141E+03 -.76100027E+03 0.94189532E+03 0.12500000E+03 0.0000E+00 0.9000E+01
        1  1    1    2  502    0 -.20360931E+03 -.38657724E+03 -.11157683E+04 0.11982644E+04 0.32000000E+00 0.0000E+00 0.9000E+01
       -1  1    1    2    0  501 -.14595750E+03 -.26004170E+02 0.26256571E+03 0.30153054E+03 0.32000000E+00 0.0000E+00 0.9000E+01
#aMCatNLO 1  0  0  1  5 0.85478176D+01 0.00000000D+00  -5  6  0 0.00000000D+00 0.00000000D+00 0.00000000D+00 0.00000000D+00 0.00000000D+00
  <mgrwgt>
 0.3591752875D-02   13    4    0
 0.915996822798548D+03 0.000000000000000D+00 0.000000000000000D+00 0.915996822798548D+03
 0.915996822798548D+03 0.000000000000000D+00 0.000000000000000D+00 -.915996822798548D+03
 0.584860546989284D+03 0.349591107417359D+03 0.412638494636563D+03 -.184261742592923D+03
 0.613982890061342D+03 -.203652626480094D+03 -.386637713624505D+03 -.431290940571503D+03
 0.633150208546470D+03 -.145938480937265D+03 -.260007810120576D+02 0.615552683164427D+03
 0.000000000000000D+00 -.000000000000000D+00 -.000000000000000D+00 0.000000000000000D+00
 0.967424150327771D+03 0.000000000000000D+00 0.000000000000000D+00 0.967424150327771D+03
 0.916362048916691D+03 0.000000000000000D+00 0.000000000000000D+00 -.916362048916691D+03
 0.586636512914673D+03 0.352316565805127D+03 0.412841429559327D+03 -.184261742592923D+03
 0.612908029815818D+03 -.200798295673041D+03 -.386425182989486D+03 -.431290940571503D+03
 0.632469044198809D+03 -.142994049639761D+03 -.257815415840684D+02 0.615552683164427D+03
 0.517726123151621D+02 -.852422049232459D+01 -.634704985772605D+00 0.510621014110793D+02
 0.915996822798548D+03 0.000000000000000D+00 0.000000000000000D+00 0.915996822798548D+03
 0.915996822798548D+03 0.000000000000000D+00 0.000000000000000D+00 -.915996822798548D+03
 0.584860546989284D+03 0.349591107417359D+03 0.412638494636563D+03 -.184261742592923D+03
 0.613982890061342D+03 -.203652626480094D+03 -.386637713624505D+03 -.431290940571503D+03
 0.000000000000000D+00 -.000000000000000D+00 -.000000000000000D+00 0.000000000000000D+00
 0.633150208546470D+03 -.145938480937265D+03 -.260007810120576D+02 0.615552683164427D+03
 0.967424150327771D+03 0.000000000000000D+00 0.000000000000000D+00 0.967424150327771D+03
 0.916362048916691D+03 0.000000000000000D+00 0.000000000000000D+00 -.916362048916691D+03
 0.586636512914673D+03 0.352316565805127D+03 0.412841429559327D+03 -.184261742592923D+03
 0.612908029815818D+03 -.200798295673041D+03 -.386425182989486D+03 -.431290940571503D+03
 0.517726123151621D+02 -.852422049232459D+01 -.634704985772605D+00 0.510621014110793D+02
 0.632469044198809D+03 -.142994049639761D+03 -.257815415840684D+02 0.615552683164427D+03
0.279776991019D-04 0.000000000000D+00 0.000000000000D+00 0.315261158787D-05 0.000000000000D+00  6 -2 2 25 1 -1 21 0 0.63652882D-01 0.31199178D+00 0.32507440D+06 0.32507440D+06 0.32507440D+06 0.10819820D+01  1  2  2  1  6  1       -2 0.541216802667D-04 0.100000000000D+01
0.417685231463D-05 0.000000000000D+00 -.107441731249D-06 0.315261158787D-05 0.000000000000D+00  6 -2 2 25 1 -1 21 2 0.63652882D-01 0.31199178D+00 0.32507440D+06 0.32507440D+06 0.32507440D+06 0.10819820D+01  1  2  3  1  6  1       -2 0.945907137258D-05 0.100000000000D+01
-.172936076923D-04 0.000000000000D+00 0.000000000000D+00 0.315261158787D-05 0.000000000000D+00  6 -2 2 25 1 -1 21 2 0.63652882D-01 0.31199178D+00 0.32507440D+06 0.32507440D+06 0.32507440D+06 0.10819820D+01  1  2 15  1  6  1       -2 -.391638145494D-04 0.100000000000D+01
0.142338301832D-07 0.000000000000D+00 0.000000000000D+00 0.315261158787D-05 0.000000000000D+00  6 -2 2 25 1 -1 21 2 0.67238884D-01 0.31199178D+00 0.32848733D+06 0.32848733D+06 0.32848733D+06 0.10816491D+01  1  2 12  1  6  1       -2 0.286526913996D-07 0.100000000000D+01
0.396570942715D-02 0.000000000000D+00 0.000000000000D+00 0.315261158787D-05 0.000000000000D+00  6 -2 2 25 1 -1 21 2 0.68556662D-01 0.31199178D+00 0.32848733D+06 0.32848733D+06 0.32848733D+06 0.10816491D+01  1  2 12  1  6  1       -2 0.765687917670D-02 0.100000000000D+01
-.236898021378D-02 0.000000000000D+00 0.000000000000D+00 0.315261158787D-05 0.000000000000D+00  6 -2 2 25 1 -1 21 2 0.63652882D-01 0.31199178D+00 0.32507440D+06 0.32507440D+06 0.32507440D+06 0.10819820D+01  1  2  4  1  6  1       -2 -.536488993012D-02 0.100000000000D+01
-.620955428554D-02 0.000000000000D+00 -.139838806038D-03 0.315261158787D-05 0.000000000000D+00  6 -2 2 25 1 -1 21 2 0.67239106D-01 0.31199178D+00 0.32507440D+06 0.32507440D+06 0.32507440D+06 0.10819820D+01  1  2  5  1  6  1       -2 -.125152420770D-01 0.100000000000D+01
0.620810122959D-02 0.000000000000D+00 0.139629018046D-03 0.315261158787D-05 0.000000000000D+00  6 -2 2 25 1 -1 21 2 0.63652882D-01 0.31199178D+00 0.32507440D+06 0.32507440D+06 0.32507440D+06 0.10819820D+01  1  2  6  1  6  1       -2 0.140591211265D-01 0.100000000000D+01
0.431339152929D-05 0.000000000000D+00 0.000000000000D+00 0.315261158787D-05 0.307365817151D-05  6 -2 2 25 1 -1 21 2 0.67226582D-01 0.31211618D+00 0.32848733D+06 0.32848733D+06 0.32848733D+06 0.10816491D+01  1  2 11  1  6  1       -2 0.867736095169D-05 0.100000000000D+01
0.236632104167D-09 0.000000000000D+00 0.000000000000D+00 0.315261158787D-05 0.000000000000D+00  6 21 2 25 1 2 -1 2 0.67238884D-01 0.31199178D+00 0.32848733D+06 0.32848733D+06 0.32848733D+06 0.10816491D+01  3  4 12  5  5  1       -2 0.469469953124D-08 0.100000000000D+01
0.868531697805D-04 0.000000000000D+00 0.000000000000D+00 0.315261158787D-05 0.000000000000D+00  6 21 2 25 1 2 -1 2 0.68556662D-01 0.31199178D+00 0.32848733D+06 0.32848733D+06 0.32848733D+06 0.10816491D+01  3  4 12  5  5  1       -2 0.164697598740D-02 0.100000000000D+01
-.969366204968D-04 0.000000000000D+00 -.132606557518D-05 0.315261158787D-05 0.000000000000D+00  6 21 2 25 1 2 -1 2 0.67239106D-01 0.31199178D+00 0.32507440D+06 0.32507440D+06 0.32507440D+06 0.10819820D+01  3  4  5  5  5  1       -2 -.192613835026D-02 0.100000000000D+01
0.967984778573D-07 0.000000000000D+00 0.000000000000D+00 0.315261158787D-05 0.255587958803D-08  6 21 2 25 1 2 -1 2 0.67226582D-01 0.31211618D+00 0.32848733D+06 0.32848733D+06 0.32848733D+06 0.10816491D+01  3  4 11  5  5  1       -2 0.191929686566D-05 0.100000000000D+01
  </mgrwgt>
  </event>
  <event>
  5     66 0.17652913E-05 0.80526886E+02 0.75467711E-02 0.93461814E-01
       -2 -1    0    0    0  501 0.00000000E+00 0.00000000E+00 0.42711501E+03 0.42711513E+03 0.32000000E+00 0.0000E+00 0.9000E+01
        2 -1    0    0  502    0 -.00000000E+00 -.00000000E+00 -.27556987E+04 0.27556988E+04 0.32000000E+00 0.0000E+00 0.9000E+01
       25  1    1    2    0    0 0.48009132E+03 -.63820366E+01 -.40982197E+03 0.64351181E+03 0.12500000E+03 0.0000E+00 0.9000E+01
        1  1    1    2  502    0 0.48033650E+02 -.64621585E+02 -.19988234E+04 0.20004445E+04 0.32000000E+00 0.0000E+00 0.9000E+01
       -1  1    1    2    0  501 -.52812497E+03 0.71003622E+02 0.80061639E+02 0.53885756E+03 0.32000000E+00 0.0000E+00 0.9000E+01
#aMCatNLO 1  0  0  4  2 0.58984656D+01 0.00000000D+00  -5  6  0 0.00000000D+00 0.00000000D+00 0.00000000D+00 0.00000000D+00 0.00000000D+00
  <mgrwgt>
 0.2221825364D-01    9    2    0
 0.108489654295599D+04 0.000000000000000D+00 0.000000000000000D+00 0.108489654295599D+04
 0.108489654295599D+04 -.000000000000000D+00 -.000000000000000D+00 -.108489654295599D+04
 0.504123291011797D+03 0.480058995266395D+03 -.637108727784770D+01 0.895436365761576D+02
 0.789358433937933D+03 0.480384543993201D+02 -.646288344006710D+02 -.785240191210232D+03
 0.876311360962249D+03 -.528097449665714D+03 0.709999216785184D+02 0.695696554634074D+03
 0.000000000000000D+00 0.000000000000000D+00 -.000000000000000D+00 0.000000000000000D+00
 0.108489654295599D+04 0.000000000000000D+00 0.000000000000000D+00 0.108489654295599D+04
 0.108489654295599D+04 -.000000000000000D+00 -.000000000000000D+00 -.108489654295599D+04
 0.504120880545048D+03 0.480060241736825D+03 -.637276422461896D+01 0.895232616766948D+02
 0.394255963446627D+03 0.216533489014683D+02 -.268923992225470D+02 -.392741258411482D+03
 0.876281702067864D+03 -.528095282972873D+03 0.709970067047835D+02 0.695661137709815D+03
 0.395134539852440D+03 0.263816923345806D+02 -.377318432576179D+02 -.392443140975028D+03
0.672705695644D-04 0.000000000000D+00 0.000000000000D+00 0.388718575322D-04 0.000000000000D+00  6 -2 2 25 1 -1 21 0 0.65710012D-01 0.42395366D+00 0.30773803D+06 0.30773803D+06 0.30773803D+06 0.10837346D+01  1  2  2  3  6  4        1 0.467360602130D-04 0.100000000000D+01
0.210548558626D-04 0.000000000000D+00 -.258336699875D-06 0.388718575322D-04 0.000000000000D+00  6 -2 2 25 1 -1 21 2 0.65710012D-01 0.42395366D+00 0.30773803D+06 0.30773803D+06 0.30773803D+06 0.10837346D+01  1  2  3  3  6  4        1 0.171800770519D-04 0.100000000000D+01
-.532888744096D-04 0.000000000000D+00 0.000000000000D+00 0.388718575322D-04 0.000000000000D+00  6 -2 2 25 1 -1 21 2 0.65710012D-01 0.42395366D+00 0.30773803D+06 0.30773803D+06 0.30773803D+06 0.10837346D+01  1  2 15  3  6  4        1 -.434819869743D-04 0.100000000000D+01
0.237762473382D-08 0.000000000000D+00 0.000000000000D+00 0.388718575322D-04 0.000000000000D+00  6 -2 2 25 1 -1 21 2 0.65710012D-01 0.42395366D+00 0.30775922D+06 0.30775922D+06 0.30775922D+06 0.10837323D+01  1  2 12  3  6  4        1 0.194004663045D-08 0.100000000000D+01
0.355367433951D-01 0.000000000000D+00 0.000000000000D+00 0.388718575322D-04 0.000000000000D+00  6 -2 2 25 1 -1 21 2 0.65710012D-01 0.42395366D+00 0.30775922D+06 0.30775922D+06 0.30775922D+06 0.10837323D+01  1  2 12  3  6  4        1 0.289965604328D-01 0.100000000000D+01
-.462262101566D-01 0.000000000000D+00 0.000000000000D+00 0.388718575322D-04 0.000000000000D+00  6 -2 2 25 1 -1 21 2 0.65710012D-01 0.42395366D+00 0.30773803D+06 0.30773803D+06 0.30773803D+06 0.10837346D+01  1  2  4  3  6  4        1 -.377190828325D-01 0.100000000000D+01
-.481218952771D-01 0.000000000000D+00 0.000000000000D+00 0.388718575322D-04 0.000000000000D+00  6 -2 2 25 1 -1 21 2 0.65710012D-01 0.42395366D+00 0.30773803D+06 0.30773803D+06 0.30773803D+06 0.10837346D+01  1  2  5  3  6  4        1 -.392659001865D-01 0.100000000000D+01
0.770305585547D-01 0.000000000000D+00 -.000000000000D+00 0.388718575322D-04 0.000000000000D+00  6 -2 2 25 1 -1 21 2 0.65710012D-01 0.42395366D+00 0.30773803D+06 0.30773803D+06 0.30773803D+06 0.10837346D+01  1  2  6  3  6  4        1 0.628544284489D-01 0.100000000000D+01
0.898550402924D-02 0.000000000000D+00 0.000000000000D+00 0.388718575322D-04 0.163719104120D-05  6 -2 2 25 1 -1 21 2 0.65710012D-01 0.42395366D+00 0.30775922D+06 0.30775922D+06 0.30775922D+06 0.10837323D+01  1  2 11  3  6  4        1 0.733181168871D-02 0.100000000000D+01
  </mgrwgt>
  </event>
  <event>
  6     66 0.17652913E-05 0.10851407E+02 0.75467711E-02 0.95081997E-01
       -2 -1    0    0    0  501 0.00000000E+00 0.00000000E+00 0.57968473E+03 0.57968482E+03 0.32000000E+00 0.0000E+00 0.9000E+01
        2 -1    0    0  502    0 -.00000000E+00 -.00000000E+00 -.80302666E+03 0.80302673E+03 0.32000000E+00 0.0000E+00 0.9000E+01
       25  1    1    2    0    0 -.43356207E+03 -.15728338E+03 -.43328627E+03 0.64503963E+03 0.12500000E+03 0.0000E+00 0.9000E+01
        1  1    1    2  502    0 0.42229109E+03 0.14814130E+03 -.54084770E+02 0.45077808E+03 0.32000000E+00 0.0000E+00 0.9000E+01
       -1  1    1    2    0  503 -.13583143E+01 -.10866880E+02 0.26296877E+03 0.26319691E+03 0.32000000E+00 0.0000E+00 0.9000E+01
       21  1    1    2  503  501 0.12629297E+02 0.20008962E+02 0.10603313E+01 0.23696931E+02 0.75000000E+00 0.0000E+00 0.9000E+01
#aMCatNLO 2  0  0  5  2 0.23442061D+02 0.00000000D+00  -5  6  0 0.00000000D+00 0.00000000D+00 0.00000000D+00 0.00000000D+00 0.00000000D+00
  <mgrwgt>
 0.8449699361D-03    2    2    0
 0.682277363544473D+03 0.000000000000000D+00 0.000000000000000D+00 0.682277363544473D+03
 0.682277363544473D+03 -.000000000000000D+00 -.000000000000000D+00 -.682277363544473D+03
 0.587893421452501D+03 -.434187077461197D+03 -.157638041167666D+03 -.341504765310315D+03
 0.447809318595506D+03 0.422414252468446D+03 0.148088906774214D+03 0.130023391323641D+02
 0.328851987040940D+03 0.117728249927511D+02 0.954913439345208D+01 0.328502426177951D+03
 0.000000000000000D+00 0.000000000000000D+00 0.000000000000000D+00 0.000000000000000D+00
 0.682277363544473D+03 0.000000000000000D+00 0.000000000000000D+00 0.682277363544473D+03
 0.682277363544473D+03 -.000000000000000D+00 -.000000000000000D+00 -.682277363544473D+03
 0.582858250700469D+03 -.433891619978656D+03 -.157398390683600D+03 -.333260482403961D+03
 0.448310804258152D+03 0.422640402387213D+03 0.148272340739189D+03 0.193127019416667D+02
 0.309193254172021D+03 -.138830161232571D+01 -.108993096635411D+02 0.308997971017571D+03
 0.241924179583057D+02 0.126395192037692D+02 0.200253596079529D+02 0.494980944472335D+01
-.106613891542D-02 0.000000000000D+00 0.000000000000D+00 0.342338115012D-05 0.000000000000D+00  6 -2 2 25 1 -1 21 2 0.89182278D-01 0.12354258D+00 0.22151683D+06 0.22151683D+06 0.22151683D+06 0.10944333D+01  1  2  8  4  6  5       -1 -.604595699135D-02 0.100000000000D+01
0.121999962572D-02 0.000000000000D+00 0.000000000000D+00 0.342338115012D-05 0.644883233874D-07  6 -2 2 25 1 -1 21 2 0.89182278D-01 0.12354258D+00 0.23075915D+06 0.23075915D+06 0.23075915D+06 0.10930854D+01  1  2  1  4  6  5       -1 0.689092692740D-02 0.100000000000D+01
  </mgrwgt>
  </event>
  <event>
  5     66 0.17652913E-05 0.11250355E+03 0.75467711E-02 0.79353456E-01
       -2 -1    0    0    0  501 0.00000000E+00 0.00000000E+00 0.12958694E+04 0.12958695E+04 0.32000000E+00 0.0000E+00 0.9000E+01
        2 -1    0    0  502    0 0.00000000E+00 0.00000000E+00 -.10400631E+04 0.10400632E+04 0.32000000E+00 0.0000E+00 0.9000E+01
       25  1    1    2    0    0 0.10601689E+02 -.61968503E+03 -.27266045E+03 0.68854241E+03 0.12500000E+03 0.0000E+00 0.9000E+01
        1  1    1    2  502    0 -.10869005E+03 -.29028942E+02 -.45303726E+03 0.46679660E+03 0.32000000E+00 0.0000E+00 0.9000E+01
       -1  1    1    2    0  501 0.98088364E+02 0.64871397E+03 0.98150399E+03 0.11805936E+04 0.32000000E+00 0.0000E+00 0.9000E+01
#aMCatNLO 1  0  0  1  5 0.31731202D+02 0.00000000D+00  -5  6  0 0.00000000D+00 0.00000000D+00 0.00000000D+00 0.00000000D+00 0.00000000D+00
  <mgrwgt>
 0.2253870854D-02    3    2    0
 0.116094190924752D+04 0.000000000000000D+00 0.000000000000000D+00 0.116094190924752D+04
 0.116094190924752D+04 0.000000000000000D+00 0.000000000000000D+00 -.116094190924752D+04
 0.722733585899776D+03 0.106060361960325D+02 -.619681679185188D+03 -.350144205529641D+03
 0.519552901718013D+03 -.108693905968748D+03 -.290290240223350D+02 -.507225953844217D+03
 0.107959733087726D+04 0.980878697727154D+02 0.648710703207523D+03 0.857370159373857D+03
 0.000000000000000D+00 0.000000000000000D+00 -.000000000000000D+00 -.000000000000000D+00
 0.233270792815160D+04 0.000000000000000D+00 0.000000000000000D+00 0.233270792815160D+04
 0.342393239068343D+04 0.000000000000000D+00 0.000000000000000D+00 -.342393239068343D+04
 0.705204416942623D+03 -.496308404690034D+03 -.335805408597651D+03 -.350144205529641D+03
 0.804348669783457D+03 -.578675672382959D+03 0.234164644046387D+03 -.507225953844217D+03
 0.173359563643010D+04 -.900588639493501D+03 0.120797779072297D+04 0.857370159373857D+03
 0.251349159567886D+04 0.197557271656649D+04 -.110633702617171D+04 -.109122446253182D+04
0.164332708736D-01 0.000000000000D+00 0.000000000000D+00 0.400555066175D-05 0.000000000000D+00  6 -2 2 25 1 -1 21 0 0.19936453D+00 0.16000972D+00 0.49058833D+06 0.49058833D+06 0.49058833D+06 0.10690941D+01  1  2  2  1  6  1       -2 0.608823384082D-02 0.100000000000D+01
0.304144941434D-02 0.000000000000D+00 -.631080871344D-04 0.400555066175D-05 0.000000000000D+00  6 -2 2 25 1 -1 21 2 0.19936453D+00 0.16000972D+00 0.49058833D+06 0.49058833D+06 0.49058833D+06 0.10690941D+01  1  2  3  1  6  1       -2 0.128789308877D-02 0.100000000000D+01
-.120965652167D-01 0.000000000000D+00 0.000000000000D+00 0.400555066175D-05 0.000000000000D+00  6 -2 2 25 1 -1 21 2 0.19936453D+00 0.16000972D+00 0.49058833D+06 0.49058833D+06 0.49058833D+06 0.10690941D+01  1  2 15  1  6  1       -2 -.512225607535D-02 0.100000000000D+01
  </mgrwgt>
  </event>
  <event>
  6     66 0.17652913E-05 0.50093863E+02 0.75467711E-02 0.93696799E-01
       -2 -1    0    0    0  501 0.00000000E+00 0.00000000E+00 0.10580372E+04 0.10580372E+04 0.32000000E+00 0.0000E+00 0.9000E+01
        2 -1    0    0  502    0 0.00000000E+00 0.00000000E+00 -.96619173E+03 0.96619178E+03 0.32000000E+00 0.0000E+00 0.9000E+01
       25  1    1    2    0    0 -.43405476E+03 -.30019601E+03 0.10993362E+03 0.55338195E+03 0.12500000E+03 0.0000E+00 0.9000E+01
        1  1    1    2  503    0 0.51961099E+02 0.15608237E+01 -.54590498E+03 0.54837463E+03 0.32000000E+00 0.0000E+00 0.9000E+01
       -1  1    1    2    0  501 0.38589214E+03 0.29886752E+03 0.64297478E+03 0.80724916E+03 0.32000000E+00 0.0000E+00 0.9000E+01
       21  1    1    2  502  503 -.37984798E+01 -.23233148E+00 -.11515797E+03 0.11522327E+03 0.75000000E+00 0.0000E+00 0.9000E+01
#aMCatNLO 2  0  0  4  5 0.12180873D+02 0.00000000D+00  -5  6  0 0.00000000D+00 0.00000000D+00 0.00000000D+00 0.00000000D+00 0.00000000D+00
  <mgrwgt>
 0.6062254854D-02    2    2    0
 0.101107214487394D+04 0.000000000000000D+00 0.000000000000000D+00 0.101107214487394D+04
 0.101107214487394D+04 -.000000000000000D+00 -.000000000000000D+00 -.101107214487394D+04
 0.548998293571220D+03 -.434061280237186D+03 -.300188812751663D+03 0.851563740521690D+02
 0.694076139752171D+03 0.481995277428117D+02 0.132992305122425D+01 -.692399252312799D+03
 0.779069856424483D+03 0.385861752494376D+03 0.298858889700439D+03 0.607242878260630D+03
 0.000000000000000D+00 0.000000000000000D+00 0.000000000000000D+00 -.000000000000000D+00
 0.101107214487394D+04 0.000000000000000D+00 0.000000000000000D+00 0.101107214487394D+04
 0.101107214487394D+04 -.000000000000000D+00 -.000000000000000D+00 -.101107214487394D+04
 0.548955622511773D+03 -.434047203969952D+03 -.300188424358806D+03 0.849541646662035D+02
 0.573824780716184D+03 0.519824283940127D+02 0.156200651216694D+01 -.571463267619095D+03
 0.778856343834986D+03 0.385881725814936D+03 0.298859440804997D+03 0.606955956108690D+03
 0.120507542684931D+03 -.381695023899652D+01 -.233022958357175D+00 -.120446853155798D+03
-.184239618606D-08 0.000000000000D+00 0.000000000000D+00 0.810705163609D-04 0.000000000000D+00  6 -2 2 25 1 -1 21 2 0.16277496D+00 0.14864489D+00 0.29498570D+06 0.29498570D+06 0.29498570D+06 0.10850939D+01  1  2 13  3  6  4        1 -.168768789266D-08 0.100000000000D+01
0.661797621432D-02 0.000000000000D+00 0.000000000000D+00 0.810705163609D-04 0.112176240916D-04  6 -2 2 25 1 -1 21 2 0.16277496D+00 0.14864489D+00 0.29498570D+06 0.29498570D+06 0.29498570D+06 0.10850939D+01  1  2  1  3  6  4        1 0.606225654142D-02 0.100000000000D+01
  </mgrwgt>
  </event>
  <event>
  5     66 0.17652913E-05 0.86734865E+02 0.75467711E-02 0.93727184E-01
       -2 -1    0    0    0  501 0.00000000E+00 0.00000000E+00 0.16575480E+04 0.16575481E+04 0.32000000E+00 0.0000E+00 0.9000E+01
        2 -1    0    0  502    0 0.00000000E+00 0.00000000E+00 -.13542289E+04 0.13542290E+04 0.32000000E+00 0.0000E+00 0.9000E+01
       25  1    1    2    0    0 0.44725678E+03 -.26233822E+03 -.38812508E+02 0.53478162E+03 0.12500000E+03 0.0000E+00 0.9000E+01
        1  1    1    2  502    0 -.86586400E+02 -.49536660E+01 -.10298198E+04 0.10334654E+04 0.32000000E+00 0.0000E+00 0.9000E+01
       -1  1    1    2    0  501 -.36067038E+03 0.26729189E+03 0.13719514E+04 0.14435300E+04 0.32000000E+00 0.0000E+00 0.9000E+01
#aMCatNLO 1  0  0  1  5 0.89668789D+01 0.00000000D+00  -5  6  0 0.00000000D+00 0.00000000D+00 0.00000000D+00 0.00000000D+00 0.00000000D+00
  <mgrwgt>
 0.1043441708D-01   13    4    0
 0.149823216521046D+04 0.000000000000000D+00 0.000000000000000D+00 0.149823216521046D+04
 0.149823216521046D+04 0.000000000000000D+00 0.000000000000000D+00 -.149823216521046D+04
 0.541428220771927D+03 0.447256094904300D+03 -.262332442361169D+03 -.930762778802147D+02
 0.114303354992730D+04 -.865932815986847D+02 -.495383336965716D+01 -.113973802225614D+04
 0.131200255972169D+04 -.360662813305615D+03 0.267286275730826D+03 0.123281430013635D+04
 0.000000000000000D+00 0.000000000000000D+00 -.000000000000000D+00 0.000000000000000D+00
 0.176023968284638D+04 0.000000000000000D+00 0.000000000000000D+00 0.176023968284638D+04
 0.149831559552319D+04 0.000000000000000D+00 0.000000000000000D+00 -.149831559552319D+04
 0.539885458191899D+03 0.445791737731954D+03 -.261644493603376D+03 -.930762778802147D+02
 0.114326690093288D+04 -.896894788710270D+02 -.349925308855244D+01 -.113973802225614D+04
 0.131332538789784D+04 -.364218134841490D+03 0.268956550633936D+03 0.123281430013635D+04
 0.262077531346957D+03 0.811587598056297D+01 -.381280394200702D+01 0.261924087323185D+03
 0.149823216521046D+04 0.000000000000000D+00 0.000000000000000D+00 0.149823216521046D+04
 0.149823216521046D+04 0.000000000000000D+00 0.000000000000000D+00 -.149823216521046D+04
 0.541428220771927D+03 0.447256094904300D+03 -.262332442361169D+03 -.930762778802147D+02
 0.114303354992730D+04 -.865932815986847D+02 -.495383336965716D+01 -.113973802225614D+04
 0.000000000000000D+00 0.000000000000000D+00 -.000000000000000D+00 0.000000000000000D+00
 0.131200255972169D+04 -.360662813305615D+03 0.267286275730826D+03 0.123281430013635D+04
 0.176023968284638D+04 0.000000000000000D+00 0.000000000000000D+00 0.176023968284638D+04
 0.149831559552319D+04 0.000000000000000D+00 0.000000000000000D+00 -.149831559552319D+04
 0.539885458191899D+03 0.445791737731954D+03 -.261644493603376D+03 -.930762778802147D+02
 0.114326690093288D+04 -.896894788710270D+02 -.349925308855244D+01 -.113973802225614D+04
 0.262077531346957D+03 0.811587598056297D+01 -.381280394200702D+01 0.261924087323185D+03
 0.131332538789784D+04 -.364218134841490D+03 0.268956550633936D+03 0.123281430013635D+04
0.231151357506D-03 0.000000000000D+00 0.000000000000D+00 0.412888680522D-03 0.000000000000D+00  6 -2 2 25 1 -1 21 0 0.25500739D+00 0.20834292D+00 0.28569674D+06 0.28569674D+06 0.28569674D+06 0.10861250D+01  1  2  2  1  6  1       -2 0.250500447979D-04 0.100000000000D+01
0.714805216435D-04 0.000000000000D+00 -.887682076372D-06 0.412888680522D-03 0.000000000000D+00  6 -2 2 25 1 -1 21 2 0.25500739D+00 0.20834292D+00 0.28569674D+06 0.28569674D+06 0.28569674D+06 0.10861250D+01  1  2  3  1  6  1       -2 0.913817359339D-05 0.100000000000D+01
-.165902660711D-03 0.000000000000D+00 0.000000000000D+00 0.412888680522D-03 0.000000000000D+00  6 -2 2 25 1 -1 21 2 0.25500739D+00 0.20834292D+00 0.28569674D+06 0.28569674D+06 0.28569674D+06 0.10861250D+01  1  2 15  1  6  1       -2 -.212092368428D-04 0.100000000000D+01
0.715105895083D-09 0.000000000000D+00 0.000000000000D+00 0.412888680522D-03 0.000000000000D+00  6 -2 2 25 1 -1 21 2 0.29960885D+00 0.20834292D+00 0.29337785D+06 0.29337785D+06 0.29337785D+06 0.10852698D+01  1  2 12  1  6  1       -2 0.471151602007D-10 0.100000000000D+01
0.480882571477D+00 0.000000000000D+00 0.000000000000D+00 0.412888680522D-03 0.000000000000D+00  6 -2 2 25 1 -1 21 2 0.29989117D+00 0.20834292D+00 0.29337785D+06 0.29337785D+06 0.29337785D+06 0.10852698D+01  1  2 12  1  6  1       -2 0.315509155108D-01 0.100000000000D+01
-.392494528940D+00 0.000000000000D+00 0.000000000000D+00 0.412888680522D-03 0.000000000000D+00  6 -2 2 25 1 -1 21 2 0.25500739D+00 0.20834292D+00 0.28569674D+06 0.28569674D+06 0.28569674D+06 0.10861250D+01  1  2  4  1  6  1       -2 -.501770700247D-01 0.100000000000D+01
-.484638594450D+00 0.000000000000D+00 -.333135886668D-03 0.412888680522D-03 0.000000000000D+00  6 -2 2 25 1 -1 21 2 0.29960790D+00 0.20834292D+00 0.28569674D+06 0.28569674D+06 0.28569674D+06 0.10861250D+01  1  2  5  1  6  1       -2 -.320588479725D-01 0.100000000000D+01
0.478467887455D+00 0.000000000000D+00 0.328854861917D-03 0.412888680522D-03 0.000000000000D+00  6 -2 2 25 1 -1 21 2 0.25500739D+00 0.20834292D+00 0.28569674D+06 0.28569674D+06 0.28569674D+06 0.10861250D+01  1  2  6  1  6  1       -2 0.611680289105D-01 0.100000000000D+01
0.819761120456D-04 0.000000000000D+00 0.000000000000D+00 0.412888680522D-03 0.249744483973D-04  6 -2 2 25 1 -1 21 2 0.29960252D+00 0.20835452D+00 0.29337785D+06 0.29337785D+06 0.29337785D+06 0.10852698D+01  1  2 11  1  6  1       -2 0.540102361449D-05 0.100000000000D+01
0.172835563057D-10 0.000000000000D+00 0.000000000000D+00 0.412888680522D-03 0.000000000000D+00  6 21 2 25 1 2 -1 2 0.29960885D+00 0.20834292D+00 0.29337785D+06 0.29337785D+06 0.29337785D+06 0.10852698D+01  3  4 12  5  5  1       -2 0.821844325252D-11 0.100000000000D+01
0.116767554751D-01 0.000000000000D+00 0.000000000000D+00 0.412888680522D-03 0.000000000000D+00  6 21 2 25 1 2 -1 2 0.29989117D+00 0.20834292D+00 0.29337785D+06 0.29337785D+06 0.29337785D+06 0.10852698D+01  3  4 12  5  5  1       -2 0.552856655475D-02 0.100000000000D+01
-.117105255872D-01 0.000000000000D+00 -.805150950829D-05 0.412888680522D-03 0.000000000000D+00  6 21 2 25 1 2 -1 2 0.29960790D+00 0.20834292D+00 0.28569674D+06 0.28569674D+06 0.28569674D+06 0.10861250D+01  3  4  5  5  5  1       -2 -.559668812399D-02 0.100000000000D+01
0.238096492281D-05 0.000000000000D+00 0.000000000000D+00 0.412888680522D-03 0.724621826715D-06  6 21 2 25 1 2 -1 2 0.29960252D+00 0.20835452D+00 0.29337785D+06 0.29337785D+06 0.29337785D+06 0.10852698D+01  3  4 11  5  5  1       -2 0.113216308722D-05 0.100000000000D+01
  </mgrwgt>
  </event>
  <event>
  5     66 0.17652913E-05 0.38836424E+02 0.75467711E-02 0.93822905E-01
       -2 -1    0    0    0  501 0.00000000E+00 0.00000000E+00 0.44127453E+03 0.44127464E+03 0.32000000E+00 0.0000E+00 0.9000E+01
        2 -1    0    0  502    0 0.00000000E+00 0.00000000E+00 -.30780500E+04 0.30780500E+04 0.32000000E+00 0.0000E+00 0.9000E+01
       25  1    1    2    0    0 0.44028420E+03 -.26577742E+03 -.38347952E+03 0.65358194E+03 0.12500000E+03 0.0000E+00 0.9000E+01
        1  1    1    2  502    0 -.40145031E+03 0.26655819E+03 -.25354956E+04 0.25808823E+04 0.32000000E+00 0.0000E+00 0.9000E+01
       -1  1    1    2    0  501 -.38833892E+02 -.78077239E+00 0.28219966E+03 0.28486037E+03 0.32000000E+00 0.0000E+00 0.9000E+01
#aMCatNLO 1  0  0  1  2 0.20122225D+02 0.00000000D+00  -5  6  0 0.00000000D+00 0.00000000D+00 0.00000000D+00 0.00000000D+00 0.00000000D+00
  <mgrwgt>
 0.4004536045D-02    9    4    0
 0.116544638435670D+04 0.000000000000000D+00 0.000000000000000D+00 0.116544638435670D+04
 0.116544638435670D+04 0.000000000000000D+00 0.000000000000000D+00 -.116544638435670D+04
 0.553095123187438D+03 0.440330653204685D+03 -.265810902372341D+03 0.160445303209739D+03
 0.102856797081349D+04 -.401502076199824D+03 0.266591567906530D+03 -.908667755184336D+03
 0.749229674712486D+03 -.388285770048603D+02 -.780665534188739D+00 0.748222451974597D+03
 0.000000000000000D+00 0.000000000000000D+00 0.000000000000000D+00 0.000000000000000D+00
 0.134692454482630D+04 0.000000000000000D+00 0.000000000000000D+00 0.134692454482630D+04
 0.116604773108472D+04 0.000000000000000D+00 0.000000000000000D+00 -.116604773108472D+04
 0.552986611634102D+03 0.437745525025283D+03 -.269824670193146D+03 0.160445303209739D+03
 0.102854824957948D+04 -.406309956975922D+03 0.259126670305267D+03 -.908667755184336D+03
 0.749444761858749D+03 -.423312706989696D+02 -.621908028962559D+01 0.748222451974597D+03
 0.181992652838698D+03 0.108957026496089D+02 0.169170801775040D+02 0.180876813741579D+03
 0.116544638435670D+04 0.000000000000000D+00 0.000000000000000D+00 0.116544638435670D+04
 0.116544638435670D+04 0.000000000000000D+00 0.000000000000000D+00 -.116544638435670D+04
 0.553095123187438D+03 0.440330653204685D+03 -.265810902372341D+03 0.160445303209739D+03
 0.102856797081349D+04 -.401502076199824D+03 0.266591567906530D+03 -.908667755184336D+03
 0.000000000000000D+00 0.000000000000000D+00 0.000000000000000D+00 0.000000000000000D+00
 0.749229674712486D+03 -.388285770048603D+02 -.780665534188739D+00 0.748222451974597D+03
 0.134692454482630D+04 0.000000000000000D+00 0.000000000000000D+00 0.134692454482630D+04
 0.116604773108472D+04 0.000000000000000D+00 0.000000000000000D+00 -.116604773108472D+04
 0.552986611634102D+03 0.437745525025283D+03 -.269824670193146D+03 0.160445303209739D+03
 0.102854824957948D+04 -.406309956975922D+03 0.259126670305267D+03 -.908667755184336D+03
 0.181992652838698D+03 0.108957026496089D+02 0.169170801775040D+02 0.180876813741579D+03
 0.749444761858749D+03 -.423312706989696D+02 -.621908028962559D+01 0.748222451974597D+03
0.565308048476D-03 0.000000000000D+00 0.000000000000D+00 0.311513259662D-03 0.000000000000D+00  6 -2 2 25 1 -1 21 0 0.67888399D-01 0.47354616D+00 0.27567639D+06 0.27567639D+06 0.27567639D+06 0.10872792D+01  1  2  2  1  6  1       -2 0.232825125728D-03 0.100000000000D+01
0.292305816814D-03 0.000000000000D+00 -.217093175518D-05 0.311513259662D-03 0.000000000000D+00  6 -2 2 25 1 -1 21 2 0.67888399D-01 0.47354616D+00 0.27567639D+06 0.27567639D+06 0.27567639D+06 0.10872792D+01  1  2  3  1  6  1       -2 0.142319461593D-03 0.100000000000D+01
-.345041315851D-03 0.000000000000D+00 0.000000000000D+00 0.311513259662D-03 0.000000000000D+00  6 -2 2 25 1 -1 21 2 0.67888399D-01 0.47354616D+00 0.27567639D+06 0.27567639D+06 0.27567639D+06 0.10872792D+01  1  2 15  1  6  1       -2 -.167995611016D-03 0.100000000000D+01
0.103286443724D-08 0.000000000000D+00 0.000000000000D+00 0.311513259662D-03 0.000000000000D+00  6 -2 2 25 1 -1 21 2 0.78475533D-01 0.47354616D+00 0.28837645D+06 0.28837645D+06 0.28837645D+06 0.10858238D+01  1  2 12  1  6  1       -2 0.363712638632D-09 0.100000000000D+01
-.940058814267D-02 0.000000000000D+00 0.000000000000D+00 0.311513259662D-03 0.000000000000D+00  6 -2 2 25 1 -1 21 2 0.67888399D-01 0.47354616D+00 0.27567639D+06 0.27567639D+06 0.27567639D+06 0.10872792D+01  1  2  4  1  6  1       -2 -.457700998806D-02 0.100000000000D+01
-.160231017628D+00 0.000000000000D+00 -.112185478948D-02 0.311513259662D-03 0.000000000000D+00  6 -2 2 25 1 -1 21 2 0.78477245D-01 0.47354616D+00 0.27567639D+06 0.27567639D+06 0.27567639D+06 0.10872792D+01  1  2  5  1  6  1       -2 -.567926004874D-01 0.100000000000D+01
0.158734981882D+00 0.000000000000D+00 0.111017275513D-02 0.311513259662D-03 0.000000000000D+00  6 -2 2 25 1 -1 21 2 0.67888399D-01 0.47354616D+00 0.27567639D+06 0.27567639D+06 0.27567639D+06 0.10872792D+01  1  2  6  1  6  1       -2 0.772857598377D-01 0.100000000000D+01
0.229108390535D-10 0.000000000000D+00 0.000000000000D+00 0.311513259662D-03 0.000000000000D+00  6 21 2 25 1 2 -1 2 0.78475533D-01 0.47354616D+00 0.28837645D+06 0.28837645D+06 0.28837645D+06 0.10858238D+01  3  4 12  5  5  1       -2 0.776543350846D-10 0.100000000000D+01
-.354733521838D-02 0.000000000000D+00 -.248878603227D-04 0.311513259662D-03 0.000000000000D+00  6 21 2 25 1 2 -1 2 0.78477245D-01 0.47354616D+00 0.27567639D+06 0.27567639D+06 0.27567639D+06 0.10872792D+01  3  4  5  5  5  1       -2 -.121187627344D-01 0.100000000000D+01
  </mgrwgt>
  </event>
  <event>
  5     66 -.17652913E-05 0.44405585E+02 0.75467711E-02 0.92391817E-01
       -2 -1    0    0    0  501 0.00000000E+00 0.00000000E+00 0.26541269E+04 0.26541269E+04 0.32000000E+00 0.0000E+00 0.9000E+01
        2 -1    0    0  502    0 0.00000000E+00 0.00000000E+00 -.13152155E+04 0.13152156E+04 0.32000000E+00 0.0000E+00 0.9000E+01
       25  1    1    2    0    0 0.59074601E+03 0.33478242E+02 -.10270829E+04 0.11919001E+04 0.12500000E+03 0.0000E+00 0.9000E+01
        1  1    1    2  502    0 -.22457377E+02 0.38330358E+02 -.17095389E+03 0.17663206E+03 0.32000000E+00 0.0000E+00 0.9000E+01
       -1  1    1    2    0  501 -.56828864E+03 -.71808600E+02 0.25369481E+04 0.26008103E+04 0.32000000E+00 0.0000E+00 0.9000E+01
#aMCatNLO 1  0  0  5  1 0.10406218D+02 0.00000000D+00  -5  6  0 0.00000000D+00 0.00000000D+00 0.00000000D+00 0.00000000D+00 0.00000000D+00
  <mgrwgt>
 -.1475471258D-02    6    2    0
 0.186835463584250D+04 0.000000000000000D+00 0.000000000000000D+00 0.186835463584250D+04
 0.186835463584250D+04 -.000000000000000D+00 -.000000000000000D+00 -.186835463584250D+04
 0.163427151273131D+04 0.590735019787335D+03 0.334927058376792D+02 -.151826504681416D+04
 0.248723850880294D+03 -.224437748358907D+02 0.383162234553605D+02 -.244727803871888D+03
 0.185371390807341D+04 -.568291244951445D+03 -.718089292930396D+02 0.176299285068605D+04
 0.000000000000000D+00 0.000000000000000D+00 -.000000000000000D+00 0.000000000000000D+00
 0.186835463584250D+04 0.000000000000000D+00 0.000000000000000D+00 0.186835463584250D+04
 0.186835463584250D+04 -.000000000000000D+00 -.000000000000000D+00 -.186835463584250D+04
 0.163270819833493D+04 0.590253422204230D+03 0.334318514657350D+02 -.151677100110526D+04
 0.248505319025043D+03 -.225170732300206D+02 0.383069615157333D+02 -.244500412466573D+03
 0.122916045006052D+04 -.335336907383095D+03 -.148085001823963D+02 0.118244039125111D+04
 0.626335304264510D+03 -.232399441591114D+03 -.569303127990719D+02 0.578831022320724D+03
0.584990632415D-02 0.000000000000D+00 0.000000000000D+00 0.572697990285D-04 0.000000000000D+00  6 -2 2 25 1 -1 21 0 0.40832722D+00 0.20234085D+00 0.37329605D+06 0.37329605D+06 0.37329605D+06 0.10775975D+01  1  2  2  4  6  5       -1 0.606925419739D-04 0.100000000000D+01
0.805144886897D-03 0.000000000000D+00 -.224651806004D-04 0.572697990285D-04 0.000000000000D+00  6 -2 2 25 1 -1 21 2 0.40832722D+00 0.20234085D+00 0.37329605D+06 0.37329605D+06 0.37329605D+06 0.10775975D+01  1  2  3  4  6  5       -1 0.970004128815D-05 0.100000000000D+01
-.401709121217D-02 0.000000000000D+00 0.000000000000D+00 0.572697990285D-04 0.000000000000D+00  6 -2 2 25 1 -1 21 2 0.40832722D+00 0.20234085D+00 0.37329605D+06 0.37329605D+06 0.37329605D+06 0.10775975D+01  1  2 15  4  6  5       -1 -.483961970702D-04 0.100000000000D+01
-.274889177469D+00 0.000000000000D+00 0.000000000000D+00 0.572697990285D-04 0.000000000000D+00  6 -2 2 25 1 -1 21 2 0.40832722D+00 0.20234085D+00 0.37329605D+06 0.37329605D+06 0.37329605D+06 0.10775975D+01  1  2  4  4  6  5       -1 -.331174725755D-02 0.100000000000D+01
-.385707854873D+00 0.000000000000D+00 0.000000000000D+00 0.572697990285D-04 0.000000000000D+00  6 -2 2 25 1 -1 21 2 0.40832722D+00 0.20234085D+00 0.37329605D+06 0.37329605D+06 0.37329605D+06 0.10775975D+01  1  2  5  4  6  5       -1 -.464684329283D-02 0.100000000000D+01
0.536300817390D+00 0.000000000000D+00 -.000000000000D+00 0.572697990285D-04 0.000000000000D+00  6 -2 2 25 1 -1 21 2 0.40832722D+00 0.20234085D+00 0.37329605D+06 0.37329605D+06 0.37329605D+06 0.10775975D+01  1  2  6  4  6  5       -1 0.646112290622D-02 0.100000000000D+01
  </mgrwgt>
  </event>
  <event>
  5     66 0.17652913E-05 0.23570625E+02 0.75467711E-02 0.92002028E-01
       -2 -1    0    0    0  501 0.00000000E+00 0.00000000E+00 0.75161049E+03 0.75161056E+03 0.32000000E+00 0.0000E+00 0.9000E+01
        2 -1    0    0  502    0 -.00000000E+00 -.00000000E+00 -.18101419E+04 0.18101419E+04 0.32000000E+00 0.0000E+00 0.9000E+01
       25  1    1    2    0    0 -.40416650E+03 -.47754043E+03 -.12078361E+04 0.13659752E+04 0.12500000E+03 0.0000E+00 0.9000E+01
        1  1    1    2  502    0 0.23081690E+02 0.47917442E+01 -.38574184E+03 0.38646164E+03 0.32000000E+00 0.0000E+00 0.9000E+01
       -1  1    1    2    0  501 0.38108481E+03 0.47274869E+03 0.53504647E+03 0.80931563E+03 0.32000000E+00 0.0000E+00 0.9000E+01
#aMCatNLO 1  0  0  4  2 0.14893845D+01 0.00000000D+00  -5  6  0 0.00000000D+00 0.00000000D+00 0.00000000D+00 0.00000000D+00 0.00000000D+00
  <mgrwgt>
 0.2008084942D-01    9    2    0
 0.116641406976218D+04 0.000000000000000D+00 0.000000000000000D+00 0.116641406976218D+04
 0.116641406976218D+04 -.000000000000000D+00 -.000000000000000D+00 -.116641406976218D+04
 0.952006076340009D+03 -.404166068383136D+03 -.477543198696897D+03 -.706606575071555D+03
 0.249299140464333D+03 0.230785458704811D+02 0.479114761440651D+01 -.248182366539801D+03
 0.113152292272003D+04 0.381087522512655D+03 0.472752051082491D+03 0.954788941611356D+03
 0.000000000000000D+00 0.000000000000000D+00 0.000000000000000D+00 0.000000000000000D+00
 0.116641406976218D+04 0.000000000000000D+00 0.000000000000000D+00 0.116641406976218D+04
 0.116641406976218D+04 -.000000000000000D+00 -.000000000000000D+00 -.116641406976218D+04
 0.952012993957318D+03 -.404165140235600D+03 -.477543006011800D+03 -.706616556196590D+03
 0.592171483664883D+02 0.399893591856142D+01 0.121180729718975D+01 -.590695411803105D+02
 0.113151337973751D+04 0.381088625669446D+03 0.472752280099824D+03 0.954777078469518D+03
 0.190084617463053D+03 0.190775786475927D+02 0.357891861478651D+01 -.189090981092618D+03
0.691265679193D-04 0.000000000000D+00 0.000000000000D+00 0.491326667167D-04 0.000000000000D+00  6 -2 2 25 1 -1 21 0 0.11563239D+00 0.27848338D+00 0.40245000D+06 0.40245000D+06 0.40245000D+06 0.10752365D+01  1  2  2  3  6  4        1 0.437240037851D-04 0.100000000000D+01
0.303135748005D-04 0.000000000000D+00 -.265464222254D-06 0.491326667167D-04 0.000000000000D+00  6 -2 2 25 1 -1 21 2 0.11563239D+00 0.27848338D+00 0.40245000D+06 0.40245000D+06 0.40245000D+06 0.10752365D+01  1  2  3  3  6  4        1 0.221676715869D-04 0.100000000000D+01
-.415382996702D-04 0.000000000000D+00 0.000000000000D+00 0.491326667167D-04 0.000000000000D+00  6 -2 2 25 1 -1 21 2 0.11563239D+00 0.27848338D+00 0.40245000D+06 0.40245000D+06 0.40245000D+06 0.10752365D+01  1  2 15  3  6  4        1 -.303760738029D-04 0.100000000000D+01
0.489177579429D-12 0.000000000000D+00 0.000000000000D+00 0.491326667167D-04 0.000000000000D+00  6 -2 2 25 1 -1 21 2 0.11563239D+00 0.27848338D+00 0.40246168D+06 0.40246168D+06 0.40246168D+06 0.10752356D+01  1  2 12  3  6  4        1 0.357723845738D-12 0.100000000000D+01
0.410503827316D-05 0.000000000000D+00 0.000000000000D+00 0.491326667167D-04 0.000000000000D+00  6 -2 2 25 1 -1 21 2 0.11563239D+00 0.27848338D+00 0.40246168D+06 0.40246168D+06 0.40246168D+06 0.10752356D+01  1  2 12  3  6  4        1 0.300191615423D-05 0.100000000000D+01
-.391060704051D-01 0.000000000000D+00 0.000000000000D+00 0.491326667167D-04 0.000000000000D+00  6 -2 2 25 1 -1 21 2 0.11563239D+00 0.27848338D+00 0.40245000D+06 0.40245000D+06 0.40245000D+06 0.10752365D+01  1  2  4  3  6  4        1 -.285974363466D-01 0.100000000000D+01
-.225341141649D-01 0.000000000000D+00 0.000000000000D+00 0.491326667167D-04 0.000000000000D+00  6 -2 2 25 1 -1 21 2 0.11563239D+00 0.27848338D+00 0.40245000D+06 0.40245000D+06 0.40245000D+06 0.10752365D+01  1  2  5  3  6  4        1 -.164787177229D-01 0.100000000000D+01
0.703067877412D-01 0.000000000000D+00 -.000000000000D+00 0.491326667167D-04 0.000000000000D+00  6 -2 2 25 1 -1 21 2 0.11563239D+00 0.27848338D+00 0.40245000D+06 0.40245000D+06 0.40245000D+06 0.10752365D+01  1  2  6  3  6  4        1 0.514138563741D-01 0.100000000000D+01
0.187407063130D-01 0.000000000000D+00 0.000000000000D+00 0.491326667167D-04 0.142569192605D-04  6 -2 2 25 1 -1 21 2 0.11563239D+00 0.27848338D+00 0.40246168D+06 0.40246168D+06 0.40246168D+06 0.10752356D+01  1  2 11  3  6  4        1 0.137046295988D-01 0.100000000000D+01
  </mgrwgt>
  </event>
  <event>
  5     66 0.17652913E-05 0.15664162E+03 0.75467711E-02 0.91453918E-01
       -2 -1    0    0    0  501 0.00000000E+00 0.00000000E+00 0.19018290E+04 0.19018290E+04 0.32000000E+00 0.0000E+00 0.9000E+01
        2 -1    0    0  502    0 0.00000000E+00 0.00000000E+00 -.15216811E+04 0.15216811E+04 0.32000000E+00 0.0000E+00 0.9000E+01
       25  1    1    2    0    0 -.60668769E+03 -.23199584E+03 -.14844174E+03 0.67790263E+03 0.12500000E+03 0.0000E+00 0.9000E+01
        1  1    1    2  502    0 0.45149040E+03 0.25325414E+03 -.10439673E+04 0.11652678E+04 0.32000000E+00 0.0000E+00 0.9000E+01
       -1  1    1    2    0  501 0.15519729E+03 -.21258294E+02 0.15725569E+04 0.15803397E+04 0.32000000E+00 0.0000E+00 0.9000E+01
#aMCatNLO 1  0  0  1  2 0.28420138D+02 0.00000000D+00  -5  6  0 0.00000000D+00 0.00000000D+00 0.00000000D+00 0.00000000D+00 0.00000000D+00
  <mgrwgt>
 0.1249761902D-02    1    2    0
 0.170116938538436D+04 0.000000000000000D+00 0.000000000000000D+00 0.170116938538436D+04
 0.170116938538436D+04 0.000000000000000D+00 0.000000000000000D+00 -.170116938538436D+04
 0.698725318842773D+03 -.606721052070784D+03 -.232015733788502D+03 -.225056293936959D+03
 0.128918766148268D+04 0.451528559478947D+03 0.253273370083630D+03 -.118066904189978D+04
 0.141442579044326D+04 0.155192492591837D+03 -.212576362951278D+02 0.140572533583674D+04
 0.000000000000000D+00 -.000000000000000D+00 -.000000000000000D+00 -.000000000000000D+00
 0.182735634990481D+04 0.000000000000000D+00 0.000000000000000D+00 0.182735634990481D+04
 0.237903453857843D+04 0.000000000000000D+00 0.000000000000000D+00 -.237903453857843D+04
 0.659081121930971D+03 -.593011377707774D+03 -.128257926672299D+03 -.225056293936959D+03
 0.135271026730132D+04 0.478203613607648D+03 0.455156000393779D+03 -.118066904189978D+04
 0.143121775588035D+04 0.183924751625066D+03 0.196194369627498D+03 0.140572533583674D+04
 0.763381743370597D+03 -.691169875249400D+02 -.523092443348978D+03 -.551678188673619D+03
0.225493094775D-01 0.000000000000D+00 0.000000000000D+00 0.551587354384D-04 0.000000000000D+00  6 -2 2 25 1 -1 21 2 0.29258908D+00 0.23410478D+00 0.44611821D+06 0.44611821D+06 0.44611821D+06 0.10720279D+01  1  2 14  1  6  1       -2 0.124976190224D-02 0.100000000000D+01
  </mgrwgt>
  </event>
  <event>
  6     66 0.17652913E-05 0.45795039E+02 0.75467711E-02 0.95068373E-01
       -2 -1    0    0    0  501 0.00000000E+00 0.00000000E+00 0.47902084E+03 0.47902095E+03 0.32000000E+00 0.0000E+00 0.9000E+01
        2 -1    0    0  503    0 0.00000000E+00 0.00000000E+00 -.16899728E+04 0.16899729E+04 0.32000000E+00 0.0000E+00 0.9000E+01
       25  1    1    2    0    0 0.44270088E+03 0.14525866E+03 -.13916010E+03 0.50207040E+03 0.12500000E+03 0.0000E+00 0.9000E+01
        1  1    1    2  502    0 -.40898756E+02 -.26580552E+02 -.11471455E+04 0.11481821E+04 0.32000000E+00 0.0000E+00 0.9000E+01
       -1  1    1    2    0  501 -.40707307E+03 -.12150280E+03 0.14496287E+03 0.44887164E+03 0.32000000E+00 0.0000E+00 0.9000E+01
       21  1    1    2  503  502 0.52709417E+01 0.28246965E+01 -.69609241E+02 0.69869669E+02 0.75000000E+00 0.0000E+00 0.9000E+01
#aMCatNLO 2  0  0  2  1 0.59801118D+01 0.00000000D+00  -5  6  0 0.00000000D+00 0.00000000D+00 0.00000000D+00 0.00000000D+00 0.00000000D+00
  <mgrwgt>
 0.2201140986D-02    5    2    0
 0.880855147235169D+03 0.000000000000000D+00 0.000000000000000D+00 0.880855147235169D+03
 0.880855147235169D+03 0.000000000000000D+00 0.000000000000000D+00 -.880855147235169D+03
 0.509631981473764D+03 0.444181410708857D+03 0.146064202560290D+03 0.159586589825060D+03
 0.624807688638581D+03 -.390356373248127D+02 -.255827404296862D+02 -.623062107813210D+03
 0.627270624357993D+03 -.405145773384044D+03 -.120481462130603D+03 0.463475517988149D+03
 0.000000000000000D+00 0.000000000000000D+00 0.000000000000000D+00 -.000000000000000D+00
 0.881096049707165D+03 0.000000000000000D+00 0.000000000000000D+00 0.881096049707165D+03
 0.918771107979313D+03 0.000000000000000D+00 0.000000000000000D+00 -.918771107979313D+03
 0.508071754024334D+03 0.442658957888814D+03 0.145248320424579D+03 0.159586589825060D+03
 0.624969099770188D+03 -.409052641420964D+02 -.265846730351405D+02 -.623062107813210D+03
 0.628679590367845D+03 -.407024635453177D+03 -.121488343905519D+03 0.463475517988149D+03
 0.381467135241112D+02 0.527094170646008D+01 0.282469651607997D+01 -.376750582721481D+02
-.491089884491D-09 0.000000000000D+00 0.000000000000D+00 0.669204707310D-04 0.000000000000D+00  6 -2 2 25 1 -1 21 2 0.73675068D-01 0.26002805D+00 0.23130892D+06 0.23130892D+06 0.23130892D+06 0.10930070D+01  1  2 13  2  6  2        2 -.129101237238D-08 0.100000000000D+01
-.546633739243D-03 0.000000000000D+00 0.000000000000D+00 0.669204707310D-04 0.000000000000D+00  6 -2 2 25 1 -1 21 2 0.73675068D-01 0.24926525D+00 0.22722063D+06 0.22722063D+06 0.22722063D+06 0.10935944D+01  1  2  8  2  6  2        2 -.157150748790D-02 0.100000000000D+01
-.804370509849D-02 0.000000000000D+00 0.000000000000D+00 0.669204707310D-04 0.000000000000D+00  6 -2 2 25 1 -1 21 2 0.73675068D-01 0.26002066D+00 0.22722063D+06 0.22722063D+06 0.22722063D+06 0.10935944D+01  1  2  9  2  6  2        2 -.211906187180D-01 0.100000000000D+01
0.803653337945D-02 0.000000000000D+00 0.000000000000D+00 0.669204707310D-04 0.000000000000D+00  6 -2 2 25 1 -1 21 2 0.73675068D-01 0.24926525D+00 0.22722063D+06 0.22722063D+06 0.22722063D+06 0.10935944D+01  1  2 10  2  6  2        2 0.231040850133D-01 0.100000000000D+01
0.707450116603D-03 0.000000000000D+00 0.000000000000D+00 0.669204707310D-04 0.104235898582D-05  6 -2 2 25 1 -1 21 2 0.73695217D-01 0.25999474D+00 0.23130892D+06 0.23130892D+06 0.23130892D+06 0.10930070D+01  1  2  1  2  6  2        2 0.185918347008D-02 0.100000000000D+01
  </mgrwgt>
  </event>
  <event>
  5     66 0.17652913E-05 0.69291272E+02 0.75467711E-02 0.94452136E-01
       -2 -1    0    0    0  501 0.00000000E+00 0.00000000E+00 0.25618803E+03 0.25618823E+03 0.32000000E+00 0.0000E+00 0.9000E+01
        2 -1    0    0  502    0 -.00000000E+00 -.00000000E+00 -.18372653E+04 0.18372654E+04 0.32000000E+00 0.0000E+00 0.9000E+01
       25  1    1    2    0    0 0.10703493E+03 0.46243137E+03 -.97760343E+03 0.10939071E+04 0.12500000E+03 0.0000E+00 0.9000E+01
        1  1    1    2  502    0 -.67218506E+02 -.16815472E+02 -.54379574E+03 0.54819248E+03 0.32000000E+00 0.0000E+00 0.9000E+01
       -1  1    1    2    0  501 -.39816423E+02 -.44561590E+03 -.59678142E+02 0.45135403E+03 0.32000000E+00 0.0000E+00 0.9000E+01
#aMCatNLO 1  0  0  4  2 0.16004308D+02 0.00000000D+00  -5  6  0 0.00000000D+00 0.00000000D+00 0.00000000D+00 0.00000000D+00 0.00000000D+00
  <mgrwgt>
 0.2174293271D-02    8    2    0
 0.686065321052715D+03 0.000000000000000D+00 0.000000000000000D+00 0.686065321052715D+03
 0.686065321052715D+03 -.000000000000000D+00 -.000000000000000D+00 -.686065321052715D+03
 0.542494583555783D+03 0.107036034461695D+03 0.462430908374079D+03 -.231033148042442D+03
 0.209775000518905D+03 -.672197283421631D+02 -.168163161159207D+02 -.198000683020544D+03
 0.619861058030743D+03 -.398163061195319D+02 -.445614592258158D+03 0.429033831062986D+03
 0.000000000000000D+00 0.000000000000000D+00 0.000000000000000D+00 -.000000000000000D+00
 0.686065321052715D+03 0.000000000000000D+00 0.000000000000000D+00 0.686065321052715D+03
 0.686065321052715D+03 -.000000000000000D+00 -.000000000000000D+00 -.686065321052715D+03
 0.542913253446487D+03 0.106542313960618D+03 0.462307394634530D+03 -.232487438305813D+03
 0.167823666221546D+03 -.678575413088883D+02 -.776343988010325D+01 -.153296660214048D+03
 0.618851506757441D+03 -.403797604887820D+02 -.445755551274564D+03 0.427374134531716D+03
 0.425422156799569D+02 0.169498783705191D+01 -.878840347986214D+01 -.415900360118546D+02
0.190855988009D-03 0.000000000000D+00 0.000000000000D+00 0.273820209122D-05 0.000000000000D+00  6 -2 2 25 1 -1 21 0 0.39413561D-01 0.28265622D+00 0.25377480D+06 0.25377480D+06 0.25377480D+06 0.10899698D+01  1  2  2  3  6  4        1 0.123167425855D-02 0.100000000000D+01
0.323451416675D-04 0.000000000000D+00 -.732937247492D-06 0.273820209122D-05 0.000000000000D+00  6 -2 2 25 1 -1 21 2 0.39413561D-01 0.28265622D+00 0.25377480D+06 0.25377480D+06 0.25377480D+06 0.10899698D+01  1  2  3  3  6  4        1 0.247986520055D-03 0.100000000000D+01
-.937996395014D-04 0.000000000000D+00 0.000000000000D+00 0.273820209122D-05 0.000000000000D+00  6 -2 2 25 1 -1 21 2 0.39413561D-01 0.28265622D+00 0.25377480D+06 0.25377480D+06 0.25377480D+06 0.10899698D+01  1  2 15  3  6  4        1 -.719151160982D-03 0.100000000000D+01
0.212337260809D-07 0.000000000000D+00 0.000000000000D+00 0.273820209122D-05 0.000000000000D+00  6 -2 2 25 1 -1 21 2 0.39413561D-01 0.28265622D+00 0.25778349D+06 0.25778349D+06 0.25778349D+06 0.10894588D+01  1  2 12  3  6  4        1 0.162527705191D-06 0.100000000000D+01
0.993992415458D-03 0.000000000000D+00 0.000000000000D+00 0.273820209122D-05 0.000000000000D+00  6 -2 2 25 1 -1 21 2 0.39413561D-01 0.28265622D+00 0.25778349D+06 0.25778349D+06 0.25778349D+06 0.10894588D+01  1  2 12  3  6  4        1 0.760824104284D-02 0.100000000000D+01
-.140626410751D-02 0.000000000000D+00 0.000000000000D+00 0.273820209122D-05 0.000000000000D+00  6 -2 2 25 1 -1 21 2 0.39413561D-01 0.28265622D+00 0.25377480D+06 0.25377480D+06 0.25377480D+06 0.10899698D+01  1  2  4  3  6  4        1 -.107816668693D-01 0.100000000000D+01
-.173515893036D-02 0.000000000000D+00 0.000000000000D+00 0.273820209122D-05 0.000000000000D+00  6 -2 2 25 1 -1 21 2 0.39413561D-01 0.28265622D+00 0.25377480D+06 0.25377480D+06 0.25377480D+06 0.10899698D+01  1  2  5  3  6  4        1 -.133032660454D-01 0.100000000000D+01
0.233345227089D-02 0.000000000000D+00 -.000000000000D+00 0.273820209122D-05 0.000000000000D+00  6 -2 2 25 1 -1 21 2 0.39413561D-01 0.28265622D+00 0.25377480D+06 0.25377480D+06 0.25377480D+06 0.10899698D+01  1  2  6  3  6  4        1 0.178903129972D-01 0.100000000000D+01
  </mgrwgt>
  </event>
  <event>
  5     66 -.17652913E-05 0.16867202E+02 0.75467711E-02 0.92958694E-01
       -2 -1    0    0    0  501 0.00000000E+00 0.00000000E+00 0.32900761E+03 0.32900776E+03 0.32000000E+00 0.0000E+00 0.9000E+01
        2 -1    0    0  502    0 0.00000000E+00 0.00000000E+00 -.23859042E+04 0.23859042E+04 0.32000000E+00 0.0000E+00 0.9000E+01
       25  1    1    2    0    0 0.23700805E+03 -.52184052E+03 -.11346178E+04 0.12772912E+04 0.12500000E+03 0.0000E+00 0.9000E+01
        1  1    1    2  502    0 -.22435131E+03 0.51068521E+03 -.11136369E+04 0.12455201E+04 0.32000000E+00 0.0000E+00 0.9000E+01
       -1  1    1    2    0  501 -.12656739E+02 0.11155308E+02 0.19135814E+03 0.19210069E+03 0.32000000E+00 0.0000E+00 0.9000E+01
#aMCatNLO 1  0  0  1  5 0.43679902D+02 0.00000000D+00  -5  6  0 0.00000000D+00 0.00000000D+00 0.00000000D+00 0.00000000D+00 0.00000000D+00
  <mgrwgt>
 -.4869495503D-02    1    2    0
 0.885991460946522D+03 0.000000000000000D+00 0.000000000000000D+00 0.885991460946522D+03
 0.885991460946522D+03 0.000000000000000D+00 0.000000000000000D+00 -.885991460946522D+03
 0.639983239241779D+03 0.237044627592003D+03 -.521924529859384D+03 -.255652451917109D+03
 0.615669165020368D+03 -.224390810934320D+03 0.510771797396433D+03 -.260402487909644D+03
 0.516330517630897D+03 -.126538166576830D+02 0.111527324629507D+02 0.516054939826753D+03
 0.000000000000000D+00 -.000000000000000D+00 -.000000000000000D+00 -.000000000000000D+00
 0.926833015276249D+03 0.000000000000000D+00 0.000000000000000D+00 0.926833015276249D+03
 0.977798450007304D+03 0.000000000000000D+00 0.000000000000000D+00 -.977798450007304D+03
 0.654900334902430D+03 0.280088215541609D+03 -.519097162387547D+03 -.255652451917109D+03
 0.604335521844082D+03 -.183836293071440D+03 0.513435667443136D+03 -.260402487909644D+03
 0.516684351912942D+03 0.216849202591457D+02 0.134083118049025D+02 0.516054939826753D+03
 0.128711256624098D+03 -.117936842729315D+03 -.774681686049151D+01 -.509654347310547D+02
-.214183126008D-02 0.000000000000D+00 0.000000000000D+00 0.182106731376D-04 0.000000000000D+00  6 -2 2 25 1 -1 21 2 0.50616569D-01 0.36706220D+00 0.33724629D+06 0.33724629D+06 0.33724629D+06 0.10808115D+01  1  2 14  1  6  1       -2 -.486949550250D-02 0.100000000000D+01
  </mgrwgt>
  </event>
  <event>
  6     66 0.17652913E-05 0.10010143E+03 0.75467711E-02 0.95010310E-01
       -2 -1    0    0    0  501 0.00000000E+00 0.00000000E+00 0.16311102E+04 0.16311103E+04 0.32000000E+00 0.0000E+00 0.9000E+01
        2 -1    0    0  503    0 0.00000000E+00 0.00000000E+00 -.32566245E+04 0.32566245E+04 0.32000000E+00 0.0000E+00 0.9000E+01
       25  1    1    2    0    0 0.18717580E+03 0.42104785E+03 0.11738254E+04 0.12672045E+04 0.12500000E+03 0.0000E+00 0.9000E+01
        1  1    1    2  502    0 -.94050719E+02 -.49597844E+02 -.93824344E+02 0.14180477E+03 0.32000000E+00 0.0000E+00 0.9000E+01
       -1  1    1    2    0  501 -.32522178E+01 -.12162096E+02 0.37540921E+03 0.37562038E+03 0.32000000E+00 0.0000E+00 0.9000E+01
       21  1    1    2  503  502 -.89872864E+02 -.35928791E+03 -.30809246E+04 0.31031052E+04 0.75000000E+00 0.0000E+00 0.9000E+01
#aMCatNLO 2  0  0  2  4 0.15103962D+04 0.00000000D+00  -5  6  0 0.00000000D+00 0.00000000D+00 0.00000000D+00 0.00000000D+00 0.00000000D+00
  <mgrwgt>
 0.2148064824D+00    1    2    0
 0.482057800490945D+03 0.000000000000000D+00 0.000000000000000D+00 0.482057800490945D+03
 0.482057800490945D+03 0.000000000000000D+00 0.000000000000000D+00 -.482057800490945D+03
 0.399461051932249D+03 0.145123863757014D+03 0.252829443107010D+03 0.242817768866395D+03
 0.431454498274918D+03 -.130488901555686D+03 -.195160777708727D+03 -.361991576554726D+03
 0.133200050774723D+03 -.146349622013285D+02 -.576686653982826D+02 0.119173807688332D+03
 0.000000000000000D+00 -.000000000000000D+00 -.000000000000000D+00 -.000000000000000D+00
 0.519937092683635D+03 0.000000000000000D+00 0.000000000000000D+00 0.519937092683635D+03
 0.102164539953875D+05 0.000000000000000D+00 0.000000000000000D+00 -.102164539953875D+05
 0.535668313471617D+03 0.187210064689892D+03 0.421078929488379D+03 0.242817768866395D+03
 0.377300765962814D+03 -.940902621636568D+02 -.496486562307978D+02 -.361991576554726D+03
 0.119834786488847D+03 -.324693889880559D+01 -.121423639246866D+02 0.119173807688332D+03
 0.970358722214787D+04 -.898728636274298D+02 -.359287909332895D+03 -.969651690270388D+04
0.193315544620D+02 0.000000000000D+00 0.000000000000D+00 0.108148928076D-04 0.986530648168D-07  6 -2 2 25 1 -1 21 2 0.25094003D+00 0.50101914D+00 0.23366848D+06 0.23366848D+06 0.23366848D+06 0.10926732D+01  1  2  1  2  6  2        2 0.214806482443D+00 0.100000000000D+01
  </mgrwgt>
  </event>
  <event>
  6     66 0.17652913E-05 0.22983318E+03 0.75467711E-02 0.93116115E-01
       -2 -1    0    0    0  501 0.00000000E+00 0.00000000E+00 0.89343818E+03 0.89343823E+03 0.32000000E+00 0.0000E+00 0.9000E+01
        2 -1    0    0  503    0 0.00000000E+00 0.00000000E+00 -.23640813E+04 0.23640813E+04 0.32000000E+00 0.0000E+00 0.9000E+01
       25  1    1    2    0    0 -.13705283E+03 -.46662535E+03 -.40979185E+03 0.64813352E+03 0.12500000E+03 0.0000E+00 0.9000E+01
        1  1    1    2  502    0 -.95769414E+02 0.28083832E+03 -.41163125E+03 0.50742717E+03 0.32000000E+00 0.0000E+00 0.9000E+01
       -1  1    1    2    0  501 0.71746410E+02 -.29080310E+02 0.71114264E+03 0.71534409E+03 0.32000000E+00 0.0000E+00 0.9000E+01
       21  1    1    2  503  502 0.16107583E+03 0.21486734E+03 -.13603626E+04 0.13866147E+04 0.75000000E+00 0.0000E+00 0.9000E+01
#aMCatNLO 2  0  0  2  1 0.24026387D+02 0.00000000D+00  -5  6  0 0.00000000D+00 0.00000000D+00 0.00000000D+00 0.00000000D+00 0.00000000D+00
  <mgrwgt>
 0.2341605390D-01    1    2    0
 0.924122492856514D+03 0.000000000000000D+00 0.000000000000000D+00 0.924122492856514D+03
 0.924122492856514D+03 0.000000000000000D+00 0.000000000000000D+00 -.924122492856514D+03
 0.565442633763852D+03 -.854436173755773D+02 -.397826689130489D+03 -.372201136138850D+03
 0.513418030815977D+03 -.525320512976722D+02 0.338554839678789D+03 -.382386033326904D+03
 0.769384321133199D+03 0.137975668673250D+03 0.592718494517006D+02 0.754587169465754D+03
 0.000000000000000D+00 0.000000000000000D+00 0.000000000000000D+00 -.000000000000000D+00
 0.947749733023031D+03 0.000000000000000D+00 0.000000000000000D+00 0.947749733023031D+03
 0.222860533558942D+04 0.000000000000000D+00 0.000000000000000D+00 -.222860533558942D+04
 0.625075558756523D+03 -.137049925276528D+03 -.466666997326173D+03 -.372201136138850D+03
 0.484028545457248D+03 -.957691353282246D+02 0.280878669628827D+03 -.382386033326904D+03
 0.758547609495706D+03 0.717432279099562D+02 -.290790095837604D+02 0.754587169465754D+03
 0.130870335490298D+04 0.161075832694796D+03 0.214867337281106D+03 -.128085560256639D+04
0.992746993457D-01 0.000000000000D+00 0.000000000000D+00 0.828114956201D-05 0.862532914871D-08  6 -2 2 25 1 -1 21 2 0.13745202D+00 0.36370478D+00 0.32769300D+06 0.32769300D+06 0.32769300D+06 0.10817262D+01  1  2  1  2  6  2        2 0.234160538991D-01 0.100000000000D+01
  </mgrwgt>
  </event>
  <event>
  5     66 0.17652913E-05 0.11644286E+03 0.75467711E-02 0.91791710E-01
       -2 -1    0    0    0  501 0.00000000E+00 0.00000000E+00 0.16074761E+04 0.16074761E+04 0.32000000E+00 0.0000E+00 0.9000E+01
        2 -1    0    0  502    0 0.00000000E+00 0.00000000E+00 -.10178064E+04 0.10178065E+04 0.32000000E+00 0.0000E+00 0.9000E+01
       25  1    1    2    0    0 -.51349022E+03 -.13857854E+03 -.50373584E+03 0.74313593E+03 0.12500000E+03 0.0000E+00 0.9000E+01
        1  1    1    2  502    0 0.42116785E+03 0.20954657E+03 -.25066997E+03 0.53303626E+03 0.32000000E+00 0.0000E+00 0.9000E+01
       -1  1    1    2    0  501 0.92322368E+02 -.70968031E+02 0.13440755E+04 0.13491104E+04 0.32000000E+00 0.0000E+00 0.9000E+01
#aMCatNLO 1  0  0  5  2 0.13955586D+03 0.00000000D+00  -5  6  0 0.00000000D+00 0.00000000D+00 0.00000000D+00 0.00000000D+00 0.00000000D+00
  <mgrwgt>
 0.8624672839D-03    6    2    0
 0.127910108670588D+04 0.000000000000000D+00 0.000000000000000D+00 0.127910108670588D+04
 0.127910108670588D+04 -.000000000000000D+00 -.000000000000000D+00 -.127910108670588D+04
 0.878740824552354D+03 -.513532966819900D+03 -.138595887859430D+03 -.688211819567609D+03
 0.604823853853162D+03 0.421213802946490D+03 0.209561456571458D+03 -.380098437666870D+03
 0.107463749500625D+04 0.923191638734093D+02 -.709655687120278D+02 0.106831025723448D+04
 0.000000000000000D+00 0.000000000000000D+00 0.000000000000000D+00 0.000000000000000D+00
 0.127910108670588D+04 0.000000000000000D+00 0.000000000000000D+00 0.127910108670588D+04
 0.127910108670588D+04 -.000000000000000D+00 -.000000000000000D+00 -.127910108670588D+04
 0.867280438823101D+03 -.512325963249049D+03 -.139523709248284D+03 -.674244467165823D+03
 0.599180239087147D+03 0.422046116544257D+03 0.208921658664566D+03 -.370466968788433D+03
 0.719974361714522D+03 -.723006814518228D+02 -.880692956201415D+02 0.710900479783779D+03
 0.371767133786994D+03 0.162580528156615D+03 0.186713462038600D+02 0.333810956170477D+03
0.258095061636D-02 0.000000000000D+00 0.000000000000D+00 0.100004971665D-04 0.000000000000D+00  6 -2 2 25 1 -1 21 0 0.24730402D+00 0.15658561D+00 0.32109496D+06 0.32109496D+06 0.32109496D+06 0.10823752D+01  1  2  2  4  6  5       -1 0.488745051584D-03 0.100000000000D+01
0.591635481989D-03 0.000000000000D+00 -.991152994673D-05 0.100004971665D-04 0.000000000000D+00  6 -2 2 25 1 -1 21 2 0.24730402D+00 0.15658561D+00 0.32109496D+06 0.32109496D+06 0.32109496D+06 0.10823752D+01  1  2  3  4  6  5       -1 0.131253991020D-03 0.100000000000D+01
-.197105897984D-02 0.000000000000D+00 0.000000000000D+00 0.100004971665D-04 0.000000000000D+00  6 -2 2 25 1 -1 21 2 0.24730402D+00 0.15658561D+00 0.32109496D+06 0.32109496D+06 0.32109496D+06 0.10823752D+01  1  2 15  4  6  5       -1 -.437278299756D-03 0.100000000000D+01
-.434022114909D-03 0.000000000000D+00 0.000000000000D+00 0.100004971665D-04 0.000000000000D+00  6 -2 2 25 1 -1 21 2 0.24730402D+00 0.15658561D+00 0.32109496D+06 0.32109496D+06 0.32109496D+06 0.10823752D+01  1  2  4  4  6  5       -1 -.962875562859D-04 0.100000000000D+01
-.872824740695D-02 0.000000000000D+00 0.000000000000D+00 0.100004971665D-04 0.000000000000D+00  6 -2 2 25 1 -1 21 2 0.24730402D+00 0.15658561D+00 0.32109496D+06 0.32109496D+06 0.32109496D+06 0.10823752D+01  1  2  5  4  6  5       -1 -.193635666157D-02 0.100000000000D+01
0.122262690949D-01 0.000000000000D+00 -.000000000000D+00 0.100004971665D-04 0.000000000000D+00  6 -2 2 25 1 -1 21 2 0.24730402D+00 0.15658561D+00 0.32109496D+06 0.32109496D+06 0.32109496D+06 0.10823752D+01  1  2  6  4  6  5       -1 0.271239075890D-02 0.100000000000D+01
  </mgrwgt>
  </event>
  <event>
  5     66 -.17652913E-05 0.97645732E+02 0.75467711E-02 0.93266625E-01
       -2 -1    0    0    0  501 0.00000000E+00 0.00000000E+00 0.23411859E+04 0.23411859E+04 0.32000000E+00 0.0000E+00 0.9000E+01
        2 -1    0    0  502    0 0.00000000E+00 0.00000000E+00 -.18264076E+04 0.18264076E+04 0.32000000E+00 0.0000E+00 0.9000E+01
       25  1    1    2    0    0 -.34447522E+03 0.30946018E+03 -.27455753E+03 0.55266230E+03 0.12500000E+03 0.0000E+00 0.9000E+01
        1  1    1    2  502    0 0.43873431E+03 -.33495692E+03 -.13577307E+04 0.14656455E+04 0.32000000E+00 0.0000E+00 0.9000E+01
       -1  1    1    2    0  501 -.94259089E+02 0.25496743E+02 0.21470665E+04 0.21492858E+04 0.32000000E+00 0.0000E+00 0.9000E+01
#aMCatNLO 1  0  0  5  1 0.14581251D+01 0.00000000D+00  -5  6  0 0.00000000D+00 0.00000000D+00 0.00000000D+00 0.00000000D+00 0.00000000D+00
  <mgrwgt>
 -.1614790922D+00    9    2    0
 0.206783942790285D+04 0.000000000000000D+00 0.000000000000000D+00 0.206783942790285D+04
 0.206783942790285D+04 -.000000000000000D+00 -.000000000000000D+00 -.206783942790285D+04
 0.591119837191489D+03 -.344497094623089D+03 0.309477231117214D+03 -.345460934314671D+03
 0.164595509110514D+04 0.438755339141002D+03 -.334973746094712D+03 -.155063035689924D+04
 0.189860392750907D+04 -.942582445179112D+02 0.254965149774973D+02 0.189609129121392D+04
 0.000000000000000D+00 0.000000000000000D+00 0.000000000000000D+00 0.000000000000000D+00
 0.206783942790285D+04 0.000000000000000D+00 0.000000000000000D+00 0.206783942790285D+04
 0.206783942790285D+04 -.000000000000000D+00 -.000000000000000D+00 -.206783942790285D+04
 0.591119552713572D+03 -.344497120410425D+03 0.309477238092595D+03 -.345460415578686D+03
 0.164595370725971D+04 0.438755267336967D+03 -.334973726671979D+03 -.155062891249503D+04
 0.153733287548092D+04 -.777648944075233D+02 0.208453274692443D+02 0.153522326179450D+04
 0.361272720351495D+03 -.164932525190169D+02 0.465116111013938D+01 0.360866066279223D+03
0.130138791157D-02 0.000000000000D+00 0.000000000000D+00 0.571073068123D-03 0.000000000000D+00  6 -2 2 25 1 -1 21 0 0.36018245D+00 0.28098579D+00 0.31884115D+06 0.31884115D+06 0.31884115D+06 0.10826002D+01  1  2  2  4  6  5       -1 0.158522602294D-04 0.100000000000D+01
0.419891308290D-03 0.000000000000D+00 -.499767224372D-05 0.571073068123D-03 0.000000000000D+00  6 -2 2 25 1 -1 21 2 0.36018245D+00 0.28098579D+00 0.31884115D+06 0.31884115D+06 0.31884115D+06 0.10826002D+01  1  2  3  4  6  5       -1 0.599456235928D-05 0.100000000000D+01
-.998903088006D-03 0.000000000000D+00 0.000000000000D+00 0.571073068123D-03 0.000000000000D+00  6 -2 2 25 1 -1 21 2 0.36018245D+00 0.28098579D+00 0.31884115D+06 0.31884115D+06 0.31884115D+06 0.10826002D+01  1  2 15  4  6  5       -1 -.142608021021D-04 0.100000000000D+01
0.498580673308D-11 0.000000000000D+00 0.000000000000D+00 0.571073068123D-03 0.000000000000D+00  6 -2 2 25 1 -1 21 2 0.36018245D+00 0.28098579D+00 0.31884174D+06 0.31884174D+06 0.31884174D+06 0.10826001D+01  1  2 12  4  6  5       -1 0.711796587916D-13 0.100000000000D+01
0.193238758514D-01 0.000000000000D+00 0.000000000000D+00 0.571073068123D-03 0.000000000000D+00  6 -2 2 25 1 -1 21 2 0.36018245D+00 0.28098579D+00 0.31884174D+06 0.31884174D+06 0.31884174D+06 0.10826001D+01  1  2 12  4  6  5       -1 0.275876495675D-03 0.100000000000D+01
-.180281357610D+03 0.000000000000D+00 0.000000000000D+00 0.571073068123D-03 0.000000000000D+00  6 -2 2 25 1 -1 21 2 0.36018245D+00 0.28098579D+00 0.31884115D+06 0.31884115D+06 0.31884115D+06 0.10826002D+01  1  2  4  4  6  5       -1 -.257377997370D+01 0.100000000000D+01
-.122091663201D+03 0.000000000000D+00 0.000000000000D+00 0.571073068123D-03 0.000000000000D+00  6 -2 2 25 1 -1 21 2 0.36018245D+00 0.28098579D+00 0.31884115D+06 0.31884115D+06 0.31884115D+06 0.10826002D+01  1  2  5  4  6  5       -1 -.174303700543D+01 0.100000000000D+01
0.147485668170D+03 0.000000000000D+00 -.000000000000D+00 0.571073068123D-03 0.000000000000D+00  6 -2 2 25 1 -1 21 2 0.36018245D+00 0.28098579D+00 0.31884115D+06 0.31884115D+06 0.31884115D+06 0.10826002D+01  1  2  6  4  6  5       -1 0.210557355556D+01 0.100000000000D+01
0.143556680219D+03 0.000000000000D+00 0.000000000000D+00 0.571073068123D-03 0.132444289833D-02  6 -2 2 25 1 -1 21 2 0.36018245D+00 0.28098579D+00 0.31884174D+06 0.31884174D+06 0.31884174D+06 0.10826001D+01  1  2 11  4  6  5       -1 0.204948086886D+01 0.100000000000D+01
  </mgrwgt>
  </event>
  <event>
  5     66 0.17652913E-05 0.17029407E+02 0.75467711E-02 0.90444923E-01
       -2 -1    0    0    0  501 0.00000000E+00 0.00000000E+00 0.56371368E+03 0.56371377E+03 0.32000000E+00 0.0000E+00 0.9000E+01
        2 -1    0    0  502    0 0.00000000E+00 0.00000000E+00 -.22463818E+04 0.22463819E+04 0.32000000E+00 0.0000E+00 0.9000E+01
       25  1    1    2    0    0 -.59775738E+03 0.39597369E+03 -.54192013E+03 0.90742023E+03 0.12500000E+03 0.0000E+00 0.9000E+01
        1  1    1    2  502    0 0.61101978E+03 -.38528492E+03 -.14357279E+04 0.16072039E+04 0.32000000E+00 0.0000E+00 0.9000E+01
       -1  1    1    2    0  501 -.13262399E+02 -.10688766E+02 0.29497991E+03 0.29547147E+03 0.32000000E+00 0.0000E+00 0.9000E+01
#aMCatNLO 1  0  0  2  1 0.32464335D+01 0.00000000D+00  -5  6  0 0.00000000D+00 0.00000000D+00 0.00000000D+00 0.00000000D+00 0.00000000D+00
  <mgrwgt>
 0.3546844851D-01   10    2    0
 0.112530721426692D+04 0.000000000000000D+00 0.000000000000000D+00 0.112530721426692D+04
 0.112530721426692D+04 0.000000000000000D+00 0.000000000000000D+00 -.112530721426692D+04
 0.727927268984197D+03 -.597841349363501D+03 0.396024306993652D+03 0.189161101131390D+01
 0.933365626681880D+03 0.611100542765332D+03 -.385338124200235D+03 -.590967046239483D+03
 0.589321532867771D+03 -.132591934018308D+02 -.106861827934171D+02 0.589075435228170D+03
 0.000000000000000D+00 0.000000000000000D+00 0.000000000000000D+00 -.000000000000000D+00
 0.112642410536736D+04 0.000000000000000D+00 0.000000000000000D+00 0.112642410536736D+04
 0.112766993783462D+04 0.000000000000000D+00 0.000000000000000D+00 -.112766993783462D+04
 0.728733124191267D+03 -.598887325833979D+03 0.395925951481804D+03 0.189161101131390D+01
 0.932541014787584D+03 0.609760700992858D+03 -.385464112525065D+03 -.590967046239483D+03
 0.589342630987852D+03 -.141055505814207D+02 -.107657676559396D+02 0.589075435228170D+03
 0.347727323527563D+01 0.323217542254197D+01 0.303928699200055D+00 -.124583246726132D+01
0.622781483940D-02 0.000000000000D+00 0.000000000000D+00 0.383690008296D-04 0.000000000000D+00  6 -2 2 25 1 -1 21 0 0.86725190D-01 0.34559721D+00 0.53831642D+06 0.53831642D+06 0.53831642D+06 0.10662514D+01  1  2  2  2  6  2        2 0.444616003487D-02 0.100000000000D+01
0.589650325327D-02 0.000000000000D+00 -.239164488046D-04 0.383690008296D-04 0.000000000000D+00  6 -2 2 25 1 -1 21 2 0.86725190D-01 0.34559721D+00 0.53831642D+06 0.53831642D+06 0.53831642D+06 0.10662514D+01  1  2  3  2  6  2        2 0.478589489254D-02 0.100000000000D+01
-.402132243917D-02 0.000000000000D+00 0.000000000000D+00 0.383690008296D-04 0.000000000000D+00  6 -2 2 25 1 -1 21 2 0.86725190D-01 0.34559721D+00 0.53831642D+06 0.53831642D+06 0.53831642D+06 0.10662514D+01  1  2 15  2  6  2        2 -.326390501221D-02 0.100000000000D+01
-.126700717039D+00 0.000000000000D+00 0.000000000000D+00 0.383690008296D-04 0.000000000000D+00  6 -2 2 25 1 -1 21 2 0.86725190D-01 0.34559721D+00 0.53831642D+06 0.53831642D+06 0.53831642D+06 0.10662514D+01  1  2  4  2  6  2        2 -.102836594590D+00 0.100000000000D+01
-.533646942059D+01 0.000000000000D+00 -.445362847757D+00 0.383690008296D-04 0.000000000000D+00  6 -2 2 25 1 -1 21 2 0.86725190D-01 0.34646628D+00 0.53831642D+06 0.53831642D+06 0.53831642D+06 0.10662514D+01  1  2  5  2  6  2        2 -.429957811462D+01 0.100000000000D+01
0.533757253214D+01 0.000000000000D+00 0.445361443138D+00 0.383690008296D-04 0.000000000000D+00  6 -2 2 25 1 -1 21 2 0.86725190D-01 0.34559721D+00 0.53831642D+06 0.53831642D+06 0.53831642D+06 0.10662514D+01  1  2  6  2  6  2        2 0.433223895975D+01 0.100000000000D+01
0.124239835431D+00 0.000000000000D+00 0.000000000000D+00 0.383690008296D-04 0.268341617999D-04  6 -2 2 25 1 -1 21 2 0.86811267D-01 0.34632284D+00 0.54103581D+06 0.54103581D+06 0.54103581D+06 0.10660978D+01  1  2 11  2  6  2        2 0.999274084934D-01 0.100000000000D+01
0.948102851417D-12 0.000000000000D+00 0.000000000000D+00 0.383690008296D-04 0.000000000000D+00  6 -2 21 25 1 -1 -2 2 0.86725190D-01 0.34649408D+00 0.54103581D+06 0.54103581D+06 0.54103581D+06 0.10660978D+01  1  2 12  6  6  2        2 0.112252583442D-12 0.100000000000D+01
-.250251331923D-02 0.000000000000D+00 -.208938546109D-03 0.383690008296D-04 0.000000000000D+00  6 -2 21 25 1 -1 -2 2 0.86725190D-01 0.34646628D+00 0.53831642D+06 0.53831642D+06 0.53831642D+06 0.10662514D+01  1  2  5  6  6  2        2 -.296682811132D-03 0.100000000000D+01
0.382674103615D-03 0.000000000000D+00 0.000000000000D+00 0.383690008296D-04 0.849839802512D-08  6 -2 21 25 1 -1 -2 2 0.86811267D-01 0.34632284D+00 0.54103581D+06 0.54103581D+06 0.54103581D+06 0.10660978D+01  1  2 11  6  6  2        2 0.453223776054D-04 0.100000000000D+01
  </mgrwgt>
  </event>
  <event>
  6     66 0.17652913E-05 0.11100270E+03 0.75467711E-02 0.94150595E-01
       -2 -1    0    0    0  501 0.00000000E+00 0.00000000E+00 0.37561487E+03 0.37561500E+03 0.32000000E+00 0.0000E+00 0.9000E+01
        2 -1    0    0  503    0 0.00000000E+00 0.00000000E+00 -.22720565E+04 0.22720565E+04 0.32000000E+00 0.0000E+00 0.9000E+01
       25  1    1    2    0    0 -.21445787E+03 0.41782355E+03 -.15940272E+02 0.48625897E+03 0.12500000E+03 0.0000E+00 0.9000E+01
        1  1    1    2  502    0 0.26398287E+03 -.22878294E+03 -.72225459E+03 0.80229695E+03 0.32000000E+00 0.0000E+00 0.9000E+01
       -1  1    1    2    0  501 -.45166430E+02 -.45934759E+02 0.85556981E+02 0.10709859E+03 0.32000000E+00 0.0000E+00 0.9000E+01
       21  1    1    2  503  502 -.43585736E+01 -.14310585E+03 -.12438037E+04 0.12520170E+04 0.75000000E+00 0.0000E+00 0.9000E+01
#aMCatNLO 2  0  0  2  1 0.32464335D+01 0.00000000D+00  -5  6  0 0.00000000D+00 0.00000000D+00 0.00000000D+00 0.00000000D+00 0.00000000D+00
  <mgrwgt>
 0.7016383674D-02    1    2    0
 0.612661615931773D+03 0.000000000000000D+00 0.000000000000000D+00 0.612661615931773D+03
 0.612661615931773D+03 0.000000000000000D+00 0.000000000000000D+00 -.612661615931773D+03
 0.497476021733896D+03 -.216412292013700D+03 0.357366051487540D+03 0.239400537404923D+03
 0.554985191482293D+03 0.262122546385616D+03 -.291756221240340D+03 -.392655880904025D+03
 0.172862018647357D+03 -.457102543719164D+02 -.656098302472000D+02 0.153255343499102D+03
 0.000000000000000D+00 -.000000000000000D+00 -.000000000000000D+00 -.000000000000000D+00
 0.623647877300520D+03 0.000000000000000D+00 0.000000000000000D+00 0.623647877300520D+03
 0.136842908893643D+04 0.000000000000000D+00 0.000000000000000D+00 -.136842908893643D+04
 0.541827522924079D+03 -.214570115044921D+03 0.417850586954101D+03 0.239400537404923D+03
 0.525618948936898D+03 0.264037929114829D+03 -.228868107568019D+03 -.392655880904025D+03
 0.166212842526640D+03 -.451092404495091D+02 -.458766295168520D+02 0.153255343499102D+03
 0.758417651849337D+03 -.435857362039949D+01 -.143105849869231D+03 -.744781211635915D+03
0.338804953182D-02 0.000000000000D+00 0.000000000000D+00 0.147931561586D-05 0.150814902165D-08  6 -2 2 25 1 -1 21 2 0.57786898D-01 0.34954706D+00 0.27196482D+06 0.27196482D+06 0.27196482D+06 0.10877184D+01  1  2  1  2  6  2        2 0.701638367388D-02 0.100000000000D+01
  </mgrwgt>
  </event>
  <event>
  5     66 0.17652913E-05 0.45255395E+02 0.75467711E-02 0.82097282E-01
       -2 -1    0    0    0  501 0.00000000E+00 0.00000000E+00 0.86457982E+03 0.86457988E+03 0.32000000E+00 0.0000E+00 0.9000E+01
        2 -1    0    0  502    0 0.00000000E+00 0.00000000E+00 -.15147335E+04 0.15147335E+04 0.32000000E+00 0.0000E+00 0.9000E+01
       25  1    1    2    0    0 0.39257850E+03 -.23587352E+03 0.85019220E+02 0.48229396E+03 0.12500000E+03 0.0000E+00 0.9000E+01
        1  1    1    2  502    0 0.44100721E+02 0.10134101E+02 -.12116054E+04 0.12124502E+04 0.32000000E+00 0.0000E+00 0.9000E+01
       -1  1    1    2    0  501 -.43667922E+03 0.22573942E+03 0.47643255E+03 0.68456928E+03 0.32000000E+00 0.0000E+00 0.9000E+01
#aMCatNLO 1  0  0  2  4 0.54624598D+02 0.00000000D+00  -5  6  0 0.00000000D+00 0.00000000D+00 0.00000000D+00 0.00000000D+00 0.00000000D+00
  <mgrwgt>
 0.2399793170D-01    5    2    0
 0.114438111185198D+04 0.000000000000000D+00 0.000000000000000D+00 0.114438111185198D+04
 0.114438111185198D+04 0.000000000000000D+00 0.000000000000000D+00 -.114438111185198D+04
 0.525536999423016D+03 0.392537584755209D+03 -.235856310084712D+03 0.225499852129261D+03
 0.916304490565231D+03 0.441058326338708D+02 0.101353972634312D+02 -.915186248082866D+03
 0.846920733715711D+03 -.436643417389079D+03 0.225720912821280D+03 0.689686395953605D+03
 0.000000000000000D+00 -.000000000000000D+00 -.000000000000000D+00 -.000000000000000D+00
 0.204005676938574D+04 0.000000000000000D+00 0.000000000000000D+00 0.204005676938574D+04
 0.237317034994888D+04 0.000000000000000D+00 0.000000000000000D+00 -.237317034994888D+04
 0.698389440017761D+03 0.647030133269849D+03 0.512311746771863D+02 0.225499852129261D+03
 0.114160083736137D+04 0.472008649853173D+03 0.492843218121111D+03 -.915186248082866D+03
 0.947543742582974D+03 -.635181844699323D+02 0.646635337409208D+03 0.689686395953605D+03
 0.162569309937251D+04 -.105552059865309D+04 -.119070973020751D+04 -.333113580563147D+03
0.560964003260D-01 0.000000000000D+00 0.000000000000D+00 0.169294272150D-03 0.000000000000D+00  6 -2 2 25 1 -1 21 0 0.13301229D+00 0.23303593D+00 0.25577798D+06 0.25577798D+06 0.25577798D+06 0.10897134D+01  1  2  2  2  6  2        2 0.368807699654D-01 0.100000000000D+01
0.283912882392D-01 0.000000000000D+00 -.215424947773D-03 0.169294272150D-03 0.000000000000D+00  6 -2 2 25 1 -1 21 2 0.13301229D+00 0.23303593D+00 0.25577798D+06 0.25577798D+06 0.25577798D+06 0.10897134D+01  1  2  3  2  6  2        2 0.221653528325D-01 0.100000000000D+01
-.464865160051D-01 0.000000000000D+00 0.000000000000D+00 0.169294272150D-03 0.000000000000D+00  6 -2 2 25 1 -1 21 2 0.13301229D+00 0.23303593D+00 0.25577798D+06 0.25577798D+06 0.25577798D+06 0.10897134D+01  1  2 15  2  6  2        2 -.362924718500D-01 0.100000000000D+01
0.394450178936D-01 0.000000000000D+00 -.285027483642D-01 0.169294272150D-03 0.000000000000D+00  6 -2 2 25 1 -1 21 2 0.13301229D+00 0.58340367D+00 0.25577798D+06 0.25577798D+06 0.25577798D+06 0.10897134D+01  1  2  5  2  6  2        2 0.123990331937D-02 0.100000000000D+01
0.574564860284D-02 0.000000000000D+00 -.287986578457D-02 0.169294272150D-03 0.000000000000D+00  6 -2 21 25 1 -1 -2 2 0.13301229D+00 0.58340367D+00 0.25577798D+06 0.25577798D+06 0.25577798D+06 0.10897134D+01  1  2  5  6  6  2        2 0.437743643173D-05 0.100000000000D+01
  </mgrwgt>
  </event>
  <event>
  6     66 0.17652913E-05 0.11090243E+03 0.75467711E-02 0.91620589E-01
       21 -1    0    0  503  501 0.00000000E+00 0.00000000E+00 0.14106305E+04 0.14106307E+04 0.75000000E+00 0.0000E+00 0.9000E+01
        2 -1    0    0  502    0 0.00000000E+00 0.00000000E+00 -.18535749E+04 0.18535749E+04 0.32000000E+00 0.0000E+00 0.9000E+01
       25  1    1    2    0    0 -.29422075E+03 0.52424339E+03 -.50336712E+03 0.79397761E+03 0.12500000E+03 0.0000E+00 0.9000E+01
        1  1    1    2  502    0 -.61734069E+02 -.82628698E+00 -.10999002E+04 0.11016316E+04 0.32000000E+00 0.0000E+00 0.9000E+01
        2  1    1    2  503    0 0.46428729E+02 -.13395651E+03 0.61209358E+03 0.62829820E+03 0.32000000E+00 0.0000E+00 0.9000E+01
       -1  1    1    2    0  501 0.30952609E+03 -.38946060E+03 0.54822925E+03 0.74029816E+03 0.32000000E+00 0.0000E+00 0.9000E+01
#aMCatNLO 2  0  0  1  1 0.14177438D+03 0.00000000D+00  -5  6  0 0.00000000D+00 0.00000000D+00 0.00000000D+00 0.00000000D+00 0.00000000D+00
  <mgrwgt>
 0.1580126177D-02    1    2    0
 0.120569508957313D+04 0.000000000000000D+00 0.000000000000000D+00 0.120569508957313D+04
 0.120569508957313D+04 0.000000000000000D+00 0.000000000000000D+00 -.120569508957313D+04
 0.612852147406547D+03 -.282097625375164D+03 0.489287577255283D+03 -.202438511855242D+03
 0.721874074709329D+03 -.478524318161054D+02 -.408909009325935D+02 -.719124647559556D+03
 0.000000000000000D+00 0.000000000000000D+00 -.000000000000000D+00 0.000000000000000D+00
 0.107666395703039D+04 0.329950057191269D+03 -.448396676322690D+03 0.921563159414798D+03
 0.215543088767079D+04 0.000000000000000D+00 0.000000000000000D+00 0.215543088767079D+04
 0.121307971218740D+04 0.000000000000000D+00 0.000000000000000D+00 -.121307971218740D+04
 0.646522634118913D+03 -.294211120933971D+03 0.524237524090625D+03 -.202438511855242D+03
 0.721770439508568D+03 -.617383549487665D+02 -.827132973119717D+00 -.719124647559556D+03
 0.952956301143766D+03 0.464287290431114D+02 -.133956511876500D+03 0.942351175483392D+03
 0.104726122508695D+04 0.309520746839626D+03 -.389453879241005D+03 0.921563159414798D+03
0.182925838474D-02 0.000000000000D+00 0.000000000000D+00 0.846816792891D-04 0.210211493744D-08  6 21 2 25 1 2 -1 2 0.21702008D+00 0.28516538D+00 0.43230679D+06 0.43230679D+06 0.43230679D+06 0.10730043D+01  1  2  1  5  5  1       -2 0.158012617674D-02 0.100000000000D+01
  </mgrwgt>
  </event>
  <event>
  5     66 0.17652913E-05 0.55512902E+02 0.75467711E-02 0.92342450E-01
       -2 -1    0    0    0  501 0.00000000E+00 0.00000000E+00 0.27740068E+03 0.27740087E+03 0.32000000E+00 0.0000E+00 0.9000E+01
        2 -1    0    0  502    0 0.00000000E+00 0.00000000E+00 -.21360633E+04 0.21360633E+04 0.32000000E+00 0.0000E+00 0.9000E+01
       25  1    1    2    0    0 -.23054273E+03 0.52586151E+03 -.62017994E+03 0.85435850E+03 0.12500000E+03 0.0000E+00 0.9000E+01
        1  1    1    2  502    0 0.18402237E+03 -.55622410E+03 -.13292784E+04 0.14526633E+04 0.32000000E+00 0.0000E+00 0.9000E+01
       -1  1    1    2    0  501 0.46520353E+02 0.30362582E+02 0.90795698E+02 0.10644243E+03 0.32000000E+00 0.0000E+00 0.9000E+01
#aMCatNLO 1  0  0  2  4 0.52756543D+02 0.00000000D+00  -5  6  0 0.00000000D+00 0.00000000D+00 0.00000000D+00 0.00000000D+00 0.00000000D+00
  <mgrwgt>
 0.7933324730D-02    3    2    0
 0.769769884154462D+03 0.000000000000000D+00 0.000000000000000D+00 0.769769884154462D+03
 0.769769884154462D+03 0.000000000000000D+00 0.000000000000000D+00 -.769769884154462D+03
 0.590734096133662D+03 -.230561563352075D+03 0.525985683324813D+03 0.593481151919066D+02
 0.672519624278831D+03 0.184073988643328D+03 -.556326871819248D+03 -.329999732480021D+03
 0.276286047896430D+03 0.464875747087474D+02 0.303411884944357D+02 0.270651617288115D+03
 0.000000000000000D+00 -.000000000000000D+00 0.000000000000000D+00 0.000000000000000D+00
 0.486263849713175D+04 0.000000000000000D+00 0.000000000000000D+00 0.486263849713175D+04
 0.232679811892064D+04 0.000000000000000D+00 0.000000000000000D+00 -.232679811892064D+04
 0.179900809781540D+03 -.754502473963575D+02 0.867430847448400D+02 0.593481151919066D+02
 0.256301788632016D+04 0.835314254612179D+03 -.240050223040969D+04 -.329999732480021D+03
 0.569419785632161D+03 0.216708964556460D+03 -.451689958942604D+03 0.270651617288115D+03
 0.387709813431853D+04 -.976572971772282D+03 0.276544910460745D+04 0.253584037821112D+04
0.364155092747D-02 0.000000000000D+00 0.000000000000D+00 0.249381216291D-05 0.000000000000D+00  6 -2 2 25 1 -1 21 0 0.42677044D-01 0.32862514D+00 0.37776204D+06 0.37776204D+06 0.37776204D+06 0.10772230D+01  1  2  2  2  6  2        2 0.135843819497D-01 0.100000000000D+01
0.105170257836D-02 0.000000000000D+00 -.139845144038D-04 0.249381216291D-05 0.000000000000D+00  6 -2 2 25 1 -1 21 2 0.42677044D-01 0.32862514D+00 0.37776204D+06 0.37776204D+06 0.37776204D+06 0.10772230D+01  1  2  3  2  6  2        2 0.455258109838D-02 0.100000000000D+01
-.235716673585D-02 0.000000000000D+00 0.000000000000D+00 0.249381216291D-05 0.000000000000D+00  6 -2 2 25 1 -1 21 2 0.42677044D-01 0.32862514D+00 0.37776204D+06 0.37776204D+06 0.37776204D+06 0.10772230D+01  1  2 15  2  6  2        2 -.102036383177D-01 0.100000000000D+01
  </mgrwgt>
  </event>
  <event>
  6     66 0.17652913E-05 0.54330456E+02 0.75467711E-02 0.90631589E-01
       -2 -1    0    0    0  501 0.00000000E+00 0.00000000E+00 0.93969264E+03 0.93969270E+03 0.32000000E+00 0.0000E+00 0.9000E+01
        2 -1    0    0  502    0 -.00000000E+00 -.00000000E+00 -.34726595E+04 0.34726596E+04 0.32000000E+00 0.0000E+00 0.9000E+01
       25  1    1    2    0    0 0.61213390E+03 -.29719230E+03 0.23128482E+03 0.72948533E+03 0.12500000E+03 0.0000E+00 0.9000E+01
        1  1    1    2  502    0 -.66374679E+01 -.42943737E+02 -.29353665E+04 0.29356881E+04 0.32000000E+00 0.0000E+00 0.9000E+01
       -1  1    1    2    0  503 -.52744308E+03 0.34770897E+03 0.96758256E+02 0.63910875E+03 0.32000000E+00 0.0000E+00 0.9000E+01
       21  1    1    2  503  501 -.78053349E+02 -.75729338E+01 0.74356538E+02 0.10807003E+03 0.75000000E+00 0.0000E+00 0.9000E+01
#aMCatNLO 2  0  0  5  1 0.81362247D+02 0.00000000D+00  -5  6  0 0.00000000D+00 0.00000000D+00 0.00000000D+00 0.00000000D+00 0.00000000D+00
  <mgrwgt>
 0.6569302773D-02    1    2    0
 0.180644202088538D+04 0.000000000000000D+00 0.000000000000000D+00 0.180644202088538D+04
 0.180644202088538D+04 -.000000000000000D+00 -.000000000000000D+00 -.180644202088538D+04
 0.105260764299606D+04 0.615868288988410D+03 -.299276392147423D+03 0.789618731930430D+03
 0.153470792727060D+04 -.810977493491984D+00 -.462304452932907D+02 -.153401124841727D+04
 0.102556847150410D+04 -.615057311494918D+03 0.345506837440714D+03 0.744392516486842D+03
 0.000000000000000D+00 0.000000000000000D+00 0.000000000000000D+00 0.000000000000000D+00
 0.180644202088538D+04 0.000000000000000D+00 0.000000000000000D+00 0.180644202088538D+04
 0.180644202088538D+04 -.000000000000000D+00 -.000000000000000D+00 -.180644202088538D+04
 0.105328237495838D+04 0.611860012164274D+03 -.297024753116049D+03 0.794469875419226D+03
 0.152757548068511D+04 -.663961978173852D+01 -.429562207195017D+02 -.152695695019244D+04
 0.847862230611526D+03 -.527140496441268D+03 0.347547311946638D+03 0.565865818960530D+03
 0.184163955515747D+03 -.780798959412666D+02 -.756633811108818D+01 0.166621255812683D+03
0.171171607157D+00 0.000000000000D+00 0.000000000000D+00 0.105533767930D-03 0.188688114793D-06  6 -2 2 25 1 -1 21 2 0.14456810D+00 0.53425532D+00 0.52189623D+06 0.52189623D+06 0.52189623D+06 0.10671973D+01  1  2  1  4  6  5       -1 0.656930277337D-02 0.100000000000D+01
  </mgrwgt>
  </event>
  <event>
  6     66 0.17652913E-05 0.48654610E+02 0.75467711E-02 0.94500275E-01
       -2 -1    0    0    0  501 0.00000000E+00 0.00000000E+00 0.78909122E+03 0.78909128E+03 0.32000000E+00 0.0000E+00 0.9000E+01
        2 -1    0    0  503    0 0.00000000E+00 0.00000000E+00 -.31761071E+04 0.31761071E+04 0.32000000E+00 0.0000E+00 0.9000E+01
       25  1    1    2    0    0 0.33055960E+03 -.31474409E+03 -.25380633E+03 0.53700665E+03 0.12500000E+03 0.0000E+00 0.9000E+01
        1  1    1    2  502    0 -.37479725E+03 0.25869128E+03 -.25196644E+04 0.25604888E+04 0.32000000E+00 0.0000E+00 0.9000E+01
       -1  1    1    2    0  501 0.49185582E+02 0.33970096E+02 0.62511725E+03 0.62796885E+03 0.32000000E+00 0.0000E+00 0.9000E+01
       21  1    1    2  503  502 -.49479336E+01 0.22082714E+02 -.23866242E+03 0.23973410E+03 0.75000000E+00 0.0000E+00 0.9000E+01
#aMCatNLO 2  0  0  2  4 0.22630252D+02 0.00000000D+00  -5  6  0 0.00000000D+00 0.00000000D+00 0.00000000D+00 0.00000000D+00 0.00000000D+00
  <mgrwgt>
 0.4018645310D-01    6    2    0
 0.152177112725050D+04 0.000000000000000D+00 0.000000000000000D+00 0.152177112725050D+04
 0.152177112725050D+04 0.000000000000000D+00 0.000000000000000D+00 -.152177112725050D+04
 0.475396010885638D+03 0.329819467273337D+03 -.311307757961992D+03 0.684322000682976D+02
 0.135811251869188D+04 -.377035848741453D+03 0.268560525225979D+03 -.127678848149635D+04
 0.121003372492347D+04 0.472163814681158D+02 0.427472327360136D+02 0.120835628142806D+04
 0.000000000000000D+00 -.000000000000000D+00 0.000000000000000D+00 -.000000000000000D+00
 0.152284617880024D+04 0.000000000000000D+00 0.000000000000000D+00 0.152284617880024D+04
 0.164575694393096D+04 0.000000000000000D+00 0.000000000000000D+00 -.164575694393096D+04
 0.478204068247915D+03 0.330594597737772D+03 -.314767178767529D+03 0.684322000682976D+02
 0.135558854114747D+04 -.374830026396344D+03 0.258715901560527D+03 -.127678848149635D+04
 0.120983377753823D+04 0.491833622413960D+02 0.339685631785779D+02 0.120835628142806D+04
 0.124976735797583D+03 -.494793358282450D+01 0.220827140284243D+02 -.122910765130715D+03
-.376793190402D-09 0.000000000000D+00 0.000000000000D+00 0.858141191441D-03 0.000000000000D+00  6 -2 2 25 1 -1 21 2 0.12131286D+00 0.48878379D+00 0.25559723D+06 0.25559723D+06 0.25559723D+06 0.10897364D+01  1  2 13  2  6  2        2 -.410423812901D-10 0.100000000000D+01
-.524101292270D+00 0.000000000000D+00 0.000000000000D+00 0.858141191441D-03 0.000000000000D+00  6 -2 2 25 1 -1 21 2 0.12131286D+00 0.49474774D+00 0.25559723D+06 0.25559723D+06 0.25559723D+06 0.10897364D+01  1  2 13  2  6  2        2 -.538290225861D-01 0.100000000000D+01
-.800323432105D-01 0.000000000000D+00 0.000000000000D+00 0.858141191441D-03 0.000000000000D+00  6 -2 2 25 1 -1 21 2 0.12131286D+00 0.45181964D+00 0.24852316D+06 0.24852316D+06 0.24852316D+06 0.10906527D+01  1  2  8  2  6  2        2 -.124674929034D-01 0.100000000000D+01
-.584235652107D-01 0.000000000000D+00 0.000000000000D+00 0.858141191441D-03 0.000000000000D+00  6 -2 2 25 1 -1 21 2 0.12131286D+00 0.48871665D+00 0.24852316D+06 0.24852316D+06 0.24852316D+06 0.10906527D+01  1  2  9  2  6  2        2 -.639616565077D-02 0.100000000000D+01
0.582440168790D-01 0.000000000000D+00 0.000000000000D+00 0.858141191441D-03 0.000000000000D+00  6 -2 2 25 1 -1 21 2 0.12131286D+00 0.45181964D+00 0.24852316D+06 0.24852316D+06 0.24852316D+06 0.10906527D+01  1  2 10  2  6  2        2 0.907329259615D-02 0.100000000000D+01
0.953305476240D+00 0.000000000000D+00 0.000000000000D+00 0.858141191441D-03 0.235306040201D-04  6 -2 2 25 1 -1 21 2 0.12139857D+00 0.48863151D+00 0.25559723D+06 0.25559723D+06 0.25559723D+06 0.10897364D+01  1  2  1  2  6  2        2 0.103805841682D+00 0.100000000000D+01
  </mgrwgt>
  </event>
  <event>
  5     66 -.17652913E-05 0.14721597E+03 0.75467711E-02 0.93291601E-01
       -2 -1    0    0    0  501 0.00000000E+00 0.00000000E+00 0.13192434E+04 0.13192435E+04 0.32000000E+00 0.0000E+00 0.9000E+01
        2 -1    0    0  502    0 0.00000000E+00 0.00000000E+00 -.10213074E+04 0.10213075E+04 0.32000000E+00 0.0000E+00 0.9000E+01
       25  1    1    2    0    0 -.42899473E+03 0.32682525E+03 -.12386279E+03 0.56729024E+03 0.12500000E+03 0.0000E+00 0.9000E+01
        1  1    1    2  502    0 0.38248294E+03 -.18714071E+03 -.60286213E+03 0.73807702E+03 0.32000000E+00 0.0000E+00 0.9000E+01
       -1  1    1    2    0  501 0.46511793E+02 -.13968454E+03 0.10246609E+04 0.10351837E+04 0.32000000E+00 0.0000E+00 0.9000E+01
#aMCatNLO 1  0  0  4  2 0.68244569D+01 0.00000000D+00  -5  6  0 0.00000000D+00 0.00000000D+00 0.00000000D+00 0.00000000D+00 0.00000000D+00
  <mgrwgt>
 -.1513064729D-02    9    2    0
 0.116075544752728D+04 0.000000000000000D+00 0.000000000000000D+00 0.116075544752728D+04
 0.116075544752728D+04 -.000000000000000D+00 -.000000000000000D+00 -.116075544752728D+04
 0.587858831899625D+03 -.429036687728634D+03 0.326843447358800D+03 -.197620565083318D+03
 0.821534513667366D+03 0.382527657351547D+03 -.187167207793590D+03 -.702538244392833D+03
 0.912117549487573D+03 0.465090303770876D+02 -.139676239565209D+03 0.900158809476151D+03
 0.000000000000000D+00 0.000000000000000D+00 0.000000000000000D+00 -.000000000000000D+00
 0.116075544752728D+04 0.000000000000000D+00 0.000000000000000D+00 0.116075544752728D+04
 0.116075544752728D+04 -.000000000000000D+00 -.000000000000000D+00 -.116075544752728D+04
 0.587851078039224D+03 -.429016516079955D+03 0.326833577559617D+03 -.197657611697797D+03
 0.649303179665459D+03 0.305235312122200D+03 -.153297381828397D+03 -.552200992467324D+03
 0.912064764970041D+03 0.465403278633661D+02 -.139691553132752D+03 0.900101329498843D+03
 0.172291872379841D+03 0.772408760943894D+02 -.338446425984679D+02 -.150242725333723D+03
0.218080069342D-04 0.000000000000D+00 0.000000000000D+00 0.199627251024D-04 0.000000000000D+00  6 -2 2 25 1 -1 21 0 0.20296054D+00 0.15712422D+00 0.31737719D+06 0.31737719D+06 0.31737719D+06 0.10827472D+01  1  2  2  3  6  4        1 0.806121600718D-05 0.100000000000D+01
0.391668298771D-05 0.000000000000D+00 -.837484888073D-07 0.199627251024D-04 0.000000000000D+00  6 -2 2 25 1 -1 21 2 0.20296054D+00 0.15712422D+00 0.31737719D+06 0.31737719D+06 0.31737719D+06 0.10827472D+01  1  2  3  3  6  4        1 0.169729439135D-05 0.100000000000D+01
-.159951677166D-04 0.000000000000D+00 0.000000000000D+00 0.199627251024D-04 0.000000000000D+00  6 -2 2 25 1 -1 21 2 0.20296054D+00 0.15712422D+00 0.31737719D+06 0.31737719D+06 0.31737719D+06 0.10827472D+01  1  2 15  3  6  4        1 -.693150518930D-05 0.100000000000D+01
0.181686600158D-08 0.000000000000D+00 0.000000000000D+00 0.199627251024D-04 0.000000000000D+00  6 -2 2 25 1 -1 21 2 0.20296054D+00 0.15712422D+00 0.31739899D+06 0.31739899D+06 0.31739899D+06 0.10827450D+01  1  2 12  3  6  4        1 0.787332162517D-09 0.100000000000D+01
0.161521548153D-01 0.000000000000D+00 0.000000000000D+00 0.199627251024D-04 0.000000000000D+00  6 -2 2 25 1 -1 21 2 0.20296054D+00 0.15712422D+00 0.31739899D+06 0.31739899D+06 0.31739899D+06 0.10827450D+01  1  2 12  3  6  4        1 0.699947655411D-02 0.100000000000D+01
-.247939378616D-01 0.000000000000D+00 0.000000000000D+00 0.199627251024D-04 0.000000000000D+00  6 -2 2 25 1 -1 21 2 0.20296054D+00 0.15712422D+00 0.31737719D+06 0.31737719D+06 0.31737719D+06 0.10827472D+01  1  2  4  3  6  4        1 -.107444518242D-01 0.100000000000D+01
-.172140521305D-01 0.000000000000D+00 0.000000000000D+00 0.199627251024D-04 0.000000000000D+00  6 -2 2 25 1 -1 21 2 0.20296054D+00 0.15712422D+00 0.31737719D+06 0.31737719D+06 0.31737719D+06 0.10827472D+01  1  2  5  3  6  4        1 -.745970869359D-02 0.100000000000D+01
0.211924838030D-01 0.000000000000D+00 -.000000000000D+00 0.199627251024D-04 0.000000000000D+00  6 -2 2 25 1 -1 21 2 0.20296054D+00 0.15712422D+00 0.31737719D+06 0.31737719D+06 0.31737719D+06 0.10827472D+01  1  2  6  3  6  4        1 0.918376187464D-02 0.100000000000D+01
0.116541797145D-02 0.000000000000D+00 0.000000000000D+00 0.199627251024D-04 0.194906828005D-05  6 -2 2 25 1 -1 21 2 0.20296054D+00 0.15712422D+00 0.31739899D+06 0.31739899D+06 0.31739899D+06 0.10827450D+01  1  2 11  3  6  4        1 0.505029567892D-03 0.100000000000D+01
  </mgrwgt>
  </event>
  <event>
  5     66 -.17652913E-05 0.20462980E+02 0.75467711E-02 0.90166763E-01
       -2 -1    0    0    0  501 0.00000000E+00 0.00000000E+00 0.88629587E+03 0.88629593E+03 0.32000000E+00 0.0000E+00 0.9000E+01
        2 -1    0    0  502    0 0.00000000E+00 0.00000000E+00 -.10029139E+04 0.10029139E+04 0.32000000E+00 0.0000E+00 0.9000E+01
       25  1    1    2    0    0 0.72205680E+03 0.65715034E+02 -.15363073E+03 0.75160620E+03 0.12500000E+03 0.0000E+00 0.9000E+01
        1  1    1    2  502    0 0.31318747E+01 -.20220221E+02 -.32510978E+03 0.32575318E+03 0.32000000E+00 0.0000E+00 0.9000E+01
       -1  1    1    2    0  501 -.72518867E+03 -.45494812E+02 0.36212250E+03 0.81185047E+03 0.32000000E+00 0.0000E+00 0.9000E+01
#aMCatNLO 1  0  0  1  2 0.18157884D+03 0.00000000D+00  -5  6  0 0.00000000D+00 0.00000000D+00 0.00000000D+00 0.00000000D+00 0.00000000D+00
  <mgrwgt>
 -.1129221069D-01    7    4    0
 0.942803549909931D+03 0.000000000000000D+00 0.000000000000000D+00 0.942803549909931D+03
 0.942803549909931D+03 0.000000000000000D+00 0.000000000000000D+00 -.942803549909931D+03
 0.743520873825462D+03 0.722042816841391D+03 0.657158277708673D+02 -.107395951703582D+03
 0.306304789930163D+03 0.313186579564967D+01 -.202218929514813D+02 -.305620501269561D+03
 0.835781436064238D+03 -.725174682637040D+03 -.454939348193860D+02 0.413016452973144D+03
 0.000000000000000D+00 -.000000000000000D+00 0.000000000000000D+00 0.000000000000000D+00
 0.112236359352407D+04 0.000000000000000D+00 0.000000000000000D+00 0.112236359352407D+04
 0.943900639198050D+03 0.000000000000000D+00 0.000000000000000D+00 -.943900639198050D+03
 0.752060542003614D+03 0.731287105524289D+03 0.604593887693140D+02 -.107395951703582D+03
 0.306516635280904D+03 0.691975598053555D+01 -.223757432242739D+02 -.305620501269561D+03
 0.827220598439522D+03 -.714895555921174D+03 -.513387980018977D+02 0.413016452973144D+03
 0.180466456998077D+03 -.233113055836506D+02 0.132551524568576D+02 0.178462954326016D+03
 0.942803549909931D+03 0.000000000000000D+00 0.000000000000000D+00 0.942803549909931D+03
 0.942803549909931D+03 0.000000000000000D+00 0.000000000000000D+00 -.942803549909931D+03
 0.743520873825462D+03 0.722042816841391D+03 0.657158277708673D+02 -.107395951703582D+03
 0.306304789930163D+03 0.313186579564967D+01 -.202218929514813D+02 -.305620501269561D+03
 0.000000000000000D+00 -.000000000000000D+00 0.000000000000000D+00 0.000000000000000D+00
 0.835781436064238D+03 -.725174682637040D+03 -.454939348193860D+02 0.413016452973144D+03
 0.112236359352407D+04 0.000000000000000D+00 0.000000000000000D+00 0.112236359352407D+04
 0.943900639198050D+03 0.000000000000000D+00 0.000000000000000D+00 -.943900639198050D+03
 0.752060542003614D+03 0.731287105524289D+03 0.604593887693140D+02 -.107395951703582D+03
 0.306516635280904D+03 0.691975598053555D+01 -.223757432242739D+02 -.305620501269561D+03
 0.180466456998077D+03 -.233113055836506D+02 0.132551524568576D+02 0.178462954326016D+03
 0.827220598439522D+03 -.714895555921174D+03 -.513387980018977D+02 0.413016452973144D+03
0.730022313197D-04 0.000000000000D+00 0.000000000000D+00 0.877136920317D-05 0.000000000000D+00  6 -2 2 25 1 -1 21 0 0.13635322D+00 0.15429445D+00 0.54966434D+06 0.54966434D+06 0.54966434D+06 0.10656158D+01  1  2  2  1  6  1       -2 0.850016482093D-04 0.100000000000D+01
0.497507538346D-04 0.000000000000D+00 -.280347790196D-06 0.877136920317D-05 0.000000000000D+00  6 -2 2 25 1 -1 21 2 0.13635322D+00 0.15429445D+00 0.54966434D+06 0.54966434D+06 0.54966434D+06 0.10656158D+01  1  2  3  1  6  1       -2 0.657797449169D-04 0.100000000000D+01
-.508065618535D-04 0.000000000000D+00 0.000000000000D+00 0.877136920317D-05 0.000000000000D+00  6 -2 2 25 1 -1 21 2 0.13635322D+00 0.15429445D+00 0.54966434D+06 0.54966434D+06 0.54966434D+06 0.10656158D+01  1  2 15  1  6  1       -2 -.671757193859D-04 0.100000000000D+01
-.107484534733D-01 0.000000000000D+00 0.000000000000D+00 0.877136920317D-05 0.000000000000D+00  6 -2 2 25 1 -1 21 2 0.13635322D+00 0.15429445D+00 0.54966434D+06 0.54966434D+06 0.54966434D+06 0.10656158D+01  1  2  4  1  6  1       -2 -.142114535606D-01 0.100000000000D+01
-.886596537980D-02 0.000000000000D+00 -.113478006486D-03 0.877136920317D-05 0.000000000000D+00  6 -2 2 25 1 -1 21 2 0.16239537D+00 0.15429445D+00 0.54966434D+06 0.54966434D+06 0.54966434D+06 0.10656158D+01  1  2  5  1  6  1       -2 -.722152652071D-02 0.100000000000D+01
0.875346190984D-02 0.000000000000D+00 0.111766430577D-03 0.877136920317D-05 0.000000000000D+00  6 -2 2 25 1 -1 21 2 0.13635322D+00 0.15429445D+00 0.54966434D+06 0.54966434D+06 0.54966434D+06 0.10656158D+01  1  2  6  1  6  1       -2 0.115737038575D-01 0.100000000000D+01
-.227463965442D-03 0.000000000000D+00 -.292460665470D-05 0.877136920317D-05 0.000000000000D+00  6 21 2 25 1 2 -1 2 0.16239537D+00 0.15429445D+00 0.54966434D+06 0.54966434D+06 0.54966434D+06 0.10656158D+01  3  4  5  5  5  1       -2 -.151654014275D-02 0.100000000000D+01
  </mgrwgt>
  </event>
  <event>
  5     66 0.17652913E-05 0.45455068E+02 0.75467711E-02 0.91960470E-01
       -2 -1    0    0    0  501 0.00000000E+00 0.00000000E+00 0.80851838E+03 0.80851845E+03 0.32000000E+00 0.0000E+00 0.9000E+01
        2 -1    0    0  502    0 -.00000000E+00 -.00000000E+00 -.95890200E+03 0.95890205E+03 0.32000000E+00 0.0000E+00 0.9000E+01
       25  1    1    2    0    0 -.55025570E+03 0.18094206E+03 -.14511128E+03 0.61008495E+03 0.12500000E+03 0.0000E+00 0.9000E+01
        1  1    1    2  502    0 0.50479096E+03 -.18051428E+03 -.45631629E+03 0.70400566E+03 0.32000000E+00 0.0000E+00 0.9000E+01
       -1  1    1    2    0  501 0.45464746E+02 -.42778400E+00 0.45104396E+03 0.45332988E+03 0.32000000E+00 0.0000E+00 0.9000E+01
#aMCatNLO 1  0  0  5  1 0.12106942D+03 0.00000000D+00  -5  6  0 0.00000000D+00 0.00000000D+00 0.00000000D+00 0.00000000D+00 0.00000000D+00
  <mgrwgt>
 0.2559746348D-02    6    2    0
 0.880505535055283D+03 0.000000000000000D+00 0.000000000000000D+00 0.880505535055283D+03
 0.880505535055283D+03 -.000000000000000D+00 -.000000000000000D+00 -.880505535055283D+03
 0.599980596854131D+03 -.550335426932165D+03 0.180972325551207D+03 -.934433082110160D+02
 0.667660205637548D+03 0.504882370796556D+03 -.180544651547341D+03 -.397828569422146D+03
 0.493370267618888D+03 0.454530561356086D+02 -.427674003866825D+00 0.491271877633162D+03
 0.000000000000000D+00 0.000000000000000D+00 0.000000000000000D+00 0.000000000000000D+00
 0.880505535055283D+03 0.000000000000000D+00 0.000000000000000D+00 0.880505535055283D+03
 0.880505535055283D+03 -.000000000000000D+00 -.000000000000000D+00 -.880505535055283D+03
 0.597068682540793D+03 -.549168271202927D+03 0.180961343623780D+03 -.808282975749385D+02
 0.660411851870056D+03 0.506177277311636D+03 -.180556835499335D+03 -.383832785439548D+03
 0.363471463784887D+03 -.474027232444603D+02 -.212974233803964D+02 0.359737274371580D+03
 0.140059071914831D+03 0.903937171357509D+02 0.208929152559515D+02 0.104923808642907D+03
0.125620847501D-02 0.000000000000D+00 0.000000000000D+00 0.170459841017D-04 0.000000000000D+00  6 -2 2 25 1 -1 21 0 0.12438745D+00 0.14752339D+00 0.34474926D+06 0.34474926D+06 0.34474926D+06 0.10801126D+01  1  2  2  4  6  5       -1 0.203354732685D-02 0.100000000000D+01
0.559684673679D-03 0.000000000000D+00 -.482417131132D-05 0.170459841017D-04 0.000000000000D+00  6 -2 2 25 1 -1 21 2 0.12438745D+00 0.14752339D+00 0.34474926D+06 0.34474926D+06 0.34474926D+06 0.10801126D+01  1  2  3  4  6  5       -1 0.105699771327D-02 0.100000000000D+01
-.834732866010D-03 0.000000000000D+00 0.000000000000D+00 0.170459841017D-04 0.000000000000D+00  6 -2 2 25 1 -1 21 2 0.12438745D+00 0.14752339D+00 0.34474926D+06 0.34474926D+06 0.34474926D+06 0.10801126D+01  1  2 15  4  6  5       -1 -.157644254355D-02 0.100000000000D+01
-.267928151877D-03 0.000000000000D+00 0.000000000000D+00 0.170459841017D-04 0.000000000000D+00  6 -2 2 25 1 -1 21 2 0.12438745D+00 0.14752339D+00 0.34474926D+06 0.34474926D+06 0.34474926D+06 0.10801126D+01  1  2  4  4  6  5       -1 -.505998211444D-03 0.100000000000D+01
-.255131534392D-02 0.000000000000D+00 0.000000000000D+00 0.170459841017D-04 0.000000000000D+00  6 -2 2 25 1 -1 21 2 0.12438745D+00 0.14752339D+00 0.34474926D+06 0.34474926D+06 0.34474926D+06 0.10801126D+01  1  2  5  4  6  5       -1 -.481831040077D-02 0.100000000000D+01
0.337291625269D-02 0.000000000000D+00 -.000000000000D+00 0.170459841017D-04 0.000000000000D+00  6 -2 2 25 1 -1 21 2 0.12438745D+00 0.14752339D+00 0.34474926D+06 0.34474926D+06 0.34474926D+06 0.10801126D+01  1  2  6  4  6  5       -1 0.636995246395D-02 0.100000000000D+01
  </mgrwgt>
  </event>
  <event>
  5     66 -.17652913E-05 0.44441582E+02 0.75467711E-02 0.88905638E-01
       -2 -1    0    0    0  501 0.00000000E+00 0.00000000E+00 0.17421719E+04 0.17421719E+04 0.32000000E+00 0.0000E+00 0.9000E+01
        2 -1    0    0  502    0 0.00000000E+00 0.00000000E+00 -.10079486E+04 0.10079486E+04 0.32000000E+00 0.0000E+00 0.9000E+01
       25  1    1    2    0    0 -.64992541E+03 -.52319539E+03 0.26852710E+03 0.88536335E+03 0.12500000E+03 0.0000E+00 0.9000E+01
        1  1    1    2  502    0 0.66748168E+03 0.48235876E+03 -.45643194E+03 0.94155827E+03 0.32000000E+00 0.0000E+00 0.9000E+01
       -1  1    1    2    0  501 -.17556265E+02 0.40836626E+02 0.92212811E+03 0.92319890E+03 0.32000000E+00 0.0000E+00 0.9000E+01
#aMCatNLO 1  0  0  4  2 0.16354093D+02 0.00000000D+00  -5  6  0 0.00000000D+00 0.00000000D+00 0.00000000D+00 0.00000000D+00 0.00000000D+00
  <mgrwgt>
 -.1352668506D-02    8    2    0
 0.132514895899239D+04 0.000000000000000D+00 0.000000000000000D+00 0.132514895899239D+04
 0.132514895899239D+04 -.000000000000000D+00 -.000000000000000D+00 -.132514895899239D+04
 0.844415419507306D+03 -.650004155347173D+03 -.523246487526611D+03 0.334680747006993D+02
 0.110351467071491D+04 0.667556873599351D+03 0.482418111460267D+03 -.734428495313470D+03
 0.702367827762553D+03 -.175527182521777D+02 0.408283760663434D+02 0.700960420612771D+03
 0.000000000000000D+00 0.000000000000000D+00 0.000000000000000D+00 -.000000000000000D+00
 0.132514895899239D+04 0.000000000000000D+00 0.000000000000000D+00 0.132514895899239D+04
 0.132514895899239D+04 -.000000000000000D+00 -.000000000000000D+00 -.132514895899239D+04
 0.844264604105930D+03 -.649884564394829D+03 -.523160063667222D+03 0.333365038838040D+02
 0.809840885997199D+03 0.492890586160534D+03 0.365953263131649D+03 -.528184948583687D+03
 0.702260311500930D+03 -.174532436243527D+02 0.409002626186230D+02 0.700850981246442D+03
 0.293932116380710D+03 0.174447221858647D+03 0.116306537916950D+03 -.206002536546559D+03
0.166882080781D-03 0.000000000000D+00 0.000000000000D+00 0.225640458478D-04 0.000000000000D+00  6 -2 2 25 1 -1 21 0 0.26802645D+00 0.15506902D+00 0.73258130D+06 0.73258130D+06 0.73258130D+06 0.10569803D+01  1  2  2  3  6  4        1 0.221692545177D-04 0.100000000000D+01
0.972847631945D-04 0.000000000000D+00 -.640871131259D-06 0.225640458478D-04 0.000000000000D+00  6 -2 2 25 1 -1 21 2 0.26802645D+00 0.15506902D+00 0.73258130D+06 0.73258130D+06 0.73258130D+06 0.10569803D+01  1  2  3  3  6  4        1 0.144384307033D-04 0.100000000000D+01
-.111181582519D-03 0.000000000000D+00 0.000000000000D+00 0.225640458478D-04 0.000000000000D+00  6 -2 2 25 1 -1 21 2 0.26802645D+00 0.15506902D+00 0.73258130D+06 0.73258130D+06 0.73258130D+06 0.10569803D+01  1  2 15  3  6  4        1 -.165009146548D-04 0.100000000000D+01
0.332282938787D-08 0.000000000000D+00 0.000000000000D+00 0.225640458478D-04 0.000000000000D+00  6 -2 2 25 1 -1 21 2 0.26802645D+00 0.15506902D+00 0.73241968D+06 0.73241968D+06 0.73241968D+06 0.10569868D+01  1  2 12  3  6  4        1 0.493168809258D-09 0.100000000000D+01
0.428349882657D-01 0.000000000000D+00 0.000000000000D+00 0.225640458478D-04 0.000000000000D+00  6 -2 2 25 1 -1 21 2 0.26802645D+00 0.15506902D+00 0.73241968D+06 0.73241968D+06 0.73241968D+06 0.10569868D+01  1  2 12  3  6  4        1 0.635749768998D-02 0.100000000000D+01
-.649626167687D-01 0.000000000000D+00 0.000000000000D+00 0.225640458478D-04 0.000000000000D+00  6 -2 2 25 1 -1 21 2 0.26802645D+00 0.15506902D+00 0.73258130D+06 0.73258130D+06 0.73258130D+06 0.10569803D+01  1  2  4  3  6  4        1 -.964136838822D-02 0.100000000000D+01
-.428943276840D-01 0.000000000000D+00 0.000000000000D+00 0.225640458478D-04 0.000000000000D+00  6 -2 2 25 1 -1 21 2 0.26802645D+00 0.15506902D+00 0.73258130D+06 0.73258130D+06 0.73258130D+06 0.10569803D+01  1  2  5  3  6  4        1 -.636612309567D-02 0.100000000000D+01
0.557711022718D-01 0.000000000000D+00 -.000000000000D+00 0.225640458478D-04 0.000000000000D+00  6 -2 2 25 1 -1 21 2 0.26802645D+00 0.15506902D+00 0.73258130D+06 0.73258130D+06 0.73258130D+06 0.10569803D+01  1  2  6  3  6  4        1 0.827721802423D-02 0.100000000000D+01
  </mgrwgt>
  </event>
  <event>
  6     66 0.17652913E-05 0.97366484E+02 0.75467711E-02 0.92179627E-01
       -2 -1    0    0    0  503 0.00000000E+00 0.00000000E+00 0.16525438E+04 0.16525438E+04 0.32000000E+00 0.0000E+00 0.9000E+01
        2 -1    0    0  502    0 0.00000000E+00 0.00000000E+00 -.75360361E+03 0.75360367E+03 0.32000000E+00 0.0000E+00 0.9000E+01
       25  1    1    2    0    0 -.56150073E+03 0.21046436E+01 0.97496416E+01 0.57533256E+03 0.12500000E+03 0.0000E+00 0.9000E+01
        1  1    1    2  502    0 0.22051603E+02 -.11871099E+03 -.38941411E+03 0.40770335E+03 0.32000000E+00 0.0000E+00 0.9000E+01
       -1  1    1    2    0  501 0.49323322E+03 0.10939285E+03 0.82714153E+03 0.96923115E+03 0.32000000E+00 0.0000E+00 0.9000E+01
       21  1    1    2  501  503 0.46215903E+02 0.72134972E+01 0.45146308E+03 0.45388041E+03 0.75000000E+00 0.0000E+00 0.9000E+01
#aMCatNLO 2  0  0  1  5 0.46775466D+02 0.00000000D+00  -5  6  0 0.00000000D+00 0.00000000D+00 0.00000000D+00 0.00000000D+00 0.00000000D+00
  <mgrwgt>
 0.3900969905D-03    3    2    0
 0.949858275706683D+03 0.000000000000000D+00 0.000000000000000D+00 0.949858275706683D+03
 0.949858275706683D+03 0.000000000000000D+00 0.000000000000000D+00 -.949858275706683D+03
 0.575273163787812D+03 -.547332299661956D+03 0.432968540366531D+01 -.125390671684538D+03
 0.510845716145702D+03 0.344790656244598D+02 -.116783816253329D+03 -.496121033619205D+03
 0.813597671479852D+03 0.512853234037496D+03 0.112454130849663D+03 0.621511705303742D+03
 0.000000000000000D+00 0.000000000000000D+00 0.000000000000000D+00 0.000000000000000D+00
 0.130860411247627D+04 0.000000000000000D+00 0.000000000000000D+00 0.130860411247627D+04
 0.951672104454896D+03 0.000000000000000D+00 0.000000000000000D+00 -.951672104454896D+03
 0.588746463849955D+03 -.561489166020667D+03 0.212004522185789D+01 -.125390671684538D+03
 0.510605190782294D+03 0.220561273526114D+02 -.118722820471215D+03 -.496121033619205D+03
 0.800940670226115D+03 0.493217135992541D+03 0.109389278066947D+03 0.621511705303742D+03
 0.359983892072799D+03 0.462159026755141D+02 0.721349718240994D+01 0.356932008021370D+03
-.353718996744D-08 0.000000000000D+00 0.000000000000D+00 0.400152157930D-05 0.000000000000D+00  6 -2 2 25 1 -1 21 2 0.25436442D+00 0.11571800D+00 0.38935759D+06 0.38935759D+06 0.38935759D+06 0.10762729D+01  1  2 13  1  6  1       -2 -.103536117776D-08 0.100000000000D+01
-.225415811876D-02 0.000000000000D+00 0.000000000000D+00 0.400152157930D-05 0.000000000000D+00  6 -2 2 25 1 -1 21 2 0.25616425D+00 0.11571800D+00 0.38935759D+06 0.38935759D+06 0.38935759D+06 0.10762729D+01  1  2 13  1  6  1       -2 -.642388456582D-03 0.100000000000D+01
0.352919043703D-02 0.000000000000D+00 0.000000000000D+00 0.400152157930D-05 0.185269934445D-07  6 -2 2 25 1 -1 21 2 0.25423740D+00 0.11593898D+00 0.38935759D+06 0.38935759D+06 0.38935759D+06 0.10762729D+01  1  2  1  1  6  1       -2 0.103248648248D-02 0.100000000000D+01
  </mgrwgt>
  </event>
  <event>
  5     66 0.17652913E-05 0.40986909E+02 0.75467711E-02 0.89416360E-01
       -2 -1    0    0    0  501 0.00000000E+00 0.00000000E+00 0.17342833E+04 0.17342834E+04 0.32000000E+00 0.0000E+00 0.9000E+01
        2 -1    0    0  502    0 0.00000000E+00 0.00000000E+00 -.20554685E+04 0.20554685E+04 0.32000000E+00 0.0000E+00 0.9000E+01
       25  1    1    2    0    0 0.11861818E+03 0.53355770E+03 0.10344258E+04 0.11766120E+04 0.12500000E+03 0.0000E+00 0.9000E+01
        1  1    1    2  502    0 -.15665875E+03 -.54885252E+03 -.19426022E+04 0.20247184E+04 0.32000000E+00 0.0000E+00 0.9000E+01
       -1  1    1    2    0  501 0.38040569E+02 0.15294829E+02 0.58699128E+03 0.58842152E+03 0.32000000E+00 0.0000E+00 0.9000E+01
#aMCatNLO 1  0  0  2  4 0.68795220D+02 0.00000000D+00  -5  6  0 0.00000000D+00 0.00000000D+00 0.00000000D+00 0.00000000D+00 0.00000000D+00
  <mgrwgt>
 0.1610946093D-01    7    2    0
 0.188805850571435D+04 0.000000000000000D+00 0.000000000000000D+00 0.188805850571435D+04
 0.188805850571435D+04 0.000000000000000D+00 0.000000000000000D+00 -.188805850571435D+04
 0.126904735910625D+04 0.118643044026793D+03 0.533608286701964D+03 0.113843850256463D+04
 0.186680349934604D+04 -.156671277800813D+03 -.548898156148704D+03 -.177739141160843D+04
 0.640266152976409D+03 0.380282337740199D+02 0.152898694467405D+02 0.638952909043805D+03
 0.000000000000000D+00 -.000000000000000D+00 -.000000000000000D+00 -.000000000000000D+00
 0.208503273173838D+04 0.000000000000000D+00 0.000000000000000D+00 0.208503273173838D+04
 0.218461534162193D+04 0.000000000000000D+00 0.000000000000000D+00 -.218461534162193D+04
 0.134414284780352D+04 0.157020432860843D+03 0.685855199618658D+03 0.113843850256463D+04
 0.181152191325415D+04 -.102651281765215D+03 -.334595466933576D+03 -.177739141160843D+04
 0.647814717825666D+03 0.569450276215412D+02 0.903346693423320D+02 0.638952909043805D+03
 0.466168594476985D+03 -.111314178717169D+03 -.441594402027414D+03 -.995826098835538D+02
0.291372272051D+00 0.000000000000D+00 0.000000000000D+00 0.540056056687D-03 0.000000000000D+00  6 -2 2 25 1 -1 21 0 0.26681283D+00 0.31622593D+00 0.34372139D+06 0.34372139D+06 0.34372139D+06 0.10802074D+01  1  2  2  2  6  2        2 0.107507513246D-01 0.100000000000D+01
0.913124262986D-01 0.000000000000D+00 -.111894624476D-02 0.540056056687D-03 0.000000000000D+00  6 -2 2 25 1 -1 21 2 0.26681283D+00 0.31622593D+00 0.34372139D+06 0.34372139D+06 0.34372139D+06 0.10802074D+01  1  2  3  2  6  2        2 0.393128691335D-02 0.100000000000D+01
-.226577991339D+00 0.000000000000D+00 0.000000000000D+00 0.540056056687D-03 0.000000000000D+00  6 -2 2 25 1 -1 21 2 0.26681283D+00 0.31622593D+00 0.34372139D+06 0.34372139D+06 0.34372139D+06 0.10802074D+01  1  2 15  2  6  2        2 -.975489457803D-02 0.100000000000D+01
-.588976417181D-02 0.000000000000D+00 0.000000000000D+00 0.540056056687D-03 0.000000000000D+00  6 -2 2 25 1 -1 21 2 0.26681283D+00 0.31622593D+00 0.34372139D+06 0.34372139D+06 0.34372139D+06 0.10802074D+01  1  2  4  2  6  2        2 -.253572856948D-03 0.100000000000D+01
-.492946211976D+00 0.000000000000D+00 -.323748115598D+00 0.540056056687D-03 0.000000000000D+00  6 -2 2 25 1 -1 21 2 0.26681283D+00 0.38177108D+00 0.34372139D+06 0.34372139D+06 0.34372139D+06 0.10802074D+01  1  2  5  2  6  2        2 -.122053966771D-01 0.100000000000D+01
0.549805816991D+00 0.000000000000D+00 0.318088350476D+00 0.540056056687D-03 0.000000000000D+00  6 -2 2 25 1 -1 21 2 0.26681283D+00 0.31622593D+00 0.34372139D+06 0.34372139D+06 0.34372139D+06 0.10802074D+01  1  2  6  2  6  2        2 0.236708682579D-01 0.100000000000D+01
-.101078063255D-01 0.000000000000D+00 -.884605400323D-02 0.540056056687D-03 0.000000000000D+00  6 -2 21 25 1 -1 -2 2 0.26681283D+00 0.38177108D+00 0.34372139D+06 0.34372139D+06 0.34372139D+06 0.10802074D+01  1  2  5  6  6  2        2 -.295814512755D-04 0.100000000000D+01
  </mgrwgt>
  </event>
  <event>
  5     66 0.17652913E-05 0.93555719E+02 0.75467711E-02 0.94097970E-01
       -2 -1    0    0    0  501 0.00000000E+00 0.00000000E+00 0.28329774E+03 0.28329792E+03 0.32000000E+00 0.0000E+00 0.9000E+01
        2 -1    0    0  502    0 -.00000000E+00 -.00000000E+00 -.29273706E+04 0.29273706E+04 0.32000000E+00 0.0000E+00 0.9000E+01
       25  1    1    2    0    0 -.48387815E+03 -.17579074E+03 -.14775912E+04 0.15696947E+04 0.12500000E+03 0.0000E+00 0.9000E+01
        1  1    1    2  502    0 0.40590342E+03 0.12407546E+03 -.13607163E+04 0.14253776E+04 0.32000000E+00 0.0000E+00 0.9000E+01
       -1  1    1    2    0  501 0.77974726E+02 0.51715283E+02 0.19423470E+03 0.21559627E+03 0.32000000E+00 0.0000E+00 0.9000E+01
#aMCatNLO 1  0  0  5  4 0.56372281D+02 0.00000000D+00  -5  6  0 0.00000000D+00 0.00000000D+00 0.00000000D+00 0.00000000D+00 0.00000000D+00
  <mgrwgt>
 0.6380440648D-03    1    2    0
 0.910668863328114D+03 0.000000000000000D+00 0.000000000000000D+00 0.910668863328114D+03
 0.910668863328114D+03 -.000000000000000D+00 -.000000000000000D+00 -.910668863328114D+03
 0.622038950050771D+03 -.483937217864080D+03 -.175808690186794D+03 -.325888829205672D+03
 0.537339778015095D+03 0.405970756992162D+03 0.124098889464628D+03 -.329425632181481D+03
 0.661958998590361D+03 0.779664608719179D+02 0.517098007221653D+02 0.655314461387154D+03
 0.000000000000000D+00 0.000000000000000D+00 0.000000000000000D+00 -.000000000000000D+00
 0.910668863328114D+03 0.000000000000000D+00 0.000000000000000D+00 0.910668863328114D+03
 0.910668863328114D+03 -.000000000000000D+00 -.000000000000000D+00 -.910668863328114D+03
 0.546815670452191D+03 -.468049130675824D+03 -.165271212748761D+03 -.192348160797650D+03
 0.489010611126337D+03 0.419921802898421D+03 0.133351660407554D+03 -.212165953704269D+03
 0.502629729130525D+03 -.223297501033351D+03 -.341953699806493D+02 0.449005063791013D+03
 0.282881715947174D+03 0.271424828810755D+03 0.661149223218567D+02 -.444909492890940D+02
0.428613306725D-03 0.000000000000D+00 0.000000000000D+00 0.929512316613D-05 0.000000000000D+00  6 -2 2 25 1 -1 21 2 0.43584282D-01 0.45036472D+00 0.27452836D+06 0.27452836D+06 0.27452836D+06 0.10874143D+01  1  2 14  4  6  5       -1 0.638044064848D-03 0.100000000000D+01
  </mgrwgt>
  </event>
  <event>
  6     66 0.17652913E-05 0.50951998E+02 0.75467711E-02 0.94641363E-01
       -2 -1    0    0    0  501 0.00000000E+00 0.00000000E+00 0.27537493E+03 0.27537512E+03 0.32000000E+00 0.0000E+00 0.9000E+01
        2 -1    0    0  502    0 -.00000000E+00 -.00000000E+00 -.29813735E+04 0.29813735E+04 0.32000000E+00 0.0000E+00 0.9000E+01
       25  1    1    2    0    0 0.44525435E+03 -.17173715E+03 -.38604933E+03 0.62642172E+03 0.12500000E+03 0.0000E+00 0.9000E+01
        1  1    1    2  502    0 -.42610039E+03 0.12012855E+03 -.24082651E+04 0.24486186E+04 0.32000000E+00 0.0000E+00 0.9000E+01
       -1  1    1    2    0  503 -.97575552E+01 0.51849116E+02 0.12930176E+03 0.13965167E+03 0.32000000E+00 0.0000E+00 0.9000E+01
       21  1    1    2  503  501 -.93964095E+01 -.24051605E+00 -.40985876E+02 0.42056568E+02 0.75000000E+00 0.0000E+00 0.9000E+01
#aMCatNLO 2  0  0  5  2 0.99261690D+01 0.00000000D+00  -5  6  0 0.00000000D+00 0.00000000D+00 0.00000000D+00 0.00000000D+00 0.00000000D+00
  <mgrwgt>
 0.5809637761D-03    2    2    0
 0.906088207921200D+03 0.000000000000000D+00 0.000000000000000D+00 0.906088207921200D+03
 0.906088207921200D+03 -.000000000000000D+00 -.000000000000000D+00 -.906088207921200D+03
 0.547009880216980D+03 0.445820600226686D+03 -.172659568312136D+03 0.234579357443870D+03
 0.813378547259071D+03 -.425861262169043D+03 0.118880963464298D+03 -.682710892729029D+03
 0.451787988366349D+03 -.199593380576431D+02 0.537786048478377D+02 0.448131535285158D+03
 0.000000000000000D+00 0.000000000000000D+00 0.000000000000000D+00 -.000000000000000D+00
 0.906088207921200D+03 0.000000000000000D+00 0.000000000000000D+00 0.906088207921200D+03
 0.906088207921200D+03 -.000000000000000D+00 -.000000000000000D+00 -.906088207921200D+03
 0.549723015129808D+03 0.445485632965205D+03 -.171757029764006D+03 0.242100117537445D+03
 0.804548400322153D+03 -.426355413991431D+03 0.120212410204381D+03 -.671616085166208D+03
 0.443529706298429D+03 -.972932952121494D+01 0.517863974859656D+02 0.440388589261420D+03
 0.143752940920107D+02 -.940088945255814D+01 -.241777926341082D+00 -.108726216326566D+02
-.346247102551D-02 0.000000000000D+00 0.000000000000D+00 0.547279430416D-04 0.000000000000D+00  6 -2 2 25 1 -1 21 2 0.42365390D-01 0.45867285D+00 0.24684218D+06 0.24684218D+06 0.24684218D+06 0.10908747D+01  1  2  8  4  6  5       -1 -.510457746640D-02 0.100000000000D+01
0.386156706229D-02 0.000000000000D+00 0.000000000000D+00 0.547279430416D-04 0.245924214077D-04  6 -2 2 25 1 -1 21 2 0.42365390D-01 0.45867285D+00 0.24930855D+06 0.24930855D+06 0.24930855D+06 0.10905496D+01  1  2  1  4  6  5       -1 0.568554124251D-02 0.100000000000D+01
  </mgrwgt>
  </event>
  <event>
  5     66 0.17652913E-05 0.57776342E+02 0.75467711E-02 0.94812995E-01
       -2 -1    0    0    0  501 0.00000000E+00 0.00000000E+00 0.69560532E+03 0.69560539E+03 0.32000000E+00 0.0000E+00 0.9000E+01
        2 -1    0    0  502    0 0.00000000E+00 0.00000000E+00 -.10062559E+04 0.10062559E+04 0.32000000E+00 0.0000E+00 0.9000E+01
       25  1    1    2    0    0 -.40317637E+03 0.24665372E+03 -.31649745E+03 0.58239581E+03 0.12500000E+03 0.0000E+00 0.9000E+01
        1  1    1    2  502    0 0.34648478E+03 -.23547011E+03 -.47604189E+03 0.63412448E+03 0.32000000E+00 0.0000E+00 0.9000E+01
       -1  1    1    2    0  501 0.56691588E+02 -.11183611E+02 0.48188878E+03 0.48534103E+03 0.32000000E+00 0.0000E+00 0.9000E+01
#aMCatNLO 1  0  0  1  2 0.18450143D+02 0.00000000D+00  -5  6  0 0.00000000D+00 0.00000000D+00 0.00000000D+00 0.00000000D+00 0.00000000D+00
  <mgrwgt>
 0.2184519938D-01    9    4    0
 0.836634355941111D+03 0.000000000000000D+00 0.000000000000000D+00 0.836634355941111D+03
 0.836634355941111D+03 0.000000000000000D+00 0.000000000000000D+00 -.836634355941111D+03
 0.533620960535487D+03 -.403230884231868D+03 0.246691496196538D+03 -.213715907757740D+03
 0.556627259136453D+03 0.346546968033863D+03 -.235509398275813D+03 -.366434752560481D+03
 0.583020492210282D+03 0.566839161980043D+02 -.111820979207254D+02 0.580150660318221D+03
 0.000000000000000D+00 -.000000000000000D+00 -.000000000000000D+00 0.000000000000000D+00
 0.857947696297918D+03 0.000000000000000D+00 0.000000000000000D+00 0.857947696297918D+03
 0.840687660603450D+03 0.000000000000000D+00 0.000000000000000D+00 -.840687660603450D+03
 0.535844474201245D+03 -.402553231179218D+03 0.252548425792886D+03 -.213715907757740D+03
 0.554520665586778D+03 0.347251032661552D+03 -.229424194439530D+03 -.366434752560481D+03
 0.583005288406046D+03 0.574227534750568D+02 -.479635539667908D+01 0.580150660318221D+03
 0.252649287072997D+02 -.212055495739068D+01 -.183278759566766D+02 0.172600356944676D+02
 0.836634355941111D+03 0.000000000000000D+00 0.000000000000000D+00 0.836634355941111D+03
 0.836634355941111D+03 0.000000000000000D+00 0.000000000000000D+00 -.836634355941111D+03
 0.533620960535487D+03 -.403230884231868D+03 0.246691496196538D+03 -.213715907757740D+03
 0.556627259136453D+03 0.346546968033863D+03 -.235509398275813D+03 -.366434752560481D+03
 0.000000000000000D+00 -.000000000000000D+00 -.000000000000000D+00 0.000000000000000D+00
 0.583020492210282D+03 0.566839161980043D+02 -.111820979207254D+02 0.580150660318221D+03
 0.857947696297918D+03 0.000000000000000D+00 0.000000000000000D+00 0.857947696297918D+03
 0.840687660603450D+03 0.000000000000000D+00 0.000000000000000D+00 -.840687660603450D+03
 0.535844474201245D+03 -.402553231179218D+03 0.252548425792886D+03 -.213715907757740D+03
 0.554520665586778D+03 0.347251032661552D+03 -.229424194439530D+03 -.366434752560481D+03
 0.252649287072997D+02 -.212055495739068D+01 -.183278759566766D+02 0.172600356944676D+02
 0.583005288406046D+03 0.574227534750568D+02 -.479635539667908D+01 0.580150660318221D+03
0.324474920779D-02 0.000000000000D+00 0.000000000000D+00 0.281848103734D-04 0.000000000000D+00  6 -2 2 25 1 -1 21 0 0.10701621D+00 0.15480861D+00 0.23315830D+06 0.23315830D+06 0.23315830D+06 0.10927451D+01  1  2  2  1  6  1       -2 0.730937202841D-02 0.100000000000D+01
0.115794434108D-02 0.000000000000D+00 -.124606913200D-04 0.281848103734D-04 0.000000000000D+00  6 -2 2 25 1 -1 21 2 0.10701621D+00 0.15480861D+00 0.23315830D+06 0.23315830D+06 0.23315830D+06 0.10927451D+01  1  2  3  1  6  1       -2 0.311475823831D-02 0.100000000000D+01
-.232479951636D-02 0.000000000000D+00 0.000000000000D+00 0.281848103734D-04 0.000000000000D+00  6 -2 2 25 1 -1 21 2 0.10701621D+00 0.15480861D+00 0.23315830D+06 0.23315830D+06 0.23315830D+06 0.10927451D+01  1  2 15  1  6  1       -2 -.625348575847D-02 0.100000000000D+01
0.608541257945D-08 0.000000000000D+00 0.000000000000D+00 0.281848103734D-04 0.000000000000D+00  6 -2 2 25 1 -1 21 2 0.10999767D+00 0.15480861D+00 0.24189131D+06 0.24189131D+06 0.24189131D+06 0.10915380D+01  1  2 12  1  6  1       -2 0.152331847983D-07 0.100000000000D+01
-.315729986138D-03 0.000000000000D+00 0.000000000000D+00 0.281848103734D-04 0.000000000000D+00  6 -2 2 25 1 -1 21 2 0.10701621D+00 0.15480861D+00 0.23315830D+06 0.23315830D+06 0.23315830D+06 0.10927451D+01  1  2  4  1  6  1       -2 -.849283113635D-03 0.100000000000D+01
-.251326533104D+00 0.000000000000D+00 -.297311514645D-01 0.281848103734D-04 0.000000000000D+00  6 -2 2 25 1 -1 21 2 0.11006680D+00 0.15480861D+00 0.23315830D+06 0.23315830D+06 0.23315830D+06 0.10927451D+01  1  2  5  1  6  1       -2 -.630637083594D+00 0.100000000000D+01
0.252074352403D+00 0.000000000000D+00 0.297194113949D-01 0.281848103734D-04 0.000000000000D+00  6 -2 2 25 1 -1 21 2 0.10701621D+00 0.15480861D+00 0.23315830D+06 0.23315830D+06 0.23315830D+06 0.10927451D+01  1  2  6  1  6  1       -2 0.678055618014D+00 0.100000000000D+01
0.201290357679D-09 0.000000000000D+00 0.000000000000D+00 0.281848103734D-04 0.000000000000D+00  6 21 2 25 1 2 -1 2 0.10999767D+00 0.15480861D+00 0.24189131D+06 0.24189131D+06 0.24189131D+06 0.10915380D+01  3  4 12  5  5  1       -2 0.459310508752D-08 0.100000000000D+01
-.126189966690D-02 0.000000000000D+00 -.150284548552D-03 0.281848103734D-04 0.000000000000D+00  6 21 2 25 1 2 -1 2 0.11006680D+00 0.15480861D+00 0.23315830D+06 0.23315830D+06 0.23315830D+06 0.10927451D+01  3  4  5  5  5  1       -2 -.288947162615D-01 0.100000000000D+01
  </mgrwgt>
  </event>
  <event>
  6     66 0.17652913E-05 0.18664217E+03 0.75467711E-02 0.90432604E-01
       -2 -1    0    0    0  501 0.00000000E+00 0.00000000E+00 0.11236942E+04 0.11236943E+04 0.32000000E+00 0.0000E+00 0.9000E+01
        2 -1    0    0  502    0 -.00000000E+00 -.00000000E+00 -.19164231E+04 0.19164232E+04 0.32000000E+00 0.0000E+00 0.9000E+01
       25  1    1    2    0    0 0.19364061E+03 -.62223306E+03 -.11881658E+03 0.67410166E+03 0.12500000E+03 0.0000E+00 0.9000E+01
        1  1    1    2  503    0 -.16242978E+03 0.34198303E+01 -.11409098E+04 0.11524193E+04 0.32000000E+00 0.0000E+00 0.9000E+01
       -1  1    1    2    0  501 -.32202845E+01 0.61885585E+03 0.72549255E+03 0.95358926E+03 0.32000000E+00 0.0000E+00 0.9000E+01
       21  1    1    2  502  503 -.27990546E+02 -.42620624E-01 -.25849508E+03 0.26000719E+03 0.75000000E+00 0.0000E+00 0.9000E+01
#aMCatNLO 2  0  0  4  2 0.71556660D+01 0.00000000D+00  -5  6  0 0.00000000D+00 0.00000000D+00 0.00000000D+00 0.00000000D+00 0.00000000D+00
  <mgrwgt>
 0.3427199442D-02    3    2    0
 0.146747189691888D+04 0.000000000000000D+00 0.000000000000000D+00 0.146747189691888D+04
 0.146747189691888D+04 -.000000000000000D+00 -.000000000000000D+00 -.146747189691888D+04
 0.666166971608467D+03 0.193655322848510D+03 -.622221898776467D+03 0.590843352966167D+02
 0.108503119345759D+04 -.190446272675467D+03 0.337899316368236D+01 -.106818139396135D+04
 0.118374562877170D+04 -.320905017304304D+01 0.618842905612785D+03 0.100909705866473D+04
 0.000000000000000D+00 0.000000000000000D+00 0.000000000000000D+00 -.000000000000000D+00
 0.146747189691888D+04 0.000000000000000D+00 0.000000000000000D+00 0.146747189691888D+04
 0.146747189691888D+04 -.000000000000000D+00 -.000000000000000D+00 -.146747189691888D+04
 0.666161915870738D+03 0.193649039205768D+03 -.622221787288930D+03 0.590490913920307D+02
 0.886305977179490D+03 -.162574453383976D+03 0.342431762974497D+01 -.871261215904715D+03
 0.118369237731957D+04 -.322021568538993D+01 0.618843103716898D+03 0.100903443316739D+04
 0.198783523467948D+03 -.278543701364031D+02 -.456340577124109D-01 -.196822308654708D+03
-.363805794834D-08 0.000000000000D+00 0.000000000000D+00 0.606306585510D-05 0.000000000000D+00  6 -2 2 25 1 -1 21 2 0.17287604D+00 0.29483433D+00 0.54232626D+06 0.54232626D+06 0.54232626D+06 0.10660251D+01  1  2 13  3  6  4        1 -.748779096452D-09 0.100000000000D+01
-.281586571782D-01 0.000000000000D+00 0.000000000000D+00 0.606306585510D-05 0.000000000000D+00  6 -2 2 25 1 -1 21 2 0.17287604D+00 0.29483433D+00 0.54232626D+06 0.54232626D+06 0.54232626D+06 0.10660251D+01  1  2 13  3  6  4        1 -.579556845398D-02 0.100000000000D+01
0.448102343300D-01 0.000000000000D+00 0.000000000000D+00 0.606306585510D-05 0.772592051192D-06  6 -2 2 25 1 -1 21 2 0.17287604D+00 0.29483433D+00 0.54232626D+06 0.54232626D+06 0.54232626D+06 0.10660251D+01  1  2  1  3  6  4        1 0.922276864466D-02 0.100000000000D+01
  </mgrwgt>
  </event>
  <event>
  5     66 0.17652913E-05 0.34316712E+02 0.75467711E-02 0.91202904E-01
       -2 -1    0    0    0  501 0.00000000E+00 0.00000000E+00 0.22929879E+03 0.22929901E+03 0.32000000E+00 0.0000E+00 0.9000E+01
        2 -1    0    0  502    0 0.00000000E+00 0.00000000E+00 -.27202318E+04 0.27202318E+04 0.32000000E+00 0.0000E+00 0.9000E+01
       25  1    1    2    0    0 -.27699641E+03 -.44024103E+03 -.13516879E+04 0.14536933E+04 0.12500000E+03 0.0000E+00 0.9000E+01
        1  1    1    2  502    0 0.28997469E+03 0.40846308E+03 -.12675911E+04 0.13629801E+04 0.32000000E+00 0.0000E+00 0.9000E+01
       -1  1    1    2    0  501 -.12978272E+02 0.31777946E+02 0.12834603E+03 0.13285736E+03 0.32000000E+00 0.0000E+00 0.9000E+01
#aMCatNLO 1  0  0  2  4 0.14763406D+03 0.00000000D+00  -5  6  0 0.00000000D+00 0.00000000D+00 0.00000000D+00 0.00000000D+00 0.00000000D+00
  <mgrwgt>
 0.1111575154D-01    7    2    0
 0.789776052530079D+03 0.000000000000000D+00 0.000000000000000D+00 0.789776052530079D+03
 0.789776052530079D+03 0.000000000000000D+00 0.000000000000000D+00 -.789776052530079D+03
 0.582971638320802D+03 -.277050713899439D+03 -.440314875074498D+03 -.231509489659451D+03
 0.546214957848532D+03 0.290025479225860D+03 0.408545515342412D+03 -.217546692622265D+03
 0.450365508890825D+03 -.129747653264211D+02 0.317693597320862D+02 0.449056182281716D+03
 0.000000000000000D+00 -.000000000000000D+00 -.000000000000000D+00 -.000000000000000D+00
 0.909492113828638D+03 0.000000000000000D+00 0.000000000000000D+00 0.909492113828638D+03
 0.931983908207141D+03 0.000000000000000D+00 0.000000000000000D+00 -.931983908207141D+03
 0.526000457712762D+03 -.198005321339295D+03 -.410181338474800D+03 -.231509489659451D+03
 0.616528167156481D+03 0.372903567043724D+03 0.440140144854466D+03 -.217546692622265D+03
 0.455513608939430D+03 0.515945513741882D+02 0.563843537880000D+02 0.449056182281716D+03
 0.243433788227107D+03 -.226492797078617D+03 -.863431601676661D+02 -.224917943785031D+02
0.168596341254D-02 0.000000000000D+00 0.000000000000D+00 0.106836817339D-04 0.000000000000D+00  6 -2 2 25 1 -1 21 0 0.35276756D-01 0.41849721D+00 0.28642401D+06 0.28642401D+06 0.28642401D+06 0.10860430D+01  1  2  2  2  6  2        2 0.420901108720D-02 0.100000000000D+01
0.862883139044D-03 0.000000000000D+00 -.647454342853D-05 0.106836817339D-04 0.000000000000D+00  6 -2 2 25 1 -1 21 2 0.35276756D-01 0.41849721D+00 0.28642401D+06 0.28642401D+06 0.28642401D+06 0.10860430D+01  1  2  3  2  6  2        2 0.254084354849D-02 0.100000000000D+01
-.100549716008D-02 0.000000000000D+00 0.000000000000D+00 0.106836817339D-04 0.000000000000D+00  6 -2 2 25 1 -1 21 2 0.35276756D-01 0.41849721D+00 0.28642401D+06 0.28642401D+06 0.28642401D+06 0.10860430D+01  1  2 15  2  6  2        2 -.296078444068D-02 0.100000000000D+01
-.125093391492D-03 0.000000000000D+00 0.000000000000D+00 0.106836817339D-04 0.000000000000D+00  6 -2 2 25 1 -1 21 2 0.35276756D-01 0.41849721D+00 0.28642401D+06 0.28642401D+06 0.28642401D+06 0.10860430D+01  1  2  4  2  6  2        2 -.368349689951D-03 0.100000000000D+01
-.388019260303D-02 0.000000000000D+00 -.143989111649D-02 0.106836817339D-04 0.000000000000D+00  6 -2 2 25 1 -1 21 2 0.35276756D-01 0.51719683D+00 0.28642401D+06 0.28642401D+06 0.28642401D+06 0.10860430D+01  1  2  5  2  6  2        2 -.444366618561D-02 0.100000000000D+01
0.412397942663D-02 0.000000000000D+00 0.140820147635D-02 0.106836817339D-04 0.000000000000D+00  6 -2 2 25 1 -1 21 2 0.35276756D-01 0.41849721D+00 0.28642401D+06 0.28642401D+06 0.28642401D+06 0.10860430D+01  1  2  6  2  6  2        2 0.121434595789D-01 0.100000000000D+01
-.976986633005D-04 0.000000000000D+00 -.430398536004D-04 0.106836817339D-04 0.000000000000D+00  6 -2 21 25 1 -1 -2 2 0.35276756D-01 0.51719683D+00 0.28642401D+06 0.28642401D+06 0.28642401D+06 0.10860430D+01  1  2  5  6  6  2        2 -.476235387674D-05 0.100000000000D+01
  </mgrwgt>
  </event>
  <event>
  5     66 0.17652913E-05 0.13049654E+03 0.75467711E-02 0.90278536E-01
       -2 -1    0    0    0  501 0.00000000E+00 0.00000000E+00 0.43969737E+03 0.43969749E+03 0.32000000E+00 0.0000E+00 0.9000E+01
        2 -1    0    0  502    0 0.00000000E+00 0.00000000E+00 -.18450290E+04 0.18450290E+04 0.32000000E+00 0.0000E+00 0.9000E+01
       25  1    1    2    0    0 -.54641464E+03 0.30362540E+03 -.48672540E+03 0.80204985E+03 0.12500000E+03 0.0000E+00 0.9000E+01
        1  1    1    2  502    0 0.13025642E+03 0.75621828E+01 -.95300908E+03 0.96189933E+03 0.32000000E+00 0.0000E+00 0.9000E+01
       -1  1    1    2    0  501 0.41615823E+03 -.31118758E+03 0.34402852E+02 0.52077734E+03 0.32000000E+00 0.0000E+00 0.9000E+01
#aMCatNLO 1  0  0  2  4 0.30199954D+03 0.00000000D+00  -5  6  0 0.00000000D+00 0.00000000D+00 0.00000000D+00 0.00000000D+00 0.00000000D+00
  <mgrwgt>
 0.8955581985D-03    4    2    0
 0.900696714631366D+03 0.000000000000000D+00 0.000000000000000D+00 0.900696714631366D+03
 0.900696714631366D+03 0.000000000000000D+00 0.000000000000000D+00 -.900696714631366D+03
 0.637513998310120D+03 -.546400682665243D+03 0.303600189935721D+03 0.850392234831492D+01
 0.476590684174544D+03 0.130277291736617D+03 0.756133859669075D+01 -.458376846773873D+03
 0.687288746778069D+03 0.416123390928626D+03 -.311161528532412D+03 0.449872924425558D+03
 0.000000000000000D+00 -.000000000000000D+00 0.000000000000000D+00 0.000000000000000D+00
 0.103138956834346D+04 0.000000000000000D+00 0.000000000000000D+00 0.103138956834346D+04
 0.960094296557575D+03 0.000000000000000D+00 0.000000000000000D+00 -.960094296557575D+03
 0.590014367543805D+03 -.517339250408814D+03 0.254518638215861D+03 0.850392234831492D+01
 0.484229203628309D+03 0.153024466349227D+03 -.308561288349966D+02 -.458376846773873D+03
 0.734945893622064D+03 0.449794446363652D+03 -.368028225060451D+03 0.449872924425558D+03
 0.182294400106860D+03 -.854796623040659D+02 0.144365715679586D+03 0.712952717858884D+02
0.107590281691D-02 0.000000000000D+00 0.000000000000D+00 0.148780220063D-05 0.000000000000D+00  6 -2 2 25 1 -1 21 0 0.67645761D-01 0.28385063D+00 0.41444624D+06 0.41444624D+06 0.41444624D+06 0.10743186D+01  1  2  2  2  6  2        2 0.227171523504D-02 0.100000000000D+01
0.173780970543D-03 0.000000000000D+00 -.413175010865D-05 0.148780220063D-05 0.000000000000D+00  6 -2 2 25 1 -1 21 2 0.67645761D-01 0.28385063D+00 0.41444624D+06 0.41444624D+06 0.41444624D+06 0.10743186D+01  1  2  3  2  6  2        2 0.423495957778D-03 0.100000000000D+01
-.658487027615D-03 0.000000000000D+00 0.000000000000D+00 0.148780220063D-05 0.000000000000D+00  6 -2 2 25 1 -1 21 2 0.67645761D-01 0.28385063D+00 0.41444624D+06 0.41444624D+06 0.41444624D+06 0.10743186D+01  1  2 15  2  6  2        2 -.160470155951D-02 0.100000000000D+01
-.799980470340D-04 0.000000000000D+00 0.000000000000D+00 0.148780220063D-05 0.000000000000D+00  6 -2 2 25 1 -1 21 2 0.67645761D-01 0.28385063D+00 0.41444624D+06 0.41444624D+06 0.41444624D+06 0.10743186D+01  1  2  4  2  6  2        2 -.194951434804D-03 0.100000000000D+01
  </mgrwgt>
  </event>
  <event>
  5     66 -.17652913E-05 0.58269178E+02 0.75467711E-02 0.95177566E-01
       -2 -1    0    0    0  501 0.00000000E+00 0.00000000E+00 0.78470988E+03 0.78470994E+03 0.32000000E+00 0.0000E+00 0.9000E+01
        2 -1    0    0  502    0 -.00000000E+00 -.00000000E+00 -.14834201E+04 0.14834201E+04 0.32000000E+00 0.0000E+00 0.9000E+01
       25  1    1    2    0    0 0.14723068E+02 0.46653330E+03 0.53817978E+02 0.48620105E+03 0.12500000E+03 0.0000E+00 0.9000E+01
        1  1    1    2  502    0 -.29410813E+02 -.41013555E+03 -.12320623E+04 0.12988663E+04 0.32000000E+00 0.0000E+00 0.9000E+01
       -1  1    1    2    0  501 0.14687745E+02 -.56397754E+02 0.47953413E+03 0.48306265E+03 0.32000000E+00 0.0000E+00 0.9000E+01
#aMCatNLO 1  0  0  5  1 0.52184528D+01 0.00000000D+00  -5  6  0 0.00000000D+00 0.00000000D+00 0.00000000D+00 0.00000000D+00 0.00000000D+00
  <mgrwgt>
 -.1490046240D+00    9    2    0
 0.107891356639122D+04 0.000000000000000D+00 0.000000000000000D+00 0.107891356639122D+04
 0.107891356639122D+04 -.000000000000000D+00 -.000000000000000D+00 -.107891356639122D+04
 0.528568238939368D+03 0.147290485228859D+02 0.466581563007975D+03 0.214112314933332D+03
 0.966340112710392D+03 -.294143299518721D+02 -.410193269260409D+03 -.874465260876653D+03
 0.662918781132677D+03 0.146852814289862D+02 -.563882937475658D+02 0.660352945943322D+03
 0.000000000000000D+00 0.000000000000000D+00 0.000000000000000D+00 0.000000000000000D+00
 0.107891356639122D+04 0.000000000000000D+00 0.000000000000000D+00 0.107891356639122D+04
 0.107891356639122D+04 -.000000000000000D+00 -.000000000000000D+00 -.107891356639122D+04
 0.528575521419780D+03 0.147295387787580D+02 0.466579680531819D+03 0.214134360265658D+03
 0.966305075524770D+03 -.294134336776966D+02 -.410196710758737D+03 -.874424958122155D+03
 0.431226475530069D+03 0.108824552450141D+02 -.417028313681794D+02 0.429067266546637D+03
 0.231720060307818D+03 0.380143965392443D+01 -.146801384049026D+02 0.231223331309860D+03
0.972649600433D-04 0.000000000000D+00 0.000000000000D+00 0.235880746164D-03 0.000000000000D+00  6 -2 2 25 1 -1 21 0 0.12072460D+00 0.22821848D+00 0.22694543D+06 0.22694543D+06 0.22694543D+06 0.10936343D+01  1  2  2  4  6  5       -1 0.862601082510D-04 0.100000000000D+01
0.324315565729D-04 0.000000000000D+00 -.373523057019D-06 0.235880746164D-03 0.000000000000D+00  6 -2 2 25 1 -1 21 2 0.12072460D+00 0.22821848D+00 0.22694543D+06 0.22694543D+06 0.22694543D+06 0.10936343D+01  1  2  3  4  6  5       -1 0.344005688187D-04 0.100000000000D+01
-.711341534895D-04 0.000000000000D+00 0.000000000000D+00 0.235880746164D-03 0.000000000000D+00  6 -2 2 25 1 -1 21 2 0.12072460D+00 0.22821848D+00 0.22694543D+06 0.22694543D+06 0.22694543D+06 0.10936343D+01  1  2 15  4  6  5       -1 -.754529107160D-04 0.100000000000D+01
0.523783323876D-09 0.000000000000D+00 0.000000000000D+00 0.235880746164D-03 0.000000000000D+00  6 -2 2 25 1 -1 21 2 0.12072460D+00 0.22821848D+00 0.22694357D+06 0.22694357D+06 0.22694357D+06 0.10936346D+01  1  2 12  4  6  5       -1 0.555584256269D-09 0.100000000000D+01
0.416259062895D-01 0.000000000000D+00 0.000000000000D+00 0.235880746164D-03 0.000000000000D+00  6 -2 2 25 1 -1 21 2 0.12072460D+00 0.22821848D+00 0.22694357D+06 0.22694357D+06 0.22694357D+06 0.10936346D+01  1  2 12  4  6  5       -1 0.441531777228D-01 0.100000000000D+01
-.298631913293D+00 0.000000000000D+00 0.000000000000D+00 0.235880746164D-03 0.000000000000D+00  6 -2 2 25 1 -1 21 2 0.12072460D+00 0.22821848D+00 0.22694543D+06 0.22694543D+06 0.22694543D+06 0.10936343D+01  1  2  4  4  6  5       -1 -.316762708001D+00 0.100000000000D+01
-.884992328282D-01 0.000000000000D+00 0.000000000000D+00 0.235880746164D-03 0.000000000000D+00  6 -2 2 25 1 -1 21 2 0.12072460D+00 0.22821848D+00 0.22694543D+06 0.22694543D+06 0.22694543D+06 0.10936343D+01  1  2  5  4  6  5       -1 -.938722735206D-01 0.100000000000D+01
0.124376027800D+00 0.000000000000D+00 -.000000000000D+00 0.235880746164D-03 0.000000000000D+00  6 -2 2 25 1 -1 21 2 0.12072460D+00 0.22821848D+00 0.22694543D+06 0.22694543D+06 0.22694543D+06 0.10936343D+01  1  2  6  4  6  5       -1 0.131927250982D+00 0.100000000000D+01
0.806105396153D-01 0.000000000000D+00 0.000000000000D+00 0.235880746164D-03 0.470707709073D-04  6 -2 2 25 1 -1 21 2 0.12072460D+00 0.22821848D+00 0.22694357D+06 0.22694357D+06 0.22694357D+06 0.10936346D+01  1  2 11  4  6  5       -1 0.855047204790D-01 0.100000000000D+01
  </mgrwgt>
  </event>
  <event>
  5     66 0.17652913E-05 0.19666540E+03 0.75467711E-02 0.95519433E-01
       -2 -1    0    0    0  501 0.00000000E+00 0.00000000E+00 0.92491516E+03 0.92491522E+03 0.32000000E+00 0.0000E+00 0.9000E+01
        2 -1    0    0  502    0 0.00000000E+00 0.00000000E+00 -.29888827E+04 0.29888828E+04 0.32000000E+00 0.0000E+00 0.9000E+01
       25  1    1    2    0    0 0.27385223E+03 0.36142440E+03 0.46962281E+02 0.47270825E+03 0.12500000E+03 0.0000E+00 0.9000E+01
        1  1    1    2  502    0 -.14317629E+03 -.21443338E+03 -.27553175E+04 0.27673553E+04 0.32000000E+00 0.0000E+00 0.9000E+01
       -1  1    1    2    0  501 -.13067594E+03 -.14699102E+03 0.64438759E+03 0.67373439E+03 0.32000000E+00 0.0000E+00 0.9000E+01
#aMCatNLO 1  0  0  1  1 0.68160189D+02 0.00000000D+00  -5  6  0 0.00000000D+00 0.00000000D+00 0.00000000D+00 0.00000000D+00 0.00000000D+00
  <mgrwgt>
 0.7409838455D-02    6    2    0
 0.166266746438877D+04 0.000000000000000D+00 0.000000000000000D+00 0.166266746438877D+04
 0.166266746438877D+04 0.000000000000000D+00 0.000000000000000D+00 -.166266746438877D+04
 0.585572709627340D+03 0.273856311481930D+03 0.361433668877849D+03 0.348767575791263D+03
 0.154692462291513D+04 -.143189291788948D+03 -.214452679960319D+03 -.152528117531029D+04
 0.119283759623506D+04 -.130667019692982D+03 -.146980988917530D+03 0.117651359951903D+04
 0.000000000000000D+00 0.000000000000000D+00 -.000000000000000D+00 -.000000000000000D+00
 0.167015211906031D+04 0.000000000000000D+00 0.000000000000000D+00 0.167015211906031D+04
 0.182578963688282D+04 0.000000000000000D+00 0.000000000000000D+00 -.182578963688282D+04
 0.581363401268875D+03 0.262057620865926D+03 0.363380497217024D+03 0.348767575791263D+03
 0.154942974903338D+04 -.174495999097951D+03 -.209286955476218D+03 -.152528117531029D+04
 0.119524025300124D+04 -.154812464715189D+03 -.142996899651942D+03 0.117651359951903D+04
 0.169908352639633D+03 0.672508429472138D+02 -.110966420888639D+02 -.155637517822518D+03
0.226443595966D+00 0.000000000000D+00 0.000000000000D+00 0.445294282720D-03 0.000000000000D+00  6 -2 2 25 1 -1 21 0 0.14229465D+00 0.45982812D+00 0.21386333D+06 0.21386333D+06 0.21386333D+06 0.10955969D+01  1  2  2  1  6  1       -2 0.183346901200D-01 0.100000000000D+01
0.286222837624D-01 0.000000000000D+00 -.869603032479D-03 0.445294282720D-03 0.000000000000D+00  6 -2 2 25 1 -1 21 2 0.14229465D+00 0.45982812D+00 0.21386333D+06 0.21386333D+06 0.21386333D+06 0.10955969D+01  1  2  3  1  6  1       -2 0.278175844372D-02 0.100000000000D+01
-.138238797875D+00 0.000000000000D+00 0.000000000000D+00 0.445294282720D-03 0.000000000000D+00  6 -2 2 25 1 -1 21 2 0.14229465D+00 0.45982812D+00 0.21386333D+06 0.21386333D+06 0.21386333D+06 0.10955969D+01  1  2 15  1  6  1       -2 -.134352292232D-01 0.100000000000D+01
-.278937554354D-02 0.000000000000D+00 0.000000000000D+00 0.445294282720D-03 0.000000000000D+00  6 -2 2 25 1 -1 21 2 0.14229465D+00 0.45982812D+00 0.21386333D+06 0.21386333D+06 0.21386333D+06 0.10955969D+01  1  2  4  1  6  1       -2 -.271095382722D-03 0.100000000000D+01
0.869624467456D-05 0.000000000000D+00 0.000000000000D+00 0.445294282720D-03 0.000000000000D+00  6 -2 2 25 1 -1 21 2 0.16612122D+00 0.45982812D+00 0.21386333D+06 0.21386333D+06 0.21386333D+06 0.10955969D+01  1  2  5  1  6  1       -2 0.549644303058D-06 0.100000000000D+01
-.859305711106D-05 0.000000000000D+00 0.000000000000D+00 0.445294282720D-03 0.000000000000D+00  6 -2 2 25 1 -1 21 2 0.14229465D+00 0.45982812D+00 0.21386333D+06 0.21386333D+06 0.21386333D+06 0.10955969D+01  1  2  6  1  6  1       -2 -.835146816881D-06 0.100000000000D+01
  </mgrwgt>
  </event>
  <event>
  5     66 0.17652913E-05 0.15860008E+02 0.75467711E-02 0.88979536E-01
       -2 -1    0    0    0  501 0.00000000E+00 0.00000000E+00 0.43461345E+03 0.43461357E+03 0.32000000E+00 0.0000E+00 0.9000E+01
        2 -1    0    0  502    0 0.00000000E+00 0.00000000E+00 -.20770982E+04 0.20770983E+04 0.32000000E+00 0.0000E+00 0.9000E+01
       25  1    1    2    0    0 -.18123733E+03 0.55943304E+03 -.23698096E+03 0.64621767E+03 0.12500000E+03 0.0000E+00 0.9000E+01
        1  1    1    2  502    0 0.19695734E+03 -.55727514E+03 -.15817299E+04 0.16885548E+04 0.32000000E+00 0.0000E+00 0.9000E+01
       -1  1    1    2    0  501 -.15720016E+02 -.21578965E+01 0.17622611E+03 0.17693931E+03 0.32000000E+00 0.0000E+00 0.9000E+01
#aMCatNLO 1  0  0  2  4 0.73655438D+01 0.00000000D+00  -5  6  0 0.00000000D+00 0.00000000D+00 0.00000000D+00 0.00000000D+00 0.00000000D+00
  <mgrwgt>
 0.2817497113D-01    4    2    0
 0.950123679118178D+03 0.000000000000000D+00 0.000000000000000D+00 0.950123679118178D+03
 0.950123679118178D+03 0.000000000000000D+00 0.000000000000000D+00 -.950123679118178D+03
 0.649465581786467D+03 -.181274681837477D+03 0.559522982224907D+03 0.245467032434301D+03
 0.864765906197968D+03 0.196987342575811D+03 -.557366095429646D+03 -.631156949619366D+03
 0.386015870251921D+03 -.157126607383347D+02 -.215688679526119D+01 0.385689917185065D+03
 0.000000000000000D+00 0.000000000000000D+00 -.000000000000000D+00 0.000000000000000D+00
 0.118966027491026D+04 0.000000000000000D+00 0.000000000000000D+00 0.118966027491026D+04
 0.114835449241449D+04 0.000000000000000D+00 0.000000000000000D+00 -.114835449241449D+04
 0.715134440945128D+03 -.320522172798812D+03 0.576891446771512D+03 0.245467032434301D+03
 0.828278948927598D+03 0.242244492487882D+02 -.535817224660029D+03 -.631156949619366D+03
 0.397452646108276D+03 -.956599151227905D+02 0.781500601076682D+01 0.385689917185065D+03
 0.397148731343744D+03 0.391957638672814D+03 -.488892281222493D+02 0.413057824957742D+02
0.145140297233D-01 0.000000000000D+00 0.000000000000D+00 0.513645211524D-04 0.000000000000D+00  6 -2 2 25 1 -1 21 0 0.66863618D-01 0.31955359D+00 0.36499950D+06 0.36499950D+06 0.36499950D+06 0.10783062D+01  1  2  2  2  6  2        2 0.235925430019D-01 0.100000000000D+01
0.113857760317D-01 0.000000000000D+00 -.557376957692D-04 0.513645211524D-04 0.000000000000D+00  6 -2 2 25 1 -1 21 2 0.66863618D-01 0.31955359D+00 0.36499950D+06 0.36499950D+06 0.36499950D+06 0.10783062D+01  1  2  3  2  6  2        2 0.215195710544D-01 0.100000000000D+01
-.856939632155D-02 0.000000000000D+00 0.000000000000D+00 0.513645211524D-04 0.000000000000D+00  6 -2 2 25 1 -1 21 2 0.66863618D-01 0.31955359D+00 0.36499950D+06 0.36499950D+06 0.36499950D+06 0.10783062D+01  1  2 15  2  6  2        2 -.161965010134D-01 0.100000000000D+01
-.391865755501D-03 0.000000000000D+00 0.000000000000D+00 0.513645211524D-04 0.000000000000D+00  6 -2 2 25 1 -1 21 2 0.66863618D-01 0.31955359D+00 0.36499950D+06 0.36499950D+06 0.36499950D+06 0.10783062D+01  1  2  4  2  6  2        2 -.740641915479D-03 0.100000000000D+01
  </mgrwgt>
  </event>
  <event>
  5     66 0.17652913E-05 0.14034823E+03 0.75467711E-02 0.93522393E-01
       -2 -1    0    0    0  501 0.00000000E+00 0.00000000E+00 0.15673242E+04 0.15673242E+04 0.32000000E+00 0.0000E+00 0.9000E+01
        2 -1    0    0  502    0 0.00000000E+00 0.00000000E+00 -.80078458E+03 0.80078464E+03 0.32000000E+00 0.0000E+00 0.9000E+01
       25  1    1    2    0    0 0.39117088E+03 -.26503346E+03 0.25055348E+03 0.54923532E+03 0.12500000E+03 0.0000E+00 0.9000E+01
        1  1    1    2  502    0 -.29740909E+03 0.36948738E+03 -.55994030E+03 0.73382991E+03 0.32000000E+00 0.0000E+00 0.9000E+01
       -1  1    1    2    0  501 -.93761789E+02 -.10445393E+03 0.10759264E+04 0.10850436E+04 0.32000000E+00 0.0000E+00 0.9000E+01
#aMCatNLO 1  0  0  5  1 0.20870582D+02 0.00000000D+00  -5  6  0 0.00000000D+00 0.00000000D+00 0.00000000D+00 0.00000000D+00 0.00000000D+00
  <mgrwgt>
 0.1162654731D-01    8    2    0
 0.112030762113037D+04 0.000000000000000D+00 0.000000000000000D+00 0.112030762113037D+04
 0.112030762113037D+04 -.000000000000000D+00 -.000000000000000D+00 -.112030762113037D+04
 0.494835017510568D+03 0.391202144160790D+03 -.265087069549209D+03 0.769832612747517D+02
 0.967167294781343D+03 -.297450516978119D+03 0.369529675328770D+03 -.842842562460821D+03
 0.778612929968825D+03 -.937516271826711D+02 -.104442605779561D+03 0.765859301186070D+03
 0.000000000000000D+00 0.000000000000000D+00 -.000000000000000D+00 0.000000000000000D+00
 0.112030762113037D+04 0.000000000000000D+00 0.000000000000000D+00 0.112030762113037D+04
 0.112030762113037D+04 -.000000000000000D+00 -.000000000000000D+00 -.112030762113037D+04
 0.494867512057605D+03 0.391172033592937D+03 -.265120613779455D+03 0.772292352289937D+02
 0.966741519564158D+03 -.297509353942599D+03 0.369464128883647D+03 -.842361921880449D+03
 0.430994506084832D+03 -.400125571356636D+02 -.409568188593023D+02 0.427174201627041D+03
 0.348011704554140D+03 -.536501225146746D+02 -.633866962448892D+02 0.337958485024414D+03
0.584534399946D-03 0.000000000000D+00 0.000000000000D+00 0.176668116262D-04 0.000000000000D+00  6 -2 2 25 1 -1 21 0 0.24112681D+00 0.12319763D+00 0.30444489D+06 0.30444489D+06 0.30444489D+06 0.10840796D+01  1  2  2  4  6  5       -1 0.168792848851D-03 0.100000000000D+01
0.965221254405D-04 0.000000000000D+00 -.224476600724D-05 0.176668116262D-04 0.000000000000D+00  6 -2 2 25 1 -1 21 2 0.24112681D+00 0.12319763D+00 0.30444489D+06 0.30444489D+06 0.30444489D+06 0.10840796D+01  1  2  3  4  6  5       -1 0.327561762370D-04 0.100000000000D+01
-.390806153415D-03 0.000000000000D+00 0.000000000000D+00 0.176668116262D-04 0.000000000000D+00  6 -2 2 25 1 -1 21 2 0.24112681D+00 0.12319763D+00 0.30444489D+06 0.30444489D+06 0.30444489D+06 0.10840796D+01  1  2 15  4  6  5       -1 -.132625708120D-03 0.100000000000D+01
0.484350488529D-08 0.000000000000D+00 0.000000000000D+00 0.176668116262D-04 0.000000000000D+00  6 -2 2 25 1 -1 21 2 0.24112681D+00 0.12319763D+00 0.30440793D+06 0.30440793D+06 0.30440793D+06 0.10840835D+01  1  2 12  4  6  5       -1 0.164373831025D-08 0.100000000000D+01
0.361787479990D-01 0.000000000000D+00 0.000000000000D+00 0.176668116262D-04 0.000000000000D+00  6 -2 2 25 1 -1 21 2 0.24112681D+00 0.12319763D+00 0.30440793D+06 0.30440793D+06 0.30440793D+06 0.10840835D+01  1  2 12  4  6  5       -1 0.122779671976D-01 0.100000000000D+01
-.228204768510D-01 0.000000000000D+00 0.000000000000D+00 0.176668116262D-04 0.000000000000D+00  6 -2 2 25 1 -1 21 2 0.24112681D+00 0.12319763D+00 0.30444489D+06 0.30444489D+06 0.30444489D+06 0.10840796D+01  1  2  4  4  6  5       -1 -.774445815540D-02 0.100000000000D+01
-.389371671620D-01 0.000000000000D+00 0.000000000000D+00 0.176668116262D-04 0.000000000000D+00  6 -2 2 25 1 -1 21 2 0.24112681D+00 0.12319763D+00 0.30444489D+06 0.30444489D+06 0.30444489D+06 0.10840796D+01  1  2  5  4  6  5       -1 -.132138896021D-01 0.100000000000D+01
0.596350148124D-01 0.000000000000D+00 -.000000000000D+00 0.176668116262D-04 0.000000000000D+00  6 -2 2 25 1 -1 21 2 0.24112681D+00 0.12319763D+00 0.30444489D+06 0.30444489D+06 0.30444489D+06 0.10840796D+01  1  2  6  4  6  5       -1 0.202380029053D-01 0.100000000000D+01
  </mgrwgt>
  </event>
  <event>
  5     66 0.17652913E-05 0.16993166E+02 0.75467711E-02 0.93041785E-01
       -2 -1    0    0    0  501 0.00000000E+00 0.00000000E+00 0.34496611E+03 0.34496626E+03 0.32000000E+00 0.0000E+00 0.9000E+01
        2 -1    0    0  502    0 -.00000000E+00 -.00000000E+00 -.20695988E+04 0.20695988E+04 0.32000000E+00 0.0000E+00 0.9000E+01
       25  1    1    2    0    0 -.39653966E+03 -.36600908E+03 -.98123825E+03 0.11267918E+04 0.12500000E+03 0.0000E+00 0.9000E+01
        1  1    1    2  502    0 0.59058998E+01 0.15932910E+02 -.76268367E+03 0.76287300E+03 0.32000000E+00 0.0000E+00 0.9000E+01
       -1  1    1    2    0  501 0.39063376E+03 0.35007617E+03 0.19289253E+02 0.52490021E+03 0.32000000E+00 0.0000E+00 0.9000E+01
#aMCatNLO 1  0  0  4  5 0.22400725D+03 0.00000000D+00  -5  6  0 0.00000000D+00 0.00000000D+00 0.00000000D+00 0.00000000D+00 0.00000000D+00
  <mgrwgt>
 0.1990747433D-02    6    2    0
 0.844950674671513D+03 0.000000000000000D+00 0.000000000000000D+00 0.844950674671513D+03
 0.844950674671513D+03 -.000000000000000D+00 -.000000000000000D+00 -.844950674671513D+03
 0.608567427922717D+03 -.396537460534789D+03 -.366007529233160D+03 -.252043340054303D+03
 0.311665471183783D+03 0.590632167862100D+01 0.159337081201973D+02 -.311201860916638D+03
 0.769668450236525D+03 0.390631138856168D+03 0.350073821112963D+03 0.563245200970941D+03
 0.000000000000000D+00 0.000000000000000D+00 0.000000000000000D+00 0.000000000000000D+00
 0.844950674671513D+03 0.000000000000000D+00 0.000000000000000D+00 0.844950674671513D+03
 0.844950674671513D+03 -.000000000000000D+00 -.000000000000000D+00 -.844950674671513D+03
 0.612232759034896D+03 -.396353356303563D+03 -.365510864262360D+03 -.261743722538984D+03
 0.274551984850364D+03 -.327433053305593D+02 0.145975893237722D+02 -.272201356953339D+03
 0.761217054820201D+03 0.390862005874387D+03 0.350696639828745D+03 0.551080904882232D+03
 0.418995506375634D+02 0.382346557597356D+02 0.216635109842408D+00 -.171358253899088D+02
0.521890882040D-03 0.000000000000D+00 0.000000000000D+00 0.448382906774D-04 0.000000000000D+00  6 -2 2 25 1 -1 21 0 0.53071722D-01 0.31839982D+00 0.30000608D+06 0.30000608D+06 0.30000608D+06 0.10845512D+01  1  2  2  3  6  4        1 0.139912035361D-02 0.100000000000D+01
0.352792408473D-03 0.000000000000D+00 -.200419840406D-05 0.448382906774D-04 0.000000000000D+00  6 -2 2 25 1 -1 21 2 0.53071722D-01 0.31839982D+00 0.30000608D+06 0.30000608D+06 0.30000608D+06 0.10845512D+01  1  2  3  3  6  4        1 0.111248644150D-02 0.100000000000D+01
-.299971044262D-03 0.000000000000D+00 0.000000000000D+00 0.448382906774D-04 0.000000000000D+00  6 -2 2 25 1 -1 21 2 0.53071722D-01 0.31839982D+00 0.30000608D+06 0.30000608D+06 0.30000608D+06 0.10845512D+01  1  2 15  3  6  4        1 -.945920919976D-03 0.100000000000D+01
-.100292588935D-03 0.000000000000D+00 0.000000000000D+00 0.448382906774D-04 0.000000000000D+00  6 -2 2 25 1 -1 21 2 0.53071722D-01 0.31839982D+00 0.30000608D+06 0.30000608D+06 0.30000608D+06 0.10845512D+01  1  2  4  3  6  4        1 -.316260051784D-03 0.100000000000D+01
-.123639205379D-02 0.000000000000D+00 0.000000000000D+00 0.448382906774D-04 0.000000000000D+00  6 -2 2 25 1 -1 21 2 0.53071722D-01 0.31839982D+00 0.30000608D+06 0.30000608D+06 0.30000608D+06 0.10845512D+01  1  2  5  3  6  4        1 -.389880667264D-02 0.100000000000D+01
0.147148043448D-02 0.000000000000D+00 -.000000000000D+00 0.448382906774D-04 0.000000000000D+00  6 -2 2 25 1 -1 21 2 0.53071722D-01 0.31839982D+00 0.30000608D+06 0.30000608D+06 0.30000608D+06 0.10845512D+01  1  2  6  3  6  4        1 0.464012828217D-02 0.100000000000D+01
  </mgrwgt>
  </event>
  <event>
  6     66 0.17652913E-05 0.17673696E+03 0.75467711E-02 0.93482159E-01
       21 -1    0    0  503  501 0.00000000E+00 0.00000000E+00 0.33432601E+03 0.33432685E+03 0.75000000E+00 0.0000E+00 0.9000E+01
        2 -1    0    0  502    0 0.00000000E+00 0.00000000E+00 -.10545631E+04 0.10545631E+04 0.32000000E+00 0.0000E+00 0.9000E+01
       25  1    1    2    0    0 0.21976246E+03 -.46486139E+03 -.32028040E+03 0.61854360E+03 0.12500000E+03 0.0000E+00 0.9000E+01
        1  1    1    2  502    0 -.27269833E+02 0.35616835E+03 -.39745412E+03 0.53438695E+03 0.32000000E+00 0.0000E+00 0.9000E+01
        2  1    1    2  503    0 -.26417666E+02 0.13076136E+02 0.29462756E+02 0.41677749E+02 0.32000000E+00 0.0000E+00 0.9000E+01
       -1  1    1    2    0  501 -.16607496E+03 0.95616907E+02 -.31965292E+02 0.19428167E+03 0.32000000E+00 0.0000E+00 0.9000E+01
#aMCatNLO 2  0  0  1  5 0.29476743D+02 0.00000000D+00  -5  6  0 0.00000000D+00 0.00000000D+00 0.00000000D+00 0.00000000D+00 0.00000000D+00
  <mgrwgt>
 0.1350239119D-01    3    2    0
 0.559477901755563D+03 0.000000000000000D+00 0.000000000000000D+00 0.559477901755563D+03
 0.559477901755563D+03 0.000000000000000D+00 0.000000000000000D+00 -.559477901755563D+03
 0.519537956490866D+03 0.207304838701685D+03 -.458782781388370D+03 0.289439386940462D+02
 0.382063048720951D+03 -.362967501146830D+02 0.360735175918417D+03 -.120519093857235D+03
 0.000000000000000D+00 -.000000000000000D+00 0.000000000000000D+00 0.000000000000000D+00
 0.217354798299309D+03 -.171008088587002D+03 0.980476054699532D+02 0.915751551631885D+02
 0.626306771634823D+03 0.000000000000000D+00 0.000000000000000D+00 0.626306771634823D+03
 0.562931848485155D+03 0.000000000000000D+00 0.000000000000000D+00 -.562931848485155D+03
 0.529973841130255D+03 0.219691763810381D+03 -.464914023889488D+03 0.289439386940462D+02
 0.377123098696220D+03 -.273364106759726D+02 0.356300014366298D+03 -.120519093857235D+03
 0.698946298267253D+02 -.264176657942390D+02 0.130761358348931D+02 0.633749231496677D+02
 0.212247050466778D+03 -.165937687340170D+03 0.955378736882965D+02 0.915751551631885D+02
-.340284331704D-07 0.000000000000D+00 0.000000000000D+00 0.115064435493D-07 0.000000000000D+00  6 21 2 25 1 2 -1 2 0.51566380D-01 0.16124499D+00 0.30662915D+06 0.30662915D+06 0.30662915D+06 0.10838503D+01  1  2 13  5  5  1       -2 -.437364078218D-05 0.100000000000D+01
-.928878504018D-06 0.000000000000D+00 0.000000000000D+00 0.115064435493D-07 0.000000000000D+00  6 21 2 25 1 2 -1 2 0.52717137D-01 0.16124499D+00 0.30662915D+06 0.30662915D+06 0.30662915D+06 0.10838503D+01  1  2 13  5  5  1       -2 -.113753635614D-03 0.100000000000D+01
0.106342405437D-03 0.000000000000D+00 0.000000000000D+00 0.115064435493D-07 0.157435820988D-09  6 21 2 25 1 2 -1 2 0.51434806D-01 0.16224044D+00 0.30662915D+06 0.30662915D+06 0.30662915D+06 0.10838503D+01  1  2  1  5  5  1       -2 0.136205184635D-01 0.100000000000D+01
  </mgrwgt>
  </event>
  <event>
  5     66 0.17652913E-05 0.29634314E+02 0.75467711E-02 0.88348169E-01
       -2 -1    0    0    0  501 0.00000000E+00 0.00000000E+00 0.16496546E+03 0.16496577E+03 0.32000000E+00 0.0000E+00 0.9000E+01
        2 -1    0    0  502    0 0.00000000E+00 0.00000000E+00 -.39055813E+04 0.39055813E+04 0.32000000E+00 0.0000E+00 0.9000E+01
       25  1    1    2    0    0 0.47343270E+03 -.11825263E+03 -.22738464E+04 0.23289750E+04 0.12500000E+03 0.0000E+00 0.9000E+01
        1  1    1    2  502    0 -.45757912E+03 0.93208401E+02 -.15680164E+04 0.16360752E+04 0.32000000E+00 0.0000E+00 0.9000E+01
       -1  1    1    2    0  501 -.15853582E+02 0.25044232E+02 0.10124694E+03 0.10549690E+03 0.32000000E+00 0.0000E+00 0.9000E+01
#aMCatNLO 1  0  0  1  5 0.29476743D+02 0.00000000D+00  -5  6  0 0.00000000D+00 0.00000000D+00 0.00000000D+00 0.00000000D+00 0.00000000D+00
  <mgrwgt>
 0.1670953450D-01    3    2    0
 0.802674691718460D+03 0.000000000000000D+00 0.000000000000000D+00 0.802674691718460D+03
 0.802674691718460D+03 0.000000000000000D+00 0.000000000000000D+00 -.802674691718460D+03
 0.607142504416795D+03 0.473513652955925D+03 -.118269202962447D+03 -.338812981989270D+03
 0.494894886692928D+03 -.457663292657820D+03 0.932300604599946D+02 -.163625839203455D+03
 0.503311992327198D+03 -.158503602981054D+02 0.250391425024526D+02 0.502438821192725D+03
 0.000000000000000D+00 -.000000000000000D+00 -.000000000000000D+00 -.000000000000000D+00
 0.106027328937768D+04 0.000000000000000D+00 0.000000000000000D+00 0.106027328937768D+04
 0.125318622905719D+04 0.000000000000000D+00 0.000000000000000D+00 -.125318622905719D+04
 0.800706440154066D+03 0.711969485134990D+03 -.617334494123937D+02 -.338812981989270D+03
 0.373666460738393D+03 -.310549840110936D+03 0.128109349513585D+03 -.163625839203455D+03
 0.531303407933041D+03 0.159388664602775D+03 0.665867542073664D+02 0.502438821192725D+03
 0.607783209609370D+03 -.560808309626830D+03 -.132962654308558D+03 -.192912939679505D+03
0.260085396297D-01 0.000000000000D+00 0.000000000000D+00 0.119362522185D-04 0.000000000000D+00  6 -2 2 25 1 -1 21 0 0.25379326D-01 0.60085868D+00 0.25025518D+06 0.25025518D+06 0.25025518D+06 0.10904258D+01  1  2  2  1  6  1       -2 0.182066287339D-01 0.100000000000D+01
0.148576454229D-01 0.000000000000D+00 -.998796403838D-04 0.119362522185D-04 0.000000000000D+00  6 -2 2 25 1 -1 21 2 0.25379326D-01 0.60085868D+00 0.25025518D+06 0.25025518D+06 0.25025518D+06 0.10904258D+01  1  2  3  1  6  1       -2 0.123667555976D-01 0.100000000000D+01
-.166562817076D-01 0.000000000000D+00 0.000000000000D+00 0.119362522185D-04 0.000000000000D+00  6 -2 2 25 1 -1 21 2 0.25379326D-01 0.60085868D+00 0.25025518D+06 0.25025518D+06 0.25025518D+06 0.10904258D+01  1  2 15  1  6  1       -2 -.138638498349D-01 0.100000000000D+01
  </mgrwgt>
  </event>
  <event>
  6     66 0.17652913E-05 0.23777629E+03 0.75467711E-02 0.94566951E-01
       -2 -1    0    0    0  501 0.00000000E+00 0.00000000E+00 0.61627074E+03 0.61627082E+03 0.32000000E+00 0.0000E+00 0.9000E+01
        2 -1    0    0  502    0 -.00000000E+00 -.00000000E+00 -.14890736E+04 0.14890736E+04 0.32000000E+00 0.0000E+00 0.9000E+01
       25  1    1    2    0    0 0.44018830E+03 -.21680513E+03 -.29586109E+03 0.58645459E+03 0.12500000E+03 0.0000E+00 0.9000E+01
        1  1    1    2  502    0 -.23337696E+03 0.71692877E+02 -.99728973E+03 0.10267383E+04 0.32000000E+00 0.0000E+00 0.9000E+01
       -1  1    1    2    0  503 -.18422016E+03 0.14003609E+03 0.36526839E+03 0.43239828E+03 0.32000000E+00 0.0000E+00 0.9000E+01
       21  1    1    2  503  501 -.22591171E+02 0.50761653E+01 0.55079585E+02 0.59753256E+02 0.75000000E+00 0.0000E+00 0.9000E+01
#aMCatNLO 2  0  0  5  1 0.13517325D+02 0.00000000D+00  -5  6  0 0.00000000D+00 0.00000000D+00 0.00000000D+00 0.00000000D+00 0.00000000D+00
  <mgrwgt>
 0.4929672536D-02    6    2    0
 0.957952297382110D+03 0.000000000000000D+00 0.000000000000000D+00 0.957952297382110D+03
 0.957952297382110D+03 -.000000000000000D+00 -.000000000000000D+00 -.957952297382110D+03
 0.509816095236613D+03 0.440350053338510D+03 -.216869411631278D+03 -.578527422494570D+02
 0.674456812076214D+03 -.233402523894781D+03 0.716615939455395D+02 -.628712867013822D+03
 0.731631687451395D+03 -.206947529443729D+03 0.145207817685738D+03 0.686565609263279D+03
 0.000000000000000D+00 0.000000000000000D+00 0.000000000000000D+00 0.000000000000000D+00
 0.957952297382110D+03 0.000000000000000D+00 0.000000000000000D+00 0.957952297382110D+03
 0.957952297382110D+03 -.000000000000000D+00 -.000000000000000D+00 -.957952297382110D+03
 0.509682272204405D+03 0.440263032598164D+03 -.216808352232149D+03 -.575640437190882D+02
 0.674149289453679D+03 -.233517636096171D+03 0.717423641368908D+02 -.628330972729346D+03
 0.641424947617419D+03 -.184185830024701D+03 0.140019592775027D+03 0.598244145047184D+03
 0.906480854887183D+02 -.225595664772926D+02 0.504639532023200D+01 0.876508714012504D+02
-.184273657662D-08 0.000000000000D+00 0.000000000000D+00 0.111663124894D-04 0.000000000000D+00  6 -2 2 25 1 -1 21 2 0.94810892D-01 0.22908825D+00 0.25260337D+06 0.25260337D+06 0.25260337D+06 0.10901208D+01  1  2 13  4  6  5       -1 -.347460358745D-08 0.100000000000D+01
-.359669993439D-02 0.000000000000D+00 0.000000000000D+00 0.111663124894D-04 0.000000000000D+00  6 -2 2 25 1 -1 21 2 0.94810892D-01 0.22908825D+00 0.25260337D+06 0.25260337D+06 0.25260337D+06 0.10901208D+01  1  2 13  4  6  5       -1 -.678181930809D-02 0.100000000000D+01
-.233217972775D-04 0.000000000000D+00 0.000000000000D+00 0.111663124894D-04 0.000000000000D+00  6 -2 2 25 1 -1 21 2 0.94810892D-01 0.22908825D+00 0.25174719D+06 0.25174719D+06 0.25174719D+06 0.10902316D+01  1  2  8  4  6  5       -1 -.439921149208D-04 0.100000000000D+01
-.121883543822D-04 0.000000000000D+00 0.000000000000D+00 0.111663124894D-04 0.000000000000D+00  6 -2 2 25 1 -1 21 2 0.94810892D-01 0.22908825D+00 0.25174719D+06 0.25174719D+06 0.25174719D+06 0.10902316D+01  1  2  9  4  6  5       -1 -.229910019496D-04 0.100000000000D+01
0.137912117826D-04 0.000000000000D+00 0.000000000000D+00 0.111663124894D-04 0.000000000000D+00  6 -2 2 25 1 -1 21 2 0.94810892D-01 0.22908825D+00 0.25174719D+06 0.25174719D+06 0.25174719D+06 0.10902316D+01  1  2 10  4  6  5       -1 0.260144862087D-04 0.100000000000D+01
0.623285351565D-02 0.000000000000D+00 0.000000000000D+00 0.111663124894D-04 0.553076834962D-06  6 -2 2 25 1 -1 21 2 0.94810892D-01 0.22908825D+00 0.25260337D+06 0.25260337D+06 0.25260337D+06 0.10901208D+01  1  2  1  4  6  5       -1 0.117524639497D-01 0.100000000000D+01
  </mgrwgt>
  </event>
  <event>
  5     66 -.17652913E-05 0.48320071E+02 0.75467711E-02 0.94692199E-01
       -2 -1    0    0    0  501 0.00000000E+00 0.00000000E+00 0.11077664E+04 0.11077664E+04 0.32000000E+00 0.0000E+00 0.9000E+01
        2 -1    0    0  502    0 0.00000000E+00 0.00000000E+00 -.80185506E+03 0.80185512E+03 0.32000000E+00 0.0000E+00 0.9000E+01
       25  1    1    2    0    0 -.46421515E+03 -.11497401E+03 0.34346653E+03 0.60192108E+03 0.12500000E+03 0.0000E+00 0.9000E+01
        1  1    1    2  502    0 0.36879808E+02 -.31208941E+02 -.59121776E+03 0.59318855E+03 0.32000000E+00 0.0000E+00 0.9000E+01
       -1  1    1    2    0  501 0.42733535E+03 0.14618295E+03 0.55366255E+03 0.71451192E+03 0.32000000E+00 0.0000E+00 0.9000E+01
#aMCatNLO 1  0  0  5  1 0.13517325D+02 0.00000000D+00  -5  6  0 0.00000000D+00 0.00000000D+00 0.00000000D+00 0.00000000D+00 0.00000000D+00
  <mgrwgt>
 -.4366190740D-02    1    2    0
 0.942479805302943D+03 0.000000000000000D+00 0.000000000000000D+00 0.942479805302943D+03
 0.942479805302943D+03 -.000000000000000D+00 -.000000000000000D+00 -.942479805302943D+03
 0.554067200738329D+03 -.464160685124536D+03 -.114948849837070D+03 0.250413823979156D+03
 0.696975885845733D+03 0.368855966833767D+02 -.312134915480019D+02 -.695298896988293D+03
 0.633916524021825D+03 0.427275088441159D+03 0.146162341385071D+03 0.444885073009138D+03
 0.000000000000000D+00 0.000000000000000D+00 0.000000000000000D+00 0.000000000000000D+00
 0.942479805302943D+03 0.000000000000000D+00 0.000000000000000D+00 0.942479805302943D+03
 0.942479805302943D+03 -.000000000000000D+00 -.000000000000000D+00 -.942479805302943D+03
 0.548699522004648D+03 -.451207731852518D+03 -.110517901182898D+03 0.263900628424343D+03
 0.681003056868504D+03 0.530711565907394D+02 -.256767322173342D+02 -.678446255222186D+03
 0.705876205539456D+02 -.282857924011688D+02 0.609274832002344D+02 0.216879670460602D+02
 0.584669411178788D+03 0.426422367662947D+03 0.752671501999974D+02 0.392857659751783D+03
-.415148259198D-02 0.000000000000D+00 0.000000000000D+00 0.549187522231D-04 0.000000000000D+00  6 -2 2 25 1 -1 21 2 0.17042561D+00 0.12336233D+00 0.24708537D+06 0.24708537D+06 0.24708537D+06 0.10908425D+01  1  2 14  4  6  5       -1 -.436619073975D-02 0.100000000000D+01
  </mgrwgt>
  </event>
  <event>
  5     66 0.17652913E-05 0.88059843E+02 0.75467711E-02 0.90053234E-01
       -2 -1    0    0    0  501 0.00000000E+00 0.00000000E+00 0.40483647E+03 0.40483660E+03 0.32000000E+00 0.0000E+00 0.9000E+01
        2 -1    0    0  502    0 0.00000000E+00 0.00000000E+00 -.28212201E+04 0.28212201E+04 0.32000000E+00 0.0000E+00 0.9000E+01
       25  1    1    2    0    0 -.50831480E+03 -.19000093E+03 -.12361551E+04 0.13557982E+04 0.12500000E+03 0.0000E+00 0.9000E+01
        1  1    1    2  502    0 0.57914127E+03 0.24234501E+03 -.14534244E+04 0.15832177E+04 0.32000000E+00 0.0000E+00 0.9000E+01
       -1  1    1    2    0  501 -.70826467E+02 -.52344076E+02 0.27319592E+03 0.28704077E+03 0.32000000E+00 0.0000E+00 0.9000E+01
#aMCatNLO 1  0  0  2  1 0.25069524D+03 0.00000000D+00  -5  6  0 0.00000000D+00 0.00000000D+00 0.00000000D+00 0.00000000D+00 0.00000000D+00
  <mgrwgt>
 0.5236333027D-02    7    2    0
 0.106870623238379D+04 0.000000000000000D+00 0.000000000000000D+00 0.106870623238379D+04
 0.106870623238379D+04 0.000000000000000D+00 0.000000000000000D+00 -.106870623238379D+04
 0.648904865464382D+03 -.508390098555598D+03 -.190032148309706D+03 -.332986208006839D+03
 0.746499965376822D+03 0.579208552994385D+03 0.242370302838078D+03 -.403777521350464D+03
 0.742007633926374D+03 -.708184544387868D+02 -.523381545283724D+02 0.736763729357303D+03
 0.000000000000000D+00 -.000000000000000D+00 -.000000000000000D+00 -.000000000000000D+00
 0.111729128243558D+04 0.000000000000000D+00 0.000000000000000D+00 0.111729128243558D+04
 0.145684473611435D+04 0.000000000000000D+00 0.000000000000000D+00 -.145684473611435D+04
 0.627088165850479D+03 -.503353681837618D+03 -.115627955129621D+03 -.332986208006839D+03
 0.784567636986452D+03 0.585251763481950D+03 0.331648102059771D+03 -.403777521350464D+03
 0.740408357485880D+03 -.649672746134101D+02 0.341027296233440D+02 0.736763729357303D+03
 0.422071858227124D+03 -.169308070309219D+02 -.250122876553495D+03 -.339553453678776D+03
0.377413248150D-02 0.000000000000D+00 0.000000000000D+00 0.571788817541D-05 0.000000000000D+00  6 -2 2 25 1 -1 21 0 0.62282545D-01 0.43403387D+00 0.40506091D+06 0.40506091D+06 0.40506091D+06 0.10750342D+01  1  2  2  2  6  2        2 0.262470512389D-02 0.100000000000D+01
0.113724784133D-02 0.000000000000D+00 -.144936624809D-04 0.571788817541D-05 0.000000000000D+00  6 -2 2 25 1 -1 21 2 0.62282545D-01 0.43403387D+00 0.40506091D+06 0.40506091D+06 0.40506091D+06 0.10750342D+01  1  2  3  2  6  2        2 0.914035515487D-03 0.100000000000D+01
-.319864506714D-02 0.000000000000D+00 0.000000000000D+00 0.571788817541D-05 0.000000000000D+00  6 -2 2 25 1 -1 21 2 0.62282545D-01 0.43403387D+00 0.40506091D+06 0.40506091D+06 0.40506091D+06 0.10750342D+01  1  2 15  2  6  2        2 -.257083380292D-02 0.100000000000D+01
-.333292517917D-02 0.000000000000D+00 0.000000000000D+00 0.571788817541D-05 0.000000000000D+00  6 -2 2 25 1 -1 21 2 0.62282545D-01 0.43403387D+00 0.40506091D+06 0.40506091D+06 0.40506091D+06 0.10750342D+01  1  2  4  2  6  2        2 -.267875820336D-02 0.100000000000D+01
-.102578223707D-01 0.000000000000D+00 -.225806696707D-02 0.571788817541D-05 0.000000000000D+00  6 -2 2 25 1 -1 21 2 0.62282545D-01 0.59663688D+00 0.40506091D+06 0.40506091D+06 0.40506091D+06 0.10750342D+01  1  2  5  2  6  2        2 -.152898832956D-02 0.100000000000D+01
0.105475339980D-01 0.000000000000D+00 0.214839212546D-02 0.571788817541D-05 0.000000000000D+00  6 -2 2 25 1 -1 21 2 0.62282545D-01 0.43403387D+00 0.40506091D+06 0.40506091D+06 0.40506091D+06 0.10750342D+01  1  2  6  2  6  2        2 0.847732598350D-02 0.100000000000D+01
-.358301440185D-03 0.000000000000D+00 -.910719637509D-04 0.571788817541D-05 0.000000000000D+00  6 -2 21 25 1 -1 -2 2 0.62282545D-01 0.59663688D+00 0.40506091D+06 0.40506091D+06 0.40506091D+06 0.10750342D+01  1  2  5  6  6  2        2 -.115326010909D-05 0.100000000000D+01
  </mgrwgt>
  </event>
  <event>
  5     66 0.17652913E-05 0.51003147E+02 0.75467711E-02 0.88705000E-01
       -2 -1    0    0    0  501 0.00000000E+00 0.00000000E+00 0.98278472E+03 0.98278477E+03 0.32000000E+00 0.0000E+00 0.9000E+01
        2 -1    0    0  502    0 -.00000000E+00 -.00000000E+00 -.15585958E+04 0.15585958E+04 0.32000000E+00 0.0000E+00 0.9000E+01
       25  1    1    2    0    0 0.63639794E+03 -.45249047E+02 0.51073626E+01 0.65015452E+03 0.12500000E+03 0.0000E+00 0.9000E+01
        1  1    1    2  502    0 -.59431904E+03 0.16412734E+02 -.11633995E+04 0.13065156E+04 0.32000000E+00 0.0000E+00 0.9000E+01
       -1  1    1    2    0  501 -.42078900E+02 0.28836313E+02 0.58248101E+03 0.58471052E+03 0.32000000E+00 0.0000E+00 0.9000E+01
#aMCatNLO 1  0  0  5  2 0.49469110D+02 0.00000000D+00  -5  6  0 0.00000000D+00 0.00000000D+00 0.00000000D+00 0.00000000D+00 0.00000000D+00
  <mgrwgt>
 0.4790945600D-02    4    2    0
 0.123764463359979D+04 0.000000000000000D+00 0.000000000000000D+00 0.123764463359979D+04
 0.123764463359979D+04 -.000000000000000D+00 -.000000000000000D+00 -.123764463359979D+04
 0.668790831776425D+03 0.636464996611971D+03 -.452477996556419D+02 0.156592213670567D+03
 0.107079662342792D+04 -.594392935659823D+03 0.164161737735197D+02 -.890523978352619D+03
 0.735701811995239D+03 -.420720609521490D+02 0.288316258821227D+02 0.733931764682051D+03
 0.000000000000000D+00 0.000000000000000D+00 0.000000000000000D+00 0.000000000000000D+00
 0.123764463359979D+04 0.000000000000000D+00 0.000000000000000D+00 0.123764463359979D+04
 0.123764463359979D+04 -.000000000000000D+00 -.000000000000000D+00 -.123764463359979D+04
 0.727230027103352D+03 0.625541666260914D+03 -.377621341821414D+02 0.347145729217963D+03
 0.873567230500103D+03 -.609606840641267D+03 0.268421335839991D+02 -.625122952635441D+03
 0.551750005157264D+03 -.236708816463613D+03 -.915818282759686D+02 0.489907923113178D+03
 0.322742004438867D+03 0.220773990843965D+03 0.102501828874111D+03 -.211930699695700D+03
0.203235958200D-01 0.000000000000D+00 0.000000000000D+00 0.919554998400D-04 0.000000000000D+00  6 -2 2 25 1 -1 21 0 0.15119766D+00 0.23978398D+00 0.41978915D+06 0.41978915D+06 0.41978915D+06 0.10739191D+01  1  2  2  4  6  5       -1 0.864513923115D-02 0.100000000000D+01
0.948538445274D-02 0.000000000000D+00 -.780479592747D-04 0.919554998400D-04 0.000000000000D+00  6 -2 2 25 1 -1 21 2 0.15119766D+00 0.23978398D+00 0.41978915D+06 0.41978915D+06 0.41978915D+06 0.10739191D+01  1  2  3  4  6  5       -1 0.465339052476D-02 0.100000000000D+01
-.163626274944D-01 0.000000000000D+00 0.000000000000D+00 0.919554998400D-04 0.000000000000D+00  6 -2 2 25 1 -1 21 2 0.15119766D+00 0.23978398D+00 0.41978915D+06 0.41978915D+06 0.41978915D+06 0.10739191D+01  1  2 15  4  6  5       -1 -.802726511742D-02 0.100000000000D+01
-.979073368395D-03 0.000000000000D+00 0.000000000000D+00 0.919554998400D-04 0.000000000000D+00  6 -2 2 25 1 -1 21 2 0.15119766D+00 0.23978398D+00 0.41978915D+06 0.41978915D+06 0.41978915D+06 0.10739191D+01  1  2  4  4  6  5       -1 -.480319038015D-03 0.100000000000D+01
  </mgrwgt>
  </event>
  <event>
  5     66 0.17652913E-05 0.37194131E+02 0.75467711E-02 0.94303820E-01
       -2 -1    0    0    0  501 0.00000000E+00 0.00000000E+00 0.68262571E+03 0.68262579E+03 0.32000000E+00 0.0000E+00 0.9000E+01
        2 -1    0    0  502    0 -.00000000E+00 -.00000000E+00 -.10162542E+04 0.10162542E+04 0.32000000E+00 0.0000E+00 0.9000E+01
       25  1    1    2    0    0 0.38596278E+03 0.26200231E+03 -.32220591E+03 0.58056363E+03 0.12500000E+03 0.0000E+00 0.9000E+01
        1  1    1    2  502    0 0.19296217E+02 0.31796952E+02 -.45076823E+03 0.45230022E+03 0.32000000E+00 0.0000E+00 0.9000E+01
       -1  1    1    2    0  501 -.40525899E+03 -.29379926E+03 0.43934565E+03 0.66601619E+03 0.32000000E+00 0.0000E+00 0.9000E+01
#aMCatNLO 1  0  0  4  5 0.12921469D+02 0.00000000D+00  -5  6  0 0.00000000D+00 0.00000000D+00 0.00000000D+00 0.00000000D+00 0.00000000D+00
  <mgrwgt>
 0.7772760780D-02    7    2    0
 0.832899362529421D+03 0.000000000000000D+00 0.000000000000000D+00 0.832899362529421D+03
 0.832899362529421D+03 -.000000000000000D+00 -.000000000000000D+00 -.832899362529421D+03
 0.527558270124027D+03 0.385962120840079D+03 0.262001622976477D+03 -.212323148079939D+03
 0.371006325921299D+03 0.192962142269407D+02 0.317971613822070D+02 -.369137224508939D+03
 0.767234129013517D+03 -.405258335067020D+03 -.293798784358684D+03 0.581460372588878D+03
 0.000000000000000D+00 0.000000000000000D+00 0.000000000000000D+00 0.000000000000000D+00
 0.832899362529421D+03 0.000000000000000D+00 0.000000000000000D+00 0.832899362529421D+03
 0.832899362529421D+03 -.000000000000000D+00 -.000000000000000D+00 -.832899362529421D+03
 0.527921971997114D+03 0.386001398822430D+03 0.262066346985492D+03 -.213074537197970D+03
 0.331276479204411D+03 0.248112942942331D+02 0.179285412077270D+02 -.329859171101364D+03
 0.766340844199414D+03 -.405201265566021D+03 -.293704742692692D+03 0.580368631123173D+03
 0.402594296579027D+02 -.561142755064172D+01 0.137098544994726D+02 -.374349228238393D+02
0.855661407115D-03 0.000000000000D+00 0.000000000000D+00 0.379559644320D-04 0.000000000000D+00  6 -2 2 25 1 -1 21 0 0.10501935D+00 0.15634681D+00 0.26045285D+06 0.26045285D+06 0.26045285D+06 0.10891234D+01  1  2  2  3  6  4        1 0.198018006070D-02 0.100000000000D+01
0.347441713278D-03 0.000000000000D+00 -.328596510414D-05 0.379559644320D-04 0.000000000000D+00  6 -2 2 25 1 -1 21 2 0.10501935D+00 0.15634681D+00 0.26045285D+06 0.26045285D+06 0.26045285D+06 0.10891234D+01  1  2  3  3  6  4        1 0.953759422150D-03 0.100000000000D+01
-.628864918749D-03 0.000000000000D+00 0.000000000000D+00 0.379559644320D-04 0.000000000000D+00  6 -2 2 25 1 -1 21 2 0.10501935D+00 0.15634681D+00 0.26045285D+06 0.26045285D+06 0.26045285D+06 0.10891234D+01  1  2 15  3  6  4        1 -.172629197530D-02 0.100000000000D+01
0.369228755732D-08 0.000000000000D+00 0.000000000000D+00 0.379559644320D-04 0.000000000000D+00  6 -2 2 25 1 -1 21 2 0.10501935D+00 0.15634681D+00 0.26465231D+06 0.26465231D+06 0.26465231D+06 0.10886031D+01  1  2 12  3  6  4        1 0.101184094124D-07 0.100000000000D+01
-.776746965747D-03 0.000000000000D+00 0.000000000000D+00 0.379559644320D-04 0.000000000000D+00  6 -2 2 25 1 -1 21 2 0.10501935D+00 0.15634681D+00 0.26045285D+06 0.26045285D+06 0.26045285D+06 0.10891234D+01  1  2  4  3  6  4        1 -.213224178012D-02 0.100000000000D+01
-.243577475837D-01 0.000000000000D+00 0.000000000000D+00 0.379559644320D-04 0.000000000000D+00  6 -2 2 25 1 -1 21 2 0.10501935D+00 0.15634681D+00 0.26045285D+06 0.26045285D+06 0.26045285D+06 0.10891234D+01  1  2  5  3  6  4        1 -.668642548446D-01 0.100000000000D+01
0.275260732168D-01 0.000000000000D+00 -.000000000000D+00 0.379559644320D-04 0.000000000000D+00  6 -2 2 25 1 -1 21 2 0.10501935D+00 0.15634681D+00 0.26045285D+06 0.26045285D+06 0.26045285D+06 0.10891234D+01  1  2  6  3  6  4        1 0.755615997793D-01 0.100000000000D+01
  </mgrwgt>
  </event>
  <event>
  6     66 0.17652913E-05 0.26267452E+03 0.75467711E-02 0.87583067E-01
       21 -1    0    0  503  501 0.00000000E+00 0.00000000E+00 0.10871935E+04 0.10871938E+04 0.75000000E+00 0.0000E+00 0.9000E+01
        2 -1    0    0  502    0 0.00000000E+00 0.00000000E+00 -.11950301E+04 0.11950302E+04 0.32000000E+00 0.0000E+00 0.9000E+01
       25  1    1    2    0    0 -.34890020E+03 -.62832503E+03 0.22057833E+03 0.76210465E+03 0.12500000E+03 0.0000E+00 0.9000E+01
        1  1    1    2  502    0 -.29284987E+03 -.46798202E+02 -.48859137E+03 0.57155293E+03 0.32000000E+00 0.0000E+00 0.9000E+01
        2  1    1    2  503    0 0.36412119E+03 0.40481328E+03 0.56199340E+02 0.54737236E+03 0.32000000E+00 0.0000E+00 0.9000E+01
       -1  1    1    2    0  501 0.27762888E+03 0.27030995E+03 0.10397708E+03 0.40119397E+03 0.32000000E+00 0.0000E+00 0.9000E+01
#aMCatNLO 2  0  0  1  1 0.54447960D+03 0.00000000D+00  -5  6  0 0.00000000D+00 0.00000000D+00 0.00000000D+00 0.00000000D+00 0.00000000D+00
  <mgrwgt>
 0.4425688358D-01    1    2    0
 0.819503518164834D+03 0.000000000000000D+00 0.000000000000000D+00 0.819503518164834D+03
 0.819503518164834D+03 0.000000000000000D+00 0.000000000000000D+00 -.819503518164834D+03
 0.596041064101089D+03 -.199266294550164D+03 -.462020186665082D+03 0.294058227337663D+03
 0.479545904689774D+03 -.183925073594467D+03 0.743451236282791D+02 -.436587499363758D+03
 0.000000000000000D+00 0.000000000000000D+00 0.000000000000000D+00 0.000000000000000D+00
 0.563420067538806D+03 0.383191368144632D+03 0.387675063036803D+03 0.142529272026095D+03
 0.119534674780276D+04 0.000000000000000D+00 0.000000000000000D+00 0.119534674780276D+04
 0.108690570554896D+04 0.000000000000000D+00 0.000000000000000D+00 -.108690570554896D+04
 0.786451188430619D+03 -.348815266920966D+03 -.628281895554711D+03 0.294058227337663D+03
 0.527812752294251D+03 -.292894546432317D+03 -.468021533045323D+02 -.436587499363758D+03
 0.555173388381135D+03 0.364121185083852D+03 0.404813283001722D+03 0.108441042253796D+03
 0.412815124245713D+03 0.277588628269431D+03 0.270270765857521D+03 0.142529272026095D+03
0.103434602243D-01 0.000000000000D+00 0.000000000000D+00 0.755010432804D-07 0.322471074052D-09  6 21 2 25 1 2 -1 2 0.16726055D+00 0.18385080D+00 0.95836951D+06 0.95836951D+06 0.95836951D+06 0.10490955D+01  1  2  1  5  5  1       -2 0.442568835825D-01 0.100000000000D+01
  </mgrwgt>
  </event>
  <event>
  6     66 -.17652913E-05 0.18034478E+03 0.75467711E-02 0.94472605E-01
       -2 -1    0    0    0  501 0.00000000E+00 0.00000000E+00 0.24627445E+03 0.24627466E+03 0.32000000E+00 0.0000E+00 0.9000E+01
        2 -1    0    0  502    0 -.00000000E+00 -.00000000E+00 -.14457594E+04 0.14457594E+04 0.32000000E+00 0.0000E+00 0.9000E+01
       25  1    1    2    0    0 0.10255128E+03 0.48743168E+03 -.55477723E+03 0.75598226E+03 0.12500000E+03 0.0000E+00 0.9000E+01
        1  1    1    2  502    0 -.57813942E+02 -.17496195E+03 -.58547967E+03 0.61379205E+03 0.32000000E+00 0.0000E+00 0.9000E+01
       -1  1    1    2    0  503 -.43983177E+02 -.28408966E+03 -.46797805E+02 0.29125863E+03 0.32000000E+00 0.0000E+00 0.9000E+01
       21  1    1    2  503  501 -.75416204E+00 -.28380065E+02 -.12430235E+02 0.31001131E+02 0.75000000E+00 0.0000E+00 0.9000E+01
#aMCatNLO 2  0  0  5  1 0.71017032D+01 0.00000000D+00  -5  6  0 0.00000000D+00 0.00000000D+00 0.00000000D+00 0.00000000D+00 0.00000000D+00
  <mgrwgt>
 -.1593955622D-02    6    2    0
 0.596702439019308D+03 0.000000000000000D+00 0.000000000000000D+00 0.596702439019308D+03
 0.596702439019308D+03 -.000000000000000D+00 -.000000000000000D+00 -.596702439019308D+03
 0.514488492509020D+03 0.102617263260166D+03 0.487691850784297D+03 -.264530694586441D+02
 0.282162782602206D+03 -.578500855558557D+02 -.175013718052355D+03 -.213633803459309D+03
 0.396753602927390D+03 -.447671777043103D+02 -.312678132731942D+03 0.240086872917953D+03
 0.000000000000000D+00 0.000000000000000D+00 -.000000000000000D+00 0.000000000000000D+00
 0.596702439019308D+03 0.000000000000000D+00 0.000000000000000D+00 0.596702439019308D+03
 0.596702439019308D+03 -.000000000000000D+00 -.000000000000000D+00 -.596702439019308D+03
 0.514182432262419D+03 0.102574124435810D+03 0.487390545950276D+03 -.262217154628811D+02
 0.282174143135133D+03 -.578737518527545D+02 -.175179016244077D+03 -.213506880845301D+03
 0.365805028045604D+03 -.439746640355138D+02 -.283995577145346D+03 0.226331746841425D+03
 0.312432745954591D+02 -.725708547541890D+00 -.282159525608534D+02 0.133968494667572D+02
-.348612583266D-06 0.000000000000D+00 0.000000000000D+00 0.190231713521D-06 0.000000000000D+00  6 -2 2 25 1 -1 21 2 0.37888395D-01 0.22242454D+00 0.25685131D+06 0.25685131D+06 0.25685131D+06 0.10895769D+01  1  2 13  4  6  5       -1 -.469698690364D-05 0.100000000000D+01
-.398583239850D-03 0.000000000000D+00 0.000000000000D+00 0.190231713521D-06 0.000000000000D+00  6 -2 2 25 1 -1 21 2 0.37888395D-01 0.22242454D+00 0.25685131D+06 0.25685131D+06 0.25685131D+06 0.10895769D+01  1  2 13  4  6  5       -1 -.537026013245D-02 0.100000000000D+01
-.239348333498D-03 0.000000000000D+00 0.000000000000D+00 0.190231713521D-06 0.000000000000D+00  6 -2 2 25 1 -1 21 2 0.37888395D-01 0.22242454D+00 0.25704980D+06 0.25704980D+06 0.25704980D+06 0.10895517D+01  1  2  8  4  6  5       -1 -.322459027896D-02 0.100000000000D+01
-.278404684161D-03 0.000000000000D+00 0.000000000000D+00 0.190231713521D-06 0.000000000000D+00  6 -2 2 25 1 -1 21 2 0.37888395D-01 0.22242454D+00 0.25704980D+06 0.25704980D+06 0.25704980D+06 0.10895517D+01  1  2  9  4  6  5       -1 -.375077204441D-02 0.100000000000D+01
0.301188618389D-03 0.000000000000D+00 0.000000000000D+00 0.190231713521D-06 0.000000000000D+00  6 -2 2 25 1 -1 21 2 0.37888395D-01 0.22242454D+00 0.25704980D+06 0.25704980D+06 0.25704980D+06 0.10895517D+01  1  2 10  4  6  5       -1 0.405772572883D-02 0.100000000000D+01
0.497176078479D-03 0.000000000000D+00 0.000000000000D+00 0.190231713521D-06 0.138294002248D-07  6 -2 2 25 1 -1 21 2 0.37888395D-01 0.22242454D+00 0.25685131D+06 0.25685131D+06 0.25685131D+06 0.10895769D+01  1  2  1  4  6  5       -1 0.669863809144D-02 0.100000000000D+01
  </mgrwgt>
  </event>
  <event>
  5     66 0.17652913E-05 0.13363794E+03 0.75467711E-02 0.93343590E-01
       -2 -1    0    0    0  501 0.00000000E+00 0.00000000E+00 0.43622727E+03 0.43622739E+03 0.32000000E+00 0.0000E+00 0.9000E+01
        2 -1    0    0  502    0 0.00000000E+00 0.00000000E+00 -.21341760E+04 0.21341760E+04 0.32000000E+00 0.0000E+00 0.9000E+01
       25  1    1    2    0    0 -.17670976E+03 -.44551941E+03 -.32919153E+03 0.59473183E+03 0.12500000E+03 0.0000E+00 0.9000E+01
        1  1    1    2  502    0 0.29642751E+03 0.38607907E+03 -.16197507E+04 0.16913068E+04 0.32000000E+00 0.0000E+00 0.9000E+01
       -1  1    1    2    0  501 -.11971775E+03 0.59440336E+02 0.25099349E+03 0.28436478E+03 0.32000000E+00 0.0000E+00 0.9000E+01
#aMCatNLO 1  0  0  1  5 0.59148062D+01 0.00000000D+00  -5  6  0 0.00000000D+00 0.00000000D+00 0.00000000D+00 0.00000000D+00 0.00000000D+00
  <mgrwgt>
 0.1196322353D-01   13    4    0
 0.964876129607677D+03 0.000000000000000D+00 0.000000000000000D+00 0.964876129607677D+03
 0.964876129607677D+03 0.000000000000000D+00 0.000000000000000D+00 -.964876129607677D+03
 0.502606332986446D+03 -.176767463004536D+03 -.445570928490571D+03 0.848995739981842D+02
 0.827639435396727D+03 0.296463783624453D+03 0.386141231286132D+03 -.669321454552084D+03
 0.599506490832180D+03 -.119696320619918D+03 0.594296972044396D+02 0.584421880553900D+03
 0.000000000000000D+00 0.000000000000000D+00 0.000000000000000D+00 0.000000000000000D+00
 0.101265417750615D+04 0.000000000000000D+00 0.000000000000000D+00 0.101265417750615D+04
 0.965063738931506D+03 0.000000000000000D+00 0.000000000000000D+00 -.965063738931506D+03
 0.503844443282320D+03 -.178021370481921D+03 -.446469122127316D+03 0.848995739981842D+02
 0.826215395417643D+03 0.294403294440315D+03 0.384665270493846D+03 -.669321454552084D+03
 0.599701485111696D+03 -.121190378633913D+03 0.583594799632942D+02 0.584421880553900D+03
 0.479565926259936D+02 0.480845467551953D+01 0.344437167017622D+01 0.475904385746408D+02
 0.964876129607677D+03 0.000000000000000D+00 0.000000000000000D+00 0.964876129607677D+03
 0.964876129607677D+03 0.000000000000000D+00 0.000000000000000D+00 -.964876129607677D+03
 0.502606332986446D+03 -.176767463004536D+03 -.445570928490571D+03 0.848995739981842D+02
 0.827639435396727D+03 0.296463783624453D+03 0.386141231286132D+03 -.669321454552084D+03
 0.000000000000000D+00 0.000000000000000D+00 0.000000000000000D+00 0.000000000000000D+00
 0.599506490832180D+03 -.119696320619918D+03 0.594296972044396D+02 0.584421880553900D+03
 0.101265417750615D+04 0.000000000000000D+00 0.000000000000000D+00 0.101265417750615D+04
 0.965063738931506D+03 0.000000000000000D+00 0.000000000000000D+00 -.965063738931506D+03
 0.503844443282320D+03 -.178021370481921D+03 -.446469122127316D+03 0.848995739981842D+02
 0.826215395417643D+03 0.294403294440315D+03 0.384665270493846D+03 -.669321454552084D+03
 0.479565926259936D+02 0.480845467551953D+01 0.344437167017622D+01 0.475904385746408D+02
 0.599701485111696D+03 -.121190378633913D+03 0.583594799632942D+02 0.584421880553900D+03
0.812022114045D-04 0.000000000000D+00 0.000000000000D+00 0.672612551358D-05 0.000000000000D+00  6 -2 2 25 1 -1 21 0 0.67111898D-01 0.32833478D+00 0.31127695D+06 0.31127695D+06 0.31127695D+06 0.10833682D+01  1  2  2  1  6  1       -2 0.122949149297D-03 0.100000000000D+01
0.125736345780D-04 0.000000000000D+00 -.311837872826D-06 0.672612551358D-05 0.000000000000D+00  6 -2 2 25 1 -1 21 2 0.67111898D-01 0.32833478D+00 0.31127695D+06 0.31127695D+06 0.31127695D+06 0.10833682D+01  1  2  3  1  6  1       -2 0.223445017375D-04 0.100000000000D+01
-.522191041342D-04 0.000000000000D+00 0.000000000000D+00 0.672612551358D-05 0.000000000000D+00  6 -2 2 25 1 -1 21 2 0.67111898D-01 0.32833478D+00 0.31127695D+06 0.31127695D+06 0.31127695D+06 0.10833682D+01  1  2 15  1  6  1       -2 -.927981369122D-04 0.100000000000D+01
0.132363551021D-07 0.000000000000D+00 0.000000000000D+00 0.672612551358D-05 0.000000000000D+00  6 -2 2 25 1 -1 21 2 0.70441448D-01 0.32833478D+00 0.31441926D+06 0.31441926D+06 0.31441926D+06 0.10830467D+01  1  2 12  1  6  1       -2 0.211651348915D-07 0.100000000000D+01
0.152361095544D-01 0.000000000000D+00 0.000000000000D+00 0.672612551358D-05 0.000000000000D+00  6 -2 2 25 1 -1 21 2 0.71279484D-01 0.32833478D+00 0.31441926D+06 0.31441926D+06 0.31441926D+06 0.10830467D+01  1  2 12  1  6  1       -2 0.237443262828D-01 0.100000000000D+01
-.157405953314D-01 0.000000000000D+00 0.000000000000D+00 0.672612551358D-05 0.000000000000D+00  6 -2 2 25 1 -1 21 2 0.67111898D-01 0.32833478D+00 0.31127695D+06 0.31127695D+06 0.31127695D+06 0.10833682D+01  1  2  4  1  6  1       -2 -.279724814293D-01 0.100000000000D+01
-.351263342502D-01 0.000000000000D+00 -.456138441384D-03 0.672612551358D-05 0.000000000000D+00  6 -2 2 25 1 -1 21 2 0.70441406D-01 0.32833478D+00 0.31127695D+06 0.31127695D+06 0.31127695D+06 0.10833682D+01  1  2  5  1  6  1       -2 -.562364088238D-01 0.100000000000D+01
0.351077917056D-01 0.000000000000D+00 0.455604258165D-03 0.672612551358D-05 0.000000000000D+00  6 -2 2 25 1 -1 21 2 0.67111898D-01 0.32833478D+00 0.31127695D+06 0.31127695D+06 0.31127695D+06 0.10833682D+01  1  2  6  1  6  1       -2 0.623897654967D-01 0.100000000000D+01
0.662342278366D-02 0.000000000000D+00 0.000000000000D+00 0.672612551358D-05 0.654504072793D-06  6 -2 2 25 1 -1 21 2 0.70435097D-01 0.32839862D+00 0.31441926D+06 0.31441926D+06 0.31441926D+06 0.10830467D+01  1  2 11  1  6  1       -2 0.105874134066D-01 0.100000000000D+01
0.250087760739D-09 0.000000000000D+00 0.000000000000D+00 0.672612551358D-05 0.000000000000D+00  6 21 2 25 1 2 -1 2 0.70441448D-01 0.32833478D+00 0.31441926D+06 0.31441926D+06 0.31441926D+06 0.10830467D+01  3  4 12  5  5  1       -2 0.391337020738D-08 0.100000000000D+01
0.352167841498D-03 0.000000000000D+00 0.000000000000D+00 0.672612551358D-05 0.000000000000D+00  6 21 2 25 1 2 -1 2 0.71279484D-01 0.32833478D+00 0.31441926D+06 0.31441926D+06 0.31441926D+06 0.10830467D+01  3  4 12  5  5  1       -2 0.535947595377D-02 0.100000000000D+01
-.497511594885D-03 0.000000000000D+00 -.385638288686D-05 0.672612551358D-05 0.000000000000D+00  6 21 2 25 1 2 -1 2 0.70441406D-01 0.32833478D+00 0.31127695D+06 0.31127695D+06 0.31127695D+06 0.10833682D+01  3  4  5  5  5  1       -2 -.779686862515D-02 0.100000000000D+01
0.117335531386D-03 0.000000000000D+00 0.000000000000D+00 0.672612551358D-05 0.101364815087D-07  6 21 2 25 1 2 -1 2 0.70435097D-01 0.32839862D+00 0.31441926D+06 0.31441926D+06 0.31441926D+06 0.10830467D+01  3  4 11  5  5  1       -2 0.183548067186D-02 0.100000000000D+01
  </mgrwgt>
  </event>
  <event>
  5     66 -.17652913E-05 0.54338624E+02 0.75467711E-02 0.89997310E-01
       -2 -1    0    0    0  501 0.00000000E+00 0.00000000E+00 0.91330933E+03 0.91330938E+03 0.32000000E+00 0.0000E+00 0.9000E+01
        2 -1    0    0  502    0 -.00000000E+00 -.00000000E+00 -.24430105E+04 0.24430105E+04 0.32000000E+00 0.0000E+00 0.9000E+01
       25  1    1    2    0    0 0.71318546E+03 0.85258675E+02 -.95720732E+03 0.12032346E+04 0.12500000E+03 0.0000E+00 0.9000E+01
        1  1    1    2  502    0 -.67262440E+03 -.49095162E+02 -.12782430E+04 0.14452471E+04 0.32000000E+00 0.0000E+00 0.9000E+01
       -1  1    1    2    0  501 -.40561062E+02 -.36163514E+02 0.70574915E+03 0.70783824E+03 0.32000000E+00 0.0000E+00 0.9000E+01
#aMCatNLO 1  0  0  5  4 0.50886579D+02 0.00000000D+00  -5  6  0 0.00000000D+00 0.00000000D+00 0.00000000D+00 0.00000000D+00 0.00000000D+00
  <mgrwgt>
 -.4818523143D-02    5    2    0
 0.149372834497025D+04 0.000000000000000D+00 0.000000000000000D+00 0.149372834497025D+04
 0.149372834497025D+04 -.000000000000000D+00 -.000000000000000D+00 -.149372834497025D+04
 0.861697722458301D+03 0.713247914834682D+03 0.852634083938745D+02 -.459244518816350D+03
 0.969212213468240D+03 -.672689005162628D+03 -.491018137101016D+02 -.696025020354655D+03
 0.115654675401397D+04 -.405589096720519D+02 -.361615946837711D+02 0.115526953917100D+04
 0.000000000000000D+00 -.000000000000000D+00 0.000000000000000D+00 0.000000000000000D+00
 0.149372834497025D+04 0.000000000000000D+00 0.000000000000000D+00 0.149372834497025D+04
 0.149372834497025D+04 -.000000000000000D+00 -.000000000000000D+00 -.149372834497025D+04
 0.860523408350865D+03 0.713174853206502D+03 0.851982679597123D+02 -.457163450212656D+03
 0.967593734972912D+03 -.672771170102733D+03 -.491750704935148D+02 -.693684655358172D+03
 0.224899294239794D+03 0.430031414319437D+02 -.275369645683935D+01 0.220732506741452D+03
 0.934440252376936D+03 -.834068245357099D+02 -.332695010093564D+02 0.930115598829376D+03
0.730805816318D-02 0.000000000000D+00 0.000000000000D+00 0.603038888117D-04 0.000000000000D+00  6 -2 2 25 1 -1 21 0 0.14050913D+00 0.37584777D+00 0.53139602D+06 0.53139602D+06 0.53139602D+06 0.10666462D+01  1  2  2  4  6  5       -1 0.120142141366D-02 0.100000000000D+01
0.410465551109D-02 0.000000000000D+00 -.280648676025D-04 0.603038888117D-04 0.000000000000D+00  6 -2 2 25 1 -1 21 2 0.14050913D+00 0.37584777D+00 0.53139602D+06 0.53139602D+06 0.53139602D+06 0.10666462D+01  1  2  3  4  6  5       -1 0.767734136057D-03 0.100000000000D+01
-.464688259049D-02 0.000000000000D+00 0.000000000000D+00 0.603038888117D-04 0.000000000000D+00  6 -2 2 25 1 -1 21 2 0.14050913D+00 0.37584777D+00 0.53139602D+06 0.53139602D+06 0.53139602D+06 0.10666462D+01  1  2 15  4  6  5       -1 -.869152205667D-03 0.100000000000D+01
0.498056529856D-09 0.000000000000D+00 0.000000000000D+00 0.603038888117D-04 0.000000000000D+00  6 -2 2 25 1 -1 21 2 0.14050913D+00 0.37584777D+00 0.59020531D+06 0.59020531D+06 0.59020531D+06 0.10634564D+01  1  2 12  4  6  5       -1 0.917917180778D-10 0.100000000000D+01
-.316431321694D-01 0.000000000000D+00 0.000000000000D+00 0.603038888117D-04 0.000000000000D+00  6 -2 2 25 1 -1 21 2 0.14050913D+00 0.37584777D+00 0.53139602D+06 0.53139602D+06 0.53139602D+06 0.10666462D+01  1  2  5  4  6  5       -1 -.591852657855D-02 0.100000000000D+01
  </mgrwgt>
  </event>
  <event>
  5     66 0.17652913E-05 0.77795469E+02 0.75467711E-02 0.93860025E-01
       -2 -1    0    0    0  501 0.00000000E+00 0.00000000E+00 0.22736381E+04 0.22736381E+04 0.32000000E+00 0.0000E+00 0.9000E+01
        2 -1    0    0  502    0 0.00000000E+00 0.00000000E+00 -.83553744E+03 0.83553750E+03 0.32000000E+00 0.0000E+00 0.9000E+01
       25  1    1    2    0    0 0.17856777E+03 0.44073736E+03 0.10472103E+04 0.11568968E+04 0.12500000E+03 0.0000E+00 0.9000E+01
        1  1    1    2  502    0 -.21092060E+03 -.36996869E+03 -.72115539E+03 0.83751390E+03 0.32000000E+00 0.0000E+00 0.9000E+01
       -1  1    1    2    0  501 0.32352831E+02 -.70768676E+02 0.11120458E+04 0.11147649E+04 0.32000000E+00 0.0000E+00 0.9000E+01
#aMCatNLO 1  0  0  4  1 0.46644668D+02 0.00000000D+00  -5  6  0 0.00000000D+00 0.00000000D+00 0.00000000D+00 0.00000000D+00 0.00000000D+00
  <mgrwgt>
 0.3567848855D-02    4    2    0
 0.137829963963291D+04 0.000000000000000D+00 0.000000000000000D+00 0.137829963963291D+04
 0.137829963963291D+04 -.000000000000000D+00 -.000000000000000D+00 -.137829963963291D+04
 0.758683763397533D+03 0.178598191545953D+03 0.440763667151872D+03 0.577759576760431D+03
 0.132087191096415D+04 -.210943604281789D+03 -.370011217042646D+03 -.125031879944649D+04
 0.677043604904139D+03 0.323454127358352D+02 -.707524501092266D+02 0.672559222686063D+03
 0.000000000000000D+00 0.000000000000000D+00 0.000000000000000D+00 0.000000000000000D+00
 0.137829963963291D+04 0.000000000000000D+00 0.000000000000000D+00 0.137829963963291D+04
 0.137829963963291D+04 -.000000000000000D+00 -.000000000000000D+00 -.137829963963291D+04
 0.722373748582404D+03 0.172274881425060D+03 0.429672097528152D+03 0.540279637296034D+03
 0.131050997451014D+04 -.185865167936944D+03 -.406528623561191D+03 -.123191923877493D+04
 0.644731990489757D+03 0.267021497752154D+02 -.806511649968382D+02 0.639110103458644D+03
 0.789835656835210D+02 -.131118632633318D+02 0.575076910298764D+02 0.525294980202461D+02
0.158261506536D+00 0.000000000000D+00 0.000000000000D+00 0.231343925399D-03 0.000000000000D+00  6 -2 2 25 1 -1 21 0 0.34979049D+00 0.12854423D+00 0.24772480D+06 0.24772480D+06 0.24772480D+06 0.10907579D+01  1  2  2  3  6  4        1 0.868664180798D-02 0.100000000000D+01
0.325254131947D-01 0.000000000000D+00 -.607765856310D-03 0.231343925399D-03 0.000000000000D+00  6 -2 2 25 1 -1 21 2 0.34979049D+00 0.12854423D+00 0.24772480D+06 0.24772480D+06 0.24772480D+06 0.10907579D+01  1  2  3  3  6  4        1 0.212400826529D-02 0.100000000000D+01
-.110180350806D+00 0.000000000000D+00 0.000000000000D+00 0.231343925399D-03 0.000000000000D+00  6 -2 2 25 1 -1 21 2 0.34979049D+00 0.12854423D+00 0.24772480D+06 0.24772480D+06 0.24772480D+06 0.10907579D+01  1  2 15  3  6  4        1 -.719511153888D-02 0.100000000000D+01
-.730282714078D-03 0.000000000000D+00 0.000000000000D+00 0.231343925399D-03 0.000000000000D+00  6 -2 2 25 1 -1 21 2 0.34979049D+00 0.12854423D+00 0.24772480D+06 0.24772480D+06 0.24772480D+06 0.10907579D+01  1  2  4  3  6  4        1 -.476896791875D-04 0.100000000000D+01
  </mgrwgt>
  </event>
  <event>
  5     66 0.17652913E-05 0.15986694E+02 0.75467711E-02 0.94840823E-01
       -2 -1    0    0    0  501 0.00000000E+00 0.00000000E+00 0.52618156E+03 0.52618165E+03 0.32000000E+00 0.0000E+00 0.9000E+01
        2 -1    0    0  502    0 -.00000000E+00 -.00000000E+00 -.11915112E+04 0.11915112E+04 0.32000000E+00 0.0000E+00 0.9000E+01
       25  1    1    2    0    0 0.23273306E+03 -.39343758E+03 -.11396147E+03 0.48741155E+03 0.12500000E+03 0.0000E+00 0.9000E+01
        1  1    1    2  502    0 0.15907397E+02 0.15667154E+01 -.73207185E+03 0.73224641E+03 0.32000000E+00 0.0000E+00 0.9000E+01
       -1  1    1    2    0  501 -.24864046E+03 0.39187086E+03 0.18070369E+03 0.49803492E+03 0.32000000E+00 0.0000E+00 0.9000E+01
#aMCatNLO 1  0  0  4  4 0.18015426D+02 0.00000000D+00  -5  6  0 0.00000000D+00 0.00000000D+00 0.00000000D+00 0.00000000D+00 0.00000000D+00
  <mgrwgt>
 0.2501115660D-01    6    2    0
 0.791802581041836D+03 0.000000000000000D+00 0.000000000000000D+00 0.791802581041836D+03
 0.791802581041836D+03 -.000000000000000D+00 -.000000000000000D+00 -.791802581041836D+03
 0.480783380275999D+03 0.232710739977972D+03 -.393406381972884D+03 0.812698521687262D+02
 0.486746576149587D+03 0.159097048198830D+02 0.156706470089275D+01 -.486483971980694D+03
 0.616075205658085D+03 -.248620444797854D+03 0.391839317271991D+03 0.405214119811968D+03
 0.000000000000000D+00 0.000000000000000D+00 0.000000000000000D+00 0.000000000000000D+00
 0.791802581041836D+03 0.000000000000000D+00 0.000000000000000D+00 0.791802581041836D+03
 0.791802581041836D+03 -.000000000000000D+00 -.000000000000000D+00 -.791802581041836D+03
 0.480699002016048D+03 0.232728509610805D+03 -.393404631710093D+03 0.807264956665690D+02
 0.121211810817405D+03 -.763118071569166D+01 -.134342272226053D+02 -.120223083064153D+03
 0.615609844053827D+03 -.248597681415495D+03 0.391841559406171D+03 0.404518065372806D+03
 0.366084505196391D+03 0.235003525203827D+02 0.149972995265273D+02 -.365021477975222D+03
0.705276951508D-03 0.000000000000D+00 0.000000000000D+00 0.569936612186D-04 0.000000000000D+00  6 -2 2 25 1 -1 21 0 0.80951019D-01 0.18330942D+00 0.22748602D+06 0.22748602D+06 0.22748602D+06 0.10935559D+01  1  2  2  3  6  4        1 0.238105770990D-02 0.100000000000D+01
0.586736240943D-03 0.000000000000D+00 -.270844919748D-05 0.569936612186D-04 0.000000000000D+00  6 -2 2 25 1 -1 21 2 0.80951019D-01 0.18330942D+00 0.22748602D+06 0.22748602D+06 0.22748602D+06 0.10935559D+01  1  2  3  3  6  4        1 0.236883658675D-02 0.100000000000D+01
-.506274239795D-03 0.000000000000D+00 0.000000000000D+00 0.569936612186D-04 0.000000000000D+00  6 -2 2 25 1 -1 21 2 0.80951019D-01 0.18330942D+00 0.22748602D+06 0.22748602D+06 0.22748602D+06 0.10935559D+01  1  2 15  3  6  4        1 -.204398647718D-02 0.100000000000D+01
-.218024816032D-03 0.000000000000D+00 0.000000000000D+00 0.569936612186D-04 0.000000000000D+00  6 -2 2 25 1 -1 21 2 0.80951019D-01 0.18330942D+00 0.22748602D+06 0.22748602D+06 0.22748602D+06 0.10935559D+01  1  2  4  3  6  4        1 -.880233953515D-03 0.100000000000D+01
-.649483004094D-02 0.000000000000D+00 0.000000000000D+00 0.569936612186D-04 0.000000000000D+00  6 -2 2 25 1 -1 21 2 0.80951019D-01 0.18330942D+00 0.22748602D+06 0.22748602D+06 0.22748602D+06 0.10935559D+01  1  2  5  3  6  4        1 -.262216477390D-01 0.100000000000D+01
0.122376335164D-01 0.000000000000D+00 -.000000000000D+00 0.569936612186D-04 0.000000000000D+00  6 -2 2 25 1 -1 21 2 0.80951019D-01 0.18330942D+00 0.22748602D+06 0.22748602D+06 0.22748602D+06 0.10935559D+01  1  2  6  3  6  4        1 0.494071304720D-01 0.100000000000D+01
  </mgrwgt>
  </event>
  <event>
  5     66 0.17652913E-05 0.98369464E+02 0.75467711E-02 0.91890569E-01
       -2 -1    0    0    0  501 0.00000000E+00 0.00000000E+00 0.10144983E+04 0.10144983E+04 0.32000000E+00 0.0000E+00 0.9000E+01
        2 -1    0    0  502    0 0.00000000E+00 0.00000000E+00 -.98445642E+03 0.98445648E+03 0.32000000E+00 0.0000E+00 0.9000E+01
       25  1    1    2    0    0 -.39610037E+03 -.36989461E+03 0.18472121E+03 0.58605840E+03 0.12500000E+03 0.0000E+00 0.9000E+01
        1  1    1    2  502    0 -.98109340E+02 -.69885272E+01 -.62549671E+03 0.63318285E+03 0.32000000E+00 0.0000E+00 0.9000E+01
       -1  1    1    2    0  501 0.49420971E+03 0.37688313E+03 0.47081735E+03 0.77971355E+03 0.32000000E+00 0.0000E+00 0.9000E+01
#aMCatNLO 1  0  0  1  5 0.62816243D+01 0.00000000D+00  -5  6  0 0.00000000D+00 0.00000000D+00 0.00000000D+00 0.00000000D+00 0.00000000D+00
  <mgrwgt>
 0.1685645333D-02   13    4    0
 0.999364520313039D+03 0.000000000000000D+00 0.000000000000000D+00 0.999364520313039D+03
 0.999364520313039D+03 0.000000000000000D+00 0.000000000000000D+00 -.999364520313039D+03
 0.583330586124502D+03 -.396052987928497D+03 -.369867163246008D+03 0.176039441641967D+03
 0.642729529791834D+03 -.981208956263361D+02 -.698864933084167D+01 -.635157222338256D+03
 0.772668924709742D+03 0.494173883554833D+03 0.376855812576850D+03 0.459117780696288D+03
 0.000000000000000D+00 -.000000000000000D+00 -.000000000000000D+00 0.000000000000000D+00
 0.143250384410013D+04 0.000000000000000D+00 0.000000000000000D+00 0.143250384410013D+04
 0.999392230938712D+03 0.000000000000000D+00 0.000000000000000D+00 -.999392230938712D+03
 0.581927974232201D+03 -.395654405989864D+03 -.368079982070725D+03 0.176039441641967D+03
 0.642644141104825D+03 -.976812277731714D+02 -.501724512409903D+01 -.635157222338256D+03
 0.774166796238546D+03 0.494702985679784D+03 0.379228226542113D+03 0.459117780696288D+03
 0.433157163463269D+03 -.136735191674877D+01 -.613099934728846D+01 0.433111613161417D+03
 0.999364520313039D+03 0.000000000000000D+00 0.000000000000000D+00 0.999364520313039D+03
 0.999364520313039D+03 0.000000000000000D+00 0.000000000000000D+00 -.999364520313039D+03
 0.583330586124502D+03 -.396052987928497D+03 -.369867163246008D+03 0.176039441641967D+03
 0.642729529791834D+03 -.981208956263361D+02 -.698864933084167D+01 -.635157222338256D+03
 0.000000000000000D+00 -.000000000000000D+00 -.000000000000000D+00 0.000000000000000D+00
 0.772668924709742D+03 0.494173883554833D+03 0.376855812576850D+03 0.459117780696288D+03
 0.143250384410013D+04 0.000000000000000D+00 0.000000000000000D+00 0.143250384410013D+04
 0.999392230938712D+03 0.000000000000000D+00 0.000000000000000D+00 -.999392230938712D+03
 0.581927974232201D+03 -.395654405989864D+03 -.368079982070725D+03 0.176039441641967D+03
 0.642644141104825D+03 -.976812277731714D+02 -.501724512409903D+01 -.635157222338256D+03
 0.433157163463269D+03 -.136735191674877D+01 -.613099934728846D+01 0.433111613161417D+03
 0.774166796238546D+03 0.494702985679784D+03 0.379228226542113D+03 0.459117780696288D+03
0.132020571479D-04 0.000000000000D+00 0.000000000000D+00 0.421933201503D-05 0.000000000000D+00  6 -2 2 25 1 -1 21 0 0.15607667D+00 0.15145484D+00 0.40702850D+06 0.40702850D+06 0.40702850D+06 0.10748827D+01  1  2  2  1  6  1       -2 0.110683956016D-04 0.100000000000D+01
0.338078355373D-05 0.000000000000D+00 -.506993756295D-07 0.421933201503D-05 0.000000000000D+00  6 -2 2 25 1 -1 21 2 0.15607667D+00 0.15145484D+00 0.40702850D+06 0.40702850D+06 0.40702850D+06 0.10748827D+01  1  2  3  1  6  1       -2 0.327478341747D-05 0.100000000000D+01
-.107214547293D-04 0.000000000000D+00 0.000000000000D+00 0.421933201503D-05 0.000000000000D+00  6 -2 2 25 1 -1 21 2 0.15607667D+00 0.15145484D+00 0.40702850D+06 0.40702850D+06 0.40702850D+06 0.10748827D+01  1  2 15  1  6  1       -2 -.103852972545D-04 0.100000000000D+01
0.658632266642D-07 0.000000000000D+00 0.000000000000D+00 0.421933201503D-05 0.000000000000D+00  6 -2 2 25 1 -1 21 2 0.22372404D+00 0.15145484D+00 0.41093727D+06 0.41093727D+06 0.41093727D+06 0.10745841D+01  1  2 12  1  6  1       -2 0.211654977806D-07 0.100000000000D+01
0.632167339649D-01 0.000000000000D+00 0.000000000000D+00 0.421933201503D-05 0.000000000000D+00  6 -2 2 25 1 -1 21 2 0.22373774D+00 0.15145484D+00 0.41093727D+06 0.41093727D+06 0.41093727D+06 0.10745841D+01  1  2 12  1  6  1       -2 0.203108044297D-01 0.100000000000D+01
-.676968068357D-01 0.000000000000D+00 0.000000000000D+00 0.421933201503D-05 0.000000000000D+00  6 -2 2 25 1 -1 21 2 0.15607667D+00 0.15145484D+00 0.40702850D+06 0.40702850D+06 0.40702850D+06 0.10748827D+01  1  2  4  1  6  1       -2 -.655742602027D-01 0.100000000000D+01
-.740526022023D-01 0.000000000000D+00 -.111612065880D-04 0.421933201503D-05 0.000000000000D+00  6 -2 2 25 1 -1 21 2 0.22372457D+00 0.15145484D+00 0.40702850D+06 0.40702850D+06 0.40702850D+06 0.10748827D+01  1  2  5  1  6  1       -2 -.238254843527D-01 0.100000000000D+01
0.695029183919D-01 0.000000000000D+00 0.104748127895D-04 0.421933201503D-05 0.000000000000D+00  6 -2 2 25 1 -1 21 2 0.15607667D+00 0.15145484D+00 0.40702850D+06 0.40702850D+06 0.40702850D+06 0.10748827D+01  1  2  6  1  6  1       -2 0.673237434453D-01 0.100000000000D+01
0.107199571749D-01 0.000000000000D+00 0.000000000000D+00 0.421933201503D-05 0.695295411240D-06  6 -2 2 25 1 -1 21 2 0.22372259D+00 0.15145904D+00 0.41093727D+06 0.41093727D+06 0.41093727D+06 0.10745841D+01  1  2 11  1  6  1       -2 0.344485453056D-02 0.100000000000D+01
0.290407147553D-08 0.000000000000D+00 0.000000000000D+00 0.421933201503D-05 0.000000000000D+00  6 21 2 25 1 2 -1 2 0.22372404D+00 0.15145484D+00 0.41093727D+06 0.41093727D+06 0.41093727D+06 0.10745841D+01  3  4 12  5  5  1       -2 0.706892236838D-08 0.100000000000D+01
0.278772383339D-02 0.000000000000D+00 0.000000000000D+00 0.421933201503D-05 0.000000000000D+00  6 21 2 25 1 2 -1 2 0.22373774D+00 0.15145484D+00 0.41093727D+06 0.41093727D+06 0.41093727D+06 0.10745841D+01  3  4 12  5  5  1       -2 0.678419087447D-02 0.100000000000D+01
-.326484796667D-02 0.000000000000D+00 -.492127381729D-06 0.421933201503D-05 0.000000000000D+00  6 21 2 25 1 2 -1 2 0.22372457D+00 0.15145484D+00 0.40702850D+06 0.40702850D+06 0.40702850D+06 0.10748827D+01  3  4  5  5  5  1       -2 -.795934809139D-02 0.100000000000D+01
0.483610756282D-03 0.000000000000D+00 0.000000000000D+00 0.421933201503D-05 0.313666311960D-07  6 21 2 25 1 2 -1 2 0.22372259D+00 0.15145904D+00 0.41093727D+06 0.41093727D+06 0.41093727D+06 0.10745841D+01  3  4 11  5  5  1       -2 0.117715858339D-02 0.100000000000D+01
  </mgrwgt>
  </event>
  <event>
  5     66 0.17652913E-05 0.19709599E+03 0.75467711E-02 0.92106096E-01
       -2 -1    0    0    0  501 0.00000000E+00 0.00000000E+00 0.25271953E+03 0.25271973E+03 0.32000000E+00 0.0000E+00 0.9000E+01
        2 -1    0    0  502    0 0.00000000E+00 0.00000000E+00 -.38549026E+04 0.38549027E+04 0.32000000E+00 0.0000E+00 0.9000E+01
       25  1    1    2    0    0 0.40269931E+03 -.26677674E+03 -.63912009E+03 0.81082430E+03 0.12500000E+03 0.0000E+00 0.9000E+01
        1  1    1    2  502    0 -.23596277E+03 0.37194261E+03 -.30497881E+04 0.30814326E+04 0.32000000E+00 0.0000E+00 0.9000E+01
       -1  1    1    2    0  501 -.16673655E+03 -.10516587E+03 0.86725043E+02 0.21536544E+03 0.32000000E+00 0.0000E+00 0.9000E+01
#aMCatNLO 1  0  0  1  4 0.92774081D+02 0.00000000D+00  -5  6  0 0.00000000D+00 0.00000000D+00 0.00000000D+00 0.00000000D+00 0.00000000D+00
  <mgrwgt>
 0.6390817235D-03    4    2    0
 0.987020572128671D+03 0.000000000000000D+00 0.000000000000000D+00 0.987020572128671D+03
 0.987020572128671D+03 0.000000000000000D+00 0.000000000000000D+00 -.987020572128671D+03
 0.521003073735767D+03 0.402712389879708D+03 -.266845443935723D+03 0.149784655189501D+03
 0.846757934449622D+03 -.236006107811885D+03 0.371992223684401D+03 -.723133391669345D+03
 0.606280136071954D+03 -.166706282067823D+03 -.105146779748678D+03 0.573348736479844D+03
 0.000000000000000D+00 0.000000000000000D+00 0.000000000000000D+00 -.000000000000000D+00
 0.997217651301922D+03 0.000000000000000D+00 0.000000000000000D+00 0.997217651301922D+03
 0.122436815906369D+04 0.000000000000000D+00 0.000000000000000D+00 -.122436815906369D+04
 0.504824452342058D+03 0.378911432693933D+03 -.270579768138809D+03 0.149784655189501D+03
 0.855940256910273D+03 -.275511624794649D+03 0.365793884387679D+03 -.723133391669345D+03
 0.615455285917963D+03 -.195052638284551D+03 -.109594268278790D+03 0.573348736479844D+03
 0.245365815195320D+03 0.916528303852670D+02 0.143801520299210D+02 -.227150507761770D+03
0.548670216102D-02 0.000000000000D+00 0.000000000000D+00 0.282542098734D-05 0.000000000000D+00  6 -2 2 25 1 -1 21 0 0.38879944D-01 0.59306196D+00 0.32299080D+06 0.32299080D+06 0.32299080D+06 0.10821872D+01  1  2  2  1  6  1       -2 0.191753085622D-02 0.100000000000D+01
0.500594856356D-03 0.000000000000D+00 -.210703809802D-04 0.282542098734D-05 0.000000000000D+00  6 -2 2 25 1 -1 21 2 0.38879944D-01 0.59306196D+00 0.32299080D+06 0.32299080D+06 0.32299080D+06 0.10821872D+01  1  2  3  1  6  1       -2 0.204890656773D-03 0.100000000000D+01
-.346966150896D-02 0.000000000000D+00 0.000000000000D+00 0.282542098734D-05 0.000000000000D+00  6 -2 2 25 1 -1 21 2 0.38879944D-01 0.59306196D+00 0.32299080D+06 0.32299080D+06 0.32299080D+06 0.10821872D+01  1  2 15  1  6  1       -2 -.142011292430D-02 0.100000000000D+01
-.154477729685D-03 0.000000000000D+00 0.000000000000D+00 0.282542098734D-05 0.000000000000D+00  6 -2 2 25 1 -1 21 2 0.38879944D-01 0.59306196D+00 0.32299080D+06 0.32299080D+06 0.32299080D+06 0.10821872D+01  1  2  4  1  6  1       -2 -.632268651786D-04 0.100000000000D+01
  </mgrwgt>
  </event>
  <event>
  6     66 0.17652913E-05 0.12244751E+02 0.75467711E-02 0.93991418E-01
       21 -1    0    0  503  501 0.00000000E+00 0.00000000E+00 0.16588685E+03 0.16588855E+03 0.75000000E+00 0.0000E+00 0.9000E+01
        2 -1    0    0  502    0 0.00000000E+00 0.00000000E+00 -.26571828E+04 0.26571829E+04 0.32000000E+00 0.0000E+00 0.9000E+01
       25  1    1    2    0    0 -.47234067E+01 -.49682158E+03 -.67272693E+03 0.84560068E+03 0.12500000E+03 0.0000E+00 0.9000E+01
        1  1    1    2  502    0 0.15319583E+02 0.51982235E+03 -.18532124E+04 0.19247977E+04 0.32000000E+00 0.0000E+00 0.9000E+01
        2  1    1    2  503    0 -.30753398E+01 -.80914076E+01 0.34910365E+02 0.35968939E+02 0.32000000E+00 0.0000E+00 0.9000E+01
       -1  1    1    2    0  501 -.75208362E+01 -.14909364E+02 -.26702547E+00 0.16704066E+02 0.32000000E+00 0.0000E+00 0.9000E+01
#aMCatNLO 2  0  0  1  5 0.86561303D+01 0.00000000D+00  -5  6  0 0.00000000D+00 0.00000000D+00 0.00000000D+00 0.00000000D+00 0.00000000D+00
  <mgrwgt>
 0.7503671527D-02    3    2    0
 0.588673655291199D+03 0.000000000000000D+00 0.000000000000000D+00 0.588673655291199D+03
 0.588673655291199D+03 0.000000000000000D+00 0.000000000000000D+00 -.588673655291199D+03
 0.561995260813342D+03 -.623030638902886D+01 -.500893013126388D+03 0.221993346432100D+03
 0.576556210366247D+03 0.137955488068878D+02 0.515956039954570D+03 -.256936006389536D+03
 0.000000000000000D+00 -.000000000000000D+00 -.000000000000000D+00 0.000000000000000D+00
 0.387958394028082D+02 -.756524241785897D+01 -.150630268281815D+02 0.349426599574359D+02
 0.748622397541053D+03 0.000000000000000D+00 0.000000000000000D+00 0.748622397541053D+03
 0.588806690640113D+03 0.000000000000000D+00 0.000000000000000D+00 -.588806690640113D+03
 0.558551751117212D+03 -.476684006256465D+01 -.497042543502867D+03 0.221993346432100D+03
 0.580153774916371D+03 0.153062450069781D+02 0.519930774271055D+03 -.256936006389536D+03
 0.160049957090419D+03 -.307533982843469D+01 -.809140762398256D+01 0.159815706900940D+03
 0.386736050571635D+02 -.746406511597876D+01 -.147968231442055D+02 0.349426599574359D+02
-.750087480457D-07 0.000000000000D+00 0.000000000000D+00 0.594734716058D-06 0.000000000000D+00  6 21 2 25 1 2 -1 2 0.25523028D-01 0.40870502D+00 0.27980222D+06 0.27980222D+06 0.27980222D+06 0.10867985D+01  1  2 13  5  5  1       -2 -.513036022729D-05 0.100000000000D+01
-.149069636916D-03 0.000000000000D+00 0.000000000000D+00 0.594734716058D-06 0.000000000000D+00  6 21 2 25 1 2 -1 2 0.26274008D-01 0.40870502D+00 0.27980222D+06 0.27980222D+06 0.27980222D+06 0.10867985D+01  1  2 13  5  5  1       -2 -.963969976198D-02 0.100000000000D+01
0.250891250972D-03 0.000000000000D+00 0.000000000000D+00 0.594734716058D-06 0.270427087738D-08  6 21 2 25 1 2 -1 2 0.25521179D-01 0.40879738D+00 0.27980222D+06 0.27980222D+06 0.27980222D+06 0.10867985D+01  1  2  1  5  5  1       -2 0.171485016488D-01 0.100000000000D+01
  </mgrwgt>
  </event>
  <event>
  5     66 0.17652913E-05 0.16243773E+02 0.75467711E-02 0.94935104E-01
       -2 -1    0    0    0  501 0.00000000E+00 0.00000000E+00 0.37256320E+03 0.37256334E+03 0.32000000E+00 0.0000E+00 0.9000E+01
        2 -1    0    0  502    0 -.00000000E+00 -.00000000E+00 -.97918586E+03 0.97918591E+03 0.32000000E+00 0.0000E+00 0.9000E+01
       25  1    1    2    0    0 -.11036853E+03 -.45939100E+03 0.42167099E+02 0.49053478E+03 0.12500000E+03 0.0000E+00 0.9000E+01
        1  1    1    2  502    0 -.14095556E+02 0.80681311E+01 -.23746399E+03 0.23801897E+03 0.32000000E+00 0.0000E+00 0.9000E+01
       -1  1    1    2    0  501 0.12446409E+03 0.45132287E+03 -.41132577E+03 0.62319550E+03 0.32000000E+00 0.0000E+00 0.9000E+01
#aMCatNLO 1  0  0  4  2 0.12244535D+01 0.00000000D+00  -5  6  0 0.00000000D+00 0.00000000D+00 0.00000000D+00 0.00000000D+00 0.00000000D+00
  <mgrwgt>
 0.6036775180D-02    9    2    0
 0.603993994595945D+03 0.000000000000000D+00 0.000000000000000D+00 0.603993994595945D+03
 0.603993994595945D+03 -.000000000000000D+00 -.000000000000000D+00 -.603993994595945D+03
 0.570080257948436D+03 -.110358937309802D+03 -.459365005236906D+03 0.293549310035136D+03
 0.147134380404044D+03 -.140975776182988D+02 0.806960054136928D+01 -.146234967601052D+03
 0.490773350839411D+03 0.124456514928101D+03 0.451295404695537D+03 -.147314342434083D+03
 0.000000000000000D+00 -.000000000000000D+00 0.000000000000000D+00 0.000000000000000D+00
 0.603993994595945D+03 0.000000000000000D+00 0.000000000000000D+00 0.603993994595945D+03
 0.603993994595945D+03 -.000000000000000D+00 -.000000000000000D+00 -.603993994595945D+03
 0.570074236457236D+03 -.110360010861437D+03 -.459364390724747D+03 0.293538174023492D+03
 0.101244019705663D+03 -.851558047867962D+01 0.584738246086365D+01 -.100715661809017D+03
 0.490776480703474D+03 0.124455590716135D+03 0.451295933724110D+03 -.147323929336917D+03
 0.458932523255174D+02 -.557999937601919D+01 0.222107453977370D+01 -.454985828775579D+02
0.204739691432D-05 0.000000000000D+00 0.000000000000D+00 0.527816457209D-06 0.000000000000D+00  6 -2 2 25 1 -1 21 0 0.57317430D-01 0.15064399D+00 0.23672032D+06 0.23672032D+06 0.23672032D+06 0.10922469D+01  1  2  2  3  6  4        1 0.194031067863D-04 0.100000000000D+01
0.100553058633D-05 0.000000000000D+00 -.786254324298D-08 0.527816457209D-06 0.000000000000D+00  6 -2 2 25 1 -1 21 2 0.57317430D-01 0.15064399D+00 0.23672032D+06 0.23672032D+06 0.23672032D+06 0.10922469D+01  1  2  3  3  6  4        1 0.113685778420D-04 0.100000000000D+01
-.149683877633D-05 0.000000000000D+00 0.000000000000D+00 0.527816457209D-06 0.000000000000D+00  6 -2 2 25 1 -1 21 2 0.57317430D-01 0.15064399D+00 0.23672032D+06 0.23672032D+06 0.23672032D+06 0.10922469D+01  1  2 15  3  6  4        1 -.169233321960D-04 0.100000000000D+01
0.353337272204D-10 0.000000000000D+00 0.000000000000D+00 0.527816457209D-06 0.000000000000D+00  6 -2 2 25 1 -1 21 2 0.57317430D-01 0.15064399D+00 0.23676502D+06 0.23676502D+06 0.23676502D+06 0.10922407D+01  1  2 12  3  6  4        1 0.399477825506D-09 0.100000000000D+01
0.687355968828D-07 0.000000000000D+00 0.000000000000D+00 0.527816457209D-06 0.000000000000D+00  6 -2 2 25 1 -1 21 2 0.57317430D-01 0.15064399D+00 0.23676502D+06 0.23676502D+06 0.23676502D+06 0.10922407D+01  1  2 12  3  6  4        1 0.777114358932D-06 0.100000000000D+01
-.167941633725D-02 0.000000000000D+00 0.000000000000D+00 0.527816457209D-06 0.000000000000D+00  6 -2 2 25 1 -1 21 2 0.57317430D-01 0.15064399D+00 0.23672032D+06 0.23672032D+06 0.23672032D+06 0.10922469D+01  1  2  4  3  6  4        1 -.189875630029D-01 0.100000000000D+01
-.164695600650D-02 0.000000000000D+00 0.000000000000D+00 0.527816457209D-06 0.000000000000D+00  6 -2 2 25 1 -1 21 2 0.57317430D-01 0.15064399D+00 0.23672032D+06 0.23672032D+06 0.23672032D+06 0.10922469D+01  1  2  5  3  6  4        1 -.186205649206D-01 0.100000000000D+01
0.273688702768D-02 0.000000000000D+00 -.000000000000D+00 0.527816457209D-06 0.000000000000D+00  6 -2 2 25 1 -1 21 2 0.57317430D-01 0.15064399D+00 0.23672032D+06 0.23672032D+06 0.23672032D+06 0.10922469D+01  1  2  6  3  6  4        1 0.309433781946D-01 0.100000000000D+01
0.112215347487D-02 0.000000000000D+00 0.000000000000D+00 0.527816457209D-06 0.775006654249D-06  6 -2 2 25 1 -1 21 2 0.57317430D-01 0.15064399D+00 0.23676502D+06 0.23676502D+06 0.23676502D+06 0.10922407D+01  1  2 11  3  6  4        1 0.126868990421D-01 0.100000000000D+01
  </mgrwgt>
  </event>
  <event>
  5     66 0.17652913E-05 0.51327704E+02 0.75467711E-02 0.93857856E-01
       -2 -1    0    0    0  501 0.00000000E+00 0.00000000E+00 0.84405352E+03 0.84405358E+03 0.32000000E+00 0.0000E+00 0.9000E+01
        2 -1    0    0  502    0 0.00000000E+00 0.00000000E+00 -.42675498E+03 0.42675510E+03 0.32000000E+00 0.0000E+00 0.9000E+01
       25  1    1    2    0    0 0.45567576E+03 -.15937643E+03 0.20450662E+03 0.53897050E+03 0.12500000E+03 0.0000E+00 0.9000E+01
        1  1    1    2  502    0 0.47549460E+02 0.19328800E+02 -.10748897E+03 0.11911564E+03 0.32000000E+00 0.0000E+00 0.9000E+01
       -1  1    1    2    0  501 -.50322522E+03 0.14004763E+03 0.32028089E+03 0.61272254E+03 0.32000000E+00 0.0000E+00 0.9000E+01
#aMCatNLO 1  0  0  4  5 0.14939922D+02 0.00000000D+00  -5  6  0 0.00000000D+00 0.00000000D+00 0.00000000D+00 0.00000000D+00 0.00000000D+00
  <mgrwgt>
 0.4776529492D-02    7    2    0
 0.600170106241557D+03 0.000000000000000D+00 0.000000000000000D+00 0.600170106241557D+03
 0.600170106241557D+03 -.000000000000000D+00 -.000000000000000D+00 -.600170106241557D+03
 0.499515346768125D+03 0.455675947080130D+03 -.159376557072855D+03 0.291397660441785D+02
 0.163477090513686D+03 0.475491819006298D+02 0.193289553864101D+02 -.155210263536504D+03
 0.537347775201303D+03 -.503225128980760D+03 0.140047601686445D+03 0.126070497492325D+03
 0.000000000000000D+00 0.000000000000000D+00 0.000000000000000D+00 -.000000000000000D+00
 0.600170106241557D+03 0.000000000000000D+00 0.000000000000000D+00 0.600170106241557D+03
 0.600170106241557D+03 -.000000000000000D+00 -.000000000000000D+00 -.600170106241557D+03
 0.500320470020870D+03 0.457001665140412D+03 -.158837646744267D+03 0.248123509071212D+02
 0.160744875003919D+02 0.118353187537527D+02 0.108020355160398D+02 -.127687395914174D+01
 0.535095246628596D+03 -.501803138431122D+03 0.140625647213102D+03 0.121428829242029D+03
 0.148850008333257D+03 0.329661545369572D+02 0.740996401512569D+01 -.144964306190009D+03
0.196100134643D-02 0.000000000000D+00 0.000000000000D+00 0.565168077685D-06 0.000000000000D+00  6 -2 2 25 1 -1 21 0 0.12985440D+00 0.65654626D-01 0.28747920D+06 0.28747920D+06 0.28747920D+06 0.10859243D+01  1  2  2  3  6  4        1 0.764588409406D-02 0.100000000000D+01
0.436944964257D-03 0.000000000000D+00 -.753076151379D-05 0.565168077685D-06 0.000000000000D+00  6 -2 2 25 1 -1 21 2 0.12985440D+00 0.65654626D-01 0.28747920D+06 0.28747920D+06 0.28747920D+06 0.10859243D+01  1  2  3  3  6  4        1 0.200898035138D-02 0.100000000000D+01
-.139095637082D-02 0.000000000000D+00 0.000000000000D+00 0.565168077685D-06 0.000000000000D+00  6 -2 2 25 1 -1 21 2 0.12985440D+00 0.65654626D-01 0.28747920D+06 0.28747920D+06 0.28747920D+06 0.10859243D+01  1  2 15  3  6  4        1 -.639532263145D-02 0.100000000000D+01
0.565650254199D-07 0.000000000000D+00 0.000000000000D+00 0.565168077685D-06 0.000000000000D+00  6 -2 2 25 1 -1 21 2 0.12985440D+00 0.65654626D-01 0.28657418D+06 0.28657418D+06 0.28657418D+06 0.10860261D+01  1  2 12  3  6  4        1 0.260150460469D-06 0.100000000000D+01
-.466763463392D-03 0.000000000000D+00 0.000000000000D+00 0.565168077685D-06 0.000000000000D+00  6 -2 2 25 1 -1 21 2 0.12985440D+00 0.65654626D-01 0.28747920D+06 0.28747920D+06 0.28747920D+06 0.10859243D+01  1  2  4  3  6  4        1 -.214607949148D-02 0.100000000000D+01
-.382740538866D-03 0.000000000000D+00 0.000000000000D+00 0.565168077685D-06 0.000000000000D+00  6 -2 2 25 1 -1 21 2 0.12985440D+00 0.65654626D-01 0.28747920D+06 0.28747920D+06 0.28747920D+06 0.10859243D+01  1  2  5  3  6  4        1 -.175975989006D-02 0.100000000000D+01
0.117938600187D-02 0.000000000000D+00 -.000000000000D+00 0.565168077685D-06 0.000000000000D+00  6 -2 2 25 1 -1 21 2 0.12985440D+00 0.65654626D-01 0.28747920D+06 0.28747920D+06 0.28747920D+06 0.10859243D+01  1  2  6  3  6  4        1 0.542256690952D-02 0.100000000000D+01
  </mgrwgt>
  </event>
  <event>
  5     66 0.17652913E-05 0.44583243E+02 0.75467711E-02 0.92685104E-01
       -2 -1    0    0    0  501 0.00000000E+00 0.00000000E+00 0.42388179E+03 0.42388191E+03 0.32000000E+00 0.0000E+00 0.9000E+01
        2 -1    0    0  502    0 -.00000000E+00 -.00000000E+00 -.18970970E+04 0.18970970E+04 0.32000000E+00 0.0000E+00 0.9000E+01
       25  1    1    2    0    0 -.48698736E+03 0.12500145E+03 -.86542643E+03 0.10086476E+04 0.12500000E+03 0.0000E+00 0.9000E+01
        1  1    1    2  502    0 0.22337062E+02 0.38582490E+02 -.78690923E+03 0.78817117E+03 0.32000000E+00 0.0000E+00 0.9000E+01
       -1  1    1    2    0  501 0.46465030E+03 -.16358394E+03 0.17912048E+03 0.52416014E+03 0.32000000E+00 0.0000E+00 0.9000E+01
#aMCatNLO 1  0  0  4  2 0.55984126D+01 0.00000000D+00  -5  6  0 0.00000000D+00 0.00000000D+00 0.00000000D+00 0.00000000D+00 0.00000000D+00
  <mgrwgt>
 0.8749938644D-02    4    2    0
 0.896741336278996D+03 0.000000000000000D+00 0.000000000000000D+00 0.896741336278996D+03
 0.896741336278996D+03 -.000000000000000D+00 -.000000000000000D+00 -.896741336278996D+03
 0.594416669209324D+03 -.486986410746922D+03 0.124999867188051D+03 -.291419706925778D+03
 0.373609686546238D+03 0.223379737089041D+02 0.385834219067194D+02 -.370940065732628D+03
 0.825456316802429D+03 0.464648437038018D+03 -.163583289094770D+03 0.662359772658407D+03
 0.000000000000000D+00 0.000000000000000D+00 0.000000000000000D+00 0.000000000000000D+00
 0.896741336278996D+03 0.000000000000000D+00 0.000000000000000D+00 0.896741336278996D+03
 0.896741336278996D+03 -.000000000000000D+00 -.000000000000000D+00 -.896741336278996D+03
 0.619005383497838D+03 -.483994754474490D+03 0.130167226486764D+03 -.341098571661077D+03
 0.294970095794491D+03 0.320697489305320D+02 -.727786444596860D+02 -.284046048251255D+03
 0.774839848421665D+03 0.468593920021256D+03 -.156768425913722D+03 0.596841846268972D+03
 0.104667344843998D+03 -.166689144772973D+02 0.993798438866437D+02 0.283027736433592D+02
0.956323006076D-02 0.000000000000D+00 0.000000000000D+00 0.395086638281D-04 0.000000000000D+00  6 -2 2 25 1 -1 21 0 0.65212594D-01 0.29186108D+00 0.27839609D+06 0.27839609D+06 0.27839609D+06 0.10869615D+01  1  2  2  3  6  4        1 0.209165862934D-01 0.100000000000D+01
0.328469628170D-02 0.000000000000D+00 -.367253214896D-04 0.395086638281D-04 0.000000000000D+00  6 -2 2 25 1 -1 21 2 0.65212594D-01 0.29186108D+00 0.27839609D+06 0.27839609D+06 0.27839609D+06 0.10869615D+01  1  2  3  3  6  4        1 0.848808484362D-02 0.100000000000D+01
-.655379882471D-02 0.000000000000D+00 0.000000000000D+00 0.395086638281D-04 0.000000000000D+00  6 -2 2 25 1 -1 21 2 0.65212594D-01 0.29186108D+00 0.27839609D+06 0.27839609D+06 0.27839609D+06 0.10869615D+01  1  2 15  3  6  4        1 -.169358734267D-01 0.100000000000D+01
-.143911409591D-02 0.000000000000D+00 0.000000000000D+00 0.395086638281D-04 0.000000000000D+00  6 -2 2 25 1 -1 21 2 0.65212594D-01 0.29186108D+00 0.27839609D+06 0.27839609D+06 0.27839609D+06 0.10869615D+01  1  2  4  3  6  4        1 -.371885906584D-02 0.100000000000D+01
  </mgrwgt>
  </event>
  <event>
  5     66 0.17652913E-05 0.24868179E+02 0.75467711E-02 0.89130161E-01
       -2 -1    0    0    0  501 0.00000000E+00 0.00000000E+00 0.12969363E+04 0.12969364E+04 0.32000000E+00 0.0000E+00 0.9000E+01
        2 -1    0    0  502    0 0.00000000E+00 0.00000000E+00 -.65841556E+03 0.65841564E+03 0.32000000E+00 0.0000E+00 0.9000E+01
       25  1    1    2    0    0 -.48447592E+03 -.33448981E+03 -.72951620E+02 0.60625679E+03 0.12500000E+03 0.0000E+00 0.9000E+01
        1  1    1    2  502    0 0.14957042E+02 -.19866484E+02 -.23413773E+03 0.23545481E+03 0.32000000E+00 0.0000E+00 0.9000E+01
       -1  1    1    2    0  501 0.46951888E+03 0.35435630E+03 0.94561012E+03 0.11136404E+04 0.32000000E+00 0.0000E+00 0.9000E+01
#aMCatNLO 1  0  0  1  2 0.49157647D+02 0.00000000D+00  -5  6  0 0.00000000D+00 0.00000000D+00 0.00000000D+00 0.00000000D+00 0.00000000D+00
  <mgrwgt>
 0.4655248592D-02    7    4    0
 0.924079636065467D+03 0.000000000000000D+00 0.000000000000000D+00 0.924079636065467D+03
 0.924079636065467D+03 0.000000000000000D+00 0.000000000000000D+00 -.924079636065467D+03
 0.666615213937440D+03 -.484474558133912D+03 -.334487874524960D+03 -.286623634352759D+03
 0.330015496030818D+03 0.149577028589933D+02 -.198668934951060D+02 -.329077196548930D+03
 0.851528562162676D+03 0.469516855274919D+03 0.354354768020066D+03 0.615700830901689D+03
 0.000000000000000D+00 0.000000000000000D+00 0.000000000000000D+00 0.000000000000000D+00
 0.147229868584147D+04 0.000000000000000D+00 0.000000000000000D+00 0.147229868584147D+04
 0.103176738884861D+04 0.000000000000000D+00 0.000000000000000D+00 -.103176738884861D+04
 0.810252164819504D+03 -.644012302325654D+03 -.379445143964605D+03 -.286623634352759D+03
 0.336387399402625D+03 -.570300843922774D+02 -.401528412764003D+02 -.329077196548930D+03
 0.748672199690072D+03 0.296656093725179D+03 0.305643111277611D+03 0.615700830901689D+03
 0.608754310777877D+03 0.404386292992752D+03 0.113954873963394D+03 0.440531296992864D+03
 0.924079636065467D+03 0.000000000000000D+00 0.000000000000000D+00 0.924079636065467D+03
 0.924079636065467D+03 0.000000000000000D+00 0.000000000000000D+00 -.924079636065467D+03
 0.666615213937440D+03 -.484474558133912D+03 -.334487874524960D+03 -.286623634352759D+03
 0.330015496030818D+03 0.149577028589933D+02 -.198668934951060D+02 -.329077196548930D+03
 0.000000000000000D+00 0.000000000000000D+00 0.000000000000000D+00 0.000000000000000D+00
 0.851528562162676D+03 0.469516855274919D+03 0.354354768020066D+03 0.615700830901689D+03
 0.147229868584147D+04 0.000000000000000D+00 0.000000000000000D+00 0.147229868584147D+04
 0.103176738884861D+04 0.000000000000000D+00 0.000000000000000D+00 -.103176738884861D+04
 0.810252164819504D+03 -.644012302325654D+03 -.379445143964605D+03 -.286623634352759D+03
 0.336387399402625D+03 -.570300843922774D+02 -.401528412764003D+02 -.329077196548930D+03
 0.608754310777877D+03 0.404386292992752D+03 0.113954873963394D+03 0.440531296992864D+03
 0.748672199690072D+03 0.296656093725179D+03 0.305643111277611D+03 0.615700830901689D+03
0.302725360344D-02 0.000000000000D+00 0.000000000000D+00 0.315081359922D-04 0.000000000000D+00  6 -2 2 25 1 -1 21 0 0.19952868D+00 0.10129471D+00 0.36902383D+06 0.36902383D+06 0.36902383D+06 0.10779603D+01  1  2  2  1  6  1       -2 0.208103134010D-02 0.100000000000D+01
0.167235998687D-02 0.000000000000D+00 -.116254509314D-04 0.315081359922D-04 0.000000000000D+00  6 -2 2 25 1 -1 21 2 0.19952868D+00 0.10129471D+00 0.36902383D+06 0.36902383D+06 0.36902383D+06 0.10779603D+01  1  2  3  1  6  1       -2 0.133587275486D-02 0.100000000000D+01
-.182504452199D-02 0.000000000000D+00 0.000000000000D+00 0.315081359922D-04 0.000000000000D+00  6 -2 2 25 1 -1 21 2 0.19952868D+00 0.10129471D+00 0.36902383D+06 0.36902383D+06 0.36902383D+06 0.10779603D+01  1  2 15  1  6  1       -2 -.145783639436D-02 0.100000000000D+01
-.100535809205D-02 0.000000000000D+00 0.000000000000D+00 0.315081359922D-04 0.000000000000D+00  6 -2 2 25 1 -1 21 2 0.19952868D+00 0.10129471D+00 0.36902383D+06 0.36902383D+06 0.36902383D+06 0.10779603D+01  1  2  4  1  6  1       -2 -.803074992583D-03 0.100000000000D+01
-.466070116782D-02 0.000000000000D+00 -.196073267160D-02 0.315081359922D-04 0.000000000000D+00  6 -2 2 25 1 -1 21 2 0.33108958D+00 0.10129471D+00 0.36902383D+06 0.36902383D+06 0.36902383D+06 0.10779603D+01  1  2  5  1  6  1       -2 -.515971967190D-03 0.100000000000D+01
0.519962904492D-02 0.000000000000D+00 0.173362674886D-02 0.315081359922D-04 0.000000000000D+00  6 -2 2 25 1 -1 21 2 0.19952868D+00 0.10129471D+00 0.36902383D+06 0.36902383D+06 0.36902383D+06 0.10779603D+01  1  2  6  1  6  1       -2 0.415343755593D-02 0.100000000000D+01
-.175753339164D-03 0.000000000000D+00 -.111679971656D-03 0.315081359922D-04 0.000000000000D+00  6 21 2 25 1 2 -1 2 0.33108958D+00 0.10129471D+00 0.36902383D+06 0.36902383D+06 0.36902383D+06 0.10779603D+01  3  4  5  5  5  1       -2 -.138209704712D-03 0.100000000000D+01
  </mgrwgt>
  </event>
  <event>
  6     66 -.17652913E-05 0.12099991E+03 0.75467711E-02 0.93199134E-01
       -2 -1    0    0    0  501 0.00000000E+00 0.00000000E+00 0.89783110E+03 0.89783115E+03 0.32000000E+00 0.0000E+00 0.9000E+01
        2 -1    0    0  502    0 -.00000000E+00 -.00000000E+00 -.27050935E+04 0.27050935E+04 0.32000000E+00 0.0000E+00 0.9000E+01
       25  1    1    2    0    0 -.16614044E+03 0.49075010E+03 -.41558284E+03 0.67584939E+03 0.12500000E+03 0.0000E+00 0.9000E+01
        1  1    1    2  503    0 0.20198936E+03 -.28054514E+03 -.16341208E+04 0.16702863E+04 0.32000000E+00 0.0000E+00 0.9000E+01
       -1  1    1    2    0  501 -.90258284E+02 -.10030467E+03 0.73597749E+03 0.74824498E+03 0.32000000E+00 0.0000E+00 0.9000E+01
       21  1    1    2  502  503 0.54409366E+02 -.10990029E+03 -.49353623E+03 0.50854402E+03 0.75000000E+00 0.0000E+00 0.9000E+01
#aMCatNLO 2  0  0  4  2 0.19823671D+02 0.00000000D+00  -5  6  0 0.00000000D+00 0.00000000D+00 0.00000000D+00 0.00000000D+00 0.00000000D+00
  <mgrwgt>
 -.5021130307D-02    3    2    0
 0.155843421144057D+04 0.000000000000000D+00 0.000000000000000D+00 0.155843421144057D+04
 0.155843421144057D+04 -.000000000000000D+00 -.000000000000000D+00 -.155843421144057D+04
 0.540314891133204D+03 -.166179681736719D+03 0.490808526569971D+03 -.883543162747785D+02
 0.128457542977260D+04 0.256507164901448D+03 -.390612633721611D+03 -.119656169063978D+04
 0.129197810197535D+04 -.903274831647290D+02 -.100195892848360D+03 0.128491600691456D+04
 0.000000000000000D+00 0.000000000000000D+00 -.000000000000000D+00 0.000000000000000D+00
 0.155843421144057D+04 0.000000000000000D+00 0.000000000000000D+00 0.155843421144057D+04
 0.155843421144057D+04 -.000000000000000D+00 -.000000000000000D+00 -.155843421144057D+04
 0.540287544101875D+03 -.166150193114691D+03 0.490763620891334D+03 -.884918756113447D+02
 0.983206980117698D+03 0.201990808981906D+03 -.280536548062820D+03 -.920431922545060D+03
 0.129165441143974D+04 -.902569782684204D+02 -.100303258672811D+03 0.128458711373157D+04
 0.301719487221838D+03 0.544163624012058D+02 -.109923814155703D+03 -.275663315575163D+03
-.709607627385D-09 0.000000000000D+00 0.000000000000D+00 0.122009944716D-03 0.000000000000D+00  6 -2 2 25 1 -1 21 2 0.13812787D+00 0.41616824D+00 0.32277723D+06 0.32277723D+06 0.32277723D+06 0.10822083D+01  1  2 13  3  6  4        1 -.104712009460D-09 0.100000000000D+01
-.167922158151D+00 0.000000000000D+00 0.000000000000D+00 0.122009944716D-03 0.000000000000D+00  6 -2 2 25 1 -1 21 2 0.13812787D+00 0.41616824D+00 0.32277723D+06 0.32277723D+06 0.32277723D+06 0.10822083D+01  1  2 13  3  6  4        1 -.247791398150D-01 0.100000000000D+01
0.133895189246D+00 0.000000000000D+00 0.000000000000D+00 0.122009944716D-03 0.925152902717D-06  6 -2 2 25 1 -1 21 2 0.13812787D+00 0.41616824D+00 0.32277723D+06 0.32277723D+06 0.32277723D+06 0.10822083D+01  1  2  1  3  6  4        1 0.197580096124D-01 0.100000000000D+01
  </mgrwgt>
  </event>
  <event>
  5     66 0.17652913E-05 0.76887422E+02 0.75467711E-02 0.89596251E-01
       -2 -1    0    0    0  501 0.00000000E+00 0.00000000E+00 0.46726792E+03 0.46726803E+03 0.32000000E+00 0.0000E+00 0.9000E+01
        2 -1    0    0  502    0 0.00000000E+00 0.00000000E+00 -.25622703E+04 0.25622703E+04 0.32000000E+00 0.0000E+00 0.9000E+01
       25  1    1    2    0    0 -.75266469E+03 0.45374544E+02 -.43028733E+03 0.87711754E+03 0.12500000E+03 0.0000E+00 0.9000E+01
        1  1    1    2  502    0 0.71844130E+02 0.27358405E+02 -.14248560E+04 0.14269284E+04 0.32000000E+00 0.0000E+00 0.9000E+01
       -1  1    1    2    0  501 0.68082056E+03 -.72732950E+02 -.23985906E+03 0.72549238E+03 0.32000000E+00 0.0000E+00 0.9000E+01
#aMCatNLO 1  0  0  2  2 0.88408361D+02 0.00000000D+00  -5  6  0 0.00000000D+00 0.00000000D+00 0.00000000D+00 0.00000000D+00 0.00000000D+00
  <mgrwgt>
 0.1214179465D-02    7    2    0
 0.109419692385531D+04 0.000000000000000D+00 0.000000000000000D+00 0.109419692385531D+04
 0.109419692385531D+04 0.000000000000000D+00 0.000000000000000D+00 -.109419692385531D+04
 0.802310847353982D+03 -.752604617563412D+03 0.453636554315060D+02 0.244143654781331D+03
 0.611438527866811D+03 0.718540650670993D+02 0.273618151877487D+02 -.606585029293419D+03
 0.774644472489824D+03 0.680750552496313D+03 -.727254706192546D+02 0.362441374512087D+03
 0.000000000000000D+00 0.000000000000000D+00 -.000000000000000D+00 -.000000000000000D+00
 0.109789940120839D+04 0.000000000000000D+00 0.000000000000000D+00 0.109789940120839D+04
 0.179048020536959D+04 0.000000000000000D+00 0.000000000000000D+00 -.179048020536959D+04
 0.832603737473562D+03 -.784209398275229D+03 0.548951650126150D+02 0.244143654781331D+03
 0.609477267036013D+03 0.482523574772390D+02 0.344797225725379D+02 -.606585029293419D+03
 0.748097908484888D+03 0.651314189595206D+03 -.638479220742019D+02 0.362441374512087D+03
 0.698200693583516D+03 0.846428512027844D+02 -.255269655109509D+02 -.692580804161196D+03
0.572877208657D-04 0.000000000000D+00 0.000000000000D+00 0.345360575592D-05 0.000000000000D+00  6 -2 2 25 1 -1 21 0 0.71887382D-01 0.39419544D+00 0.58199638D+06 0.58199638D+06 0.58199638D+06 0.10638804D+01  1  2  2  2  6  2        2 0.408146352875D-04 0.100000000000D+01
0.200325629196D-04 0.000000000000D+00 -.219999932328D-06 0.345360575592D-05 0.000000000000D+00  6 -2 2 25 1 -1 21 2 0.71887382D-01 0.39419544D+00 0.58199638D+06 0.58199638D+06 0.58199638D+06 0.10638804D+01  1  2  3  2  6  2        2 0.161538661880D-04 0.100000000000D+01
-.339322327605D-04 0.000000000000D+00 0.000000000000D+00 0.345360575592D-05 0.000000000000D+00  6 -2 2 25 1 -1 21 2 0.71887382D-01 0.39419544D+00 0.58199638D+06 0.58199638D+06 0.58199638D+06 0.10638804D+01  1  2 15  2  6  2        2 -.273622875750D-04 0.100000000000D+01
-.263650557343D-03 0.000000000000D+00 0.000000000000D+00 0.345360575592D-05 0.000000000000D+00  6 -2 2 25 1 -1 21 2 0.71887382D-01 0.39419544D+00 0.58199638D+06 0.58199638D+06 0.58199638D+06 0.10638804D+01  1  2  4  2  6  2        2 -.212602643046D-03 0.100000000000D+01
-.209483026128D-02 0.000000000000D+00 -.274753306842D-04 0.345360575592D-05 0.000000000000D+00  6 -2 2 25 1 -1 21 2 0.71887382D-01 0.64533363D+00 0.58199638D+06 0.58199638D+06 0.58199638D+06 0.10638804D+01  1  2  5  2  6  2        2 -.117536460399D-03 0.100000000000D+01
0.187853131924D-02 0.000000000000D+00 0.244450021838D-04 0.345360575592D-05 0.000000000000D+00  6 -2 2 25 1 -1 21 2 0.71887382D-01 0.39419544D+00 0.58199638D+06 0.58199638D+06 0.58199638D+06 0.10638804D+01  1  2  6  2  6  2        2 0.151481084485D-02 0.100000000000D+01
-.115569844970D-03 0.000000000000D+00 -.153178113037D-05 0.345360575592D-05 0.000000000000D+00  6 -2 21 25 1 -1 -2 2 0.71887382D-01 0.64533363D+00 0.58199638D+06 0.58199638D+06 0.58199638D+06 0.10638804D+01  1  2  5  6  6  2        2 -.984905857639D-07 0.100000000000D+01
  </mgrwgt>
  </event>
  <event>
  5     66 0.17652913E-05 0.31249822E+02 0.75467711E-02 0.93189801E-01
       -2 -1    0    0    0  501 0.00000000E+00 0.00000000E+00 0.86470730E+03 0.86470736E+03 0.32000000E+00 0.0000E+00 0.9000E+01
        2 -1    0    0  502    0 0.00000000E+00 0.00000000E+00 -.16321751E+04 0.16321751E+04 0.32000000E+00 0.0000E+00 0.9000E+01
       25  1    1    2    0    0 0.85292620E+02 -.49009164E+03 0.33649013E+03 0.61344540E+03 0.12500000E+03 0.0000E+00 0.9000E+01
        1  1    1    2  502    0 -.58900196E+02 0.47333669E+03 -.14549054E+04 0.15310999E+04 0.32000000E+00 0.0000E+00 0.9000E+01
       -1  1    1    2    0  501 -.26392424E+02 0.16754955E+02 0.35094749E+03 0.35233724E+03 0.32000000E+00 0.0000E+00 0.9000E+01
#aMCatNLO 1  0  0  2  2 0.88408361D+02 0.00000000D+00  -5  6  0 0.00000000D+00 0.00000000D+00 0.00000000D+00 0.00000000D+00 0.00000000D+00
  <mgrwgt>
 0.4225262084D-02    7    2    0
 0.118800414486464D+04 0.000000000000000D+00 0.000000000000000D+00 0.118800414486464D+04
 0.118800414486464D+04 0.000000000000000D+00 0.000000000000000D+00 -.118800414486464D+04
 0.753505529371057D+03 0.852913620753942D+02 -.490147869092946D+03 0.551929372992348D+03
 0.113906511393623D+04 -.589088944292979D+02 0.473399234453116D+03 -.103435595457409D+04
 0.483437646421999D+03 -.263824676460963D+02 0.167486346398300D+02 0.482426581581743D+03
 0.000000000000000D+00 -.000000000000000D+00 -.000000000000000D+00 -.000000000000000D+00
 0.119565912386274D+04 0.000000000000000D+00 0.000000000000000D+00 0.119565912386274D+04
 0.148478140353199D+04 0.000000000000000D+00 0.000000000000000D+00 -.148478140353199D+04
 0.736549396386913D+03 0.909417966343692D+02 -.462583581821829D+03 0.551929372992348D+03
 0.115695174040031D+04 -.502021731148920D+02 0.515872882275235D+03 -.103435595457409D+04
 0.484202265114111D+03 -.227130821071666D+02 0.346488502865865D+02 0.482426581581743D+03
 0.302737125493399D+03 -.180265414123106D+02 -.879381507399925D+02 -.289122279669255D+03
0.254240361629D-02 0.000000000000D+00 0.000000000000D+00 0.290327942872D-03 0.000000000000D+00  6 -2 2 25 1 -1 21 0 0.13303190D+00 0.25110387D+00 0.26075137D+06 0.26075137D+06 0.26075137D+06 0.10890861D+01  1  2  2  2  6  2        2 0.143968017126D-02 0.100000000000D+01
0.110111439111D-02 0.000000000000D+00 -.976349931678D-05 0.290327942872D-03 0.000000000000D+00  6 -2 2 25 1 -1 21 2 0.13303190D+00 0.25110387D+00 0.26075137D+06 0.26075137D+06 0.26075137D+06 0.10890861D+01  1  2  3  2  6  2        2 0.739568448595D-03 0.100000000000D+01
-.208931444549D-02 0.000000000000D+00 0.000000000000D+00 0.290327942872D-03 0.000000000000D+00  6 -2 2 25 1 -1 21 2 0.13303190D+00 0.25110387D+00 0.26075137D+06 0.26075137D+06 0.26075137D+06 0.10890861D+01  1  2 15  2  6  2        2 -.140329747351D-02 0.100000000000D+01
-.140179022699D-01 0.000000000000D+00 0.000000000000D+00 0.290327942872D-03 0.000000000000D+00  6 -2 2 25 1 -1 21 2 0.13303190D+00 0.25110387D+00 0.26075137D+06 0.26075137D+06 0.26075137D+06 0.10890861D+01  1  2  4  2  6  2        2 -.941518730303D-02 0.100000000000D+01
-.493363815934D-01 0.000000000000D+00 -.265597853804D-02 0.290327942872D-03 0.000000000000D+00  6 -2 2 25 1 -1 21 2 0.13303190D+00 0.31446839D+00 0.26075137D+06 0.26075137D+06 0.26075137D+06 0.10890861D+01  1  2  5  2  6  2        2 -.197704423188D-01 0.100000000000D+01
0.487602253983D-01 0.000000000000D+00 0.259012891279D-02 0.290327942872D-03 0.000000000000D+00  6 -2 2 25 1 -1 21 2 0.13303190D+00 0.25110387D+00 0.26075137D+06 0.26075137D+06 0.26075137D+06 0.10890861D+01  1  2  6  2  6  2        2 0.327500253763D-01 0.100000000000D+01
-.150653098990D-02 0.000000000000D+00 -.831147620408D-04 0.290327942872D-03 0.000000000000D+00  6 -2 21 25 1 -1 -2 2 0.13303190D+00 0.31446839D+00 0.26075137D+06 0.26075137D+06 0.26075137D+06 0.10890861D+01  1  2  5  6  6  2        2 -.115084816323D-03 0.100000000000D+01
  </mgrwgt>
  </event>
  <event>
  6     66 0.17652913E-05 0.75855533E+02 0.75467711E-02 0.94602239E-01
       21 -1    0    0  503  501 0.00000000E+00 0.00000000E+00 0.50424363E+03 0.50424419E+03 0.75000000E+00 0.0000E+00 0.9000E+01
        2 -1    0    0  502    0 0.00000000E+00 0.00000000E+00 -.19126817E+04 0.19126817E+04 0.32000000E+00 0.0000E+00 0.9000E+01
       25  1    1    2    0    0 -.32391937E+03 -.34009402E+03 -.42550205E+03 0.64596029E+03 0.12500000E+03 0.0000E+00 0.9000E+01
        1  1    1    2  502    0 0.11229577E+03 0.25546171E+02 -.12558665E+04 0.12611359E+04 0.32000000E+00 0.0000E+00 0.9000E+01
        2  1    1    2  503    0 0.75365725E+02 0.22526118E+02 0.14133229E+03 0.16174776E+03 0.32000000E+00 0.0000E+00 0.9000E+01
       -1  1    1    2    0  501 0.13625788E+03 0.29202173E+03 0.13159818E+03 0.34808201E+03 0.32000000E+00 0.0000E+00 0.9000E+01
#aMCatNLO 2  0  0  1  2 0.82046066D+01 0.00000000D+00  -5  6  0 0.00000000D+00 0.00000000D+00 0.00000000D+00 0.00000000D+00 0.00000000D+00
  <mgrwgt>
 0.3966281244D-02    1    2    0
 0.818207330371044D+03 0.000000000000000D+00 0.000000000000000D+00 0.818207330371044D+03
 0.818207330371044D+03 0.000000000000000D+00 0.000000000000000D+00 -.818207330371044D+03
 0.467634265583656D+03 -.301963043477013D+03 -.333508082621457D+03 0.254457373291446D+02
 0.554215275316740D+03 0.137683638681168D+03 0.331353797361224D+02 -.535816977748621D+03
 0.000000000000000D+00 0.000000000000000D+00 0.000000000000000D+00 0.000000000000000D+00
 0.614565119841693D+03 0.164279404795846D+03 0.300372702885335D+03 0.510371240419476D+03
 0.117110247667239D+04 0.000000000000000D+00 0.000000000000000D+00 0.117110247667239D+04
 0.823547147958233D+03 0.000000000000000D+00 0.000000000000000D+00 -.823547147958233D+03
 0.486672152828085D+03 -.323925844023485D+03 -.340072560439345D+03 0.254457373291446D+02
 0.548057987231820D+03 0.112315468305290D+03 0.255530683928818D+02 -.535816977748621D+03
 0.356345513545594D+03 0.753657251421689D+02 0.225261177361218D+02 0.347555328714158D+03
 0.603573971025124D+03 0.136244650576027D+03 0.291993374310342D+03 0.510371240419476D+03
0.232779203317D-03 0.000000000000D+00 0.000000000000D+00 0.983890461944D-05 0.882750129536D-09  6 21 2 25 1 2 -1 2 0.77575982D-01 0.29425874D+00 0.25103486D+06 0.25103486D+06 0.25103486D+06 0.10903242D+01  1  2  1  5  5  1       -2 0.396628124404D-02 0.100000000000D+01
  </mgrwgt>
  </event>
  <event>
  5     66 -.17652913E-05 0.47897954E+02 0.75467711E-02 0.92799705E-01
       -2 -1    0    0    0  501 0.00000000E+00 0.00000000E+00 0.20502823E+03 0.20502848E+03 0.32000000E+00 0.0000E+00 0.9000E+01
        2 -1    0    0  502    0 -.00000000E+00 -.00000000E+00 -.26407388E+04 0.26407388E+04 0.32000000E+00 0.0000E+00 0.9000E+01
       25  1    1    2    0    0 -.16434426E+03 -.55491605E+03 -.94091655E+03 0.11117058E+04 0.12500000E+03 0.0000E+00 0.9000E+01
        1  1    1    2  502    0 0.13070008E+03 0.52077615E+03 -.15618901E+04 0.16516026E+04 0.32000000E+00 0.0000E+00 0.9000E+01
       -1  1    1    2    0  501 0.33644177E+02 0.34139894E+02 0.67096147E+02 0.82458828E+02 0.32000000E+00 0.0000E+00 0.9000E+01
#aMCatNLO 1  0  0  4  2 0.29575420D+02 0.00000000D+00  -5  6  0 0.00000000D+00 0.00000000D+00 0.00000000D+00 0.00000000D+00 0.00000000D+00
  <mgrwgt>
 -.5507404573D-02    6    2    0
 0.735816802636401D+03 0.000000000000000D+00 0.000000000000000D+00 0.735816802636401D+03
 0.735816802636401D+03 -.000000000000000D+00 -.000000000000000D+00 -.735816802636401D+03
 0.592539973782145D+03 -.164358567737968D+03 -.555012301716140D+03 0.206452581631000D+02
 0.608779361667446D+03 0.130738188701914D+03 0.520896556236788D+03 -.286682079851219D+03
 0.270314269823212D+03 0.336203790360536D+02 0.341157454793519D+02 0.266036821688119D+03
 0.000000000000000D+00 0.000000000000000D+00 0.000000000000000D+00 -.000000000000000D+00
 0.735816802636401D+03 0.000000000000000D+00 0.000000000000000D+00 0.735816802636401D+03
 0.735816802636401D+03 -.000000000000000D+00 -.000000000000000D+00 -.735816802636401D+03
 0.583127387005439D+03 -.162049203487384D+03 -.545811165482197D+03 0.155812951920294D+02
 0.505919556974548D+03 0.161061899691711D+03 0.437816923806231D+03 -.195780499094953D+03
 0.268733643976190D+03 0.346792312445950D+02 0.383345011043857D+02 0.263714975589335D+03
 0.113853017316626D+03 -.336919274489219D+02 0.696597405715794D+02 -.835157716864113D+02
0.401647166674D-03 0.000000000000D+00 0.000000000000D+00 0.346702548491D-05 0.000000000000D+00  6 -2 2 25 1 -1 21 0 0.31542825D-01 0.40626752D+00 0.34640932D+06 0.34640932D+06 0.34640932D+06 0.10799602D+01  1  2  2  3  6  4        1 0.135456655740D-02 0.100000000000D+01
0.130172400079D-03 0.000000000000D+00 -.154243087616D-05 0.346702548491D-05 0.000000000000D+00  6 -2 2 25 1 -1 21 2 0.31542825D-01 0.40626752D+00 0.34640932D+06 0.34640932D+06 0.34640932D+06 0.10799602D+01  1  2  3  3  6  4        1 0.512023711618D-03 0.100000000000D+01
-.281126992542D-03 0.000000000000D+00 0.000000000000D+00 0.346702548491D-05 0.000000000000D+00  6 -2 2 25 1 -1 21 2 0.31542825D-01 0.40626752D+00 0.34640932D+06 0.34640932D+06 0.34640932D+06 0.10799602D+01  1  2 15  3  6  4        1 -.110579267241D-02 0.100000000000D+01
-.192546990045D-02 0.000000000000D+00 0.000000000000D+00 0.346702548491D-05 0.000000000000D+00  6 -2 2 25 1 -1 21 2 0.31542825D-01 0.40626752D+00 0.34640932D+06 0.34640932D+06 0.34640932D+06 0.10799602D+01  1  2  4  3  6  4        1 -.757369645519D-02 0.100000000000D+01
-.162584625474D-02 0.000000000000D+00 0.000000000000D+00 0.346702548491D-05 0.000000000000D+00  6 -2 2 25 1 -1 21 2 0.31542825D-01 0.40626752D+00 0.34640932D+06 0.34640932D+06 0.34640932D+06 0.10799602D+01  1  2  5  3  6  4        1 -.639514853663D-02 0.100000000000D+01
0.195774362694D-02 0.000000000000D+00 -.000000000000D+00 0.346702548491D-05 0.000000000000D+00  6 -2 2 25 1 -1 21 2 0.31542825D-01 0.40626752D+00 0.34640932D+06 0.34640932D+06 0.34640932D+06 0.10799602D+01  1  2  6  3  6  4        1 0.770064282181D-02 0.100000000000D+01
  </mgrwgt>
  </event>
  <event>
  6     66 -.17652913E-05 0.68770503E+02 0.75467711E-02 0.95586584E-01
       -2 -1    0    0    0  501 0.00000000E+00 0.00000000E+00 0.28310473E+03 0.28310491E+03 0.32000000E+00 0.0000E+00 0.9000E+01
        2 -1    0    0  502    0 -.00000000E+00 -.00000000E+00 -.22390544E+04 0.22390544E+04 0.32000000E+00 0.0000E+00 0.9000E+01
       25  1    1    2    0    0 0.18130972E+03 0.40932511E+03 -.33404458E+03 0.57239063E+03 0.12500000E+03 0.0000E+00 0.9000E+01
        1  1    1    2  503    0 0.61249428E+01 -.82839873E+02 -.76882055E+03 0.77329496E+03 0.32000000E+00 0.0000E+00 0.9000E+01
       -1  1    1    2    0  501 -.40175793E+02 -.10268880E+03 0.12247358E+03 0.16479977E+03 0.32000000E+00 0.0000E+00 0.9000E+01
       21  1    1    2  502  503 -.14725887E+03 -.22379643E+03 -.97555813E+03 0.10116740E+04 0.75000000E+00 0.0000E+00 0.9000E+01
#aMCatNLO 2  0  0  4  2 0.84068202D+02 0.00000000D+00  -5  6  0 0.00000000D+00 0.00000000D+00 0.00000000D+00 0.00000000D+00 0.00000000D+00
  <mgrwgt>
 -.1641312230D-01    2    2    0
 0.796170302388640D+03 0.000000000000000D+00 0.000000000000000D+00 0.796170302388640D+03
 0.796170302388640D+03 -.000000000000000D+00 -.000000000000000D+00 -.796170302388640D+03
 0.501615185805992D+03 0.182783971599116D+03 0.412524934362377D+03 0.180016646138487D+03
 0.675400374333452D+03 -.143829316212557D+03 -.312493242416541D+03 -.581228670053011D+03
 0.415325044637836D+03 -.389546553865593D+02 -.100031691945837D+03 0.401212023914524D+03
 0.000000000000000D+00 -.000000000000000D+00 0.000000000000000D+00 0.000000000000000D+00
 0.796170302388640D+03 0.000000000000000D+00 0.000000000000000D+00 0.796170302388640D+03
 0.796170302388640D+03 -.000000000000000D+00 -.000000000000000D+00 -.796170302388640D+03
 0.496372530203773D+03 0.181322831439727D+03 0.409350363015896D+03 0.174112032434091D+03
 0.280120221337377D+03 0.616930021282163D+01 -.827067555016319D+02 -.267560966382203D+03
 0.411367024757744D+03 -.401650039336052D+02 -.102661376573980D+03 0.396320884230174D+03
 0.404480828478385D+03 -.147327127718944D+03 -.223982230940284D+03 -.302871950282062D+03
-.444400087096D-08 0.000000000000D+00 0.000000000000D+00 0.159386281945D-04 0.000000000000D+00  6 -2 2 25 1 -1 21 2 0.43554589D-01 0.34446993D+00 0.21441592D+06 0.21441592D+06 0.21441592D+06 0.10955114D+01  1  2 13  3  6  4        1 -.172968854109D-07 0.100000000000D+01
-.421693566263D-02 0.000000000000D+00 0.000000000000D+00 0.159386281945D-04 0.000000000000D+00  6 -2 2 25 1 -1 21 2 0.43554589D-01 0.34446993D+00 0.21441592D+06 0.21441592D+06 0.21441592D+06 0.10955114D+01  1  2 13  3  6  4        1 -.164131050060D-01 0.100000000000D+01
  </mgrwgt>
  </event>
  <event>
  5     66 0.17652913E-05 0.72167571E+02 0.75467711E-02 0.91843313E-01
       -2 -1    0    0    0  501 0.00000000E+00 0.00000000E+00 0.73169384E+03 0.73169391E+03 0.32000000E+00 0.0000E+00 0.9000E+01
        2 -1    0    0  502    0 0.00000000E+00 0.00000000E+00 -.62602859E+03 0.62602867E+03 0.32000000E+00 0.0000E+00 0.9000E+01
       25  1    1    2    0    0 -.31224882E+03 0.35923685E+03 -.11501260E+03 0.50537445E+03 0.12500000E+03 0.0000E+00 0.9000E+01
        1  1    1    2  502    0 0.22478173E+02 0.68582878E+02 -.18294977E+03 0.19667130E+03 0.32000000E+00 0.0000E+00 0.9000E+01
       -1  1    1    2    0  501 0.28977064E+03 -.42781973E+03 0.40362762E+03 0.65567683E+03 0.32000000E+00 0.0000E+00 0.9000E+01
#aMCatNLO 1  0  0  2  1 0.15730711D+03 0.00000000D+00  -5  6  0 0.00000000D+00 0.00000000D+00 0.00000000D+00 0.00000000D+00 0.00000000D+00
  <mgrwgt>
 0.4614593657D-02    7    2    0
 0.676802308489429D+03 0.000000000000000D+00 0.000000000000000D+00 0.676802308489429D+03
 0.676802308489429D+03 0.000000000000000D+00 0.000000000000000D+00 -.676802308489429D+03
 0.515903261994289D+03 -.312249545826379D+03 0.359245675008813D+03 -.154835208706000D+03
 0.211531659574243D+03 0.224760029801774D+02 0.685783315478705D+02 -.198840349864857D+03
 0.626169695410326D+03 0.289773542846202D+03 -.427824006556683D+03 0.353675558570857D+03
 0.000000000000000D+00 0.000000000000000D+00 -.000000000000000D+00 -.000000000000000D+00
 0.712079569686835D+03 0.000000000000000D+00 0.000000000000000D+00 0.712079569686835D+03
 0.994959635549395D+03 0.000000000000000D+00 0.000000000000000D+00 -.994959635549395D+03
 0.578706122430904D+03 -.327203366833966D+03 0.433866098026222D+03 -.154835208706000D+03
 0.222365048313802D+03 0.165483964770172D+02 0.981574273871313D+02 -.198840349864857D+03
 0.565683371665431D+03 0.273491243711928D+03 -.346574401624334D+03 0.353675558570857D+03
 0.340284662826092D+03 0.371637266450202D+02 -.185449123789019D+03 -.282880065862560D+03
0.625052177093D-03 0.000000000000D+00 0.000000000000D+00 0.117078842095D-05 0.000000000000D+00  6 -2 2 25 1 -1 21 0 0.11256829D+00 0.96312102D-01 0.29214574D+06 0.29214574D+06 0.29214574D+06 0.10854053D+01  1  2  2  2  6  2        2 0.226695173034D-02 0.100000000000D+01
0.108498208939D-03 0.000000000000D+00 -.240036494006D-05 0.117078842095D-05 0.000000000000D+00  6 -2 2 25 1 -1 21 2 0.11256829D+00 0.96312102D-01 0.29214574D+06 0.29214574D+06 0.29214574D+06 0.10854053D+01  1  2  3  2  6  2        2 0.463588295952D-03 0.100000000000D+01
-.424308600734D-03 0.000000000000D+00 0.000000000000D+00 0.117078842095D-05 0.000000000000D+00  6 -2 2 25 1 -1 21 2 0.11256829D+00 0.96312102D-01 0.29214574D+06 0.29214574D+06 0.29214574D+06 0.10854053D+01  1  2 15  2  6  2        2 -.181297463889D-02 0.100000000000D+01
-.120738382022D-03 0.000000000000D+00 0.000000000000D+00 0.117078842095D-05 0.000000000000D+00  6 -2 2 25 1 -1 21 2 0.11256829D+00 0.96312102D-01 0.29214574D+06 0.29214574D+06 0.29214574D+06 0.10854053D+01  1  2  4  2  6  2        2 -.515887785842D-03 0.100000000000D+01
-.245905994599D-02 0.000000000000D+00 -.498961798682D-03 0.117078842095D-05 0.000000000000D+00  6 -2 2 25 1 -1 21 2 0.11256829D+00 0.14523555D+00 0.29214574D+06 0.29214574D+06 0.29214574D+06 0.10854053D+01  1  2  5  2  6  2        2 -.623079154878D-02 0.100000000000D+01
0.249028122519D-02 0.000000000000D+00 0.459637100417D-03 0.117078842095D-05 0.000000000000D+00  6 -2 2 25 1 -1 21 2 0.11256829D+00 0.96312102D-01 0.29214574D+06 0.29214574D+06 0.29214574D+06 0.10854053D+01  1  2  6  2  6  2        2 0.106404081774D-01 0.100000000000D+01
-.101711116788D-03 0.000000000000D+00 -.242192029234D-04 0.117078842095D-05 0.000000000000D+00  6 -2 21 25 1 -1 -2 2 0.11256829D+00 0.14523555D+00 0.29214574D+06 0.29214574D+06 0.29214574D+06 0.10854053D+01  1  2  5  6  6  2        2 -.196700573585D-03 0.100000000000D+01
  </mgrwgt>
  </event>
  <event>
  5     66 0.17652913E-05 0.16571466E+03 0.75467711E-02 0.90277525E-01
       -2 -1    0    0    0  501 0.00000000E+00 0.00000000E+00 0.18043763E+04 0.18043764E+04 0.32000000E+00 0.0000E+00 0.9000E+01
        2 -1    0    0  502    0 -.00000000E+00 -.00000000E+00 -.32089207E+04 0.32089207E+04 0.32000000E+00 0.0000E+00 0.9000E+01
       25  1    1    2    0    0 -.20066751E+03 0.71432845E+03 0.54777748E+03 0.93070820E+03 0.12500000E+03 0.0000E+00 0.9000E+01
        1  1    1    2  502    0 0.90463339E+02 -.38341306E+03 -.29755683E+04 0.30015323E+04 0.32000000E+00 0.0000E+00 0.9000E+01
       -1  1    1    2    0  501 0.11020417E+03 -.33091539E+03 0.10232464E+04 0.10810566E+04 0.32000000E+00 0.0000E+00 0.9000E+01
#aMCatNLO 1  0  0  4  2 0.39962685D+01 0.00000000D+00  -5  6  0 0.00000000D+00 0.00000000D+00 0.00000000D+00 0.00000000D+00 0.00000000D+00
  <mgrwgt>
 0.1412267889D-03    1    2    0
 0.240626280936826D+04 0.000000000000000D+00 0.000000000000000D+00 0.240626280936826D+04
 0.240626280936826D+04 -.000000000000000D+00 -.000000000000000D+00 -.240626280936826D+04
 0.112950789275303D+04 -.200663894603526D+03 0.714324782665117D+03 0.842399659344885D+03
 0.225835018792560D+04 0.904694316158511D+02 -.383438525342491D+03 -.222372114945419D+04
 0.142466753805788D+04 0.110194462987675D+03 -.330886257322627D+03 0.138132149010931D+04
 0.000000000000000D+00 0.000000000000000D+00 0.000000000000000D+00 -.000000000000000D+00
 0.240626280936826D+04 0.000000000000000D+00 0.000000000000000D+00 0.240626280936826D+04
 0.240626280936826D+04 -.000000000000000D+00 -.000000000000000D+00 -.240626280936826D+04
 0.112853626467329D+04 -.200618033709850D+03 0.714130409459408D+03 0.841272407439158D+03
 0.952259976612104D+01 0.838870222469932D+01 -.197332371238951D+01 -.405161385332778D+01
 0.142335055607097D+04 0.110252306256404D+03 -.331131415684589D+03 0.137989971373988D+04
 0.225111619822614D+04 0.819770252287471D+02 -.381025670062431D+03 -.221712050732571D+04
0.205317945288D-01 0.000000000000D+00 0.000000000000D+00 0.263934726178D-04 0.000000000000D+00  6 -2 2 25 1 -1 21 2 0.27759636D+00 0.49368012D+00 0.55886808D+06 0.55886808D+06 0.55886808D+06 0.10651107D+01  1  2 14  3  6  4        1 0.141226788852D-03 0.100000000000D+01
  </mgrwgt>
  </event>
  <event>
  5     66 0.17652913E-05 0.27873682E+02 0.75467711E-02 0.86714596E-01
       -2 -1    0    0    0  501 0.00000000E+00 0.00000000E+00 0.16005692E+04 0.16005693E+04 0.32000000E+00 0.0000E+00 0.9000E+01
        2 -1    0    0  502    0 0.00000000E+00 0.00000000E+00 -.30725375E+04 0.30725376E+04 0.32000000E+00 0.0000E+00 0.9000E+01
       25  1    1    2    0    0 -.35286131E+03 0.68713658E+03 -.88066914E+03 0.11780793E+04 0.12500000E+03 0.0000E+00 0.9000E+01
        1  1    1    2  502    0 0.26291109E+02 -.92548547E+01 -.19455663E+04 0.19457660E+04 0.32000000E+00 0.0000E+00 0.9000E+01
       -1  1    1    2    0  501 0.32657020E+03 -.67788173E+03 0.13542671E+04 0.15492615E+04 0.32000000E+00 0.0000E+00 0.9000E+01
#aMCatNLO 1  0  0  2  1 0.11645648D+03 0.00000000D+00  -5  6  0 0.00000000D+00 0.00000000D+00 0.00000000D+00 0.00000000D+00 0.00000000D+00
  <mgrwgt>
 0.3415015899D-02    7    2    0
 0.221761339892762D+04 0.000000000000000D+00 0.000000000000000D+00 0.221761339892762D+04
 0.221761339892762D+04 0.000000000000000D+00 0.000000000000000D+00 -.221761339892762D+04
 0.948954178262155D+03 -.352860722275827D+03 0.687133505925728D+03 -.536866732206793D+03
 0.140447273142586D+04 0.262922291811149D+02 -.925531474222123D+01 -.140419610850925D+04
 0.208179988816721D+04 0.326568493094712D+03 -.677878191183507D+03 0.194106284071605D+04
 0.000000000000000D+00 0.000000000000000D+00 0.000000000000000D+00 -.000000000000000D+00
 0.224464111439684D+04 0.000000000000000D+00 0.000000000000000D+00 0.224464111439684D+04
 0.433473702029542D+04 0.000000000000000D+00 0.000000000000000D+00 -.433473702029542D+04
 0.905967394407245D+03 -.380671382690603D+03 0.609930594395032D+03 -.536866732206793D+03
 0.140996277952817D+04 -.159043312598682D+02 -.126393752810168D+03 -.140419610850925D+04
 0.213669067353365D+04 0.263321070560526D+03 -.853454214680493D+03 0.194106284071605D+04
 0.212675728722319D+04 0.133254643389945D+03 0.369917373095629D+03 -.209009590589858D+04
0.269208256337D-01 0.000000000000D+00 0.000000000000D+00 0.118526060123D-02 0.000000000000D+00  6 -2 2 25 1 -1 21 0 0.24624142D+00 0.47269809D+00 0.61058754D+06 0.61058754D+06 0.61058754D+06 0.10624309D+01  1  2  2  2  6  2        2 0.316992484516D-03 0.100000000000D+01
0.221590008596D-01 0.000000000000D+00 -.103383058849D-03 0.118526060123D-02 0.000000000000D+00  6 -2 2 25 1 -1 21 2 0.24624142D+00 0.47269809D+00 0.61058754D+06 0.61058754D+06 0.61058754D+06 0.10624309D+01  1  2  3  2  6  2        2 0.294518217130D-03 0.100000000000D+01
-.189339805069D-01 0.000000000000D+00 0.000000000000D+00 0.118526060123D-02 0.000000000000D+00  6 -2 2 25 1 -1 21 2 0.24624142D+00 0.47269809D+00 0.61058754D+06 0.61058754D+06 0.61058754D+06 0.10624309D+01  1  2 15  2  6  2        2 -.251654044214D-03 0.100000000000D+01
-.528042699302D-03 0.000000000000D+00 0.000000000000D+00 0.118526060123D-02 0.000000000000D+00  6 -2 2 25 1 -1 21 2 0.24624142D+00 0.47269809D+00 0.61058754D+06 0.61058754D+06 0.61058754D+06 0.10624309D+01  1  2  4  2  6  2        2 -.701828549727D-05 0.100000000000D+01
-.275767163572D+00 0.000000000000D+00 -.982284257818D-02 0.118526060123D-02 0.000000000000D+00  6 -2 2 25 1 -1 21 2 0.24624142D+00 0.92426806D+00 0.61058754D+06 0.61058754D+06 0.61058754D+06 0.10624309D+01  1  2  5  2  6  2        2 -.582028806637D-06 0.100000000000D+01
0.230436318467D+00 0.000000000000D+00 0.796425340901D-02 0.118526060123D-02 0.000000000000D+00  6 -2 2 25 1 -1 21 2 0.24624142D+00 0.47269809D+00 0.61058754D+06 0.61058754D+06 0.61058754D+06 0.10624309D+01  1  2  6  2  6  2        2 0.306275964819D-02 0.100000000000D+01
-.194571482777D-01 0.000000000000D+00 -.713648638441D-03 0.118526060123D-02 0.000000000000D+00  6 -2 21 25 1 -1 -2 2 0.24624142D+00 0.92426806D+00 0.61058754D+06 0.61058754D+06 0.61058754D+06 0.10624309D+01  1  2  5  6  6  2        2 -.926341369363D-10 0.100000000000D+01
  </mgrwgt>
  </event>
  <event>
  5     66 0.17652913E-05 0.15179388E+03 0.75467711E-02 0.92623018E-01
       -2 -1    0    0    0  501 0.00000000E+00 0.00000000E+00 0.10955425E+04 0.10955425E+04 0.32000000E+00 0.0000E+00 0.9000E+01
        2 -1    0    0  502    0 0.00000000E+00 0.00000000E+00 -.16965334E+04 0.16965334E+04 0.32000000E+00 0.0000E+00 0.9000E+01
       25  1    1    2    0    0 0.31099341E+03 -.41422822E+03 -.92432125E+02 0.54080553E+03 0.12500000E+03 0.0000E+00 0.9000E+01
        1  1    1    2  502    0 0.10322263E+03 0.11127589E+03 -.12995539E+04 0.13083874E+04 0.32000000E+00 0.0000E+00 0.9000E+01
       -1  1    1    2    0  501 -.41421603E+03 0.30295233E+03 0.79099506E+03 0.94288299E+03 0.32000000E+00 0.0000E+00 0.9000E+01
#aMCatNLO 1  0  0  1  2 0.38165364D+02 0.00000000D+00  -5  6  0 0.00000000D+00 0.00000000D+00 0.00000000D+00 0.00000000D+00 0.00000000D+00
  <mgrwgt>
 0.7724880877D-02    7    4    0
 0.136331378143539D+04 0.000000000000000D+00 0.000000000000000D+00 0.136331378143539D+04
 0.136331378143539D+04 0.000000000000000D+00 0.000000000000000D+00 -.136331378143539D+04
 0.533404059103714D+03 0.310970662719014D+03 -.414228577433705D+03 0.246337742472548D+02
 0.105340014946992D+04 0.103230993713937D+03 0.111286761444053D+03 -.104240610779454D+04
 0.113982335429715D+04 -.414201656432951D+03 0.302941815989652D+03 0.101777233354729D+04
 0.000000000000000D+00 0.000000000000000D+00 -.000000000000000D+00 0.000000000000000D+00
 0.190818972789062D+04 0.000000000000000D+00 0.000000000000000D+00 0.190818972789062D+04
 0.147667105355084D+04 0.000000000000000D+00 0.000000000000000D+00 -.147667105355084D+04
 0.456707932690146D+03 0.273964699847819D+03 -.342481614376213D+03 0.246337742472548D+02
 0.107596777210823D+04 0.236447338785541D+02 0.265588176709694D+03 -.104240610779454D+04
 0.123044709667728D+04 -.502791776571312D+03 0.474699867494732D+03 0.101777233354729D+04
 0.621737979965814D+03 0.205182342844939D+03 -.397806429828213D+03 0.431518674339783D+03
 0.136331378143539D+04 0.000000000000000D+00 0.000000000000000D+00 0.136331378143539D+04
 0.136331378143539D+04 0.000000000000000D+00 0.000000000000000D+00 -.136331378143539D+04
 0.533404059103714D+03 0.310970662719014D+03 -.414228577433705D+03 0.246337742472548D+02
 0.105340014946992D+04 0.103230993713937D+03 0.111286761444053D+03 -.104240610779454D+04
 0.000000000000000D+00 0.000000000000000D+00 -.000000000000000D+00 0.000000000000000D+00
 0.113982335429715D+04 -.414201656432951D+03 0.302941815989652D+03 0.101777233354729D+04
 0.190818972789062D+04 0.000000000000000D+00 0.000000000000000D+00 0.190818972789062D+04
 0.147667105355084D+04 0.000000000000000D+00 0.000000000000000D+00 -.147667105355084D+04
 0.456707932690146D+03 0.273964699847819D+03 -.342481614376213D+03 0.246337742472548D+02
 0.107596777210823D+04 0.236447338785541D+02 0.265588176709694D+03 -.104240610779454D+04
 0.621737979965814D+03 0.205182342844939D+03 -.397806429828213D+03 0.431518674339783D+03
 0.123044709667728D+04 -.502791776571312D+03 0.474699867494732D+03 0.101777233354729D+04
0.183379598085D-01 0.000000000000D+00 0.000000000000D+00 0.276233087072D-04 0.000000000000D+00  6 -2 2 25 1 -1 21 0 0.16854500D+00 0.26100514D+00 0.35867659D+06 0.35867659D+06 0.35867659D+06 0.10788583D+01  1  2  2  1  6  1       -2 0.487064271025D-02 0.100000000000D+01
0.341699687212D-02 0.000000000000D+00 -.704225941602D-04 0.276233087072D-04 0.000000000000D+00  6 -2 2 25 1 -1 21 2 0.16854500D+00 0.26100514D+00 0.35867659D+06 0.35867659D+06 0.35867659D+06 0.10788583D+01  1  2  3  1  6  1       -2 0.105635192573D-02 0.100000000000D+01
-.157229938594D-01 0.000000000000D+00 0.000000000000D+00 0.276233087072D-04 0.000000000000D+00  6 -2 2 25 1 -1 21 2 0.16854500D+00 0.26100514D+00 0.35867659D+06 0.35867659D+06 0.35867659D+06 0.10788583D+01  1  2 15  1  6  1       -2 -.486070531032D-02 0.100000000000D+01
-.302384677033D-02 0.000000000000D+00 0.000000000000D+00 0.276233087072D-04 0.000000000000D+00  6 -2 2 25 1 -1 21 2 0.16854500D+00 0.26100514D+00 0.35867659D+06 0.35867659D+06 0.35867659D+06 0.10788583D+01  1  2  4  1  6  1       -2 -.934811028077D-03 0.100000000000D+01
-.328585036834D-01 0.000000000000D+00 -.149182451383D-01 0.276233087072D-04 0.000000000000D+00  6 -2 2 25 1 -1 21 2 0.24459679D+00 0.26100514D+00 0.35867659D+06 0.35867659D+06 0.35867659D+06 0.10788583D+01  1  2  5  1  6  1       -2 -.307392543135D-02 0.100000000000D+01
0.368099026209D-01 0.000000000000D+00 0.139403423862D-01 0.276233087072D-04 0.000000000000D+00  6 -2 2 25 1 -1 21 2 0.16854500D+00 0.26100514D+00 0.35867659D+06 0.35867659D+06 0.35867659D+06 0.10788583D+01  1  2  6  1  6  1       -2 0.113796450435D-01 0.100000000000D+01
-.102340861083D-02 0.000000000000D+00 -.674034722268D-03 0.276233087072D-04 0.000000000000D+00  6 21 2 25 1 2 -1 2 0.24459679D+00 0.26100514D+00 0.35867659D+06 0.35867659D+06 0.35867659D+06 0.10788583D+01  3  4  5  5  5  1       -2 -.712317032453D-03 0.100000000000D+01
  </mgrwgt>
  </event>
  <event>
  5     66 0.17652913E-05 0.12780241E+02 0.75467711E-02 0.95255455E-01
       -2 -1    0    0    0  501 0.00000000E+00 0.00000000E+00 0.70682354E+03 0.70682361E+03 0.32000000E+00 0.0000E+00 0.9000E+01
        2 -1    0    0  502    0 0.00000000E+00 0.00000000E+00 -.39199575E+03 0.39199588E+03 0.32000000E+00 0.0000E+00 0.9000E+01
       25  1    1    2    0    0 -.40492762E+03 0.20936353E+03 0.10014122E+03 0.48316946E+03 0.12500000E+03 0.0000E+00 0.9000E+01
        1  1    1    2  502    0 0.40351874E+03 -.22209369E+03 0.64706393E+02 0.46512364E+03 0.32000000E+00 0.0000E+00 0.9000E+01
       -1  1    1    2    0  501 0.14088762E+01 0.12730157E+02 0.14998017E+03 0.15052640E+03 0.32000000E+00 0.0000E+00 0.9000E+01
#aMCatNLO 1  0  0  4  2 0.22795161D+01 0.00000000D+00  -5  6  0 0.00000000D+00 0.00000000D+00 0.00000000D+00 0.00000000D+00 0.00000000D+00
  <mgrwgt>
 0.1156110321D-01    4    2    0
 0.526376230197119D+03 0.000000000000000D+00 0.000000000000000D+00 0.526376230197119D+03
 0.526376230197119D+03 -.000000000000000D+00 -.000000000000000D+00 -.526376230197119D+03
 0.474493524223003D+03 -.405048798256420D+03 0.209443615094738D+03 -.398490609254820D+02
 0.466240308891584D+03 0.403642962502735D+03 -.222146299558192D+03 -.714381274246279D+02
 0.112018627279651D+03 0.140583575368447D+01 0.127026844634540D+02 0.111287188350110D+03
 0.000000000000000D+00 0.000000000000000D+00 0.000000000000000D+00 0.000000000000000D+00
 0.526376230197119D+03 0.000000000000000D+00 0.000000000000000D+00 0.526376230197119D+03
 0.526376230197119D+03 -.000000000000000D+00 -.000000000000000D+00 -.526376230197119D+03
 0.432574282742847D+03 -.366028933306796D+03 0.187968897552101D+03 -.467549315669010D+02
 0.413687657540114D+03 0.314079627173596D+03 -.227817709770187D+03 -.143494100612492D+03
 0.110392689958089D+03 0.109734331209796D+02 0.743712418307899D+01 0.109593881880366D+03
 0.960978301531872D+02 0.409758730122196D+02 0.324116880350072D+02 0.806551502990270D+02
0.214506912139D-02 0.000000000000D+00 0.000000000000D+00 0.177654907653D-05 0.000000000000D+00  6 -2 2 25 1 -1 21 0 0.10874210D+00 0.60307054D-01 0.22388624D+06 0.22388624D+06 0.22388624D+06 0.10940820D+01  1  2  2  3  6  4        1 0.145562996118D-01 0.100000000000D+01
0.120812731757D-02 0.000000000000D+00 -.823763023581D-05 0.177654907653D-05 0.000000000000D+00  6 -2 2 25 1 -1 21 2 0.10874210D+00 0.60307054D-01 0.22388624D+06 0.22388624D+06 0.22388624D+06 0.10940820D+01  1  2  3  3  6  4        1 0.981345915238D-02 0.100000000000D+01
-.157106687329D-02 0.000000000000D+00 0.000000000000D+00 0.177654907653D-05 0.000000000000D+00  6 -2 2 25 1 -1 21 2 0.10874210D+00 0.60307054D-01 0.22388624D+06 0.22388624D+06 0.22388624D+06 0.10940820D+01  1  2 15  3  6  4        1 -.127615693831D-01 0.100000000000D+01
-.579674164536D-05 0.000000000000D+00 0.000000000000D+00 0.177654907653D-05 0.000000000000D+00  6 -2 2 25 1 -1 21 2 0.10874210D+00 0.60307054D-01 0.22388624D+06 0.22388624D+06 0.22388624D+06 0.10940820D+01  1  2  4  3  6  4        1 -.470861692526D-04 0.100000000000D+01
  </mgrwgt>
  </event>
  <event>
  6     66 -.17652913E-05 0.10699811E+03 0.75467711E-02 0.91886284E-01
       -2 -1    0    0    0  501 0.00000000E+00 0.00000000E+00 0.13281693E+04 0.13281693E+04 0.32000000E+00 0.0000E+00 0.9000E+01
        2 -1    0    0  502    0 0.00000000E+00 0.00000000E+00 -.10957602E+04 0.10957602E+04 0.32000000E+00 0.0000E+00 0.9000E+01
       25  1    1    2    0    0 -.24659662E+03 -.54550078E+03 -.93526635E+02 0.61867053E+03 0.12500000E+03 0.0000E+00 0.9000E+01
        1  1    1    2  503    0 -.55238747E+02 0.74634815E+02 -.59166454E+03 0.59890626E+03 0.32000000E+00 0.0000E+00 0.9000E+01
       -1  1    1    2    0  501 0.31831238E+03 0.45515230E+03 0.98742035E+03 0.11329102E+04 0.32000000E+00 0.0000E+00 0.9000E+01
       21  1    1    2  502  503 -.16477013E+02 0.15713666E+02 -.69820073E+02 0.73442606E+02 0.75000000E+00 0.0000E+00 0.9000E+01
#aMCatNLO 2  0  0  4  2 0.10695468D+02 0.00000000D+00  -5  6  0 0.00000000D+00 0.00000000D+00 0.00000000D+00 0.00000000D+00 0.00000000D+00
  <mgrwgt>
 -.2925173102D-02    6    2    0
 0.120638100839267D+04 0.000000000000000D+00 0.000000000000000D+00 0.120638100839267D+04
 0.120638100839267D+04 -.000000000000000D+00 -.000000000000000D+00 -.120638100839267D+04
 0.630513430762438D+03 -.246579594070245D+03 -.545527893705139D+03 -.153362340063027D+03
 0.738920658433056D+03 -.717682111585975D+02 0.904154587063440D+02 -.729848003459047D+03
 0.104332792758985D+04 0.318347805228843D+03 0.455112434998795D+03 0.883210343522074D+03
 0.000000000000000D+00 -.000000000000000D+00 0.000000000000000D+00 0.000000000000000D+00
 0.120638100839267D+04 0.000000000000000D+00 0.000000000000000D+00 0.120638100839267D+04
 0.120638100839267D+04 -.000000000000000D+00 -.000000000000000D+00 -.120638100839267D+04
 0.630549591040578D+03 -.246599951219843D+03 -.545502247238700D+03 -.153569362430596D+03
 0.658821814165408D+03 -.552423097390009D+02 0.746462597862430D+02 -.652244130625048D+03
 0.104304623415990D+04 0.318314125206359D+03 0.455154865966949D+03 0.882867833979624D+03
 0.803443774194572D+02 -.164718642475145D+02 0.157011214855082D+02 -.770543409239800D+02
-.188649964966D-08 0.000000000000D+00 0.000000000000D+00 0.166745200622D-04 0.000000000000D+00  6 -2 2 25 1 -1 21 2 0.20433374D+00 0.16857850D+00 0.41126705D+06 0.41126705D+06 0.41126705D+06 0.10745590D+01  1  2 13  3  6  4        1 -.698114835247D-09 0.100000000000D+01
-.124556853847D-01 0.000000000000D+00 0.000000000000D+00 0.166745200622D-04 0.000000000000D+00  6 -2 2 25 1 -1 21 2 0.20433374D+00 0.16857850D+00 0.41126705D+06 0.41126705D+06 0.41126705D+06 0.10745590D+01  1  2 13  3  6  4        1 -.460932963958D-02 0.100000000000D+01
-.114957765408D-02 0.000000000000D+00 0.000000000000D+00 0.166745200622D-04 0.000000000000D+00  6 -2 2 25 1 -1 21 2 0.20433374D+00 0.16857850D+00 0.41114863D+06 0.41114863D+06 0.41114863D+06 0.10745680D+01  1  2  8  3  6  4        1 -.425425988620D-03 0.100000000000D+01
-.398594119240D-02 0.000000000000D+00 0.000000000000D+00 0.166745200622D-04 0.000000000000D+00  6 -2 2 25 1 -1 21 2 0.20433374D+00 0.16857850D+00 0.41114863D+06 0.41114863D+06 0.41114863D+06 0.10745680D+01  1  2  9  3  6  4        1 -.147508345029D-02 0.100000000000D+01
0.444274783015D-02 0.000000000000D+00 0.000000000000D+00 0.166745200622D-04 0.000000000000D+00  6 -2 2 25 1 -1 21 2 0.20433374D+00 0.16857850D+00 0.41114863D+06 0.41114863D+06 0.41114863D+06 0.10745680D+01  1  2 10  3  6  4        1 0.164413459250D-02 0.100000000000D+01
0.524385517694D-02 0.000000000000D+00 0.000000000000D+00 0.166745200622D-04 0.196853697550D-06  6 -2 2 25 1 -1 21 2 0.20433374D+00 0.16857850D+00 0.41126705D+06 0.41126705D+06 0.41126705D+06 0.10745590D+01  1  2  1  3  6  4        1 0.194053208203D-02 0.100000000000D+01
  </mgrwgt>
  </event>
  <event>
  6     66 0.17652913E-05 0.31456189E+02 0.75467711E-02 0.94254216E-01
       -2 -1    0    0    0  501 0.00000000E+00 0.00000000E+00 0.17268576E+03 0.17268606E+03 0.32000000E+00 0.0000E+00 0.9000E+01
        2 -1    0    0  502    0 -.00000000E+00 -.00000000E+00 -.17382986E+04 0.17382986E+04 0.32000000E+00 0.0000E+00 0.9000E+01
       25  1    1    2    0    0 0.32275223E+03 0.38444909E+03 -.10682738E+04 0.11869305E+04 0.12500000E+03 0.0000E+00 0.9000E+01
        1  1    1    2  502    0 -.24978920E+03 -.30492574E+03 -.43483533E+03 0.58690393E+03 0.32000000E+00 0.0000E+00 0.9000E+01
       -1  1    1    2    0  503 -.49868546E+02 -.84361157E+02 -.55004833E+02 0.11238021E+03 0.32000000E+00 0.0000E+00 0.9000E+01
       21  1    1    2  503  501 -.23094482E+02 0.48378106E+01 -.74988603E+01 0.24770041E+02 0.75000000E+00 0.0000E+00 0.9000E+01
#aMCatNLO 2  0  0  5  1 0.15727447D+02 0.00000000D+00  -5  6  0 0.00000000D+00 0.00000000D+00 0.00000000D+00 0.00000000D+00 0.00000000D+00
  <mgrwgt>
 0.8751712008D-01    1    2    0
 0.547886603698681D+03 0.000000000000000D+00 0.000000000000000D+00 0.547886603698681D+03
 0.547886603698681D+03 -.000000000000000D+00 -.000000000000000D+00 -.547886603698681D+03
 0.548803498554313D+03 0.325838606875860D+03 0.387845494057406D+03 -.170192112138075D+03
 0.399342041473066D+03 -.248119921142080D+03 -.303138895610305D+03 0.775717782991286D+02
 0.147627667369983D+03 -.777186857337805D+02 -.847065984471012D+02 0.926203338389465D+02
 0.000000000000000D+00 0.000000000000000D+00 0.000000000000000D+00 0.000000000000000D+00
 0.547886603698681D+03 0.000000000000000D+00 0.000000000000000D+00 0.547886603698681D+03
 0.547886603698681D+03 -.000000000000000D+00 -.000000000000000D+00 -.547886603698681D+03
 0.543651865923068D+03 0.322864060341873D+03 0.384603497407079D+03 -.166647231130422D+03
 0.403017296196789D+03 -.250304591806423D+03 -.305519996357911D+03 0.801753339865312D+02
 0.116599815934231D+03 -.494435894615679D+02 -.838921746681628D+02 0.641322973742478D+02
 0.325042293432745D+02 -.231158790738817D+02 0.480867361899473D+01 0.223395997696433D+02
0.498006962077D-02 0.000000000000D+00 0.000000000000D+00 0.690843432985D-07 0.466603110396D-07  6 -2 2 25 1 -1 21 2 0.26567065D-01 0.26743058D+00 0.26699518D+06 0.26699518D+06 0.26699518D+06 0.10883168D+01  1  2  1  4  6  5       -1 0.875171200763D-01 0.100000000000D+01
  </mgrwgt>
  </event>
  <event>
  5     66 0.17652913E-05 0.70015939E+02 0.75467711E-02 0.90792054E-01
       -2 -1    0    0    0  501 0.00000000E+00 0.00000000E+00 0.67184335E+03 0.67184342E+03 0.32000000E+00 0.0000E+00 0.9000E+01
        2 -1    0    0  502    0 0.00000000E+00 0.00000000E+00 -.76148752E+03 0.76148759E+03 0.32000000E+00 0.0000E+00 0.9000E+01
       25  1    1    2    0    0 -.13958204E+03 -.44183999E+03 -.93040555E+02 0.48886324E+03 0.12500000E+03 0.0000E+00 0.9000E+01
        1  1    1    2  502    0 -.53287148E+01 0.69801663E+02 -.38270349E+03 0.38905364E+03 0.32000000E+00 0.0000E+00 0.9000E+01
       -1  1    1    2    0  501 0.14491075E+03 0.37203833E+03 0.38609987E+03 0.55541413E+03 0.32000000E+00 0.0000E+00 0.9000E+01
#aMCatNLO 1  0  0  2  1 0.28036543D+03 0.00000000D+00  -5  6  0 0.00000000D+00 0.00000000D+00 0.00000000D+00 0.00000000D+00 0.00000000D+00
  <mgrwgt>
 0.9825048353D-02    7    2    0
 0.715262488770864D+03 0.000000000000000D+00 0.000000000000000D+00 0.715262488770864D+03
 0.715262488770864D+03 0.000000000000000D+00 0.000000000000000D+00 -.715262488770864D+03
 0.483967887042323D+03 -.139572957277444D+03 -.441828587681680D+03 -.625044349806568D+02
 0.365893797407823D+03 -.532899533060299D+01 0.698128459830468D+02 -.359132342355894D+03
 0.580663293091583D+03 0.144901952608047D+03 0.372015741698633D+03 0.421636777336551D+03
 0.000000000000000D+00 0.000000000000000D+00 -.000000000000000D+00 -.000000000000000D+00
 0.874908676699100D+03 0.000000000000000D+00 0.000000000000000D+00 0.874908676699100D+03
 0.101703844209287D+04 0.000000000000000D+00 0.000000000000000D+00 -.101703844209287D+04
 0.531689774465915D+03 -.273657408123508D+03 -.433905329373227D+03 -.625044349806568D+02
 0.381460889785187D+03 -.103992793790705D+03 0.756430429668123D+02 -.359132342355894D+03
 0.568303200337987D+03 -.678157930491881D+01 0.380978957022271D+03 0.421636777336551D+03
 0.410493254202883D+03 0.384431781219132D+03 -.227166706158563D+02 -.142129765393772D+03
0.233116849951D-02 0.000000000000D+00 0.000000000000D+00 0.130888041932D-04 0.000000000000D+00  6 -2 2 25 1 -1 21 0 0.10336053D+00 0.11715194D+00 0.22523105D+06 0.22523105D+06 0.22523105D+06 0.10938844D+01  1  2  2  2  6  2        2 0.830697296383D-02 0.100000000000D+01
0.545387853126D-03 0.000000000000D+00 -.895230084888D-05 0.130888041932D-04 0.000000000000D+00  6 -2 2 25 1 -1 21 2 0.10336053D+00 0.11715194D+00 0.22523105D+06 0.22523105D+06 0.22523105D+06 0.10938844D+01  1  2  3  2  6  2        2 0.232550573113D-02 0.100000000000D+01
-.173698694454D-02 0.000000000000D+00 0.000000000000D+00 0.130888041932D-04 0.000000000000D+00  6 -2 2 25 1 -1 21 2 0.10336053D+00 0.11715194D+00 0.22523105D+06 0.22523105D+06 0.22523105D+06 0.10938844D+01  1  2 15  2  6  2        2 -.740642291771D-02 0.100000000000D+01
-.754857845219D-04 0.000000000000D+00 0.000000000000D+00 0.130888041932D-04 0.000000000000D+00  6 -2 2 25 1 -1 21 2 0.10336053D+00 0.11715194D+00 0.22523105D+06 0.22523105D+06 0.22523105D+06 0.10938844D+01  1  2  4  2  6  2        2 -.321867499466D-03 0.100000000000D+01
-.196021658907D-02 0.000000000000D+00 -.164388671237D-02 0.130888041932D-04 0.000000000000D+00  6 -2 2 25 1 -1 21 2 0.10336053D+00 0.19028739D+00 0.22523105D+06 0.22523105D+06 0.22523105D+06 0.10938844D+01  1  2  5  2  6  2        2 -.420950133615D-02 0.100000000000D+01
0.261944531321D-02 0.000000000000D+00 0.146779758091D-02 0.130888041932D-04 0.000000000000D+00  6 -2 2 25 1 -1 21 2 0.10336053D+00 0.11715194D+00 0.22523105D+06 0.22523105D+06 0.22523105D+06 0.10938844D+01  1  2  6  2  6  2        2 0.111691799759D-01 0.100000000000D+01
-.363021601723D-04 0.000000000000D+00 -.905009903116D-04 0.130888041932D-04 0.000000000000D+00  6 -2 21 25 1 -1 -2 2 0.10336053D+00 0.19028739D+00 0.22523105D+06 0.22523105D+06 0.22523105D+06 0.10938844D+01  1  2  5  6  6  2        2 -.388185647992D-04 0.100000000000D+01
  </mgrwgt>
  </event>
  <event>
  5     66 0.17652913E-05 0.24056168E+02 0.75467711E-02 0.93815552E-01
       -2 -1    0    0    0  501 0.00000000E+00 0.00000000E+00 0.44503138E+03 0.44503149E+03 0.32000000E+00 0.0000E+00 0.9000E+01
        2 -1    0    0  502    0 -.00000000E+00 -.00000000E+00 -.28015113E+04 0.28015113E+04 0.32000000E+00 0.0000E+00 0.9000E+01
       25  1    1    2    0    0 0.31863335E+03 0.37257411E+03 0.83285495E+02 0.51273789E+03 0.12500000E+03 0.0000E+00 0.9000E+01
        1  1    1    2  502    0 -.34202224E+03 -.36687241E+03 -.25612795E+04 0.26099287E+04 0.32000000E+00 0.0000E+00 0.9000E+01
       -1  1    1    2    0  501 0.23388895E+02 -.57016916E+01 0.12151411E+03 0.12387627E+03 0.32000000E+00 0.0000E+00 0.9000E+01
#aMCatNLO 1  0  0  5  5 0.31673558D+02 0.00000000D+00  -5  6  0 0.00000000D+00 0.00000000D+00 0.00000000D+00 0.00000000D+00 0.00000000D+00
  <mgrwgt>
 0.1873895247D-01    6    2    0
 0.111658436749600D+04 0.000000000000000D+00 0.000000000000000D+00 0.111658436749600D+04
 0.111658436749600D+04 -.000000000000000D+00 -.000000000000000D+00 -.111658436749600D+04
 0.833504624308733D+03 0.318697306924683D+03 0.372622142567786D+03 0.662336564120682D+03
 0.109157747602194D+04 -.342069034136206D+03 -.366924636093545D+03 -.969482580282478D+03
 0.308086634661318D+03 0.233717272115235D+02 -.569750647424157D+01 0.307146016161797D+03
 0.000000000000000D+00 0.000000000000000D+00 0.000000000000000D+00 0.000000000000000D+00
 0.111658436749600D+04 0.000000000000000D+00 0.000000000000000D+00 0.111658436749600D+04
 0.111658436749600D+04 -.000000000000000D+00 -.000000000000000D+00 -.111658436749600D+04
 0.835534485897734D+03 0.318886606008976D+03 0.372575995667792D+03 0.664824290384024D+03
 0.108863499099232D+04 -.341821758790142D+03 -.366984916314701D+03 -.966232942942831D+03
 0.173326741023174D+03 0.336334795224566D+02 -.270343197163900D+02 0.167869275826159D+03
 0.135672517078758D+03 -.106983267412906D+02 0.214432403632994D+02 0.133539376732648D+03
0.589668479082D-02 0.000000000000D+00 0.000000000000D+00 0.138831584754D-03 0.000000000000D+00  6 -2 2 25 1 -1 21 0 0.68466376D-01 0.43100175D+00 0.26610255D+06 0.26610255D+06 0.26610255D+06 0.10884255D+01  1  2  2  4  6  5       -1 0.355921063092D-02 0.100000000000D+01
0.244225220380D-02 0.000000000000D+00 -.226448222295D-04 0.138831584754D-03 0.000000000000D+00  6 -2 2 25 1 -1 21 2 0.68466376D-01 0.43100175D+00 0.26610255D+06 0.26610255D+06 0.26610255D+06 0.10884255D+01  1  2  3  4  6  5       -1 0.174635986451D-02 0.100000000000D+01
-.411535325743D-02 0.000000000000D+00 0.000000000000D+00 0.138831584754D-03 0.000000000000D+00  6 -2 2 25 1 -1 21 2 0.68466376D-01 0.43100175D+00 0.26610255D+06 0.26610255D+06 0.26610255D+06 0.10884255D+01  1  2 15  4  6  5       -1 -.294272956162D-02 0.100000000000D+01
-.214823985949D-02 0.000000000000D+00 0.000000000000D+00 0.138831584754D-03 0.000000000000D+00  6 -2 2 25 1 -1 21 2 0.68466376D-01 0.43100175D+00 0.26610255D+06 0.26610255D+06 0.26610255D+06 0.10884255D+01  1  2  4  4  6  5       -1 -.153612303599D-02 0.100000000000D+01
-.271766960091D-01 0.000000000000D+00 0.000000000000D+00 0.138831584754D-03 0.000000000000D+00  6 -2 2 25 1 -1 21 2 0.68466376D-01 0.43100175D+00 0.26610255D+06 0.26610255D+06 0.26610255D+06 0.10884255D+01  1  2  5  4  6  5       -1 -.194330016721D-01 0.100000000000D+01
0.522266271492D-01 0.000000000000D+00 -.000000000000D+00 0.138831584754D-03 0.000000000000D+00  6 -2 2 25 1 -1 21 2 0.68466376D-01 0.43100175D+00 0.26610255D+06 0.26610255D+06 0.26610255D+06 0.10884255D+01  1  2  6  4  6  5       -1 0.373452362415D-01 0.100000000000D+01
  </mgrwgt>
  </event>
  <event>
  5     66 0.17652913E-05 0.68367083E+02 0.75467711E-02 0.95201850E-01
       -2 -1    0    0    0  501 0.00000000E+00 0.00000000E+00 0.65499366E+03 0.65499374E+03 0.32000000E+00 0.0000E+00 0.9000E+01
        2 -1    0    0  502    0 0.00000000E+00 0.00000000E+00 -.23349716E+04 0.23349716E+04 0.32000000E+00 0.0000E+00 0.9000E+01
       25  1    1    2    0    0 0.80315383E+02 0.45908044E+03 -.10513194E+04 0.11567640E+04 0.12500000E+03 0.0000E+00 0.9000E+01
        1  1    1    2  502    0 0.41615422E+01 -.68239530E+02 -.11634448E+04 0.11654518E+04 0.32000000E+00 0.0000E+00 0.9000E+01
       -1  1    1    2    0  501 -.84476926E+02 -.39084091E+03 0.53478631E+03 0.66774955E+03 0.32000000E+00 0.0000E+00 0.9000E+01
#aMCatNLO 1  0  0  1  5 0.39317259D+02 0.00000000D+00  -5  6  0 0.00000000D+00 0.00000000D+00 0.00000000D+00 0.00000000D+00 0.00000000D+00
  <mgrwgt>
 0.2683015960D-01    7    4    0
 0.123668578534386D+04 0.000000000000000D+00 0.000000000000000D+00 0.123668578534386D+04
 0.123668578534386D+04 0.000000000000000D+00 0.000000000000000D+00 -.123668578534386D+04
 0.684281148696314D+03 0.803153182525046D+02 0.459080891345540D+03 -.485190555675325D+03
 0.618633569194017D+03 0.416153718551848D+01 -.682403079814238D+02 -.614844236297765D+03
 0.117045685279739D+04 -.844768554380231D+02 -.390840583364117D+03 0.110003479197309D+04
 0.000000000000000D+00 -.000000000000000D+00 0.000000000000000D+00 0.000000000000000D+00
 0.153821255255129D+04 0.000000000000000D+00 0.000000000000000D+00 0.153821255255129D+04
 0.130037822858192D+04 0.000000000000000D+00 0.000000000000000D+00 -.130037822858192D+04
 0.640819690629471D+03 0.861559003881863D+02 0.390118137761142D+03 -.485190555675325D+03
 0.629177126094913D+03 0.966145133493909D+01 -.133180619650814D+03 -.614844236297765D+03
 0.121690609961046D+04 -.739541925602937D+02 -.515087069455842D+03 0.110003479197309D+04
 0.351687864798368D+03 -.218631591628316D+02 0.258149551345515D+03 0.237834323969366D+03
 0.123668578534386D+04 0.000000000000000D+00 0.000000000000000D+00 0.123668578534386D+04
 0.123668578534386D+04 0.000000000000000D+00 0.000000000000000D+00 -.123668578534386D+04
 0.684281148696314D+03 0.803153182525046D+02 0.459080891345540D+03 -.485190555675325D+03
 0.618633569194017D+03 0.416153718551848D+01 -.682403079814238D+02 -.614844236297765D+03
 0.000000000000000D+00 -.000000000000000D+00 0.000000000000000D+00 0.000000000000000D+00
 0.117045685279739D+04 -.844768554380231D+02 -.390840583364117D+03 0.110003479197309D+04
 0.153821255255129D+04 0.000000000000000D+00 0.000000000000000D+00 0.153821255255129D+04
 0.130037822858192D+04 0.000000000000000D+00 0.000000000000000D+00 -.130037822858192D+04
 0.640819690629471D+03 0.861559003881863D+02 0.390118137761142D+03 -.485190555675325D+03
 0.629177126094913D+03 0.966145133493909D+01 -.133180619650814D+03 -.614844236297765D+03
 0.351687864798368D+03 -.218631591628316D+02 0.258149551345515D+03 0.237834323969366D+03
 0.121690609961046D+04 -.739541925602937D+02 -.515087069455842D+03 0.110003479197309D+04
0.281951712208D-01 0.000000000000D+00 0.000000000000D+00 0.262827578955D-03 0.000000000000D+00  6 -2 2 25 1 -1 21 0 0.10076826D+00 0.35922640D+00 0.22598538D+06 0.22598538D+06 0.22598538D+06 0.10937741D+01  1  2  2  1  6  1       -2 0.133926155827D-01 0.100000000000D+01
0.660951657714D-02 0.000000000000D+00 -.108276881447D-03 0.262827578955D-03 0.000000000000D+00  6 -2 2 25 1 -1 21 2 0.10076826D+00 0.35922640D+00 0.22598538D+06 0.22598538D+06 0.22598538D+06 0.10937741D+01  1  2  3  1  6  1       -2 0.375591377315D-02 0.100000000000D+01
-.166632777646D-01 0.000000000000D+00 0.000000000000D+00 0.262827578955D-03 0.000000000000D+00  6 -2 2 25 1 -1 21 2 0.10076826D+00 0.35922640D+00 0.22598538D+06 0.22598538D+06 0.22598538D+06 0.10937741D+01  1  2 15  1  6  1       -2 -.946904871653D-02 0.100000000000D+01
-.434833306024D-02 0.000000000000D+00 0.000000000000D+00 0.262827578955D-03 0.000000000000D+00  6 -2 2 25 1 -1 21 2 0.10076826D+00 0.35922640D+00 0.22598538D+06 0.22598538D+06 0.22598538D+06 0.10937741D+01  1  2  4  1  6  1       -2 -.247097708896D-02 0.100000000000D+01
-.955941952158D-01 0.000000000000D+00 -.337592559932D-01 0.262827578955D-03 0.000000000000D+00  6 -2 2 25 1 -1 21 2 0.12921195D+00 0.35922640D+00 0.22598538D+06 0.22598538D+06 0.22598538D+06 0.10937741D+01  1  2  5  1  6  1       -2 -.290727522074D-01 0.100000000000D+01
0.101841002954D+00 0.000000000000D+00 0.327420220590D-01 0.262827578955D-03 0.000000000000D+00  6 -2 2 25 1 -1 21 2 0.10076826D+00 0.35922640D+00 0.22598538D+06 0.22598538D+06 0.22598538D+06 0.10937741D+01  1  2  6  1  6  1       -2 0.578720124540D-01 0.100000000000D+01
-.266143516530D-02 0.000000000000D+00 -.113790047783D-02 0.262827578955D-03 0.000000000000D+00  6 21 2 25 1 2 -1 2 0.12921195D+00 0.35922640D+00 0.22598538D+06 0.22598538D+06 0.22598538D+06 0.10937741D+01  3  4  5  5  5  1       -2 -.717760419205D-02 0.100000000000D+01
  </mgrwgt>
  </event>
  <event>
  5     66 0.17652913E-05 0.18209524E+03 0.75467711E-02 0.92693617E-01
       -2 -1    0    0    0  501 0.00000000E+00 0.00000000E+00 0.58939131E+03 0.58939140E+03 0.32000000E+00 0.0000E+00 0.9000E+01
        2 -1    0    0  502    0 -.00000000E+00 -.00000000E+00 -.11239322E+04 0.11239322E+04 0.32000000E+00 0.0000E+00 0.9000E+01
       25  1    1    2    0    0 0.22212961E+03 -.45426855E+03 -.38282561E+03 0.64643787E+03 0.12500000E+03 0.0000E+00 0.9000E+01
        1  1    1    2  502    0 0.37113504E+02 0.42091704E+03 -.48505138E+03 0.64329115E+03 0.32000000E+00 0.0000E+00 0.9000E+01
       -1  1    1    2    0  501 -.25924311E+03 0.33351516E+02 0.33333612E+03 0.42359460E+03 0.32000000E+00 0.0000E+00 0.9000E+01
#aMCatNLO 1  0  0  4  2 0.50535406D+02 0.00000000D+00  -5  6  0 0.00000000D+00 0.00000000D+00 0.00000000D+00 0.00000000D+00 0.00000000D+00
  <mgrwgt>
 0.1757374378D-02    8    2    0
 0.813901698101346D+03 0.000000000000000D+00 0.000000000000000D+00 0.813901698101346D+03
 0.813901698101346D+03 -.000000000000000D+00 -.000000000000000D+00 -.813901698101346D+03
 0.554713876013126D+03 0.222114770608297D+03 -.454338032241231D+03 -.190589782985066D+03
 0.517862510474875D+03 0.370893804638738D+02 0.420991528617897D+03 -.299285967669907D+03
 0.555227009714692D+03 -.259204151072171D+03 0.333465036233344D+02 0.489875750654973D+03
 0.000000000000000D+00 0.000000000000000D+00 0.000000000000000D+00 0.000000000000000D+00
 0.813901698101346D+03 0.000000000000000D+00 0.000000000000000D+00 0.813901698101346D+03
 0.813901698101346D+03 -.000000000000000D+00 -.000000000000000D+00 -.813901698101346D+03
 0.551798977643351D+03 0.222596155071024D+03 -.448873967371941D+03 -.194474226805552D+03
 0.439426208528109D+03 0.216511741935059D+02 0.326676207469919D+03 -.293102840092862D+03
 0.551932221581914D+03 -.258722485405161D+03 0.388137603663969D+02 0.485989037707995D+03
 0.846459884493197D+02 0.144751561406311D+02 0.833839995356248D+02 0.158802919041943D+01
0.141454081532D-03 0.000000000000D+00 0.000000000000D+00 0.169089586440D-06 0.000000000000D+00  6 -2 2 25 1 -1 21 0 0.90675596D-01 0.17291265D+00 0.36295014D+06 0.36295014D+06 0.36295014D+06 0.10784840D+01  1  2  2  3  6  4        1 0.394606462868D-03 0.100000000000D+01
0.694625683034D-05 0.000000000000D+00 -.543220918800D-06 0.169089586440D-06 0.000000000000D+00  6 -2 2 25 1 -1 21 2 0.90675596D-01 0.17291265D+00 0.36295014D+06 0.36295014D+06 0.36295014D+06 0.10784840D+01  1  2  3  3  6  4        1 0.225386014530D-04 0.100000000000D+01
-.104460408515D-03 0.000000000000D+00 0.000000000000D+00 0.169089586440D-06 0.000000000000D+00  6 -2 2 25 1 -1 21 2 0.90675596D-01 0.17291265D+00 0.36295014D+06 0.36295014D+06 0.36295014D+06 0.10784840D+01  1  2 15  3  6  4        1 -.338943919387D-03 0.100000000000D+01
0.605688545897D-07 0.000000000000D+00 0.000000000000D+00 0.169089586440D-06 0.000000000000D+00  6 -2 2 25 1 -1 21 2 0.90675596D-01 0.17291265D+00 0.35404575D+06 0.35404575D+06 0.35404575D+06 0.10792694D+01  1  2 12  3  6  4        1 0.197039449401D-06 0.100000000000D+01
0.653868881627D-03 0.000000000000D+00 0.000000000000D+00 0.169089586440D-06 0.000000000000D+00  6 -2 2 25 1 -1 21 2 0.90675596D-01 0.17291265D+00 0.35404575D+06 0.35404575D+06 0.35404575D+06 0.10792694D+01  1  2 12  3  6  4        1 0.212713225781D-02 0.100000000000D+01
-.260496638857D-03 0.000000000000D+00 0.000000000000D+00 0.169089586440D-06 0.000000000000D+00  6 -2 2 25 1 -1 21 2 0.90675596D-01 0.17291265D+00 0.36295014D+06 0.36295014D+06 0.36295014D+06 0.10784840D+01  1  2  4  3  6  4        1 -.845236516075D-03 0.100000000000D+01
-.692961491779D-03 0.000000000000D+00 0.000000000000D+00 0.169089586440D-06 0.000000000000D+00  6 -2 2 25 1 -1 21 2 0.90675596D-01 0.17291265D+00 0.36295014D+06 0.36295014D+06 0.36295014D+06 0.10784840D+01  1  2  5  3  6  4        1 -.224846032431D-02 0.100000000000D+01
0.815339218165D-03 0.000000000000D+00 -.000000000000D+00 0.169089586440D-06 0.000000000000D+00  6 -2 2 25 1 -1 21 2 0.90675596D-01 0.17291265D+00 0.36295014D+06 0.36295014D+06 0.36295014D+06 0.10784840D+01  1  2  6  3  6  4        1 0.264554077628D-02 0.100000000000D+01
  </mgrwgt>
  </event>
  <event>
  6     66 0.17652913E-05 0.43051542E+02 0.75467711E-02 0.94927007E-01
       -2 -1    0    0    0  501 0.00000000E+00 0.00000000E+00 0.16419875E+04 0.16419876E+04 0.32000000E+00 0.0000E+00 0.9000E+01
        2 -1    0    0  502    0 0.00000000E+00 0.00000000E+00 -.25499567E+03 0.25499587E+03 0.32000000E+00 0.0000E+00 0.9000E+01
       25  1    1    2    0    0 -.17458147E+03 -.42459472E+03 0.56729245E+03 0.74040874E+03 0.12500000E+03 0.0000E+00 0.9000E+01
        1  1    1    2  503    0 0.39976418E+02 -.25701305E+01 -.88992617E+02 0.97593585E+02 0.32000000E+00 0.0000E+00 0.9000E+01
       -1  1    1    2    0  501 0.12941026E+03 0.43193005E+03 0.93161000E+03 0.10349917E+04 0.32000000E+00 0.0000E+00 0.9000E+01
       21  1    1    2  502  503 0.51947886E+01 -.47651985E+01 -.22917993E+02 0.23989370E+02 0.75000000E+00 0.0000E+00 0.9000E+01
#aMCatNLO 2  0  0  4  2 0.50990684D+01 0.00000000D+00  -5  6  0 0.00000000D+00 0.00000000D+00 0.00000000D+00 0.00000000D+00 0.00000000D+00
  <mgrwgt>
 0.1656150819D-01    6    2    0
 0.647070267603547D+03 0.000000000000000D+00 0.000000000000000D+00 0.647070267603547D+03
 0.647070267603547D+03 -.000000000000000D+00 -.000000000000000D+00 -.647070267603547D+03
 0.477342206921598D+03 -.174598599357923D+03 -.424613258522000D+03 0.380721984965685D+02
 0.298057773675251D+03 0.451992222796919D+02 -.733865381658956D+01 -.294519287846685D+03
 0.518740554610246D+03 0.129399377078231D+03 0.431951912338590D+03 0.256447089350116D+03
 0.000000000000000D+00 0.000000000000000D+00 0.000000000000000D+00 -.000000000000000D+00
 0.647070267603547D+03 0.000000000000000D+00 0.000000000000000D+00 0.647070267603547D+03
 0.647070267603547D+03 -.000000000000000D+00 -.000000000000000D+00 -.647070267603547D+03
 0.477330875693558D+03 -.174583294469536D+03 -.424615743460278D+03 0.379724714525853D+02
 0.238682833865902D+03 0.400301617799743D+02 -.256281283312744D+01 -.235288149553922D+03
 0.518688888533153D+03 0.129416008679274D+03 0.431949211992072D+03 0.256338717412550D+03
 0.594379371144831D+02 0.513712401028757D+01 -.477065569866686D+01 -.590230393112126D+02
-.178565341365D-06 0.000000000000D+00 0.000000000000D+00 0.660645075135D-05 0.000000000000D+00  6 -2 2 25 1 -1 21 2 0.25261348D+00 0.39230121D-01 0.23710112D+06 0.23710112D+06 0.23710112D+06 0.10921941D+01  1  2 13  3  6  4        1 -.195246833643D-06 0.100000000000D+01
-.248234157391D-01 0.000000000000D+00 0.000000000000D+00 0.660645075135D-05 0.000000000000D+00  6 -2 2 25 1 -1 21 2 0.25261348D+00 0.39230121D-01 0.23710112D+06 0.23710112D+06 0.23710112D+06 0.10921941D+01  1  2 13  3  6  4        1 -.271424078504D-01 0.100000000000D+01
-.364737194712D-03 0.000000000000D+00 0.000000000000D+00 0.660645075135D-05 0.000000000000D+00  6 -2 2 25 1 -1 21 2 0.25261348D+00 0.39230121D-01 0.23645373D+06 0.23645373D+06 0.23645373D+06 0.10922839D+01  1  2  8  3  6  4        1 -.398928626354D-03 0.100000000000D+01
-.215174350651D-03 0.000000000000D+00 0.000000000000D+00 0.660645075135D-05 0.000000000000D+00  6 -2 2 25 1 -1 21 2 0.25261348D+00 0.39230121D-01 0.23645373D+06 0.23645373D+06 0.23645373D+06 0.10922839D+01  1  2  9  3  6  4        1 -.235345364762D-03 0.100000000000D+01
0.262258651651D-03 0.000000000000D+00 0.000000000000D+00 0.660645075135D-05 0.000000000000D+00  6 -2 2 25 1 -1 21 2 0.25261348D+00 0.39230121D-01 0.23645373D+06 0.23645373D+06 0.23645373D+06 0.10922839D+01  1  2 10  3  6  4        1 0.286843472970D-03 0.100000000000D+01
0.402878676900D-01 0.000000000000D+00 0.000000000000D+00 0.660645075135D-05 0.180710359785D-05  6 -2 2 25 1 -1 21 2 0.25261348D+00 0.39230121D-01 0.23710112D+06 0.23710112D+06 0.23710112D+06 0.10921941D+01  1  2  1  3  6  4        1 0.440515418086D-01 0.100000000000D+01
  </mgrwgt>
  </event>
  <event>
  6     66 0.17652913E-05 0.14870489E+02 0.75467711E-02 0.90367977E-01
       -2 -1    0    0    0  501 0.00000000E+00 0.00000000E+00 0.13347081E+04 0.13347082E+04 0.32000000E+00 0.0000E+00 0.9000E+01
        2 -1    0    0  502    0 -.00000000E+00 -.00000000E+00 -.14827567E+04 0.14827567E+04 0.32000000E+00 0.0000E+00 0.9000E+01
       25  1    1    2    0    0 0.30529490E+02 0.70106993E+03 -.28198080E+03 0.76653067E+03 0.12500000E+03 0.0000E+00 0.9000E+01
        1  1    1    2  503    0 -.19604475E+02 0.45624954E+01 -.62108527E+03 0.62141143E+03 0.32000000E+00 0.0000E+00 0.9000E+01
       -1  1    1    2    0  501 0.56431996E+01 -.72423700E+03 0.97141634E+03 0.12116934E+04 0.32000000E+00 0.0000E+00 0.9000E+01
       21  1    1    2  502  503 -.16568215E+02 0.18604572E+02 -.21639884E+03 0.21782942E+03 0.75000000E+00 0.0000E+00 0.9000E+01
#aMCatNLO 2  0  0  4  5 0.14535645D+02 0.00000000D+00  -5  6  0 0.00000000D+00 0.00000000D+00 0.00000000D+00 0.00000000D+00 0.00000000D+00
  <mgrwgt>
 0.3506797354D-02    2    2    0
 0.140678624292947D+04 0.000000000000000D+00 0.000000000000000D+00 0.140678624292947D+04
 0.140678624292947D+04 -.000000000000000D+00 -.000000000000000D+00 -.140678624292947D+04
 0.752710210383098D+03 0.305363935354725D+02 0.701072913619647D+03 -.241892453941154D+03
 0.796106636968979D+03 -.361937552728389D+02 0.231795859946195D+02 -.794945593294551D+03
 0.126475563850686D+04 0.565736173736579D+01 -.724252499614266D+03 0.103683804723571D+04
 0.000000000000000D+00 0.000000000000000D+00 0.000000000000000D+00 0.000000000000000D+00
 0.140678624292947D+04 0.000000000000000D+00 0.000000000000000D+00 0.140678624292947D+04
 0.140678624292947D+04 -.000000000000000D+00 -.000000000000000D+00 -.140678624292947D+04
 0.752774201574137D+03 0.305279919636081D+02 0.701078294242797D+03 -.242076982804766D+03
 0.589473547434823D+03 -.195933982770594D+02 0.454884305159637D+01 -.589130265642704D+03
 0.126449626375844D+04 0.564324688406590D+01 -.724243460031239D+03 0.103652803407608D+04
 0.206828473091540D+03 -.165778405706152D+02 0.186163227368453D+02 -.205320785628613D+03
-.144569656579D-08 0.000000000000D+00 0.000000000000D+00 0.915753290045D-04 0.000000000000D+00  6 -2 2 25 1 -1 21 2 0.20533972D+00 0.22811642D+00 0.54915243D+06 0.54915243D+06 0.54915243D+06 0.10656442D+01  1  2 13  3  6  4        1 -.304065394184D-09 0.100000000000D+01
0.166732730114D-01 0.000000000000D+00 0.000000000000D+00 0.915753290045D-04 0.226683009266D-06  6 -2 2 25 1 -1 21 2 0.20533972D+00 0.22811642D+00 0.54915243D+06 0.54915243D+06 0.54915243D+06 0.10656442D+01  1  2  1  3  6  4        1 0.350679765763D-02 0.100000000000D+01
  </mgrwgt>
  </event>
  <event>
  5     66 0.17652913E-05 0.38209888E+02 0.75467711E-02 0.92755204E-01
       -2 -1    0    0    0  501 0.00000000E+00 0.00000000E+00 0.11052600E+04 0.11052600E+04 0.32000000E+00 0.0000E+00 0.9000E+01
        2 -1    0    0  502    0 0.00000000E+00 0.00000000E+00 -.78934549E+03 0.78934556E+03 0.32000000E+00 0.0000E+00 0.9000E+01
       25  1    1    2    0    0 0.15289752E+03 0.52538905E+03 -.14425349E+03 0.57952167E+03 0.12500000E+03 0.0000E+00 0.9000E+01
        1  1    1    2  502    0 0.21757051E+02 0.31409787E+02 -.33032737E+03 0.33253002E+03 0.32000000E+00 0.0000E+00 0.9000E+01
       -1  1    1    2    0  501 -.17465457E+03 -.55679883E+03 0.79049534E+03 0.98255389E+03 0.32000000E+00 0.0000E+00 0.9000E+01
#aMCatNLO 1  0  0  4  2 0.67344885D+01 0.00000000D+00  -5  6  0 0.00000000D+00 0.00000000D+00 0.00000000D+00 0.00000000D+00 0.00000000D+00
  <mgrwgt>
 0.2269031183D-01    9    2    0
 0.934040730193744D+03 0.000000000000000D+00 0.000000000000000D+00 0.934040730193744D+03
 0.934040730193744D+03 -.000000000000000D+00 -.000000000000000D+00 -.934040730193744D+03
 0.612137207677510D+03 0.152896417884123D+03 0.525386516730085D+03 -.244292149811758D+03
 0.393124722937987D+03 0.217575125897174D+02 0.314102882750746D+02 -.391263405165183D+03
 0.862819529771992D+03 -.174653930473840D+03 -.556796805005159D+03 0.635555554976941D+03
 0.000000000000000D+00 0.000000000000000D+00 0.000000000000000D+00 0.000000000000000D+00
 0.934040730193744D+03 0.000000000000000D+00 0.000000000000000D+00 0.934040730193744D+03
 0.934040730193744D+03 -.000000000000000D+00 -.000000000000000D+00 -.934040730193744D+03
 0.612173540516089D+03 0.152900610297772D+03 0.525392569118691D+03 -.244367541611880D+03
 0.204525603314683D+03 0.582649699133921D+01 0.124763738453925D+02 -.204061545715294D+03
 0.862734561464856D+03 -.174648021650010D+03 -.556788274716639D+03 0.635449297125871D+03
 0.188647755091862D+03 0.159209143608984D+02 0.189193317525554D+02 -.187020209798697D+03
0.147750985340D-03 0.000000000000D+00 0.000000000000D+00 0.280291737850D-04 0.000000000000D+00  6 -2 2 25 1 -1 21 0 0.17004000D+00 0.12143778D+00 0.34989284D+06 0.34989284D+06 0.34989284D+06 0.10796430D+01  1  2  2  3  6  4        1 0.131697289156D-03 0.100000000000D+01
0.637840213883D-04 0.000000000000D+00 -.567402687433D-06 0.280291737850D-04 0.000000000000D+00  6 -2 2 25 1 -1 21 2 0.17004000D+00 0.12143778D+00 0.34989284D+06 0.34989284D+06 0.34989284D+06 0.10796430D+01  1  2  3  3  6  4        1 0.662702666348D-04 0.100000000000D+01
-.997925618442D-04 0.000000000000D+00 0.000000000000D+00 0.280291737850D-04 0.000000000000D+00  6 -2 2 25 1 -1 21 2 0.17004000D+00 0.12143778D+00 0.34989284D+06 0.34989284D+06 0.34989284D+06 0.10796430D+01  1  2 15  3  6  4        1 -.103682388436D-03 0.100000000000D+01
0.505913349806D-08 0.000000000000D+00 0.000000000000D+00 0.280291737850D-04 0.000000000000D+00  6 -2 2 25 1 -1 21 2 0.17004000D+00 0.12143778D+00 0.35006065D+06 0.35006065D+06 0.35006065D+06 0.10796278D+01  1  2 12  3  6  4        1 0.525605526812D-08 0.100000000000D+01
0.186746091021D-01 0.000000000000D+00 0.000000000000D+00 0.280291737850D-04 0.000000000000D+00  6 -2 2 25 1 -1 21 2 0.17004000D+00 0.12143778D+00 0.35006065D+06 0.35006065D+06 0.35006065D+06 0.10796278D+01  1  2 12  3  6  4        1 0.194014998000D-01 0.100000000000D+01
-.126160901601D-01 0.000000000000D+00 0.000000000000D+00 0.280291737850D-04 0.000000000000D+00  6 -2 2 25 1 -1 21 2 0.17004000D+00 0.12143778D+00 0.34989284D+06 0.34989284D+06 0.34989284D+06 0.10796430D+01  1  2  4  3  6  4        1 -.131078542965D-01 0.100000000000D+01
-.212672422744D-01 0.000000000000D+00 0.000000000000D+00 0.280291737850D-04 0.000000000000D+00  6 -2 2 25 1 -1 21 2 0.17004000D+00 0.12143778D+00 0.34989284D+06 0.34989284D+06 0.34989284D+06 0.10796430D+01  1  2  5  3  6  4        1 -.220962207374D-01 0.100000000000D+01
0.362446350539D-01 0.000000000000D+00 -.000000000000D+00 0.280291737850D-04 0.000000000000D+00  6 -2 2 25 1 -1 21 2 0.17004000D+00 0.12143778D+00 0.34989284D+06 0.34989284D+06 0.34989284D+06 0.10796430D+01  1  2  6  3  6  4        1 0.376574191595D-01 0.100000000000D+01
0.713408751902D-03 0.000000000000D+00 0.000000000000D+00 0.280291737850D-04 0.617101679493D-06  6 -2 2 25 1 -1 21 2 0.17004000D+00 0.12143778D+00 0.35006065D+06 0.35006065D+06 0.35006065D+06 0.10796278D+01  1  2 11  3  6  4        1 0.741177482309D-03 0.100000000000D+01
  </mgrwgt>
  </event>
  <event>
  6     66 0.17652913E-05 0.23375484E+02 0.75467711E-02 0.93140474E-01
       -2 -1    0    0    0  503 0.00000000E+00 0.00000000E+00 0.13217618E+04 0.13217618E+04 0.32000000E+00 0.0000E+00 0.9000E+01
        2 -1    0    0  502    0 0.00000000E+00 0.00000000E+00 -.10046510E+04 0.10046510E+04 0.32000000E+00 0.0000E+00 0.9000E+01
       25  1    1    2    0    0 0.52691790E+03 0.52728209E+02 0.19852048E+03 0.57918746E+03 0.12500000E+03 0.0000E+00 0.9000E+01
        1  1    1    2  502    0 0.29374537E+02 -.11604065E+02 -.72326935E+03 0.72395868E+03 0.32000000E+00 0.0000E+00 0.9000E+01
       -1  1    1    2    0  501 -.54969542E+03 -.26084165E+02 0.75164537E+03 0.93156658E+03 0.32000000E+00 0.0000E+00 0.9000E+01
       21  1    1    2  501  503 -.65970167E+01 -.15039979E+02 0.90214296E+02 0.91700072E+02 0.75000000E+00 0.0000E+00 0.9000E+01
#aMCatNLO 2  0  0  1  5 0.16423203D+02 0.00000000D+00  -5  6  0 0.00000000D+00 0.00000000D+00 0.00000000D+00 0.00000000D+00 0.00000000D+00
  <mgrwgt>
 0.1044616249D-01    6    2    0
 0.111155175624037D+04 0.000000000000000D+00 0.000000000000000D+00 0.111155175624037D+04
 0.111155175624037D+04 0.000000000000000D+00 0.000000000000000D+00 -.111155175624037D+04
 0.560020599548303D+03 0.525213539295299D+03 0.489329369234524D+02 0.140550267674564D+03
 0.801616303893041D+03 0.269990421415955D+02 -.170286882856720D+02 -.800980507981216D+03
 0.861466609039399D+03 -.552212581436894D+03 -.319042486377804D+02 0.660430240306652D+03
 0.000000000000000D+00 -.000000000000000D+00 -.000000000000000D+00 0.000000000000000D+00
 0.119372683916588D+04 0.000000000000000D+00 0.000000000000000D+00 0.119372683916588D+04
 0.111240296036061D+04 0.000000000000000D+00 0.000000000000000D+00 -.111240296036061D+04
 0.561925488380699D+03 0.526878193241183D+03 0.527280403144549D+02 0.140550267674564D+03
 0.801603092652756D+03 0.293777709622502D+02 -.116056261316044D+02 -.800980507981216D+03
 0.859635593920997D+03 -.549658947528588D+03 -.260824352039692D+02 0.660430240306652D+03
 0.829656245720345D+02 -.659701667484507D+01 -.150399789788813D+02 0.813238788052709D+02
-.248923729106D-08 0.000000000000D+00 0.000000000000D+00 0.118547003978D-03 0.000000000000D+00  6 -2 2 25 1 -1 21 2 0.20341717D+00 0.15444319D+00 0.32624199D+06 0.32624199D+06 0.32624199D+06 0.10818677D+01  1  2 13  1  6  1       -2 -.109426547446D-08 0.100000000000D+01
-.110012665009D+00 0.000000000000D+00 0.000000000000D+00 0.118547003978D-03 0.000000000000D+00  6 -2 2 25 1 -1 21 2 0.20416906D+00 0.15444319D+00 0.32624199D+06 0.32624199D+06 0.32624199D+06 0.10818677D+01  1  2 13  1  6  1       -2 -.477967263924D-01 0.100000000000D+01
-.256981399498D-01 0.000000000000D+00 0.000000000000D+00 0.118547003978D-03 0.000000000000D+00  6 -2 2 25 1 -1 21 2 0.18934939D+00 0.15444319D+00 0.31761713D+06 0.31761713D+06 0.31761713D+06 0.10827231D+01  1  2  8  1  6  1       -2 -.141672457141D-01 0.100000000000D+01
-.206766210452D-01 0.000000000000D+00 0.000000000000D+00 0.118547003978D-03 0.000000000000D+00  6 -2 2 25 1 -1 21 2 0.20340834D+00 0.15444319D+00 0.31761713D+06 0.31761713D+06 0.31761713D+06 0.10827231D+01  1  2  9  1  6  1       -2 -.912051064964D-02 0.100000000000D+01
0.206237022836D-01 0.000000000000D+00 0.000000000000D+00 0.118547003978D-03 0.000000000000D+00  6 -2 2 25 1 -1 21 2 0.18934939D+00 0.15444319D+00 0.31761713D+06 0.31761713D+06 0.31761713D+06 0.10827231D+01  1  2 10  1  6  1       -2 0.113697356446D-01 0.100000000000D+01
0.159604237561D+00 0.000000000000D+00 0.000000000000D+00 0.118547003978D-03 0.333169117762D-05  6 -2 2 25 1 -1 21 2 0.20334766D+00 0.15456146D+00 0.32624199D+06 0.32624199D+06 0.32624199D+06 0.10818677D+01  1  2  1  1  6  1       -2 0.701609106968D-01 0.100000000000D+01
  </mgrwgt>
  </event>
  <event>
  6     66 0.17652913E-05 0.23604242E+02 0.75467711E-02 0.92122540E-01
       -2 -1    0    0    0  501 0.00000000E+00 0.00000000E+00 0.32682110E+03 0.32682126E+03 0.32000000E+00 0.0000E+00 0.9000E+01
        2 -1    0    0  503    0 0.00000000E+00 0.00000000E+00 -.26614065E+04 0.26614066E+04 0.32000000E+00 0.0000E+00 0.9000E+01
       25  1    1    2    0    0 -.57338120E+03 -.48486029E+02 -.42097643E+03 0.72385292E+03 0.12500000E+03 0.0000E+00 0.9000E+01
        1  1    1    2  502    0 -.29194183E+02 -.13851978E+02 -.77946481E+03 0.78013439E+03 0.32000000E+00 0.0000E+00 0.9000E+01
       -1  1    1    2    0  501 0.61412338E+03 0.49286654E+02 -.36746183E+03 0.71735974E+03 0.32000000E+00 0.0000E+00 0.9000E+01
       21  1    1    2  503  502 -.11548002E+02 0.13051353E+02 -.76668236E+03 0.76688076E+03 0.75000000E+00 0.0000E+00 0.9000E+01
#aMCatNLO 2  0  0  2  1 0.17426823D+02 0.00000000D+00  -5  6  0 0.00000000D+00 0.00000000D+00 0.00000000D+00 0.00000000D+00 0.00000000D+00
  <mgrwgt>
 0.3089225402D-02    2    2    0
 0.786727237941263D+03 0.000000000000000D+00 0.000000000000000D+00 0.786727237941263D+03
 0.786727237941263D+03 0.000000000000000D+00 0.000000000000000D+00 -.786727237941263D+03
 0.606202587715075D+03 -.577778162877322D+03 -.434691328077290D+02 0.127040963265804D+03
 0.324808822793487D+03 -.315809424345523D+02 -.111603050536517D+02 -.323077178133253D+03
 0.642443065373964D+03 0.609359105311875D+03 0.546294378613807D+02 0.196036214867449D+03
 0.000000000000000D+00 -.000000000000000D+00 0.000000000000000D+00 -.000000000000000D+00
 0.787013928681411D+03 0.000000000000000D+00 0.000000000000000D+00 0.787013928681411D+03
 0.110519403650886D+04 0.000000000000000D+00 0.000000000000000D+00 -.110519403650886D+04
 0.602359863192244D+03 -.573343317914661D+03 -.484813184647849D+02 0.127040963265804D+03
 0.324689534434994D+03 -.291975947509889D+02 -.138539236978004D+02 -.323077178133253D+03
 0.646501580842607D+03 0.614088914406251D+03 0.492838888054295D+02 0.196036214867449D+03
 0.318656986720425D+03 -.115480017406011D+02 0.130513533571558D+02 -.318180107827448D+03
-.175474971673D-07 0.000000000000D+00 0.000000000000D+00 0.397218633487D-05 0.000000000000D+00  6 -2 2 25 1 -1 21 2 0.50261839D-01 0.40948387D+00 0.39351691D+06 0.39351691D+06 0.39351691D+06 0.10759396D+01  1  2 13  2  6  2        2 -.274114531921D-07 0.100000000000D+01
0.197837390588D-02 0.000000000000D+00 0.000000000000D+00 0.397218633487D-05 0.102476928375D-06  6 -2 2 25 1 -1 21 2 0.50280155D-01 0.40944694D+00 0.39351691D+06 0.39351691D+06 0.39351691D+06 0.10759396D+01  1  2  1  2  6  2        2 0.308925281385D-02 0.100000000000D+01
  </mgrwgt>
  </event>
  <event>
  5     66 0.17652913E-05 0.31723309E+02 0.75467711E-02 0.89237955E-01
       -2 -1    0    0    0  501 0.00000000E+00 0.00000000E+00 0.78414143E+03 0.78414150E+03 0.32000000E+00 0.0000E+00 0.9000E+01
        2 -1    0    0  502    0 0.00000000E+00 0.00000000E+00 -.33469124E+04 0.33469124E+04 0.32000000E+00 0.0000E+00 0.9000E+01
       25  1    1    2    0    0 -.43886657E+03 -.53165411E+03 -.65396940E+03 0.95841585E+03 0.12500000E+03 0.0000E+00 0.9000E+01
        1  1    1    2  502    0 0.27332153E+02 0.16098514E+02 -.23684270E+04 0.23686394E+04 0.32000000E+00 0.0000E+00 0.9000E+01
       -1  1    1    2    0  501 0.41153442E+03 0.51555560E+03 0.45962543E+03 0.80399863E+03 0.32000000E+00 0.0000E+00 0.9000E+01
#aMCatNLO 1  0  0  2  4 0.25692713D+02 0.00000000D+00  -5  6  0 0.00000000D+00 0.00000000D+00 0.00000000D+00 0.00000000D+00 0.00000000D+00
  <mgrwgt>
 0.1776495343D-02    4    2    0
 0.162001630557181D+04 0.000000000000000D+00 0.000000000000000D+00 0.162001630557181D+04
 0.162001630557181D+04 0.000000000000000D+00 0.000000000000000D+00 -.162001630557181D+04
 0.704689911597168D+03 -.438858449363125D+03 -.531642549332308D+03 -.756461014782795D+02
 0.114672583199883D+04 0.273343034693079D+02 0.160998191968557D+02 -.114628694725582D+04
 0.138861686754762D+04 0.411524145893817D+03 0.515542730135452D+03 0.122193304873410D+04
 0.000000000000000D+00 -.000000000000000D+00 -.000000000000000D+00 0.000000000000000D+00
 0.177437901313596D+04 0.000000000000000D+00 0.000000000000000D+00 0.177437901313596D+04
 0.166864289887296D+04 0.000000000000000D+00 0.000000000000000D+00 -.166864289887296D+04
 0.671510157792037D+03 -.408930019794996D+03 -.512205816307750D+03 -.756461014782795D+02
 0.114991377553039D+04 0.772796698925345D+02 0.485363608727933D+02 -.114628694725582D+04
 0.142296887812977D+04 0.472668123311002D+03 0.555252102871233D+03 0.122193304873410D+04
 0.198629100556735D+03 -.141017773408540D+03 -.915826474362772D+02 0.105736114262997D+03
0.266931733514D-01 0.000000000000D+00 0.000000000000D+00 0.424434743411D-03 0.000000000000D+00  6 -2 2 25 1 -1 21 0 0.12063715D+00 0.51490960D+00 0.48440904D+06 0.48440904D+06 0.48440904D+06 0.10694841D+01  1  2  2  2  6  2        2 0.179441980560D-02 0.100000000000D+01
0.201890482127D-01 0.000000000000D+00 -.102508814143D-03 0.424434743411D-03 0.000000000000D+00  6 -2 2 25 1 -1 21 2 0.12063715D+00 0.51490960D+00 0.48440904D+06 0.48440904D+06 0.48440904D+06 0.10694841D+01  1  2  3  2  6  2        2 0.155234533663D-02 0.100000000000D+01
-.190155880114D-01 0.000000000000D+00 0.000000000000D+00 0.424434743411D-03 0.000000000000D+00  6 -2 2 25 1 -1 21 2 0.12063715D+00 0.51490960D+00 0.48440904D+06 0.48440904D+06 0.48440904D+06 0.10694841D+01  1  2 15  2  6  2        2 -.146211743426D-02 0.100000000000D+01
-.140657703925D-02 0.000000000000D+00 0.000000000000D+00 0.424434743411D-03 0.000000000000D+00  6 -2 2 25 1 -1 21 2 0.12063715D+00 0.51490960D+00 0.48440904D+06 0.48440904D+06 0.48440904D+06 0.10694841D+01  1  2  4  2  6  2        2 -.108152364812D-03 0.100000000000D+01
  </mgrwgt>
  </event>
  <event>
  5     66 0.17652913E-05 0.54117852E+02 0.75467711E-02 0.94322658E-01
       -2 -1    0    0    0  501 0.00000000E+00 0.00000000E+00 0.10975977E+04 0.10975977E+04 0.32000000E+00 0.0000E+00 0.9000E+01
        2 -1    0    0  502    0 0.00000000E+00 0.00000000E+00 -.98728070E+03 0.98728076E+03 0.32000000E+00 0.0000E+00 0.9000E+01
       25  1    1    2    0    0 0.21625376E+03 0.45727809E+03 0.72856413E+02 0.52611975E+03 0.12500000E+03 0.0000E+00 0.9000E+01
        1  1    1    2  502    0 -.18952296E+03 -.41021440E+03 -.69244644E+03 0.82684762E+03 0.32000000E+00 0.0000E+00 0.9000E+01
       -1  1    1    2    0  501 -.26730801E+02 -.47063683E+02 0.72990702E+03 0.73191112E+03 0.32000000E+00 0.0000E+00 0.9000E+01
#aMCatNLO 1  0  0  1  2 0.23684288D+03 0.00000000D+00  -5  6  0 0.00000000D+00 0.00000000D+00 0.00000000D+00 0.00000000D+00 0.00000000D+00
  <mgrwgt>
 0.1651021667D-02    5    4    0
 0.104097892771358D+04 0.000000000000000D+00 0.000000000000000D+00 0.104097892771358D+04
 0.104097892771358D+04 0.000000000000000D+00 0.000000000000000D+00 -.104097892771358D+04
 0.523060442818420D+03 0.216277474790774D+03 0.457330321708631D+03 0.451692105909270D+02
 0.864728206403475D+03 -.189550250935861D+03 -.410272936969845D+03 -.737225671358548D+03
 0.694169206205267D+03 -.267272238549135D+02 -.470573847387859D+02 0.692056460767620D+03
 0.000000000000000D+00 0.000000000000000D+00 0.000000000000000D+00 0.000000000000000D+00
 0.563274810931471D+04 0.000000000000000D+00 0.000000000000000D+00 0.563274810931471D+04
 0.113995050705069D+04 0.000000000000000D+00 0.000000000000000D+00 -.113995050705069D+04
 0.434040063831888D+03 0.540188000926052D+02 0.409643123538449D+03 0.451692105909270D+02
 0.102901007984881D+04 -.510598523732091D+03 -.504627785088183D+03 -.737225671358548D+03
 0.753109652094556D+03 -.272086564733634D+03 -.119167547928236D+03 0.692056460767620D+03
 0.455653882059015D+04 0.728666288373119D+03 0.214152209477970D+03 0.449279760226402D+04
 0.104097892771358D+04 0.000000000000000D+00 0.000000000000000D+00 0.104097892771358D+04
 0.104097892771358D+04 0.000000000000000D+00 0.000000000000000D+00 -.104097892771358D+04
 0.523060442818420D+03 0.216277474790774D+03 0.457330321708631D+03 0.451692105909270D+02
 0.864728206403475D+03 -.189550250935861D+03 -.410272936969845D+03 -.737225671358548D+03
 0.000000000000000D+00 0.000000000000000D+00 0.000000000000000D+00 0.000000000000000D+00
 0.694169206205267D+03 -.267272238549135D+02 -.470573847387859D+02 0.692056460767620D+03
 0.563274810931471D+04 0.000000000000000D+00 0.000000000000000D+00 0.563274810931471D+04
 0.113995050705069D+04 0.000000000000000D+00 0.000000000000000D+00 -.113995050705069D+04
 0.434040063831888D+03 0.540188000926052D+02 0.409643123538449D+03 0.451692105909270D+02
 0.102901007984881D+04 -.510598523732091D+03 -.504627785088183D+03 -.737225671358548D+03
 0.455653882059015D+04 0.728666288373119D+03 0.214152209477970D+03 0.449279760226402D+04
 0.753109652094556D+03 -.272086564733634D+03 -.119167547928236D+03 0.692056460767620D+03
0.326060311367D-02 0.000000000000D+00 0.000000000000D+00 0.138462105159D-03 0.000000000000D+00  6 -2 2 25 1 -1 21 0 0.16886119D+00 0.15188935D+00 0.26376859D+06 0.26376859D+06 0.26376859D+06 0.10887118D+01  1  2  2  1  6  1       -2 0.222901480071D-02 0.100000000000D+01
0.130656935148D-02 0.000000000000D+00 -.125215744930D-04 0.138462105159D-03 0.000000000000D+00  6 -2 2 25 1 -1 21 2 0.16886119D+00 0.15188935D+00 0.26376859D+06 0.26376859D+06 0.26376859D+06 0.10887118D+01  1  2  3  1  6  1       -2 0.105870112485D-02 0.100000000000D+01
-.201633999545D-02 0.000000000000D+00 0.000000000000D+00 0.138462105159D-03 0.000000000000D+00  6 -2 2 25 1 -1 21 2 0.16886119D+00 0.15188935D+00 0.26376859D+06 0.26376859D+06 0.26376859D+06 0.10887118D+01  1  2 15  1  6  1       -2 -.163382174765D-02 0.100000000000D+01
-.286798039243D-01 0.000000000000D+00 -.264705903930D-02 0.138462105159D-03 0.000000000000D+00  6 -2 2 25 1 -1 21 2 0.91512567D+00 0.15188935D+00 0.26376859D+06 0.26376859D+06 0.26376859D+06 0.10887118D+01  1  2  5  1  6  1       -2 -.286932560305D-05 0.100000000000D+01
-.604543377948D-02 0.000000000000D+00 -.547237226780D-03 0.138462105159D-03 0.000000000000D+00  6 21 2 25 1 2 -1 2 0.91512567D+00 0.15188935D+00 0.26376859D+06 0.26376859D+06 0.26376859D+06 0.10887118D+01  3  4  5  5  5  1       -2 -.318543496445D-08 0.100000000000D+01
  </mgrwgt>
  </event>
  <event>
  5     66 0.17652913E-05 0.28148295E+03 0.75467711E-02 0.93090266E-01
       -2 -1    0    0    0  501 0.00000000E+00 0.00000000E+00 0.34407263E+03 0.34407278E+03 0.32000000E+00 0.0000E+00 0.9000E+01
        2 -1    0    0  502    0 -.00000000E+00 -.00000000E+00 -.27821709E+04 0.27821709E+04 0.32000000E+00 0.0000E+00 0.9000E+01
       25  1    1    2    0    0 0.53731537E+03 -.12045033E+03 -.67544268E+02 0.56868560E+03 0.12500000E+03 0.0000E+00 0.9000E+01
        1  1    1    2  502    0 -.25710514E+03 0.14904194E+03 -.22168562E+04 0.22366868E+04 0.32000000E+00 0.0000E+00 0.9000E+01
       -1  1    1    2    0  501 -.28021023E+03 -.28591607E+02 -.15369785E+03 0.32087129E+03 0.32000000E+00 0.0000E+00 0.9000E+01
#aMCatNLO 1  0  0  5  1 0.40422494D+02 0.00000000D+00  -5  6  0 0.00000000D+00 0.00000000D+00 0.00000000D+00 0.00000000D+00 0.00000000D+00
  <mgrwgt>
 0.2315533948D-03    8    2    0
 0.978401306727268D+03 0.000000000000000D+00 0.000000000000000D+00 0.978401306727268D+03
 0.978401306727268D+03 -.000000000000000D+00 -.000000000000000D+00 -.978401306727268D+03
 0.824469534300077D+03 0.537183872840936D+03 -.120491804490495D+03 0.600866228705877D+03
 0.811409239193465D+03 -.257154891874966D+03 0.149064918226064D+03 -.755007261678687D+03
 0.320923839960995D+03 -.280028980965970D+03 -.285731137355688D+02 0.154141032972810D+03
 0.000000000000000D+00 0.000000000000000D+00 -.000000000000000D+00 0.000000000000000D+00
 0.978401306727268D+03 0.000000000000000D+00 0.000000000000000D+00 0.978401306727268D+03
 0.978401306727268D+03 -.000000000000000D+00 -.000000000000000D+00 -.978401306727268D+03
 0.823089468319609D+03 0.531207255215048D+03 -.121101636282153D+03 0.604156038251161D+03
 0.810177440397781D+03 -.263037293364528D+03 0.148464699897876D+03 -.751769313096243D+03
 0.254043434231392D+03 -.219688065360726D+03 0.176528498395411D+02 0.126347130187763D+03
 0.694922705057546D+02 -.484818964897937D+02 -.450159134552646D+02 0.212661446573193D+02
0.905927919583D-04 0.000000000000D+00 0.000000000000D+00 0.235430989191D-06 0.000000000000D+00  6 -2 2 25 1 -1 21 0 0.52934263D-01 0.42802631D+00 0.32676223D+06 0.32676223D+06 0.32676223D+06 0.10818169D+01  1  2  2  4  6  5       -1 0.944569680766D-04 0.100000000000D+01
0.457412885032D-05 0.000000000000D+00 -.347900174750D-06 0.235430989191D-06 0.000000000000D+00  6 -2 2 25 1 -1 21 2 0.52934263D-01 0.42802631D+00 0.32676223D+06 0.32676223D+06 0.32676223D+06 0.10818169D+01  1  2  3  4  6  5       -1 0.558156863338D-05 0.100000000000D+01
-.532257212997D-04 0.000000000000D+00 0.000000000000D+00 0.235430989191D-06 0.000000000000D+00  6 -2 2 25 1 -1 21 2 0.52934263D-01 0.42802631D+00 0.32676223D+06 0.32676223D+06 0.32676223D+06 0.10818169D+01  1  2 15  4  6  5       -1 -.649485456613D-04 0.100000000000D+01
0.204896470031D-07 0.000000000000D+00 0.000000000000D+00 0.235430989191D-06 0.000000000000D+00  6 -2 2 25 1 -1 21 2 0.52934263D-01 0.42802631D+00 0.32924066D+06 0.32924066D+06 0.32924066D+06 0.10815761D+01  1  2 12  4  6  5       -1 0.249780420854D-07 0.100000000000D+01
0.285002010276D-03 0.000000000000D+00 0.000000000000D+00 0.235430989191D-06 0.000000000000D+00  6 -2 2 25 1 -1 21 2 0.52934263D-01 0.42802631D+00 0.32924066D+06 0.32924066D+06 0.32924066D+06 0.10815761D+01  1  2 12  4  6  5       -1 0.347433618843D-03 0.100000000000D+01
-.233837602478D-03 0.000000000000D+00 0.000000000000D+00 0.235430989191D-06 0.000000000000D+00  6 -2 2 25 1 -1 21 2 0.52934263D-01 0.42802631D+00 0.32676223D+06 0.32676223D+06 0.32676223D+06 0.10818169D+01  1  2  4  4  6  5       -1 -.285339716044D-03 0.100000000000D+01
-.312389724479D-03 0.000000000000D+00 0.000000000000D+00 0.235430989191D-06 0.000000000000D+00  6 -2 2 25 1 -1 21 2 0.52934263D-01 0.42802631D+00 0.32676223D+06 0.32676223D+06 0.32676223D+06 0.10818169D+01  1  2  5  4  6  5       -1 -.381192735184D-03 0.100000000000D+01
0.422485863849D-03 0.000000000000D+00 -.000000000000D+00 0.235430989191D-06 0.000000000000D+00  6 -2 2 25 1 -1 21 2 0.52934263D-01 0.42802631D+00 0.32676223D+06 0.32676223D+06 0.32676223D+06 0.10818169D+01  1  2  6  4  6  5       -1 0.515537258103D-03 0.100000000000D+01
  </mgrwgt>
  </event>
  <event>
  5     66 -.17652913E-05 0.21491765E+02 0.75467711E-02 0.92533892E-01
       -2 -1    0    0    0  501 0.00000000E+00 0.00000000E+00 0.57161918E+03 0.57161927E+03 0.32000000E+00 0.0000E+00 0.9000E+01
        2 -1    0    0  502    0 -.00000000E+00 -.00000000E+00 -.17623829E+04 0.17623830E+04 0.32000000E+00 0.0000E+00 0.9000E+01
       25  1    1    2    0    0 0.54752400E+03 -.18072943E+03 -.48542890E+03 0.76401038E+03 0.12500000E+03 0.0000E+00 0.9000E+01
        1  1    1    2  502    0 0.21427898E+02 -.16320943E+01 -.93106181E+03 0.93130984E+03 0.32000000E+00 0.0000E+00 0.9000E+01
       -1  1    1    2    0  501 -.56895189E+03 0.18236152E+03 0.22572694E+03 0.63868203E+03 0.32000000E+00 0.0000E+00 0.9000E+01
#aMCatNLO 1  0  0  5  4 0.33926959D+02 0.00000000D+00  -5  6  0 0.00000000D+00 0.00000000D+00 0.00000000D+00 0.00000000D+00 0.00000000D+00
  <mgrwgt>
 -.1035803339D-01    4    2    0
 0.100369917892561D+04 0.000000000000000D+00 0.000000000000000D+00 0.100369917892561D+04
 0.100369917892561D+04 -.000000000000000D+00 -.000000000000000D+00 -.100369917892561D+04
 0.600336204468348D+03 0.547507950346918D+03 -.180724766677746D+03 -.111140278079790D+03
 0.530590087950322D+03 0.214296969469477D+02 -.163218874295270D+01 -.530154642986176D+03
 0.876472065432544D+03 -.568937647293866D+03 0.182356955420699D+03 0.641294921065966D+03
 0.000000000000000D+00 0.000000000000000D+00 0.000000000000000D+00 0.000000000000000D+00
 0.100369917892561D+04 0.000000000000000D+00 0.000000000000000D+00 0.100369917892561D+04
 0.100369917892561D+04 -.000000000000000D+00 -.000000000000000D+00 -.100369917892561D+04
 0.599689618571422D+03 0.546976555717980D+03 -.180554443080563D+03 -.110541300883886D+03
 0.530041899732994D+03 0.209600286025550D+02 -.148164976957256D+01 -.529625242400229D+03
 0.351169608616835D+03 -.210480089770630D+03 0.513598283940535D+02 0.276370030671891D+03
 0.526497230929962D+03 -.357456494549904D+03 0.130676264456082D+03 0.363796512612225D+03
0.358157136377D-03 0.000000000000D+00 0.000000000000D+00 0.659825078713D-04 0.000000000000D+00  6 -2 2 25 1 -1 21 0 0.87941422D-01 0.27113585D+00 0.36535894D+06 0.36535894D+06 0.36535894D+06 0.10782752D+01  1  2  2  4  6  5       -1 0.470421571993D-03 0.100000000000D+01
0.267392017200D-03 0.000000000000D+00 -.137541770863D-05 0.659825078713D-04 0.000000000000D+00  6 -2 2 25 1 -1 21 2 0.87941422D-01 0.27113585D+00 0.36535894D+06 0.36535894D+06 0.36535894D+06 0.10782752D+01  1  2  3  4  6  5       -1 0.408339372888D-03 0.100000000000D+01
-.219857412337D-03 0.000000000000D+00 0.000000000000D+00 0.659825078713D-04 0.000000000000D+00  6 -2 2 25 1 -1 21 2 0.87941422D-01 0.27113585D+00 0.36535894D+06 0.36535894D+06 0.36535894D+06 0.10782752D+01  1  2 15  4  6  5       -1 -.335748384781D-03 0.100000000000D+01
-.713830911306D-02 0.000000000000D+00 0.000000000000D+00 0.659825078713D-04 0.000000000000D+00  6 -2 2 25 1 -1 21 2 0.87941422D-01 0.27113585D+00 0.36535894D+06 0.36535894D+06 0.36535894D+06 0.10782752D+01  1  2  5  4  6  5       -1 -.109010459520D-01 0.100000000000D+01
  </mgrwgt>
  </event>
  <event>
  5     66 0.17652913E-05 0.81762415E+02 0.75467711E-02 0.95184191E-01
       -2 -1    0    0    0  501 0.00000000E+00 0.00000000E+00 0.86572562E+03 0.86572568E+03 0.32000000E+00 0.0000E+00 0.9000E+01
        2 -1    0    0  502    0 0.00000000E+00 0.00000000E+00 -.17090501E+04 0.17090501E+04 0.32000000E+00 0.0000E+00 0.9000E+01
       25  1    1    2    0    0 -.18965309E+03 0.41728715E+03 -.21934973E+03 0.52329358E+03 0.12500000E+03 0.0000E+00 0.9000E+01
        1  1    1    2  502    0 0.11843513E+03 -.37711469E+03 -.13060340E+04 0.13645392E+04 0.32000000E+00 0.0000E+00 0.9000E+01
       -1  1    1    2    0  501 0.71217962E+02 -.40172461E+02 0.68205923E+03 0.68694303E+03 0.32000000E+00 0.0000E+00 0.9000E+01
#aMCatNLO 1  0  0  2  1 0.80082477D+02 0.00000000D+00  -5  6  0 0.00000000D+00 0.00000000D+00 0.00000000D+00 0.00000000D+00 0.00000000D+00
  <mgrwgt>
 0.2407807097D-01    3    2    0
 0.121637516964979D+04 0.000000000000000D+00 0.000000000000000D+00 0.121637516964979D+04
 0.121637516964979D+04 0.000000000000000D+00 0.000000000000000D+00 -.121637516964979D+04
 0.477837734252540D+03 -.189663714349056D+03 0.417326394519466D+03 -.506976939544894D+02
 0.991479165545444D+03 0.118449651868928D+03 -.377156133593137D+03 -.909260065424571D+03
 0.963433439501598D+03 0.712140624801277D+02 -.401702609263295D+02 0.959957759379061D+03
 0.000000000000000D+00 0.000000000000000D+00 0.000000000000000D+00 0.000000000000000D+00
 0.483153409589766D+04 0.000000000000000D+00 0.000000000000000D+00 0.483153409589766D+04
 0.147221675564483D+04 0.000000000000000D+00 0.000000000000000D+00 -.147221675564483D+04
 0.325672605677695D+03 -.192155243348289D+03 0.225707227111486D+03 -.506976939544894D+02
 0.130103178039697D+04 0.111341022123888D+03 -.923868499202905D+03 -.909260065424571D+03
 0.109949282798173D+04 0.648173300881573D+02 -.532131837716405D+03 0.959957759379061D+03
 0.357755363748609D+04 0.159968911362438D+02 0.123029310980782D+04 0.335931734025283D+04
0.921258709406D-01 0.000000000000D+00 0.000000000000D+00 0.286222235939D-03 0.000000000000D+00  6 -2 2 25 1 -1 21 0 0.13318856D+00 0.26293079D+00 0.22668169D+06 0.22668169D+06 0.22668169D+06 0.10936726D+01  1  2  2  2  6  2        2 0.476893835683D-01 0.100000000000D+01
0.274585477724D-01 0.000000000000D+00 -.353787601711D-03 0.286222235939D-03 0.000000000000D+00  6 -2 2 25 1 -1 21 2 0.13318856D+00 0.26293079D+00 0.22668169D+06 0.22668169D+06 0.22668169D+06 0.10936726D+01  1  2  3  2  6  2        2 0.170017002818D-01 0.100000000000D+01
-.655919311544D-01 0.000000000000D+00 0.000000000000D+00 0.286222235939D-03 0.000000000000D+00  6 -2 2 25 1 -1 21 2 0.13318856D+00 0.26293079D+00 0.22668169D+06 0.22668169D+06 0.22668169D+06 0.10936726D+01  1  2 15  2  6  2        2 -.406130128818D-01 0.100000000000D+01
  </mgrwgt>
  </event>
  <event>
  5     66 0.17652913E-05 0.16159682E+02 0.75467711E-02 0.93361531E-01
       -2 -1    0    0    0  501 0.00000000E+00 0.00000000E+00 0.88071646E+03 0.88071652E+03 0.32000000E+00 0.0000E+00 0.9000E+01
        2 -1    0    0  502    0 0.00000000E+00 0.00000000E+00 -.71715387E+03 0.71715394E+03 0.32000000E+00 0.0000E+00 0.9000E+01
       25  1    1    2    0    0 -.27943873E+03 -.41670573E+03 0.32585455E+03 0.61117580E+03 0.12500000E+03 0.0000E+00 0.9000E+01
        1  1    1    2  502    0 0.35065439E+01 0.15771673E+02 -.43061714E+03 0.43092025E+03 0.32000000E+00 0.0000E+00 0.9000E+01
       -1  1    1    2    0  501 0.27593218E+03 0.40093406E+03 0.26832518E+03 0.55577441E+03 0.32000000E+00 0.0000E+00 0.9000E+01
#aMCatNLO 1  0  0  4  5 0.13051968D+02 0.00000000D+00  -5  6  0 0.00000000D+00 0.00000000D+00 0.00000000D+00 0.00000000D+00 0.00000000D+00
  <mgrwgt>
 0.8590074640D-02    3    2    0
 0.794738525846163D+03 0.000000000000000D+00 0.000000000000000D+00 0.794738525846163D+03
 0.794738525846163D+03 -.000000000000000D+00 -.000000000000000D+00 -.794738525846163D+03
 0.580864056398722D+03 -.279393759291168D+03 -.416642242098521D+03 0.264813937292288D+03
 0.477603268600432D+03 0.350721510210979D+01 0.157744974234446D+02 -.477329809304931D+03
 0.531009726693172D+03 0.275886544189058D+03 0.400867744675077D+03 0.212515872012643D+03
 0.000000000000000D+00 0.000000000000000D+00 0.000000000000000D+00 0.000000000000000D+00
 0.794738525846163D+03 0.000000000000000D+00 0.000000000000000D+00 0.794738525846163D+03
 0.794738525846163D+03 -.000000000000000D+00 -.000000000000000D+00 -.794738525846163D+03
 0.571506931473458D+03 -.279247401115535D+03 -.415983962923390D+03 0.244894679980964D+03
 0.506143094156978D+02 -.892747018410657D+01 -.498067698991045D+02 -.118079039525498D+01
 0.524506656524837D+03 0.276020601236506D+03 0.401470696729054D+03 0.194270790650034D+03
 0.442849154278333D+03 0.121542700631358D+02 0.643200360934413D+02 -.437984680235743D+03
0.368303023826D-02 0.000000000000D+00 0.000000000000D+00 0.179734911642D-04 0.000000000000D+00  6 -2 2 25 1 -1 21 0 0.13549485D+00 0.11033137D+00 0.25998643D+06 0.25998643D+06 0.25998643D+06 0.10891817D+01  1  2  2  3  6  4        1 0.705773304742D-02 0.100000000000D+01
0.309143554338D-02 0.000000000000D+00 -.141438058791D-04 0.179734911642D-04 0.000000000000D+00  6 -2 2 25 1 -1 21 2 0.13549485D+00 0.11033137D+00 0.25998643D+06 0.25998643D+06 0.25998643D+06 0.10891817D+01  1  2  3  3  6  4        1 0.702782299074D-02 0.100000000000D+01
-.241738110723D-02 0.000000000000D+00 0.000000000000D+00 0.179734911642D-04 0.000000000000D+00  6 -2 2 25 1 -1 21 2 0.13549485D+00 0.11033137D+00 0.25998643D+06 0.25998643D+06 0.25998643D+06 0.10891817D+01  1  2 15  3  6  4        1 -.549548139833D-02 0.100000000000D+01
  </mgrwgt>
  </event>
  <event>
  5     66 0.17652913E-05 0.71331343E+02 0.75467711E-02 0.93504042E-01
       -2 -1    0    0    0  501 0.00000000E+00 0.00000000E+00 0.24228464E+04 0.24228464E+04 0.32000000E+00 0.0000E+00 0.9000E+01
        2 -1    0    0  502    0 0.00000000E+00 0.00000000E+00 -.78895745E+03 0.78895752E+03 0.32000000E+00 0.0000E+00 0.9000E+01
       25  1    1    2    0    0 -.45427498E+03 0.20816014E+03 0.16335890E+04 0.17128732E+04 0.12500000E+03 0.0000E+00 0.9000E+01
        1  1    1    2  502    0 0.48978186E+03 -.14624489E+03 -.65999703E+03 0.83478741E+03 0.32000000E+00 0.0000E+00 0.9000E+01
       -1  1    1    2    0  501 -.35506886E+02 -.61915259E+02 0.66029691E+03 0.66414332E+03 0.32000000E+00 0.0000E+00 0.9000E+01
#aMCatNLO 1  0  0  5  1 0.22989124D+02 0.00000000D+00  -5  6  0 0.00000000D+00 0.00000000D+00 0.00000000D+00 0.00000000D+00 0.00000000D+00
  <mgrwgt>
 0.1197751565D-01    8    2    0
 0.138257833150210D+04 0.000000000000000D+00 0.000000000000000D+00 0.138257833150210D+04
 0.138257833150210D+04 -.000000000000000D+00 -.000000000000000D+00 -.138257833150210D+04
 0.102450030713371D+04 -.454350901803957D+03 0.208142101735140D+03 0.885560840841707D+03
 0.135962302148542D+04 0.489836600489094D+03 -.146263788070661D+03 -.125985783708864D+04
 0.381033334385074D+03 -.354856986851361D+02 -.618783136644788D+02 0.374296996246931D+03
 0.000000000000000D+00 0.000000000000000D+00 0.000000000000000D+00 0.000000000000000D+00
 0.138257833150210D+04 0.000000000000000D+00 0.000000000000000D+00 0.138257833150210D+04
 0.138257833150210D+04 -.000000000000000D+00 -.000000000000000D+00 -.138257833150210D+04
 0.102589060187444D+04 -.454501875937503D+03 0.207878840051225D+03 0.887153289822307D+03
 0.135763319118926D+04 0.489636523810775D+03 -.146612672492180D+03 -.125774746298052D+04
 0.772587639334806D+02 -.293158287088847D+02 -.160744647311629D+02 0.696499129593658D+02
 0.304374106007033D+03 -.581881916438730D+01 -.451917028278823D+02 0.300944260198843D+03
0.515687113063D-01 0.000000000000D+00 0.000000000000D+00 0.378528225633D-04 0.000000000000D+00  6 -2 2 25 1 -1 21 0 0.37274560D+00 0.12137808D+00 0.30123192D+06 0.30123192D+06 0.30123192D+06 0.10844202D+01  1  2  2  4  6  5       -1 0.209037577215D-02 0.100000000000D+01
0.691943509238D-02 0.000000000000D+00 -.198037429770D-03 0.378528225633D-04 0.000000000000D+00  6 -2 2 25 1 -1 21 2 0.37274560D+00 0.12137808D+00 0.30123192D+06 0.30123192D+06 0.30123192D+06 0.10844202D+01  1  2  3  4  6  5       -1 0.329840466613D-03 0.100000000000D+01
-.325565913659D-01 0.000000000000D+00 0.000000000000D+00 0.378528225633D-04 0.000000000000D+00  6 -2 2 25 1 -1 21 2 0.37274560D+00 0.12137808D+00 0.30123192D+06 0.30123192D+06 0.30123192D+06 0.10844202D+01  1  2 15  4  6  5       -1 -.155193034462D-02 0.100000000000D+01
0.695329790786D-08 0.000000000000D+00 0.000000000000D+00 0.378528225633D-04 0.000000000000D+00  6 -2 2 25 1 -1 21 2 0.37274560D+00 0.12137808D+00 0.30541879D+06 0.30541879D+06 0.30541879D+06 0.10839771D+01  1  2 12  4  6  5       -1 0.330767048215D-09 0.100000000000D+01
0.115140100680D+00 0.000000000000D+00 0.000000000000D+00 0.378528225633D-04 0.000000000000D+00  6 -2 2 25 1 -1 21 2 0.37274560D+00 0.12137808D+00 0.30541879D+06 0.30541879D+06 0.30541879D+06 0.10839771D+01  1  2 12  4  6  5       -1 0.547719251178D-02 0.100000000000D+01
-.116274550997D+00 0.000000000000D+00 0.000000000000D+00 0.378528225633D-04 0.000000000000D+00  6 -2 2 25 1 -1 21 2 0.37274560D+00 0.12137808D+00 0.30123192D+06 0.30123192D+06 0.30123192D+06 0.10844202D+01  1  2  4  4  6  5       -1 -.554265653830D-02 0.100000000000D+01
-.127624013421D+00 0.000000000000D+00 0.000000000000D+00 0.378528225633D-04 0.000000000000D+00  6 -2 2 25 1 -1 21 2 0.37274560D+00 0.12137808D+00 0.30123192D+06 0.30123192D+06 0.30123192D+06 0.10844202D+01  1  2  5  4  6  5       -1 -.608367064301D-02 0.100000000000D+01
0.362048148225D+00 0.000000000000D+00 -.000000000000D+00 0.378528225633D-04 0.000000000000D+00  6 -2 2 25 1 -1 21 2 0.37274560D+00 0.12137808D+00 0.30123192D+06 0.30123192D+06 0.30123192D+06 0.10844202D+01  1  2  6  4  6  5       -1 0.172583640937D-01 0.100000000000D+01
  </mgrwgt>
  </event>
  <event>
  5     66 0.17652913E-05 0.37381686E+03 0.75467711E-02 0.88555244E-01
       -2 -1    0    0    0  501 0.00000000E+00 0.00000000E+00 0.15655599E+04 0.15655600E+04 0.32000000E+00 0.0000E+00 0.9000E+01
        2 -1    0    0  502    0 0.00000000E+00 0.00000000E+00 -.73559474E+03 0.73559481E+03 0.32000000E+00 0.0000E+00 0.9000E+01
       25  1    1    2    0    0 0.24645556E+03 0.61218054E+03 0.37879096E+03 0.77111150E+03 0.12500000E+03 0.0000E+00 0.9000E+01
        1  1    1    2  502    0 -.29278974E+03 -.23231639E+03 -.42977647E+03 0.56956532E+03 0.32000000E+00 0.0000E+00 0.9000E+01
       -1  1    1    2    0  501 0.46334178E+02 -.37986415E+03 0.88095073E+03 0.96047796E+03 0.32000000E+00 0.0000E+00 0.9000E+01
#aMCatNLO 1  0  0  5  4 0.36651584D+03 0.00000000D+00  -5  6  0 0.00000000D+00 0.00000000D+00 0.00000000D+00 0.00000000D+00 0.00000000D+00
  <mgrwgt>
 0.1186559821D-03    4    2    0
 0.107313455746031D+04 0.000000000000000D+00 0.000000000000000D+00 0.107313455746031D+04
 0.107313455746031D+04 -.000000000000000D+00 -.000000000000000D+00 -.107313455746031D+04
 0.680306464989886D+03 0.246500563409213D+03 0.612167410810636D+03 0.108075990337254D+03
 0.776938409139138D+03 -.292827899668468D+03 -.232359351805143D+03 -.681097822930085D+03
 0.689024240791602D+03 0.463273362592552D+02 -.379808059005492D+03 0.573021832592830D+03
 0.000000000000000D+00 0.000000000000000D+00 0.000000000000000D+00 -.000000000000000D+00
 0.107313455746031D+04 0.000000000000000D+00 0.000000000000000D+00 0.107313455746031D+04
 0.107313455746031D+04 -.000000000000000D+00 -.000000000000000D+00 -.107313455746031D+04
 0.643799063253890D+03 0.257269448481572D+03 0.523880242429159D+03 0.241276099763194D+03
 0.687557295087237D+03 -.280917228206582D+03 -.330007293056830D+03 -.533774982041788D+03
 0.394253792942283D+03 -.327874058670340D+03 0.246861439222207D+02 0.217543671934319D+03
 0.420658963637216D+03 0.351521838395350D+03 -.218559093294549D+03 0.749552103442755D+02
0.198804560916D-02 0.000000000000D+00 0.000000000000D+00 0.361702220647D-06 0.000000000000D+00  6 -2 2 25 1 -1 21 0 0.24085538D+00 0.11316843D+00 0.50987228D+06 0.50987228D+06 0.50987228D+06 0.10679108D+01  1  2  2  4  6  5       -1 0.621331911637D-03 0.100000000000D+01
0.124827494372D-03 0.000000000000D+00 -.763461860360D-05 0.361702220647D-06 0.000000000000D+00  6 -2 2 25 1 -1 21 2 0.24085538D+00 0.11316843D+00 0.50987228D+06 0.50987228D+06 0.50987228D+06 0.10679108D+01  1  2  3  4  6  5       -1 0.444915479562D-04 0.100000000000D+01
-.148164917566D-02 0.000000000000D+00 0.000000000000D+00 0.361702220647D-06 0.000000000000D+00  6 -2 2 25 1 -1 21 2 0.24085538D+00 0.11316843D+00 0.50987228D+06 0.50987228D+06 0.50987228D+06 0.10679108D+01  1  2 15  4  6  5       -1 -.528095718692D-03 0.100000000000D+01
-.535085869724D-04 0.000000000000D+00 0.000000000000D+00 0.361702220647D-06 0.000000000000D+00  6 -2 2 25 1 -1 21 2 0.24085538D+00 0.11316843D+00 0.50987228D+06 0.50987228D+06 0.50987228D+06 0.10679108D+01  1  2  4  4  6  5       -1 -.190717587926D-04 0.100000000000D+01
  </mgrwgt>
  </event>
  <event>
  6     66 0.17652913E-05 0.95199927E+02 0.75467711E-02 0.94590551E-01
       -2 -1    0    0    0  501 0.00000000E+00 0.00000000E+00 0.11894618E+04 0.11894618E+04 0.32000000E+00 0.0000E+00 0.9000E+01
        2 -1    0    0  503    0 0.00000000E+00 0.00000000E+00 -.20471965E+04 0.20471965E+04 0.32000000E+00 0.0000E+00 0.9000E+01
       25  1    1    2    0    0 0.26939049E+03 -.41137128E+03 -.13327731E+04 0.14260809E+04 0.12500000E+03 0.0000E+00 0.9000E+01
        1  1    1    2  502    0 -.22811351E+03 0.31075979E+03 -.55638741E+03 0.67688587E+03 0.32000000E+00 0.0000E+00 0.9000E+01
       -1  1    1    2    0  501 -.42563822E+02 0.90705523E+02 0.10797252E+04 0.10843643E+04 0.32000000E+00 0.0000E+00 0.9000E+01
       21  1    1    2  503  502 0.12868456E+01 0.99059577E+01 -.48299392E+02 0.49327252E+02 0.75000000E+00 0.0000E+00 0.9000E+01
#aMCatNLO 2  0  0  2  4 0.99891926D+01 0.00000000D+00  -5  6  0 0.00000000D+00 0.00000000D+00 0.00000000D+00 0.00000000D+00 0.00000000D+00
  <mgrwgt>
 0.1278473626D-01    6    2    0
 0.154141120640115D+04 0.000000000000000D+00 0.000000000000000D+00 0.154141120640115D+04
 0.154141120640115D+04 0.000000000000000D+00 0.000000000000000D+00 -.154141120640115D+04
 0.112327417731242D+04 0.269874709192050D+03 -.407781707025169D+03 -.100349469264717D+04
 0.554670023940313D+03 -.227897741996087D+03 0.312563418086444D+03 -.397524294006229D+03
 0.140487821154957D+04 -.419769671959630D+02 0.952182889387247D+02 0.140101898665340D+04
 0.000000000000000D+00 0.000000000000000D+00 0.000000000000000D+00 -.000000000000000D+00
 0.154208191707960D+04 0.000000000000000D+00 0.000000000000000D+00 0.154208191707960D+04
 0.157906687739217D+04 0.000000000000000D+00 0.000000000000000D+00 -.157906687739217D+04
 0.112447773679178D+04 0.269405577072381D+03 -.411393020616089D+03 -.100349469264717D+04
 0.553763713507011D+03 -.228129085084040D+03 0.310782571278769D+03 -.397524294006229D+03
 0.140459714632703D+04 -.425633375696367D+02 0.907044916288024D+02 0.140101898665340D+04
 0.383101978459485D+02 0.128684558129608D+01 0.990595770851823D+01 -.369849603125738D+02
-.221666604564D-08 0.000000000000D+00 0.000000000000D+00 0.392367089745D-04 0.000000000000D+00  6 -2 2 25 1 -1 21 2 0.18291410D+00 0.31501859D+00 0.25155317D+06 0.25155317D+06 0.25155317D+06 0.10902568D+01  1  2 13  2  6  2        2 -.363946370041D-09 0.100000000000D+01
-.569084894640D-01 0.000000000000D+00 0.000000000000D+00 0.392367089745D-04 0.000000000000D+00  6 -2 2 25 1 -1 21 2 0.18291410D+00 0.31627338D+00 0.25155317D+06 0.25155317D+06 0.25155317D+06 0.10902568D+01  1  2 13  2  6  2        2 -.924776200359D-02 0.100000000000D+01
-.728340418752D+00 0.000000000000D+00 0.000000000000D+00 0.392367089745D-04 0.000000000000D+00  6 -2 2 25 1 -1 21 2 0.18291410D+00 0.30744195D+00 0.24780787D+06 0.24780787D+06 0.24780787D+06 0.10907470D+01  1  2  8  2  6  2        2 -.127522805586D+00 0.100000000000D+01
-.494157598395D+00 0.000000000000D+00 0.000000000000D+00 0.392367089745D-04 0.000000000000D+00  6 -2 2 25 1 -1 21 2 0.18291410D+00 0.31499956D+00 0.24780787D+06 0.24780787D+06 0.24780787D+06 0.10907470D+01  1  2  9  2  6  2        2 -.813228260853D-01 0.100000000000D+01
0.494011917469D+00 0.000000000000D+00 0.000000000000D+00 0.392367089745D-04 0.000000000000D+00  6 -2 2 25 1 -1 21 2 0.18291410D+00 0.30744195D+00 0.24780787D+06 0.24780787D+06 0.24780787D+06 0.10907470D+01  1  2 10  2  6  2        2 0.864949741723D-01 0.100000000000D+01
0.880051901603D+00 0.000000000000D+00 0.000000000000D+00 0.392367089745D-04 0.433734408410D-05  6 -2 2 25 1 -1 21 2 0.18299369D+00 0.31495256D+00 0.25155317D+06 0.25155317D+06 0.25155317D+06 0.10902568D+01  1  2  1  2  6  2        2 0.144383156131D+00 0.100000000000D+01
  </mgrwgt>
  </event>
  <event>
  5     66 -.17652913E-05 0.69574180E+02 0.75467711E-02 0.93919294E-01
       -2 -1    0    0    0  501 0.00000000E+00 0.00000000E+00 0.16927263E+04 0.16927263E+04 0.32000000E+00 0.0000E+00 0.9000E+01
        2 -1    0    0  502    0 -.00000000E+00 -.00000000E+00 -.27753798E+04 0.27753798E+04 0.32000000E+00 0.0000E+00 0.9000E+01
       25  1    1    2    0    0 -.81538806E+02 -.51442660E+03 -.35854686E+03 0.64456509E+03 0.12500000E+03 0.0000E+00 0.9000E+01
        1  1    1    2  502    0 -.20731770E+02 0.66410023E+02 -.22392045E+04 0.22402850E+04 0.32000000E+00 0.0000E+00 0.9000E+01
       -1  1    1    2    0  501 0.10227058E+03 0.44801658E+03 0.15150978E+04 0.15832560E+04 0.32000000E+00 0.0000E+00 0.9000E+01
#aMCatNLO 1  0  0  5  1 0.44707997D+01 0.00000000D+00  -5  6  0 0.00000000D+00 0.00000000D+00 0.00000000D+00 0.00000000D+00 0.00000000D+00
  <mgrwgt>
 -.4839482671D-01    9    2    0
 0.216747743785391D+04 0.000000000000000D+00 0.000000000000000D+00 0.216747743785391D+04
 0.216747743785391D+04 -.000000000000000D+00 -.000000000000000D+00 -.216747743785391D+04
 0.574799971554273D+03 -.815371308852233D+02 -.514426636264217D+03 -.208535223613860D+03
 0.174988724976816D+04 -.207327136463010D+02 0.664132601908328D+02 -.174850359460793D+04
 0.201026765438538D+04 0.102269844531524D+03 0.448013376073383D+03 0.195703881822179D+04
 0.000000000000000D+00 0.000000000000000D+00 0.000000000000000D+00 0.000000000000000D+00
 0.216747743785391D+04 0.000000000000000D+00 0.000000000000000D+00 0.216747743785391D+04
 0.216747743785391D+04 -.000000000000000D+00 -.000000000000000D+00 -.216747743785391D+04
 0.574788618182820D+03 -.815360991986571D+02 -.514422116756206D+03 -.208515481228725D+03
 0.174982768021416D+04 -.207295728627970D+02 0.664270190170791D+02 -.174844349248041D+04
 0.194264361196638D+04 0.989129377843285D+02 0.437297710468652D+03 0.189019870549939D+04
 0.676949653444456D+02 0.335273427712525D+01 0.106973872704739D+02 0.667602682097532D+02
0.897829201688D-02 0.000000000000D+00 0.000000000000D+00 0.374665226995D-02 0.000000000000D+00  6 -2 2 25 1 -1 21 0 0.26041943D+00 0.42698151D+00 0.28342320D+06 0.28342320D+06 0.28342320D+06 0.10863830D+01  1  2  2  4  6  5       -1 0.143361658677D-03 0.100000000000D+01
0.356258406159D-02 0.000000000000D+00 -.344790053834D-04 0.374665226995D-02 0.000000000000D+00  6 -2 2 25 1 -1 21 2 0.26041943D+00 0.42698151D+00 0.28342320D+06 0.28342320D+06 0.28342320D+06 0.10863830D+01  1  2  3  4  6  5       -1 0.671382954103D-04 0.100000000000D+01
-.668066957678D-02 0.000000000000D+00 0.000000000000D+00 0.374665226995D-02 0.000000000000D+00  6 -2 2 25 1 -1 21 2 0.26041943D+00 0.42698151D+00 0.28342320D+06 0.28342320D+06 0.28342320D+06 0.10863830D+01  1  2 15  4  6  5       -1 -.125899841191D-03 0.100000000000D+01
0.340303961282D-10 0.000000000000D+00 0.000000000000D+00 0.374665226995D-02 0.000000000000D+00  6 -2 2 25 1 -1 21 2 0.26041943D+00 0.42698151D+00 0.28343654D+06 0.28343654D+06 0.28343654D+06 0.10863815D+01  1  2 12  4  6  5       -1 0.641310916603D-12 0.100000000000D+01
0.102066323232D+01 0.000000000000D+00 0.000000000000D+00 0.374665226995D-02 0.000000000000D+00  6 -2 2 25 1 -1 21 2 0.26041943D+00 0.42698151D+00 0.28343654D+06 0.28343654D+06 0.28343654D+06 0.10863815D+01  1  2 12  4  6  5       -1 0.192346416008D-01 0.100000000000D+01
-.466670027163D+02 0.000000000000D+00 0.000000000000D+00 0.374665226995D-02 0.000000000000D+00  6 -2 2 25 1 -1 21 2 0.26041943D+00 0.42698151D+00 0.28342320D+06 0.28342320D+06 0.28342320D+06 0.10863830D+01  1  2  4  4  6  5       -1 -.879457988950D+00 0.100000000000D+01
-.243951120918D+02 0.000000000000D+00 0.000000000000D+00 0.374665226995D-02 0.000000000000D+00  6 -2 2 25 1 -1 21 2 0.26041943D+00 0.42698151D+00 0.28342320D+06 0.28342320D+06 0.28342320D+06 0.10863830D+01  1  2  5  4  6  5       -1 -.459735465569D+00 0.100000000000D+01
0.252304314687D+02 0.000000000000D+00 -.000000000000D+00 0.374665226995D-02 0.000000000000D+00  6 -2 2 25 1 -1 21 2 0.26041943D+00 0.42698151D+00 0.28342320D+06 0.28342320D+06 0.28342320D+06 0.10863830D+01  1  2  6  4  6  5       -1 0.475477387195D+00 0.100000000000D+01
0.422388932419D+02 0.000000000000D+00 0.000000000000D+00 0.374665226995D-02 0.211139729362D-02  6 -2 2 25 1 -1 21 2 0.26041943D+00 0.42698151D+00 0.28343654D+06 0.28343654D+06 0.28343654D+06 0.10863815D+01  1  2 11  4  6  5       -1 0.796001998895D+00 0.100000000000D+01
  </mgrwgt>
  </event>
  <event>
  5     66 0.17652913E-05 0.72760554E+02 0.75467711E-02 0.91985794E-01
       -2 -1    0    0    0  501 0.00000000E+00 0.00000000E+00 0.24139946E+03 0.24139968E+03 0.32000000E+00 0.0000E+00 0.9000E+01
        2 -1    0    0  502    0 -.00000000E+00 -.00000000E+00 -.33800016E+04 0.33800016E+04 0.32000000E+00 0.0000E+00 0.9000E+01
       25  1    1    2    0    0 0.50533632E+03 -.28006258E+03 -.13908069E+04 0.15112143E+04 0.12500000E+03 0.0000E+00 0.9000E+01
        1  1    1    2  502    0 -.49238749E+03 0.35168061E+03 -.18713762E+04 0.19667673E+04 0.32000000E+00 0.0000E+00 0.9000E+01
       -1  1    1    2    0  501 -.12948831E+02 -.71618035E+02 0.12358102E+03 0.14341962E+03 0.32000000E+00 0.0000E+00 0.9000E+01
#aMCatNLO 1  0  0  5  1 0.94922311D+01 0.00000000D+00  -5  6  0 0.00000000D+00 0.00000000D+00 0.00000000D+00 0.00000000D+00 0.00000000D+00
  <mgrwgt>
 0.9576726268D-02    9    2    0
 0.903288982141675D+03 0.000000000000000D+00 0.000000000000000D+00 0.903288982141675D+03
 0.903288982141675D+03 -.000000000000000D+00 -.000000000000000D+00 -.903288982141675D+03
 0.613128347467394D+03 0.505416255092287D+03 -.280125494726805D+03 -.162436100546180D+03
 0.691385076255432D+03 -.492470745041328D+03 0.351725159466644D+03 -.334328133942288D+03
 0.502064540560525D+03 -.129455100509587D+02 -.715996647398393D+02 0.496764234488468D+03
 0.000000000000000D+00 0.000000000000000D+00 -.000000000000000D+00 0.000000000000000D+00
 0.903288982141675D+03 0.000000000000000D+00 0.000000000000000D+00 0.903288982141675D+03
 0.903288982141675D+03 -.000000000000000D+00 -.000000000000000D+00 -.903288982141675D+03
 0.613097306785786D+03 0.505412585718014D+03 -.280145789482803D+03 -.162295293896261D+03
 0.691299618373833D+03 -.492474882605755D+03 0.351702275221480D+03 -.334169361208191D+03
 0.346217789506828D+03 -.153013514930898D+02 -.423755503124479D+02 0.343273854450344D+03
 0.155963249616903D+03 0.236364838083082D+01 -.291809354262288D+02 0.153190800654107D+03
0.924748198904D-04 0.000000000000D+00 0.000000000000D+00 0.384069905984D-05 0.000000000000D+00  6 -2 2 25 1 -1 21 0 0.37138397D-01 0.52000026D+00 0.40268950D+06 0.40268950D+06 0.40268950D+06 0.10752179D+01  1  2  2  4  6  5       -1 0.773240907693D-04 0.100000000000D+01
0.284037967297D-04 0.000000000000D+00 -.355127657559D-06 0.384069905984D-05 0.000000000000D+00  6 -2 2 25 1 -1 21 2 0.37138397D-01 0.52000026D+00 0.40268950D+06 0.40268950D+06 0.40268950D+06 0.10752179D+01  1  2  3  4  6  5       -1 0.274574804160D-04 0.100000000000D+01
-.619007609750D-04 0.000000000000D+00 0.000000000000D+00 0.384069905984D-05 0.000000000000D+00  6 -2 2 25 1 -1 21 2 0.37138397D-01 0.52000026D+00 0.40268950D+06 0.40268950D+06 0.40268950D+06 0.10752179D+01  1  2 15  4  6  5       -1 -.598384416134D-04 0.100000000000D+01
0.345084407722D-07 0.000000000000D+00 0.000000000000D+00 0.384069905984D-05 0.000000000000D+00  6 -2 2 25 1 -1 21 2 0.37138397D-01 0.52000026D+00 0.40368386D+06 0.40368386D+06 0.40368386D+06 0.10751407D+01  1  2 12  4  6  5       -1 0.333476578661D-07 0.100000000000D+01
0.139431861807D-01 0.000000000000D+00 0.000000000000D+00 0.384069905984D-05 0.000000000000D+00  6 -2 2 25 1 -1 21 2 0.37138397D-01 0.52000026D+00 0.40368386D+06 0.40368386D+06 0.40368386D+06 0.10751407D+01  1  2 12  4  6  5       -1 0.134741701425D-01 0.100000000000D+01
-.944717366011D-02 0.000000000000D+00 0.000000000000D+00 0.384069905984D-05 0.000000000000D+00  6 -2 2 25 1 -1 21 2 0.37138397D-01 0.52000026D+00 0.40268950D+06 0.40268950D+06 0.40268950D+06 0.10752179D+01  1  2  4  4  6  5       -1 -.913242649311D-02 0.100000000000D+01
-.150920197582D-01 0.000000000000D+00 0.000000000000D+00 0.384069905984D-05 0.000000000000D+00  6 -2 2 25 1 -1 21 2 0.37138397D-01 0.52000026D+00 0.40268950D+06 0.40268950D+06 0.40268950D+06 0.10752179D+01  1  2  5  4  6  5       -1 -.145892058337D-01 0.100000000000D+01
0.204608156961D-01 0.000000000000D+00 -.000000000000D+00 0.384069905984D-05 0.000000000000D+00  6 -2 2 25 1 -1 21 2 0.37138397D-01 0.52000026D+00 0.40268950D+06 0.40268950D+06 0.40268950D+06 0.10752179D+01  1  2  6  4  6  5       -1 0.197791320512D-01 0.100000000000D+01
0.827064168388D-07 0.000000000000D+00 0.000000000000D+00 0.384069905984D-05 0.737276829980D-07  6 -2 2 25 1 -1 21 2 0.37138397D-01 0.52000026D+00 0.40368386D+06 0.40368386D+06 0.40368386D+06 0.10751407D+01  1  2 11  4  6  5       -1 0.799243672085D-07 0.100000000000D+01
  </mgrwgt>
  </event>
  <event>
  5     66 0.17652913E-05 0.70935009E+02 0.75467711E-02 0.91589808E-01
       -2 -1    0    0    0  501 0.00000000E+00 0.00000000E+00 0.72472100E+03 0.72472107E+03 0.32000000E+00 0.0000E+00 0.9000E+01
        2 -1    0    0  502    0 0.00000000E+00 0.00000000E+00 -.57722375E+03 0.57722384E+03 0.32000000E+00 0.0000E+00 0.9000E+01
       25  1    1    2    0    0 -.31921665E+03 -.32823516E+03 0.11249276E+00 0.47461837E+03 0.12500000E+03 0.0000E+00 0.9000E+01
        1  1    1    2  502    0 0.25264237E+03 0.30366417E+03 -.22068079E+03 0.45248227E+03 0.32000000E+00 0.0000E+00 0.9000E+01
       -1  1    1    2    0  501 0.66574279E+02 0.24570989E+02 0.36806555E+03 0.37484426E+03 0.32000000E+00 0.0000E+00 0.9000E+01
#aMCatNLO 1  0  0  1  4 0.94835559D+02 0.00000000D+00  -5  6  0 0.00000000D+00 0.00000000D+00 0.00000000D+00 0.00000000D+00 0.00000000D+00
  <mgrwgt>
 0.1043435848D-01    7    4    0
 0.646781475824607D+03 0.000000000000000D+00 0.000000000000000D+00 0.646781475824607D+03
 0.646781475824607D+03 0.000000000000000D+00 0.000000000000000D+00 -.646781475824607D+03
 0.477741101586657D+03 -.319260790432754D+03 -.328299363731353D+03 -.538853932998052D+02
 0.480653441602929D+03 0.252713569538035D+03 0.303738361188950D+03 -.273690684237400D+03
 0.335168408459628D+03 0.665472208947195D+02 0.245610025424025D+02 0.327576077537206D+03
 0.000000000000000D+00 -.000000000000000D+00 0.000000000000000D+00 0.000000000000000D+00
 0.889471634186458D+03 0.000000000000000D+00 0.000000000000000D+00 0.889471634186458D+03
 0.765816520901163D+03 0.000000000000000D+00 0.000000000000000D+00 -.765816520901163D+03
 0.492133555266069D+03 -.240138961478333D+03 -.407431073665048D+03 -.538853932998052D+02
 0.485179340233017D+03 0.331505664602129D+03 0.224936426323772D+03 -.273690684237400D+03
 0.351154714715405D+03 0.122537075228613D+03 -.314358439780661D+02 0.327576077537206D+03
 0.326820544873131D+03 -.213903778352409D+03 0.213930491319342D+03 0.123655113285295D+03
 0.646781475824607D+03 0.000000000000000D+00 0.000000000000000D+00 0.646781475824607D+03
 0.646781475824607D+03 0.000000000000000D+00 0.000000000000000D+00 -.646781475824607D+03
 0.477741101586657D+03 -.319260790432754D+03 -.328299363731353D+03 -.538853932998052D+02
 0.480653441602929D+03 0.252713569538035D+03 0.303738361188950D+03 -.273690684237400D+03
 0.000000000000000D+00 -.000000000000000D+00 0.000000000000000D+00 0.000000000000000D+00
 0.335168408459628D+03 0.665472208947195D+02 0.245610025424025D+02 0.327576077537206D+03
 0.889471634186458D+03 0.000000000000000D+00 0.000000000000000D+00 0.889471634186458D+03
 0.765816520901163D+03 0.000000000000000D+00 0.000000000000000D+00 -.765816520901163D+03
 0.492133555266069D+03 -.240138961478333D+03 -.407431073665048D+03 -.538853932998052D+02
 0.485179340233017D+03 0.331505664602129D+03 0.224936426323772D+03 -.273690684237400D+03
 0.326820544873131D+03 -.213903778352409D+03 0.213930491319342D+03 0.123655113285295D+03
 0.351154714715405D+03 0.122537075228613D+03 -.314358439780661D+02 0.327576077537206D+03
0.149925857402D-02 0.000000000000D+00 0.000000000000D+00 0.525777351668D-05 0.000000000000D+00  6 -2 2 25 1 -1 21 0 0.11149555D+00 0.88803666D-01 0.22125224D+06 0.22125224D+06 0.22125224D+06 0.10944728D+01  1  2  2  1  6  1       -2 0.618720365529D-02 0.100000000000D+01
0.335121367051D-03 0.000000000000D+00 -.575754768808D-05 0.525777351668D-05 0.000000000000D+00  6 -2 2 25 1 -1 21 2 0.11149555D+00 0.88803666D-01 0.22125224D+06 0.22125224D+06 0.22125224D+06 0.10944728D+01  1  2  3  1  6  1       -2 0.165664684243D-02 0.100000000000D+01
-.100891439266D-02 0.000000000000D+00 0.000000000000D+00 0.525777351668D-05 0.000000000000D+00  6 -2 2 25 1 -1 21 2 0.11149555D+00 0.88803666D-01 0.22125224D+06 0.22125224D+06 0.22125224D+06 0.10944728D+01  1  2 15  1  6  1       -2 -.498749112179D-02 0.100000000000D+01
-.837905346386D-04 0.000000000000D+00 0.000000000000D+00 0.525777351668D-05 0.000000000000D+00  6 -2 2 25 1 -1 21 2 0.11149555D+00 0.88803666D-01 0.22125224D+06 0.22125224D+06 0.22125224D+06 0.10944728D+01  1  2  4  1  6  1       -2 -.414212098310D-03 0.100000000000D+01
-.200844087642D-02 0.000000000000D+00 -.118147901880D-02 0.525777351668D-05 0.000000000000D+00  6 -2 2 25 1 -1 21 2 0.17177567D+00 0.88803666D-01 0.22125224D+06 0.22125224D+06 0.22125224D+06 0.10944728D+01  1  2  5  1  6  1       -2 -.311338371302D-02 0.100000000000D+01
0.239431665972D-02 0.000000000000D+00 0.107911081954D-02 0.525777351668D-05 0.000000000000D+00  6 -2 2 25 1 -1 21 2 0.11149555D+00 0.88803666D-01 0.22125224D+06 0.22125224D+06 0.22125224D+06 0.10944728D+01  1  2  6  1  6  1       -2 0.118361212507D-01 0.100000000000D+01
-.565716206144D-04 0.000000000000D+00 -.595579821121D-04 0.525777351668D-05 0.000000000000D+00  6 21 2 25 1 2 -1 2 0.17177567D+00 0.88803666D-01 0.22125224D+06 0.22125224D+06 0.22125224D+06 0.10944728D+01  3  4  5  5  5  1       -2 -.730526337282D-03 0.100000000000D+01
  </mgrwgt>
  </event>
  <event>
  6     66 0.17652913E-05 0.12250191E+03 0.75467711E-02 0.93431274E-01
       -2 -1    0    0    0  503 0.00000000E+00 0.00000000E+00 0.49700539E+03 0.49700549E+03 0.32000000E+00 0.0000E+00 0.9000E+01
        2 -1    0    0  502    0 0.00000000E+00 0.00000000E+00 -.31476657E+04 0.31476658E+04 0.32000000E+00 0.0000E+00 0.9000E+01
       25  1    1    2    0    0 -.50904838E+03 0.10412131E+03 -.30836224E+03 0.61699576E+03 0.12500000E+03 0.0000E+00 0.9000E+01
        1  1    1    2  502    0 0.44582781E+03 0.10338282E+02 -.26518713E+04 0.26891059E+04 0.32000000E+00 0.0000E+00 0.9000E+01
       -1  1    1    2    0  501 0.57336634E+02 -.11189520E+03 0.26252734E+03 0.29108200E+03 0.32000000E+00 0.0000E+00 0.9000E+01
       21  1    1    2  501  503 0.58839326E+01 -.25643953E+01 0.47045816E+02 0.47487557E+02 0.75000000E+00 0.0000E+00 0.9000E+01
#aMCatNLO 2  0  0  1  5 0.64184722D+01 0.00000000D+00  -5  6  0 0.00000000D+00 0.00000000D+00 0.00000000D+00 0.00000000D+00 0.00000000D+00
  <mgrwgt>
 0.3316926618D-01    6    2    0
 0.118975530446038D+04 0.000000000000000D+00 0.000000000000000D+00 0.118975530446038D+04
 0.118975530446038D+04 0.000000000000000D+00 0.000000000000000D+00 -.118975530446038D+04
 0.581848544732092D+03 -.507656704426521D+03 0.103478937179204D+03 0.233451299028126D+03
 0.105983878041488D+04 0.448504533684865D+03 0.919451447130299D+01 -.960217363225150D+03
 0.737823283773779D+03 0.591521707416565D+02 -.112673451650507D+03 0.726766064197025D+03
 0.000000000000000D+00 0.000000000000000D+00 -.000000000000000D+00 0.000000000000000D+00
 0.131479986145264D+04 0.000000000000000D+00 0.000000000000000D+00 0.131479986145264D+04
 0.118984199979895D+04 0.000000000000000D+00 0.000000000000000D+00 -.118984199979895D+04
 0.583217488202956D+03 -.509097159758822D+03 0.104106731066472D+03 0.233451299028126D+03
 0.105874350582422D+04 0.445885177300882D+03 0.103361090001770D+02 -.960217363225150D+03
 0.737558271444735D+03 0.573280499035973D+02 -.111878444761995D+03 0.726766064197025D+03
 0.125122595779682D+03 0.588393255434180D+01 -.256439530465395D+01 0.124957861653691D+03
-.104252548903D-07 0.000000000000D+00 0.000000000000D+00 0.330228644519D-04 0.000000000000D+00  6 -2 2 25 1 -1 21 2 0.76464673D-01 0.48422054D+00 0.30946440D+06 0.30946440D+06 0.30946440D+06 0.10835553D+01  1  2 13  1  6  1       -2 -.347152553465D-08 0.100000000000D+01
-.164380994652D+00 0.000000000000D+00 0.000000000000D+00 0.330228644519D-04 0.000000000000D+00  6 -2 2 25 1 -1 21 2 0.77027426D-01 0.48422054D+00 0.30946440D+06 0.30946440D+06 0.30946440D+06 0.10835553D+01  1  2 13  1  6  1       -2 -.538517823510D-01 0.100000000000D+01
-.660677079162D-03 0.000000000000D+00 0.000000000000D+00 0.330228644519D-04 0.000000000000D+00  6 -2 2 25 1 -1 21 2 0.69190327D-01 0.48422054D+00 0.30736894D+06 0.30736894D+06 0.30736894D+06 0.10837730D+01  1  2  8  1  6  1       -2 -.274118740961D-03 0.100000000000D+01
-.458718202080D-03 0.000000000000D+00 0.000000000000D+00 0.330228644519D-04 0.000000000000D+00  6 -2 2 25 1 -1 21 2 0.76464756D-01 0.48422054D+00 0.30736894D+06 0.30736894D+06 0.30736894D+06 0.10837730D+01  1  2  9  1  6  1       -2 -.152898414890D-03 0.100000000000D+01
0.456435545503D-03 0.000000000000D+00 0.000000000000D+00 0.330228644519D-04 0.000000000000D+00  6 -2 2 25 1 -1 21 2 0.69190327D-01 0.48422054D+00 0.30736894D+06 0.30736894D+06 0.30736894D+06 0.10837730D+01  1  2 10  1  6  1       -2 0.189377747480D-03 0.100000000000D+01
0.262116836354D+00 0.000000000000D+00 0.000000000000D+00 0.330228644519D-04 0.835431732698D-05  6 -2 2 25 1 -1 21 2 0.76462304D-01 0.48425582D+00 0.30946440D+06 0.30946440D+06 0.30946440D+06 0.10835553D+01  1  2  1  1  6  1       -2 0.872586914100D-01 0.100000000000D+01
  </mgrwgt>
  </event>
  <event>
  5     66 0.17652913E-05 0.40862475E+02 0.75467711E-02 0.94326979E-01
       -2 -1    0    0    0  501 0.00000000E+00 0.00000000E+00 0.31564654E+03 0.31564670E+03 0.32000000E+00 0.0000E+00 0.9000E+01
        2 -1    0    0  502    0 -.00000000E+00 -.00000000E+00 -.20900579E+04 0.20900580E+04 0.32000000E+00 0.0000E+00 0.9000E+01
       25  1    1    2    0    0 -.36829243E+03 0.28312950E+03 -.10181777E+04 0.11261050E+04 0.12500000E+03 0.0000E+00 0.9000E+01
        1  1    1    2  502    0 -.36259848E+02 0.18849138E+02 -.77339857E+03 0.77447757E+03 0.32000000E+00 0.0000E+00 0.9000E+01
       -1  1    1    2    0  501 0.40455228E+03 -.30197864E+03 0.17164815E+02 0.50512215E+03 0.32000000E+00 0.0000E+00 0.9000E+01
#aMCatNLO 1  0  0  5  1 0.38390706D+03 0.00000000D+00  -5  6  0 0.00000000D+00 0.00000000D+00 0.00000000D+00 0.00000000D+00 0.00000000D+00
  <mgrwgt>
 0.4286341115D-01    3    2    0
 0.812231360886688D+03 0.000000000000000D+00 0.000000000000000D+00 0.812231360886688D+03
 0.812231360886688D+03 -.000000000000000D+00 -.000000000000000D+00 -.812231360886688D+03
 0.555539914069902D+03 -.368299843841032D+03 0.283134223143409D+03 -.277830582975387D+03
 0.302119132839094D+03 -.362563182989107D+02 0.188473135195108D+02 -.299342994880373D+03
 0.766803674864380D+03 0.404556162139943D+03 -.301981536662920D+03 0.577173577855761D+03
 0.000000000000000D+00 -.000000000000000D+00 0.000000000000000D+00 0.000000000000000D+00
 0.812231360886688D+03 0.000000000000000D+00 0.000000000000000D+00 0.812231360886688D+03
 0.812231360886688D+03 -.000000000000000D+00 -.000000000000000D+00 -.812231360886688D+03
 0.431268425860513D+03 -.295804998641478D+03 0.229020340320066D+03 -.174403387703912D+03
 0.242537270745958D+03 0.375629617456308D+01 -.110201608521213D+02 -.242257660342744D+03
 0.506930820812317D+03 0.484133906764945D+03 -.148580974897113D+03 0.227356835961479D+02
 0.443726204354588D+03 -.192085204298030D+03 -.694192045708324D+02 0.393925364450509D+03
0.224008327240D-01 0.000000000000D+00 0.000000000000D+00 0.224657121884D-04 0.000000000000D+00  6 -2 2 25 1 -1 21 0 0.48561021D-01 0.32154739D+00 0.26356637D+06 0.26356637D+06 0.26356637D+06 0.10887368D+01  1  2  2  4  6  5       -1 0.703298244534D-01 0.100000000000D+01
0.746451730082D-02 0.000000000000D+00 -.860250959347D-04 0.224657121884D-04 0.000000000000D+00  6 -2 2 25 1 -1 21 2 0.48561021D-01 0.32154739D+00 0.26356637D+06 0.26356637D+06 0.26356637D+06 0.10887368D+01  1  2  3  4  6  5       -1 0.277794016639D-01 0.100000000000D+01
-.148449324646D-01 0.000000000000D+00 0.000000000000D+00 0.224657121884D-04 0.000000000000D+00  6 -2 2 25 1 -1 21 2 0.48561021D-01 0.32154739D+00 0.26356637D+06 0.26356637D+06 0.26356637D+06 0.10887368D+01  1  2 15  4  6  5       -1 -.552458149652D-01 0.100000000000D+01
  </mgrwgt>
  </event>
  <event>
  5     66 0.17652913E-05 0.10264169E+03 0.75467711E-02 0.95010796E-01
       -2 -1    0    0    0  501 0.00000000E+00 0.00000000E+00 0.38917662E+03 0.38917675E+03 0.32000000E+00 0.0000E+00 0.9000E+01
        2 -1    0    0  502    0 0.00000000E+00 0.00000000E+00 -.13566113E+04 0.13566113E+04 0.32000000E+00 0.0000E+00 0.9000E+01
       25  1    1    2    0    0 -.40733062E+03 0.19886908E+03 0.41360061E+02 0.47201991E+03 0.12500000E+03 0.0000E+00 0.9000E+01
        1  1    1    2  502    0 0.25999426E+02 -.99271657E+02 -.83794756E+03 0.84420794E+03 0.32000000E+00 0.0000E+00 0.9000E+01
       -1  1    1    2    0  501 0.38133119E+03 -.99597426E+02 -.17084715E+03 0.42956021E+03 0.32000000E+00 0.0000E+00 0.9000E+01
#aMCatNLO 1  0  0  1  5 0.48312165D+02 0.00000000D+00  -5  6  0 0.00000000D+00 0.00000000D+00 0.00000000D+00 0.00000000D+00 0.00000000D+00
  <mgrwgt>
 0.8666812196D-02   11    4    0
 0.726609620974446D+03 0.000000000000000D+00 0.000000000000000D+00 0.726609620974446D+03
 0.726609620974446D+03 0.000000000000000D+00 0.000000000000000D+00 -.726609620974446D+03
 0.594590394652747D+03 -.407218711382123D+03 0.198858461238107D+03 0.364061767983957D+03
 0.456449872706790D+03 0.260070317606144D+02 -.992922496118572D+02 -.444759676409703D+03
 0.402178974589354D+03 0.381211679621508D+03 -.995662116262494D+02 0.806979084257460D+02
 0.000000000000000D+00 -.000000000000000D+00 -.000000000000000D+00 0.000000000000000D+00
 0.784569223798557D+03 0.000000000000000D+00 0.000000000000000D+00 0.784569223798557D+03
 0.737148895880327D+03 0.000000000000000D+00 0.000000000000000D+00 -.737148895880327D+03
 0.586491453380312D+03 -.390214316185440D+03 0.208660109806534D+03 0.364061767983957D+03
 0.455802629319780D+03 0.391410089608023D+02 -.917215817149420D+02 -.444759676409703D+03
 0.411728004637442D+03 0.392929746367821D+03 -.928117007588974D+02 0.806979084257460D+02
 0.676960323413505D+02 -.418564391431831D+02 -.241268273326947D+02 0.474203279182306D+02
 0.726609620974446D+03 0.000000000000000D+00 0.000000000000000D+00 0.726609620974446D+03
 0.726609620974446D+03 0.000000000000000D+00 0.000000000000000D+00 -.726609620974446D+03
 0.594590394652747D+03 -.407218711382123D+03 0.198858461238107D+03 0.364061767983957D+03
 0.456449872706790D+03 0.260070317606144D+02 -.992922496118572D+02 -.444759676409703D+03
 0.000000000000000D+00 -.000000000000000D+00 -.000000000000000D+00 0.000000000000000D+00
 0.402178974589354D+03 0.381211679621508D+03 -.995662116262494D+02 0.806979084257460D+02
 0.784569223798557D+03 0.000000000000000D+00 0.000000000000000D+00 0.784569223798557D+03
 0.737148895880327D+03 0.000000000000000D+00 0.000000000000000D+00 -.737148895880327D+03
 0.586491453380312D+03 -.390214316185440D+03 0.208660109806534D+03 0.364061767983957D+03
 0.455802629319780D+03 0.391410089608023D+02 -.917215817149420D+02 -.444759676409703D+03
 0.676960323413505D+02 -.418564391431831D+02 -.241268273326947D+02 0.474203279182306D+02
 0.411728004637442D+03 0.392929746367821D+03 -.928117007588974D+02 0.806979084257460D+02
0.255802162063D-03 0.000000000000D+00 0.000000000000D+00 0.931188694594D-06 0.000000000000D+00  6 -2 2 25 1 -1 21 0 0.59873340D-01 0.20870944D+00 0.23364865D+06 0.23364865D+06 0.23364865D+06 0.10926760D+01  1  2  2  1  6  1       -2 0.133303205244D-02 0.100000000000D+01
0.400786807623D-04 0.000000000000D+00 -.982347656576D-06 0.931188694594D-06 0.000000000000D+00  6 -2 2 25 1 -1 21 2 0.59873340D-01 0.20870944D+00 0.23364865D+06 0.23364865D+06 0.23364865D+06 0.10926760D+01  1  2  3  1  6  1       -2 0.249363346679D-03 0.100000000000D+01
-.139482683291D-03 0.000000000000D+00 0.000000000000D+00 0.931188694594D-06 0.000000000000D+00  6 -2 2 25 1 -1 21 2 0.59873340D-01 0.20870944D+00 0.23364865D+06 0.23364865D+06 0.23364865D+06 0.10926760D+01  1  2 15  1  6  1       -2 -.867839660577D-03 0.100000000000D+01
0.123969379253D-06 0.000000000000D+00 0.000000000000D+00 0.931188694594D-06 0.000000000000D+00  6 -2 2 25 1 -1 21 2 0.65061468D-01 0.20870944D+00 0.25583106D+06 0.25583106D+06 0.25583106D+06 0.10897066D+01  1  2 12  1  6  1       -2 0.642060078845D-06 0.100000000000D+01
0.207977058521D-02 0.000000000000D+00 0.000000000000D+00 0.931188694594D-06 0.000000000000D+00  6 -2 2 25 1 -1 21 2 0.66591714D-01 0.20870944D+00 0.25583106D+06 0.25583106D+06 0.25583106D+06 0.10897066D+01  1  2 12  1  6  1       -2 0.102522709716D-01 0.100000000000D+01
-.978906748009D-03 0.000000000000D+00 0.000000000000D+00 0.931188694594D-06 0.000000000000D+00  6 -2 2 25 1 -1 21 2 0.59873340D-01 0.20870944D+00 0.23364865D+06 0.23364865D+06 0.23364865D+06 0.10926760D+01  1  2  4  1  6  1       -2 -.609060623071D-02 0.100000000000D+01
-.538140082672D-02 0.000000000000D+00 -.823203273565D-03 0.931188694594D-06 0.000000000000D+00  6 -2 2 25 1 -1 21 2 0.65318425D-01 0.20870944D+00 0.23364865D+06 0.23364865D+06 0.23364865D+06 0.10926760D+01  1  2  5  1  6  1       -2 -.279037280177D-01 0.100000000000D+01
0.543555929778D-02 0.000000000000D+00 0.820094607125D-03 0.931188694594D-06 0.000000000000D+00  6 -2 2 25 1 -1 21 2 0.59873340D-01 0.20870944D+00 0.23364865D+06 0.23364865D+06 0.23364865D+06 0.10926760D+01  1  2  6  1  6  1       -2 0.338192084116D-01 0.100000000000D+01
0.175009101853D-08 0.000000000000D+00 0.000000000000D+00 0.931188694594D-06 0.000000000000D+00  6 21 2 25 1 2 -1 2 0.65061468D-01 0.20870944D+00 0.25583106D+06 0.25583106D+06 0.25583106D+06 0.10897066D+01  3  4 12  5  5  1       -2 0.905289271304D-07 0.100000000000D+01
0.363960558700D-04 0.000000000000D+00 0.000000000000D+00 0.931188694594D-06 0.000000000000D+00  6 21 2 25 1 2 -1 2 0.66591714D-01 0.20870944D+00 0.25583106D+06 0.25583106D+06 0.25583106D+06 0.10897066D+01  3  4 12  5  5  1       -2 0.178447445828D-02 0.100000000000D+01
-.753533097328D-04 0.000000000000D+00 -.118470201906D-04 0.931188694594D-06 0.000000000000D+00  6 21 2 25 1 2 -1 2 0.65318425D-01 0.20870944D+00 0.23364865D+06 0.23364865D+06 0.23364865D+06 0.10926760D+01  3  4  5  5  5  1       -2 -.391009572452D-02 0.100000000000D+01
  </mgrwgt>
  </event>
  <event>
  6     66 -.17652913E-05 0.13555898E+03 0.75467711E-02 0.89438296E-01
       -2 -1    0    0    0  501 0.00000000E+00 0.00000000E+00 0.97188525E+03 0.97188530E+03 0.32000000E+00 0.0000E+00 0.9000E+01
        2 -1    0    0  502    0 -.00000000E+00 -.00000000E+00 -.12854388E+04 0.12854389E+04 0.32000000E+00 0.0000E+00 0.9000E+01
       25  1    1    2    0    0 0.31845260E+03 -.72619757E+03 -.26543013E+03 0.84548987E+03 0.12500000E+03 0.0000E+00 0.9000E+01
        1  1    1    2  502    0 0.22173309E+02 0.14284577E+03 -.54907617E+03 0.56778633E+03 0.32000000E+00 0.0000E+00 0.9000E+01
       -1  1    1    2    0  503 -.31447231E+03 0.55153392E+03 0.48831723E+03 0.80095962E+03 0.32000000E+00 0.0000E+00 0.9000E+01
       21  1    1    2  503  501 -.26153598E+02 0.31817871E+02 0.12635501E+02 0.43088351E+02 0.75000000E+00 0.0000E+00 0.9000E+01
#aMCatNLO 2  0  0  5  1 0.15270443D+02 0.00000000D+00  -5  6  0 0.00000000D+00 0.00000000D+00 0.00000000D+00 0.00000000D+00 0.00000000D+00
  <mgrwgt>
 -.1452752679D-03    6    2    0
 0.111772051219283D+04 0.000000000000000D+00 0.000000000000000D+00 0.111772051219283D+04
 0.111772051219283D+04 -.000000000000000D+00 -.000000000000000D+00 -.111772051219283D+04
 0.817255910432100D+03 0.318763722320224D+03 -.726811751892674D+03 -.149721707776316D+03
 0.496928259612780D+03 0.224062571570764D+02 0.142528188450748D+03 -.475522208039693D+03
 0.921256854340784D+03 -.341169979477300D+03 0.584283563441927D+03 0.625243915816010D+03
 0.000000000000000D+00 -.000000000000000D+00 0.000000000000000D+00 0.000000000000000D+00
 0.111772051219283D+04 0.000000000000000D+00 0.000000000000000D+00 0.111772051219283D+04
 0.111772051219283D+04 -.000000000000000D+00 -.000000000000000D+00 -.111772051219283D+04
 0.816406710910684D+03 0.318386019206749D+03 -.726164902127633D+03 -.149029511546020D+03
 0.496628189147179D+03 0.221765467142918D+02 0.142921587765293D+03 -.475101230036381D+03
 0.877188631755531D+03 -.314427381462792D+03 0.551464292117961D+03 0.605377941443549D+03
 0.452174925722691D+02 -.261351844582494D+02 0.317790222443796D+02 0.187528001388517D+02
-.333348777800D-08 0.000000000000D+00 0.000000000000D+00 0.715374575862D-06 0.000000000000D+00  6 -2 2 25 1 -1 21 2 0.14952081D+00 0.19775983D+00 0.65875279D+06 0.65875279D+06 0.65875279D+06 0.10601485D+01  1  2 13  4  6  5       -1 -.227446674859D-08 0.100000000000D+01
-.446029486436D-03 0.000000000000D+00 0.000000000000D+00 0.715374575862D-06 0.000000000000D+00  6 -2 2 25 1 -1 21 2 0.14952081D+00 0.19775983D+00 0.65875279D+06 0.65875279D+06 0.65875279D+06 0.10601485D+01  1  2 13  4  6  5       -1 -.304329670108D-03 0.100000000000D+01
-.537057221190D-03 0.000000000000D+00 0.000000000000D+00 0.715374575862D-06 0.000000000000D+00  6 -2 2 25 1 -1 21 2 0.14952081D+00 0.19775983D+00 0.65958803D+06 0.65958803D+06 0.65958803D+06 0.10601105D+01  1  2  8  4  6  5       -1 -.366384807325D-03 0.100000000000D+01
-.231586886981D-03 0.000000000000D+00 0.000000000000D+00 0.715374575862D-06 0.000000000000D+00  6 -2 2 25 1 -1 21 2 0.14952081D+00 0.19775983D+00 0.65958803D+06 0.65958803D+06 0.65958803D+06 0.10601105D+01  1  2  9  4  6  5       -1 -.157990459149D-03 0.100000000000D+01
0.243232328911D-03 0.000000000000D+00 0.000000000000D+00 0.715374575862D-06 0.000000000000D+00  6 -2 2 25 1 -1 21 2 0.14952081D+00 0.19775983D+00 0.65958803D+06 0.65958803D+06 0.65958803D+06 0.10601105D+01  1  2 10  4  6  5       -1 0.165935074415D-03 0.100000000000D+01
0.758450079817D-03 0.000000000000D+00 0.000000000000D+00 0.715374575862D-06 0.877538081244D-08  6 -2 2 25 1 -1 21 2 0.14952081D+00 0.19775983D+00 0.65875279D+06 0.65875279D+06 0.65875279D+06 0.10601485D+01  1  2  1  4  6  5       -1 0.517496868712D-03 0.100000000000D+01
  </mgrwgt>
  </event>
  <event>
  5     66 -.17652913E-05 0.85662011E+02 0.75467711E-02 0.94090003E-01
       -2 -1    0    0    0  501 0.00000000E+00 0.00000000E+00 0.42403440E+03 0.42403452E+03 0.32000000E+00 0.0000E+00 0.9000E+01
        2 -1    0    0  502    0 -.00000000E+00 -.00000000E+00 -.26095925E+04 0.26095925E+04 0.32000000E+00 0.0000E+00 0.9000E+01
       25  1    1    2    0    0 0.45257749E+02 -.50696647E+03 -.11136554E+04 0.12308195E+04 0.12500000E+03 0.0000E+00 0.9000E+01
        1  1    1    2  502    0 0.38982641E+02 0.76271467E+02 -.13036901E+04 0.13065011E+04 0.32000000E+00 0.0000E+00 0.9000E+01
       -1  1    1    2    0  501 -.84240390E+02 0.43069500E+03 0.23178742E+03 0.49630649E+03 0.32000000E+00 0.0000E+00 0.9000E+01
#aMCatNLO 1  0  0  5  1 0.71526406D+01 0.00000000D+00  -5  6  0 0.00000000D+00 0.00000000D+00 0.00000000D+00 0.00000000D+00 0.00000000D+00
  <mgrwgt>
 -.2887501163D-01    9    2    0
 0.105193021997795D+04 0.000000000000000D+00 0.000000000000000D+00 0.105193021997795D+04
 0.105193021997795D+04 -.000000000000000D+00 -.000000000000000D+00 -.105193021997795D+04
 0.617837232450590D+03 0.452546063794866D+02 -.506967092940282D+03 -.327160867279878D+03
 0.529604645210391D+03 0.389848481002183D+02 0.762768751303698D+02 -.522630940690821D+03
 0.956418562294928D+03 -.842394544797050D+02 0.430690217809913D+03 0.849791807970699D+03
 0.000000000000000D+00 0.000000000000000D+00 0.000000000000000D+00 0.000000000000000D+00
 0.105193021997795D+04 0.000000000000000D+00 0.000000000000000D+00 0.105193021997795D+04
 0.105193021997795D+04 -.000000000000000D+00 -.000000000000000D+00 -.105193021997795D+04
 0.617739546657956D+03 0.452444412893963D+02 -.506915121985673D+03 -.327058323758680D+03
 0.529523680900310D+03 0.389761346515406D+02 0.763214242924231D+02 -.522543041055772D+03
 0.886163661895629D+03 -.818274907271528D+02 0.404298242793639D+03 0.784304295729371D+03
 0.704335505020144D+02 -.239308521378399D+01 0.262954548996112D+02 0.652970690850814D+02
0.104171721745D-03 0.000000000000D+00 0.000000000000D+00 0.443863751225D-04 0.000000000000D+00  6 -2 2 25 1 -1 21 0 0.65236072D-01 0.40147577D+00 0.27490130D+06 0.27490130D+06 0.27490130D+06 0.10873704D+01  1  2  2  4  6  5       -1 0.905663071580D-04 0.100000000000D+01
0.217766574098D-04 0.000000000000D+00 -.400046840547D-06 0.443863751225D-04 0.000000000000D+00  6 -2 2 25 1 -1 21 2 0.65236072D-01 0.40147577D+00 0.27490130D+06 0.27490130D+06 0.27490130D+06 0.10873704D+01  1  2  3  4  6  5       -1 0.223853056995D-04 0.100000000000D+01
-.593109204829D-04 0.000000000000D+00 0.000000000000D+00 0.443863751225D-04 0.000000000000D+00  6 -2 2 25 1 -1 21 2 0.65236072D-01 0.40147577D+00 0.27490130D+06 0.27490130D+06 0.27490130D+06 0.10873704D+01  1  2 15  4  6  5       -1 -.609686354221D-04 0.100000000000D+01
0.407263627735D-08 0.000000000000D+00 0.000000000000D+00 0.443863751225D-04 0.000000000000D+00  6 -2 2 25 1 -1 21 2 0.65236072D-01 0.40147577D+00 0.27491878D+06 0.27491878D+06 0.27491878D+06 0.10873683D+01  1  2 12  4  6  5       -1 0.418642957052D-08 0.100000000000D+01
0.445480005602D-01 0.000000000000D+00 0.000000000000D+00 0.443863751225D-04 0.000000000000D+00  6 -2 2 25 1 -1 21 2 0.65236072D-01 0.40147577D+00 0.27491878D+06 0.27491878D+06 0.27491878D+06 0.10873683D+01  1  2 12  4  6  5       -1 0.457927136509D-01 0.100000000000D+01
-.791509842163D-01 0.000000000000D+00 0.000000000000D+00 0.443863751225D-04 0.000000000000D+00  6 -2 2 25 1 -1 21 2 0.65236072D-01 0.40147577D+00 0.27490130D+06 0.27490130D+06 0.27490130D+06 0.10873704D+01  1  2  4  4  6  5       -1 -.813632204776D-01 0.100000000000D+01
-.473876131872D-01 0.000000000000D+00 0.000000000000D+00 0.443863751225D-04 0.000000000000D+00  6 -2 2 25 1 -1 21 2 0.65236072D-01 0.40147577D+00 0.27490130D+06 0.27490130D+06 0.27490130D+06 0.10873704D+01  1  2  5  4  6  5       -1 -.487120767712D-01 0.100000000000D+01
0.510055035333D-01 0.000000000000D+00 -.000000000000D+00 0.443863751225D-04 0.000000000000D+00  6 -2 2 25 1 -1 21 2 0.65236072D-01 0.40147577D+00 0.27490130D+06 0.27490130D+06 0.27490130D+06 0.10873704D+01  1  2  6  4  6  5       -1 0.524310856099D-01 0.100000000000D+01
0.284500701957D-02 0.000000000000D+00 0.000000000000D+00 0.443863751225D-04 0.717167984663D-05  6 -2 2 25 1 -1 21 2 0.65236072D-01 0.40147577D+00 0.27491878D+06 0.27491878D+06 0.27491878D+06 0.10873683D+01  1  2 11  4  6  5       -1 0.292449919510D-02 0.100000000000D+01
  </mgrwgt>
  </event>
  <event>
  5     66 -.17652913E-05 0.15180374E+03 0.75467711E-02 0.95145830E-01
       -2 -1    0    0    0  501 0.00000000E+00 0.00000000E+00 0.67035465E+03 0.67035473E+03 0.32000000E+00 0.0000E+00 0.9000E+01
        2 -1    0    0  502    0 0.00000000E+00 0.00000000E+00 -.30481474E+04 0.30481474E+04 0.32000000E+00 0.0000E+00 0.9000E+01
       25  1    1    2    0    0 -.22114189E+03 -.40411301E+03 0.45599447E+02 0.47949491E+03 0.12500000E+03 0.0000E+00 0.9000E+01
        1  1    1    2  502    0 0.11476801E+03 0.29529518E+03 -.28077781E+04 0.28255953E+04 0.32000000E+00 0.0000E+00 0.9000E+01
       -1  1    1    2    0  501 0.10637388E+03 0.10881783E+03 0.38438594E+03 0.41341187E+03 0.32000000E+00 0.0000E+00 0.9000E+01
#aMCatNLO 1  0  0  2  4 0.12677142D+02 0.00000000D+00  -5  6  0 0.00000000D+00 0.00000000D+00 0.00000000D+00 0.00000000D+00 0.00000000D+00
  <mgrwgt>
 -.5136917712D-02   11    2    0
 0.142945441706825D+04 0.000000000000000D+00 0.000000000000000D+00 0.142945441706825D+04
 0.142945441706825D+04 0.000000000000000D+00 0.000000000000000D+00 -.142945441706825D+04
 0.661690543960567D+03 -.221140034904370D+03 -.404129841391346D+03 0.458241783588458D+03
 0.133992550688243D+04 0.114780951241444D+03 0.295327148141021D+03 -.130192456494113D+04
 0.857292783293499D+03 0.106359083662926D+03 0.108802693250325D+03 0.843682781352668D+03
 0.000000000000000D+00 0.000000000000000D+00 0.000000000000000D+00 -.000000000000000D+00
 0.142957524845685D+04 0.000000000000000D+00 0.000000000000000D+00 0.142957524845685D+04
 0.180573952709235D+04 0.000000000000000D+00 0.000000000000000D+00 -.180573952709235D+04
 0.662749122654649D+03 -.224074085087919D+03 -.404248279829597D+03 0.458241783588458D+03
 0.133937730607990D+04 0.108845453303479D+03 0.295087550635172D+03 -.130192456494113D+04
 0.856810512127577D+03 0.102561806055404D+03 0.108649409018187D+03 0.843682781352668D+03
 0.376377834687083D+03 0.126668257290360D+02 0.511320176238643D+00 -.376164278635499D+03
0.222618137374D-03 0.000000000000D+00 0.000000000000D+00 0.169106305313D-03 0.000000000000D+00  6 -2 2 25 1 -1 21 0 0.10313149D+00 0.46894576D+00 0.22388773D+06 0.22388773D+06 0.22388773D+06 0.10940817D+01  1  2  2  2  6  2        2 0.375694933271D-04 0.100000000000D+01
0.263144814357D-04 0.000000000000D+00 -.854912264220D-06 0.169106305313D-03 0.000000000000D+00  6 -2 2 25 1 -1 21 2 0.10313149D+00 0.46894576D+00 0.22388773D+06 0.22388773D+06 0.22388773D+06 0.10940817D+01  1  2  3  2  6  2        2 0.531580638055D-05 0.100000000000D+01
-.153397897915D-03 0.000000000000D+00 0.000000000000D+00 0.169106305313D-03 0.000000000000D+00  6 -2 2 25 1 -1 21 2 0.10313149D+00 0.46894576D+00 0.22388773D+06 0.22388773D+06 0.22388773D+06 0.10940817D+01  1  2 15  2  6  2        2 -.309880142039D-04 0.100000000000D+01
0.116471615934D-08 0.000000000000D+00 0.000000000000D+00 0.169106305313D-03 0.000000000000D+00  6 -2 2 25 1 -1 21 2 0.10313149D+00 0.59240587D+00 0.22820273D+06 0.22820273D+06 0.22820273D+06 0.10934522D+01  1  2 12  2  6  2        2 0.641129751612D-10 0.100000000000D+01
0.219586962044D+00 0.000000000000D+00 0.000000000000D+00 0.169106305313D-03 0.000000000000D+00  6 -2 2 25 1 -1 21 2 0.10313149D+00 0.59404364D+00 0.22820273D+06 0.22820273D+06 0.22820273D+06 0.10934522D+01  1  2 12  2  6  2        2 0.118576029271D-01 0.100000000000D+01
-.240259324275D+00 0.000000000000D+00 0.000000000000D+00 0.169106305313D-03 0.000000000000D+00  6 -2 2 25 1 -1 21 2 0.10313149D+00 0.46894576D+00 0.22388773D+06 0.22388773D+06 0.22388773D+06 0.10940817D+01  1  2  4  2  6  2        2 -.485349503120D-01 0.100000000000D+01
-.222934401707D+00 0.000000000000D+00 -.159767832597D-03 0.169106305313D-03 0.000000000000D+00  6 -2 2 25 1 -1 21 2 0.10313149D+00 0.59239859D+00 0.22388773D+06 0.22388773D+06 0.22388773D+06 0.10940817D+01  1  2  5  2  6  2        2 -.123120544084D-01 0.100000000000D+01
0.217022931825D+00 0.000000000000D+00 0.155502309002D-03 0.169106305313D-03 0.000000000000D+00  6 -2 2 25 1 -1 21 2 0.10313149D+00 0.46894576D+00 0.22388773D+06 0.22388773D+06 0.22388773D+06 0.10940817D+01  1  2  6  2  6  2        2 0.438409507914D-01 0.100000000000D+01
0.374958019127D-10 0.000000000000D+00 0.000000000000D+00 0.169106305313D-03 0.000000000000D+00  6 -2 21 25 1 -1 -2 2 0.10313149D+00 0.59240587D+00 0.22820273D+06 0.22820273D+06 0.22820273D+06 0.10934522D+01  1  2 12  6  6  2        2 0.469870904617D-13 0.100000000000D+01
0.713130104560D-02 0.000000000000D+00 0.000000000000D+00 0.169106305313D-03 0.000000000000D+00  6 -2 21 25 1 -1 -2 2 0.10313149D+00 0.59404364D+00 0.22820273D+06 0.22820273D+06 0.22820273D+06 0.10934522D+01  1  2 12  6  6  2        2 0.866303235535D-05 0.100000000000D+01
-.717426870061D-02 0.000000000000D+00 -.514321710222D-05 0.169106305313D-03 0.000000000000D+00  6 -2 21 25 1 -1 -2 2 0.10313149D+00 0.59239859D+00 0.22388773D+06 0.22388773D+06 0.22388773D+06 0.10940817D+01  1  2  5  6  6  2        2 -.902709211645D-05 0.100000000000D+01
  </mgrwgt>
  </event>
  <event>
  6     66 0.17652913E-05 0.27298119E+03 0.75467711E-02 0.89545106E-01
       -2 -1    0    0    0  501 0.00000000E+00 0.00000000E+00 0.67003277E+03 0.67003285E+03 0.32000000E+00 0.0000E+00 0.9000E+01
        2 -1    0    0  502    0 -.00000000E+00 -.00000000E+00 -.16630685E+04 0.16630686E+04 0.32000000E+00 0.0000E+00 0.9000E+01
       25  1    1    2    0    0 -.51764595E+03 0.17896381E+03 -.56241613E+02 0.56460030E+03 0.12500000E+03 0.0000E+00 0.9000E+01
        1  1    1    2  503    0 -.24510495E+03 -.13603487E+03 -.83870489E+03 0.88431212E+03 0.32000000E+00 0.0000E+00 0.9000E+01
       -1  1    1    2    0  501 0.74834535E+03 -.40020366E+02 0.35054842E+02 0.75023418E+03 0.32000000E+00 0.0000E+00 0.9000E+01
       21  1    1    2  502  503 0.14405555E+02 -.29085727E+01 -.13314409E+03 0.13395481E+03 0.75000000E+00 0.0000E+00 0.9000E+01
#aMCatNLO 2  0  0  4  5 0.45702227D+02 0.00000000D+00  -5  6  0 0.00000000D+00 0.00000000D+00 0.00000000D+00 0.00000000D+00 0.00000000D+00
  <mgrwgt>
 0.2105878531D-04    3    2    0
 0.105560908740708D+04 0.000000000000000D+00 0.000000000000000D+00 0.105560908740708D+04
 0.105560908740708D+04 -.000000000000000D+00 -.000000000000000D+00 -.105560908740708D+04
 0.597785864254921D+03 -.516126390689255D+03 0.179875100101911D+03 0.207319648611539D+03
 0.663476234521061D+03 -.234348371978668D+03 -.141142985228595D+03 -.604450338775614D+03
 0.849956076038186D+03 0.750474762667923D+03 -.387321148733162D+02 0.397130690164075D+03
 0.000000000000000D+00 0.000000000000000D+00 0.000000000000000D+00 -.000000000000000D+00
 0.105560908740708D+04 0.000000000000000D+00 0.000000000000000D+00 0.105560908740708D+04
 0.105560908740708D+04 -.000000000000000D+00 -.000000000000000D+00 -.105560908740708D+04
 0.597480643449944D+03 -.517635192458361D+03 0.178966381240279D+03 0.203428024646838D+03
 0.582690959653005D+03 -.245119309857750D+03 -.136033745540690D+03 -.510822961964682D+03
 0.845555948601218D+03 0.748334493928003D+03 -.400211527129788D+02 0.391610335343630D+03
 0.854906231100000D+02 0.144200083881069D+02 -.291148298661032D+01 -.842153980257867D+02
-.432364508266D-08 0.000000000000D+00 0.000000000000D+00 0.553556636997D-07 0.000000000000D+00  6 -2 2 25 1 -1 21 2 0.10308197D+00 0.25585671D+00 0.64499739D+06 0.64499739D+06 0.64499739D+06 0.10607813D+01  1  2 13  3  6  4        1 -.479158414117D-08 0.100000000000D+01
-.149966457959D-05 0.000000000000D+00 0.000000000000D+00 0.553556636997D-07 0.000000000000D+00  6 -2 2 25 1 -1 21 2 0.10308197D+00 0.25585671D+00 0.62863290D+06 0.62863290D+06 0.62863290D+06 0.10615536D+01  1  2  8  3  6  4        1 -.166694517853D-05 0.100000000000D+01
0.205106927263D-04 0.000000000000D+00 0.000000000000D+00 0.553556636997D-07 0.604951305475D-09  6 -2 2 25 1 -1 21 2 0.10308197D+00 0.25585671D+00 0.64499739D+06 0.64499739D+06 0.64499739D+06 0.10607813D+01  1  2  1  3  6  4        1 0.227305220740D-04 0.100000000000D+01
  </mgrwgt>
  </event>
  <event>
  6     66 0.17652913E-05 0.12587950E+03 0.75467711E-02 0.93275341E-01
       -2 -1    0    0    0  501 0.00000000E+00 0.00000000E+00 0.19048886E+04 0.19048886E+04 0.32000000E+00 0.0000E+00 0.9000E+01
        2 -1    0    0  502    0 0.00000000E+00 0.00000000E+00 -.95031917E+03 0.95031922E+03 0.32000000E+00 0.0000E+00 0.9000E+01
       25  1    1    2    0    0 -.34718534E+03 0.33013782E+03 -.33416044E+03 0.59734148E+03 0.12500000E+03 0.0000E+00 0.9000E+01
        1  1    1    2  503    0 0.22413396E+03 -.28788928E+03 -.55827097E+02 0.36909760E+03 0.32000000E+00 0.0000E+00 0.9000E+01
       -1  1    1    2    0  501 0.62084509E+01 0.90998344E+02 0.15863573E+04 0.15889773E+04 0.32000000E+00 0.0000E+00 0.9000E+01
       21  1    1    2  502  503 0.11684292E+03 -.13324688E+03 -.24180030E+03 0.29979151E+03 0.75000000E+00 0.0000E+00 0.9000E+01
#aMCatNLO 2  0  0  4  4 0.12767523D+03 0.00000000D+00  -5  6  0 0.00000000D+00 0.00000000D+00 0.00000000D+00 0.00000000D+00 0.00000000D+00
  <mgrwgt>
 0.3304845073D-02    1    2    0
 0.134545616181071D+04 0.000000000000000D+00 0.000000000000000D+00 0.134545616181071D+04
 0.134545616181071D+04 -.000000000000000D+00 -.000000000000000D+00 -.134545616181071D+04
 0.751337665016727D+03 -.352277879025819D+03 0.336426838674578D+03 -.558211935595511D+03
 0.803193264986102D+03 0.353712613301288D+03 -.436864586258384D+03 -.573721309856884D+03
 0.113638139361860D+04 -.143473427546874D+01 0.100437747583806D+03 0.113193324545239D+04
 0.000000000000000D+00 0.000000000000000D+00 0.000000000000000D+00 -.000000000000000D+00
 0.134545616181071D+04 0.000000000000000D+00 0.000000000000000D+00 0.134545616181071D+04
 0.134545616181071D+04 -.000000000000000D+00 -.000000000000000D+00 -.134545616181071D+04
 0.752357429107384D+03 -.347191560775737D+03 0.330144811304501D+03 -.566461935903813D+03
 0.411058243916966D+03 0.223960971202213D+03 -.287674923518085D+03 -.189877596490806D+03
 0.112324512555982D+04 0.620855700597309D+01 0.909976452019459D+02 0.111953583885533D+04
 0.404251525037251D+03 0.117022032567552D+03 -.133467532988362D+03 -.363196306460711D+03
0.265698653473D-01 0.000000000000D+00 0.000000000000D+00 0.214630027222D-04 0.806407844664D-08  6 -2 2 25 1 -1 21 2 0.29305979D+00 0.14620296D+00 0.31833741D+06 0.31833741D+06 0.31833741D+06 0.10826507D+01  1  2  1  3  6  4        1 0.330484507305D-02 0.100000000000D+01
  </mgrwgt>
  </event>
  <event>
  5     66 0.17652913E-05 0.18219939E+02 0.75467711E-02 0.94561227E-01
       -2 -1    0    0    0  501 0.00000000E+00 0.00000000E+00 0.84813158E+03 0.84813165E+03 0.32000000E+00 0.0000E+00 0.9000E+01
        2 -1    0    0  502    0 -.00000000E+00 -.00000000E+00 -.17991209E+04 0.17991209E+04 0.32000000E+00 0.0000E+00 0.9000E+01
       25  1    1    2    0    0 -.43795918E+03 -.21666022E+03 -.10753711E+04 0.11877702E+04 0.12500000E+03 0.0000E+00 0.9000E+01
        1  1    1    2  502    0 -.24513308E+01 0.18057252E+02 -.59371539E+03 0.59399507E+03 0.32000000E+00 0.0000E+00 0.9000E+01
       -1  1    1    2    0  501 0.44041051E+03 0.19860297E+03 0.71809723E+03 0.86548732E+03 0.32000000E+00 0.0000E+00 0.9000E+01
#aMCatNLO 1  0  0  5  1 0.95426728D+00 0.00000000D+00  -5  6  0 0.00000000D+00 0.00000000D+00 0.00000000D+00 0.00000000D+00 0.00000000D+00
  <mgrwgt>
 0.1147181470D-01    4    2    0
 0.123526975193741D+04 0.000000000000000D+00 0.000000000000000D+00 0.123526975193741D+04
 0.123526975193741D+04 -.000000000000000D+00 -.000000000000000D+00 -.123526975193741D+04
 0.858860816205797D+03 -.437962868967419D+03 -.216658734410620D+03 -.695172223138341D+03
 0.407857735617551D+03 -.245076079679889D+01 0.180543609136951D+02 -.407450569181822D+03
 0.120382095205147D+04 0.440413629764218D+03 0.198604373496925D+03 0.110262279232016D+04
 0.000000000000000D+00 0.000000000000000D+00 -.000000000000000D+00 0.000000000000000D+00
 0.123526975193741D+04 0.000000000000000D+00 0.000000000000000D+00 0.123526975193741D+04
 0.123526975193741D+04 -.000000000000000D+00 -.000000000000000D+00 -.123526975193741D+04
 0.671929220110489D+03 -.366788166021911D+03 -.184562526818475D+03 -.516978715034722D+03
 0.325370349474521D+03 0.316409760904599D+02 0.334280178314904D+02 -.322098246771187D+03
 0.102195553323917D+04 0.380636254956695D+03 0.589681423306364D+03 0.742822301992937D+03
 0.451284401050636D+03 -.454890650252440D+02 -.438546914319379D+03 0.962546598129719D+02
0.349433494199D-01 0.000000000000D+00 0.000000000000D+00 0.392248988237D-03 0.000000000000D+00  6 -2 2 25 1 -1 21 0 0.13048179D+00 0.27678783D+00 0.25285885D+06 0.25285885D+06 0.25285885D+06 0.10900878D+01  1  2  2  4  6  5       -1 0.169337277298D-01 0.100000000000D+01
0.193418758926D-01 0.000000000000D+00 -.134191662568D-03 0.392248988237D-03 0.000000000000D+00  6 -2 2 25 1 -1 21 2 0.13048179D+00 0.27678783D+00 0.25285885D+06 0.25285885D+06 0.25285885D+06 0.10900878D+01  1  2  3  4  6  5       -1 0.111380611335D-01 0.100000000000D+01
-.287510149214D-01 0.000000000000D+00 0.000000000000D+00 0.392248988237D-03 0.000000000000D+00  6 -2 2 25 1 -1 21 2 0.13048179D+00 0.27678783D+00 0.25285885D+06 0.25285885D+06 0.25285885D+06 0.10900878D+01  1  2 15  4  6  5       -1 -.165563342264D-01 0.100000000000D+01
-.757832380222D-04 0.000000000000D+00 0.000000000000D+00 0.392248988237D-03 0.000000000000D+00  6 -2 2 25 1 -1 21 2 0.13048179D+00 0.27678783D+00 0.25285885D+06 0.25285885D+06 0.25285885D+06 0.10900878D+01  1  2  4  4  6  5       -1 -.436399417858D-04 0.100000000000D+01
  </mgrwgt>
  </event>
  <event>
  5     66 0.17652913E-05 0.21136968E+02 0.75467711E-02 0.94841816E-01
       -2 -1    0    0    0  501 0.00000000E+00 0.00000000E+00 0.65774193E+03 0.65774201E+03 0.32000000E+00 0.0000E+00 0.9000E+01
        2 -1    0    0  502    0 -.00000000E+00 -.00000000E+00 -.99169699E+03 0.99169704E+03 0.32000000E+00 0.0000E+00 0.9000E+01
       25  1    1    2    0    0 -.24124553E+02 0.45966040E+03 0.40016891E+03 0.62259925E+03 0.12500000E+03 0.0000E+00 0.9000E+01
        1  1    1    2  502    0 0.19752168E+02 -.43892882E+03 -.82436473E+03 0.93414451E+03 0.32000000E+00 0.0000E+00 0.9000E+01
       -1  1    1    2    0  501 0.43723843E+01 -.20731579E+02 0.90240767E+02 0.92695278E+02 0.32000000E+00 0.0000E+00 0.9000E+01
#aMCatNLO 1  0  0  5  1 0.95426728D+00 0.00000000D+00  -5  6  0 0.00000000D+00 0.00000000D+00 0.00000000D+00 0.00000000D+00 0.00000000D+00
  <mgrwgt>
 0.2367756533D-01    6    2    0
 0.807639024921619D+03 0.000000000000000D+00 0.000000000000000D+00 0.807639024921619D+03
 0.807639024921619D+03 -.000000000000000D+00 -.000000000000000D+00 -.807639024921619D+03
 0.718723545728824D+03 -.241191074925115D+02 0.459703021549007D+03 0.537615044262612D+03
 0.783513224945964D+03 0.197571803871250D+02 -.439021024814680D+03 -.648662598936491D+03
 0.113041279168451D+03 0.436192710538650D+01 -.206819967343266D+02 0.111047554673879D+03
 0.000000000000000D+00 0.000000000000000D+00 0.000000000000000D+00 0.000000000000000D+00
 0.807639024921619D+03 0.000000000000000D+00 0.000000000000000D+00 0.807639024921619D+03
 0.807639024921619D+03 -.000000000000000D+00 -.000000000000000D+00 -.807639024921619D+03
 0.723883558949075D+03 -.237979974056338D+02 0.458180484008211D+03 0.545789983702762D+03
 0.777148985872514D+03 0.201045683741089D+02 -.440668158533048D+03 -.639818666989532D+03
 0.490057163735067D+02 -.291945259515069D+02 -.881908802681957D+01 0.383596608186593D+02
 0.652397886481421D+02 0.328879549830319D+02 -.869323744834409D+01 0.556690224681108D+02
0.642784448732D-02 0.000000000000D+00 0.000000000000D+00 0.222533594064D-04 0.000000000000D+00  6 -2 2 25 1 -1 21 0 0.10119108D+00 0.15256878D+00 0.21977679D+06 0.21977679D+06 0.21977679D+06 0.10946940D+01  1  2  2  4  6  5       -1 0.169965959751D-01 0.100000000000D+01
0.201269087466D-02 0.000000000000D+00 -.246846153216D-04 0.222533594064D-04 0.000000000000D+00  6 -2 2 25 1 -1 21 2 0.10119108D+00 0.15256878D+00 0.21977679D+06 0.21977679D+06 0.21977679D+06 0.10946940D+01  1  2  3  4  6  5       -1 0.637762691892D-02 0.100000000000D+01
-.484699428850D-02 0.000000000000D+00 0.000000000000D+00 0.222533594064D-04 0.000000000000D+00  6 -2 2 25 1 -1 21 2 0.10119108D+00 0.15256878D+00 0.21977679D+06 0.21977679D+06 0.21977679D+06 0.10946940D+01  1  2 15  4  6  5       -1 -.153587029381D-01 0.100000000000D+01
-.674487680589D-03 0.000000000000D+00 0.000000000000D+00 0.222533594064D-04 0.000000000000D+00  6 -2 2 25 1 -1 21 2 0.10119108D+00 0.15256878D+00 0.21977679D+06 0.21977679D+06 0.21977679D+06 0.10946940D+01  1  2  4  4  6  5       -1 -.213725358541D-02 0.100000000000D+01
-.289053420755D-02 0.000000000000D+00 0.000000000000D+00 0.222533594064D-04 0.000000000000D+00  6 -2 2 25 1 -1 21 2 0.10119108D+00 0.15256878D+00 0.21977679D+06 0.21977679D+06 0.21977679D+06 0.10946940D+01  1  2  5  4  6  5       -1 -.915925490803D-02 0.100000000000D+01
0.850774685520D-02 0.000000000000D+00 -.000000000000D+00 0.222533594064D-04 0.000000000000D+00  6 -2 2 25 1 -1 21 2 0.10119108D+00 0.15256878D+00 0.21977679D+06 0.21977679D+06 0.21977679D+06 0.10946940D+01  1  2  6  4  6  5       -1 0.269585538674D-01 0.100000000000D+01
  </mgrwgt>
  </event>
  <event>
  5     66 0.17652913E-05 0.11114157E+03 0.75467711E-02 0.95442869E-01
       -2 -1    0    0    0  501 0.00000000E+00 0.00000000E+00 0.32682079E+03 0.32682095E+03 0.32000000E+00 0.0000E+00 0.9000E+01
        2 -1    0    0  502    0 -.00000000E+00 -.00000000E+00 -.25040234E+04 0.25040235E+04 0.32000000E+00 0.0000E+00 0.9000E+01
       25  1    1    2    0    0 -.39431011E+03 0.22384482E+03 -.20639875E+03 0.51362672E+03 0.12500000E+03 0.0000E+00 0.9000E+01
        1  1    1    2  502    0 0.10900047E+03 -.21612307E+02 -.19643029E+04 0.19674436E+04 0.32000000E+00 0.0000E+00 0.9000E+01
       -1  1    1    2    0  501 0.28530964E+03 -.20223252E+03 -.65010171E+01 0.34977414E+03 0.32000000E+00 0.0000E+00 0.9000E+01
#aMCatNLO 1  0  0  5  1 0.20705444D+02 0.00000000D+00  -5  6  0 0.00000000D+00 0.00000000D+00 0.00000000D+00 0.00000000D+00 0.00000000D+00
  <mgrwgt>
 0.8926563395D-02    6    2    0
 0.904636489783943D+03 0.000000000000000D+00 0.000000000000000D+00 0.904636489783943D+03
 0.904636489783943D+03 -.000000000000000D+00 -.000000000000000D+00 -.904636489783943D+03
 0.555304583828916D+03 -.394267980290069D+03 0.223805985426777D+03 0.295299545252858D+03
 0.714639077828168D+03 0.109019143076872D+03 -.216165679456140D+02 -.705943738545879D+03
 0.539329317910801D+03 0.285248837213197D+03 -.202189417481164D+03 0.410644193293021D+03
 0.000000000000000D+00 0.000000000000000D+00 0.000000000000000D+00 0.000000000000000D+00
 0.904636489783943D+03 0.000000000000000D+00 0.000000000000000D+00 0.904636489783943D+03
 0.904636489783943D+03 -.000000000000000D+00 -.000000000000000D+00 -.904636489783943D+03
 0.551409315700915D+03 -.367004394231450D+03 0.204481073754938D+03 0.334548200611789D+03
 0.673705918555963D+03 0.143220632101319D+03 -.458591878644217D+02 -.656707278874118D+03
 0.232417543106862D+03 0.207685698009076D+03 0.812689767178656D+02 0.654210868875161D+02
 0.351740202204145D+03 0.160980641210540D+02 -.239890862608382D+03 0.256737991374812D+03
0.875511867505D-02 0.000000000000D+00 0.000000000000D+00 0.196560883603D-04 0.000000000000D+00  6 -2 2 25 1 -1 21 0 0.50280136D-01 0.38523439D+00 0.21671752D+06 0.21671752D+06 0.21671752D+06 0.10951577D+01  1  2  2  4  6  5       -1 0.151914674809D-01 0.100000000000D+01
0.167553904844D-02 0.000000000000D+00 -.336219609879D-04 0.196560883603D-04 0.000000000000D+00  6 -2 2 25 1 -1 21 2 0.50280136D-01 0.38523439D+00 0.21671752D+06 0.21671752D+06 0.21671752D+06 0.10951577D+01  1  2  3  4  6  5       -1 0.348694897689D-02 0.100000000000D+01
-.583319764557D-02 0.000000000000D+00 0.000000000000D+00 0.196560883603D-04 0.000000000000D+00  6 -2 2 25 1 -1 21 2 0.50280136D-01 0.38523439D+00 0.21671752D+06 0.21671752D+06 0.21671752D+06 0.10951577D+01  1  2 15  4  6  5       -1 -.121394142268D-01 0.100000000000D+01
-.445915589548D-03 0.000000000000D+00 0.000000000000D+00 0.196560883603D-04 0.000000000000D+00  6 -2 2 25 1 -1 21 2 0.50280136D-01 0.38523439D+00 0.21671752D+06 0.21671752D+06 0.21671752D+06 0.10951577D+01  1  2  4  4  6  5       -1 -.927990851778D-03 0.100000000000D+01
-.203171296081D-02 0.000000000000D+00 0.000000000000D+00 0.196560883603D-04 0.000000000000D+00  6 -2 2 25 1 -1 21 2 0.50280136D-01 0.38523439D+00 0.21671752D+06 0.21671752D+06 0.21671752D+06 0.10951577D+01  1  2  5  4  6  5       -1 -.422817924573D-02 0.100000000000D+01
0.362489281699D-02 0.000000000000D+00 -.000000000000D+00 0.196560883603D-04 0.000000000000D+00  6 -2 2 25 1 -1 21 2 0.50280136D-01 0.38523439D+00 0.21671752D+06 0.21671752D+06 0.21671752D+06 0.10951577D+01  1  2  6  4  6  5       -1 0.754373126147D-02 0.100000000000D+01
  </mgrwgt>
  </event>
  <event>
  6     66 0.17652913E-05 0.10074197E+03 0.75467711E-02 0.94178455E-01
       -2 -1    0    0    0  501 0.00000000E+00 0.00000000E+00 0.21261343E+04 0.21261343E+04 0.32000000E+00 0.0000E+00 0.9000E+01
        2 -1    0    0  502    0 0.00000000E+00 0.00000000E+00 -.36241127E+03 0.36241141E+03 0.32000000E+00 0.0000E+00 0.9000E+01
       25  1    1    2    0    0 -.43886366E+03 -.26281508E+03 0.98174602E+03 0.11140571E+04 0.12500000E+03 0.0000E+00 0.9000E+01
        1  1    1    2  503    0 0.80755928E+02 0.55285732E+02 -.22023639E+03 0.24100249E+03 0.32000000E+00 0.0000E+00 0.9000E+01
       -1  1    1    2    0  501 0.34941497E+03 0.20908600E+03 0.10282720E+04 0.11059616E+04 0.32000000E+00 0.0000E+00 0.9000E+01
       21  1    1    2  502  503 0.86927626E+01 -.15566488E+01 -.26058546E+02 0.27524491E+02 0.75000000E+00 0.0000E+00 0.9000E+01
#aMCatNLO 2  0  0  4  2 0.71715132D+01 0.00000000D+00  -5  6  0 0.00000000D+00 0.00000000D+00 0.00000000D+00 0.00000000D+00 0.00000000D+00
  <mgrwgt>
 0.4575010667D-02    6    2    0
 0.877801365895318D+03 0.000000000000000D+00 0.000000000000000D+00 0.877801365895318D+03
 0.877801365895318D+03 -.000000000000000D+00 -.000000000000000D+00 -.877801365895318D+03
 0.592978203732565D+03 -.438846221583514D+03 -.262804723480733D+03 0.272664301330386D+03
 0.627973432454943D+03 0.895009272137141D+02 0.537604579053135D+02 -.619233420499039D+03
 0.534651095603127D+03 0.349345294369800D+03 0.209044265575419D+03 0.346569119168653D+03
 0.000000000000000D+00 0.000000000000000D+00 0.000000000000000D+00 -.000000000000000D+00
 0.877801365895318D+03 0.000000000000000D+00 0.000000000000000D+00 0.877801365895318D+03
 0.877801365895318D+03 -.000000000000000D+00 -.000000000000000D+00 -.877801365895318D+03
 0.592888792084498D+03 -.438824867510030D+03 -.262791896744693D+03 0.272516558101606D+03
 0.563308057158447D+03 0.808210673241317D+02 0.553375247739235D+02 -.554726672054001D+03
 0.534581860486948D+03 0.349364548197756D+03 0.209055830758480D+03 0.346435906987347D+03
 0.648240220607436D+02 0.863925198814167D+01 -.160145878771056D+01 -.642257930349515D+02
-.105194740825D-06 0.000000000000D+00 0.000000000000D+00 0.788538384035D-05 0.000000000000D+00  6 -2 2 25 1 -1 21 2 0.32709760D+00 0.55755592D-01 0.27061855D+06 0.27061855D+06 0.27061855D+06 0.10878793D+01  1  2 13  3  6  4        1 -.254498815563D-07 0.100000000000D+01
-.631096121511D-01 0.000000000000D+00 0.000000000000D+00 0.788538384035D-05 0.000000000000D+00  6 -2 2 25 1 -1 21 2 0.32709760D+00 0.55755592D-01 0.27061855D+06 0.27061855D+06 0.27061855D+06 0.10878793D+01  1  2 13  3  6  4        1 -.152681792047D-01 0.100000000000D+01
-.107604291936D-01 0.000000000000D+00 0.000000000000D+00 0.788538384035D-05 0.000000000000D+00  6 -2 2 25 1 -1 21 2 0.32709760D+00 0.55755592D-01 0.26940825D+06 0.26940825D+06 0.26940825D+06 0.10880247D+01  1  2  8  3  6  4        1 -.260476153676D-02 0.100000000000D+01
-.949104597959D-02 0.000000000000D+00 0.000000000000D+00 0.788538384035D-05 0.000000000000D+00  6 -2 2 25 1 -1 21 2 0.32709760D+00 0.55755592D-01 0.26940825D+06 0.26940825D+06 0.26940825D+06 0.10880247D+01  1  2  9  3  6  4        1 -.229748377750D-02 0.100000000000D+01
0.105210504077D-01 0.000000000000D+00 0.000000000000D+00 0.788538384035D-05 0.000000000000D+00  6 -2 2 25 1 -1 21 2 0.32709760D+00 0.55755592D-01 0.26940825D+06 0.26940825D+06 0.26940825D+06 0.10880247D+01  1  2 10  3  6  4        1 0.254681546017D-02 0.100000000000D+01
0.917560547681D-01 0.000000000000D+00 0.000000000000D+00 0.788538384035D-05 0.116619243126D-05  6 -2 2 25 1 -1 21 2 0.32709760D+00 0.55755592D-01 0.27061855D+06 0.27061855D+06 0.27061855D+06 0.10878793D+01  1  2  1  3  6  4        1 0.221986451756D-01 0.100000000000D+01
  </mgrwgt>
  </event>
  <event>
  5     66 0.17652913E-05 0.47982185E+02 0.75467711E-02 0.92568578E-01
       -2 -1    0    0    0  501 0.00000000E+00 0.00000000E+00 0.24786822E+03 0.24786842E+03 0.32000000E+00 0.0000E+00 0.9000E+01
        2 -1    0    0  502    0 0.00000000E+00 0.00000000E+00 -.25944242E+04 0.25944242E+04 0.32000000E+00 0.0000E+00 0.9000E+01
       25  1    1    2    0    0 -.53224445E+03 0.16378895E+03 -.90428113E+03 0.10693270E+04 0.12500000E+03 0.0000E+00 0.9000E+01
        1  1    1    2  502    0 0.51230519E+03 -.20745333E+03 -.15550734E+04 0.16503778E+04 0.32000000E+00 0.0000E+00 0.9000E+01
       -1  1    1    2    0  501 0.19939260E+02 0.43664379E+02 0.11279855E+03 0.12258780E+03 0.32000000E+00 0.0000E+00 0.9000E+01
#aMCatNLO 1  0  0  2  4 0.28294257D+02 0.00000000D+00  -5  6  0 0.00000000D+00 0.00000000D+00 0.00000000D+00 0.00000000D+00 0.00000000D+00
  <mgrwgt>
 0.8773396627D-02   11    2    0
 0.801919959180636D+03 0.000000000000000D+00 0.000000000000000D+00 0.801919959180636D+03
 0.801919959180636D+03 0.000000000000000D+00 0.000000000000000D+00 -.801919959180636D+03
 0.572091829159923D+03 -.532337299309774D+03 0.163836312864114D+03 -.379305067487177D+02
 0.649621107290287D+03 0.512406097407050D+03 -.207483045448761D+03 -.341172039048399D+03
 0.382126981911063D+03 0.199312019027239D+02 0.436467325846465D+02 0.379102545797117D+03
 0.000000000000000D+00 -.000000000000000D+00 0.000000000000000D+00 -.000000000000000D+00
 0.804664334678127D+03 0.000000000000000D+00 0.000000000000000D+00 0.804664334678127D+03
 0.878446297007822D+03 0.000000000000000D+00 0.000000000000000D+00 -.878446297007822D+03
 0.562472549264571D+03 -.522433390742141D+03 0.162403810212813D+03 -.379305067487177D+02
 0.659192715270987D+03 0.523831074849670D+03 -.209135555704267D+03 -.341172039048399D+03
 0.382424211997937D+03 0.266051688134989D+02 0.426814091238033D+02 0.379102545797117D+03
 0.790211551524544D+02 -.280028529210281D+02 0.405033636765099D+01 -.737819623296942D+02
0.233102251953D-03 0.000000000000D+00 0.000000000000D+00 0.756597308833D-05 0.000000000000D+00  6 -2 2 25 1 -1 21 0 0.38133589D-01 0.39914220D+00 0.34318188D+06 0.34318188D+06 0.34318188D+06 0.10802572D+01  1  2  2  2  6  2        2 0.592017696675D-03 0.100000000000D+01
0.886296918832D-04 0.000000000000D+00 -.895174024732D-06 0.756597308833D-05 0.000000000000D+00  6 -2 2 25 1 -1 21 2 0.38133589D-01 0.39914220D+00 0.34318188D+06 0.34318188D+06 0.34318188D+06 0.10802572D+01  1  2  3  2  6  2        2 0.262676857026D-03 0.100000000000D+01
-.149765799171D-03 0.000000000000D+00 0.000000000000D+00 0.756597308833D-05 0.000000000000D+00  6 -2 2 25 1 -1 21 2 0.38133589D-01 0.39914220D+00 0.34318188D+06 0.34318188D+06 0.34318188D+06 0.10802572D+01  1  2 15  2  6  2        2 -.443869414191D-03 0.100000000000D+01
0.133059216974D-07 0.000000000000D+00 0.000000000000D+00 0.756597308833D-05 0.000000000000D+00  6 -2 2 25 1 -1 21 2 0.38133589D-01 0.43787686D+00 0.36229384D+06 0.36229384D+06 0.36229384D+06 0.10785412D+01  1  2 12  2  6  2        2 0.276400760351D-07 0.100000000000D+01
0.563479139236D-02 0.000000000000D+00 0.000000000000D+00 0.756597308833D-05 0.000000000000D+00  6 -2 2 25 1 -1 21 2 0.38133589D-01 0.44084618D+00 0.36229384D+06 0.36229384D+06 0.36229384D+06 0.10785412D+01  1  2 12  2  6  2        2 0.113886100555D-01 0.100000000000D+01
-.324753430748D-02 0.000000000000D+00 0.000000000000D+00 0.756597308833D-05 0.000000000000D+00  6 -2 2 25 1 -1 21 2 0.38133589D-01 0.39914220D+00 0.34318188D+06 0.34318188D+06 0.34318188D+06 0.10802572D+01  1  2  4  2  6  2        2 -.962490207115D-02 0.100000000000D+01
-.757380652273D-02 0.000000000000D+00 -.438270869923D-03 0.756597308833D-05 0.000000000000D+00  6 -2 2 25 1 -1 21 2 0.38133589D-01 0.43764192D+00 0.34318188D+06 0.34318188D+06 0.34318188D+06 0.10802572D+01  1  2  5  2  6  2        2 -.158733331165D-01 0.100000000000D+01
0.758383984753D-02 0.000000000000D+00 0.436419289393D-03 0.756597308833D-05 0.000000000000D+00  6 -2 2 25 1 -1 21 2 0.38133589D-01 0.39914220D+00 0.34318188D+06 0.34318188D+06 0.34318188D+06 0.10802572D+01  1  2  6  2  6  2        2 0.224766573482D-01 0.100000000000D+01
0.204570822926D-09 0.000000000000D+00 0.000000000000D+00 0.756597308833D-05 0.000000000000D+00  6 -2 21 25 1 -1 -2 2 0.38133589D-01 0.43787686D+00 0.36229384D+06 0.36229384D+06 0.36229384D+06 0.10785412D+01  1  2 12  6  6  2        2 0.336364801371D-10 0.100000000000D+01
0.920975036938D-04 0.000000000000D+00 0.000000000000D+00 0.756597308833D-05 0.000000000000D+00  6 -2 21 25 1 -1 -2 2 0.38133589D-01 0.44084618D+00 0.36229384D+06 0.36229384D+06 0.36229384D+06 0.10785412D+01  1  2 12  6  6  2        2 0.144137576630D-04 0.100000000000D+01
-.113410080760D-03 0.000000000000D+00 -.662635254683D-05 0.756597308833D-05 0.000000000000D+00  6 -2 21 25 1 -1 -2 2 0.38133589D-01 0.43764192D+00 0.34318188D+06 0.34318188D+06 0.34318188D+06 0.10802572D+01  1  2  5  6  6  2        2 -.189021603563D-04 0.100000000000D+01
  </mgrwgt>
  </event>
  <event>
  6     66 0.17652913E-05 0.36708277E+02 0.75467711E-02 0.85136049E-01
       -2 -1    0    0    0  503 0.00000000E+00 0.00000000E+00 0.22388471E+04 0.22388471E+04 0.32000000E+00 0.0000E+00 0.9000E+01
        2 -1    0    0  502    0 0.00000000E+00 0.00000000E+00 -.20508792E+04 0.20508793E+04 0.32000000E+00 0.0000E+00 0.9000E+01
       25  1    1    2    0    0 -.10145357E+04 0.70957077E+03 -.44450102E+03 0.13213552E+04 0.12500000E+03 0.0000E+00 0.9000E+01
        1  1    1    2  502    0 -.13909558E+01 0.23225115E+01 -.92351824E+03 0.92352226E+03 0.32000000E+00 0.0000E+00 0.9000E+01
       -1  1    1    2    0  501 0.10471228E+04 -.69008712E+03 0.13795930E+04 0.18643935E+04 0.32000000E+00 0.0000E+00 0.9000E+01
       21  1    1    2  501  503 -.31196153E+02 -.21806166E+02 0.17639416E+03 0.18045545E+03 0.75000000E+00 0.0000E+00 0.9000E+01
#aMCatNLO 2  0  0  1  5 0.10564997D+02 0.00000000D+00  -5  6  0 0.00000000D+00 0.00000000D+00 0.00000000D+00 0.00000000D+00 0.00000000D+00
  <mgrwgt>
 0.3630500883D-02    1    2    0
 0.205453917542533D+04 0.000000000000000D+00 0.000000000000000D+00 0.205453917542533D+04
 0.205453917542533D+04 0.000000000000000D+00 0.000000000000000D+00 -.205453917542533D+04
 0.132656546122966D+04 -.102457936597812D+04 0.702533433713842D+03 -.448145980963307D+03
 0.926227187232867D+03 -.842251587931469D+01 -.259247125935303D+01 -.926185263696384D+03
 0.185628570238813D+04 0.103300188185744D+04 -.699940962454489D+03 0.137433124465969D+04
 0.000000000000000D+00 -.000000000000000D+00 -.000000000000000D+00 0.000000000000000D+00
 0.223254944798913D+04 0.000000000000000D+00 0.000000000000000D+00 0.223254944798913D+04
 0.205666290817045D+04 0.000000000000000D+00 0.000000000000000D+00 -.205666290817045D+04
 0.132257197921439D+04 -.101452344616542D+04 0.709562539266375D+03 -.448145980963307D+03
 0.926189220384387D+03 -.139088717996788D+01 0.232264951075041D+01 -.926185263696384D+03
 0.186049342895203D+04 0.104711048654351D+04 -.690079023081022D+03 0.137433124465969D+04
 0.179957727608771D+03 -.311961531981247D+02 -.218061656961033D+02 0.175886539818674D+03
0.345822849240D+00 0.000000000000D+00 0.000000000000D+00 0.728938309823D-04 0.235044467094D-06  6 -2 2 25 1 -1 21 2 0.34443789D+00 0.31551977D+00 0.16118261D+07 0.16118261D+07 0.16118261D+07 0.10343361D+01  1  2  1  1  6  1       -2 0.363050088337D-02 0.100000000000D+01
  </mgrwgt>
  </event>
  <event>
  5     66 -.17652913E-05 0.90472649E+02 0.75467711E-02 0.94566002E-01
       -2 -1    0    0    0  501 0.00000000E+00 0.00000000E+00 0.66267692E+03 0.66267700E+03 0.32000000E+00 0.0000E+00 0.9000E+01
        2 -1    0    0  502    0 -.00000000E+00 -.00000000E+00 -.23847601E+04 0.23847601E+04 0.32000000E+00 0.0000E+00 0.9000E+01
       25  1    1    2    0    0 -.44136470E+03 -.20433460E+03 -.55564397E+03 0.74894636E+03 0.12500000E+03 0.0000E+00 0.9000E+01
        1  1    1    2  502    0 0.39191918E+03 0.12856425E+03 -.17040811E+04 0.17532889E+04 0.32000000E+00 0.0000E+00 0.9000E+01
       -1  1    1    2    0  501 0.49445520E+02 0.75770348E+02 0.53764197E+03 0.54520180E+03 0.32000000E+00 0.0000E+00 0.9000E+01
#aMCatNLO 1  0  0  5  1 0.26141540D+01 0.00000000D+00  -5  6  0 0.00000000D+00 0.00000000D+00 0.00000000D+00 0.00000000D+00 0.00000000D+00
  <mgrwgt>
 -.3669659477D-01    9    2    0
 0.125711001964171D+04 0.000000000000000D+00 0.000000000000000D+00 0.125711001964171D+04
 0.125711001964171D+04 -.000000000000000D+00 -.000000000000000D+00 -.125711001964171D+04
 0.527224060068019D+03 -.441403162308707D+03 -.204346355233496D+03 -.160455678993502D+03
 0.957960810944758D+03 0.391959771119621D+03 0.128579269039944D+03 -.864594601361208D+03
 0.102903516827065D+04 0.494433911890857D+02 0.757670861935517D+02 0.102505028035471D+04
 0.000000000000000D+00 0.000000000000000D+00 0.000000000000000D+00 0.000000000000000D+00
 0.125711001964171D+04 0.000000000000000D+00 0.000000000000000D+00 0.125711001964171D+04
 0.125711001964171D+04 -.000000000000000D+00 -.000000000000000D+00 -.125711001964171D+04
 0.527220392071652D+03 -.441402688439341D+03 -.204345629075759D+03 -.160445854830660D+03
 0.957945229804917D+03 0.391960632131483D+03 0.128580588455105D+03 -.864576751039272D+03
 0.950367254294485D+03 0.477113789680864D+02 0.715845258339871D+02 0.946465634882389D+03
 0.786871631123746D+02 0.173067733977143D+01 0.418051478666570D+01 0.785569709875421D+02
0.775854663368D-04 0.000000000000D+00 0.000000000000D+00 0.187964355578D-03 0.000000000000D+00  6 -2 2 25 1 -1 21 0 0.10195030D+00 0.36688617D+00 0.25260558D+06 0.25260558D+06 0.25260558D+06 0.10901205D+01  1  2  2  4  6  5       -1 0.332898335222D-04 0.100000000000D+01
0.223566193129D-04 0.000000000000D+00 -.297948619456D-06 0.187964355578D-03 0.000000000000D+00  6 -2 2 25 1 -1 21 2 0.10195030D+00 0.36688617D+00 0.25260558D+06 0.25260558D+06 0.25260558D+06 0.10901205D+01  1  2  3  4  6  5       -1 0.113995158362D-04 0.100000000000D+01
-.499250880400D-04 0.000000000000D+00 0.000000000000D+00 0.187964355578D-03 0.000000000000D+00  6 -2 2 25 1 -1 21 2 0.10195030D+00 0.36688617D+00 0.25260558D+06 0.25260558D+06 0.25260558D+06 0.10901205D+01  1  2 15  4  6  5       -1 -.254565246994D-04 0.100000000000D+01
0.138490318181D-10 0.000000000000D+00 0.000000000000D+00 0.187964355578D-03 0.000000000000D+00  6 -2 2 25 1 -1 21 2 0.10195030D+00 0.36688617D+00 0.25264574D+06 0.25264574D+06 0.25264574D+06 0.10901153D+01  1  2 12  4  6  5       -1 0.706139061825D-11 0.100000000000D+01
0.179009242564D-02 0.000000000000D+00 0.000000000000D+00 0.187964355578D-03 0.000000000000D+00  6 -2 2 25 1 -1 21 2 0.10195030D+00 0.36688617D+00 0.25264574D+06 0.25264574D+06 0.25264574D+06 0.10901153D+01  1  2 12  4  6  5       -1 0.912738307354D-03 0.100000000000D+01
-.885739173807D+00 0.000000000000D+00 0.000000000000D+00 0.187964355578D-03 0.000000000000D+00  6 -2 2 25 1 -1 21 2 0.10195030D+00 0.36688617D+00 0.25260558D+06 0.25260558D+06 0.25260558D+06 0.10901205D+01  1  2  4  4  6  5       -1 -.451633478086D+00 0.100000000000D+01
-.388434353956D+00 0.000000000000D+00 0.000000000000D+00 0.187964355578D-03 0.000000000000D+00  6 -2 2 25 1 -1 21 2 0.10195030D+00 0.36688617D+00 0.25260558D+06 0.25260558D+06 0.25260558D+06 0.10901205D+01  1  2  5  4  6  5       -1 -.198060516542D+00 0.100000000000D+01
0.419268779042D+00 0.000000000000D+00 -.000000000000D+00 0.187964355578D-03 0.000000000000D+00  6 -2 2 25 1 -1 21 2 0.10195030D+00 0.36688617D+00 0.25260558D+06 0.25260558D+06 0.25260558D+06 0.10901205D+01  1  2  6  4  6  5       -1 0.213782818386D+00 0.100000000000D+01
0.781124971162D+00 0.000000000000D+00 0.000000000000D+00 0.187964355578D-03 0.349803543068D-03  6 -2 2 25 1 -1 21 2 0.10195030D+00 0.36688617D+00 0.25264574D+06 0.25264574D+06 0.25264574D+06 0.10901153D+01  1  2 11  4  6  5       -1 0.398282610328D+00 0.100000000000D+01
  </mgrwgt>
  </event>
  <event>
  5     66 -.17652913E-05 0.22886653E+02 0.75467711E-02 0.93071053E-01
       -2 -1    0    0    0  501 0.00000000E+00 0.00000000E+00 0.30256345E+03 0.30256362E+03 0.32000000E+00 0.0000E+00 0.9000E+01
        2 -1    0    0  502    0 0.00000000E+00 0.00000000E+00 -.24010424E+04 0.24010424E+04 0.32000000E+00 0.0000E+00 0.9000E+01
       25  1    1    2    0    0 0.24900885E+03 0.46619303E+03 -.10945849E+03 0.55402844E+03 0.12500000E+03 0.0000E+00 0.9000E+01
        1  1    1    2  502    0 -.22946361E+03 -.47818953E+03 -.20324213E+04 0.21004892E+04 0.32000000E+00 0.0000E+00 0.9000E+01
       -1  1    1    2    0  501 -.19545236E+02 0.11996498E+02 0.43400817E+02 0.49088344E+02 0.32000000E+00 0.0000E+00 0.9000E+01
#aMCatNLO 1  0  0  1  5 0.10564997D+02 0.00000000D+00  -5  6  0 0.00000000D+00 0.00000000D+00 0.00000000D+00 0.00000000D+00 0.00000000D+00
  <mgrwgt>
 -.1128562635D-01    5    4    0
 0.852330874843448D+03 0.000000000000000D+00 0.000000000000000D+00 0.852330874843448D+03
 0.852330874843448D+03 0.000000000000000D+00 0.000000000000000D+00 -.852330874843448D+03
 0.744176299944203D+03 0.249017932235842D+03 0.466303499566192D+03 0.508649664421351D+03
 0.829470462596522D+03 -.229512377358388D+03 -.478275642034789D+03 -.637650160507782D+03
 0.131014987146170D+03 -.195055548774543D+02 0.119721424685978D+02 0.129000496086431D+03
 0.000000000000000D+00 0.000000000000000D+00 -.000000000000000D+00 0.000000000000000D+00
 0.189581151249160D+04 0.000000000000000D+00 0.000000000000000D+00 0.189581151249160D+04
 0.853328008023235D+03 0.000000000000000D+00 0.000000000000000D+00 -.853328008023235D+03
 0.751558863503841D+03 0.236138314161183D+03 0.484489360853617D+03 0.508649664421351D+03
 0.822159492172773D+03 -.243734389074056D+03 -.458194337543458D+03 -.637650160507782D+03
 0.131700350256773D+03 -.217677689985055D+02 0.151663608040651D+02 0.129000496086431D+03
 0.104372081458145D+04 0.293638439113781D+02 -.414613841142235D+02 0.104248350446837D+04
 0.852330874843448D+03 0.000000000000000D+00 0.000000000000000D+00 0.852330874843448D+03
 0.852330874843448D+03 0.000000000000000D+00 0.000000000000000D+00 -.852330874843448D+03
 0.744176299944203D+03 0.249017932235842D+03 0.466303499566192D+03 0.508649664421351D+03
 0.829470462596522D+03 -.229512377358388D+03 -.478275642034789D+03 -.637650160507782D+03
 0.000000000000000D+00 0.000000000000000D+00 -.000000000000000D+00 0.000000000000000D+00
 0.131014987146170D+03 -.195055548774543D+02 0.119721424685978D+02 0.129000496086431D+03
 0.189581151249160D+04 0.000000000000000D+00 0.000000000000000D+00 0.189581151249160D+04
 0.853328008023235D+03 0.000000000000000D+00 0.000000000000000D+00 -.853328008023235D+03
 0.751558863503841D+03 0.236138314161183D+03 0.484489360853617D+03 0.508649664421351D+03
 0.822159492172773D+03 -.243734389074056D+03 -.458194337543458D+03 -.637650160507782D+03
 0.104372081458145D+04 0.293638439113781D+02 -.414613841142235D+02 0.104248350446837D+04
 0.131700350256773D+03 -.217677689985055D+02 0.151663608040651D+02 0.129000496086431D+03
0.542463948261D-04 0.000000000000D+00 0.000000000000D+00 0.127584195885D-04 0.000000000000D+00  6 -2 2 25 1 -1 21 0 0.46548237D-01 0.36939115D+00 0.30062595D+06 0.30062595D+06 0.30062595D+06 0.10844849D+01  1  2  2  1  6  1       -2 0.122925731327D-03 0.100000000000D+01
0.191838080970D-04 0.000000000000D+00 -.208320439536D-06 0.127584195885D-04 0.000000000000D+00  6 -2 2 25 1 -1 21 2 0.46548237D-01 0.36939115D+00 0.30062595D+06 0.30062595D+06 0.30062595D+06 0.10844849D+01  1  2  3  1  6  1       -2 0.511274062301D-04 0.100000000000D+01
-.365644440160D-04 0.000000000000D+00 0.000000000000D+00 0.127584195885D-04 0.000000000000D+00  6 -2 2 25 1 -1 21 2 0.46548237D-01 0.36939115D+00 0.30062595D+06 0.30062595D+06 0.30062595D+06 0.10844849D+01  1  2 15  1  6  1       -2 -.974491182005D-04 0.100000000000D+01
-.135178462548D-01 0.000000000000D+00 -.357115256935D-04 0.127584195885D-04 0.000000000000D+00  6 -2 2 25 1 -1 21 2 0.10356990D+00 0.36939115D+00 0.30062595D+06 0.30062595D+06 0.30062595D+06 0.10844849D+01  1  2  5  1  6  1       -2 -.633923232180D-02 0.100000000000D+01
-.117056541648D-02 0.000000000000D+00 -.309836199666D-05 0.127584195885D-04 0.000000000000D+00  6 21 2 25 1 2 -1 2 0.10356990D+00 0.36939115D+00 0.30062595D+06 0.30062595D+06 0.30062595D+06 0.10844849D+01  3  4  5  5  5  1       -2 -.502299804402D-02 0.100000000000D+01
  </mgrwgt>
  </event>
  <event>
  6     66 0.17652913E-05 0.15488385E+02 0.75467711E-02 0.90214541E-01
       -2 -1    0    0    0  503 0.00000000E+00 0.00000000E+00 0.47698743E+03 0.47698754E+03 0.32000000E+00 0.0000E+00 0.9000E+01
        2 -1    0    0  502    0 0.00000000E+00 0.00000000E+00 -.25728730E+04 0.25728731E+04 0.32000000E+00 0.0000E+00 0.9000E+01
       25  1    1    2    0    0 -.22891973E+03 0.67857206E+03 -.15121636E+04 0.16778343E+04 0.12500000E+03 0.0000E+00 0.9000E+01
        1  1    1    2  502    0 0.17317323E+02 -.24838421E+02 -.57464060E+03 0.57543789E+03 0.32000000E+00 0.0000E+00 0.9000E+01
       -1  1    1    2    0  501 0.22923255E+03 -.67877880E+03 -.78480915E+02 0.72072712E+03 0.32000000E+00 0.0000E+00 0.9000E+01
       21  1    1    2  501  503 -.17630145E+02 0.25045165E+02 0.69399488E+02 0.75861280E+02 0.75000000E+00 0.0000E+00 0.9000E+01
#aMCatNLO 2  0  0  1  4 0.15950723D+03 0.00000000D+00  -5  6  0 0.00000000D+00 0.00000000D+00 0.00000000D+00 0.00000000D+00 0.00000000D+00
  <mgrwgt>
 0.1658261997D-02    1    2    0
 0.101922449990176D+04 0.000000000000000D+00 0.000000000000000D+00 0.101922449990176D+04
 0.101922449990176D+04 0.000000000000000D+00 0.000000000000000D+00 -.101922449990176D+04
 0.851944997499337D+03 -.236242727521921D+03 0.688975320953547D+03 -.423895812168633D+03
 0.228683799132425D+03 0.153377686224947D+02 -.220264387609450D+02 -.227103211854946D+03
 0.957820203171749D+03 0.220904958899426D+03 -.666948882192602D+03 0.650999024023579D+03
 0.000000000000000D+00 -.000000000000000D+00 0.000000000000000D+00 0.000000000000000D+00
 0.120243180637808D+04 0.000000000000000D+00 0.000000000000000D+00 0.120243180637808D+04
 0.102062042937546D+04 0.000000000000000D+00 0.000000000000000D+00 -.102062042937546D+04
 0.841532926649075D+03 -.228919861923884D+03 0.678572548720623D+03 -.423895812168633D+03
 0.229112889774076D+03 0.173173536978505D+02 -.248386128175249D+02 -.227103211854946D+03
 0.968033267473567D+03 0.229232653005117D+03 -.678779101366663D+03 0.650999024023579D+03
 0.184373151856822D+03 -.176301447790837D+02 0.250451654635645D+02 0.181811377002623D+03
0.217507091553D-02 0.000000000000D+00 0.000000000000D+00 0.102005638464D-04 0.397789971546D-07  6 -2 2 25 1 -1 21 2 0.73382637D-01 0.39582634D+00 0.56574653D+06 0.56574653D+06 0.56574653D+06 0.10647391D+01  1  2  1  1  6  1       -2 0.165826199707D-02 0.100000000000D+01
  </mgrwgt>
  </event>
  <event>
  6     66 -.17652913E-05 0.58413857E+02 0.75467711E-02 0.93693946E-01
       -2 -1    0    0    0  501 0.00000000E+00 0.00000000E+00 0.14423055E+04 0.14423055E+04 0.32000000E+00 0.0000E+00 0.9000E+01
        2 -1    0    0  502    0 -.00000000E+00 -.00000000E+00 -.39013292E+04 0.39013292E+04 0.32000000E+00 0.0000E+00 0.9000E+01
       25  1    1    2    0    0 0.50697793E+03 0.10094902E+03 0.48498383E+03 0.71975804E+03 0.12500000E+03 0.0000E+00 0.9000E+01
        1  1    1    2  503    0 -.42556583E+03 -.15887925E+03 -.31454217E+04 0.31780539E+04 0.32000000E+00 0.0000E+00 0.9000E+01
       -1  1    1    2    0  501 -.61440285E+02 0.38328943E+02 0.82171038E+03 0.82489519E+03 0.32000000E+00 0.0000E+00 0.9000E+01
       21  1    1    2  502  503 -.19971813E+02 0.19601290E+02 -.62029619E+03 0.62092754E+03 0.75000000E+00 0.0000E+00 0.9000E+01
#aMCatNLO 2  0  0  4  2 0.67560560D+02 0.00000000D+00  -5  6  0 0.00000000D+00 0.00000000D+00 0.00000000D+00 0.00000000D+00 0.00000000D+00
  <mgrwgt>
 -.1314191055D-02    3    2    0
 0.237211057145626D+04 0.000000000000000D+00 0.000000000000000D+00 0.237211057145626D+04
 0.237211057145626D+04 -.000000000000000D+00 -.000000000000000D+00 -.237211057145626D+04
 0.106372696850274D+04 0.507311868658229D+03 0.101058315506732D+03 0.921038516189994D+03
 0.232357245209338D+04 -.446275709199418D+03 -.139508477747164D+03 -.227604136960260D+04
 0.135692172231640D+04 -.610361594588098D+02 0.384501622404323D+02 0.135500285341261D+04
 0.000000000000000D+00 0.000000000000000D+00 0.000000000000000D+00 -.000000000000000D+00
 0.237211057145626D+04 0.000000000000000D+00 0.000000000000000D+00 0.237211057145626D+04
 0.237211057145626D+04 -.000000000000000D+00 -.000000000000000D+00 -.237211057145626D+04
 0.106218827005834D+04 0.506999261588527D+03 0.100960592651717D+03 0.919444195440721D+03
 0.194919145136876D+04 -.425585662202382D+03 -.158890498697226D+03 -.189551522485064D+04
 0.135490537036765D+04 -.614349224506765D+02 0.383255065246260D+02 0.135296913065458D+04
 0.377936051117770D+03 -.199786769354671D+02 0.196043995208842D+02 -.376898101244656D+03
-.462826125096D-10 0.000000000000D+00 0.000000000000D+00 0.270320550879D-02 0.000000000000D+00  6 -2 2 25 1 -1 21 2 0.22189315D+00 0.60020449D+00 0.29513719D+06 0.29513719D+06 0.29513719D+06 0.10850773D+01  1  2 13  3  6  4        1 -.258532682898D-12 0.100000000000D+01
-.669881114084D+00 0.000000000000D+00 0.000000000000D+00 0.270320550879D-02 0.000000000000D+00  6 -2 2 25 1 -1 21 2 0.22189315D+00 0.60020449D+00 0.29513719D+06 0.29513719D+06 0.29513719D+06 0.10850773D+01  1  2 13  3  6  4        1 -.374192709218D-02 0.100000000000D+01
0.434614165661D+00 0.000000000000D+00 0.000000000000D+00 0.270320550879D-02 0.192998939598D-04  6 -2 2 25 1 -1 21 2 0.22189315D+00 0.60020449D+00 0.29513719D+06 0.29513719D+06 0.29513719D+06 0.10850773D+01  1  2  1  3  6  4        1 0.242773603695D-02 0.100000000000D+01
  </mgrwgt>
  </event>
  <event>
  5     66 -.17652913E-05 0.19520772E+02 0.75467711E-02 0.93541577E-01
       -2 -1    0    0    0  501 0.00000000E+00 0.00000000E+00 0.77517745E+03 0.77517751E+03 0.32000000E+00 0.0000E+00 0.9000E+01
        2 -1    0    0  502    0 -.00000000E+00 -.00000000E+00 -.14260535E+04 0.14260535E+04 0.32000000E+00 0.0000E+00 0.9000E+01
       25  1    1    2    0    0 -.10245547E+03 0.53138765E+03 -.18206149E+03 0.58450094E+03 0.12500000E+03 0.0000E+00 0.9000E+01
        1  1    1    2  502    0 -.98560317E+01 -.16847288E+02 -.92183441E+03 0.92204108E+03 0.32000000E+00 0.0000E+00 0.9000E+01
       -1  1    1    2    0  501 0.11231150E+03 -.51454036E+03 0.45301990E+03 0.69468899E+03 0.32000000E+00 0.0000E+00 0.9000E+01
#aMCatNLO 1  0  0  4  2 0.67560560D+02 0.00000000D+00  -5  6  0 0.00000000D+00 0.00000000D+00 0.00000000D+00 0.00000000D+00 0.00000000D+00
  <mgrwgt>
 -.1593603519D-01    1    2    0
 0.105140124974882D+04 0.000000000000000D+00 0.000000000000000D+00 0.105140124974882D+04
 0.105140124974882D+04 -.000000000000000D+00 -.000000000000000D+00 -.105140124974882D+04
 0.555484158041001D+03 -.102449315570923D+03 0.531366346435118D+03 -.957044668569438D+01
 0.679929211012984D+03 -.985710512142970D+01 -.168492730346965D+02 -.679648932512637D+03
 0.867389130443652D+03 0.112306420692354D+03 -.514517073400420D+03 0.689219379198331D+03
 0.000000000000000D+00 -.000000000000000D+00 0.000000000000000D+00 0.000000000000000D+00
 0.105140124974882D+04 0.000000000000000D+00 0.000000000000000D+00 0.105140124974882D+04
 0.105140124974882D+04 -.000000000000000D+00 -.000000000000000D+00 -.105140124974882D+04
 0.556922161366549D+03 -.103060628425849D+03 0.530321396921506D+03 -.517205631918347D+02
 0.190069301326722D+03 0.176935943649288D+03 0.127349081067966D+01 -.694146193025595D+02
 0.818424352849479D+03 0.111379997104709D+03 -.516100658416682D+03 0.625342328620021D+03
 0.537386683954888D+03 -.185255312328148D+03 -.154942293155024D+02 -.504207146125627D+03
-.140171215765D-01 0.000000000000D+00 0.000000000000D+00 0.162423331381D-03 0.000000000000D+00  6 -2 2 25 1 -1 21 2 0.11925808D+00 0.21939285D+00 0.30335519D+06 0.30335519D+06 0.30335519D+06 0.10841947D+01  1  2 14  3  6  4        1 -.159360351918D-01 0.100000000000D+01
  </mgrwgt>
  </event>
  <event>
  5     66 0.17652913E-05 0.23934409E+02 0.75467711E-02 0.85193102E-01
       -2 -1    0    0    0  501 0.00000000E+00 0.00000000E+00 0.71899705E+03 0.71899712E+03 0.32000000E+00 0.0000E+00 0.9000E+01
        2 -1    0    0  502    0 0.00000000E+00 0.00000000E+00 -.12635914E+04 0.12635914E+04 0.32000000E+00 0.0000E+00 0.9000E+01
       25  1    1    2    0    0 -.58031641E+03 -.42163150E+03 -.78407985E+03 0.10700217E+04 0.12500000E+03 0.0000E+00 0.9000E+01
        1  1    1    2  502    0 0.24126524E+01 -.23831136E+02 -.10355336E+03 0.10628803E+03 0.32000000E+00 0.0000E+00 0.9000E+01
       -1  1    1    2    0  501 0.57790376E+03 0.44546263E+03 0.34303889E+03 0.80627879E+03 0.32000000E+00 0.0000E+00 0.9000E+01
#aMCatNLO 1  0  0  2  4 0.18606467D+02 0.00000000D+00  -5  6  0 0.00000000D+00 0.00000000D+00 0.00000000D+00 0.00000000D+00 0.00000000D+00
  <mgrwgt>
 0.1083642429D-02    5    2    0
 0.953162410088228D+03 0.000000000000000D+00 0.000000000000000D+00 0.953162410088228D+03
 0.953162410088228D+03 0.000000000000000D+00 0.000000000000000D+00 -.953162410088228D+03
 0.888906923444289D+03 -.580323067754946D+03 -.421657642308250D+03 -.509863205440172D+03
 0.808684004290701D+02 0.240910239744233D+01 -.238128570794760D+02 -.772453380554939D+02
 0.936549496303098D+03 0.577913965357503D+03 0.445470499387726D+03 0.587108543495666D+03
 0.000000000000000D+00 0.000000000000000D+00 0.000000000000000D+00 -.000000000000000D+00
 0.133549633794696D+04 0.000000000000000D+00 0.000000000000000D+00 0.133549633794696D+04
 0.172793231964055D+04 0.000000000000000D+00 0.000000000000000D+00 -.172793231964055D+04
 0.129681369470187D+04 -.103273559113008D+04 -.582749920049582D+03 -.509863205440172D+03
 0.917125667667715D+02 -.333126592071189D+02 -.365324429540697D+02 -.772453380554939D+02
 0.711190248749112D+03 0.236855693895146D+03 0.324028560993735D+03 0.587108543495666D+03
 0.963712147369758D+03 0.829192556442049D+03 0.295253802009917D+03 -.392435981693598D+03
0.117343565174D-02 0.000000000000D+00 0.000000000000D+00 0.135455181518D-05 0.000000000000D+00  6 -2 2 25 1 -1 21 0 0.11061494D+00 0.19439868D+00 0.54890045D+06 0.54890045D+06 0.54890045D+06 0.10656581D+01  1  2  2  2  6  2        2 0.164031009038D-02 0.100000000000D+01
0.441053260808D-03 0.000000000000D+00 -.450630187539D-05 0.135455181518D-05 0.000000000000D+00  6 -2 2 25 1 -1 21 2 0.11061494D+00 0.19439868D+00 0.54890045D+06 0.54890045D+06 0.54890045D+06 0.10656581D+01  1  2  3  2  6  2        2 0.700153924847D-03 0.100000000000D+01
-.732203077709D-03 0.000000000000D+00 0.000000000000D+00 0.135455181518D-05 0.000000000000D+00  6 -2 2 25 1 -1 21 2 0.11061494D+00 0.19439868D+00 0.54890045D+06 0.54890045D+06 0.54890045D+06 0.10656581D+01  1  2 15  2  6  2        2 -.116234229332D-02 0.100000000000D+01
-.357822540467D-03 0.000000000000D+00 -.637909559493D-03 0.135455181518D-05 0.000000000000D+00  6 -2 2 25 1 -1 21 2 0.11061494D+00 0.40664595D+00 0.54890045D+06 0.54890045D+06 0.54890045D+06 0.10656581D+01  1  2  5  2  6  2        2 -.947582245513D-04 0.100000000000D+01
0.108687639632D-04 0.000000000000D+00 -.509136460484D-04 0.135455181518D-05 0.000000000000D+00  6 -2 21 25 1 -1 -2 2 0.11061494D+00 0.40664595D+00 0.54890045D+06 0.54890045D+06 0.54890045D+06 0.10656581D+01  1  2  5  6  6  2        2 0.278931953761D-06 0.100000000000D+01
  </mgrwgt>
  </event>
  <event>
  5     66 -.17652913E-05 0.12915320E+03 0.75467711E-02 0.93730300E-01
       -2 -1    0    0    0  501 0.00000000E+00 0.00000000E+00 0.69847444E+03 0.69847451E+03 0.32000000E+00 0.0000E+00 0.9000E+01
        2 -1    0    0  502    0 -.00000000E+00 -.00000000E+00 -.12170402E+04 0.12170403E+04 0.32000000E+00 0.0000E+00 0.9000E+01
       25  1    1    2    0    0 -.31138277E+03 -.42901974E+03 0.10685499E+03 0.55503167E+03 0.12500000E+03 0.0000E+00 0.9000E+01
        1  1    1    2  502    0 0.24738945E+03 0.31678238E+03 -.93895820E+03 0.10213693E+04 0.32000000E+00 0.0000E+00 0.9000E+01
       -1  1    1    2    0  501 0.63993318E+02 0.11223736E+03 0.31353742E+03 0.33911382E+03 0.32000000E+00 0.0000E+00 0.9000E+01
#aMCatNLO 1  0  0  5  1 0.27078065D+02 0.00000000D+00  -5  6  0 0.00000000D+00 0.00000000D+00 0.00000000D+00 0.00000000D+00 0.00000000D+00
  <mgrwgt>
 -.1717550559D-02    8    2    0
 0.921993272644018D+03 0.000000000000000D+00 0.000000000000000D+00 0.921993272644018D+03
 0.921993272644018D+03 -.000000000000000D+00 -.000000000000000D+00 -.921993272644018D+03
 0.606711060665117D+03 -.311404573709123D+03 -.429038669391723D+03 0.267257035029970D+03
 0.796990541981852D+03 0.247433916083312D+03 0.316841052720445D+03 -.688173036736549D+03
 0.440284942641066D+03 0.639706576258110D+02 0.112197616671278D+03 0.420916001706579D+03
 0.000000000000000D+00 0.000000000000000D+00 0.000000000000000D+00 0.000000000000000D+00
 0.921993272644018D+03 0.000000000000000D+00 0.000000000000000D+00 0.921993272644018D+03
 0.921993272644018D+03 -.000000000000000D+00 -.000000000000000D+00 -.921993272644018D+03
 0.606932314604737D+03 -.311212541392111D+03 -.428701865471109D+03 0.268520574878943D+03
 0.795813657307882D+03 0.247685942244513D+03 0.317283079356953D+03 -.686514747639090D+03
 0.310177424087928D+03 0.694187049732137D+02 0.883461242497983D+02 0.289112504301878D+03
 0.131063149287489D+03 -.589210582561568D+01 0.230726618643578D+02 0.128881668458270D+03
0.203449779721D-03 0.000000000000D+00 0.000000000000D+00 0.715139935039D-05 0.000000000000D+00  6 -2 2 25 1 -1 21 0 0.10745761D+00 0.18723697D+00 0.28935736D+06 0.28935736D+06 0.28935736D+06 0.10857143D+01  1  2  2  4  6  5       -1 0.336278319513D-03 0.100000000000D+01
0.258497716454D-04 0.000000000000D+00 -.781300723684D-06 0.715139935039D-05 0.000000000000D+00  6 -2 2 25 1 -1 21 2 0.10745761D+00 0.18723697D+00 0.28935736D+06 0.28935736D+06 0.28935736D+06 0.10857143D+01  1  2  3  4  6  5       -1 0.503650780277D-04 0.100000000000D+01
-.149283281800D-03 0.000000000000D+00 0.000000000000D+00 0.715139935039D-05 0.000000000000D+00  6 -2 2 25 1 -1 21 2 0.10745761D+00 0.18723697D+00 0.28935736D+06 0.28935736D+06 0.28935736D+06 0.10857143D+01  1  2 15  4  6  5       -1 -.290859982796D-03 0.100000000000D+01
0.383141669434D-08 0.000000000000D+00 0.000000000000D+00 0.715139935039D-05 0.000000000000D+00  6 -2 2 25 1 -1 21 2 0.10745761D+00 0.18723697D+00 0.29321350D+06 0.29321350D+06 0.29321350D+06 0.10852878D+01  1  2 12  4  6  5       -1 0.745399389246D-08 0.100000000000D+01
0.263745876310D-02 0.000000000000D+00 0.000000000000D+00 0.715139935039D-05 0.000000000000D+00  6 -2 2 25 1 -1 21 2 0.10745761D+00 0.18723697D+00 0.29321350D+06 0.29321350D+06 0.29321350D+06 0.10852878D+01  1  2 12  4  6  5       -1 0.513115724030D-02 0.100000000000D+01
-.469228599849D-02 0.000000000000D+00 0.000000000000D+00 0.715139935039D-05 0.000000000000D+00  6 -2 2 25 1 -1 21 2 0.10745761D+00 0.18723697D+00 0.28935736D+06 0.28935736D+06 0.28935736D+06 0.10857143D+01  1  2  4  4  6  5       -1 -.914233803239D-02 0.100000000000D+01
-.315373722962D-02 0.000000000000D+00 0.000000000000D+00 0.715139935039D-05 0.000000000000D+00  6 -2 2 25 1 -1 21 2 0.10745761D+00 0.18723697D+00 0.28935736D+06 0.28935736D+06 0.28935736D+06 0.10857143D+01  1  2  5  4  6  5       -1 -.614466633701D-02 0.100000000000D+01
0.428177371634D-02 0.000000000000D+00 -.000000000000D+00 0.715139935039D-05 0.000000000000D+00  6 -2 2 25 1 -1 21 2 0.10745761D+00 0.18723697D+00 0.28935736D+06 0.28935736D+06 0.28935736D+06 0.10857143D+01  1  2  6  4  6  5       -1 0.834250570097D-02 0.100000000000D+01
  </mgrwgt>
  </event>
  <event>
  5     66 -.17652913E-05 0.20199990E+03 0.75467711E-02 0.90583266E-01
       -2 -1    0    0    0  501 0.00000000E+00 0.00000000E+00 0.72222283E+03 0.72222290E+03 0.32000000E+00 0.0000E+00 0.9000E+01
        2 -1    0    0  502    0 -.00000000E+00 -.00000000E+00 -.17528394E+04 0.17528394E+04 0.32000000E+00 0.0000E+00 0.9000E+01
       25  1    1    2    0    0 0.57507808E+03 0.71561396E+02 -.79454079E+03 0.99134046E+03 0.12500000E+03 0.0000E+00 0.9000E+01
        1  1    1    2  502    0 0.22510199E+02 0.20074165E+03 -.66788921E+03 0.69776788E+03 0.32000000E+00 0.0000E+00 0.9000E+01
       -1  1    1    2    0  501 -.59758828E+03 -.27230305E+03 0.43181344E+03 0.78595398E+03 0.32000000E+00 0.0000E+00 0.9000E+01
#aMCatNLO 1  0  0  4  2 0.90699258D+01 0.00000000D+00  -5  6  0 0.00000000D+00 0.00000000D+00 0.00000000D+00 0.00000000D+00 0.00000000D+00
  <mgrwgt>
 -.5197087530D-03    9    2    0
 0.112514032390176D+04 0.000000000000000D+00 0.000000000000000D+00 0.112514032390176D+04
 0.112514032390176D+04 -.000000000000000D+00 -.000000000000000D+00 -.112514032390176D+04
 0.726470525084273D+03 0.575078308682538D+03 0.715612475354156D+02 -.419878971312241D+03
 0.461578669370482D+03 0.225099314083936D+02 0.200741783438502D+03 -.415031212546410D+03
 0.106223145334877D+04 -.597588240090932D+03 -.272303030973918D+03 0.834910183858651D+03
 0.000000000000000D+00 0.000000000000000D+00 0.000000000000000D+00 -.000000000000000D+00
 0.112514032390176D+04 0.000000000000000D+00 0.000000000000000D+00 0.112514032390176D+04
 0.112514032390176D+04 -.000000000000000D+00 -.000000000000000D+00 -.112514032390176D+04
 0.726547289348185D+03 0.575084535669568D+03 0.716167793119952D+02 -.419993782589564D+03
 0.303191255843968D+03 0.113619817423909D+02 0.139434134812245D+03 -.268986923548875D+03
 0.106207359178576D+04 -.597579136265891D+03 -.272221843784069D+03 0.834742330324280D+03
 0.158468510825618D+03 0.111326188539325D+02 0.611709296598297D+02 -.145761624185841D+03
0.693274229165D-05 0.000000000000D+00 0.000000000000D+00 0.318105012040D-06 0.000000000000D+00  6 -2 2 25 1 -1 21 0 0.11111121D+00 0.26966761D+00 0.52674631D+06 0.52674631D+06 0.52674631D+06 0.10669146D+01  1  2  2  3  6  4        1 0.512142785086D-05 0.100000000000D+01
0.489895711407D-06 0.000000000000D+00 -.266235558329D-07 0.318105012040D-06 0.000000000000D+00  6 -2 2 25 1 -1 21 2 0.11111121D+00 0.26966761D+00 0.52674631D+06 0.52674631D+06 0.52674631D+06 0.10669146D+01  1  2  3  3  6  4        1 0.411954213147D-06 0.100000000000D+01
-.436487592865D-05 0.000000000000D+00 0.000000000000D+00 0.318105012040D-06 0.000000000000D+00  6 -2 2 25 1 -1 21 2 0.11111121D+00 0.26966761D+00 0.52674631D+06 0.52674631D+06 0.52674631D+06 0.10669146D+01  1  2 15  3  6  4        1 -.367043227120D-05 0.100000000000D+01
0.964287978410D-08 0.000000000000D+00 0.000000000000D+00 0.318105012040D-06 0.000000000000D+00  6 -2 2 25 1 -1 21 2 0.11111121D+00 0.26966761D+00 0.52677744D+06 0.52677744D+06 0.52677744D+06 0.10669128D+01  1  2 12  3  6  4        1 0.810865743108D-08 0.100000000000D+01
0.970152825354D-03 0.000000000000D+00 0.000000000000D+00 0.318105012040D-06 0.000000000000D+00  6 -2 2 25 1 -1 21 2 0.11111121D+00 0.26966761D+00 0.52677744D+06 0.52677744D+06 0.52677744D+06 0.10669128D+01  1  2 12  3  6  4        1 0.815797468466D-03 0.100000000000D+01
-.207014654046D-02 0.000000000000D+00 0.000000000000D+00 0.318105012040D-06 0.000000000000D+00  6 -2 2 25 1 -1 21 2 0.11111121D+00 0.26966761D+00 0.52674631D+06 0.52674631D+06 0.52674631D+06 0.10669146D+01  1  2  4  3  6  4        1 -.174079006882D-02 0.100000000000D+01
-.974087640341D-03 0.000000000000D+00 0.000000000000D+00 0.318105012040D-06 0.000000000000D+00  6 -2 2 25 1 -1 21 2 0.11111121D+00 0.26966761D+00 0.52674631D+06 0.52674631D+06 0.52674631D+06 0.10669146D+01  1  2  5  3  6  4        1 -.819112105024D-03 0.100000000000D+01
0.145365477982D-02 0.000000000000D+00 -.000000000000D+00 0.318105012040D-06 0.000000000000D+00  6 -2 2 25 1 -1 21 2 0.11111121D+00 0.26966761D+00 0.52674631D+06 0.52674631D+06 0.52674631D+06 0.10669146D+01  1  2  6  3  6  4        1 0.122238100287D-02 0.100000000000D+01
0.171116369094D-06 0.000000000000D+00 0.000000000000D+00 0.318105012040D-06 0.139845671065D-07  6 -2 2 25 1 -1 21 2 0.11111121D+00 0.26966761D+00 0.52677744D+06 0.52677744D+06 0.52677744D+06 0.10669128D+01  1  2 11  3  6  4        1 0.143891041774D-06 0.100000000000D+01
  </mgrwgt>
  </event>
  <event>
  6     66 0.17652913E-05 0.19641486E+03 0.75467711E-02 0.93375993E-01
       -2 -1    0    0    0  503 0.00000000E+00 0.00000000E+00 0.94137111E+03 0.94137117E+03 0.32000000E+00 0.0000E+00 0.9000E+01
        2 -1    0    0  502    0 0.00000000E+00 0.00000000E+00 -.12276493E+04 0.12276494E+04 0.32000000E+00 0.0000E+00 0.9000E+01
       25  1    1    2    0    0 -.26399762E+03 -.48204333E+03 -.84216363E+02 0.56989289E+03 0.12500000E+03 0.0000E+00 0.9000E+01
        1  1    1    2  502    0 0.48784414E+02 0.40145565E+02 -.75880604E+03 0.76143174E+03 0.32000000E+00 0.0000E+00 0.9000E+01
       -1  1    1    2    0  501 0.99328198E+02 0.20534901E+03 0.71323306E+01 0.22822199E+03 0.32000000E+00 0.0000E+00 0.9000E+01
       21  1    1    2  501  503 0.11588501E+03 0.23654875E+03 0.54961187E+03 0.60947389E+03 0.75000000E+00 0.0000E+00 0.9000E+01
#aMCatNLO 2  0  0  1  5 0.41878090D+02 0.00000000D+00  -5  6  0 0.00000000D+00 0.00000000D+00 0.00000000D+00 0.00000000D+00 0.00000000D+00
  <mgrwgt>
 0.1293031708D-01    1    2    0
 0.644997832558558D+03 0.000000000000000D+00 0.000000000000000D+00 0.644997832558558D+03
 0.644997832558558D+03 0.000000000000000D+00 0.000000000000000D+00 -.644997832558558D+03
 0.522315431722515D+03 -.213111622254124D+03 -.378158249701452D+03 0.262236886914153D+03
 0.440710685624759D+03 0.870750150494055D+02 0.118292167861438D+03 -.415512711238335D+03
 0.326969547769842D+03 0.126036607204719D+03 0.259866081840014D+03 0.153275824324182D+03
 0.000000000000000D+00 0.000000000000000D+00 0.000000000000000D+00 0.000000000000000D+00
 0.171272211545542D+04 0.000000000000000D+00 0.000000000000000D+00 0.171272211545542D+04
 0.674758180828028D+03 0.000000000000000D+00 0.000000000000000D+00 -.674758180828028D+03
 0.621581407975321D+03 -.263967138186340D+03 -.481966401152476D+03 0.262236886914153D+03
 0.420290930646024D+03 0.487964921141653D+02 0.401566375587026D+02 -.415512711238335D+03
 0.274742056346020D+03 0.992856336835429D+02 0.205261009807122D+03 0.153275824324182D+03
 0.107086590131609D+04 0.115885012388632D+03 0.236548753786651D+03 0.103796393462740D+04
0.147297473066D-01 0.000000000000D+00 0.000000000000D+00 0.105907850222D-05 0.317995371600D-08  6 -2 2 25 1 -1 21 2 0.14482630D+00 0.18886910D+00 0.31257798D+06 0.31257798D+06 0.31257798D+06 0.10832347D+01  1  2  1  1  6  1       -2 0.129303170770D-01 0.100000000000D+01
  </mgrwgt>
  </event>
  <event>
  6     66 0.17652913E-05 0.22908392E+02 0.75467711E-02 0.93837757E-01
       -2 -1    0    0    0  501 0.00000000E+00 0.00000000E+00 0.83543759E+03 0.83543765E+03 0.32000000E+00 0.0000E+00 0.9000E+01
        2 -1    0    0  502    0 -.00000000E+00 -.00000000E+00 -.17731591E+04 0.17731592E+04 0.32000000E+00 0.0000E+00 0.9000E+01
       25  1    1    2    0    0 0.13807842E+03 0.50877785E+03 -.28820341E+03 0.61368295E+03 0.12500000E+03 0.0000E+00 0.9000E+01
        1  1    1    2  502    0 -.10992207E+02 -.11711086E+02 -.12236483E+04 0.12237537E+04 0.32000000E+00 0.0000E+00 0.9000E+01
       -1  1    1    2    0  503 -.64071849E+02 -.33257332E+03 0.37685411E+03 0.50668465E+03 0.32000000E+00 0.0000E+00 0.9000E+01
       21  1    1    2  503  501 -.63014367E+02 -.16449345E+03 0.19727600E+03 0.26447550E+03 0.75000000E+00 0.0000E+00 0.9000E+01
#aMCatNLO 2  0  0  5  1 0.35471185D+02 0.00000000D+00  -5  6  0 0.00000000D+00 0.00000000D+00 0.00000000D+00 0.00000000D+00 0.00000000D+00
  <mgrwgt>
 0.1874248962D-01    1    2    0
 0.121711293830381D+04 0.000000000000000D+00 0.000000000000000D+00 0.121711293830381D+04
 0.121711293830381D+04 -.000000000000000D+00 -.000000000000000D+00 -.121711293830381D+04
 0.546632233885991D+03 0.138090714988844D+03 0.508813230470003D+03 -.722623695690791D+02
 0.840534449783553D+03 -.109599625110676D+02 -.115722705575377D+02 -.840383319116247D+03
 0.104705919293808D+04 -.127130752477776D+03 -.497240959912466D+03 0.912645688685326D+03
 0.000000000000000D+00 0.000000000000000D+00 0.000000000000000D+00 0.000000000000000D+00
 0.121711293830381D+04 0.000000000000000D+00 0.000000000000000D+00 0.121711293830381D+04
 0.121711293830381D+04 -.000000000000000D+00 -.000000000000000D+00 -.121711293830381D+04
 0.546516575211013D+03 0.138066825035100D+03 0.508719790737285D+03 -.720908684738513D+02
 0.840273270788856D+03 -.109966953130085D+02 -.117159419615166D+02 -.840119621838670D+03
 0.687863705837195D+03 -.640335464864324D+02 -.332436749078789D+03 0.598783759461106D+03
 0.359572324770563D+03 -.630365832356594D+02 -.164567099696980D+03 0.313426730851415D+03
0.307948358980D-01 0.000000000000D+00 0.000000000000D+00 0.471147906240D-03 0.335467716406D-05  6 -2 2 25 1 -1 21 2 0.12852887D+00 0.27279372D+00 0.28760903D+06 0.28760903D+06 0.28760903D+06 0.10859098D+01  1  2  1  4  6  5       -1 0.187424896189D-01 0.100000000000D+01
  </mgrwgt>
  </event>
  <event>
  5     66 0.17652913E-05 0.17654463E+02 0.75467711E-02 0.94037074E-01
       -2 -1    0    0    0  501 0.00000000E+00 0.00000000E+00 0.98834961E+03 0.98834967E+03 0.32000000E+00 0.0000E+00 0.9000E+01
        2 -1    0    0  502    0 0.00000000E+00 0.00000000E+00 -.40586614E+03 0.40586627E+03 0.32000000E+00 0.0000E+00 0.9000E+01
       25  1    1    2    0    0 0.19284217E+03 -.47549899E+03 0.15132278E+03 0.54937326E+03 0.12500000E+03 0.0000E+00 0.9000E+01
        1  1    1    2  502    0 -.17648278E+02 0.44310413E+00 -.10553330E+03 0.10700018E+03 0.32000000E+00 0.0000E+00 0.9000E+01
       -1  1    1    2    0  501 -.17519389E+03 0.47505589E+03 0.53669399E+03 0.73784249E+03 0.32000000E+00 0.0000E+00 0.9000E+01
#aMCatNLO 1  0  0  2  4 0.15177956D+01 0.00000000D+00  -5  6  0 0.00000000D+00 0.00000000D+00 0.00000000D+00 0.00000000D+00 0.00000000D+00
  <mgrwgt>
 0.1087857127D-02   13    2    0
 0.633354377486867D+03 0.000000000000000D+00 0.000000000000000D+00 0.633354377486867D+03
 0.633354377486867D+03 0.000000000000000D+00 0.000000000000000D+00 -.633354377486867D+03
 0.535085655084807D+03 0.192841847735913D+03 -.475496811189004D+03 -.860608075050678D+02
 0.166305744138821D+03 -.176488926125917D+02 0.443454449704404D+00 -.165366019699536D+03
 0.565317355750106D+03 -.175192955123322D+03 0.475053356739300D+03 0.251426827204604D+03
 0.000000000000000D+00 -.000000000000000D+00 -.000000000000000D+00 -.000000000000000D+00
 0.633358318632477D+03 0.000000000000000D+00 0.000000000000000D+00 0.633358318632477D+03
 0.798543070154614D+03 0.000000000000000D+00 0.000000000000000D+00 -.798543070154614D+03
 0.534616571604149D+03 0.193041413323225D+03 -.474887806526470D+03 -.860608075050678D+02
 0.166299783239383D+03 -.175868411222254D+02 0.632813985380800D+00 -.165366019699536D+03
 0.565793309456355D+03 -.174981933066357D+03 0.475697322556857D+03 0.251426827204604D+03
 0.165191724487203D+03 -.472639134642630D+00 -.144233001576726D+01 -.165184751522137D+03
0.110676501849D-05 0.000000000000D+00 0.000000000000D+00 0.568625444356D-05 0.000000000000D+00  6 -2 2 25 1 -1 21 0 0.15205380D+00 0.62440958D-01 0.27672974D+06 0.27672974D+06 0.27672974D+06 0.10871557D+01  1  2  2  2  6  2        2 0.298508230940D-05 0.100000000000D+01
0.600417653249D-06 0.000000000000D+00 -.425026908892D-08 0.568625444356D-05 0.000000000000D+00  6 -2 2 25 1 -1 21 2 0.15205380D+00 0.62440958D-01 0.27672974D+06 0.27672974D+06 0.27672974D+06 0.10871557D+01  1  2  3  2  6  2        2 0.191398204045D-05 0.100000000000D+01
-.730955173411D-06 0.000000000000D+00 0.000000000000D+00 0.568625444356D-05 0.000000000000D+00  6 -2 2 25 1 -1 21 2 0.15205380D+00 0.62440958D-01 0.27672974D+06 0.27672974D+06 0.27672974D+06 0.10871557D+01  1  2 15  2  6  2        2 -.233010316521D-05 0.100000000000D+01
0.777078545346D-10 0.000000000000D+00 0.000000000000D+00 0.568625444356D-05 0.000000000000D+00  6 -2 2 25 1 -1 21 2 0.15205380D+00 0.78726694D-01 0.27752867D+06 0.27752867D+06 0.27752867D+06 0.10870624D+01  1  2 12  2  6  2        2 0.190933800143D-09 0.100000000000D+01
0.551935597593D-05 0.000000000000D+00 0.000000000000D+00 0.568625444356D-05 0.000000000000D+00  6 -2 2 25 1 -1 21 2 0.15205380D+00 0.79017486D-01 0.27752867D+06 0.27752867D+06 0.27752867D+06 0.10870624D+01  1  2 12  2  6  2        2 0.135046434398D-04 0.100000000000D+01
-.268947622850D-01 0.000000000000D+00 0.000000000000D+00 0.568625444356D-05 0.000000000000D+00  6 -2 2 25 1 -1 21 2 0.15205380D+00 0.62440958D-01 0.27672974D+06 0.27672974D+06 0.27672974D+06 0.10871557D+01  1  2  4  2  6  2        2 -.857338083201D-01 0.100000000000D+01
-.265350349772D-01 0.000000000000D+00 -.141205974366D-05 0.568625444356D-05 0.000000000000D+00  6 -2 2 25 1 -1 21 2 0.15205380D+00 0.78726733D-01 0.27672974D+06 0.27672974D+06 0.27672974D+06 0.10871557D+01  1  2  5  2  6  2        2 -.652173235573D-01 0.100000000000D+01
0.258383557448D-01 0.000000000000D+00 0.137496713484D-05 0.568625444356D-05 0.000000000000D+00  6 -2 2 25 1 -1 21 2 0.15205380D+00 0.62440958D-01 0.27672974D+06 0.27672974D+06 0.27672974D+06 0.10871557D+01  1  2  6  2  6  2        2 0.823662471993D-01 0.100000000000D+01
0.283156321754D-01 0.000000000000D+00 0.000000000000D+00 0.568625444356D-05 0.171772380980D-04  6 -2 2 25 1 -1 21 2 0.15205475D+00 0.78726534D-01 0.27752867D+06 0.27752867D+06 0.27752867D+06 0.10870624D+01  1  2 11  2  6  2        2 0.695725120264D-01 0.100000000000D+01
0.248614309677D-11 0.000000000000D+00 0.000000000000D+00 0.568625444356D-05 0.000000000000D+00  6 -2 21 25 1 -1 -2 2 0.15205380D+00 0.78726694D-01 0.27752867D+06 0.27752867D+06 0.27752867D+06 0.10870624D+01  1  2 12  6  6  2        2 0.111625283023D-10 0.100000000000D+01
0.176583291874D-06 0.000000000000D+00 0.000000000000D+00 0.568625444356D-05 0.000000000000D+00  6 -2 21 25 1 -1 -2 2 0.15205380D+00 0.79017486D-01 0.27752867D+06 0.27752867D+06 0.27752867D+06 0.10870624D+01  1  2 12  6  6  2        2 0.785808097752D-06 0.100000000000D+01
-.848916604552D-03 0.000000000000D+00 -.451761395780D-07 0.568625444356D-05 0.000000000000D+00  6 -2 21 25 1 -1 -2 2 0.15205380D+00 0.78726733D-01 0.27672974D+06 0.27672974D+06 0.27672974D+06 0.10871557D+01  1  2  5  6  6  2        2 -.381307612844D-02 0.100000000000D+01
0.867835857418D-03 0.000000000000D+00 0.000000000000D+00 0.568625444356D-05 0.522982281346D-06  6 -2 21 25 1 -1 -2 2 0.15205475D+00 0.78726534D-01 0.27752867D+06 0.27752867D+06 0.27752867D+06 0.10870624D+01  1  2 11  6  6  2        2 0.389644629270D-02 0.100000000000D+01
  </mgrwgt>
  </event>
  <event>
  6     66 0.17652913E-05 0.20066286E+02 0.75467711E-02 0.91533511E-01
       -2 -1    0    0    0  501 0.00000000E+00 0.00000000E+00 0.84099578E+03 0.84099585E+03 0.32000000E+00 0.0000E+00 0.9000E+01
        2 -1    0    0  502    0 -.00000000E+00 -.00000000E+00 -.19511788E+04 0.19511788E+04 0.32000000E+00 0.0000E+00 0.9000E+01
       25  1    1    2    0    0 0.76971199E+02 -.64456109E+03 -.48453231E+03 0.81962194E+03 0.12500000E+03 0.0000E+00 0.9000E+01
        1  1    1    2  502    0 0.24016132E+02 0.20368063E+02 -.11478323E+04 0.11482642E+04 0.32000000E+00 0.0000E+00 0.9000E+01
       -1  1    1    2    0  503 -.10331152E+03 0.57944017E+03 0.45691449E+03 0.74511418E+03 0.32000000E+00 0.0000E+00 0.9000E+01
       21  1    1    2  503  501 0.23241886E+01 0.44752856E+02 0.65267097E+02 0.79174342E+02 0.75000000E+00 0.0000E+00 0.9000E+01
#aMCatNLO 2  0  0  5  1 0.25119132D+02 0.00000000D+00  -5  6  0 0.00000000D+00 0.00000000D+00 0.00000000D+00 0.00000000D+00 0.00000000D+00
  <mgrwgt>
 0.6856353408D-02    6    2    0
 0.128098916878798D+04 0.000000000000000D+00 0.000000000000000D+00 0.128098916878798D+04
 0.128098916878798D+04 -.000000000000000D+00 -.000000000000000D+00 -.128098916878798D+04
 0.683773370399022D+03 0.770261774165642D+02 -.644965349541633D+03 -.173227272535443D+03
 0.755050826748749D+03 0.241074857100683D+02 0.198678607146972D+02 -.754404300237830D+03
 0.112315414042818D+04 -.101133663126632D+03 0.625097488826936D+03 0.927631572773273D+03
 0.000000000000000D+00 0.000000000000000D+00 0.000000000000000D+00 0.000000000000000D+00
 0.128098916878798D+04 0.000000000000000D+00 0.000000000000000D+00 0.128098916878798D+04
 0.128098916878798D+04 -.000000000000000D+00 -.000000000000000D+00 -.128098916878798D+04
 0.683157577435861D+03 0.769516575353113D+02 -.644504749290454D+03 -.172543751415843D+03
 0.754307675117537D+03 0.240252012197615D+02 0.203764532710229D+02 -.753649559543205D+03
 0.100995814116848D+04 -.103307883035897D+03 0.579391879453699D+03 0.820760609580062D+03
 0.114554943854079D+03 0.233102428082385D+01 0.447364165657320D+02 0.105432701378987D+03
-.173461055666D-09 0.000000000000D+00 0.000000000000D+00 0.150163741922D-03 0.000000000000D+00  6 -2 2 25 1 -1 21 2 0.12938397D+00 0.30018136D+00 0.43946199D+06 0.43946199D+06 0.43946199D+06 0.10724943D+01  1  2 13  4  6  5       -1 -.784935966815D-10 0.100000000000D+01
-.157223155407D-01 0.000000000000D+00 0.000000000000D+00 0.150163741922D-03 0.000000000000D+00  6 -2 2 25 1 -1 21 2 0.12938397D+00 0.30018136D+00 0.43946199D+06 0.43946199D+06 0.43946199D+06 0.10724943D+01  1  2 13  4  6  5       -1 -.711457156890D-02 0.100000000000D+01
-.509149576638D-03 0.000000000000D+00 0.000000000000D+00 0.150163741922D-03 0.000000000000D+00  6 -2 2 25 1 -1 21 2 0.12938397D+00 0.30018136D+00 0.43952394D+06 0.43952394D+06 0.43952394D+06 0.10724899D+01  1  2  8  4  6  5       -1 -.230393186553D-03 0.100000000000D+01
-.196380961790D-03 0.000000000000D+00 0.000000000000D+00 0.150163741922D-03 0.000000000000D+00  6 -2 2 25 1 -1 21 2 0.12938397D+00 0.30018136D+00 0.43952394D+06 0.43952394D+06 0.43952394D+06 0.10724899D+01  1  2  9  4  6  5       -1 -.888635435267D-04 0.100000000000D+01
0.217426205234D-03 0.000000000000D+00 0.000000000000D+00 0.150163741922D-03 0.000000000000D+00  6 -2 2 25 1 -1 21 2 0.12938397D+00 0.30018136D+00 0.43952394D+06 0.43952394D+06 0.43952394D+06 0.10724899D+01  1  2 10  4  6  5       -1 0.983866403163D-04 0.100000000000D+01
0.313620966784D-01 0.000000000000D+00 0.000000000000D+00 0.150163741922D-03 0.253620729255D-05  6 -2 2 25 1 -1 21 2 0.12938397D+00 0.30018136D+00 0.43946199D+06 0.43946199D+06 0.43946199D+06 0.10724943D+01  1  2  1  4  6  5       -1 0.141917951456D-01 0.100000000000D+01
  </mgrwgt>
  </event>
  <event>
  5     66 -.17652913E-05 0.10812709E+02 0.75467711E-02 0.91692178E-01
       -2 -1    0    0    0  501 0.00000000E+00 0.00000000E+00 0.35374458E+03 0.35374472E+03 0.32000000E+00 0.0000E+00 0.9000E+01
        2 -1    0    0  502    0 -.00000000E+00 -.00000000E+00 -.13118260E+04 0.13118260E+04 0.32000000E+00 0.0000E+00 0.9000E+01
       25  1    1    2    0    0 0.64346882E+03 -.66497639E+02 -.47914777E+03 0.81466659E+03 0.12500000E+03 0.0000E+00 0.9000E+01
        1  1    1    2  502    0 -.63263508E+03 0.67256865E+02 -.51165892E+03 0.81642242E+03 0.32000000E+00 0.0000E+00 0.9000E+01
       -1  1    1    2    0  501 -.10833745E+02 -.75922598E+00 0.32725259E+02 0.34481755E+02 0.32000000E+00 0.0000E+00 0.9000E+01
#aMCatNLO 1  0  0  5  1 0.14490572D+00 0.00000000D+00  -5  6  0 0.00000000D+00 0.00000000D+00 0.00000000D+00 0.00000000D+00 0.00000000D+00
  <mgrwgt>
 -.6657567661D-01    7    2    0
 0.681213246578588D+03 0.000000000000000D+00 0.000000000000000D+00 0.681213246578588D+03
 0.681213246578588D+03 -.000000000000000D+00 -.000000000000000D+00 -.681213246578588D+03
 0.659109271004007D+03 0.643594979179206D+03 -.665152295186891D+02 -.126987456399141D+02
 0.638436651544111D+03 -.632808723885575D+03 0.672711274064470D+02 -.512744812419681D+02
 0.648805706090575D+02 -.107862552936314D+02 -.755897887757871D+00 0.639732268818823D+02
 0.000000000000000D+00 0.000000000000000D+00 0.000000000000000D+00 0.000000000000000D+00
 0.681213246578588D+03 0.000000000000000D+00 0.000000000000000D+00 0.681213246578588D+03
 0.681213246578588D+03 -.000000000000000D+00 -.000000000000000D+00 -.681213246578588D+03
 0.659108549785228D+03 0.643594313628117D+03 -.665152761603315D+02 -.126947982596929D+02
 0.638436978708234D+03 -.632809368562518D+03 0.672710822276591D+02 -.512706576662028D+02
 0.129859227827669D+01 -.356796774143518D+00 -.283677995590503D-01 0.124829212731182D+01
 0.635823723854371D+02 -.104281482914561D+02 -.727438267768579D+00 0.627171637985837D+02
0.120880954477D-04 0.000000000000D+00 0.000000000000D+00 0.528235750213D-06 0.000000000000D+00  6 -2 2 25 1 -1 21 0 0.54422257D-01 0.20181940D+00 0.42652261D+06 0.42652261D+06 0.42652261D+06 0.10734234D+01  1  2  2  4  6  5       -1 0.791884887419D-04 0.100000000000D+01
0.703435617969D-05 0.000000000000D+00 -.464214693878D-07 0.528235750213D-06 0.000000000000D+00  6 -2 2 25 1 -1 21 2 0.54422257D-01 0.20181940D+00 0.42652261D+06 0.42652261D+06 0.42652261D+06 0.10734234D+01  1  2  3  4  6  5       -1 0.530970792528D-04 0.100000000000D+01
-.689269793263D-05 0.000000000000D+00 0.000000000000D+00 0.528235750213D-06 0.000000000000D+00  6 -2 2 25 1 -1 21 2 0.54422257D-01 0.20181940D+00 0.42652261D+06 0.42652261D+06 0.42652261D+06 0.10734234D+01  1  2 15  4  6  5       -1 -.520278073850D-04 0.100000000000D+01
-.101719495543D-01 0.000000000000D+00 0.000000000000D+00 0.528235750213D-06 0.000000000000D+00  6 -2 2 25 1 -1 21 2 0.54422257D-01 0.20181940D+00 0.42652261D+06 0.42652261D+06 0.42652261D+06 0.10734234D+01  1  2  4  4  6  5       -1 -.767804185408D-01 0.100000000000D+01
-.254206971411D-03 0.000000000000D+00 0.000000000000D+00 0.528235750213D-06 0.000000000000D+00  6 -2 2 25 1 -1 21 2 0.54422257D-01 0.20181940D+00 0.42652261D+06 0.42652261D+06 0.42652261D+06 0.10734234D+01  1  2  5  4  6  5       -1 -.191881777988D-02 0.100000000000D+01
0.133405321366D-02 0.000000000000D+00 -.000000000000D+00 0.528235750213D-06 0.000000000000D+00  6 -2 2 25 1 -1 21 2 0.54422257D-01 0.20181940D+00 0.42652261D+06 0.42652261D+06 0.42652261D+06 0.10734234D+01  1  2  6  4  6  5       -1 0.100697672116D-01 0.100000000000D+01
0.261455879923D-03 0.000000000000D+00 0.000000000000D+00 0.528235750213D-06 0.158665326618D-05  6 -2 2 25 1 -1 21 2 0.54422257D-01 0.20181940D+00 0.42652175D+06 0.42652175D+06 0.42652175D+06 0.10734234D+01  1  2 11  4  6  5       -1 0.197353474129D-02 0.100000000000D+01
  </mgrwgt>
  </event>
  <event>
  5     66 0.17652913E-05 0.62664622E+02 0.75467711E-02 0.94546331E-01
       -2 -1    0    0    0  501 0.00000000E+00 0.00000000E+00 0.85026349E+03 0.85026355E+03 0.32000000E+00 0.0000E+00 0.9000E+01
        2 -1    0    0  502    0 0.00000000E+00 0.00000000E+00 -.98858157E+03 0.98858163E+03 0.32000000E+00 0.0000E+00 0.9000E+01
       25  1    1    2    0    0 -.38684298E+03 -.30502666E+03 -.20162533E+03 0.54677832E+03 0.12500000E+03 0.0000E+00 0.9000E+01
        1  1    1    2  502    0 0.35739482E+03 0.24970404E+03 -.53518938E+03 0.69029771E+03 0.32000000E+00 0.0000E+00 0.9000E+01
       -1  1    1    2    0  501 0.29448160E+02 0.55322628E+02 0.59849663E+03 0.60176914E+03 0.32000000E+00 0.0000E+00 0.9000E+01
#aMCatNLO 1  0  0  1  2 0.22505276D+01 0.00000000D+00  -5  6  0 0.00000000D+00 0.00000000D+00 0.00000000D+00 0.00000000D+00 0.00000000D+00
  <mgrwgt>
 0.7339491200D-02    7    4    0
 0.916817824192724D+03 0.000000000000000D+00 0.000000000000000D+00 0.916817824192724D+03
 0.916817824192724D+03 0.000000000000000D+00 0.000000000000000D+00 -.916817824192724D+03
 0.533159525015373D+03 -.386894913147733D+03 -.305061651513075D+03 -.160884412144686D+03
 0.651927507085573D+03 0.357450248565732D+03 0.249745591083660D+03 -.484629687523761D+03
 0.648548616284503D+03 0.294446645820013D+02 0.553160604294151D+02 0.645514099668447D+03
 0.000000000000000D+00 -.000000000000000D+00 -.000000000000000D+00 0.000000000000000D+00
 0.161551830949506D+04 0.000000000000000D+00 0.000000000000000D+00 0.161551830949506D+04
 0.935361648923687D+03 0.000000000000000D+00 0.000000000000000D+00 -.935361648923687D+03
 0.484533058479996D+03 -.349039621567955D+03 -.267272956478087D+03 -.160884412144686D+03
 0.700803542614515D+03 0.407768025412977D+03 0.299974846882996D+03 -.484629687523761D+03
 0.658457564783008D+03 0.780616053785523D+02 0.103847472356944D+03 0.645514099668447D+03
 0.707085792541227D+03 -.136790009223575D+03 -.136549362761853D+03 0.680156660571373D+03
 0.916817824192724D+03 0.000000000000000D+00 0.000000000000000D+00 0.916817824192724D+03
 0.916817824192724D+03 0.000000000000000D+00 0.000000000000000D+00 -.916817824192724D+03
 0.533159525015373D+03 -.386894913147733D+03 -.305061651513075D+03 -.160884412144686D+03
 0.651927507085573D+03 0.357450248565732D+03 0.249745591083660D+03 -.484629687523761D+03
 0.000000000000000D+00 -.000000000000000D+00 -.000000000000000D+00 0.000000000000000D+00
 0.648548616284503D+03 0.294446645820013D+02 0.553160604294151D+02 0.645514099668447D+03
 0.161551830949506D+04 0.000000000000000D+00 0.000000000000000D+00 0.161551830949506D+04
 0.935361648923687D+03 0.000000000000000D+00 0.000000000000000D+00 -.935361648923687D+03
 0.484533058479996D+03 -.349039621567955D+03 -.267272956478087D+03 -.160884412144686D+03
 0.700803542614515D+03 0.407768025412977D+03 0.299974846882996D+03 -.484629687523761D+03
 0.707085792541227D+03 -.136790009223575D+03 -.136549362761853D+03 0.680156660571373D+03
 0.658457564783008D+03 0.780616053785523D+02 0.103847472356944D+03 0.645514099668447D+03
0.710305167755D-03 0.000000000000D+00 0.000000000000D+00 0.437201667682D-04 0.000000000000D+00  6 -2 2 25 1 -1 21 0 0.13080978D+00 0.15208948D+00 0.25352505D+06 0.25352505D+06 0.25352505D+06 0.10900019D+01  1  2  2  1  6  1       -2 0.980649742624D-03 0.100000000000D+01
0.250723641442D-03 0.000000000000D+00 -.272775887182D-05 0.437201667682D-04 0.000000000000D+00  6 -2 2 25 1 -1 21 2 0.13080978D+00 0.15208948D+00 0.25352505D+06 0.25352505D+06 0.25352505D+06 0.10900019D+01  1  2  3  1  6  1       -2 0.411262179995D-03 0.100000000000D+01
-.508523426557D-03 0.000000000000D+00 0.000000000000D+00 0.437201667682D-04 0.000000000000D+00  6 -2 2 25 1 -1 21 2 0.13080978D+00 0.15208948D+00 0.25352505D+06 0.25352505D+06 0.25352505D+06 0.10900019D+01  1  2 15  1  6  1       -2 -.834131363844D-03 0.100000000000D+01
-.167062194764D-03 0.000000000000D+00 0.000000000000D+00 0.437201667682D-04 0.000000000000D+00  6 -2 2 25 1 -1 21 2 0.13080978D+00 0.15208948D+00 0.25352505D+06 0.25352505D+06 0.25352505D+06 0.10900019D+01  1  2  4  1  6  1       -2 -.274032245297D-03 0.100000000000D+01
-.680398842611D-02 0.000000000000D+00 -.470386772859D-03 0.437201667682D-04 0.000000000000D+00  6 -2 2 25 1 -1 21 2 0.23193120D+00 0.15208948D+00 0.25352505D+06 0.25352505D+06 0.25352505D+06 0.10900019D+01  1  2  5  1  6  1       -2 -.204165017532D-02 0.100000000000D+01
0.611132247365D-02 0.000000000000D+00 0.402548444516D-03 0.437201667682D-04 0.000000000000D+00  6 -2 2 25 1 -1 21 2 0.13080978D+00 0.15208948D+00 0.25352505D+06 0.25352505D+06 0.25352505D+06 0.10900019D+01  1  2  6  1  6  1       -2 0.100244069076D-01 0.100000000000D+01
-.404483737759D-03 0.000000000000D+00 -.296517802085D-04 0.437201667682D-04 0.000000000000D+00  6 21 2 25 1 2 -1 2 0.23193120D+00 0.15208948D+00 0.25352505D+06 0.25352505D+06 0.25352505D+06 0.10900019D+01  3  4  5  5  5  1       -2 -.927013846064D-03 0.100000000000D+01
  </mgrwgt>
  </event>
  <event>
  5     66 -.17652913E-05 0.12652997E+03 0.75467711E-02 0.89707144E-01
       -2 -1    0    0    0  501 0.00000000E+00 0.00000000E+00 0.77360630E+03 0.77360637E+03 0.32000000E+00 0.0000E+00 0.9000E+01
        2 -1    0    0  502    0 -.00000000E+00 -.00000000E+00 -.18958476E+04 0.18958477E+04 0.32000000E+00 0.0000E+00 0.9000E+01
       25  1    1    2    0    0 -.51585368E+03 0.47238652E+03 -.95328046E+02 0.71691456E+03 0.12500000E+03 0.0000E+00 0.9000E+01
        1  1    1    2  502    0 0.56303566E+02 0.11329740E+03 -.11847925E+04 0.11915283E+04 0.32000000E+00 0.0000E+00 0.9000E+01
       -1  1    1    2    0  501 0.45955011E+03 -.58568392E+03 0.15787924E+03 0.76101111E+03 0.32000000E+00 0.0000E+00 0.9000E+01
#aMCatNLO 1  0  0  5  1 0.30118221D+02 0.00000000D+00  -5  6  0 0.00000000D+00 0.00000000D+00 0.00000000D+00 0.00000000D+00 0.00000000D+00
  <mgrwgt>
 -.5063599521D-03    8    2    0
 0.121104904502197D+04 0.000000000000000D+00 0.000000000000000D+00 0.121104904502197D+04
 0.121104904502197D+04 -.000000000000000D+00 -.000000000000000D+00 -.121104904502197D+04
 0.745944563345322D+03 -.515827743655631D+03 0.472332618425312D+03 0.227226600623854D+03
 0.764339494793338D+03 0.563108415887670D+02 0.113308974024875D+03 -.753793757486708D+03
 0.911814031905272D+03 0.459516902066864D+03 -.585641592450188D+03 0.526567156862854D+03
 0.000000000000000D+00 0.000000000000000D+00 0.000000000000000D+00 0.000000000000000D+00
 0.121104904502197D+04 0.000000000000000D+00 0.000000000000000D+00 0.121104904502197D+04
 0.121104904502197D+04 -.000000000000000D+00 -.000000000000000D+00 -.121104904502197D+04
 0.745586629255593D+03 -.515516197488452D+03 0.471935561445150D+03 0.227583605945627D+03
 0.763942105473725D+03 0.566300640611460D+02 0.112902133805878D+03 -.753427955774232D+03
 0.414713276847097D+03 0.232364717875794D+03 -.263200745609378D+03 0.220724052586996D+03
 0.497856078467517D+03 0.226521415551512D+03 -.321636949641650D+03 0.305120297241610D+03
0.781942886274D-04 0.000000000000D+00 0.000000000000D+00 0.177771929776D-05 0.000000000000D+00  6 -2 2 25 1 -1 21 0 0.11901636D+00 0.29166887D+00 0.62522551D+06 0.62522551D+06 0.62522551D+06 0.10617171D+01  1  2  2  4  6  5       -1 0.400247376766D-04 0.100000000000D+01
0.189020633692D-04 0.000000000000D+00 -.300286657358D-06 0.177771929776D-05 0.000000000000D+00  6 -2 2 25 1 -1 21 2 0.11901636D+00 0.29166887D+00 0.62522551D+06 0.62522551D+06 0.62522551D+06 0.10617171D+01  1  2  3  4  6  5       -1 0.109063723323D-04 0.100000000000D+01
-.528174976269D-04 0.000000000000D+00 0.000000000000D+00 0.177771929776D-05 0.000000000000D+00  6 -2 2 25 1 -1 21 2 0.11901636D+00 0.29166887D+00 0.62522551D+06 0.62522551D+06 0.62522551D+06 0.10617171D+01  1  2 15  4  6  5       -1 -.304753657590D-04 0.100000000000D+01
0.333471568319D-08 0.000000000000D+00 0.000000000000D+00 0.177771929776D-05 0.000000000000D+00  6 -2 2 25 1 -1 21 2 0.11901636D+00 0.29166887D+00 0.62473688D+06 0.62473688D+06 0.62473688D+06 0.10617407D+01  1  2 12  4  6  5       -1 0.192429890718D-08 0.100000000000D+01
0.261278444916D-02 0.000000000000D+00 0.000000000000D+00 0.177771929776D-05 0.000000000000D+00  6 -2 2 25 1 -1 21 2 0.11901636D+00 0.29166887D+00 0.62473688D+06 0.62473688D+06 0.62473688D+06 0.10617407D+01  1  2 12  4  6  5       -1 0.150770822399D-02 0.100000000000D+01
-.524478907361D-02 0.000000000000D+00 0.000000000000D+00 0.177771929776D-05 0.000000000000D+00  6 -2 2 25 1 -1 21 2 0.11901636D+00 0.29166887D+00 0.62522551D+06 0.62522551D+06 0.62522551D+06 0.10617171D+01  1  2  4  4  6  5       -1 -.302621048949D-02 0.100000000000D+01
-.261113567875D-02 0.000000000000D+00 0.000000000000D+00 0.177771929776D-05 0.000000000000D+00  6 -2 2 25 1 -1 21 2 0.11901636D+00 0.29166887D+00 0.62522551D+06 0.62522551D+06 0.62522551D+06 0.10617171D+01  1  2  5  4  6  5       -1 -.150660895407D-02 0.100000000000D+01
0.432984520273D-02 0.000000000000D+00 -.000000000000D+00 0.177771929776D-05 0.000000000000D+00  6 -2 2 25 1 -1 21 2 0.11901636D+00 0.29166887D+00 0.62522551D+06 0.62522551D+06 0.62522551D+06 0.10617171D+01  1  2  6  4  6  5       -1 0.249829359894D-02 0.100000000000D+01
  </mgrwgt>
  </event>
  <event>
  6     66 0.17652913E-05 0.37923643E+02 0.75467711E-02 0.94152001E-01
       -2 -1    0    0    0  503 0.00000000E+00 0.00000000E+00 0.10407709E+04 0.10407709E+04 0.32000000E+00 0.0000E+00 0.9000E+01
        2 -1    0    0  502    0 0.00000000E+00 0.00000000E+00 -.11116076E+04 0.11116077E+04 0.32000000E+00 0.0000E+00 0.9000E+01
       25  1    1    2    0    0 0.46637072E+03 -.10433395E+03 0.24052643E+03 0.54942259E+03 0.12500000E+03 0.0000E+00 0.9000E+01
        1  1    1    2  502    0 0.11327402E+02 -.44292709E+02 -.83362813E+03 0.83488090E+03 0.32000000E+00 0.0000E+00 0.9000E+01
       -1  1    1    2    0  501 -.46290027E+03 0.15357095E+03 0.36281375E+03 0.60786069E+03 0.32000000E+00 0.0000E+00 0.9000E+01
       21  1    1    2  501  503 -.14797849E+02 -.49442928E+01 0.15945116E+03 0.16021441E+03 0.75000000E+00 0.0000E+00 0.9000E+01
#aMCatNLO 2  0  0  1  5 0.15601999D+02 0.00000000D+00  -5  6  0 0.00000000D+00 0.00000000D+00 0.00000000D+00 0.00000000D+00 0.00000000D+00
  <mgrwgt>
 0.1453050072D-01    3    2    0
 0.989373811188034D+03 0.000000000000000D+00 0.000000000000000D+00 0.989373811188034D+03
 0.989373811188034D+03 0.000000000000000D+00 0.000000000000000D+00 -.989373811188034D+03
 0.577928768235383D+03 0.461970137848002D+03 -.105753918446850D+03 0.306229263173691D+03
 0.743627253662264D+03 0.576769305610316D+01 -.461570691072449D+02 -.742170971594497D+03
 0.657191600478422D+03 -.467737830904105D+03 0.151910987554095D+03 0.435941708420807D+03
 0.000000000000000D+00 -.000000000000000D+00 -.000000000000000D+00 0.000000000000000D+00
 0.116891601597143D+04 0.000000000000000D+00 0.000000000000000D+00 0.116891601597143D+04
 0.989743572057125D+03 0.000000000000000D+00 0.000000000000000D+00 -.989743572057125D+03
 0.581137279215670D+03 0.466304045263022D+03 -.104305862930286D+03 0.306229263173691D+03
 0.743578169381416D+03 0.113285587416786D+02 -.442990593572064D+02 -.742170971594497D+03
 0.654093682024236D+03 -.462834754826999D+03 0.153549215066059D+03 0.435941708420807D+03
 0.179850457407238D+03 -.147978491777018D+02 -.494429277856655D+01 0.179172443914310D+03
-.889911369019D-08 0.000000000000D+00 0.000000000000D+00 0.462863549932D-04 0.000000000000D+00  6 -2 2 25 1 -1 21 2 0.16014092D+00 0.17095254D+00 0.27189671D+06 0.27189671D+06 0.27189671D+06 0.10877265D+01  1  2 13  1  6  1       -2 -.702878126964D-08 0.100000000000D+01
-.844902532232D-01 0.000000000000D+00 0.000000000000D+00 0.462863549932D-04 0.000000000000D+00  6 -2 2 25 1 -1 21 2 0.16035846D+00 0.17095254D+00 0.27189671D+06 0.27189671D+06 0.27189671D+06 0.10877265D+01  1  2 13  1  6  1       -2 -.664768771905D-01 0.100000000000D+01
0.102580731380D+00 0.000000000000D+00 0.000000000000D+00 0.462863549932D-04 0.146635036255D-05  6 -2 2 25 1 -1 21 2 0.16011847D+00 0.17101643D+00 0.27189671D+06 0.27189671D+06 0.27189671D+06 0.10877265D+01  1  2  1  1  6  1       -2 0.810073849384D-01 0.100000000000D+01
  </mgrwgt>
  </event>
  <event>
  5     66 0.17652913E-05 0.14717042E+03 0.75467711E-02 0.95302120E-01
       -2 -1    0    0    0  501 0.00000000E+00 0.00000000E+00 0.56429934E+03 0.56429943E+03 0.32000000E+00 0.0000E+00 0.9000E+01
        2 -1    0    0  502    0 -.00000000E+00 -.00000000E+00 -.34332916E+04 0.34332917E+04 0.32000000E+00 0.0000E+00 0.9000E+01
       25  1    1    2    0    0 -.61904713E+02 -.45193709E+03 -.87568112E+03 0.99524960E+03 0.12500000E+03 0.0000E+00 0.9000E+01
        1  1    1    2  502    0 0.29764096E+02 0.14411825E+03 -.24479437E+04 0.24523630E+04 0.32000000E+00 0.0000E+00 0.9000E+01
       -1  1    1    2    0  501 0.32140617E+02 0.30781884E+03 0.45463253E+03 0.54997845E+03 0.32000000E+00 0.0000E+00 0.9000E+01
#aMCatNLO 1  0  0  5  1 0.29972946D+02 0.00000000D+00  -5  6  0 0.00000000D+00 0.00000000D+00 0.00000000D+00 0.00000000D+00 0.00000000D+00
  <mgrwgt>
 0.1576992551D-01    8    2    0
 0.139190675249875D+04 0.000000000000000D+00 0.000000000000000D+00 0.139190675249875D+04
 0.139190675249875D+04 -.000000000000000D+00 -.000000000000000D+00 -.139190675249875D+04
 0.526700346726758D+03 -.619063608564643D+02 -.451943446666281D+03 -.231739031548417D+03
 0.998811006135309D+03 0.297661802169745D+02 0.144128782226370D+03 -.987909051798931D+03
 0.125830215213543D+04 0.321401806394898D+02 0.307814664439911D+03 0.121964808334735D+04
 0.000000000000000D+00 0.000000000000000D+00 0.000000000000000D+00 0.000000000000000D+00
 0.139190675249875D+04 0.000000000000000D+00 0.000000000000000D+00 0.139190675249875D+04
 0.139190675249875D+04 -.000000000000000D+00 -.000000000000000D+00 -.139190675249875D+04
 0.526203852742154D+03 -.618865127823656D+02 -.451753356624878D+03 -.230985841458910D+03
 0.997451865108443D+03 0.298038113456270D+02 0.144489185093068D+03 -.986481034500273D+03
 0.113725742974121D+04 0.583692850329533D+02 0.271985530952956D+03 0.110271091362086D+04
 0.122900357405692D+03 -.262865835962147D+02 0.352786405788537D+02 0.114755962338321D+03
0.378048913228D-02 0.000000000000D+00 0.000000000000D+00 0.271710168678D-03 0.000000000000D+00  6 -2 2 25 1 -1 21 0 0.86815291D-01 0.52819872D+00 0.21605702D+06 0.21605702D+06 0.21605702D+06 0.10952588D+01  1  2  2  4  6  5       -1 0.533722665083D-03 0.100000000000D+01
0.581472835957D-03 0.000000000000D+00 -.145180736936D-04 0.271710168678D-03 0.000000000000D+00  6 -2 2 25 1 -1 21 2 0.86815291D-01 0.52819872D+00 0.21605702D+06 0.21605702D+06 0.21605702D+06 0.10952588D+01  1  2  3  4  6  5       -1 0.984760423126D-04 0.100000000000D+01
-.247453353450D-02 0.000000000000D+00 0.000000000000D+00 0.271710168678D-03 0.000000000000D+00  6 -2 2 25 1 -1 21 2 0.86815291D-01 0.52819872D+00 0.21605702D+06 0.21605702D+06 0.21605702D+06 0.10952588D+01  1  2 15  4  6  5       -1 -.419077648995D-03 0.100000000000D+01
0.786809013730D-09 0.000000000000D+00 0.000000000000D+00 0.271710168678D-03 0.000000000000D+00  6 -2 2 25 1 -1 21 2 0.86815291D-01 0.52819872D+00 0.22207667D+06 0.22207667D+06 0.22207667D+06 0.10943499D+01  1  2 12  4  6  5       -1 0.132684970472D-09 0.100000000000D+01
0.154611107367D+00 0.000000000000D+00 0.000000000000D+00 0.271710168678D-03 0.000000000000D+00  6 -2 2 25 1 -1 21 2 0.86815291D-01 0.52819872D+00 0.22207667D+06 0.22207667D+06 0.22207667D+06 0.10943499D+01  1  2 12  4  6  5       -1 0.260731255713D-01 0.100000000000D+01
-.878255202038D-01 0.000000000000D+00 0.000000000000D+00 0.271710168678D-03 0.000000000000D+00  6 -2 2 25 1 -1 21 2 0.86815291D-01 0.52819872D+00 0.21605702D+06 0.21605702D+06 0.21605702D+06 0.10952588D+01  1  2  4  4  6  5       -1 -.148737982394D-01 0.100000000000D+01
-.251226002573D+00 0.000000000000D+00 0.000000000000D+00 0.271710168678D-03 0.000000000000D+00  6 -2 2 25 1 -1 21 2 0.86815291D-01 0.52819872D+00 0.21605702D+06 0.21605702D+06 0.21605702D+06 0.10952588D+01  1  2  5  4  6  5       -1 -.425466864995D-01 0.100000000000D+01
0.276955656629D+00 0.000000000000D+00 -.000000000000D+00 0.271710168678D-03 0.000000000000D+00  6 -2 2 25 1 -1 21 2 0.86815291D-01 0.52819872D+00 0.21605702D+06 0.21605702D+06 0.21605702D+06 0.10952588D+01  1  2  6  4  6  5       -1 0.469041634870D-01 0.100000000000D+01
  </mgrwgt>
  </event>
  <event>
  5     66 0.17652913E-05 0.14893482E+03 0.75467711E-02 0.91054958E-01
       -2 -1    0    0    0  501 0.00000000E+00 0.00000000E+00 0.85422731E+03 0.85422737E+03 0.32000000E+00 0.0000E+00 0.9000E+01
        2 -1    0    0  502    0 0.00000000E+00 0.00000000E+00 -.66710325E+03 0.66710333E+03 0.32000000E+00 0.0000E+00 0.9000E+01
       25  1    1    2    0    0 0.24960366E+03 -.38024908E+03 0.13678392E+03 0.49114783E+03 0.12500000E+03 0.0000E+00 0.9000E+01
        1  1    1    2  502    0 -.11501467E+03 0.44414635E+03 -.36669559E+03 0.58733305E+03 0.32000000E+00 0.0000E+00 0.9000E+01
       -1  1    1    2    0  501 -.13458900E+03 -.63897275E+02 0.41703573E+03 0.44284982E+03 0.32000000E+00 0.0000E+00 0.9000E+01
#aMCatNLO 1  0  0  1  1 0.31205596D+03 0.00000000D+00  -5  6  0 0.00000000D+00 0.00000000D+00 0.00000000D+00 0.00000000D+00 0.00000000D+00
  <mgrwgt>
 0.6563298605D-03    4    2    0
 0.754889344226882D+03 0.000000000000000D+00 0.000000000000000D+00 0.754889344226882D+03
 0.754889344226882D+03 0.000000000000000D+00 0.000000000000000D+00 -.754889344226882D+03
 0.478046261387832D+03 0.249598252848726D+03 -.380349744101822D+03 0.770584996183115D+02
 0.637319859025984D+03 -.115056190033934D+03 0.444224737389720D+03 -.442270345529529D+03
 0.394412568039949D+03 -.134542062814792D+03 -.638749932878980D+02 0.365211845911217D+03
 0.000000000000000D+00 -.000000000000000D+00 0.000000000000000D+00 -.000000000000000D+00
 0.886164606110075D+03 0.000000000000000D+00 0.000000000000000D+00 0.886164606110075D+03
 0.981952778230137D+03 0.000000000000000D+00 0.000000000000000D+00 -.981952778230137D+03
 0.578812591829015D+03 0.330739867976490D+03 -.451743449124932D+03 0.770584996183115D+02
 0.572285514176296D+03 -.221872763184361D+02 0.362512587327376D+03 -.442270345529529D+03
 0.390592722459293D+03 -.742723333603144D+02 -.116904246892480D+03 0.365211845911217D+03
 0.326426555875608D+03 -.234280258297739D+03 0.206135108690036D+03 -.957881721200627D+02
0.177412484184D-02 0.000000000000D+00 0.000000000000D+00 0.101185326678D-05 0.000000000000D+00  6 -2 2 25 1 -1 21 0 0.13141960D+00 0.10263128D+00 0.29139075D+06 0.29139075D+06 0.29139075D+06 0.10854887D+01  1  2  2  1  6  1       -2 0.400557727973D-02 0.100000000000D+01
0.174223242420D-03 0.000000000000D+00 -.681310653047D-05 0.101185326678D-05 0.000000000000D+00  6 -2 2 25 1 -1 21 2 0.13141960D+00 0.10263128D+00 0.29139075D+06 0.29139075D+06 0.29139075D+06 0.10854887D+01  1  2  3  1  6  1       -2 0.463487071679D-03 0.100000000000D+01
-.131696688862D-02 0.000000000000D+00 0.000000000000D+00 0.101185326678D-05 0.000000000000D+00  6 -2 2 25 1 -1 21 2 0.13141960D+00 0.10263128D+00 0.29139075D+06 0.29139075D+06 0.29139075D+06 0.10854887D+01  1  2 15  1  6  1       -2 -.350353442072D-02 0.100000000000D+01
-.116227273788D-03 0.000000000000D+00 0.000000000000D+00 0.101185326678D-05 0.000000000000D+00  6 -2 2 25 1 -1 21 2 0.13141960D+00 0.10263128D+00 0.29139075D+06 0.29139075D+06 0.29139075D+06 0.10854887D+01  1  2  4  1  6  1       -2 -.309200070148D-03 0.100000000000D+01
  </mgrwgt>
  </event>
  <event>
  6     66 0.17652913E-05 0.37391306E+02 0.75467711E-02 0.95324754E-01
       -2 -1    0    0    0  501 0.00000000E+00 0.00000000E+00 0.73190736E+03 0.73190743E+03 0.32000000E+00 0.0000E+00 0.9000E+01
        2 -1    0    0  502    0 0.00000000E+00 0.00000000E+00 -.61016161E+03 0.61016169E+03 0.32000000E+00 0.0000E+00 0.9000E+01
       25  1    1    2    0    0 0.45260203E+03 0.50665013E+02 -.66618677E+02 0.47694715E+03 0.12500000E+03 0.0000E+00 0.9000E+01
        1  1    1    2  503    0 -.39327602E+03 -.21201926E+02 -.18119180E+03 0.43352753E+03 0.32000000E+00 0.0000E+00 0.9000E+01
       -1  1    1    2    0  501 -.25040471E+02 -.31281946E+02 0.38971724E+03 0.39177189E+03 0.32000000E+00 0.0000E+00 0.9000E+01
       21  1    1    2  502  503 -.34285536E+02 0.18188584E+01 -.20161010E+02 0.39822544E+02 0.75000000E+00 0.0000E+00 0.9000E+01
#aMCatNLO 2  0  0  4  2 0.50338998D+01 0.00000000D+00  -5  6  0 0.00000000D+00 0.00000000D+00 0.00000000D+00 0.00000000D+00 0.00000000D+00
  <mgrwgt>
 0.6063541058D-02    6    2    0
 0.668267814698900D+03 0.000000000000000D+00 0.000000000000000D+00 0.668267814698900D+03
 0.668267814698900D+03 -.000000000000000D+00 -.000000000000000D+00 -.668267814698900D+03
 0.485121133519179D+03 0.452772400484297D+03 0.506698760337818D+02 -.110214478220157D+03
 0.493574314700446D+03 -.427816388499754D+03 -.193995689248866D+02 -.245382148064138D+03
 0.357840181178176D+03 -.249560119845431D+02 -.312703071088951D+02 0.355596626284295D+03
 0.000000000000000D+00 0.000000000000000D+00 0.000000000000000D+00 -.000000000000000D+00
 0.668267814698900D+03 0.000000000000000D+00 0.000000000000000D+00 0.668267814698900D+03
 0.668267814698900D+03 -.000000000000000D+00 -.000000000000000D+00 -.668267814698900D+03
 0.485035667191174D+03 0.452666582315468D+03 0.506650776508425D+02 -.110275172224102D+03
 0.452451618164429D+03 -.393848180503132D+03 -.212417063624524D+02 -.221686416825196D+03
 0.357801452924109D+03 -.250340693534170D+02 -.312738466631250D+02 0.355551855010072D+03
 0.412468911180871D+02 -.337843324589191D+02 0.185047537473502D+01 -.235902659607740D+02
-.277810832199D-07 0.000000000000D+00 0.000000000000D+00 0.115272934332D-04 0.000000000000D+00  6 -2 2 25 1 -1 21 2 0.11260114D+00 0.93871028D-01 0.22120492D+06 0.22120492D+06 0.22120492D+06 0.10944799D+01  1  2 13  3  6  4        1 -.125603155608D-06 0.100000000000D+01
-.854983748753D-02 0.000000000000D+00 0.000000000000D+00 0.115272934332D-04 0.000000000000D+00  6 -2 2 25 1 -1 21 2 0.11260114D+00 0.93871028D-01 0.22120492D+06 0.22120492D+06 0.22120492D+06 0.10944799D+01  1  2 13  3  6  4        1 -.386553166365D-01 0.100000000000D+01
-.425770051492D-02 0.000000000000D+00 0.000000000000D+00 0.115272934332D-04 0.000000000000D+00  6 -2 2 25 1 -1 21 2 0.11260114D+00 0.93871028D-01 0.22122885D+06 0.22122885D+06 0.22122885D+06 0.10944763D+01  1  2  8  3  6  4        1 -.192496096030D-01 0.100000000000D+01
-.329408977522D-02 0.000000000000D+00 0.000000000000D+00 0.115272934332D-04 0.000000000000D+00  6 -2 2 25 1 -1 21 2 0.11260114D+00 0.93871028D-01 0.22122885D+06 0.22122885D+06 0.22122885D+06 0.10944763D+01  1  2  9  3  6  4        1 -.148930019733D-01 0.100000000000D+01
0.358082801033D-02 0.000000000000D+00 0.000000000000D+00 0.115272934332D-04 0.000000000000D+00  6 -2 2 25 1 -1 21 2 0.11260114D+00 0.93871028D-01 0.22122885D+06 0.22122885D+06 0.22122885D+06 0.10944763D+01  1  2 10  3  6  4        1 0.161893822764D-01 0.100000000000D+01
0.138619284310D-01 0.000000000000D+00 0.000000000000D+00 0.115272934332D-04 0.286090737408D-05  6 -2 2 25 1 -1 21 2 0.11260114D+00 0.93871028D-01 0.22120492D+06 0.22120492D+06 0.22120492D+06 0.10944799D+01  1  2  1  3  6  4        1 0.626722125974D-01 0.100000000000D+01
  </mgrwgt>
  </event>
  <event>
  5     66 0.17652913E-05 0.59196822E+02 0.75467711E-02 0.93971508E-01
       -2 -1    0    0    0  501 0.00000000E+00 0.00000000E+00 0.57864114E+03 0.57864123E+03 0.32000000E+00 0.0000E+00 0.9000E+01
        2 -1    0    0  502    0 0.00000000E+00 0.00000000E+00 -.89497937E+03 0.89497943E+03 0.32000000E+00 0.0000E+00 0.9000E+01
       25  1    1    2    0    0 0.26632095E+03 0.38242368E+03 -.31237222E+02 0.48350334E+03 0.12500000E+03 0.0000E+00 0.9000E+01
        1  1    1    2  502    0 -.21250688E+03 -.40715302E+03 -.55122489E+03 0.71748292E+03 0.32000000E+00 0.0000E+00 0.9000E+01
       -1  1    1    2    0  501 -.53814065E+02 0.24729342E+02 0.26612388E+03 0.27263440E+03 0.32000000E+00 0.0000E+00 0.9000E+01
#aMCatNLO 1  0  0  1  1 0.72614523D+02 0.00000000D+00  -5  6  0 0.00000000D+00 0.00000000D+00 0.00000000D+00 0.00000000D+00 0.00000000D+00
  <mgrwgt>
 0.1404300861D-01    7    4    0
 0.719633236612094D+03 0.000000000000000D+00 0.000000000000000D+00 0.719633236612094D+03
 0.719633236612094D+03 0.000000000000000D+00 0.000000000000000D+00 -.719633236612094D+03
 0.488284885125828D+03 0.266350325585585D+03 0.382516005585409D+03 0.744052321666883D+02
 0.613503558331322D+03 -.212561046545412D+03 -.407233957360949D+03 -.406650859520613D+03
 0.337478029767039D+03 -.537892790401731D+02 0.247179517755403D+02 0.332245627353924D+03
 0.000000000000000D+00 -.000000000000000D+00 -.000000000000000D+00 0.000000000000000D+00
 0.781480475867103D+03 0.000000000000000D+00 0.000000000000000D+00 0.781480475867103D+03
 0.742182811726032D+03 0.000000000000000D+00 0.000000000000000D+00 -.742182811726032D+03
 0.502818657682572D+03 0.291328546156909D+03 0.383135931666590D+03 0.744052321666883D+02
 0.603053192501888D+03 -.181900856618395D+03 -.406473012387489D+03 -.406650859520613D+03
 0.335225249239791D+03 -.368355197644546D+02 0.251387214424215D+02 0.332245627353924D+03
 0.825661881688851D+02 -.725921697740592D+02 -.180164072152200D+01 0.392976641410715D+02
 0.719633236612094D+03 0.000000000000000D+00 0.000000000000000D+00 0.719633236612094D+03
 0.719633236612094D+03 0.000000000000000D+00 0.000000000000000D+00 -.719633236612094D+03
 0.488284885125828D+03 0.266350325585585D+03 0.382516005585409D+03 0.744052321666883D+02
 0.613503558331322D+03 -.212561046545412D+03 -.407233957360949D+03 -.406650859520613D+03
 0.000000000000000D+00 -.000000000000000D+00 -.000000000000000D+00 0.000000000000000D+00
 0.337478029767039D+03 -.537892790401731D+02 0.247179517755403D+02 0.332245627353924D+03
 0.781480475867103D+03 0.000000000000000D+00 0.000000000000000D+00 0.781480475867103D+03
 0.742182811726032D+03 0.000000000000000D+00 0.000000000000000D+00 -.742182811726032D+03
 0.502818657682572D+03 0.291328546156909D+03 0.383135931666590D+03 0.744052321666883D+02
 0.603053192501888D+03 -.181900856618395D+03 -.406473012387489D+03 -.406650859520613D+03
 0.825661881688851D+02 -.725921697740592D+02 -.180164072152200D+01 0.392976641410715D+02
 0.335225249239791D+03 -.368355197644546D+02 0.251387214424215D+02 0.332245627353924D+03
0.157885119515D-02 0.000000000000D+00 0.000000000000D+00 0.979502093466D-05 0.000000000000D+00  6 -2 2 25 1 -1 21 0 0.89021726D-01 0.13768915D+00 0.25057554D+06 0.25057554D+06 0.25057554D+06 0.10903840D+01  1  2  2  1  6  1       -2 0.647993232684D-02 0.100000000000D+01
0.427680857283D-03 0.000000000000D+00 -.606320431042D-05 0.979502093466D-05 0.000000000000D+00  6 -2 2 25 1 -1 21 2 0.89021726D-01 0.13768915D+00 0.25057554D+06 0.25057554D+06 0.25057554D+06 0.10903840D+01  1  2  3  1  6  1       -2 0.208693061953D-02 0.100000000000D+01
-.110017744610D-02 0.000000000000D+00 0.000000000000D+00 0.979502093466D-05 0.000000000000D+00  6 -2 2 25 1 -1 21 2 0.89021726D-01 0.13768915D+00 0.25057554D+06 0.25057554D+06 0.25057554D+06 0.10903840D+01  1  2 15  1  6  1       -2 -.536847502073D-02 0.100000000000D+01
-.193106542001D-03 0.000000000000D+00 0.000000000000D+00 0.979502093466D-05 0.000000000000D+00  6 -2 2 25 1 -1 21 2 0.89021726D-01 0.13768915D+00 0.25057554D+06 0.25057554D+06 0.25057554D+06 0.10903840D+01  1  2  4  1  6  1       -2 -.942291310142D-03 0.100000000000D+01
-.203128525415D-01 0.000000000000D+00 -.412773868669D-02 0.979502093466D-05 0.000000000000D+00  6 -2 2 25 1 -1 21 2 0.98869237D-01 0.13768915D+00 0.25057554D+06 0.25057554D+06 0.25057554D+06 0.10903840D+01  1  2  5  1  6  1       -2 -.773706522559D-01 0.100000000000D+01
0.206547548923D-01 0.000000000000D+00 0.410512392359D-02 0.979502093466D-05 0.000000000000D+00  6 -2 2 25 1 -1 21 2 0.89021726D-01 0.13768915D+00 0.25057554D+06 0.25057554D+06 0.25057554D+06 0.10903840D+01  1  2  6  1  6  1       -2 0.100787864805D+00 0.100000000000D+01
-.328960612445D-03 0.000000000000D+00 -.698730508998D-04 0.979502093466D-05 0.000000000000D+00  6 21 2 25 1 2 -1 2 0.98869237D-01 0.13768915D+00 0.25057554D+06 0.25057554D+06 0.25057554D+06 0.10903840D+01  3  4  5  5  5  1       -2 -.116303005499D-01 0.100000000000D+01
  </mgrwgt>
  </event>
  <event>
  5     66 0.17652913E-05 0.12631775E+03 0.75467711E-02 0.87592468E-01
       -2 -1    0    0    0  501 0.00000000E+00 0.00000000E+00 0.29860160E+04 0.29860160E+04 0.32000000E+00 0.0000E+00 0.9000E+01
        2 -1    0    0  502    0 0.00000000E+00 0.00000000E+00 -.49370315E+03 0.49370326E+03 0.32000000E+00 0.0000E+00 0.9000E+01
       25  1    1    2    0    0 -.38098456E+03 -.30381746E+03 0.15241954E+04 0.16050703E+04 0.12500000E+03 0.0000E+00 0.9000E+01
        1  1    1    2  502    0 0.11953924E+03 -.40773641E+02 -.41064469E+03 0.42962924E+03 0.32000000E+00 0.0000E+00 0.9000E+01
       -1  1    1    2    0  501 0.26144532E+03 0.34459110E+03 0.13787622E+04 0.14450197E+04 0.32000000E+00 0.0000E+00 0.9000E+01
#aMCatNLO 1  0  0  1  1 0.34361680D+02 0.00000000D+00  -5  6  0 0.00000000D+00 0.00000000D+00 0.00000000D+00 0.00000000D+00 0.00000000D+00
  <mgrwgt>
 0.1629890164D-02    3    2    0
 0.121416874069631D+04 0.000000000000000D+00 0.000000000000000D+00 0.121416874069631D+04
 0.121416874069631D+04 0.000000000000000D+00 0.000000000000000D+00 -.121416874069631D+04
 0.735727695396848D+03 -.380945066745452D+03 -.303740638109680D+03 0.536928973568185D+03
 0.103717313049571D+04 0.119554698704811D+03 -.407780258369077D+02 -.102945224719203D+04
 0.655436655500065D+03 0.261390368040641D+03 0.344518663946588D+03 0.492523273623843D+03
 0.000000000000000D+00 0.000000000000000D+00 -.000000000000000D+00 -.000000000000000D+00
 0.128578715891825D+04 0.000000000000000D+00 0.000000000000000D+00 0.128578715891825D+04
 0.769093562856689D+04 0.000000000000000D+00 0.000000000000000D+00 -.769093562856689D+04
 0.842280385857260D+03 -.595195620406983D+03 -.226408257780535D+03 0.536928973568185D+03
 0.104407646391974D+04 -.163022357273866D+03 0.612163727388602D+02 -.102945224719203D+04
 0.645326988784683D+03 0.847820640138889D+02 0.408264312687631D+03 0.492523273623843D+03
 0.644503894892346D+04 0.673435913666960D+03 -.243072427645957D+03 -.640514846964864D+04
0.224018100149D+00 0.000000000000D+00 0.000000000000D+00 0.170912983967D-04 0.000000000000D+00  6 -2 2 25 1 -1 21 0 0.45938709D+00 0.75954341D-01 0.28183736D+06 0.28183736D+06 0.28183736D+06 0.10865642D+01  1  2  2  1  6  1       -2 0.333609762675D-02 0.100000000000D+01
0.443499083750D-01 0.000000000000D+00 -.860288489891D-03 0.170912983967D-04 0.000000000000D+00  6 -2 2 25 1 -1 21 2 0.45938709D+00 0.75954341D-01 0.28183736D+06 0.28183736D+06 0.28183736D+06 0.10865642D+01  1  2  3  1  6  1       -2 0.779756828327D-03 0.100000000000D+01
-.141393168384D+00 0.000000000000D+00 0.000000000000D+00 0.170912983967D-04 0.000000000000D+00  6 -2 2 25 1 -1 21 2 0.45938709D+00 0.75954341D-01 0.28183736D+06 0.28183736D+06 0.28183736D+06 0.10865642D+01  1  2 15  1  6  1       -2 -.248596429093D-02 0.100000000000D+01
  </mgrwgt>
  </event>
  <event>
  5     66 0.17652913E-05 0.11806283E+03 0.75467711E-02 0.87930252E-01
       -2 -1    0    0    0  501 0.00000000E+00 0.00000000E+00 0.92053619E+03 0.92053625E+03 0.32000000E+00 0.0000E+00 0.9000E+01
        2 -1    0    0  502    0 0.00000000E+00 0.00000000E+00 -.18587365E+04 0.18587365E+04 0.32000000E+00 0.0000E+00 0.9000E+01
       25  1    1    2    0    0 0.16381365E+03 -.47306469E+03 0.15643415E+03 0.53918619E+03 0.12500000E+03 0.0000E+00 0.9000E+01
        1  1    1    2  502    0 -.34683246E+02 0.11283902E+03 -.16010228E+04 0.16053690E+04 0.32000000E+00 0.0000E+00 0.9000E+01
       -1  1    1    2    0  501 -.12913040E+03 0.36022566E+03 0.50638832E+03 0.63471759E+03 0.32000000E+00 0.0000E+00 0.9000E+01
#aMCatNLO 1  0  0  1  1 0.34361680D+02 0.00000000D+00  -5  6  0 0.00000000D+00 0.00000000D+00 0.00000000D+00 0.00000000D+00 0.00000000D+00
  <mgrwgt>
 0.3831016185D-02    4    2    0
 0.130806511015890D+04 0.000000000000000D+00 0.000000000000000D+00 0.130806511015890D+04
 0.130806511015890D+04 0.000000000000000D+00 0.000000000000000D+00 -.130806511015890D+04
 0.628963523593049D+03 0.163802629554458D+03 -.473035753274367D+03 0.359688738614069D+03
 0.113136639942770D+04 -.346873260992722D+02 0.112852210324081D+03 -.112518936085756D+04
 0.855800297297052D+03 -.129115303455186D+03 0.360183542950286D+03 0.765500622243494D+03
 0.000000000000000D+00 -.000000000000000D+00 -.000000000000000D+00 -.000000000000000D+00
 0.149400053779338D+04 0.000000000000000D+00 0.000000000000000D+00 0.149400053779338D+04
 0.198553187858527D+04 0.000000000000000D+00 0.000000000000000D+00 -.198553187858527D+04
 0.642620883685969D+03 0.302575099265710D+03 -.420010619827523D+03 0.359688738614069D+03
 0.116454410775510D+04 0.215873446346453D+03 0.208591793420955D+03 -.112518936085756D+04
 0.881368677514011D+03 0.604680443432888D+02 0.432623576173234D+03 0.765500622243494D+03
 0.790998747423569D+03 -.578916589955453D+03 -.221204749766666D+03 -.491531340791889D+03
0.284443195715D-01 0.000000000000D+00 0.000000000000D+00 0.104286667057D-03 0.000000000000D+00  6 -2 2 25 1 -1 21 0 0.14162096D+00 0.28595947D+00 0.25839607D+06 0.25839607D+06 0.25839607D+06 0.10893815D+01  1  2  2  1  6  1       -2 0.102695583074D-01 0.100000000000D+01
0.636305806556D-02 0.000000000000D+00 -.109233676716D-03 0.104286667057D-03 0.000000000000D+00  6 -2 2 25 1 -1 21 2 0.14162096D+00 0.28595947D+00 0.25839607D+06 0.25839607D+06 0.25839607D+06 0.10893815D+01  1  2  3  1  6  1       -2 0.272635309412D-02 0.100000000000D+01
-.213195449449D-01 0.000000000000D+00 0.000000000000D+00 0.104286667057D-03 0.000000000000D+00  6 -2 2 25 1 -1 21 2 0.14162096D+00 0.28595947D+00 0.25839607D+06 0.25839607D+06 0.25839607D+06 0.10893815D+01  1  2 15  1  6  1       -2 -.913469698484D-02 0.100000000000D+01
-.704799037874D-04 0.000000000000D+00 0.000000000000D+00 0.104286667057D-03 0.000000000000D+00  6 -2 2 25 1 -1 21 2 0.14162096D+00 0.28595947D+00 0.25839607D+06 0.25839607D+06 0.25839607D+06 0.10893815D+01  1  2  4  1  6  1       -2 -.301982320112D-04 0.100000000000D+01
  </mgrwgt>
  </event>
  <event>
  5     66 0.17652913E-05 0.65172509E+02 0.75467711E-02 0.92805079E-01
       -2 -1    0    0    0  501 0.00000000E+00 0.00000000E+00 0.79118713E+03 0.79118719E+03 0.32000000E+00 0.0000E+00 0.9000E+01
        2 -1    0    0  502    0 0.00000000E+00 0.00000000E+00 -.91920835E+03 0.91920841E+03 0.32000000E+00 0.0000E+00 0.9000E+01
       25  1    1    2    0    0 -.23645053E+03 0.50411824E+03 -.34527150E+03 0.66699435E+03 0.12500000E+03 0.0000E+00 0.9000E+01
        1  1    1    2  502    0 0.17135900E+03 -.50057308E+03 -.24039032E+03 0.58114105E+03 0.32000000E+00 0.0000E+00 0.9000E+01
       -1  1    1    2    0  501 0.65091531E+02 -.35451620E+01 0.45764059E+03 0.46226020E+03 0.32000000E+00 0.0000E+00 0.9000E+01
#aMCatNLO 1  0  0  1  5 0.10316992D+02 0.00000000D+00  -5  6  0 0.00000000D+00 0.00000000D+00 0.00000000D+00 0.00000000D+00 0.00000000D+00
  <mgrwgt>
 0.2860074609D-01   11    4    0
 0.852798874982375D+03 0.000000000000000D+00 0.000000000000000D+00 0.852798874982375D+03
 0.852798874982375D+03 0.000000000000000D+00 0.000000000000000D+00 -.852798874982375D+03
 0.643001467160795D+03 -.236477954068259D+03 0.504203867525499D+03 -.296112350270899D+03
 0.564803933352888D+03 0.171401893349969D+03 -.500659548053893D+03 -.197395265975179D+03
 0.497792349451067D+03 0.650760607182900D+02 -.354431947160565D+01 0.493507616246077D+03
 0.000000000000000D+00 -.000000000000000D+00 -.000000000000000D+00 0.000000000000000D+00
 0.100149377837601D+04 0.000000000000000D+00 0.000000000000000D+00 0.100149377837601D+04
 0.852993452815424D+03 0.000000000000000D+00 0.000000000000000D+00 -.852993452815424D+03
 0.642310099758912D+03 -.232691476005958D+03 0.505083574533480D+03 -.296112350270899D+03
 0.565138821986461D+03 0.174730660914865D+03 -.499886180268157D+03 -.197395265975179D+03
 0.498180031164968D+03 0.680101567514394D+02 -.286264515579472D+01 0.493507616246077D+03
 0.148858278281089D+03 -.100493416603463D+02 -.233474910952858D+01 0.148500325560584D+03
 0.852798874982375D+03 0.000000000000000D+00 0.000000000000000D+00 0.852798874982375D+03
 0.852798874982375D+03 0.000000000000000D+00 0.000000000000000D+00 -.852798874982375D+03
 0.643001467160795D+03 -.236477954068259D+03 0.504203867525499D+03 -.296112350270899D+03
 0.564803933352888D+03 0.171401893349969D+03 -.500659548053893D+03 -.197395265975179D+03
 0.000000000000000D+00 -.000000000000000D+00 -.000000000000000D+00 0.000000000000000D+00
 0.497792349451067D+03 0.650760607182900D+02 -.354431947160565D+01 0.493507616246077D+03
 0.100149377837601D+04 0.000000000000000D+00 0.000000000000000D+00 0.100149377837601D+04
 0.852993452815424D+03 0.000000000000000D+00 0.000000000000000D+00 -.852993452815424D+03
 0.642310099758912D+03 -.232691476005958D+03 0.505083574533480D+03 -.296112350270899D+03
 0.565138821986461D+03 0.174730660914865D+03 -.499886180268157D+03 -.197395265975179D+03
 0.148858278281089D+03 -.100493416603463D+02 -.233474910952858D+01 0.148500325560584D+03
 0.498180031164968D+03 0.680101567514394D+02 -.286264515579472D+01 0.493507616246077D+03
0.572549194448D-04 0.000000000000D+00 0.000000000000D+00 0.362465298159D-05 0.000000000000D+00  6 -2 2 25 1 -1 21 0 0.12172111D+00 0.14141668D+00 0.33937642D+06 0.33937642D+06 0.33937642D+06 0.10806113D+01  1  2  2  1  6  1       -2 0.104029840426D-03 0.100000000000D+01
0.183985513074D-04 0.000000000000D+00 -.219873966234D-06 0.362465298159D-05 0.000000000000D+00  6 -2 2 25 1 -1 21 2 0.12172111D+00 0.14141668D+00 0.33937642D+06 0.33937642D+06 0.33937642D+06 0.10806113D+01  1  2  3  1  6  1       -2 0.390362230838D-04 0.100000000000D+01
-.367278067484D-04 0.000000000000D+00 0.000000000000D+00 0.362465298159D-05 0.000000000000D+00  6 -2 2 25 1 -1 21 2 0.12172111D+00 0.14141668D+00 0.33937642D+06 0.33937642D+06 0.33937642D+06 0.10806113D+01  1  2 15  1  6  1       -2 -.779254210644D-04 0.100000000000D+01
0.147572717203D-06 0.000000000000D+00 0.000000000000D+00 0.362465298159D-05 0.000000000000D+00  6 -2 2 25 1 -1 21 2 0.14295691D+00 0.14141668D+00 0.34687019D+06 0.34687019D+06 0.34687019D+06 0.10799181D+01  1  2 12  1  6  1       -2 0.204117411294D-06 0.100000000000D+01
0.263917965341D-01 0.000000000000D+00 0.000000000000D+00 0.362465298159D-05 0.000000000000D+00  6 -2 2 25 1 -1 21 2 0.14868228D+00 0.14141668D+00 0.34687019D+06 0.34687019D+06 0.34687019D+06 0.10799181D+01  1  2 12  1  6  1       -2 0.327833854542D-01 0.100000000000D+01
-.126804411828D-01 0.000000000000D+00 0.000000000000D+00 0.362465298159D-05 0.000000000000D+00  6 -2 2 25 1 -1 21 2 0.12172111D+00 0.14141668D+00 0.33937642D+06 0.33937642D+06 0.33937642D+06 0.10806113D+01  1  2  4  1  6  1       -2 -.269041036188D-01 0.100000000000D+01
-.347466099305D-01 0.000000000000D+00 -.974780378194D-04 0.362465298159D-05 0.000000000000D+00  6 -2 2 25 1 -1 21 2 0.14295742D+00 0.14141668D+00 0.33937642D+06 0.33937642D+06 0.33937642D+06 0.10806113D+01  1  2  5  1  6  1       -2 -.481749660394D-01 0.100000000000D+01
0.343188114000D-01 0.000000000000D+00 0.962310249937D-04 0.362465298159D-05 0.000000000000D+00  6 -2 2 25 1 -1 21 2 0.12172111D+00 0.14141668D+00 0.33937642D+06 0.33937642D+06 0.33937642D+06 0.10806113D+01  1  2  6  1  6  1       -2 0.728142534373D-01 0.100000000000D+01
0.356009637811D-08 0.000000000000D+00 0.000000000000D+00 0.362465298159D-05 0.000000000000D+00  6 21 2 25 1 2 -1 2 0.14295691D+00 0.14141668D+00 0.34687019D+06 0.34687019D+06 0.34687019D+06 0.10799181D+01  3  4 12  5  5  1       -2 0.421600814098D-07 0.100000000000D+01
0.755478782124D-03 0.000000000000D+00 0.000000000000D+00 0.362465298159D-05 0.000000000000D+00  6 21 2 25 1 2 -1 2 0.14868228D+00 0.14141668D+00 0.34687019D+06 0.34687019D+06 0.34687019D+06 0.10799181D+01  3  4 12  5  5  1       -2 0.796556566313D-02 0.100000000000D+01
-.837488251446D-03 0.000000000000D+00 -.235163670555D-05 0.362465298159D-05 0.000000000000D+00  6 21 2 25 1 2 -1 2 0.14295742D+00 0.14141668D+00 0.33937642D+06 0.33937642D+06 0.33937642D+06 0.10806113D+01  3  4  5  5  5  1       -2 -.994877572268D-02 0.100000000000D+01
  </mgrwgt>
  </event>
  <event>
  5     66 0.17652913E-05 0.10863920E+03 0.75467711E-02 0.93547745E-01
       -2 -1    0    0    0  501 0.00000000E+00 0.00000000E+00 0.36653732E+03 0.36653746E+03 0.32000000E+00 0.0000E+00 0.9000E+01
        2 -1    0    0  502    0 0.00000000E+00 0.00000000E+00 -.34942679E+04 0.34942679E+04 0.32000000E+00 0.0000E+00 0.9000E+01
       25  1    1    2    0    0 -.48244271E+03 -.87416225E+02 -.55504739E+03 0.75106269E+03 0.12500000E+03 0.0000E+00 0.9000E+01
        1  1    1    2  502    0 0.10825245E+03 -.89976798E+01 -.27005427E+04 0.27027265E+04 0.32000000E+00 0.0000E+00 0.9000E+01
       -1  1    1    2    0  501 0.37419027E+03 0.96413905E+02 0.12785952E+03 0.40701616E+03 0.32000000E+00 0.0000E+00 0.9000E+01
#aMCatNLO 1  0  0  2  4 0.20670457D+03 0.00000000D+00  -5  6  0 0.00000000D+00 0.00000000D+00 0.00000000D+00 0.00000000D+00 0.00000000D+00
  <mgrwgt>
 0.1096747273D-01    7    2    0
 0.113171545111074D+04 0.000000000000000D+00 0.000000000000000D+00 0.113171545111074D+04
 0.113171545111074D+04 0.000000000000000D+00 0.000000000000000D+00 -.113171545111074D+04
 0.514123039261930D+03 -.482430672945458D+03 -.874088101552202D+02 0.912022215111289D+02
 0.878423780840055D+03 0.108265884565429D+03 -.899853000583973D+01 -.871679908821086D+03
 0.870884082119487D+03 0.374164788380029D+03 0.964073401610599D+02 0.780477687309957D+03
 0.000000000000000D+00 0.000000000000000D+00 -.000000000000000D+00 -.000000000000000D+00
 0.118694195171144D+04 0.000000000000000D+00 0.000000000000000D+00 0.118694195171144D+04
 0.134787222253847D+04 0.000000000000000D+00 0.000000000000000D+00 -.134787222253847D+04
 0.559828564352538D+03 -.531297045216439D+03 -.847857653190681D+02 0.912022215111289D+02
 0.872162138514829D+03 0.286116590494700D+02 -.472285748898690D+01 -.871679908821086D+03
 0.840859100501470D+03 0.296277964325063D+03 0.100588142257617D+03 0.780477687309957D+03
 0.261964370881076D+03 0.206407421841906D+03 -.110795194495622D+02 -.160930270827034D+03
0.121419546493D-01 0.000000000000D+00 0.000000000000D+00 0.883682482007D-04 0.000000000000D+00  6 -2 2 25 1 -1 21 0 0.56390368D-01 0.53757968D+00 0.25049705D+06 0.25049705D+06 0.25049705D+06 0.10903942D+01  1  2  2  2  6  2        2 0.389791996965D-02 0.100000000000D+01
0.277743795310D-02 0.000000000000D+00 -.466283029033D-04 0.883682482007D-04 0.000000000000D+00  6 -2 2 25 1 -1 21 2 0.56390368D-01 0.53757968D+00 0.25049705D+06 0.25049705D+06 0.25049705D+06 0.10903942D+01  1  2  3  2  6  2        2 0.106012178408D-02 0.100000000000D+01
-.846073970830D-02 0.000000000000D+00 0.000000000000D+00 0.883682482007D-04 0.000000000000D+00  6 -2 2 25 1 -1 21 2 0.56390368D-01 0.53757968D+00 0.25049705D+06 0.25049705D+06 0.25049705D+06 0.10903942D+01  1  2 15  2  6  2        2 -.322938428353D-02 0.100000000000D+01
-.281666271784D-03 0.000000000000D+00 0.000000000000D+00 0.883682482007D-04 0.000000000000D+00  6 -2 2 25 1 -1 21 2 0.56390368D-01 0.53757968D+00 0.25049705D+06 0.25049705D+06 0.25049705D+06 0.10903942D+01  1  2  4  2  6  2        2 -.107509350560D-03 0.100000000000D+01
-.316609548769D-01 0.000000000000D+00 -.933823335484D-02 0.883682482007D-04 0.000000000000D+00  6 -2 2 25 1 -1 21 2 0.56390368D-01 0.64581205D+00 0.25049705D+06 0.25049705D+06 0.25049705D+06 0.10903942D+01  1  2  5  2  6  2        2 -.338486886616D-02 0.100000000000D+01
0.333580477147D-01 0.000000000000D+00 0.944335102689D-02 0.883682482007D-04 0.000000000000D+00  6 -2 2 25 1 -1 21 2 0.56390368D-01 0.53757968D+00 0.25049705D+06 0.25049705D+06 0.25049705D+06 0.10903942D+01  1  2  6  2  6  2        2 0.127324511488D-01 0.100000000000D+01
-.754853316238D-03 0.000000000000D+00 -.249945073606D-03 0.883682482007D-04 0.000000000000D+00  6 -2 21 25 1 -1 -2 2 0.56390368D-01 0.64581205D+00 0.25049705D+06 0.25049705D+06 0.25049705D+06 0.10903942D+01  1  2  5  6  6  2        2 -.125767154432D-05 0.100000000000D+01
  </mgrwgt>
  </event>
  <event>
  5     66 0.17652913E-05 0.27428971E+02 0.75467711E-02 0.86647440E-01
       -2 -1    0    0    0  501 0.00000000E+00 0.00000000E+00 0.14013348E+04 0.14013348E+04 0.32000000E+00 0.0000E+00 0.9000E+01
        2 -1    0    0  502    0 0.00000000E+00 0.00000000E+00 -.32396288E+04 0.32396288E+04 0.32000000E+00 0.0000E+00 0.9000E+01
       25  1    1    2    0    0 0.57867638E+03 -.21522035E+03 -.99194047E+03 0.11750562E+04 0.12500000E+03 0.0000E+00 0.9000E+01
        1  1    1    2  502    0 -.45205071E+01 -.27053226E+02 -.20819095E+04 0.20820902E+04 0.32000000E+00 0.0000E+00 0.9000E+01
       -1  1    1    2    0  501 -.57415587E+03 0.24227358E+03 0.12355560E+04 0.13838172E+04 0.32000000E+00 0.0000E+00 0.9000E+01
#aMCatNLO 1  0  0  1  5 0.11990437D+03 0.00000000D+00  -5  6  0 0.00000000D+00 0.00000000D+00 0.00000000D+00 0.00000000D+00 0.00000000D+00
  <mgrwgt>
 0.2579722854D-01    4    2    0
 0.213068172474366D+04 0.000000000000000D+00 0.000000000000000D+00 0.213068172474366D+04
 0.213068172474366D+04 0.000000000000000D+00 0.000000000000000D+00 -.213068172474366D+04
 0.851799566616181D+03 0.578675370886052D+03 -.215219197749641D+03 -.573369875156870D+03
 0.136947926873016D+04 -.452071287993351D+01 -.270538649428543D+02 -.136920455704340D+04
 0.204008461414097D+04 -.574154658006118D+03 0.242273062692495D+03 0.194257443220027D+04
 0.000000000000000D+00 -.000000000000000D+00 0.000000000000000D+00 -.000000000000000D+00
 0.253481199383613D+04 0.000000000000000D+00 0.000000000000000D+00 0.253481199383613D+04
 0.255431261605048D+04 0.000000000000000D+00 0.000000000000000D+00 -.255431261605048D+04
 0.957059775016708D+03 0.672917496248331D+03 -.344626526054662D+03 -.573369875156870D+03
 0.139452830542281D+04 0.139484927752394D+03 -.224793306232464D+03 -.136920455704340D+04
 0.197705690731751D+04 -.364860355154712D+03 -.451166418302638D+02 0.194257443220027D+04
 0.760479622129580D+03 -.447542068846013D+03 0.614536474117389D+03 -.195006222143499D+02
0.161167291429D+01 0.000000000000D+00 0.000000000000D+00 0.239396887720D-02 0.000000000000D+00  6 -2 2 25 1 -1 21 0 0.21558997D+00 0.49840443D+00 0.40994204D+06 0.40994204D+06 0.40994204D+06 0.10746598D+01  1  2  2  1  6  1       -2 0.245144670853D-01 0.100000000000D+01
0.119399941812D+01 0.000000000000D+00 -.618924835410D-02 0.239396887720D-02 0.000000000000D+00  6 -2 2 25 1 -1 21 2 0.21558997D+00 0.49840443D+00 0.40994204D+06 0.40994204D+06 0.40994204D+06 0.10746598D+01  1  2  3  1  6  1       -2 0.209745033847D-01 0.100000000000D+01
-.110872132345D+01 0.000000000000D+00 0.000000000000D+00 0.239396887720D-02 0.000000000000D+00  6 -2 2 25 1 -1 21 2 0.21558997D+00 0.49840443D+00 0.40994204D+06 0.40994204D+06 0.40994204D+06 0.10746598D+01  1  2 15  1  6  1       -2 -.194764576922D-01 0.100000000000D+01
-.122553199217D-01 0.000000000000D+00 0.000000000000D+00 0.239396887720D-02 0.000000000000D+00  6 -2 2 25 1 -1 21 2 0.21558997D+00 0.49840443D+00 0.40994204D+06 0.40994204D+06 0.40994204D+06 0.10746598D+01  1  2  4  1  6  1       -2 -.215284233205D-03 0.100000000000D+01
  </mgrwgt>
  </event>
  <event>
  5     66 0.17652913E-05 0.17121717E+03 0.75467711E-02 0.94878497E-01
       -2 -1    0    0    0  501 0.00000000E+00 0.00000000E+00 0.11167586E+04 0.11167586E+04 0.32000000E+00 0.0000E+00 0.9000E+01
        2 -1    0    0  502    0 -.00000000E+00 -.00000000E+00 -.13383221E+04 0.13383221E+04 0.32000000E+00 0.0000E+00 0.9000E+01
       25  1    1    2    0    0 -.15833728E+03 -.43551441E+03 0.57187196E+03 0.74659630E+03 0.12500000E+03 0.0000E+00 0.9000E+01
        1  1    1    2  502    0 0.16905028E+03 0.26456899E+03 -.12142306E+04 0.12541654E+04 0.32000000E+00 0.0000E+00 0.9000E+01
       -1  1    1    2    0  501 -.10712997E+02 0.17094542E+03 0.42079515E+03 0.45431901E+03 0.32000000E+00 0.0000E+00 0.9000E+01
#aMCatNLO 1  0  0  5  5 0.11324527D+02 0.00000000D+00  -5  6  0 0.00000000D+00 0.00000000D+00 0.00000000D+00 0.00000000D+00 0.00000000D+00
  <mgrwgt>
 0.1059719846D-02    6    2    0
 0.122253129055002D+04 0.000000000000000D+00 0.000000000000000D+00 0.122253129055002D+04
 0.122253129055002D+04 -.000000000000000D+00 -.000000000000000D+00 -.122253129055002D+04
 0.801624650295292D+03 -.158362616859897D+03 -.435487093183429D+03 0.642066471023821D+03
 0.114931005612001D+04 0.169071634933232D+03 0.264605160795954D+03 -.110558242399187D+04
 0.494127874684730D+03 -.107090180733353D+02 0.170881932387475D+03 0.463515952968046D+03
 0.000000000000000D+00 0.000000000000000D+00 0.000000000000000D+00 0.000000000000000D+00
 0.122253129055002D+04 0.000000000000000D+00 0.000000000000000D+00 0.122253129055002D+04
 0.122253129055002D+04 -.000000000000000D+00 -.000000000000000D+00 -.122253129055002D+04
 0.803451619868755D+03 -.158432191846527D+03 -.434376897264455D+03 0.645077869081971D+03
 0.114552209779711D+04 0.168972161207656D+03 0.266192445674168D+03 -.110127692572954D+04
 0.484615015843585D+03 -.209626171374935D+02 0.171528228494617D+03 0.452758599137911D+03
 0.114738475905813D+02 0.104226477763653D+02 -.334377690432973D+01 0.344045750966151D+01
0.391987325452D-02 0.000000000000D+00 0.000000000000D+00 0.190729436403D-04 0.000000000000D+00  6 -2 2 25 1 -1 21 0 0.17180902D+00 0.20589571D+00 0.23289120D+06 0.23289120D+06 0.23289120D+06 0.10927828D+01  1  2  2  4  6  5       -1 0.159894845061D-02 0.100000000000D+01
0.232485558914D-03 0.000000000000D+00 -.150533454237D-04 0.190729436403D-04 0.000000000000D+00  6 -2 2 25 1 -1 21 2 0.17180902D+00 0.20589571D+00 0.23289120D+06 0.23289120D+06 0.23289120D+06 0.10927828D+01  1  2  3  4  6  5       -1 0.113246843645D-03 0.100000000000D+01
-.278537659058D-02 0.000000000000D+00 0.000000000000D+00 0.190729436403D-04 0.000000000000D+00  6 -2 2 25 1 -1 21 2 0.17180902D+00 0.20589571D+00 0.23289120D+06 0.23289120D+06 0.23289120D+06 0.10927828D+01  1  2 15  4  6  5       -1 -.135679441218D-02 0.100000000000D+01
-.168451322745D-04 0.000000000000D+00 0.000000000000D+00 0.190729436403D-04 0.000000000000D+00  6 -2 2 25 1 -1 21 2 0.17180902D+00 0.20589571D+00 0.23289120D+06 0.23289120D+06 0.23289120D+06 0.10927828D+01  1  2  4  4  6  5       -1 -.820549056802D-05 0.100000000000D+01
-.512421557791D-01 0.000000000000D+00 0.000000000000D+00 0.190729436403D-04 0.000000000000D+00  6 -2 2 25 1 -1 21 2 0.17180902D+00 0.20589571D+00 0.23289120D+06 0.23289120D+06 0.23289120D+06 0.10927828D+01  1  2  5  4  6  5       -1 -.249607435002D-01 0.100000000000D+01
0.527049042389D-01 0.000000000000D+00 -.000000000000D+00 0.190729436403D-04 0.000000000000D+00  6 -2 2 25 1 -1 21 2 0.17180902D+00 0.20589571D+00 0.23289120D+06 0.23289120D+06 0.23289120D+06 0.10927828D+01  1  2  6  4  6  5       -1 0.256732679551D-01 0.100000000000D+01
  </mgrwgt>
  </event>
  <event>
  5     66 -.17652913E-05 0.41593796E+02 0.75467711E-02 0.94225312E-01
       -2 -1    0    0    0  501 0.00000000E+00 0.00000000E+00 0.32743668E+03 0.32743684E+03 0.32000000E+00 0.0000E+00 0.9000E+01
        2 -1    0    0  502    0 -.00000000E+00 -.00000000E+00 -.23642209E+04 0.23642209E+04 0.32000000E+00 0.0000E+00 0.9000E+01
       25  1    1    2    0    0 -.12393643E+03 0.45517775E+03 -.98983084E+02 0.49796553E+03 0.12500000E+03 0.0000E+00 0.9000E+01
        1  1    1    2  502    0 0.10925911E+03 -.49413277E+03 -.20302133E+04 0.20923362E+04 0.32000000E+00 0.0000E+00 0.9000E+01
       -1  1    1    2    0  501 0.14677321E+02 0.38955020E+02 0.92412194E+02 0.10135597E+03 0.32000000E+00 0.0000E+00 0.9000E+01
#aMCatNLO 1  0  0  4  2 0.84248701D+01 0.00000000D+00  -5  6  0 0.00000000D+00 0.00000000D+00 0.00000000D+00 0.00000000D+00 0.00000000D+00
  <mgrwgt>
 -.3548968840D-01    9    2    0
 0.879848212907170D+03 0.000000000000000D+00 0.000000000000000D+00 0.879848212907170D+03
 0.879848212907170D+03 -.000000000000000D+00 -.000000000000000D+00 -.879848212907170D+03
 0.647324227212492D+03 -.123945758342465D+03 0.455293020803512D+03 0.425146291684138D+03
 0.850590378454294D+03 0.109280610972489D+03 -.494215729854203D+03 -.683602627517753D+03
 0.261781820147554D+03 0.146651473699763D+02 0.389227090506912D+02 0.258456335833615D+03
 0.000000000000000D+00 0.000000000000000D+00 0.000000000000000D+00 -.000000000000000D+00
 0.879848212907170D+03 0.000000000000000D+00 0.000000000000000D+00 0.879848212907170D+03
 0.879848212907170D+03 -.000000000000000D+00 -.000000000000000D+00 -.879848212907170D+03
 0.647005977789164D+03 -.123903215094291D+03 0.455100621234551D+03 0.424880163265050D+03
 0.809152432732583D+03 0.110228603235903D+03 -.474142852838786D+03 -.646348102439866D+03
 0.261664964011818D+03 0.146823525053881D+02 0.388448997441812D+02 0.258348709460833D+03
 0.418730512807747D+02 -.100774064699978D+01 -.198026681399464D+02 -.368807702860166D+02
0.242355411500D-03 0.000000000000D+00 0.000000000000D+00 0.226688146716D-04 0.000000000000D+00  6 -2 2 25 1 -1 21 0 0.50374888D-01 0.36372630D+00 0.26826493D+06 0.26826493D+06 0.26826493D+06 0.10881627D+01  1  2  2  3  6  4        1 0.496906697833D-03 0.100000000000D+01
0.681757965525D-04 0.000000000000D+00 -.930708593806D-06 0.226688146716D-04 0.000000000000D+00  6 -2 2 25 1 -1 21 2 0.50374888D-01 0.36372630D+00 0.26826493D+06 0.26826493D+06 0.26826493D+06 0.10881627D+01  1  2  3  3  6  4        1 0.165516025423D-03 0.100000000000D+01
-.155916599676D-03 0.000000000000D+00 0.000000000000D+00 0.226688146716D-04 0.000000000000D+00  6 -2 2 25 1 -1 21 2 0.50374888D-01 0.36372630D+00 0.26826493D+06 0.26826493D+06 0.26826493D+06 0.10881627D+01  1  2 15  3  6  4        1 -.378531637045D-03 0.100000000000D+01
0.123576559813D-07 0.000000000000D+00 0.000000000000D+00 0.226688146716D-04 0.000000000000D+00  6 -2 2 25 1 -1 21 2 0.50374888D-01 0.36372630D+00 0.26837110D+06 0.26837110D+06 0.26837110D+06 0.10881499D+01  1  2 12  3  6  4        1 0.300002609089D-07 0.100000000000D+01
0.229518785440D-01 0.000000000000D+00 0.000000000000D+00 0.226688146716D-04 0.000000000000D+00  6 -2 2 25 1 -1 21 2 0.50374888D-01 0.36372630D+00 0.26837110D+06 0.26837110D+06 0.26837110D+06 0.10881499D+01  1  2 12  3  6  4        1 0.557194945149D-01 0.100000000000D+01
-.391399478069D-01 0.000000000000D+00 0.000000000000D+00 0.226688146716D-04 0.000000000000D+00  6 -2 2 25 1 -1 21 2 0.50374888D-01 0.36372630D+00 0.26826493D+06 0.26826493D+06 0.26826493D+06 0.10881627D+01  1  2  4  3  6  4        1 -.950232916056D-01 0.100000000000D+01
-.263253485843D-01 0.000000000000D+00 0.000000000000D+00 0.226688146716D-04 0.000000000000D+00  6 -2 2 25 1 -1 21 2 0.50374888D-01 0.36372630D+00 0.26826493D+06 0.26826493D+06 0.26826493D+06 0.10881627D+01  1  2  5  3  6  4        1 -.639122281790D-01 0.100000000000D+01
0.276531567242D-01 0.000000000000D+00 -.000000000000D+00 0.226688146716D-04 0.000000000000D+00  6 -2 2 25 1 -1 21 2 0.50374888D-01 0.36372630D+00 0.26826493D+06 0.26826493D+06 0.26826493D+06 0.10881627D+01  1  2  6  3  6  4        1 0.671358579266D-01 0.100000000000D+01
0.126276787087D-03 0.000000000000D+00 0.000000000000D+00 0.226688146716D-04 0.298034092721D-05  6 -2 2 25 1 -1 21 2 0.50374888D-01 0.36372630D+00 0.26837110D+06 0.26837110D+06 0.26837110D+06 0.10881499D+01  1  2 11  3  6  4        1 0.306557858956D-03 0.100000000000D+01
  </mgrwgt>
  </event>
  <event>
  5     66 0.17652913E-05 0.67332860E+02 0.75467711E-02 0.86802369E-01
       -2 -1    0    0    0  501 0.00000000E+00 0.00000000E+00 0.51639090E+03 0.51639100E+03 0.32000000E+00 0.0000E+00 0.9000E+01
        2 -1    0    0  502    0 0.00000000E+00 0.00000000E+00 -.33493708E+04 0.33493708E+04 0.32000000E+00 0.0000E+00 0.9000E+01
       25  1    1    2    0    0 -.15939610E+03 0.84460582E+03 -.55198153E+03 0.10291136E+04 0.12500000E+03 0.0000E+00 0.9000E+01
        1  1    1    2  502    0 0.12979549E+03 -.90511193E+03 -.24711639E+04 0.26349053E+04 0.32000000E+00 0.0000E+00 0.9000E+01
       -1  1    1    2    0  501 0.29600616E+02 0.60506116E+02 0.19016557E+03 0.20174299E+03 0.32000000E+00 0.0000E+00 0.9000E+01
#aMCatNLO 1  0  0  1  5 0.12717821D+02 0.00000000D+00  -5  6  0 0.00000000D+00 0.00000000D+00 0.00000000D+00 0.00000000D+00 0.00000000D+00
  <mgrwgt>
 0.1872973374D-02    4    2    0
 0.131513680747660D+04 0.000000000000000D+00 0.000000000000000D+00 0.131513680747660D+04
 0.131513680747660D+04 0.000000000000000D+00 0.000000000000000D+00 -.131513680747660D+04
 0.918142354412413D+03 -.159403984962734D+03 0.844728777678119D+03 0.297294542005735D+03
 0.121099685127730D+04 0.129814697962986D+03 -.905211735508992D+03 -.793884898390891D+03
 0.501134409263484D+03 0.295892869997478D+02 0.604829578308723D+02 0.496590356385156D+03
 0.000000000000000D+00 -.000000000000000D+00 0.000000000000000D+00 -.000000000000000D+00
 0.134903599442979D+04 0.000000000000000D+00 0.000000000000000D+00 0.134903599442979D+04
 0.181448358619867D+04 0.000000000000000D+00 0.000000000000000D+00 -.181448358619867D+04
 0.876429545823416D+03 -.862112842099863D+02 0.810362461223806D+03 0.297294542005735D+03
 0.126127506057321D+04 0.230647803730283D+03 -.952556107095664D+03 -.793884898390891D+03
 0.503270664971169D+03 0.705545556654042D+02 0.412484525848409D+02 0.496590356385156D+03
 0.522544309260660D+03 -.214991075185701D+03 0.100945193287018D+03 -.465447591768872D+03
0.177095514542D-01 0.000000000000D+00 0.000000000000D+00 0.420505763010D-05 0.000000000000D+00  6 -2 2 25 1 -1 21 0 0.79444763D-01 0.51528782D+00 0.85607219D+06 0.85607219D+06 0.85607219D+06 0.10523863D+01  1  2  2  1  6  1       -2 0.308609579464D-02 0.100000000000D+01
0.650390989377D-02 0.000000000000D+00 -.680093406163D-04 0.420505763010D-05 0.000000000000D+00  6 -2 2 25 1 -1 21 2 0.79444763D-01 0.51528782D+00 0.85607219D+06 0.85607219D+06 0.85607219D+06 0.10523863D+01  1  2  3  1  6  1       -2 0.125523982450D-02 0.100000000000D+01
-.122239400718D-01 0.000000000000D+00 0.000000000000D+00 0.420505763010D-05 0.000000000000D+00  6 -2 2 25 1 -1 21 2 0.79444763D-01 0.51528782D+00 0.85607219D+06 0.85607219D+06 0.85607219D+06 0.10523863D+01  1  2 15  1  6  1       -2 -.235919264581D-02 0.100000000000D+01
-.565652252432D-03 0.000000000000D+00 0.000000000000D+00 0.420505763010D-05 0.000000000000D+00  6 -2 2 25 1 -1 21 2 0.79444763D-01 0.51528782D+00 0.85607219D+06 0.85607219D+06 0.85607219D+06 0.10523863D+01  1  2  4  1  6  1       -2 -.109169598852D-03 0.100000000000D+01
  </mgrwgt>
  </event>
  <event>
  5     66 -.17652913E-05 0.20138228E+03 0.75467711E-02 0.88964126E-01
       -2 -1    0    0    0  501 0.00000000E+00 0.00000000E+00 0.13757848E+04 0.13757849E+04 0.32000000E+00 0.0000E+00 0.9000E+01
        2 -1    0    0  502    0 -.00000000E+00 -.00000000E+00 -.18305434E+04 0.18305434E+04 0.32000000E+00 0.0000E+00 0.9000E+01
       25  1    1    2    0    0 -.80742636E+03 0.20432662E+03 -.25520655E+03 0.88002390E+03 0.12500000E+03 0.0000E+00 0.9000E+01
        1  1    1    2  502    0 0.19766564E+03 0.38414233E+02 -.11520922E+04 0.11695571E+04 0.32000000E+00 0.0000E+00 0.9000E+01
       -1  1    1    2    0  501 0.60976072E+03 -.24274085E+03 0.95254021E+03 0.11567472E+04 0.32000000E+00 0.0000E+00 0.9000E+01
#aMCatNLO 1  0  0  5  1 0.57596721D+02 0.00000000D+00  -5  6  0 0.00000000D+00 0.00000000D+00 0.00000000D+00 0.00000000D+00 0.00000000D+00
  <mgrwgt>
 -.8121284305D-03    8    2    0
 0.158695743317957D+04 0.000000000000000D+00 0.000000000000000D+00 0.158695743317957D+04
 0.158695743317957D+04 -.000000000000000D+00 -.000000000000000D+00 -.158695743317957D+04
 0.852423259978722D+03 -.807423263162917D+03 0.204315646625738D+03 -.131617646233345D+03
 0.101649726506761D+04 0.197684053143478D+03 0.384166417776139D+02 -.996349269411697D+03
 0.130499434131281D+04 0.609739210019439D+03 -.242732288403352D+03 0.112796691564504D+04
 0.000000000000000D+00 0.000000000000000D+00 0.000000000000000D+00 0.000000000000000D+00
 0.158695743317957D+04 0.000000000000000D+00 0.000000000000000D+00 0.158695743317957D+04
 0.158695743317957D+04 -.000000000000000D+00 -.000000000000000D+00 -.158695743317957D+04
 0.851373345229934D+03 -.806632041065478D+03 0.204000667455643D+03 -.130153951043380D+03
 0.101495678715254D+04 0.198627435311945D+03 0.380410889038145D+02 -.994604090723244D+03
 0.939642645280080D+03 0.467995623050227D+03 -.216805380892603D+03 0.785432253253448D+03
 0.367942088696586D+03 0.140008982703306D+03 -.252363754668538D+02 0.339325788513175D+03
0.191754104885D-03 0.000000000000D+00 0.000000000000D+00 0.386840772873D-05 0.000000000000D+00  6 -2 2 25 1 -1 21 0 0.21165921D+00 0.28162206D+00 0.72238197D+06 0.72238197D+06 0.72238197D+06 0.10573968D+01  1  2  2  4  6  5       -1 0.202251019433D-04 0.100000000000D+01
0.329013949527D-04 0.000000000000D+00 -.736386252773D-06 0.386840772873D-05 0.000000000000D+00  6 -2 2 25 1 -1 21 2 0.21165921D+00 0.28162206D+00 0.72238197D+06 0.72238197D+06 0.72238197D+06 0.10573968D+01  1  2  3  4  6  5       -1 0.388004116096D-05 0.100000000000D+01
-.157400730670D-03 0.000000000000D+00 0.000000000000D+00 0.386840772873D-05 0.000000000000D+00  6 -2 2 25 1 -1 21 2 0.21165921D+00 0.28162206D+00 0.72238197D+06 0.72238197D+06 0.72238197D+06 0.10573968D+01  1  2 15  4  6  5       -1 -.185621708333D-04 0.100000000000D+01
0.104494080882D-08 0.000000000000D+00 0.000000000000D+00 0.386840772873D-05 0.000000000000D+00  6 -2 2 25 1 -1 21 2 0.21165921D+00 0.28162206D+00 0.72389818D+06 0.72389818D+06 0.72389818D+06 0.10573345D+01  1  2 12  4  6  5       -1 0.123193605359D-09 0.100000000000D+01
0.554246588667D-02 0.000000000000D+00 0.000000000000D+00 0.386840772873D-05 0.000000000000D+00  6 -2 2 25 1 -1 21 2 0.21165921D+00 0.28162206D+00 0.72389818D+06 0.72389818D+06 0.72389818D+06 0.10573345D+01  1  2 12  4  6  5       -1 0.653430653100D-03 0.100000000000D+01
-.143300989960D-01 0.000000000000D+00 0.000000000000D+00 0.386840772873D-05 0.000000000000D+00  6 -2 2 25 1 -1 21 2 0.21165921D+00 0.28162206D+00 0.72238197D+06 0.72238197D+06 0.72238197D+06 0.10573968D+01  1  2  4  4  6  5       -1 -.168993971305D-02 0.100000000000D+01
-.580599522995D-02 0.000000000000D+00 0.000000000000D+00 0.386840772873D-05 0.000000000000D+00  6 -2 2 25 1 -1 21 2 0.21165921D+00 0.28162206D+00 0.72238197D+06 0.72238197D+06 0.72238197D+06 0.10573968D+01  1  2  5  4  6  5       -1 -.684697427113D-03 0.100000000000D+01
0.766166114623D-02 0.000000000000D+00 -.000000000000D+00 0.386840772873D-05 0.000000000000D+00  6 -2 2 25 1 -1 21 2 0.21165921D+00 0.28162206D+00 0.72238197D+06 0.72238197D+06 0.72238197D+06 0.10573968D+01  1  2  6  4  6  5       -1 0.903534961100D-03 0.100000000000D+01
  </mgrwgt>
  </event>
  <event>
  5     66 0.17652913E-05 0.51802447E+02 0.75467711E-02 0.90716366E-01
       -2 -1    0    0    0  501 0.00000000E+00 0.00000000E+00 0.67664196E+03 0.67664204E+03 0.32000000E+00 0.0000E+00 0.9000E+01
        2 -1    0    0  502    0 0.00000000E+00 0.00000000E+00 -.31414951E+04 0.31414952E+04 0.32000000E+00 0.0000E+00 0.9000E+01
       25  1    1    2    0    0 -.42597056E+03 -.52270350E+03 -.64708383E+03 0.94287451E+03 0.12500000E+03 0.0000E+00 0.9000E+01
        1  1    1    2  502    0 0.47020060E+03 0.49572891E+03 -.22953483E+04 0.23948820E+04 0.32000000E+00 0.0000E+00 0.9000E+01
       -1  1    1    2    0  501 -.44230046E+02 0.26974594E+02 0.47757892E+03 0.48038074E+03 0.32000000E+00 0.0000E+00 0.9000E+01
#aMCatNLO 1  0  0  1  5 0.91680261D+01 0.00000000D+00  -5  6  0 0.00000000D+00 0.00000000D+00 0.00000000D+00 0.00000000D+00 0.00000000D+00
  <mgrwgt>
 0.4612077669D-01   13    4    0
 0.145796694620412D+04 0.000000000000000D+00 0.000000000000000D+00 0.145796694620412D+04
 0.145796694620412D+04 0.000000000000000D+00 0.000000000000000D+00 -.145796694620412D+04
 0.687682978532925D+03 -.426018721243779D+03 -.522751660099741D+03 -.502158339241188D+02
 0.119562158296180D+04 0.470245205789593D+03 0.495779237608290D+03 -.981113328638708D+03
 0.103262933091351D+04 -.442264845458141D+02 0.269724224914512D+02 0.103132916256283D+04
 0.000000000000000D+00 0.000000000000000D+00 -.000000000000000D+00 0.000000000000000D+00
 0.174167807063400D+04 0.000000000000000D+00 0.000000000000000D+00 0.174167807063400D+04
 0.145804821978697D+04 0.000000000000000D+00 0.000000000000000D+00 -.145804821978697D+04
 0.686177202746113D+03 -.426223516698071D+03 -.520601611028351D+03 -.502158339241188D+02
 0.119703905980433D+04 0.469888542113056D+03 0.499523678173081D+03 -.981113328638708D+03
 0.103273204247780D+04 -.445343591217755D+02 0.302046497322259D+02 0.103132916256283D+04
 0.283777985392723D+03 0.869333706790625D+00 -.912671687695589D+01 0.283629850847026D+03
 0.145796694620412D+04 0.000000000000000D+00 0.000000000000000D+00 0.145796694620412D+04
 0.145796694620412D+04 0.000000000000000D+00 0.000000000000000D+00 -.145796694620412D+04
 0.687682978532925D+03 -.426018721243779D+03 -.522751660099741D+03 -.502158339241188D+02
 0.119562158296180D+04 0.470245205789593D+03 0.495779237608290D+03 -.981113328638708D+03
 0.000000000000000D+00 0.000000000000000D+00 -.000000000000000D+00 0.000000000000000D+00
 0.103262933091351D+04 -.442264845458141D+02 0.269724224914512D+02 0.103132916256283D+04
 0.174167807063400D+04 0.000000000000000D+00 0.000000000000000D+00 0.174167807063400D+04
 0.145804821978697D+04 0.000000000000000D+00 0.000000000000000D+00 -.145804821978697D+04
 0.686177202746113D+03 -.426223516698071D+03 -.520601611028351D+03 -.502158339241188D+02
 0.119703905980433D+04 0.469888542113056D+03 0.499523678173081D+03 -.981113328638708D+03
 0.283777985392723D+03 0.869333706790625D+00 -.912671687695589D+01 0.283629850847026D+03
 0.103273204247780D+04 -.445343591217755D+02 0.302046497322259D+02 0.103132916256283D+04
0.340138102918D-03 0.000000000000D+00 0.000000000000D+00 0.114143823652D-03 0.000000000000D+00  6 -2 2 25 1 -1 21 0 0.10409877D+00 0.48330695D+00 0.50478933D+06 0.50478933D+06 0.50478933D+06 0.10682179D+01  1  2  2  1  6  1       -2 0.453406763230D-04 0.100000000000D+01
0.187043100036D-03 0.000000000000D+00 -.130621987562D-05 0.114143823652D-03 0.000000000000D+00  6 -2 2 25 1 -1 21 2 0.10409877D+00 0.48330695D+00 0.50478933D+06 0.50478933D+06 0.50478933D+06 0.10682179D+01  1  2  3  1  6  1       -2 0.284507758892D-04 0.100000000000D+01
-.236766653650D-03 0.000000000000D+00 0.000000000000D+00 0.114143823652D-03 0.000000000000D+00  6 -2 2 25 1 -1 21 2 0.10409877D+00 0.48330695D+00 0.50478933D+06 0.50478933D+06 0.50478933D+06 0.10682179D+01  1  2 15  1  6  1       -2 -.360141325702D-04 0.100000000000D+01
0.615335983559D-08 0.000000000000D+00 0.000000000000D+00 0.114143823652D-03 0.000000000000D+00  6 -2 2 25 1 -1 21 2 0.12435828D+00 0.48330695D+00 0.51345433D+06 0.51345433D+06 0.51345433D+06 0.10676963D+01  1  2 12  1  6  1       -2 0.595533353874D-09 0.100000000000D+01
0.625493032537D+00 0.000000000000D+00 0.000000000000D+00 0.114143823652D-03 0.000000000000D+00  6 -2 2 25 1 -1 21 2 0.13107610D+00 0.48330695D+00 0.51345433D+06 0.51345433D+06 0.51345433D+06 0.10676963D+01  1  2 12  1  6  1       -2 0.527252685516D-01 0.100000000000D+01
-.313542853906D+00 0.000000000000D+00 0.000000000000D+00 0.114143823652D-03 0.000000000000D+00  6 -2 2 25 1 -1 21 2 0.10409877D+00 0.48330695D+00 0.50478933D+06 0.50478933D+06 0.50478933D+06 0.10682179D+01  1  2  4  1  6  1       -2 -.476924167020D-01 0.100000000000D+01
-.867026025173D+00 0.000000000000D+00 -.540170108209D-03 0.114143823652D-03 0.000000000000D+00  6 -2 2 25 1 -1 21 2 0.12435850D+00 0.48330695D+00 0.50478933D+06 0.50478933D+06 0.50478933D+06 0.10682179D+01  1  2  5  1  6  1       -2 -.841288158242D-01 0.100000000000D+01
0.853598271451D+00 0.000000000000D+00 0.531740336670D-03 0.114143823652D-03 0.000000000000D+00  6 -2 2 25 1 -1 21 2 0.10409877D+00 0.48330695D+00 0.50478933D+06 0.50478933D+06 0.50478933D+06 0.10682179D+01  1  2  6  1  6  1       -2 0.129839235533D+00 0.100000000000D+01
0.244621648168D-04 0.000000000000D+00 0.000000000000D+00 0.114143823652D-03 0.324416922630D-05  6 -2 2 25 1 -1 21 2 0.12435573D+00 0.48333389D+00 0.51345433D+06 0.51345433D+06 0.51345433D+06 0.10676963D+01  1  2 11  1  6  1       -2 0.236699209447D-05 0.100000000000D+01
0.160750888074D-09 0.000000000000D+00 0.000000000000D+00 0.114143823652D-03 0.000000000000D+00  6 21 2 25 1 2 -1 2 0.12435828D+00 0.48330695D+00 0.51345433D+06 0.51345433D+06 0.51345433D+06 0.10676963D+01  3  4 12  5  5  1       -2 0.135295364151D-09 0.100000000000D+01
0.199260085258D-01 0.000000000000D+00 0.000000000000D+00 0.114143823652D-03 0.000000000000D+00  6 21 2 25 1 2 -1 2 0.13107610D+00 0.48330695D+00 0.51345433D+06 0.51345433D+06 0.51345433D+06 0.10676963D+01  3  4 12  5  5  1       -2 0.144548611350D-01 0.100000000000D+01
-.226453686282D-01 0.000000000000D+00 -.141115614413D-04 0.114143823652D-03 0.000000000000D+00  6 21 2 25 1 2 -1 2 0.12435850D+00 0.48330695D+00 0.50478933D+06 0.50478933D+06 0.50478933D+06 0.10682179D+01  3  4  5  5  5  1       -2 -.191188474831D-01 0.100000000000D+01
0.160010235360D-05 0.000000000000D+00 0.000000000000D+00 0.114143823652D-03 0.188751404740D-06  6 21 2 25 1 2 -1 2 0.12435573D+00 0.48333389D+00 0.51345433D+06 0.51345433D+06 0.51345433D+06 0.10676963D+01  3  4 11  5  5  1       -2 0.134644057742D-05 0.100000000000D+01
  </mgrwgt>
  </event>
  <event>
  5     66 0.17652913E-05 0.11685738E+03 0.75467711E-02 0.92634041E-01
       -2 -1    0    0    0  501 0.00000000E+00 0.00000000E+00 0.30176878E+03 0.30176895E+03 0.32000000E+00 0.0000E+00 0.9000E+01
        2 -1    0    0  502    0 0.00000000E+00 0.00000000E+00 -.45680857E+04 0.45680857E+04 0.32000000E+00 0.0000E+00 0.9000E+01
       25  1    1    2    0    0 -.32189932E+03 -.49070943E+03 -.94681004E+03 0.11209323E+04 0.12500000E+03 0.0000E+00 0.9000E+01
        1  1    1    2  502    0 0.24228781E+03 0.40514646E+03 -.35012030E+04 0.35328840E+04 0.32000000E+00 0.0000E+00 0.9000E+01
       -1  1    1    2    0  501 0.79611510E+02 0.85562974E+02 0.18169608E+03 0.21603838E+03 0.32000000E+00 0.0000E+00 0.9000E+01
#aMCatNLO 1  0  0  1  5 0.56168476D+01 0.00000000D+00  -5  6  0 0.00000000D+00 0.00000000D+00 0.00000000D+00 0.00000000D+00 0.00000000D+00
  <mgrwgt>
 0.6471419648D-02   13    4    0
 0.117409798505135D+04 0.000000000000000D+00 0.000000000000000D+00 0.117409798505135D+04
 0.117409798505135D+04 0.000000000000000D+00 0.000000000000000D+00 -.117409798505135D+04
 0.604517119012789D+03 -.321922382633060D+03 -.490752071747460D+03 0.731049301685779D+02
 0.965624909065357D+03 0.242320689550151D+03 0.405199647924540D+03 -.842333303238835D+03
 0.778053942024559D+03 0.796016930829094D+02 0.855524238229198D+02 0.769228373070257D+03
 0.000000000000000D+00 -.000000000000000D+00 -.000000000000000D+00 0.000000000000000D+00
 0.159102302764282D+04 0.000000000000000D+00 0.000000000000000D+00 0.159102302764282D+04
 0.117412026170660D+04 0.000000000000000D+00 0.000000000000000D+00 -.117412026170660D+04
 0.603637990423091D+03 -.320484330446925D+03 -.490611135834747D+03 0.731049301685779D+02
 0.966299071332470D+03 0.244620234932825D+03 0.405425014243270D+03 -.842333303238835D+03
 0.778265626042732D+03 0.814541611474023D+02 0.857339744508854D+02 0.769228373070257D+03
 0.416940601551127D+03 -.559006563330228D+01 -.547852859408244D+00 0.416902765936226D+03
 0.117409798505135D+04 0.000000000000000D+00 0.000000000000000D+00 0.117409798505135D+04
 0.117409798505135D+04 0.000000000000000D+00 0.000000000000000D+00 -.117409798505135D+04
 0.604517119012789D+03 -.321922382633060D+03 -.490752071747460D+03 0.731049301685779D+02
 0.965624909065357D+03 0.242320689550151D+03 0.405199647924540D+03 -.842333303238835D+03
 0.000000000000000D+00 -.000000000000000D+00 -.000000000000000D+00 0.000000000000000D+00
 0.778053942024559D+03 0.796016930829094D+02 0.855524238229198D+02 0.769228373070257D+03
 0.159102302764282D+04 0.000000000000000D+00 0.000000000000000D+00 0.159102302764282D+04
 0.117412026170660D+04 0.000000000000000D+00 0.000000000000000D+00 -.117412026170660D+04
 0.603637990423091D+03 -.320484330446925D+03 -.490611135834747D+03 0.731049301685779D+02
 0.966299071332470D+03 0.244620234932825D+03 0.405425014243270D+03 -.842333303238835D+03
 0.416940601551127D+03 -.559006563330228D+01 -.547852859408244D+00 0.416902765936226D+03
 0.778265626042732D+03 0.814541611474023D+02 0.857339744508854D+02 0.769228373070257D+03
0.114419716955D-03 0.000000000000D+00 0.000000000000D+00 0.299096086986D-04 0.000000000000D+00  6 -2 2 25 1 -1 21 0 0.46425980D-01 0.70278243D+00 0.35347019D+06 0.35347019D+06 0.35347019D+06 0.10793209D+01  1  2  2  1  6  1       -2 0.650108818845D-05 0.100000000000D+01
0.252933885696D-04 0.000000000000D+00 -.439401840512D-06 0.299096086986D-04 0.000000000000D+00  6 -2 2 25 1 -1 21 2 0.46425980D-01 0.70278243D+00 0.35347019D+06 0.35347019D+06 0.35347019D+06 0.10793209D+01  1  2  3  1  6  1       -2 0.167414605689D-05 0.100000000000D+01
-.727592686575D-04 0.000000000000D+00 0.000000000000D+00 0.299096086986D-04 0.000000000000D+00  6 -2 2 25 1 -1 21 2 0.46425980D-01 0.70278243D+00 0.35347019D+06 0.35347019D+06 0.35347019D+06 0.10793209D+01  1  2 15  1  6  1       -2 -.481586887381D-05 0.100000000000D+01
0.480013774676D-07 0.000000000000D+00 0.000000000000D+00 0.299096086986D-04 0.000000000000D+00  6 -2 2 25 1 -1 21 2 0.62912284D-01 0.70278243D+00 0.35794908D+06 0.35794908D+06 0.35794908D+06 0.10789225D+01  1  2 12  1  6  1       -2 0.171304328671D-08 0.100000000000D+01
0.648541688159D+00 0.000000000000D+00 0.000000000000D+00 0.299096086986D-04 0.000000000000D+00  6 -2 2 25 1 -1 21 2 0.63046343D-01 0.70278243D+00 0.35794908D+06 0.35794908D+06 0.35794908D+06 0.10789225D+01  1  2 12  1  6  1       -2 0.230412086668D-01 0.100000000000D+01
-.823929080475D+00 0.000000000000D+00 0.000000000000D+00 0.299096086986D-04 0.000000000000D+00  6 -2 2 25 1 -1 21 2 0.46425980D-01 0.70278243D+00 0.35347019D+06 0.35347019D+06 0.35347019D+06 0.10793209D+01  1  2  4  1  6  1       -2 -.545351057823D-01 0.100000000000D+01
-.100737119337D+01 0.000000000000D+00 -.123867760150D-03 0.299096086986D-04 0.000000000000D+00  6 -2 2 25 1 -1 21 2 0.62912433D-01 0.70278243D+00 0.35347019D+06 0.35347019D+06 0.35347019D+06 0.10793209D+01  1  2  5  1  6  1       -2 -.360284152479D-01 0.100000000000D+01
0.962624076916D+00 0.000000000000D+00 0.118360522865D-03 0.299096086986D-04 0.000000000000D+00  6 -2 2 25 1 -1 21 2 0.46425980D-01 0.70278243D+00 0.35347019D+06 0.35347019D+06 0.35347019D+06 0.10793209D+01  1  2  6  1  6  1       -2 0.637151996540D-01 0.100000000000D+01
0.296138202425D+00 0.000000000000D+00 0.000000000000D+00 0.299096086986D-04 0.518217766518D-05  6 -2 2 25 1 -1 21 2 0.62911958D-01 0.70279577D+00 0.35794908D+06 0.35794908D+06 0.35794908D+06 0.10789225D+01  1  2 11  1  6  1       -2 0.105663399146D-01 0.100000000000D+01
0.187281711037D-08 0.000000000000D+00 0.000000000000D+00 0.299096086986D-04 0.000000000000D+00  6 21 2 25 1 2 -1 2 0.62912284D-01 0.70278243D+00 0.35794908D+06 0.35794908D+06 0.35794908D+06 0.10789225D+01  3  4 12  5  5  1       -2 0.665091588480D-09 0.100000000000D+01
0.254312550494D-01 0.000000000000D+00 0.000000000000D+00 0.299096086986D-04 0.000000000000D+00  6 21 2 25 1 2 -1 2 0.63046343D-01 0.70278243D+00 0.35794908D+06 0.35794908D+06 0.35794908D+06 0.10789225D+01  3  4 12  5  5  1       -2 0.898747039045D-02 0.100000000000D+01
-.393008842132D-01 0.000000000000D+00 -.483283964128D-05 0.299096086986D-04 0.000000000000D+00  6 21 2 25 1 2 -1 2 0.62912433D-01 0.70278243D+00 0.35347019D+06 0.35347019D+06 0.35347019D+06 0.10793209D+01  3  4  5  5  5  1       -2 -.139921764396D-01 0.100000000000D+01
0.132753167734D-01 0.000000000000D+00 0.000000000000D+00 0.299096086986D-04 0.231985582296D-06  6 21 2 25 1 2 -1 2 0.62911958D-01 0.70279577D+00 0.35794908D+06 0.35794908D+06 0.35794908D+06 0.10789225D+01  3  4 11  5  5  1       -2 0.471353674881D-02 0.100000000000D+01
  </mgrwgt>
  </event>
  <event>
  6     66 0.17652913E-05 0.83419019E+02 0.75467711E-02 0.94403987E-01
       21 -1    0    0  503  501 0.00000000E+00 0.00000000E+00 0.27742355E+03 0.27742456E+03 0.75000000E+00 0.0000E+00 0.9000E+01
        2 -1    0    0  502    0 0.00000000E+00 0.00000000E+00 -.12469973E+04 0.12469973E+04 0.32000000E+00 0.0000E+00 0.9000E+01
       25  1    1    2    0    0 -.44348589E+03 0.89248516E+02 -.66047052E+03 0.81024153E+03 0.12500000E+03 0.0000E+00 0.9000E+01
        1  1    1    2  502    0 -.10464841E+02 -.94142646E+02 -.19193638E+03 0.21403745E+03 0.32000000E+00 0.0000E+00 0.9000E+01
        2  1    1    2  503    0 0.21011169E+02 -.83077234E+01 0.34478372E+02 0.41223149E+02 0.32000000E+00 0.0000E+00 0.9000E+01
       -1  1    1    2    0  501 0.43293957E+03 0.13201854E+02 -.15164517E+03 0.45891973E+03 0.32000000E+00 0.0000E+00 0.9000E+01
#aMCatNLO 2  0  0  1  5 0.42691427D+03 0.00000000D+00  -5  6  0 0.00000000D+00 0.00000000D+00 0.00000000D+00 0.00000000D+00 0.00000000D+00
  <mgrwgt>
 0.1398776318D-03    1    2    0
 0.545721393521063D+03 0.000000000000000D+00 0.000000000000000D+00 0.545721393521063D+03
 0.545721393521063D+03 0.000000000000000D+00 0.000000000000000D+00 -.545721393521063D+03
 0.484265022298321D+03 -.434079286117895D+03 0.855211545605933D+02 -.152147682557425D+03
 0.114799221825901D+03 -.826313547336565D+01 -.950074704164708D+02 -.639074525313332D+02
 0.000000000000000D+00 0.000000000000000D+00 -.000000000000000D+00 0.000000000000000D+00
 0.492378542917905D+03 0.442342421591260D+03 0.948631585587747D+01 0.216055135088758D+03
 0.632076271600601D+03 0.000000000000000D+00 0.000000000000000D+00 0.632076271600601D+03
 0.547318190936811D+03 0.000000000000000D+00 0.000000000000000D+00 -.547318190936811D+03
 0.493376115425927D+03 -.443488475061986D+03 0.892415063318460D+02 -.152147682557425D+03
 0.114259721542806D+03 -.104676855831401D+02 -.941358010351406D+02 -.639074525313332D+02
 0.877178415227947D+02 0.210111688279954D+02 -.830772339994439D+01 0.847580806637905D+02
 0.484040784045885D+03 0.432944991817130D+03 0.132020181032390D+02 0.216055135088758D+03
0.931828474713D-06 0.000000000000D+00 0.000000000000D+00 0.501264471811D-07 0.141638251442D-10  6 21 2 25 1 2 -1 2 0.42680605D-01 0.19184571D+00 0.25999121D+06 0.25999121D+06 0.25999121D+06 0.10891811D+01  1  2  1  5  5  1       -2 0.139877631766D-03 0.100000000000D+01
  </mgrwgt>
  </event>
  <event>
  6     66 0.17652913E-05 0.43367641E+02 0.75467711E-02 0.92098205E-01
       21 -1    0    0  503  501 0.00000000E+00 0.00000000E+00 0.18075940E+03 0.18076096E+03 0.75000000E+00 0.0000E+00 0.9000E+01
        2 -1    0    0  502    0 0.00000000E+00 0.00000000E+00 -.42240604E+04 0.42240604E+04 0.32000000E+00 0.0000E+00 0.9000E+01
       25  1    1    2    0    0 0.54017521E+03 -.16692164E+02 -.20609462E+04 0.21342896E+04 0.12500000E+03 0.0000E+00 0.9000E+01
        1  1    1    2  502    0 0.45608806E+02 -.35498453E+02 -.13185975E+04 0.13198636E+04 0.32000000E+00 0.0000E+00 0.9000E+01
        2  1    1    2  503    0 0.28485749E+02 0.45628216E+01 0.16207122E+02 0.33091245E+02 0.32000000E+00 0.0000E+00 0.9000E+01
       -1  1    1    2    0  501 -.61426977E+03 0.47627795E+02 -.67996435E+03 0.91757690E+03 0.32000000E+00 0.0000E+00 0.9000E+01
#aMCatNLO 2  0  0  1  5 0.28848869D+02 0.00000000D+00  -5  6  0 0.00000000D+00 0.00000000D+00 0.00000000D+00 0.00000000D+00 0.00000000D+00
  <mgrwgt>
 0.1496181414D-03    3    2    0
 0.811108167258381D+03 0.000000000000000D+00 0.000000000000000D+00 0.811108167258381D+03
 0.811108167258381D+03 0.000000000000000D+00 0.000000000000000D+00 -.811108167258381D+03
 0.603769231165604D+03 0.550699405871103D+03 -.150099493232546D+02 -.213112998892212D+03
 0.257879331068584D+03 0.501277526221171D+02 -.347720652171013D+02 -.250559097400142D+03
 0.000000000000000D+00 0.000000000000000D+00 0.000000000000000D+00 0.000000000000000D+00
 0.760567772282575D+03 -.600827158493220D+03 0.497820145403559D+02 0.463672096292354D+03
 0.939326553300624D+03 0.000000000000000D+00 0.000000000000000D+00 0.939326553300624D+03
 0.812860775000490D+03 0.000000000000000D+00 0.000000000000000D+00 -.812860775000490D+03
 0.594236759188950D+03 0.540181881196445D+03 -.166946369120143D+02 -.213112998892212D+03
 0.257137677669742D+03 0.456063193898253D+02 -.354963043023874D+02 -.250559097400142D+03
 0.129714495483709D+03 0.284857493650196D+02 0.456282156650417D+01 0.126465778300135D+03
 0.771098395958713D+03 -.614273949951290D+03 0.476281196478975D+02 0.463672096292354D+03
-.149333745284D-08 0.000000000000D+00 0.000000000000D+00 0.256283525404D-05 0.000000000000D+00  6 21 2 25 1 2 -1 2 0.27832674D-01 0.64845425D+00 0.39530509D+06 0.39530509D+06 0.39530509D+06 0.10757975D+01  1  2 13  5  5  1       -2 -.632831423214D-08 0.100000000000D+01
-.237251052582D-03 0.000000000000D+00 0.000000000000D+00 0.256283525404D-05 0.000000000000D+00  6 21 2 25 1 2 -1 2 0.27956181D-01 0.64845425D+00 0.39530509D+06 0.39530509D+06 0.39530509D+06 0.10757975D+01  1  2 13  5  5  1       -2 -.996689847315D-03 0.100000000000D+01
0.275157626217D-03 0.000000000000D+00 0.000000000000D+00 0.256283525404D-05 0.492621319575D-09  6 21 2 25 1 2 -1 2 0.27809253D-01 0.64985541D+00 0.39530509D+06 0.39530509D+06 0.39530509D+06 0.10757975D+01  1  2  1  5  5  1       -2 0.114631431701D-02 0.100000000000D+01
  </mgrwgt>
  </event>
  <event>
  5     66 0.17652913E-05 0.25113072E+03 0.75467711E-02 0.93175607E-01
       -2 -1    0    0    0  501 0.00000000E+00 0.00000000E+00 0.35115582E+03 0.35115597E+03 0.32000000E+00 0.0000E+00 0.9000E+01
        2 -1    0    0  502    0 -.00000000E+00 -.00000000E+00 -.37407027E+04 0.37407027E+04 0.32000000E+00 0.0000E+00 0.9000E+01
       25  1    1    2    0    0 -.21850253E+03 -.45981219E+03 -.58708125E+03 0.78705781E+03 0.12500000E+03 0.0000E+00 0.9000E+01
        1  1    1    2  502    0 0.21982526E+03 0.20866046E+03 -.29811824E+04 0.29965498E+04 0.32000000E+00 0.0000E+00 0.9000E+01
       -1  1    1    2    0  501 -.13227358E+01 0.25115173E+03 0.17871675E+03 0.30825106E+03 0.32000000E+00 0.0000E+00 0.9000E+01
#aMCatNLO 1  0  0  5  4 0.96726580D+02 0.00000000D+00  -5  6  0 0.00000000D+00 0.00000000D+00 0.00000000D+00 0.00000000D+00 0.00000000D+00
  <mgrwgt>
 0.1553989363D-03    7    2    0
 0.114611075509286D+04 0.000000000000000D+00 0.000000000000000D+00 0.114611075509286D+04
 0.114611075509286D+04 -.000000000000000D+00 -.000000000000000D+00 -.114611075509286D+04
 0.536892789438995D+03 -.218529535957496D+03 -.459817145187509D+03 0.115939217943695D+03
 0.940875855246580D+03 0.219852142779688D+03 0.208689908583194D+03 -.890708107270110D+03
 0.814452865500154D+03 -.132260682219186D+01 0.251127236604315D+03 0.774768889326415D+03
 0.000000000000000D+00 0.000000000000000D+00 0.000000000000000D+00 0.000000000000000D+00
 0.114611075509286D+04 0.000000000000000D+00 0.000000000000000D+00 0.114611075509286D+04
 0.114611075509286D+04 -.000000000000000D+00 -.000000000000000D+00 -.114611075509286D+04
 0.536555619301232D+03 -.218540072917842D+03 -.457816461621154D+03 0.122111656288330D+03
 0.931474533107252D+03 0.219833763804383D+03 0.212179578530942D+03 -.879941900680609D+03
 0.572294161833419D+03 0.535989289286378D+02 0.249956810229235D+03 0.512024760637944D+03
 0.251897195943827D+03 -.548926198151781D+02 -.431992713902325D+01 0.245805483754335D+03
0.135455923410D-02 0.000000000000D+00 0.000000000000D+00 0.137146818143D-04 0.000000000000D+00  6 -2 2 25 1 -1 21 0 0.54023985D-01 0.57549274D+00 0.29078172D+06 0.29078172D+06 0.29078172D+06 0.10855561D+01  1  2  2  4  6  5       -1 0.308901753314D-03 0.100000000000D+01
0.133633096724D-03 0.000000000000D+00 -.520186412258D-05 0.137146818143D-04 0.000000000000D+00  6 -2 2 25 1 -1 21 2 0.54023985D-01 0.57549274D+00 0.29078172D+06 0.29078172D+06 0.29078172D+06 0.10855561D+01  1  2  3  4  6  5       -1 0.359121113967D-04 0.100000000000D+01
-.929953431212D-03 0.000000000000D+00 0.000000000000D+00 0.137146818143D-04 0.000000000000D+00  6 -2 2 25 1 -1 21 2 0.54023985D-01 0.57549274D+00 0.29078172D+06 0.29078172D+06 0.29078172D+06 0.10855561D+01  1  2 15  4  6  5       -1 -.249912574312D-03 0.100000000000D+01
0.936705996956D-09 0.000000000000D+00 0.000000000000D+00 0.137146818143D-04 0.000000000000D+00  6 -2 2 25 1 -1 21 2 0.54023985D-01 0.57549274D+00 0.32416186D+06 0.32416186D+06 0.32416186D+06 0.10820717D+01  1  2 12  4  6  5       -1 0.247636529944D-09 0.100000000000D+01
-.175595678484D-02 0.000000000000D+00 0.000000000000D+00 0.137146818143D-04 0.000000000000D+00  6 -2 2 25 1 -1 21 2 0.54023985D-01 0.57549274D+00 0.29078172D+06 0.29078172D+06 0.29078172D+06 0.10855561D+01  1  2  4  4  6  5       -1 -.471889952497D-03 0.100000000000D+01
-.559602097349D-02 0.000000000000D+00 0.000000000000D+00 0.137146818143D-04 0.000000000000D+00  6 -2 2 25 1 -1 21 2 0.54023985D-01 0.57549274D+00 0.29078172D+06 0.29078172D+06 0.29078172D+06 0.10855561D+01  1  2  5  4  6  5       -1 -.150385595714D-02 0.100000000000D+01
0.757709553491D-02 0.000000000000D+00 -.000000000000D+00 0.137146818143D-04 0.000000000000D+00  6 -2 2 25 1 -1 21 2 0.54023985D-01 0.57549274D+00 0.29078172D+06 0.29078172D+06 0.29078172D+06 0.10855561D+01  1  2  6  4  6  5       -1 0.203624330787D-02 0.100000000000D+01
  </mgrwgt>
  </event>
  <event>
  6     66 -.17652913E-05 0.21426792E+03 0.75467711E-02 0.94992705E-01
       -2 -1    0    0    0  503 0.00000000E+00 0.00000000E+00 0.27471161E+03 0.27471180E+03 0.32000000E+00 0.0000E+00 0.9000E+01
        2 -1    0    0  502    0 0.00000000E+00 0.00000000E+00 -.29483247E+04 0.29483247E+04 0.32000000E+00 0.0000E+00 0.9000E+01
       25  1    1    2    0    0 0.20604253E+03 0.42161476E+03 -.96150750E+03 0.10771881E+04 0.12500000E+03 0.0000E+00 0.9000E+01
        1  1    1    2  502    0 -.45619562E+02 -.21352039E+03 -.18392443E+04 0.18521586E+04 0.32000000E+00 0.0000E+00 0.9000E+01
       -1  1    1    2    0  501 -.14638631E+03 -.20067768E+03 0.11518630E+03 0.27380371E+03 0.32000000E+00 0.0000E+00 0.9000E+01
       21  1    1    2  501  503 -.14036653E+02 -.74166878E+01 0.11952353E+02 0.19886079E+02 0.75000000E+00 0.0000E+00 0.9000E+01
#aMCatNLO 2  0  0  1  5 0.15875607D+02 0.00000000D+00  -5  6  0 0.00000000D+00 0.00000000D+00 0.00000000D+00 0.00000000D+00 0.00000000D+00
  <mgrwgt>
 -.1523351288D-02    6    2    0
 0.872877278607777D+03 0.000000000000000D+00 0.000000000000000D+00 0.872877278607777D+03
 0.872877278607777D+03 0.000000000000000D+00 0.000000000000000D+00 -.872877278607777D+03
 0.493871535092191D+03 0.202056832632299D+03 0.419528692396716D+03 -.107017782713069D+03
 0.570327210755558D+03 -.502097960388216D+02 -.215974864959116D+03 -.525458810389403D+03
 0.681555811367805D+03 -.151847036593478D+03 -.203553827437599D+03 0.632476593102472D+03
 0.000000000000000D+00 -.000000000000000D+00 -.000000000000000D+00 0.000000000000000D+00
 0.926606557561714D+03 0.000000000000000D+00 0.000000000000000D+00 0.926606557561714D+03
 0.874086866033872D+03 0.000000000000000D+00 0.000000000000000D+00 -.874086866033872D+03
 0.497298915155596D+03 0.206041478666751D+03 0.421634099981168D+03 -.107017782713069D+03
 0.569029532717058D+03 -.456294200514536D+02 -.213554685535381D+03 -.525458810389403D+03
 0.679498292935492D+03 -.146375405717042D+03 -.200662726685621D+03 0.632476593102472D+03
 0.548666827874404D+02 -.140366528982546D+02 -.741668776016522D+01 0.525196915278427D+02
-.651423118668D-08 0.000000000000D+00 0.000000000000D+00 0.902322953277D-05 0.000000000000D+00  6 -2 2 25 1 -1 21 2 0.42289860D-01 0.45295942D+00 0.23438929D+06 0.23438929D+06 0.23438929D+06 0.10925720D+01  1  2 13  1  6  1       -2 -.102350767206D-07 0.100000000000D+01
-.499318507344D-02 0.000000000000D+00 0.000000000000D+00 0.902322953277D-05 0.000000000000D+00  6 -2 2 25 1 -1 21 2 0.43248921D-01 0.45295942D+00 0.23438929D+06 0.23438929D+06 0.23438929D+06 0.10925720D+01  1  2 13  1  6  1       -2 -.751688185951D-02 0.100000000000D+01
-.178925139198D-02 0.000000000000D+00 0.000000000000D+00 0.902322953277D-05 0.000000000000D+00  6 -2 2 25 1 -1 21 2 0.39812584D-01 0.45295942D+00 0.22935660D+06 0.22935660D+06 0.22935660D+06 0.10932861D+01  1  2  8  1  6  1       -2 -.315964578191D-02 0.100000000000D+01
-.195663907927D-02 0.000000000000D+00 0.000000000000D+00 0.902322953277D-05 0.000000000000D+00  6 -2 2 25 1 -1 21 2 0.42294525D-01 0.45295942D+00 0.22935660D+06 0.22935660D+06 0.22935660D+06 0.10932861D+01  1  2  9  1  6  1       -2 -.308229366669D-02 0.100000000000D+01
0.195306663561D-02 0.000000000000D+00 0.000000000000D+00 0.902322953277D-05 0.000000000000D+00  6 -2 2 25 1 -1 21 2 0.39812584D-01 0.45295942D+00 0.22935660D+06 0.22935660D+06 0.22935660D+06 0.10932861D+01  1  2 10  1  6  1       -2 0.344892773852D-02 0.100000000000D+01
0.561842299109D-02 0.000000000000D+00 0.000000000000D+00 0.902322953277D-05 0.116095933418D-05  6 -2 2 25 1 -1 21 2 0.42263217D-01 0.45358710D+00 0.23438929D+06 0.23438929D+06 0.23438929D+06 0.10925720D+01  1  2  1  1  6  1       -2 0.878655251689D-02 0.100000000000D+01
  </mgrwgt>
  </event>
  <event>
  5     66 0.17652913E-05 0.80905217E+02 0.75467711E-02 0.93672027E-01
       -2 -1    0    0    0  501 0.00000000E+00 0.00000000E+00 0.16070815E+04 0.16070816E+04 0.32000000E+00 0.0000E+00 0.9000E+01
        2 -1    0    0  502    0 0.00000000E+00 0.00000000E+00 -.10834572E+04 0.10834573E+04 0.32000000E+00 0.0000E+00 0.9000E+01
       25  1    1    2    0    0 -.50482557E+03 -.84642398E+02 -.31708562E+03 0.61496462E+03 0.12500000E+03 0.0000E+00 0.9000E+01
        1  1    1    2  502    0 0.45137099E+03 0.14537671E+03 -.52500738E+03 0.70746238E+03 0.32000000E+00 0.0000E+00 0.9000E+01
       -1  1    1    2    0  501 0.53454580E+02 -.60734313E+02 0.13657173E+04 0.13681118E+04 0.32000000E+00 0.0000E+00 0.9000E+01
#aMCatNLO 1  0  0  1  5 0.46630614D+01 0.00000000D+00  -5  6  0 0.00000000D+00 0.00000000D+00 0.00000000D+00 0.00000000D+00 0.00000000D+00
  <mgrwgt>
 0.4897915424D-01   13    4    0
 0.131954695857657D+04 0.000000000000000D+00 0.000000000000000D+00 0.131954695857657D+04
 0.131954695857657D+04 0.000000000000000D+00 0.000000000000000D+00 -.131954695857657D+04
 0.689878793055996D+03 -.504866673911145D+03 -.846545216336445D+02 -.445253863149187D+03
 0.825440934221638D+03 0.451413705423484D+03 0.145387003109519D+03 -.675604190167115D+03
 0.112377418987551D+04 0.534529684876605D+02 -.607324814758742D+02 0.112085805331630D+04
 0.000000000000000D+00 -.000000000000000D+00 0.000000000000000D+00 0.000000000000000D+00
 0.154204788745124D+04 0.000000000000000D+00 0.000000000000000D+00 0.154204788745124D+04
 0.131957345013067D+04 0.000000000000000D+00 0.000000000000000D+00 -.131957345013067D+04
 0.689119419925084D+03 -.503747440296687D+03 -.851357073333268D+02 -.445253863149187D+03
 0.826073520992789D+03 0.452754120861037D+03 0.144810725975011D+03 -.675604190167115D+03
 0.112390509585468D+04 0.552772480171245D+02 -.615167835290491D+02 0.112085805331630D+04
 0.222523300809358D+03 -.428392858147465D+01 0.184176488736470D+01 0.222474437320562D+03
 0.131954695857657D+04 0.000000000000000D+00 0.000000000000000D+00 0.131954695857657D+04
 0.131954695857657D+04 0.000000000000000D+00 0.000000000000000D+00 -.131954695857657D+04
 0.689878793055996D+03 -.504866673911145D+03 -.846545216336445D+02 -.445253863149187D+03
 0.825440934221638D+03 0.451413705423484D+03 0.145387003109519D+03 -.675604190167115D+03
 0.000000000000000D+00 -.000000000000000D+00 0.000000000000000D+00 0.000000000000000D+00
 0.112377418987551D+04 0.534529684876605D+02 -.607324814758742D+02 0.112085805331630D+04
 0.154204788745124D+04 0.000000000000000D+00 0.000000000000000D+00 0.154204788745124D+04
 0.131957345013067D+04 0.000000000000000D+00 0.000000000000000D+00 -.131957345013067D+04
 0.689119419925084D+03 -.503747440296687D+03 -.851357073333268D+02 -.445253863149187D+03
 0.826073520992789D+03 0.452754120861037D+03 0.144810725975011D+03 -.675604190167115D+03
 0.222523300809358D+03 -.428392858147465D+01 0.184176488736470D+01 0.222474437320562D+03
 0.112390509585468D+04 0.552772480171245D+02 -.615167835290491D+02 0.112085805331630D+04
0.185381960845D-03 0.000000000000D+00 0.000000000000D+00 0.909624665681D-04 0.000000000000D+00  6 -2 2 25 1 -1 21 0 0.24724332D+00 0.16668573D+00 0.29273995D+06 0.29273995D+06 0.29273995D+06 0.10853399D+01  1  2  2  1  6  1       -2 0.322643825686D-04 0.100000000000D+01
0.626007659098D-04 0.000000000000D+00 -.711915541837D-06 0.909624665681D-04 0.000000000000D+00  6 -2 2 25 1 -1 21 2 0.24724332D+00 0.16668573D+00 0.29273995D+06 0.29273995D+06 0.29273995D+06 0.10853399D+01  1  2  3  1  6  1       -2 0.128341484627D-04 0.100000000000D+01
-.140706581723D-03 0.000000000000D+00 0.000000000000D+00 0.909624665681D-04 0.000000000000D+00  6 -2 2 25 1 -1 21 2 0.24724332D+00 0.16668573D+00 0.29273995D+06 0.29273995D+06 0.29273995D+06 0.10853399D+01  1  2 15  1  6  1       -2 -.288470777196D-04 0.100000000000D+01
0.436518564393D-08 0.000000000000D+00 0.000000000000D+00 0.909624665681D-04 0.000000000000D+00  6 -2 2 25 1 -1 21 2 0.28893551D+00 0.16668573D+00 0.29630389D+06 0.29630389D+06 0.29630389D+06 0.10849504D+01  1  2 12  1  6  1       -2 0.482336249494D-09 0.100000000000D+01
0.275188951986D+00 0.000000000000D+00 0.000000000000D+00 0.909624665681D-04 0.000000000000D+00  6 -2 2 25 1 -1 21 2 0.29133360D+00 0.16668573D+00 0.29630389D+06 0.29630389D+06 0.29630389D+06 0.10849504D+01  1  2 12  1  6  1       -2 0.293480722731D-01 0.100000000000D+01
-.631324664427D+00 0.000000000000D+00 0.000000000000D+00 0.909624665681D-04 0.000000000000D+00  6 -2 2 25 1 -1 21 2 0.24724332D+00 0.16668573D+00 0.29273995D+06 0.29273995D+06 0.29273995D+06 0.10853399D+01  1  2  4  1  6  1       -2 -.129431554928D+00 0.100000000000D+01
-.108476790892D+01 0.000000000000D+00 -.278269276283D-03 0.909624665681D-04 0.000000000000D+00  6 -2 2 25 1 -1 21 2 0.28893519D+00 0.16668573D+00 0.29273995D+06 0.29273995D+06 0.29273995D+06 0.10853399D+01  1  2  5  1  6  1       -2 -.120069159850D+00 0.100000000000D+01
0.107177539938D+01 0.000000000000D+00 0.274924544960D-03 0.909624665681D-04 0.000000000000D+00  6 -2 2 25 1 -1 21 2 0.24724332D+00 0.16668573D+00 0.29273995D+06 0.29273995D+06 0.29273995D+06 0.10853399D+01  1  2  6  1  6  1       -2 0.219730931314D+00 0.100000000000D+01
0.457719062126D+00 0.000000000000D+00 0.000000000000D+00 0.909624665681D-04 0.156541957416D-04  6 -2 2 25 1 -1 21 2 0.28893329D+00 0.16668908D+00 0.29630389D+06 0.29630389D+06 0.29630389D+06 0.10849504D+01  1  2 11  1  6  1       -2 0.505763386842D-01 0.100000000000D+01
0.102684916027D-09 0.000000000000D+00 0.000000000000D+00 0.909624665681D-04 0.000000000000D+00  6 21 2 25 1 2 -1 2 0.28893551D+00 0.16668573D+00 0.29630389D+06 0.29630389D+06 0.29630389D+06 0.10849504D+01  3  4 12  5  5  1       -2 0.822576091933D-10 0.100000000000D+01
0.674672814710D-02 0.000000000000D+00 0.000000000000D+00 0.909624665681D-04 0.000000000000D+00  6 21 2 25 1 2 -1 2 0.29133360D+00 0.16668573D+00 0.29630389D+06 0.29630389D+06 0.29630389D+06 0.10849504D+01  3  4 12  5  5  1       -2 0.521000003408D-02 0.100000000000D+01
-.255154406861D-01 0.000000000000D+00 -.654585979902D-05 0.909624665681D-04 0.000000000000D+00  6 21 2 25 1 2 -1 2 0.28893519D+00 0.16668573D+00 0.29273995D+06 0.29273995D+06 0.29273995D+06 0.10853399D+01  3  4  5  5  5  1       -2 -.204846595263D-01 0.100000000000D+01
0.175801273225D-01 0.000000000000D+00 0.000000000000D+00 0.909624665681D-04 0.591607962746D-06  6 21 2 25 1 2 -1 2 0.28893329D+00 0.16668908D+00 0.29630389D+06 0.29630389D+06 0.29630389D+06 0.10849504D+01  3  4 11  5  5  1       -2 0.140829342197D-01 0.100000000000D+01
  </mgrwgt>
  </event>
  <event>
  5     66 0.17652913E-05 0.78004124E+02 0.75467711E-02 0.94231541E-01
       -2 -1    0    0    0  501 0.00000000E+00 0.00000000E+00 0.43455992E+03 0.43456004E+03 0.32000000E+00 0.0000E+00 0.9000E+01
        2 -1    0    0  502    0 0.00000000E+00 0.00000000E+00 -.24092209E+04 0.24092209E+04 0.32000000E+00 0.0000E+00 0.9000E+01
       25  1    1    2    0    0 -.43118940E+03 -.17913490E+03 -.70623658E+03 0.85580881E+03 0.12500000E+03 0.0000E+00 0.9000E+01
        1  1    1    2  502    0 0.19655315E+02 0.75479667E+02 -.15016816E+04 0.15037059E+04 0.32000000E+00 0.0000E+00 0.9000E+01
       -1  1    1    2    0  501 0.41153409E+03 0.10365523E+03 0.23325729E+03 0.48426622E+03 0.32000000E+00 0.0000E+00 0.9000E+01
#aMCatNLO 1  0  0  2  1 0.35270794D+02 0.00000000D+00  -5  6  0 0.00000000D+00 0.00000000D+00 0.00000000D+00 0.00000000D+00 0.00000000D+00
  <mgrwgt>
 0.1278377391D-01    9    2    0
 0.102320624262788D+04 0.000000000000000D+00 0.000000000000000D+00 0.102320624262788D+04
 0.102320624262788D+04 0.000000000000000D+00 0.000000000000000D+00 -.102320624262788D+04
 0.507769930092780D+03 -.431182274058772D+03 -.179139363656349D+03 -.155551396113089D+03
 0.640627920099821D+03 0.196577301754065D+02 0.754865356632762D+02 -.635861218025860D+03
 0.898014635063159D+03 0.411524543883365D+03 0.103652827993073D+03 0.791412614138949D+03
 0.000000000000000D+00 -.000000000000000D+00 -.000000000000000D+00 -.000000000000000D+00
 0.102414862868483D+04 0.000000000000000D+00 0.000000000000000D+00 0.102414862868483D+04
 0.141682878845161D+04 0.000000000000000D+00 0.000000000000000D+00 -.141682878845161D+04
 0.499817921428312D+03 -.423419226858627D+03 -.175250894647160D+03 -.155551396113089D+03
 0.641608673765191D+03 0.295368322158883D+02 0.804349252753237D+02 -.635861218025860D+03
 0.905289821099294D+03 0.425418258052593D+03 0.110612115445115D+03 0.791412614138949D+03
 0.394261000843644D+03 -.315358634098540D+02 -.157961460732782D+02 -.392680159766773D+03
0.196085804787D-03 0.000000000000D+00 0.000000000000D+00 0.854301229980D-04 0.000000000000D+00  6 -2 2 25 1 -1 21 0 0.66855383D-01 0.37064937D+00 0.24292025D+06 0.24292025D+06 0.24292025D+06 0.10913989D+01  1  2  2  2  6  2        2 0.213186684266D-03 0.100000000000D+01
0.514690217585D-04 0.000000000000D+00 -.753021120961D-06 0.854301229980D-04 0.000000000000D+00  6 -2 2 25 1 -1 21 2 0.66855383D-01 0.37064937D+00 0.24292025D+06 0.24292025D+06 0.24292025D+06 0.10913989D+01  1  2  3  2  6  2        2 0.666541027183D-04 0.100000000000D+01
-.126128237501D-03 0.000000000000D+00 0.000000000000D+00 0.854301229980D-04 0.000000000000D+00  6 -2 2 25 1 -1 21 2 0.66855383D-01 0.37064937D+00 0.24292025D+06 0.24292025D+06 0.24292025D+06 0.10913989D+01  1  2 15  2  6  2        2 -.163340281413D-03 0.100000000000D+01
0.969390106905D-09 0.000000000000D+00 0.000000000000D+00 0.854301229981D-04 0.000000000000D+00  6 -2 2 25 1 -1 21 2 0.66855383D-01 0.51335836D+00 0.26807392D+06 0.26807392D+06 0.26807392D+06 0.10881859D+01  1  2 12  2  6  2        2 0.330282855593D-09 0.100000000000D+01
-.603590117744D-02 0.000000000000D+00 0.000000000000D+00 0.854301229980D-04 0.000000000000D+00  6 -2 2 25 1 -1 21 2 0.66855383D-01 0.37064937D+00 0.24292025D+06 0.24292025D+06 0.24292025D+06 0.10913989D+01  1  2  4  2  6  2        2 -.781669367967D-02 0.100000000000D+01
-.231350352160D-01 0.000000000000D+00 -.128210270512D-03 0.854301229980D-04 0.000000000000D+00  6 -2 2 25 1 -1 21 2 0.66855383D-01 0.51333308D+00 0.24292025D+06 0.24292025D+06 0.24292025D+06 0.10913989D+01  1  2  5  2  6  2        2 -.799999657387D-02 0.100000000000D+01
0.220059738909D-01 0.000000000000D+00 0.121699319824D-03 0.854301229980D-04 0.000000000000D+00  6 -2 2 25 1 -1 21 2 0.66855383D-01 0.37064937D+00 0.24292025D+06 0.24292025D+06 0.24292025D+06 0.10913989D+01  1  2  6  2  6  2        2 0.284984713916D-01 0.100000000000D+01
0.397617808363D-10 0.000000000000D+00 0.000000000000D+00 0.854301229981D-04 0.000000000000D+00  6 -2 21 25 1 -1 -2 2 0.66855383D-01 0.51335836D+00 0.26807392D+06 0.26807392D+06 0.26807392D+06 0.10881859D+01  1  2 12  6  6  2        2 0.597952205653D-12 0.100000000000D+01
-.945574861691D-03 0.000000000000D+00 -.525826857922D-05 0.854301229980D-04 0.000000000000D+00  6 -2 21 25 1 -1 -2 2 0.66855383D-01 0.51333308D+00 0.24292025D+06 0.24292025D+06 0.24292025D+06 0.10913989D+01  1  2  5  6  6  2        2 -.145080611186D-04 0.100000000000D+01
  </mgrwgt>
  </event>
  <event>
  6     66 0.17652913E-05 0.21755284E+03 0.75467711E-02 0.90145527E-01
       21 -1    0    0  503  501 0.00000000E+00 0.00000000E+00 0.22572559E+03 0.22572684E+03 0.75000000E+00 0.0000E+00 0.9000E+01
        2 -1    0    0  502    0 0.00000000E+00 0.00000000E+00 -.30795106E+04 0.30795106E+04 0.32000000E+00 0.0000E+00 0.9000E+01
       25  1    1    2    0    0 -.54226198E+03 -.21464039E+03 -.72310249E+03 0.93734773E+03 0.12500000E+03 0.0000E+00 0.9000E+01
        1  1    1    2  502    0 0.66232783E+03 0.85810220E+00 -.19315799E+04 0.20419794E+04 0.32000000E+00 0.0000E+00 0.9000E+01
        2  1    1    2  503    0 -.24965038E+02 0.39627032E+01 -.77616644E+01 0.26444318E+02 0.32000000E+00 0.0000E+00 0.9000E+01
       -1  1    1    2    0  501 -.95100813E+02 0.20981958E+03 -.19134095E+03 0.29946600E+03 0.32000000E+00 0.0000E+00 0.9000E+01
#aMCatNLO 2  0  0  1  5 0.25277581D+02 0.00000000D+00  -5  6  0 0.00000000D+00 0.00000000D+00 0.00000000D+00 0.00000000D+00 0.00000000D+00
  <mgrwgt>
 0.5911333007D-01    3    2    0
 0.813940508798512D+03 0.000000000000000D+00 0.000000000000000D+00 0.813940508798512D+03
 0.813940508798512D+03 0.000000000000000D+00 0.000000000000000D+00 -.813940508798512D+03
 0.631687142142193D+03 -.552055288970624D+03 -.213020136010717D+03 0.182376054133503D+03
 0.725781953643404D+03 0.651215611624525D+03 0.270344720252317D+01 -.320422163378497D+03
 0.000000000000000D+00 -.000000000000000D+00 0.000000000000000D+00 0.000000000000000D+00
 0.270411921811427D+03 -.991603226539003D+02 0.210316688808194D+03 0.138046109244994D+03
 0.849179976151992D+03 0.000000000000000D+00 0.000000000000000D+00 0.849179976151992D+03
 0.818584244832503D+03 0.000000000000000D+00 0.000000000000000D+00 -.818584244832503D+03
 0.623815570620198D+03 -.542428730584041D+03 -.214548160709626D+03 0.182376054133503D+03
 0.735849850554015D+03 0.662422663397305D+03 0.924550610089591D+00 -.320422163378497D+03
 0.396869612780545D+02 -.249650376236780D+02 0.396270323891957D+01 0.305957313194897D+02
 0.268411838532227D+03 -.950288951895867D+02 0.209660906860617D+03 0.138046109244994D+03
-.464490419425D-08 0.000000000000D+00 0.000000000000D+00 0.631827460148D-08 0.000000000000D+00  6 21 2 25 1 2 -1 2 0.34819600D-01 0.47108293D+00 0.57339225D+06 0.57339225D+06 0.57339225D+06 0.10643318D+01  1  2 13  5  5  1       -2 -.868275590702D-07 0.100000000000D+01
-.194022682444D-05 0.000000000000D+00 0.000000000000D+00 0.631827460148D-08 0.000000000000D+00  6 21 2 25 1 2 -1 2 0.35877106D-01 0.47108293D+00 0.57339225D+06 0.57339225D+06 0.57339225D+06 0.10643318D+01  1  2 13  5  5  1       -2 -.341125624033D-04 0.100000000000D+01
0.323006746993D-02 0.000000000000D+00 0.000000000000D+00 0.631827460148D-08 0.686886698437D-09  6 21 2 25 1 2 -1 2 0.34727084D-01 0.47377058D+00 0.57339225D+06 0.57339225D+06 0.57339225D+06 0.10643318D+01  1  2  1  5  5  1       -2 0.591475294593D-01 0.100000000000D+01
  </mgrwgt>
  </event>
  <event>
  5     66 0.17652913E-05 0.62749572E+02 0.75467711E-02 0.93757014E-01
       -2 -1    0    0    0  501 0.00000000E+00 0.00000000E+00 0.17067269E+04 0.17067269E+04 0.32000000E+00 0.0000E+00 0.9000E+01
        2 -1    0    0  502    0 0.00000000E+00 0.00000000E+00 -.25821498E+04 0.25821498E+04 0.32000000E+00 0.0000E+00 0.9000E+01
       25  1    1    2    0    0 -.10563135E+03 0.48282274E+03 -.31421459E+03 0.59885857E+03 0.12500000E+03 0.0000E+00 0.9000E+01
        1  1    1    2  502    0 -.47842794E+02 -.40598091E+02 -.20901158E+04 0.20910575E+04 0.32000000E+00 0.0000E+00 0.9000E+01
       -1  1    1    2    0  501 0.15347414E+03 -.44222465E+03 0.15289075E+04 0.15989606E+04 0.32000000E+00 0.0000E+00 0.9000E+01
#aMCatNLO 1  0  0  2  2 0.86033299D+02 0.00000000D+00  -5  6  0 0.00000000D+00 0.00000000D+00 0.00000000D+00 0.00000000D+00 0.00000000D+00
  <mgrwgt>
 0.8366488282D-01    7    2    0
 0.209929144246189D+04 0.000000000000000D+00 0.000000000000000D+00 0.209929144246189D+04
 0.209929144246189D+04 0.000000000000000D+00 0.000000000000000D+00 -.209929144246189D+04
 0.546205376070873D+03 -.105628123095872D+03 0.482821729890575D+03 -.196064248667214D+03
 0.170025933143650D+04 -.478449748669384D+02 -.406000875755948D+02 -.169910102271929D+04
 0.195211817741640D+04 0.153473097962810D+03 -.442221642314981D+03 0.189516527138650D+04
 0.000000000000000D+00 -.000000000000000D+00 -.000000000000000D+00 -.000000000000000D+00
 0.212316529109778D+04 0.000000000000000D+00 0.000000000000000D+00 0.212316529109778D+04
 0.217869849418953D+04 0.000000000000000D+00 0.000000000000000D+00 -.217869849418953D+04
 0.552579798225070D+03 -.984707973252150D+02 0.491509660001872D+03 -.196064248667214D+03
 0.169935076769747D+04 -.257004123610705D+02 -.137198787432744D+02 -.169910102271929D+04
 0.194753368206998D+04 0.178874859292887D+03 -.411387678036829D+03 0.189516527138650D+04
 0.102399537294781D+03 -.547036496066018D+02 -.664021032217684D+02 -.555332030917443D+02
0.101260919068D+01 0.000000000000D+00 0.000000000000D+00 0.373952339588D-02 0.000000000000D+00  6 -2 2 25 1 -1 21 0 0.26257337D+00 0.39725382D+00 0.27073743D+06 0.27073743D+06 0.27073743D+06 0.10878651D+01  1  2  2  2  6  2        2 0.205170726754D-01 0.100000000000D+01
0.427434964177D+00 0.000000000000D+00 -.388868591833D-02 0.373952339588D-02 0.000000000000D+00  6 -2 2 25 1 -1 21 2 0.26257337D+00 0.39725382D+00 0.27073743D+06 0.27073743D+06 0.27073743D+06 0.10878651D+01  1  2  3  2  6  2        2 0.102492863379D-01 0.100000000000D+01
-.804983526479D+00 0.000000000000D+00 0.000000000000D+00 0.373952339588D-02 0.000000000000D+00  6 -2 2 25 1 -1 21 2 0.26257337D+00 0.39725382D+00 0.27073743D+06 0.27073743D+06 0.27073743D+06 0.10878651D+01  1  2 15  2  6  2        2 -.193023672644D-01 0.100000000000D+01
-.107979817005D-01 0.000000000000D+00 0.000000000000D+00 0.373952339588D-02 0.000000000000D+00  6 -2 2 25 1 -1 21 2 0.26257337D+00 0.39725382D+00 0.27073743D+06 0.27073743D+06 0.27073743D+06 0.10878651D+01  1  2  4  2  6  2        2 -.258920340159D-03 0.100000000000D+01
-.210909863592D+02 0.000000000000D+00 -.417618284815D+01 0.373952339588D-02 0.000000000000D+00  6 -2 2 25 1 -1 21 2 0.26257337D+00 0.41384680D+00 0.27073743D+06 0.27073743D+06 0.27073743D+06 0.10878651D+01  1  2  5  2  6  2        2 -.436730107048D+00 0.100000000000D+01
0.212475797880D+02 0.000000000000D+00 0.417268881429D+01 0.373952339588D-02 0.000000000000D+00  6 -2 2 25 1 -1 21 2 0.26257337D+00 0.39725382D+00 0.27073743D+06 0.27073743D+06 0.27073743D+06 0.10878651D+01  1  2  6  2  6  2        2 0.509486933655D+00 0.100000000000D+01
-.149846629212D+00 0.000000000000D+00 -.301639063018D-01 0.373952339588D-02 0.000000000000D+00  6 -2 21 25 1 -1 -2 2 0.26257337D+00 0.41384680D+00 0.27073743D+06 0.27073743D+06 0.27073743D+06 0.10878651D+01  1  2  5  6  6  2        2 -.297015191186D-03 0.100000000000D+01
  </mgrwgt>
  </event>
  <event>
  6     66 0.17652913E-05 0.78106014E+02 0.75467711E-02 0.93689943E-01
       -2 -1    0    0    0  503 0.00000000E+00 0.00000000E+00 0.81408270E+03 0.81408277E+03 0.32000000E+00 0.0000E+00 0.9000E+01
        2 -1    0    0  502    0 0.00000000E+00 0.00000000E+00 -.79849949E+03 0.79849955E+03 0.32000000E+00 0.0000E+00 0.9000E+01
       25  1    1    2    0    0 0.35438674E+03 -.35995360E+03 -.43943333E+03 0.68108972E+03 0.12500000E+03 0.0000E+00 0.9000E+01
        1  1    1    2  502    0 0.99209283E+01 0.91852999E+01 -.11841502E+03 0.11918479E+03 0.32000000E+00 0.0000E+00 0.9000E+01
       -1  1    1    2    0  501 -.28249632E+03 0.37331651E+03 0.38675757E+03 0.60724864E+03 0.32000000E+00 0.0000E+00 0.9000E+01
       21  1    1    2  501  503 -.81811354E+02 -.22548215E+02 0.18667399E+03 0.20505917E+03 0.75000000E+00 0.0000E+00 0.9000E+01
#aMCatNLO 2  0  0  1  2 0.68268526D+02 0.00000000D+00  -5  6  0 0.00000000D+00 0.00000000D+00 0.00000000D+00 0.00000000D+00 0.00000000D+00
  <mgrwgt>
 0.2369332273D-02    1    2    0
 0.697253156272610D+03 0.000000000000000D+00 0.000000000000000D+00 0.697253156272610D+03
 0.697253156272610D+03 0.000000000000000D+00 0.000000000000000D+00 -.697253156272610D+03
 0.618627876791121D+03 0.317737839713154D+03 -.370063954207547D+03 -.359403373598221D+03
 0.104955412424110D+03 0.374624729527051D+01 0.748063481046063D+01 -.104621433421408D+03
 0.670923023329990D+03 -.321484087008425D+03 0.362583319397087D+03 0.464024807019629D+03
 0.000000000000000D+00 -.000000000000000D+00 -.000000000000000D+00 0.000000000000000D+00
 0.919858382542527D+03 0.000000000000000D+00 0.000000000000000D+00 0.919858382542527D+03
 0.706677921844839D+03 0.000000000000000D+00 0.000000000000000D+00 -.706677921844839D+03
 0.632429295957011D+03 0.354401746209866D+03 -.359958930593889D+03 -.359403373598221D+03
 0.105490308417329D+03 0.991364108001248D+01 0.918044439935799D+01 -.104621433421408D+03
 0.659166425656543D+03 -.282504033776498D+03 0.373326701540656D+03 0.464024807019629D+03
 0.229450274356483D+03 -.818113535133806D+02 -.225482153461252D+02 0.213180460697688D+03
0.983161660918D-03 0.000000000000D+00 0.000000000000D+00 0.138633693935D-04 0.115024145752D-07  6 -2 2 25 1 -1 21 2 0.12524340D+00 0.12284598D+00 0.29534987D+06 0.29534987D+06 0.29534987D+06 0.10850542D+01  1  2  1  1  6  1       -2 0.236933227278D-02 0.100000000000D+01
  </mgrwgt>
  </event>
  <event>
  6     66 -.17652913E-05 0.13642766E+03 0.75467711E-02 0.94894979E-01
       -2 -1    0    0    0  501 0.00000000E+00 0.00000000E+00 0.32672211E+03 0.32672227E+03 0.32000000E+00 0.0000E+00 0.9000E+01
        2 -1    0    0  503    0 0.00000000E+00 0.00000000E+00 -.14833306E+04 0.14833306E+04 0.32000000E+00 0.0000E+00 0.9000E+01
       25  1    1    2    0    0 0.13709762E+03 -.45582727E+03 -.66366355E+03 0.82622550E+03 0.12500000E+03 0.0000E+00 0.9000E+01
        1  1    1    2  502    0 -.45502862E+02 0.13336759E+03 -.53412027E+03 0.55239659E+03 0.32000000E+00 0.0000E+00 0.9000E+01
       -1  1    1    2    0  501 -.10001753E+03 0.31919610E+03 0.11752530E+03 0.35454472E+03 0.32000000E+00 0.0000E+00 0.9000E+01
       21  1    1    2  503  502 0.84227687E+01 0.32635752E+01 -.76349958E+02 0.76886101E+02 0.75000000E+00 0.0000E+00 0.9000E+01
#aMCatNLO 2  0  0  2  4 0.90329373D+01 0.00000000D+00  -5  6  0 0.00000000D+00 0.00000000D+00 0.00000000D+00 0.00000000D+00 0.00000000D+00
  <mgrwgt>
 -.2813720014D-03    6    2    0
 0.677647970176567D+03 0.000000000000000D+00 0.000000000000000D+00 0.677647970176567D+03
 0.677647970176567D+03 0.000000000000000D+00 0.000000000000000D+00 -.677647970176567D+03
 0.527334432085195D+03 0.140377932475732D+03 -.454562911180766D+03 -.190061040498366D+03
 0.280779009679055D+03 -.437668937271461D+02 0.134069959844181D+03 -.242789120755455D+03
 0.547182498588884D+03 -.966110387485863D+02 0.320492951336584D+03 0.432850161253822D+03
 0.000000000000000D+00 0.000000000000000D+00 0.000000000000000D+00 -.000000000000000D+00
 0.678215740897719D+03 0.000000000000000D+00 0.000000000000000D+00 0.678215740897719D+03
 0.714568671727809D+03 0.000000000000000D+00 0.000000000000000D+00 -.714568671727809D+03
 0.527568331545133D+03 0.137100012475860D+03 -.455833008801593D+03 -.190061040498366D+03
 0.280734401643439D+03 -.455116953378999D+02 0.133393900521587D+03 -.242789120755455D+03
 0.547023308726807D+03 -.100011085865189D+03 0.319175533048870D+03 0.432850161253822D+03
 0.374583707101488D+02 0.842276872722892D+01 0.326357523113647D+01 -.363529308300894D+02
-.102892278394D-07 0.000000000000D+00 0.000000000000D+00 0.134736985451D-05 0.000000000000D+00  6 -2 2 25 1 -1 21 2 0.50222598D-01 0.22829142D+00 0.23843594D+06 0.23843594D+06 0.23843594D+06 0.10920098D+01  1  2 13  2  6  2        2 -.775279631028D-07 0.100000000000D+01
-.212988626048D-03 0.000000000000D+00 0.000000000000D+00 0.134736985451D-05 0.000000000000D+00  6 -2 2 25 1 -1 21 2 0.50222598D-01 0.23147160D+00 0.23843594D+06 0.23843594D+06 0.23843594D+06 0.10920098D+01  1  2 13  2  6  2        2 -.156347979410D-02 0.100000000000D+01
-.144897274930D-03 0.000000000000D+00 0.000000000000D+00 0.134736985451D-05 0.000000000000D+00  6 -2 2 25 1 -1 21 2 0.50222598D-01 0.21641253D+00 0.23409315D+06 0.23409315D+06 0.23409315D+06 0.10926135D+01  1  2  8  2  6  2        2 -.120651958755D-02 0.100000000000D+01
-.185270155807D-03 0.000000000000D+00 0.000000000000D+00 0.134736985451D-05 0.000000000000D+00  6 -2 2 25 1 -1 21 2 0.50222598D-01 0.22827658D+00 0.23409315D+06 0.23409315D+06 0.23409315D+06 0.10926135D+01  1  2  9  2  6  2        2 -.139879187834D-02 0.100000000000D+01
0.185006595524D-03 0.000000000000D+00 0.000000000000D+00 0.134736985451D-05 0.000000000000D+00  6 -2 2 25 1 -1 21 2 0.50222598D-01 0.21641253D+00 0.23409315D+06 0.23409315D+06 0.23409315D+06 0.10926135D+01  1  2 10  2  6  2        2 0.154049882190D-02 0.100000000000D+01
0.311776497168D-03 0.000000000000D+00 0.000000000000D+00 0.134736985451D-05 0.875063293579D-07  6 -2 2 25 1 -1 21 2 0.50264677D-01 0.22820346D+00 0.23843594D+06 0.23843594D+06 0.23843594D+06 0.10920098D+01  1  2  1  2  6  2        2 0.234699796469D-02 0.100000000000D+01
  </mgrwgt>
  </event>
  <event>
  5     66 0.17652913E-05 0.88052958E+02 0.75467711E-02 0.93682035E-01
       -2 -1    0    0    0  501 0.00000000E+00 0.00000000E+00 0.21957544E+04 0.21957544E+04 0.32000000E+00 0.0000E+00 0.9000E+01
        2 -1    0    0  502    0 0.00000000E+00 0.00000000E+00 -.72467153E+03 0.72467160E+03 0.32000000E+00 0.0000E+00 0.9000E+01
       25  1    1    2    0    0 -.31742372E+03 0.43206629E+03 0.15332824E+03 0.57146622E+03 0.12500000E+03 0.0000E+00 0.9000E+01
        1  1    1    2  502    0 0.27144870E+03 -.35696337E+03 -.41676314E+03 0.61220819E+03 0.32000000E+00 0.0000E+00 0.9000E+01
       -1  1    1    2    0  501 0.45975018E+02 -.75102921E+02 0.17345178E+04 0.17367516E+04 0.32000000E+00 0.0000E+00 0.9000E+01
#aMCatNLO 1  0  0  1  5 0.38009370D+00 0.00000000D+00  -5  6  0 0.00000000D+00 0.00000000D+00 0.00000000D+00 0.00000000D+00 0.00000000D+00
  <mgrwgt>
 0.4650203746D-01    9    4    0
 0.126142809091671D+04 0.000000000000000D+00 0.000000000000000D+00 0.126142809091671D+04
 0.126142809091671D+04 0.000000000000000D+00 0.000000000000000D+00 -.126142809091671D+04
 0.572142522862880D+03 -.317451053117890D+03 0.432101943584138D+03 -.155675321400192D+03
 0.951726643721369D+03 0.271478489046328D+03 -.357003030621981D+03 -.839423534624199D+03
 0.998987015249179D+03 0.459725640715626D+02 -.750989129621571D+02 0.995098856024391D+03
 0.000000000000000D+00 -.000000000000000D+00 0.000000000000000D+00 0.000000000000000D+00
 0.128154182576868D+04 0.000000000000000D+00 0.000000000000000D+00 0.128154182576868D+04
 0.126142990091289D+04 0.000000000000000D+00 0.000000000000000D+00 -.126142990091289D+04
 0.572062249083534D+03 -.317392617990684D+03 0.432038582974342D+03 -.155675321400192D+03
 0.951793921870190D+03 0.271575702822321D+03 -.357108438523392D+03 -.839423534624199D+03
 0.999000039512175D+03 0.460746022998279D+02 -.752095519677425D+02 0.995098856024391D+03
 0.201155162156754D+02 -.257687131465545D+00 0.279407516792239D+00 0.201119248557899D+02
 0.126142809091671D+04 0.000000000000000D+00 0.000000000000000D+00 0.126142809091671D+04
 0.126142809091671D+04 0.000000000000000D+00 0.000000000000000D+00 -.126142809091671D+04
 0.572142522862880D+03 -.317451053117890D+03 0.432101943584138D+03 -.155675321400192D+03
 0.951726643721369D+03 0.271478489046328D+03 -.357003030621981D+03 -.839423534624199D+03
 0.000000000000000D+00 -.000000000000000D+00 0.000000000000000D+00 0.000000000000000D+00
 0.998987015249179D+03 0.459725640715626D+02 -.750989129621571D+02 0.995098856024391D+03
 0.128154182576868D+04 0.000000000000000D+00 0.000000000000000D+00 0.128154182576868D+04
 0.126142990091289D+04 0.000000000000000D+00 0.000000000000000D+00 -.126142990091289D+04
 0.572062249083534D+03 -.317392617990684D+03 0.432038582974342D+03 -.155675321400192D+03
 0.951793921870190D+03 0.271575702822321D+03 -.357108438523392D+03 -.839423534624199D+03
 0.201155162156754D+02 -.257687131465545D+00 0.279407516792239D+00 0.201119248557899D+02
 0.999000039512175D+03 0.460746022998279D+02 -.752095519677425D+02 0.995098856024391D+03
0.312908557250D-03 0.000000000000D+00 0.000000000000D+00 0.128338863134D-03 0.000000000000D+00  6 -2 2 25 1 -1 21 0 0.33780837D+00 0.11148794D+00 0.29545133D+06 0.29545133D+06 0.29545133D+06 0.10850431D+01  1  2  2  1  6  1       -2 0.243611052046D-04 0.100000000000D+01
0.969204125110D-04 0.000000000000D+00 -.120165125055D-05 0.128338863134D-03 0.000000000000D+00  6 -2 2 25 1 -1 21 2 0.33780837D+00 0.11148794D+00 0.29545133D+06 0.29545133D+06 0.29545133D+06 0.10850431D+01  1  2  3  1  6  1       -2 0.888359586031D-05 0.100000000000D+01
-.230308211912D-03 0.000000000000D+00 0.000000000000D+00 0.128338863134D-03 0.000000000000D+00  6 -2 2 25 1 -1 21 2 0.33780837D+00 0.11148794D+00 0.29545133D+06 0.29545133D+06 0.29545133D+06 0.10850431D+01  1  2 15  1  6  1       -2 -.211097438087D-04 0.100000000000D+01
-.139681537500D+02 0.000000000000D+00 0.000000000000D+00 0.128338863134D-03 0.000000000000D+00  6 -2 2 25 1 -1 21 2 0.33780837D+00 0.11148794D+00 0.29545133D+06 0.29545133D+06 0.29545133D+06 0.10850431D+01  1  2  4  1  6  1       -2 -.128030235959D+01 0.100000000000D+01
-.207154383264D+02 0.000000000000D+00 -.375340257171D-02 0.128338863134D-03 0.000000000000D+00  6 -2 2 25 1 -1 21 2 0.34319496D+00 0.11148794D+00 0.29545133D+06 0.29545133D+06 0.29545133D+06 0.10850431D+01  1  2  5  1  6  1       -2 -.174866610702D+01 0.100000000000D+01
0.207129062229D+02 0.000000000000D+00 0.375293294084D-02 0.128338863134D-03 0.000000000000D+00  6 -2 2 25 1 -1 21 2 0.33780837D+00 0.11148794D+00 0.29545133D+06 0.29545133D+06 0.29545133D+06 0.10850431D+01  1  2  6  1  6  1       -2 0.189851738359D+01 0.100000000000D+01
0.139469607653D+02 0.000000000000D+00 0.000000000000D+00 0.128338863134D-03 0.378944120110D-02  6 -2 2 25 1 -1 21 2 0.34319480D+00 0.11148810D+00 0.29577052D+06 0.29577052D+06 0.29577052D+06 0.10850084D+01  1  2 11  1  6  1       -2 0.117713398860D+01 0.100000000000D+01
-.600138030447D-01 0.000000000000D+00 -.108738832998D-04 0.128338863134D-03 0.000000000000D+00  6 21 2 25 1 2 -1 2 0.34319496D+00 0.11148794D+00 0.29545133D+06 0.29545133D+06 0.29545133D+06 0.10850431D+01  3  4  5  5  5  1       -2 -.362982881437D-01 0.100000000000D+01
0.597064224425D-01 0.000000000000D+00 0.000000000000D+00 0.128338863134D-03 0.160939090066D-04  6 21 2 25 1 2 -1 2 0.34319480D+00 0.11148810D+00 0.29577052D+06 0.29577052D+06 0.29577052D+06 0.10850084D+01  3  4 11  5  5  1       -2 0.361052850652D-01 0.100000000000D+01
  </mgrwgt>
  </event>
  <event>
  6     66 0.17652913E-05 0.66353655E+02 0.75467711E-02 0.90711552E-01
       -2 -1    0    0    0  501 0.00000000E+00 0.00000000E+00 0.11866564E+04 0.11866564E+04 0.32000000E+00 0.0000E+00 0.9000E+01
        2 -1    0    0  502    0 -.00000000E+00 -.00000000E+00 -.18494419E+04 0.18494419E+04 0.32000000E+00 0.0000E+00 0.9000E+01
       25  1    1    2    0    0 -.59981290E+03 0.22068999E+03 -.53625490E+02 0.65343729E+03 0.12500000E+03 0.0000E+00 0.9000E+01
        1  1    1    2  502    0 -.74641035E+02 -.96194619E+01 -.13528131E+04 0.13549049E+04 0.32000000E+00 0.0000E+00 0.9000E+01
       -1  1    1    2    0  503 0.62555857E+03 -.18652868E+03 0.66412126E+03 0.93122158E+03 0.32000000E+00 0.0000E+00 0.9000E+01
       21  1    1    2  503  501 0.48895363E+02 -.24541856E+02 0.79531842E+02 0.96534634E+02 0.75000000E+00 0.0000E+00 0.9000E+01
#aMCatNLO 2  0  0  5  1 0.18141210D+02 0.00000000D+00  -5  6  0 0.00000000D+00 0.00000000D+00 0.00000000D+00 0.00000000D+00 0.00000000D+00
  <mgrwgt>
 0.1626651503D-01    6    2    0
 0.148143585186903D+04 0.000000000000000D+00 0.000000000000000D+00 0.148143585186903D+04
 0.148143585186903D+04 -.000000000000000D+00 -.000000000000000D+00 -.148143585186903D+04
 0.657680721772316D+03 -.599883259504019D+03 0.220723356276024D+03 0.913247324224706D+02
 0.108650340795671D+04 -.749840657133512D+02 -.952345353097843D+01 -.108387100211394D+04
 0.121868757400903D+04 0.674867325217370D+03 -.211199902745046D+03 0.992546269691468D+03
 0.000000000000000D+00 0.000000000000000D+00 0.000000000000000D+00 0.000000000000000D+00
 0.148143585186903D+04 0.000000000000000D+00 0.000000000000000D+00 0.148143585186903D+04
 0.148143585186903D+04 -.000000000000000D+00 -.000000000000000D+00 -.148143585186903D+04
 0.657524004972261D+03 -.599690387559808D+03 0.220662996951550D+03 0.916083945907243D+02
 0.108601490530014D+04 -.746654705757342D+02 -.962315796111674D+01 -.108340243532523D+04
 0.110270889634013D+04 0.625515459240164D+03 -.186511155121632D+03 0.888769322903541D+03
 0.116623897125524D+03 0.488403988953780D+02 -.245286838688018D+02 0.103024717830962D+03
-.186034077903D-08 0.000000000000D+00 0.000000000000D+00 0.568060714555D-04 0.000000000000D+00  6 -2 2 25 1 -1 21 2 0.18256253D+00 0.28452953D+00 0.51392960D+06 0.51392960D+06 0.51392960D+06 0.10676680D+01  1  2 13  4  6  5       -1 -.357064725842D-09 0.100000000000D+01
-.144671352322D+00 0.000000000000D+00 0.000000000000D+00 0.568060714555D-04 0.000000000000D+00  6 -2 2 25 1 -1 21 2 0.18256253D+00 0.28452953D+00 0.51392960D+06 0.51392960D+06 0.51392960D+06 0.10676680D+01  1  2 13  4  6  5       -1 -.277675129936D-01 0.100000000000D+01
-.192565744563D-01 0.000000000000D+00 0.000000000000D+00 0.568060714555D-04 0.000000000000D+00  6 -2 2 25 1 -1 21 2 0.18256253D+00 0.28452953D+00 0.51411676D+06 0.51411676D+06 0.51411676D+06 0.10676569D+01  1  2  8  4  6  5       -1 -.369583047421D-02 0.100000000000D+01
-.105060933465D-01 0.000000000000D+00 0.000000000000D+00 0.568060714555D-04 0.000000000000D+00  6 -2 2 25 1 -1 21 2 0.18256253D+00 0.28452953D+00 0.51411676D+06 0.51411676D+06 0.51411676D+06 0.10676569D+01  1  2  9  4  6  5       -1 -.201638874261D-02 0.100000000000D+01
0.115593515577D-01 0.000000000000D+00 0.000000000000D+00 0.568060714555D-04 0.000000000000D+00  6 -2 2 25 1 -1 21 2 0.18256253D+00 0.28452953D+00 0.51411676D+06 0.51411676D+06 0.51411676D+06 0.10676569D+01  1  2 10  4  6  5       -1 0.221853600422D-02 0.100000000000D+01
0.247623844113D+00 0.000000000000D+00 0.000000000000D+00 0.568060714555D-04 0.137547430704D-05  6 -2 2 25 1 -1 21 2 0.18256253D+00 0.28452953D+00 0.51392960D+06 0.51392960D+06 0.51392960D+06 0.10676680D+01  1  2  1  4  6  5       -1 0.475277115929D-01 0.100000000000D+01
  </mgrwgt>
  </event>
  <event>
  5     66 0.17652913E-05 0.24897263E+03 0.75467711E-02 0.93104704E-01
       -2 -1    0    0    0  501 0.00000000E+00 0.00000000E+00 0.10272622E+04 0.10272622E+04 0.32000000E+00 0.0000E+00 0.9000E+01
        2 -1    0    0  502    0 0.00000000E+00 0.00000000E+00 -.74504590E+03 0.74504596E+03 0.32000000E+00 0.0000E+00 0.9000E+01
       25  1    1    2    0    0 0.41750580E+03 -.29478461E+03 0.43001909E+03 0.67952225E+03 0.12500000E+03 0.0000E+00 0.9000E+01
        1  1    1    2  502    0 -.17072896E+03 0.32854604E+03 -.52399606E+03 0.64160958E+03 0.32000000E+00 0.0000E+00 0.9000E+01
       -1  1    1    2    0  501 -.24677684E+03 -.33761426E+02 0.37619326E+03 0.45117637E+03 0.32000000E+00 0.0000E+00 0.9000E+01
#aMCatNLO 1  0  0  5  1 0.89327596D+01 0.00000000D+00  -5  6  0 0.00000000D+00 0.00000000D+00 0.00000000D+00 0.00000000D+00 0.00000000D+00
  <mgrwgt>
 0.1351675039D-03    9    2    0
 0.874847173404725D+03 0.000000000000000D+00 0.000000000000000D+00 0.874847173404725D+03
 0.874847173404725D+03 -.000000000000000D+00 -.000000000000000D+00 -.874847173404725D+03
 0.619031608608889D+03 0.417447446126238D+03 -.294854021047584D+03 0.326150070445587D+03
 0.734497051541930D+03 -.170772600699804D+03 0.328601492919091D+03 -.634305680587332D+03
 0.396165686658631D+03 -.246674845426434D+03 -.337474718715064D+02 0.308155610141746D+03
 0.000000000000000D+00 0.000000000000000D+00 -.000000000000000D+00 0.000000000000000D+00
 0.874847173404725D+03 0.000000000000000D+00 0.000000000000000D+00 0.874847173404725D+03
 0.874847173404725D+03 -.000000000000000D+00 -.000000000000000D+00 -.874847173404725D+03
 0.619038337995125D+03 0.417310894463685D+03 -.294872702617580D+03 0.326320655982255D+03
 0.734350057659092D+03 -.170934605694228D+03 0.328579329090497D+03 -.634103297779241D+03
 0.315153972011906D+03 -.197340295812929D+03 -.179821215323061D+02 0.245062190124353D+03
 0.811519791433279D+02 -.490359929565286D+02 -.157245049406112D+02 0.627204516726331D+02
0.205387601837D-04 0.000000000000D+00 0.000000000000D+00 0.434328171288D-06 0.000000000000D+00  6 -2 2 25 1 -1 21 0 0.15804034D+00 0.11462245D+00 0.32800971D+06 0.32800971D+06 0.32800971D+06 0.10816954D+01  1  2  2  4  6  5       -1 0.243632675530D-04 0.100000000000D+01
0.951369606094D-06 0.000000000000D+00 -.788742470852D-07 0.434328171288D-06 0.000000000000D+00  6 -2 2 25 1 -1 21 2 0.15804034D+00 0.11462245D+00 0.32800971D+06 0.32800971D+06 0.32800971D+06 0.10816954D+01  1  2  3  4  6  5       -1 0.132044577622D-05 0.100000000000D+01
-.140566266888D-04 0.000000000000D+00 0.000000000000D+00 0.434328171288D-06 0.000000000000D+00  6 -2 2 25 1 -1 21 2 0.15804034D+00 0.11462245D+00 0.32800971D+06 0.32800971D+06 0.32800971D+06 0.10816954D+01  1  2 15  4  6  5       -1 -.195097817085D-04 0.100000000000D+01
0.630999187957D-07 0.000000000000D+00 0.000000000000D+00 0.434328171288D-06 0.000000000000D+00  6 -2 2 25 1 -1 21 2 0.15804034D+00 0.11462245D+00 0.32837520D+06 0.32837520D+06 0.32837520D+06 0.10816599D+01  1  2 12  4  6  5       -1 0.875685424909D-07 0.100000000000D+01
0.226113058191D-02 0.000000000000D+00 0.000000000000D+00 0.434328171288D-06 0.000000000000D+00  6 -2 2 25 1 -1 21 2 0.15804034D+00 0.11462245D+00 0.32837520D+06 0.32837520D+06 0.32837520D+06 0.10816599D+01  1  2 12  4  6  5       -1 0.313794238121D-02 0.100000000000D+01
-.273691009629D-02 0.000000000000D+00 0.000000000000D+00 0.434328171288D-06 0.000000000000D+00  6 -2 2 25 1 -1 21 2 0.15804034D+00 0.11462245D+00 0.32800971D+06 0.32800971D+06 0.32800971D+06 0.10816954D+01  1  2  4  4  6  5       -1 -.379867230715D-02 0.100000000000D+01
-.227069485836D-02 0.000000000000D+00 0.000000000000D+00 0.434328171288D-06 0.000000000000D+00  6 -2 2 25 1 -1 21 2 0.15804034D+00 0.11462245D+00 0.32800971D+06 0.32800971D+06 0.32800971D+06 0.10816954D+01  1  2  5  4  6  5       -1 -.315159262562D-02 0.100000000000D+01
0.283905347027D-02 0.000000000000D+00 -.000000000000D+00 0.434328171288D-06 0.000000000000D+00  6 -2 2 25 1 -1 21 2 0.15804034D+00 0.11462245D+00 0.32800971D+06 0.32800971D+06 0.32800971D+06 0.10816954D+01  1  2  6  4  6  5       -1 0.394044137974D-02 0.100000000000D+01
0.567220951612D-06 0.000000000000D+00 0.000000000000D+00 0.434328171288D-06 0.213310564638D-07  6 -2 2 25 1 -1 21 2 0.15804034D+00 0.11462245D+00 0.32837520D+06 0.32837520D+06 0.32837520D+06 0.10816599D+01  1  2 11  4  6  5       -1 0.787175529715D-06 0.100000000000D+01
  </mgrwgt>
  </event>
  <event>
  5     66 0.17652913E-05 0.11849674E+03 0.75467711E-02 0.93113236E-01
       -2 -1    0    0    0  501 0.00000000E+00 0.00000000E+00 0.34325001E+03 0.34325016E+03 0.32000000E+00 0.0000E+00 0.9000E+01
        2 -1    0    0  502    0 -.00000000E+00 -.00000000E+00 -.23506529E+04 0.23506529E+04 0.32000000E+00 0.0000E+00 0.9000E+01
       25  1    1    2    0    0 -.33063085E+03 0.34862396E+03 -.47775411E+03 0.68900611E+03 0.12500000E+03 0.0000E+00 0.9000E+01
        1  1    1    2  502    0 0.74974029E+02 0.10437220E+03 -.14764408E+04 0.14820230E+04 0.32000000E+00 0.0000E+00 0.9000E+01
       -1  1    1    2    0  501 0.25565682E+03 -.45299617E+03 -.53207931E+02 0.52287391E+03 0.32000000E+00 0.0000E+00 0.9000E+01
#aMCatNLO 1  0  0  4  2 0.20795259D+01 0.00000000D+00  -5  6  0 0.00000000D+00 0.00000000D+00 0.00000000D+00 0.00000000D+00 0.00000000D+00
  <mgrwgt>
 0.1809809048D-02    9    2    0
 0.898254890850762D+03 0.000000000000000D+00 0.000000000000000D+00 0.898254890850762D+03
 0.898254890850762D+03 -.000000000000000D+00 -.000000000000000D+00 -.898254890850762D+03
 0.499321331778726D+03 -.330626758615883D+03 0.348586121485046D+03 0.535766251685204D+02
 0.572624968429097D+03 0.749849334600279D+02 0.104383473627833D+03 -.558014968128819D+03
 0.724563481493702D+03 0.255641825155855D+03 -.452969595112879D+03 0.504438342960298D+03
 0.000000000000000D+00 0.000000000000000D+00 0.000000000000000D+00 0.000000000000000D+00
 0.898254890850762D+03 0.000000000000000D+00 0.000000000000000D+00 0.898254890850762D+03
 0.898254890850762D+03 -.000000000000000D+00 -.000000000000000D+00 -.898254890850762D+03
 0.499319230642493D+03 -.330622457975244D+03 0.348592108231823D+03 0.535446211146588D+02
 0.553680790785165D+03 0.705795445812702D+02 0.100242248759836D+03 -.539937438537797D+03
 0.724527921792541D+03 0.255648065660811D+03 -.452960907959948D+03 0.504391903028789D+03
 0.189818384813256D+02 0.439484773316252D+01 0.412655096828894D+01 -.179990856056512D+02
0.294791352279D-04 0.000000000000D+00 0.000000000000D+00 0.325554109000D-05 0.000000000000D+00  6 -2 2 25 1 -1 21 0 0.52807707D-01 0.36163892D+00 0.32780925D+06 0.32780925D+06 0.32780925D+06 0.10817149D+01  1  2  2  3  6  4        1 0.553002375205D-04 0.100000000000D+01
0.487873450745D-05 0.000000000000D+00 -.113207641310D-06 0.325554109000D-05 0.000000000000D+00  6 -2 2 25 1 -1 21 2 0.52807707D-01 0.36163892D+00 0.32780925D+06 0.32780925D+06 0.32780925D+06 0.10817149D+01  1  2  3  3  6  4        1 0.107089052571D-04 0.100000000000D+01
-.190725896222D-04 0.000000000000D+00 0.000000000000D+00 0.325554109000D-05 0.000000000000D+00  6 -2 2 25 1 -1 21 2 0.52807707D-01 0.36163892D+00 0.32780925D+06 0.32780925D+06 0.32780925D+06 0.10817149D+01  1  2 15  3  6  4        1 -.418646587470D-04 0.100000000000D+01
0.719631053795D-11 0.000000000000D+00 0.000000000000D+00 0.325554109000D-05 0.000000000000D+00  6 -2 2 25 1 -1 21 2 0.52807707D-01 0.36163892D+00 0.32786495D+06 0.32786495D+06 0.32786495D+06 0.10817095D+01  1  2 12  3  6  4        1 0.157957007515D-10 0.100000000000D+01
0.335831663228D-05 0.000000000000D+00 0.000000000000D+00 0.325554109000D-05 0.000000000000D+00  6 -2 2 25 1 -1 21 2 0.52807707D-01 0.36163892D+00 0.32786495D+06 0.32786495D+06 0.32786495D+06 0.10817095D+01  1  2 12  3  6  4        1 0.737141126309D-05 0.100000000000D+01
-.166963155589D-01 0.000000000000D+00 0.000000000000D+00 0.325554109000D-05 0.000000000000D+00  6 -2 2 25 1 -1 21 2 0.52807707D-01 0.36163892D+00 0.32780925D+06 0.32780925D+06 0.32780925D+06 0.10817149D+01  1  2  4  3  6  4        1 -.366486967450D-01 0.100000000000D+01
-.341652798024D-01 0.000000000000D+00 0.000000000000D+00 0.325554109000D-05 0.000000000000D+00  6 -2 2 25 1 -1 21 2 0.52807707D-01 0.36163892D+00 0.32780925D+06 0.32780925D+06 0.32780925D+06 0.10817149D+01  1  2  5  3  6  4        1 -.749933704994D-01 0.100000000000D+01
0.353165787957D-01 0.000000000000D+00 -.000000000000D+00 0.325554109000D-05 0.000000000000D+00  6 -2 2 25 1 -1 21 2 0.52807707D-01 0.36163892D+00 0.32780925D+06 0.32780925D+06 0.32780925D+06 0.10817149D+01  1  2  6  3  6  4        1 0.775204913794D-01 0.100000000000D+01
0.163555013908D-01 0.000000000000D+00 0.000000000000D+00 0.325554109000D-05 0.214264613467D-05  6 -2 2 25 1 -1 21 2 0.52807707D-01 0.36163892D+00 0.32786495D+06 0.32786495D+06 0.32786495D+06 0.10817095D+01  1  2 11  3  6  4        1 0.358998690018D-01 0.100000000000D+01
  </mgrwgt>
  </event>
  <event>
  5     66 -.17652913E-05 0.84688782E+02 0.75467711E-02 0.94349871E-01
       -2 -1    0    0    0  501 0.00000000E+00 0.00000000E+00 0.38817102E+03 0.38817115E+03 0.32000000E+00 0.0000E+00 0.9000E+01
        2 -1    0    0  502    0 -.00000000E+00 -.00000000E+00 -.27834448E+04 0.27834449E+04 0.32000000E+00 0.0000E+00 0.9000E+01
       25  1    1    2    0    0 -.46467679E+03 -.15578486E+03 -.56298490E+03 0.75681599E+03 0.12500000E+03 0.0000E+00 0.9000E+01
        1  1    1    2  502    0 0.76420887E+02 -.36472974E+02 -.19610059E+04 0.19628333E+04 0.32000000E+00 0.0000E+00 0.9000E+01
       -1  1    1    2    0  501 0.38825591E+03 0.19225783E+03 0.12871698E+03 0.45196669E+03 0.32000000E+00 0.0000E+00 0.9000E+01
#aMCatNLO 1  0  0  4  5 0.13666096D+02 0.00000000D+00  -5  6  0 0.00000000D+00 0.00000000D+00 0.00000000D+00 0.00000000D+00 0.00000000D+00
  <mgrwgt>
 -.8264357968D-03    7    2    0
 0.103944834673069D+04 0.000000000000000D+00 0.000000000000000D+00 0.103944834673069D+04
 0.103944834673069D+04 -.000000000000000D+00 -.000000000000000D+00 -.103944834673069D+04
 0.505941832351663D+03 -.464665326174545D+03 -.155770455383063D+03 0.131847489249828D+02
 0.735163131715726D+03 0.764305132055182D+02 -.364769309840673D+02 -.730268882255843D+03
 0.837791729393982D+03 0.388234812969027D+03 0.192247386367130D+03 0.717084133330861D+03
 0.000000000000000D+00 0.000000000000000D+00 -.000000000000000D+00 0.000000000000000D+00
 0.103944834673069D+04 0.000000000000000D+00 0.000000000000000D+00 0.103944834673069D+04
 0.103944834673069D+04 -.000000000000000D+00 -.000000000000000D+00 -.103944834673069D+04
 0.505912724183507D+03 -.464636729473962D+03 -.155784103333728D+03 0.129115166817984D+02
 0.640177578141982D+03 0.581650162130473D+02 -.210504219807969D+02 -.637182110686655D+03
 0.837421341332832D+03 0.388282157289697D+03 0.192224790999846D+03 0.716631773629389D+03
 0.953850498030486D+02 0.181895559712178D+02 -.153902656853215D+02 -.923611796245328D+02
0.170431702729D-03 0.000000000000D+00 0.000000000000D+00 0.673978531548D-04 0.000000000000D+00  6 -2 2 25 1 -1 21 0 0.59718630D-01 0.42822230D+00 0.26198297D+06 0.26198297D+06 0.26198297D+06 0.10889327D+01  1  2  2  3  6  4        1 0.140926329073D-03 0.100000000000D+01
0.470967791160D-04 0.000000000000D+00 -.654502614179D-06 0.673978531548D-04 0.000000000000D+00  6 -2 2 25 1 -1 21 2 0.59718630D-01 0.42822230D+00 0.26198297D+06 0.26198297D+06 0.26198297D+06 0.10889327D+01  1  2  3  3  6  4        1 0.461779960642D-04 0.100000000000D+01
-.116626755578D-03 0.000000000000D+00 0.000000000000D+00 0.673978531548D-04 0.000000000000D+00  6 -2 2 25 1 -1 21 2 0.59718630D-01 0.42822230D+00 0.26198297D+06 0.26198297D+06 0.26198297D+06 0.10889327D+01  1  2 15  3  6  4        1 -.114351553570D-03 0.100000000000D+01
0.106368967916D-08 0.000000000000D+00 0.000000000000D+00 0.673978531548D-04 0.000000000000D+00  6 -2 2 25 1 -1 21 2 0.59718630D-01 0.42822230D+00 0.26249785D+06 0.26249785D+06 0.26249785D+06 0.10888689D+01  1  2 12  3  6  4        1 0.104266474402D-08 0.100000000000D+01
-.389389069359D-02 0.000000000000D+00 0.000000000000D+00 0.673978531548D-04 0.000000000000D+00  6 -2 2 25 1 -1 21 2 0.59718630D-01 0.42822230D+00 0.26198297D+06 0.26198297D+06 0.26198297D+06 0.10889327D+01  1  2  4  3  6  4        1 -.381792709604D-02 0.100000000000D+01
-.215580818732D-01 0.000000000000D+00 0.000000000000D+00 0.673978531548D-04 0.000000000000D+00  6 -2 2 25 1 -1 21 2 0.59718630D-01 0.42822230D+00 0.26198297D+06 0.26198297D+06 0.26198297D+06 0.10889327D+01  1  2  5  3  6  4        1 -.211375180761D-01 0.100000000000D+01
0.245348921799D-01 0.000000000000D+00 -.000000000000D+00 0.673978531548D-04 0.000000000000D+00  6 -2 2 25 1 -1 21 2 0.59718630D-01 0.42822230D+00 0.26198297D+06 0.26198297D+06 0.26198297D+06 0.10889327D+01  1  2  6  3  6  4        1 0.240562555611D-01 0.100000000000D+01
  </mgrwgt>
  </event>
  <event>
  5     66 0.17652913E-05 0.44184150E+02 0.75467711E-02 0.94435213E-01
       -2 -1    0    0    0  501 0.00000000E+00 0.00000000E+00 0.38505068E+03 0.38505081E+03 0.32000000E+00 0.0000E+00 0.9000E+01
        2 -1    0    0  502    0 -.00000000E+00 -.00000000E+00 -.38418457E+04 0.38418458E+04 0.32000000E+00 0.0000E+00 0.9000E+01
       25  1    1    2    0    0 -.28347809E+03 -.40778116E+03 -.19170568E+03 0.54682846E+03 0.12500000E+03 0.0000E+00 0.9000E+01
        1  1    1    2  502    0 0.24233424E+03 0.39164440E+03 -.34547565E+04 0.34853197E+04 0.32000000E+00 0.0000E+00 0.9000E+01
       -1  1    1    2    0  501 0.41143850E+02 0.16136762E+02 0.18966711E+03 0.19474836E+03 0.32000000E+00 0.0000E+00 0.9000E+01
#aMCatNLO 1  0  0  4  5 0.13666096D+02 0.00000000D+00  -5  6  0 0.00000000D+00 0.00000000D+00 0.00000000D+00 0.00000000D+00 0.00000000D+00
  <mgrwgt>
 0.1103150240D-01    3    2    0
 0.121626708790905D+04 0.000000000000000D+00 0.000000000000000D+00 0.121626708790905D+04
 0.121626708790905D+04 -.000000000000000D+00 -.000000000000000D+00 -.121626708790905D+04
 0.677902788961328D+03 -.283499548092163D+03 -.407826886606917D+03 0.444108576897130D+03
 0.114684829189419D+04 0.242365940869557D+03 0.391694141720657D+03 -.105028351156664D+04
 0.607783094962578D+03 0.411336072226063D+02 0.161327448862601D+02 0.606174934669507D+03
 0.000000000000000D+00 0.000000000000000D+00 0.000000000000000D+00 0.000000000000000D+00
 0.121626708790905D+04 0.000000000000000D+00 0.000000000000000D+00 0.121626708790905D+04
 0.121626708790905D+04 -.000000000000000D+00 -.000000000000000D+00 -.121626708790905D+04
 0.539316681325519D+03 -.249592391170581D+03 -.353028614700655D+03 0.297173212501160D+03
 0.748895178046488D+03 -.421286950945555D+03 0.584747859973372D+02 -.616394347854394D+03
 0.484151664288219D+03 0.715508032450476D+02 0.652907967429417D+02 0.474363182012172D+03
 0.660170652157867D+03 0.599328538871089D+03 0.229263031960377D+03 -.155142046658938D+03
0.105463206688D+00 0.000000000000D+00 0.000000000000D+00 0.315822784120D-03 0.000000000000D+00  6 -2 2 25 1 -1 21 0 0.59238578D-01 0.59105320D+00 0.25855704D+06 0.25855704D+06 0.25855704D+06 0.10893612D+01  1  2  2  3  6  4        1 0.168411695206D-01 0.100000000000D+01
0.399320038277D-01 0.000000000000D+00 -.405006482782D-03 0.315822784120D-03 0.000000000000D+00  6 -2 2 25 1 -1 21 2 0.59238578D-01 0.59105320D+00 0.25855704D+06 0.25855704D+06 0.25855704D+06 0.10893612D+01  1  2  3  3  6  4        1 0.756721730323D-02 0.100000000000D+01
-.705894622251D-01 0.000000000000D+00 0.000000000000D+00 0.315822784120D-03 0.000000000000D+00  6 -2 2 25 1 -1 21 2 0.59238578D-01 0.59105320D+00 0.25855704D+06 0.25855704D+06 0.25855704D+06 0.10893612D+01  1  2 15  3  6  4        1 -.133768844229D-01 0.100000000000D+01
  </mgrwgt>
  </event>
  <event>
  5     66 0.17652913E-05 0.43471466E+02 0.75467711E-02 0.94364310E-01
       -2 -1    0    0    0  501 0.00000000E+00 0.00000000E+00 0.78574851E+03 0.78574858E+03 0.32000000E+00 0.0000E+00 0.9000E+01
        2 -1    0    0  502    0 0.00000000E+00 0.00000000E+00 -.40219443E+04 0.40219443E+04 0.32000000E+00 0.0000E+00 0.9000E+01
       25  1    1    2    0    0 0.17875784E+03 -.41608417E+03 -.64022831E+03 0.79410181E+03 0.12500000E+03 0.0000E+00 0.9000E+01
        1  1    1    2  502    0 -.21478118E+03 0.44041842E+03 -.32859283E+04 0.33222619E+04 0.32000000E+00 0.0000E+00 0.9000E+01
       -1  1    1    2    0  501 0.36023345E+02 -.24334247E+02 0.68996087E+03 0.69132911E+03 0.32000000E+00 0.0000E+00 0.9000E+01
#aMCatNLO 1  0  0  2  4 0.16484219D+02 0.00000000D+00  -5  6  0 0.00000000D+00 0.00000000D+00 0.00000000D+00 0.00000000D+00 0.00000000D+00
  <mgrwgt>
 0.3134105874D-01   11    2    0
 0.177770551826564D+04 0.000000000000000D+00 0.000000000000000D+00 0.177770551826564D+04
 0.177770551826564D+04 0.000000000000000D+00 0.000000000000000D+00 -.177770551826564D+04
 0.491076778526117D+03 0.178772420297731D+03 -.416113977665889D+03 -.142902000474287D+03
 0.150152047259976D+04 -.214795110880010D+03 0.440447782945096D+03 -.141930706349155D+04
 0.156281378540541D+04 0.360226905822783D+02 -.243338052792080D+02 0.156220906396584D+04
 0.000000000000000D+00 -.000000000000000D+00 -.000000000000000D+00 -.000000000000000D+00
 0.177792556618390D+04 0.000000000000000D+00 0.000000000000000D+00 0.177792556618390D+04
 0.211579541944971D+04 0.000000000000000D+00 0.000000000000000D+00 -.211579541944971D+04
 0.490417056702500D+03 0.180470883075927D+03 -.414600009800995D+03 -.142902000474287D+03
 0.150215200728773D+04 -.209597293306565D+03 0.445080989439110D+03 -.141930706349155D+04
 0.156288018584870D+04 0.414316648169132D+02 -.195123789409887D+02 0.156220906396584D+04
 0.338271735794687D+03 -.123052545862744D+02 -.109686006971268D+02 -.337869853265817D+03
0.238107757445D-01 0.000000000000D+00 0.000000000000D+00 0.218591017191D-02 0.000000000000D+00  6 -2 2 25 1 -1 21 0 0.12088439D+00 0.61876066D+00 0.25166686D+06 0.25166686D+06 0.25166686D+06 0.10902421D+01  1  2  2  2  6  2        2 0.531218637106D-03 0.100000000000D+01
0.134188213037D-01 0.000000000000D+00 -.914396483802D-04 0.218591017191D-02 0.000000000000D+00  6 -2 2 25 1 -1 21 2 0.12088439D+00 0.61876066D+00 0.25166686D+06 0.25166686D+06 0.25166686D+06 0.10902421D+01  1  2  3  2  6  2        2 0.355844283233D-03 0.100000000000D+01
-.169217553602D-01 0.000000000000D+00 0.000000000000D+00 0.218591017191D-02 0.000000000000D+00  6 -2 2 25 1 -1 21 2 0.12088439D+00 0.61876066D+00 0.25166686D+06 0.25166686D+06 0.25166686D+06 0.10902421D+01  1  2 15  2  6  2        2 -.448736127482D-03 0.100000000000D+01
0.136813777716D-08 0.000000000000D+00 0.000000000000D+00 0.218591017191D-02 0.000000000000D+00  6 -2 2 25 1 -1 21 2 0.12088439D+00 0.73647231D+00 0.26182639D+06 0.26182639D+06 0.26182639D+06 0.10889522D+01  1  2 12  2  6  2        2 0.657927205760D-11 0.100000000000D+01
0.109993208112D+02 0.000000000000D+00 0.000000000000D+00 0.218591017191D-02 0.000000000000D+00  6 -2 2 25 1 -1 21 2 0.12088439D+00 0.73822627D+00 0.26182639D+06 0.26182639D+06 0.26182639D+06 0.10889522D+01  1  2 12  2  6  2        2 0.513248081811D-01 0.100000000000D+01
-.109955149855D+02 0.000000000000D+00 0.000000000000D+00 0.218591017191D-02 0.000000000000D+00  6 -2 2 25 1 -1 21 2 0.12088439D+00 0.61876066D+00 0.25166686D+06 0.25166686D+06 0.25166686D+06 0.10902421D+01  1  2  4  2  6  2        2 -.291582327556D+00 0.100000000000D+01
-.111857686035D+02 0.000000000000D+00 -.158071566791D-01 0.218591017191D-02 0.000000000000D+00  6 -2 2 25 1 -1 21 2 0.12088439D+00 0.73644958D+00 0.25166686D+06 0.25166686D+06 0.25166686D+06 0.10902421D+01  1  2  5  2  6  2        2 -.542321814827D-01 0.100000000000D+01
0.122705122053D+02 0.000000000000D+00 0.173404549360D-01 0.218591017191D-02 0.000000000000D+00  6 -2 2 25 1 -1 21 2 0.12088439D+00 0.61876066D+00 0.25166686D+06 0.25166686D+06 0.25166686D+06 0.10902421D+01  1  2  6  2  6  2        2 0.325393081982D+00 0.100000000000D+01
0.351598542311D-10 0.000000000000D+00 0.000000000000D+00 0.218591017191D-02 0.000000000000D+00  6 -2 21 25 1 -1 -2 2 0.12088439D+00 0.73647231D+00 0.26182639D+06 0.26182639D+06 0.26182639D+06 0.10889522D+01  1  2 12  6  6  2        2 0.142460781387D-14 0.100000000000D+01
0.285703969633D+00 0.000000000000D+00 0.000000000000D+00 0.218591017191D-02 0.000000000000D+00  6 -2 21 25 1 -1 -2 2 0.12088439D+00 0.73822627D+00 0.26182639D+06 0.26182639D+06 0.26182639D+06 0.10889522D+01  1  2 12  6  6  2        2 0.110992016702D-04 0.100000000000D+01
-.287280580787D+00 0.000000000000D+00 -.406172367074D-03 0.218591017191D-02 0.000000000000D+00  6 -2 21 25 1 -1 -2 2 0.12088439D+00 0.73644958D+00 0.25166686D+06 0.25166686D+06 0.25166686D+06 0.10902421D+01  1  2  5  6  6  2        2 -.117483847926D-04 0.100000000000D+01
  </mgrwgt>
  </event>
  <event>
  6     66 -.17652913E-05 0.99911349E+02 0.75467711E-02 0.93304050E-01
       -2 -1    0    0    0  501 0.00000000E+00 0.00000000E+00 0.13277479E+04 0.13277479E+04 0.32000000E+00 0.0000E+00 0.9000E+01
        2 -1    0    0  502    0 -.00000000E+00 -.00000000E+00 -.29348989E+04 0.29348989E+04 0.32000000E+00 0.0000E+00 0.9000E+01
       25  1    1    2    0    0 -.52898493E+03 0.14942684E+03 -.63612354E+02 0.56729619E+03 0.12500000E+03 0.0000E+00 0.9000E+01
        1  1    1    2  502    0 0.42567978E+03 -.16573426E+03 -.25968300E+04 0.26367020E+04 0.32000000E+00 0.0000E+00 0.9000E+01
       -1  1    1    2    0  503 0.84034527E+02 0.10916721E+02 0.91488972E+03 0.91880589E+03 0.32000000E+00 0.0000E+00 0.9000E+01
       21  1    1    2  503  501 0.19270615E+02 0.53907002E+01 0.13840162E+03 0.13984273E+03 0.75000000E+00 0.0000E+00 0.9000E+01
#aMCatNLO 2  0  0  5  1 0.65343509D+01 0.00000000D+00  -5  6  0 0.00000000D+00 0.00000000D+00 0.00000000D+00 0.00000000D+00 0.00000000D+00
  <mgrwgt>
 -.1109166228D-01    3    2    0
 0.197403286953666D+04 0.000000000000000D+00 0.000000000000000D+00 0.197403286953666D+04
 0.197403286953666D+04 -.000000000000000D+00 -.000000000000000D+00 -.197403286953666D+04
 0.586763736713738D+03 -.529087110906694D+03 0.149471876588705D+03 0.162455131971038D+03
 0.178979089482962D+04 0.425790983121644D+03 -.165777874665916D+03 -.173048293322372D+04
 0.157151110752995D+04 0.103296127785052D+03 0.163059980772117D+02 0.156802780125269D+04
 0.000000000000000D+00 0.000000000000000D+00 0.000000000000000D+00 0.000000000000000D+00
 0.197403286953666D+04 0.000000000000000D+00 0.000000000000000D+00 0.197403286953666D+04
 0.197403286953666D+04 -.000000000000000D+00 -.000000000000000D+00 -.197403286953666D+04
 0.586767632417436D+03 -.529085945065406D+03 0.149472060624702D+03 0.162472829358065D+03
 0.178973949671346D+04 0.425794539195587D+03 -.165777313315398D+03 -.173042895227666D+04
 0.136564944238260D+04 0.841065111350798D+02 0.109250439479915D+02 0.136301325660440D+04
 0.205909167559816D+03 0.191848947347411D+02 0.538020874270530D+01 0.204942866314195D+03
-.145212609933D-09 0.000000000000D+00 0.000000000000D+00 0.914200932515D-03 0.000000000000D+00  6 -2 2 25 1 -1 21 2 0.20426890D+00 0.45152290D+00 0.31668262D+06 0.31668262D+06 0.31668262D+06 0.10828173D+01  1  2 13  4  6  5       -1 -.499588375503D-11 0.100000000000D+01
-.647355267342D+00 0.000000000000D+00 0.000000000000D+00 0.914200932515D-03 0.000000000000D+00  6 -2 2 25 1 -1 21 2 0.20426890D+00 0.45152290D+00 0.31668262D+06 0.31668262D+06 0.31668262D+06 0.10828173D+01  1  2 13  4  6  5       -1 -.222715621277D-01 0.100000000000D+01
0.324960010423D+00 0.000000000000D+00 0.000000000000D+00 0.914200932515D-03 0.471853678389D-04  6 -2 2 25 1 -1 21 2 0.20426890D+00 0.45152290D+00 0.31668262D+06 0.31668262D+06 0.31668262D+06 0.10828173D+01  1  2  1  4  6  5       -1 0.111798998576D-01 0.100000000000D+01
  </mgrwgt>
  </event>
  <event>
  5     66 0.17652913E-05 0.16536326E+03 0.75467711E-02 0.95034556E-01
       -2 -1    0    0    0  501 0.00000000E+00 0.00000000E+00 0.24532646E+03 0.24532667E+03 0.32000000E+00 0.0000E+00 0.9000E+01
        2 -1    0    0  502    0 0.00000000E+00 0.00000000E+00 -.33004319E+04 0.33004319E+04 0.32000000E+00 0.0000E+00 0.9000E+01
       25  1    1    2    0    0 0.45256695E+03 0.39329784E+02 -.13675649E+04 0.14464517E+04 0.12500000E+03 0.0000E+00 0.9000E+01
        1  1    1    2  502    0 -.32215025E+03 0.62356873E+02 -.18432109E+04 0.18721901E+04 0.32000000E+00 0.0000E+00 0.9000E+01
       -1  1    1    2    0  501 -.13041670E+03 -.10168666E+03 0.15567036E+03 0.22711683E+03 0.32000000E+00 0.0000E+00 0.9000E+01
#aMCatNLO 1  0  0  2  1 0.44537036D+02 0.00000000D+00  -5  6  0 0.00000000D+00 0.00000000D+00 0.00000000D+00 0.00000000D+00 0.00000000D+00
  <mgrwgt>
 0.5052263383D-02    9    2    0
 0.899824244515137D+03 0.000000000000000D+00 0.000000000000000D+00 0.899824244515137D+03
 0.899824244515137D+03 0.000000000000000D+00 0.000000000000000D+00 -.899824244515137D+03
 0.528283680059983D+03 0.452608095071453D+03 0.393199362124648D+02 -.238869214236070D+03
 0.559667803568679D+03 -.322200181040018D+03 0.623598726154907D+02 -.453350129564942D+03
 0.711697005401612D+03 -.130407914031435D+03 -.101679808827955D+03 0.692219343801012D+03
 0.000000000000000D+00 0.000000000000000D+00 0.000000000000000D+00 -.000000000000000D+00
 0.920091150278440D+03 0.000000000000000D+00 0.000000000000000D+00 0.920091150278440D+03
 0.924904758020362D+03 0.000000000000000D+00 0.000000000000000D+00 -.924904758020362D+03
 0.523626141847247D+03 0.448068255177685D+03 0.271233039672698D+02 -.238869214236070D+03
 0.561174377948520D+03 -.327037519701847D+03 0.493639868388171D+02 -.453350129564942D+03
 0.715398977940185D+03 -.136566985030187D+03 -.118226631117205D+03 0.692219343801012D+03
 0.447964105628499D+02 0.155362495543488D+02 0.417393403111179D+02 -.481360774192192D+01
0.103970470822D-02 0.000000000000D+00 0.000000000000D+00 0.857321213772D-05 0.000000000000D+00  6 -2 2 25 1 -1 21 0 0.37742549D-01 0.50775877D+00 0.23267990D+06 0.23267990D+06 0.23267990D+06 0.10928126D+01  1  2  2  2  6  2        2 0.996703966077D-03 0.100000000000D+01
0.124634225358D-03 0.000000000000D+00 -.399273984011D-05 0.857321213772D-05 0.000000000000D+00  6 -2 2 25 1 -1 21 2 0.37742549D-01 0.50775877D+00 0.23267990D+06 0.23267990D+06 0.23267990D+06 0.10928126D+01  1  2  3  2  6  2        2 0.142687165333D-03 0.100000000000D+01
-.692922944545D-03 0.000000000000D+00 0.000000000000D+00 0.857321213772D-05 0.000000000000D+00  6 -2 2 25 1 -1 21 2 0.37742549D-01 0.50775877D+00 0.23267990D+06 0.23267990D+06 0.23267990D+06 0.10928126D+01  1  2 15  2  6  2        2 -.793291011899D-03 0.100000000000D+01
0.246208294483D-08 0.000000000000D+00 0.000000000000D+00 0.857321213772D-05 0.000000000000D+00  6 -2 2 25 1 -1 21 2 0.37742549D-01 0.52748625D+00 0.26105928D+06 0.26105928D+06 0.26105928D+06 0.10890477D+01  1  2 12  2  6  2        2 0.226682586694D-08 0.100000000000D+01
-.106072880175D-03 0.000000000000D+00 0.000000000000D+00 0.857321213772D-05 0.000000000000D+00  6 -2 2 25 1 -1 21 2 0.37742549D-01 0.50775877D+00 0.23267990D+06 0.23267990D+06 0.23267990D+06 0.10928126D+01  1  2  4  2  6  2        2 -.121437258084D-03 0.100000000000D+01
-.247371982233D-01 0.000000000000D+00 -.417374883029D-02 0.857321213772D-05 0.000000000000D+00  6 -2 2 25 1 -1 21 2 0.37742549D-01 0.52542951D+00 0.23267990D+06 0.23267990D+06 0.23267990D+06 0.10928126D+01  1  2  5  2  6  2        2 -.236395653322D-01 0.100000000000D+01
0.248704491477D-01 0.000000000000D+00 0.417576482963D-02 0.857321213772D-05 0.000000000000D+00  6 -2 2 25 1 -1 21 2 0.37742549D-01 0.50775877D+00 0.23267990D+06 0.23267990D+06 0.23267990D+06 0.10928126D+01  1  2  6  2  6  2        2 0.284728683414D-01 0.100000000000D+01
0.353158023372D-10 0.000000000000D+00 0.000000000000D+00 0.857321213772D-05 0.000000000000D+00  6 -2 21 25 1 -1 -2 2 0.37742549D-01 0.52748625D+00 0.26105928D+06 0.26105928D+06 0.26105928D+06 0.10890477D+01  1  2 12  6  6  2        2 0.127162325965D-11 0.100000000000D+01
-.149082200546D-03 0.000000000000D+00 -.254496829348D-04 0.857321213772D-05 0.000000000000D+00  6 -2 21 25 1 -1 -2 2 0.37742549D-01 0.52542951D+00 0.23267990D+06 0.23267990D+06 0.23267990D+06 0.10928126D+01  1  2  5  6  6  2        2 -.570475586584D-05 0.100000000000D+01
  </mgrwgt>
  </event>
  <event>
  5     66 0.17652913E-05 0.22336926E+02 0.75467711E-02 0.85265337E-01
       -2 -1    0    0    0  501 0.00000000E+00 0.00000000E+00 0.73630371E+03 0.73630378E+03 0.32000000E+00 0.0000E+00 0.9000E+01
        2 -1    0    0  502    0 0.00000000E+00 0.00000000E+00 -.17154350E+04 0.17154350E+04 0.32000000E+00 0.0000E+00 0.9000E+01
       25  1    1    2    0    0 -.14522439E+03 -.74221082E+03 -.15232942E+03 0.78153457E+03 0.12500000E+03 0.0000E+00 0.9000E+01
        1  1    1    2  502    0 0.16649725E+03 0.74905126E+03 -.11301521E+04 0.13660319E+04 0.32000000E+00 0.0000E+00 0.9000E+01
       -1  1    1    2    0  501 -.21272854E+02 -.68404310E+01 0.30335028E+03 0.30417236E+03 0.32000000E+00 0.0000E+00 0.9000E+01
#aMCatNLO 1  0  0  1  5 0.18713753D+03 0.00000000D+00  -5  6  0 0.00000000D+00 0.00000000D+00 0.00000000D+00 0.00000000D+00 0.00000000D+00
  <mgrwgt>
 0.1198703390D-01    3    2    0
 0.112386888589235D+04 0.000000000000000D+00 0.000000000000000D+00 0.112386888589235D+04
 0.112386888589235D+04 0.000000000000000D+00 0.000000000000000D+00 -.112386888589235D+04
 0.786242415617888D+03 -.145252579115777D+03 -.742315845130926D+03 0.174416198916344D+03
 0.997755355966387D+03 0.166517175923000D+03 0.749153620941515D+03 -.637617936316457D+03
 0.463740000200428D+03 -.212645968072229D+02 -.683777581058844D+01 0.463201737400113D+03
 0.000000000000000D+00 0.000000000000000D+00 0.000000000000000D+00 -.000000000000000D+00
 0.145536555108432D+04 0.000000000000000D+00 0.000000000000000D+00 0.145536555108432D+04
 0.174713835419436D+04 0.000000000000000D+00 0.000000000000000D+00 -.174713835419436D+04
 0.107483784472231D+04 -.308078530890183D+03 -.100713355658891D+04 0.174416198916344D+03
 0.805740854425617D+03 0.872925390993615D+01 0.492529686317731D+03 -.637617936316457D+03
 0.496190453312081D+03 -.105248932712134D+03 -.143428653310702D+03 0.463201737400113D+03
 0.825734752818669D+03 0.404598209692381D+03 0.658032523581881D+03 -.291772803110039D+03
0.169522313652D-01 0.000000000000D+00 0.000000000000D+00 0.245006228300D-04 0.000000000000D+00  6 -2 2 25 1 -1 21 0 0.11327750D+00 0.26391308D+00 0.60561562D+06 0.60561562D+06 0.60561562D+06 0.10626776D+01  1  2  2  1  6  1       -2 0.123975902928D-01 0.100000000000D+01
0.126914744690D-01 0.000000000000D+00 -.651010320674D-04 0.245006228300D-04 0.000000000000D+00  6 -2 2 25 1 -1 21 2 0.11327750D+00 0.26391308D+00 0.60561562D+06 0.60561562D+06 0.60561562D+06 0.10626776D+01  1  2  3  1  6  1       -2 0.104815507619D-01 0.100000000000D+01
-.131885923151D-01 0.000000000000D+00 0.000000000000D+00 0.245006228300D-04 0.000000000000D+00  6 -2 2 25 1 -1 21 2 0.11327750D+00 0.26391308D+00 0.60561562D+06 0.60561562D+06 0.60561562D+06 0.10626776D+01  1  2 15  1  6  1       -2 -.108921071517D-01 0.100000000000D+01
  </mgrwgt>
  </event>
  <event>
  6     66 0.17652913E-05 0.97980175E+02 0.75467711E-02 0.93125050E-01
       -2 -1    0    0    0  501 0.00000000E+00 0.00000000E+00 0.12877022E+04 0.12877023E+04 0.32000000E+00 0.0000E+00 0.9000E+01
        2 -1    0    0  502    0 -.00000000E+00 -.00000000E+00 -.18134988E+04 0.18134988E+04 0.32000000E+00 0.0000E+00 0.9000E+01
       25  1    1    2    0    0 -.61300099E+02 0.44865939E+03 -.53436412E+03 0.71149347E+03 0.12500000E+03 0.0000E+00 0.9000E+01
        1  1    1    2  502    0 0.10171599E+03 -.52959405E+03 -.10802550E+04 0.12073802E+04 0.32000000E+00 0.0000E+00 0.9000E+01
       -1  1    1    2    0  503 0.22439131E+02 -.95199480E+01 0.10703622E+04 0.10706398E+04 0.32000000E+00 0.0000E+00 0.9000E+01
       21  1    1    2  503  501 -.62855026E+02 0.90454609E+02 0.18460256E+02 0.11168766E+03 0.75000000E+00 0.0000E+00 0.9000E+01
#aMCatNLO 2  0  0  5  5 0.10733927D+03 0.00000000D+00  -5  6  0 0.00000000D+00 0.00000000D+00 0.00000000D+00 0.00000000D+00 0.00000000D+00
  <mgrwgt>
 0.9664201383D-03    2    2    0
 0.152815135412221D+04 0.000000000000000D+00 0.000000000000000D+00 0.152815135412221D+04
 0.152815135412221D+04 -.000000000000000D+00 -.000000000000000D+00 -.152815135412221D+04
 0.640073570487159D+03 -.608389500964221D+02 0.447840774853289D+03 -.435667807126199D+03
 0.106272737586113D+04 0.102554100724699D+03 -.531377254546109D+03 -.914609394867712D+03
 0.135350176189612D+04 -.417151506282771D+02 0.835364796928206D+02 0.135027720199391D+04
 0.000000000000000D+00 -.000000000000000D+00 0.000000000000000D+00 0.000000000000000D+00
 0.152815135412221D+04 0.000000000000000D+00 0.000000000000000D+00 0.152815135412221D+04
 0.152815135412221D+04 -.000000000000000D+00 -.000000000000000D+00 -.152815135412221D+04
 0.630114333431274D+03 -.613297932220000D+02 0.448823710457611D+03 -.419779711979923D+03
 0.103927544651728D+04 0.101741816469647D+03 -.529750618512080D+03 -.888316575721300D+03
 0.127037005706618D+04 0.224648052284429D+02 -.955910950500765D+01 0.127013544074710D+04
 0.116542871229689D+03 -.628768284760907D+02 0.904860175594769D+02 0.379608469541199D+02
-.239255469587D-03 0.000000000000D+00 0.000000000000D+00 0.111672215681D-03 0.000000000000D+00  6 -2 2 25 1 -1 21 2 0.19810804D+00 0.27899982D+00 0.30441585D+06 0.30441585D+06 0.30441585D+06 0.10840827D+01  1  2  8  4  6  5       -1 -.402126372027D-04 0.100000000000D+01
0.604997819631D-02 0.000000000000D+00 0.000000000000D+00 0.111672215681D-03 0.419717606584D-08  6 -2 2 25 1 -1 21 2 0.19810804D+00 0.27899982D+00 0.32715994D+06 0.32715994D+06 0.32715994D+06 0.10817781D+01  1  2  1  4  6  5       -1 0.100663277552D-02 0.100000000000D+01
  </mgrwgt>
  </event>
  <event>
  6     66 0.17652913E-05 0.54053208E+02 0.75467711E-02 0.93401058E-01
       -2 -1    0    0    0  503 0.00000000E+00 0.00000000E+00 0.10717786E+04 0.10717786E+04 0.32000000E+00 0.0000E+00 0.9000E+01
        2 -1    0    0  502    0 0.00000000E+00 0.00000000E+00 -.18001463E+04 0.18001463E+04 0.32000000E+00 0.0000E+00 0.9000E+01
       25  1    1    2    0    0 0.27301399E+03 0.40688319E+03 0.78857741E+03 0.93678701E+03 0.12500000E+03 0.0000E+00 0.9000E+01
        1  1    1    2  502    0 -.58910708E+00 -.16217828E+02 -.12148701E+04 0.12149785E+04 0.32000000E+00 0.0000E+00 0.9000E+01
       -1  1    1    2    0  501 -.32783635E+03 -.41885263E+03 -.35418899E+03 0.63903376E+03 0.32000000E+00 0.0000E+00 0.9000E+01
       21  1    1    2  501  503 0.55411467E+02 0.28187270E+02 0.52113922E+02 0.81125682E+02 0.75000000E+00 0.0000E+00 0.9000E+01
#aMCatNLO 2  0  0  1  1 0.62168745D+02 0.00000000D+00  -5  6  0 0.00000000D+00 0.00000000D+00 0.00000000D+00 0.00000000D+00 0.00000000D+00
  <mgrwgt>
 0.6199134764D-02    2    2    0
 0.133936029538418D+04 0.000000000000000D+00 0.000000000000000D+00 0.133936029538418D+04
 0.133936029538418D+04 0.000000000000000D+00 0.000000000000000D+00 -.133936029538418D+04
 0.121569360620149D+04 0.297945377968182D+03 0.419484309183471D+03 0.109432509349619D+04
 0.911824450608791D+03 0.182682620214318D+02 -.662713617713661D+01 -.911617343185632D+03
 0.551202533958081D+03 -.316213639989614D+03 -.412857173006334D+03 -.182707750310560D+03
 0.000000000000000D+00 0.000000000000000D+00 0.000000000000000D+00 0.000000000000000D+00
 0.142851334716225D+04 0.000000000000000D+00 0.000000000000000D+00 0.142851334716225D+04
 0.135060294914862D+04 0.000000000000000D+00 0.000000000000000D+00 -.135060294914862D+04
 0.120544363712876D+04 0.272907173688729D+03 0.406747620261012D+03 0.109432509349619D+04
 0.911761826464749D+03 -.590365614137994D+00 -.162203350750241D+02 -.911617343185632D+03
 0.562236447757597D+03 -.327728275417119D+03 -.418714555103660D+03 -.182707750310560D+03
 0.996743849597588D+02 0.554114673425287D+02 0.281872699176719D+02 0.779103980136309D+02
-.424860071985D-02 0.000000000000D+00 0.000000000000D+00 0.315265927835D-05 0.000000000000D+00  6 -2 2 25 1 -1 21 2 0.15459819D+00 0.27463996D+00 0.28567279D+06 0.28567279D+06 0.28567279D+06 0.10861277D+01  1  2  8  1  6  1       -2 -.154830105011D-02 0.100000000000D+01
0.262961087663D-01 0.000000000000D+00 0.000000000000D+00 0.315265927835D-05 0.316009691663D-08  6 -2 2 25 1 -1 21 2 0.16488885D+00 0.27694530D+00 0.31116192D+06 0.31116192D+06 0.31116192D+06 0.10833800D+01  1  2  1  1  6  1       -2 0.774743581398D-02 0.100000000000D+01
  </mgrwgt>
  </event>
  <event>
  6     66 0.17652913E-05 0.71821576E+01 0.75467711E-02 0.90306519E-01
       -2 -1    0    0    0  501 0.00000000E+00 0.00000000E+00 0.57783235E+03 0.57783244E+03 0.32000000E+00 0.0000E+00 0.9000E+01
        2 -1    0    0  502    0 -.00000000E+00 -.00000000E+00 -.31301638E+04 0.31301638E+04 0.32000000E+00 0.0000E+00 0.9000E+01
       25  1    1    2    0    0 0.27350522E+03 0.68107155E+03 0.71927427E+02 0.74797200E+03 0.12500000E+03 0.0000E+00 0.9000E+01
        1  1    1    2  503    0 -.18764118E+03 -.48012774E+03 -.18976491E+04 0.19664191E+04 0.32000000E+00 0.0000E+00 0.9000E+01
       -1  1    1    2    0  501 -.13645602E+02 0.34052349E+01 0.11942458E+03 0.12025029E+03 0.32000000E+00 0.0000E+00 0.9000E+01
       21  1    1    2  502  503 -.72218431E+02 -.20434904E+03 -.84603440E+03 0.87335491E+03 0.75000000E+00 0.0000E+00 0.9000E+01
#aMCatNLO 2  0  0  4  2 0.43841783D+01 0.00000000D+00  -5  6  0 0.00000000D+00 0.00000000D+00 0.00000000D+00 0.00000000D+00 0.00000000D+00
  <mgrwgt>
 0.7736893970D-02    1    2    0
 0.134488293393307D+04 0.000000000000000D+00 0.000000000000000D+00 0.134488293393307D+04
 0.134488293393307D+04 -.000000000000000D+00 -.000000000000000D+00 -.134488293393307D+04
 0.109966436556710D+04 0.273539453323267D+03 0.681191909289771D+03 0.809191242594638D+03
 0.131123448246925D+04 -.259909495636591D+03 -.684604100626367D+03 -.108770407165731D+04
 0.278867019829793D+03 -.136299576866759D+02 0.341219133659663D+01 0.278512829062670D+03
 0.000000000000000D+00 0.000000000000000D+00 0.000000000000000D+00 -.000000000000000D+00
 0.134488293393307D+04 0.000000000000000D+00 0.000000000000000D+00 0.134488293393307D+04
 0.134488293393307D+04 -.000000000000000D+00 -.000000000000000D+00 -.134488293393307D+04
 0.109959075487464D+04 0.273524612119899D+03 0.681152817417969D+03 0.809129133138839D+03
 0.910179997330384D+03 -.187671714619695D+03 -.480198659768749D+03 -.750077464151763D+03
 0.278851352094630D+03 -.136337213299670D+02 0.340227786412392D+01 0.278497078464094D+03
 0.401143763566482D+03 -.722191761702375D+02 -.204356435513344D+03 -.337548747451170D+03
0.347277590725D-01 0.000000000000D+00 0.000000000000D+00 0.597299017379D-04 0.195844957364D-05  6 -2 2 25 1 -1 21 2 0.88897293D-01 0.48156367D+00 0.55573302D+06 0.55573302D+06 0.55573302D+06 0.10652817D+01  1  2  1  3  6  4        1 0.773689396977D-02 0.100000000000D+01
  </mgrwgt>
  </event>
  <event>
  5     66 0.17652913E-05 0.62654565E+02 0.75467711E-02 0.91904292E-01
       -2 -1    0    0    0  501 0.00000000E+00 0.00000000E+00 0.37818042E+03 0.37818055E+03 0.32000000E+00 0.0000E+00 0.9000E+01
        2 -1    0    0  502    0 -.00000000E+00 -.00000000E+00 -.17766137E+04 0.17766138E+04 0.32000000E+00 0.0000E+00 0.9000E+01
       25  1    1    2    0    0 -.52648169E+03 -.35530975E+03 -.81500618E+03 0.10408112E+04 0.12500000E+03 0.0000E+00 0.9000E+01
        1  1    1    2  502    0 0.61384327E+02 0.12518527E+02 -.53006147E+03 0.53375089E+03 0.32000000E+00 0.0000E+00 0.9000E+01
       -1  1    1    2    0  501 0.46509736E+03 0.34279122E+03 -.53365668E+02 0.58023217E+03 0.32000000E+00 0.0000E+00 0.9000E+01
#aMCatNLO 1  0  0  5  1 0.10571266D+02 0.00000000D+00  -5  6  0 0.00000000D+00 0.00000000D+00 0.00000000D+00 0.00000000D+00 0.00000000D+00
  <mgrwgt>
 0.1321915929D-02    4    2    0
 0.819683289129334D+03 0.000000000000000D+00 0.000000000000000D+00 0.819683289129334D+03
 0.819683289129334D+03 -.000000000000000D+00 -.000000000000000D+00 -.819683289129334D+03
 0.672803047131569D+03 -.526477267377776D+03 -.355303517564352D+03 -.183357676606005D+03
 0.249442105831829D+03 0.613908396187812D+02 0.125203562726749D+02 -.241445169037452D+03
 0.717121425295269D+03 0.465086427758995D+03 0.342783161291677D+03 0.424802845643458D+03
 0.000000000000000D+00 0.000000000000000D+00 0.000000000000000D+00 -.000000000000000D+00
 0.819683289129334D+03 0.000000000000000D+00 0.000000000000000D+00 0.819683289129334D+03
 0.819683289129334D+03 -.000000000000000D+00 -.000000000000000D+00 -.819683289129334D+03
 0.541947714619270D+03 -.432293321980458D+03 -.285887020717136D+03 -.973314981782803D+02
 0.233091883351863D+03 0.988034153673432D+02 0.400945881180341D+02 -.207273093284951D+03
 0.637979495234790D+03 0.234431058501278D+03 0.396329064188763D+03 0.441569007097721D+03
 0.226347485052744D+03 0.990588481118370D+02 -.150536631589660D+03 -.136964415634490D+03
0.618574410644D-03 0.000000000000D+00 0.000000000000D+00 0.208815579244D-05 0.000000000000D+00  6 -2 2 25 1 -1 21 0 0.58181615D-01 0.27332520D+00 0.41457486D+06 0.41457486D+06 0.41457486D+06 0.10743089D+01  1  2  2  4  6  5       -1 0.195606318967D-02 0.100000000000D+01
0.152576107987D-03 0.000000000000D+00 -.237548861126D-05 0.208815579244D-05 0.000000000000D+00  6 -2 2 25 1 -1 21 2 0.58181615D-01 0.27332520D+00 0.41457486D+06 0.41457486D+06 0.41457486D+06 0.10743089D+01  1  2  3  4  6  5       -1 0.556846941004D-03 0.100000000000D+01
-.322736751801D-03 0.000000000000D+00 0.000000000000D+00 0.208815579244D-05 0.000000000000D+00  6 -2 2 25 1 -1 21 2 0.58181615D-01 0.27332520D+00 0.41457486D+06 0.41457486D+06 0.41457486D+06 0.10743089D+01  1  2 15  4  6  5       -1 -.117787100065D-02 0.100000000000D+01
-.359575828735D-05 0.000000000000D+00 0.000000000000D+00 0.208815579244D-05 0.000000000000D+00  6 -2 2 25 1 -1 21 2 0.58181615D-01 0.27332520D+00 0.41457486D+06 0.41457486D+06 0.41457486D+06 0.10743089D+01  1  2  4  4  6  5       -1 -.131232014587D-04 0.100000000000D+01
  </mgrwgt>
  </event>
  <event>
  6     66 -.17652913E-05 0.32965738E+02 0.75467711E-02 0.91555922E-01
       -2 -1    0    0    0  503 0.00000000E+00 0.00000000E+00 0.10218664E+04 0.10218665E+04 0.32000000E+00 0.0000E+00 0.9000E+01
        2 -1    0    0  502    0 0.00000000E+00 0.00000000E+00 -.27528492E+04 0.27528492E+04 0.32000000E+00 0.0000E+00 0.9000E+01
       25  1    1    2    0    0 0.23943378E+03 -.58097784E+03 -.43548598E+03 0.77468498E+03 0.12500000E+03 0.0000E+00 0.9000E+01
        1  1    1    2  502    0 -.39034962E+02 0.25132172E+02 -.20245244E+04 0.20250566E+04 0.32000000E+00 0.0000E+00 0.9000E+01
       -1  1    1    2    0  501 -.18744278E+03 0.57945128E+03 0.64657685E+03 0.88823437E+03 0.32000000E+00 0.0000E+00 0.9000E+01
       21  1    1    2  501  503 -.12956039E+02 -.23605611E+02 0.82450754E+02 0.86739687E+02 0.75000000E+00 0.0000E+00 0.9000E+01
#aMCatNLO 2  0  0  1  5 0.26927380D+02 0.00000000D+00  -5  6  0 0.00000000D+00 0.00000000D+00 0.00000000D+00 0.00000000D+00 0.00000000D+00
  <mgrwgt>
 -.2528828953D-02    6    2    0
 0.160560741844065D+04 0.000000000000000D+00 0.000000000000000D+00 0.160560741844065D+04
 0.160560741844065D+04 0.000000000000000D+00 0.000000000000000D+00 -.160560741844065D+04
 0.647058415461624D+03 0.236828541505837D+03 -.585709801875702D+03 -.625768562221800D+02
 0.118245071030449D+04 -.438087689428760D+02 0.164419704894586D+02 -.118152449643236D+04
 0.138170571111518D+04 -.193019772562961D+03 0.569267831386244D+03 0.124410135265454D+04
 0.000000000000000D+00 -.000000000000000D+00 -.000000000000000D+00 0.000000000000000D+00
 0.175058510256972D+04 0.000000000000000D+00 0.000000000000000D+00 0.175058510256972D+04
 0.160691469073908D+04 0.000000000000000D+00 0.000000000000000D+00 -.160691469073908D+04
 0.643731130349185D+03 0.239432419798650D+03 -.580965594157994D+03 -.625768562221800D+02
 0.118243639467351D+04 -.390381398208858D+02 0.251339495121867D+02 -.118152449643236D+04
 0.138516020855079D+04 -.187438241374764D+03 0.579437255745577D+03 0.124410135265454D+04
 0.146172059735309D+03 -.129560386030007D+02 -.236056110997696D+02 0.143670411830643D+03
-.951769359116D-10 0.000000000000D+00 0.000000000000D+00 0.448605127252D-03 0.000000000000D+00  6 -2 2 25 1 -1 21 2 0.15726582D+00 0.42317047D+00 0.43760797D+06 0.43760797D+06 0.43760797D+06 0.10726256D+01  1  2 13  1  6  1       -2 -.881486909227D-11 0.100000000000D+01
-.780193318048D-01 0.000000000000D+00 0.000000000000D+00 0.448605127252D-03 0.000000000000D+00  6 -2 2 25 1 -1 21 2 0.15862089D+00 0.42317047D+00 0.43760797D+06 0.43760797D+06 0.43760797D+06 0.10726256D+01  1  2 13  1  6  1       -2 -.705248576527D-02 0.100000000000D+01
-.183342969630D-02 0.000000000000D+00 0.000000000000D+00 0.448605127252D-03 0.000000000000D+00  6 -2 2 25 1 -1 21 2 0.14419051D+00 0.42317047D+00 0.41726372D+06 0.41726372D+06 0.41726372D+06 0.10741072D+01  1  2  8  1  6  1       -2 -.217584511741D-03 0.100000000000D+01
-.317657250401D-02 0.000000000000D+00 0.000000000000D+00 0.448605127252D-03 0.000000000000D+00  6 -2 2 25 1 -1 21 2 0.15726263D+00 0.42317047D+00 0.41726372D+06 0.41726372D+06 0.41726372D+06 0.10741072D+01  1  2  9  1  6  1       -2 -.296358087225D-03 0.100000000000D+01
0.316464841493D-02 0.000000000000D+00 0.000000000000D+00 0.448605127252D-03 0.000000000000D+00  6 -2 2 25 1 -1 21 2 0.14419051D+00 0.42317047D+00 0.41726372D+06 0.41726372D+06 0.41726372D+06 0.10741072D+01  1  2 10  1  6  1       -2 0.375568521433D-03 0.100000000000D+01
0.504446509891D-01 0.000000000000D+00 0.000000000000D+00 0.448605127252D-03 0.222099811904D-05  6 -2 2 25 1 -1 21 2 0.15721013D+00 0.42351501D+00 0.43760797D+06 0.43760797D+06 0.43760797D+06 0.10726256D+01  1  2  1  1  6  1       -2 0.466203089859D-02 0.100000000000D+01
  </mgrwgt>
  </event>
  <event>
  6     66 -.17652913E-05 0.10522114E+03 0.75467711E-02 0.94051777E-01
       -2 -1    0    0    0  501 0.00000000E+00 0.00000000E+00 0.46891601E+03 0.46891612E+03 0.32000000E+00 0.0000E+00 0.9000E+01
        2 -1    0    0  503    0 0.00000000E+00 0.00000000E+00 -.16138067E+04 0.16138067E+04 0.32000000E+00 0.0000E+00 0.9000E+01
       25  1    1    2    0    0 0.43878984E+02 -.45951492E+03 -.79648772E+03 0.92903015E+03 0.12500000E+03 0.0000E+00 0.9000E+01
        1  1    1    2  502    0 0.36377936E+02 0.41662784E+03 -.53636086E+03 0.68013616E+03 0.32000000E+00 0.0000E+00 0.9000E+01
       -1  1    1    2    0  501 -.99810072E+02 0.70240712E+02 0.31727364E+03 0.33993892E+03 0.32000000E+00 0.0000E+00 0.9000E+01
       21  1    1    2  503  502 0.19553152E+02 -.27353633E+02 -.12931573E+03 0.13361761E+03 0.75000000E+00 0.0000E+00 0.9000E+01
#aMCatNLO 2  0  0  2  4 0.33623608D+02 0.00000000D+00  -5  6  0 0.00000000D+00 0.00000000D+00 0.00000000D+00 0.00000000D+00 0.00000000D+00
  <mgrwgt>
 -.8901256057D-02    4    2    0
 0.831638168247697D+03 0.000000000000000D+00 0.000000000000000D+00 0.831638168247697D+03
 0.831638168247697D+03 0.000000000000000D+00 0.000000000000000D+00 -.831638168247697D+03
 0.610448415056383D+03 0.510008937936288D+02 -.469551981847067D+03 -.365981027678475D+03
 0.463151544183076D+03 0.418521707196998D+02 0.409034913253881D+03 -.213185807277613D+03
 0.589676377255933D+03 -.928530645133286D+02 0.605170685931863D+02 0.579166834956089D+03
 0.000000000000000D+00 0.000000000000000D+00 -.000000000000000D+00 -.000000000000000D+00
 0.835639405423195D+03 0.000000000000000D+00 0.000000000000000D+00 0.835639405423195D+03
 0.905578018838092D+03 0.000000000000000D+00 0.000000000000000D+00 -.905578018838092D+03
 0.602251498101797D+03 0.438734902980762D+02 -.459581191079803D+03 -.365981027678475D+03
 0.469481002208526D+03 0.363708076890829D+02 0.416702996579288D+03 -.213185807277613D+03
 0.591883656904540D+03 -.997974495390922D+02 0.702318279922317D+02 0.579166834956089D+03
 0.776012670464244D+02 0.195531515519331D+02 -.273536334917161D+02 -.699386134148974D+02
-.379528132849D-07 0.000000000000D+00 0.000000000000D+00 0.268269486783D-05 0.000000000000D+00  6 -2 2 25 1 -1 21 2 0.71795353D-01 0.24879730D+00 0.27680088D+06 0.27680088D+06 0.27680088D+06 0.10871474D+01  1  2 13  2  6  2        2 -.113332500880D-06 0.100000000000D+01
-.541536812758D-02 0.000000000000D+00 0.000000000000D+00 0.268269486783D-05 0.000000000000D+00  6 -2 2 25 1 -1 21 2 0.71795353D-01 0.25197554D+00 0.27680088D+06 0.27680088D+06 0.27680088D+06 0.10871474D+01  1  2 13  2  6  2        2 -.157571977766D-01 0.100000000000D+01
-.865161562320D-04 0.000000000000D+00 0.000000000000D+00 0.268269486783D-05 0.000000000000D+00  6 -2 2 25 1 -1 21 2 0.71795353D-01 0.22800574D+00 0.25531714D+06 0.25531714D+06 0.25531714D+06 0.10897722D+01  1  2  8  2  6  2        2 -.309077121993D-03 0.100000000000D+01
0.241444680249D-02 0.000000000000D+00 0.000000000000D+00 0.268269486783D-05 0.615918635840D-08  6 -2 2 25 1 -1 21 2 0.72140780D-01 0.24827743D+00 0.27680088D+06 0.27680088D+06 0.27680088D+06 0.10871474D+01  1  2  1  2  6  2        2 0.716513217355D-02 0.100000000000D+01
  </mgrwgt>
  </event>
  <event>
  5     66 0.17652913E-05 0.38541660E+02 0.75467711E-02 0.93913858E-01
       -2 -1    0    0    0  501 0.00000000E+00 0.00000000E+00 0.52635613E+03 0.52635623E+03 0.32000000E+00 0.0000E+00 0.9000E+01
        2 -1    0    0  502    0 -.00000000E+00 -.00000000E+00 -.18591415E+04 0.18591415E+04 0.32000000E+00 0.0000E+00 0.9000E+01
       25  1    1    2    0    0 -.43538293E+03 -.29344416E+03 0.15036037E+03 0.56026870E+03 0.12500000E+03 0.0000E+00 0.9000E+01
        1  1    1    2  502    0 0.27664314E+02 0.26826784E+02 -.13064524E+04 0.13070206E+04 0.32000000E+00 0.0000E+00 0.9000E+01
       -1  1    1    2    0  501 0.40771861E+03 0.26661738E+03 -.17669331E+03 0.51820838E+03 0.32000000E+00 0.0000E+00 0.9000E+01
#aMCatNLO 1  0  0  4  2 0.22826586D+01 0.00000000D+00  -5  6  0 0.00000000D+00 0.00000000D+00 0.00000000D+00 0.00000000D+00 0.00000000D+00
  <mgrwgt>
 0.7578138076D-02    9    2    0
 0.989227302009841D+03 0.000000000000000D+00 0.000000000000000D+00 0.989227302009841D+03
 0.989227302009841D+03 -.000000000000000D+00 -.000000000000000D+00 -.989227302009841D+03
 0.776851932582457D+03 -.435270197748766D+03 -.293371781571251D+03 0.558879931547518D+03
 0.695953976367818D+03 0.276687073040838D+02 0.268309931340467D+02 -.694885945796674D+03
 0.505648695069407D+03 0.407601490444682D+03 0.266540788437205D+03 0.136006014249156D+03
 0.000000000000000D+00 0.000000000000000D+00 0.000000000000000D+00 0.000000000000000D+00
 0.989227302009841D+03 0.000000000000000D+00 0.000000000000000D+00 0.989227302009841D+03
 0.989227302009841D+03 -.000000000000000D+00 -.000000000000000D+00 -.989227302009841D+03
 0.776846954681982D+03 -.435269935674661D+03 -.293371527431857D+03 0.558873349685548D+03
 0.462373183270862D+03 0.184238843389457D+02 0.155449354090056D+02 -.461744383914981D+03
 0.505647767478654D+03 0.407601661027681D+03 0.266540953855531D+03 0.136001730141224D+03
 0.233586698588184D+03 0.924439030803432D+01 0.112856381673200D+02 -.233130695911791D+03
0.446651145428D-05 0.000000000000D+00 0.000000000000D+00 0.109394970536D-04 0.000000000000D+00  6 -2 2 25 1 -1 21 0 0.80977876D-01 0.28602177D+00 0.28363142D+06 0.28363142D+06 0.28363142D+06 0.10863593D+01  1  2  2  3  6  4        1 0.637184305238D-05 0.100000000000D+01
0.235879843735D-05 0.000000000000D+00 -.171525800439D-07 0.109394970536D-04 0.000000000000D+00  6 -2 2 25 1 -1 21 2 0.80977876D-01 0.28602177D+00 0.28363142D+06 0.28363142D+06 0.28363142D+06 0.10863593D+01  1  2  3  3  6  4        1 0.397131544308D-05 0.100000000000D+01
-.268675443201D-05 0.000000000000D+00 0.000000000000D+00 0.109394970536D-04 0.000000000000D+00  6 -2 2 25 1 -1 21 2 0.80977876D-01 0.28602177D+00 0.28363142D+06 0.28363142D+06 0.28363142D+06 0.10863593D+01  1  2 15  3  6  4        1 -.452346804995D-05 0.100000000000D+01
0.581681214464D-10 0.000000000000D+00 0.000000000000D+00 0.109394970536D-04 0.000000000000D+00  6 -2 2 25 1 -1 21 2 0.80977876D-01 0.28602177D+00 0.28371260D+06 0.28371260D+06 0.28371260D+06 0.10863500D+01  1  2 12  3  6  4        1 0.979295164489D-10 0.100000000000D+01
0.632770046285D-04 0.000000000000D+00 0.000000000000D+00 0.109394970536D-04 0.000000000000D+00  6 -2 2 25 1 -1 21 2 0.80977876D-01 0.28602177D+00 0.28371260D+06 0.28371260D+06 0.28371260D+06 0.10863500D+01  1  2 12  3  6  4        1 0.106530627284D-03 0.100000000000D+01
-.218369871171D-01 0.000000000000D+00 0.000000000000D+00 0.109394970536D-04 0.000000000000D+00  6 -2 2 25 1 -1 21 2 0.80977876D-01 0.28602177D+00 0.28363142D+06 0.28363142D+06 0.28363142D+06 0.10863593D+01  1  2  4  3  6  4        1 -.367651439799D-01 0.100000000000D+01
-.226987627210D-01 0.000000000000D+00 0.000000000000D+00 0.109394970536D-04 0.000000000000D+00  6 -2 2 25 1 -1 21 2 0.80977876D-01 0.28602177D+00 0.28363142D+06 0.28363142D+06 0.28363142D+06 0.10863593D+01  1  2  5  3  6  4        1 -.382160448750D-01 0.100000000000D+01
0.314958648915D-01 0.000000000000D+00 -.000000000000D+00 0.109394970536D-04 0.000000000000D+00  6 -2 2 25 1 -1 21 2 0.80977876D-01 0.28602177D+00 0.28363142D+06 0.28363142D+06 0.28363142D+06 0.10863593D+01  1  2  6  3  6  4        1 0.530270041969D-01 0.100000000000D+01
0.174748593153D-01 0.000000000000D+00 0.000000000000D+00 0.109394970536D-04 0.490514906931D-05  6 -2 2 25 1 -1 21 2 0.80977876D-01 0.28602177D+00 0.28371260D+06 0.28371260D+06 0.28371260D+06 0.10863500D+01  1  2 11  3  6  4        1 0.294199723183D-01 0.100000000000D+01
  </mgrwgt>
  </event>
  <event>
  5     66 0.17652913E-05 0.12067450E+02 0.75467711E-02 0.92873933E-01
       -2 -1    0    0    0  501 0.00000000E+00 0.00000000E+00 0.48212749E+03 0.48212759E+03 0.32000000E+00 0.0000E+00 0.9000E+01
        2 -1    0    0  502    0 0.00000000E+00 0.00000000E+00 -.23041867E+04 0.23041867E+04 0.32000000E+00 0.0000E+00 0.9000E+01
       25  1    1    2    0    0 0.51472100E+03 0.25294557E+03 -.89855969E+03 0.10732910E+04 0.12500000E+03 0.0000E+00 0.9000E+01
        1  1    1    2  502    0 -.50272613E+03 -.25427969E+03 -.12579561E+04 0.13783488E+04 0.32000000E+00 0.0000E+00 0.9000E+01
       -1  1    1    2    0  501 -.11994870E+02 0.13341168E+01 0.33445661E+03 0.33467445E+03 0.32000000E+00 0.0000E+00 0.9000E+01
#aMCatNLO 1  0  0  2  4 0.62538790D+01 0.00000000D+00  -5  6  0 0.00000000D+00 0.00000000D+00 0.00000000D+00 0.00000000D+00 0.00000000D+00
  <mgrwgt>
 0.1875888169D-01   13    2    0
 0.105399806400886D+04 0.000000000000000D+00 0.000000000000000D+00 0.105399806400886D+04
 0.105399806400886D+04 0.000000000000000D+00 0.000000000000000D+00 -.105399806400886D+04
 0.642028137228530D+03 0.514787784024127D+03 0.252979463248425D+03 -.259942412059295D+03
 0.734595220075953D+03 -.502794289876005D+03 -.254313427028149D+03 -.471330797062657D+03
 0.731372770713242D+03 -.119934941481223D+02 0.133396377972457D+01 0.731273209121952D+03
 0.000000000000000D+00 0.000000000000000D+00 0.000000000000000D+00 -.000000000000000D+00
 0.105476748808593D+04 0.000000000000000D+00 0.000000000000000D+00 0.105476748808593D+04
 0.106678765782396D+04 0.000000000000000D+00 0.000000000000000D+00 -.106678765782396D+04
 0.640456283412499D+03 0.513525921267682D+03 0.251555802082810D+03 -.259942412059295D+03
 0.736152492369835D+03 -.504241388751120D+03 -.255946075634967D+03 -.471330797062657D+03
 0.731396629035419D+03 -.134327429975457D+02 -.289828256385208D+00 0.731273209121952D+03
 0.135497410921363D+02 0.414821048098463D+01 0.468010180854287D+01 -.120201697380300D+02
0.162477684558D-02 0.000000000000D+00 0.000000000000D+00 0.700115278132D-04 0.000000000000D+00  6 -2 2 25 1 -1 21 0 0.74173469D-01 0.35449027D+00 0.33789272D+06 0.33789272D+06 0.33789272D+06 0.10807506D+01  1  2  2  2  6  2        2 0.158161682448D-02 0.100000000000D+01
0.184725450934D-02 0.000000000000D+00 -.623957090058D-05 0.700115278132D-04 0.000000000000D+00  6 -2 2 25 1 -1 21 2 0.74173469D-01 0.35449027D+00 0.33789272D+06 0.33789272D+06 0.33789272D+06 0.10807506D+01  1  2  3  2  6  2        2 0.210031891041D-02 0.100000000000D+01
-.114480004955D-02 0.000000000000D+00 0.000000000000D+00 0.700115278132D-04 0.000000000000D+00  6 -2 2 25 1 -1 21 2 0.74173469D-01 0.35449027D+00 0.33789272D+06 0.33789272D+06 0.33789272D+06 0.10807506D+01  1  2 15  2  6  2        2 -.130163178953D-02 0.100000000000D+01
0.216397975290D-09 0.000000000000D+00 0.000000000000D+00 0.700115278132D-04 0.000000000000D+00  6 -2 2 25 1 -1 21 2 0.74173469D-01 0.35892033D+00 0.34251898D+06 0.34251898D+06 0.34251898D+06 0.10803186D+01  1  2 12  2  6  2        2 0.236567524456D-09 0.100000000000D+01
0.308859409506D-02 0.000000000000D+00 0.000000000000D+00 0.700115278132D-04 0.000000000000D+00  6 -2 2 25 1 -1 21 2 0.74173469D-01 0.35982949D+00 0.34251898D+06 0.34251898D+06 0.34251898D+06 0.10803186D+01  1  2 12  2  6  2        2 0.335049049369D-02 0.100000000000D+01
-.144371216634D-01 0.000000000000D+00 0.000000000000D+00 0.700115278132D-04 0.000000000000D+00  6 -2 2 25 1 -1 21 2 0.74173469D-01 0.35449027D+00 0.33789272D+06 0.33789272D+06 0.33789272D+06 0.10807506D+01  1  2  4  2  6  2        2 -.164149333447D-01 0.100000000000D+01
-.368621766366D+00 0.000000000000D+00 -.235138705424D-01 0.700115278132D-04 0.000000000000D+00  6 -2 2 25 1 -1 21 2 0.74173469D-01 0.35887837D+00 0.33789272D+06 0.33789272D+06 0.33789272D+06 0.10807506D+01  1  2  5  2  6  2        2 -.403819263438D+00 0.100000000000D+01
0.368884911858D+00 0.000000000000D+00 0.235120911830D-01 0.700115278132D-04 0.000000000000D+00  6 -2 2 25 1 -1 21 2 0.74173469D-01 0.35449027D+00 0.33789272D+06 0.33789272D+06 0.33789272D+06 0.10807506D+01  1  2  6  2  6  2        2 0.419420254342D+00 0.100000000000D+01
0.127184405356D-01 0.000000000000D+00 0.000000000000D+00 0.700115278132D-04 0.485384210620D-05  6 -2 2 25 1 -1 21 2 0.74227617D-01 0.35879178D+00 0.34251898D+06 0.34251898D+06 0.34251898D+06 0.10803186D+01  1  2 11  2  6  2        2 0.138966798097D-01 0.100000000000D+01
0.238278792006D-10 0.000000000000D+00 0.000000000000D+00 0.700115278132D-04 0.000000000000D+00  6 -2 21 25 1 -1 -2 2 0.74173469D-01 0.35892033D+00 0.34251898D+06 0.34251898D+06 0.34251898D+06 0.10803186D+01  1  2 12  6  6  2        2 0.360356642374D-11 0.100000000000D+01
0.407830348613D-03 0.000000000000D+00 0.000000000000D+00 0.700115278132D-04 0.000000000000D+00  6 -2 21 25 1 -1 -2 2 0.74173469D-01 0.35982949D+00 0.34251898D+06 0.34251898D+06 0.34251898D+06 0.10803186D+01  1  2 12  6  6  2        2 0.608220397035D-04 0.100000000000D+01
-.833524717821D-03 0.000000000000D+00 -.532532133858D-04 0.700115278132D-04 0.000000000000D+00  6 -2 21 25 1 -1 -2 2 0.74173469D-01 0.35887837D+00 0.33789272D+06 0.33789272D+06 0.33789272D+06 0.10807506D+01  1  2  5  6  6  2        2 -.126446956373D-03 0.100000000000D+01
0.725406226184D-04 0.000000000000D+00 0.000000000000D+00 0.700115278132D-04 0.242949278322D-07  6 -2 21 25 1 -1 -2 2 0.74227617D-01 0.35879178D+00 0.34251898D+06 0.34251898D+06 0.34251898D+06 0.10803186D+01  1  2 11  6  6  2        2 0.109745578184D-04 0.100000000000D+01
  </mgrwgt>
  </event>
  <event>
  5     66 0.17652913E-05 0.35035770E+02 0.75467711E-02 0.94883127E-01
       -2 -1    0    0    0  501 0.00000000E+00 0.00000000E+00 0.51389269E+03 0.51389279E+03 0.32000000E+00 0.0000E+00 0.9000E+01
        2 -1    0    0  502    0 -.00000000E+00 -.00000000E+00 -.20703180E+04 0.20703180E+04 0.32000000E+00 0.0000E+00 0.9000E+01
       25  1    1    2    0    0 0.44852578E+03 0.59643415E+02 -.37115359E+03 0.59842518E+03 0.12500000E+03 0.0000E+00 0.9000E+01
        1  1    1    2  502    0 -.46419866E+03 -.90982320E+02 -.15493875E+04 0.16199877E+04 0.32000000E+00 0.0000E+00 0.9000E+01
       -1  1    1    2    0  501 0.15672882E+02 0.31338905E+02 0.36411579E+03 0.36579800E+03 0.32000000E+00 0.0000E+00 0.9000E+01
#aMCatNLO 1  0  0  4  5 0.72537209D+02 0.00000000D+00  -5  6  0 0.00000000D+00 0.00000000D+00 0.00000000D+00 0.00000000D+00 0.00000000D+00
  <mgrwgt>
 0.4800450188D-01    4    2    0
 0.103146568320953D+04 0.000000000000000D+00 0.000000000000000D+00 0.103146568320953D+04
 0.103146568320953D+04 -.000000000000000D+00 -.000000000000000D+00 -.103146568320953D+04
 0.469675468920154D+03 0.448588759465131D+03 0.596571743387671D+02 -.133862816650465D+02
 0.860387436200776D+03 -.464259975205620D+03 -.909927482700074D+02 -.718644234344430D+03
 0.732868461298128D+03 0.156712157404897D+02 0.313355739312404D+02 0.732030516009477D+03
 0.000000000000000D+00 0.000000000000000D+00 0.000000000000000D+00 0.000000000000000D+00
 0.103146568320953D+04 0.000000000000000D+00 0.000000000000000D+00 0.103146568320953D+04
 0.103146568320953D+04 -.000000000000000D+00 -.000000000000000D+00 -.103146568320953D+04
 0.430952473535543D+03 0.399506902042779D+03 0.500373635957058D+02 -.893618034227989D+02
 0.699696143518790D+03 -.588961372063210D+03 -.135911794253429D+03 -.352458763056477D+03
 0.620793022314358D+03 -.580997798113888D+02 0.168768094751683D+02 0.617837814836549D+03
 0.311489727050367D+03 0.247554249831820D+03 0.689976211825553D+02 -.176017248357273D+03
0.495554040223D-01 0.000000000000D+00 0.000000000000D+00 0.205996836328D-03 0.000000000000D+00  6 -2 2 25 1 -1 21 0 0.79060423D-01 0.31851047D+00 0.23893202D+06 0.23893202D+06 0.23893202D+06 0.10919416D+01  1  2  2  3  6  4        1 0.578193381198D-01 0.100000000000D+01
0.276845453306D-01 0.000000000000D+00 -.190305799683D-03 0.205996836328D-03 0.000000000000D+00  6 -2 2 25 1 -1 21 2 0.79060423D-01 0.31851047D+00 0.23893202D+06 0.23893202D+06 0.23893202D+06 0.10919416D+01  1  2  3  3  6  4        1 0.385139749901D-01 0.100000000000D+01
-.338880615735D-01 0.000000000000D+00 0.000000000000D+00 0.205996836328D-03 0.000000000000D+00  6 -2 2 25 1 -1 21 2 0.79060423D-01 0.31851047D+00 0.23893202D+06 0.23893202D+06 0.23893202D+06 0.10919416D+01  1  2 15  3  6  4        1 -.471441354848D-01 0.100000000000D+01
-.851566463761D-03 0.000000000000D+00 0.000000000000D+00 0.205996836328D-03 0.000000000000D+00  6 -2 2 25 1 -1 21 2 0.79060423D-01 0.31851047D+00 0.23893202D+06 0.23893202D+06 0.23893202D+06 0.10919416D+01  1  2  4  3  6  4        1 -.118467574945D-02 0.100000000000D+01
  </mgrwgt>
  </event>
  <event>
  6     66 0.17652913E-05 0.20250352E+03 0.75467711E-02 0.90732736E-01
       21 -1    0    0  503  501 0.00000000E+00 0.00000000E+00 0.14981919E+04 0.14981920E+04 0.75000000E+00 0.0000E+00 0.9000E+01
        2 -1    0    0  502    0 0.00000000E+00 0.00000000E+00 -.41196652E+03 0.41196664E+03 0.32000000E+00 0.0000E+00 0.9000E+01
       25  1    1    2    0    0 -.41947074E+03 -.22887294E+03 0.15963947E+03 0.51908408E+03 0.12500000E+03 0.0000E+00 0.9000E+01
        1  1    1    2  502    0 0.27358458E+02 0.78044247E+02 -.44042894E+02 0.93697751E+02 0.32000000E+00 0.0000E+00 0.9000E+01
        2  1    1    2  503    0 -.86475716E+02 -.22800832E+03 0.20764307E+03 0.32028361E+03 0.32000000E+00 0.0000E+00 0.9000E+01
       -1  1    1    2    0  501 0.47858800E+03 0.37883701E+03 0.76298569E+03 0.97709325E+03 0.32000000E+00 0.0000E+00 0.9000E+01
#aMCatNLO 2  0  0  1  5 0.26064144D+03 0.00000000D+00  -5  6  0 0.00000000D+00 0.00000000D+00 0.00000000D+00 0.00000000D+00 0.00000000D+00
  <mgrwgt>
 0.6078261841D-05    1    2    0
 0.651216194519454D+03 0.000000000000000D+00 0.000000000000000D+00 0.651216194519454D+03
 0.651216194519454D+03 0.000000000000000D+00 0.000000000000000D+00 -.651216194519454D+03
 0.593870439500367D+03 -.456028767034679D+03 -.325270292207766D+03 -.152624046454889D+03
 0.128616244144476D+03 0.184661408161921D+02 0.545967123994849D+02 -.114979732546027D+03
 0.000000000000000D+00 -.000000000000000D+00 -.000000000000000D+00 0.000000000000000D+00
 0.579945705394066D+03 0.437562626218487D+03 0.270673579808281D+03 0.267603779000916D+03
 0.804227307474966D+03 0.000000000000000D+00 0.000000000000000D+00 0.804227307474966D+03
 0.767450958703284D+03 0.000000000000000D+00 0.000000000000000D+00 -.767450958703284D+03
 0.516968792931894D+03 -.419469021568615D+03 -.228874142824094D+03 -.152624046454889D+03
 0.141635143639830D+03 0.273606069646474D+02 0.780485246756500D+02 -.114979732546027D+03
 0.246613750686214D+03 -.864757160513598D+02 -.228008317242924D+03 0.367763487716819D+02
 0.666460578920313D+03 0.478584130655328D+03 0.378833935391368D+03 0.267603779000916D+03
0.992312773787D-06 0.000000000000D+00 0.000000000000D+00 0.433493027463D-06 0.195408064763D-12  6 21 2 25 1 2 -1 2 0.23049105D+00 0.63379480D-01 0.51184188D+06 0.51184188D+06 0.51184188D+06 0.10677927D+01  1  2  1  5  5  1       -2 0.607826184133D-05 0.100000000000D+01
  </mgrwgt>
  </event>
  <event>
  5     66 0.17652913E-05 0.23364433E+02 0.75467711E-02 0.92426581E-01
       -2 -1    0    0    0  501 0.00000000E+00 0.00000000E+00 0.91563444E+03 0.91563449E+03 0.32000000E+00 0.0000E+00 0.9000E+01
        2 -1    0    0  502    0 0.00000000E+00 0.00000000E+00 -.26110751E+04 0.26110751E+04 0.32000000E+00 0.0000E+00 0.9000E+01
       25  1    1    2    0    0 -.46523508E+03 -.17531946E+03 0.29612447E+03 0.59202643E+03 0.12500000E+03 0.0000E+00 0.9000E+01
        1  1    1    2  502    0 0.48553238E+03 0.18690163E+03 -.24353406E+04 0.24902927E+04 0.32000000E+00 0.0000E+00 0.9000E+01
       -1  1    1    2    0  501 -.20297300E+02 -.11582169E+02 0.44377546E+03 0.44439047E+03 0.32000000E+00 0.0000E+00 0.9000E+01
#aMCatNLO 1  0  0  1  5 0.30897673D+02 0.00000000D+00  -5  6  0 0.00000000D+00 0.00000000D+00 0.00000000D+00 0.00000000D+00 0.00000000D+00
  <mgrwgt>
 0.4083993882D-01    7    4    0
 0.154621810491947D+04 0.000000000000000D+00 0.000000000000000D+00 0.154621810491947D+04
 0.154621810491947D+04 0.000000000000000D+00 0.000000000000000D+00 -.154621810491947D+04
 0.837666918641258D+03 -.465287562299465D+03 -.175340387295691D+03 0.662437996750154D+03
 0.150482926114567D+04 0.485580582133299D+03 0.186920113505214D+03 -.141201397819657D+04
 0.749940030052018D+03 -.202930198338346D+02 -.115797262095237D+02 0.749575981446416D+03
 0.000000000000000D+00 -.000000000000000D+00 0.000000000000000D+00 0.000000000000000D+00
 0.187159286137307D+04 0.000000000000000D+00 0.000000000000000D+00 0.187159286137307D+04
 0.156184560047564D+04 0.000000000000000D+00 0.000000000000000D+00 -.156184560047564D+04
 0.830895423653726D+03 -.441332972300479D+03 -.202887439411049D+03 0.662437996750154D+03
 0.151404480709853D+04 0.528920821050531D+03 0.137080152971738D+03 -.141201397819657D+04
 0.750457903476519D+03 0.124733045572481D+01 -.363504758668835D+02 0.749575981446416D+03
 0.338040327619930D+03 -.888351792057769D+02 0.102157762306195D+03 0.309747260897426D+03
 0.154621810491947D+04 0.000000000000000D+00 0.000000000000000D+00 0.154621810491947D+04
 0.154621810491947D+04 0.000000000000000D+00 0.000000000000000D+00 -.154621810491947D+04
 0.837666918641258D+03 -.465287562299465D+03 -.175340387295691D+03 0.662437996750154D+03
 0.150482926114567D+04 0.485580582133299D+03 0.186920113505214D+03 -.141201397819657D+04
 0.000000000000000D+00 -.000000000000000D+00 0.000000000000000D+00 0.000000000000000D+00
 0.749940030052018D+03 -.202930198338346D+02 -.115797262095237D+02 0.749575981446416D+03
 0.187159286137307D+04 0.000000000000000D+00 0.000000000000000D+00 0.187159286137307D+04
 0.156184560047564D+04 0.000000000000000D+00 0.000000000000000D+00 -.156184560047564D+04
 0.830895423653726D+03 -.441332972300479D+03 -.202887439411049D+03 0.662437996750154D+03
 0.151404480709853D+04 0.528920821050531D+03 0.137080152971738D+03 -.141201397819657D+04
 0.338040327619930D+03 -.888351792057769D+02 0.102157762306195D+03 0.309747260897426D+03
 0.750457903476519D+03 0.124733045572481D+01 -.363504758668835D+02 0.749575981446416D+03
0.499177347481D-01 0.000000000000D+00 0.000000000000D+00 0.105754059925D-02 0.000000000000D+00  6 -2 2 25 1 -1 21 0 0.14086684D+00 0.40170387D+00 0.27898459D+06 0.27898459D+06 0.27898459D+06 0.10868932D+01  1  2  2  1  6  1       -2 0.687248345480D-02 0.100000000000D+01
0.302863509310D-01 0.000000000000D+00 -.191697245074D-03 0.105754059925D-02 0.000000000000D+00  6 -2 2 25 1 -1 21 2 0.14086684D+00 0.40170387D+00 0.27898459D+06 0.27898459D+06 0.27898459D+06 0.10868932D+01  1  2  3  1  6  1       -2 0.492583078764D-02 0.100000000000D+01
-.347280120823D-01 0.000000000000D+00 0.000000000000D+00 0.105754059925D-02 0.000000000000D+00  6 -2 2 25 1 -1 21 2 0.14086684D+00 0.40170387D+00 0.27898459D+06 0.27898459D+06 0.27898459D+06 0.10868932D+01  1  2 15  1  6  1       -2 -.564823116190D-02 0.100000000000D+01
-.113223475089D-02 0.000000000000D+00 0.000000000000D+00 0.105754059925D-02 0.000000000000D+00  6 -2 2 25 1 -1 21 2 0.14086684D+00 0.40170387D+00 0.27898459D+06 0.27898459D+06 0.27898459D+06 0.10868932D+01  1  2  4  1  6  1       -2 -.184148853307D-03 0.100000000000D+01
-.732835115737D+00 0.000000000000D+00 -.700757680256D-01 0.105754059925D-02 0.000000000000D+00  6 -2 2 25 1 -1 21 2 0.17122504D+00 0.40170387D+00 0.27898459D+06 0.27898459D+06 0.27898459D+06 0.10868932D+01  1  2  5  1  6  1       -2 -.690440802907D-01 0.100000000000D+01
0.733805731164D+00 0.000000000000D+00 0.687620717982D-01 0.105754059925D-02 0.000000000000D+00  6 -2 2 25 1 -1 21 2 0.14086684D+00 0.40170387D+00 0.27898459D+06 0.27898459D+06 0.27898459D+06 0.10868932D+01  1  2  6  1  6  1       -2 0.119347585681D+00 0.100000000000D+01
-.198067696897D-01 0.000000000000D+00 -.196796184866D-02 0.105754059925D-02 0.000000000000D+00  6 21 2 25 1 2 -1 2 0.17122504D+00 0.40170387D+00 0.27898459D+06 0.27898459D+06 0.27898459D+06 0.10868932D+01  3  4  5  5  5  1       -2 -.154295007982D-01 0.100000000000D+01
  </mgrwgt>
  </event>
  <event>
  5     66 0.17652913E-05 0.99137878E+02 0.75467711E-02 0.93316475E-01
       -2 -1    0    0    0  501 0.00000000E+00 0.00000000E+00 0.11990390E+04 0.11990390E+04 0.32000000E+00 0.0000E+00 0.9000E+01
        2 -1    0    0  502    0 0.00000000E+00 0.00000000E+00 -.92568204E+03 0.92568210E+03 0.32000000E+00 0.0000E+00 0.9000E+01
       25  1    1    2    0    0 0.19820840E+02 -.53247522E+03 0.65346975E+02 0.55119684E+03 0.12500000E+03 0.0000E+00 0.9000E+01
        1  1    1    2  502    0 0.59093731E+02 0.47244785E+03 -.59633266E+03 0.76309356E+03 0.32000000E+00 0.0000E+00 0.9000E+01
       -1  1    1    2    0  501 -.78914571E+02 0.60027370E+02 0.80434262E+03 0.81043072E+03 0.32000000E+00 0.0000E+00 0.9000E+01
#aMCatNLO 1  0  0  4  2 0.27111845D+02 0.00000000D+00  -5  6  0 0.00000000D+00 0.00000000D+00 0.00000000D+00 0.00000000D+00 0.00000000D+00
  <mgrwgt>
 0.2434935599D-02    8    2    0
 0.105353165764366D+04 0.000000000000000D+00 0.000000000000000D+00 0.105353165764366D+04
 0.105353165764366D+04 -.000000000000000D+00 -.000000000000000D+00 -.105353165764366D+04
 0.547394798440754D+03 0.198072727859705D+02 -.532534649479072D+03 -.553031725829094D+01
 0.846886275778101D+03 0.590973605290075D+02 0.472514838965038D+03 -.700323920081023D+03
 0.712782241068460D+03 -.789046333149780D+02 0.600198105140346D+02 0.705854237339314D+03
 0.000000000000000D+00 0.000000000000000D+00 0.000000000000000D+00 0.000000000000000D+00
 0.105353165764366D+04 0.000000000000000D+00 0.000000000000000D+00 0.105353165764366D+04
 0.105353165764366D+04 -.000000000000000D+00 -.000000000000000D+00 -.105353165764366D+04
 0.547129453954429D+03 0.198421045818867D+02 -.532256150739181D+03 -.594308594442411D+01
 0.554943470337405D+03 0.593420555990236D+02 0.293948316591727D+03 -.466942354986453D+03
 0.712275673439641D+03 -.788592827196501D+02 0.603824126515328D+02 0.705316817285123D+03
 0.292714717555841D+03 -.324877461260158D+00 0.177925421495922D+03 -.232431376354246D+03
0.207440627758D-03 0.000000000000D+00 0.000000000000D+00 0.277453987540D-04 0.000000000000D+00  6 -2 2 25 1 -1 21 0 0.18446754D+00 0.14241263D+00 0.31511432D+06 0.31511432D+06 0.31511432D+06 0.10829761D+01  1  2  2  3  6  4        1 0.118363638243D-03 0.100000000000D+01
0.511451612357D-04 0.000000000000D+00 -.796626630962D-06 0.277453987540D-04 0.000000000000D+00  6 -2 2 25 1 -1 21 2 0.18446754D+00 0.14241263D+00 0.31511432D+06 0.31511432D+06 0.31511432D+06 0.10829761D+01  1  2  3  3  6  4        1 0.342268355727D-04 0.100000000000D+01
-.144826959921D-03 0.000000000000D+00 0.000000000000D+00 0.277453987540D-04 0.000000000000D+00  6 -2 2 25 1 -1 21 2 0.18446754D+00 0.14241263D+00 0.31511432D+06 0.31511432D+06 0.31511432D+06 0.10829761D+01  1  2 15  3  6  4        1 -.969195995079D-04 0.100000000000D+01
0.133032005914D-08 0.000000000000D+00 0.000000000000D+00 0.277453987540D-04 0.000000000000D+00  6 -2 2 25 1 -1 21 2 0.18446754D+00 0.14241263D+00 0.31596943D+06 0.31596943D+06 0.31596943D+06 0.10828894D+01  1  2 12  3  6  4        1 0.889980796934D-09 0.100000000000D+01
0.108325581293D-01 0.000000000000D+00 0.000000000000D+00 0.277453987540D-04 0.000000000000D+00  6 -2 2 25 1 -1 21 2 0.18446754D+00 0.14241263D+00 0.31596943D+06 0.31596943D+06 0.31596943D+06 0.10828894D+01  1  2 12  3  6  4        1 0.724695433290D-02 0.100000000000D+01
-.116614877337D-01 0.000000000000D+00 0.000000000000D+00 0.277453987540D-04 0.000000000000D+00  6 -2 2 25 1 -1 21 2 0.18446754D+00 0.14241263D+00 0.31511432D+06 0.31511432D+06 0.31511432D+06 0.10829761D+01  1  2  4  3  6  4        1 -.780398015277D-02 0.100000000000D+01
-.109590467770D-01 0.000000000000D+00 0.000000000000D+00 0.277453987540D-04 0.000000000000D+00  6 -2 2 25 1 -1 21 2 0.18446754D+00 0.14241263D+00 0.31511432D+06 0.31511432D+06 0.31511432D+06 0.10829761D+01  1  2  5  3  6  4        1 -.733389988430D-02 0.100000000000D+01
0.153467444804D-01 0.000000000000D+00 -.000000000000D+00 0.277453987540D-04 0.000000000000D+00  6 -2 2 25 1 -1 21 2 0.18446754D+00 0.14241263D+00 0.31511432D+06 0.31511432D+06 0.31511432D+06 0.10829761D+01  1  2  6  3  6  4        1 0.102701895393D-01 0.100000000000D+01
  </mgrwgt>
  </event>
  <event>
  5     66 0.17652913E-05 0.42066643E+02 0.75467711E-02 0.91558854E-01
       -2 -1    0    0    0  501 0.00000000E+00 0.00000000E+00 0.11218079E+04 0.11218080E+04 0.32000000E+00 0.0000E+00 0.9000E+01
        2 -1    0    0  502    0 0.00000000E+00 0.00000000E+00 -.88796457E+03 0.88796463E+03 0.32000000E+00 0.0000E+00 0.9000E+01
       25  1    1    2    0    0 0.24965108E+03 0.57713282E+03 0.12301593E+02 0.64123652E+03 0.12500000E+03 0.0000E+00 0.9000E+01
        1  1    1    2  502    0 -.40620259E+02 0.10918617E+02 -.44988697E+03 0.45184910E+03 0.32000000E+00 0.0000E+00 0.9000E+01
       -1  1    1    2    0  501 -.20903082E+03 -.58805143E+03 0.67142871E+03 0.91668697E+03 0.32000000E+00 0.0000E+00 0.9000E+01
#aMCatNLO 1  0  0  5  1 0.41120377D+02 0.00000000D+00  -5  6  0 0.00000000D+00 0.00000000D+00 0.00000000D+00 0.00000000D+00 0.00000000D+00
  <mgrwgt>
 0.2704195966D-02    3    2    0
 0.998061012117695D+03 0.000000000000000D+00 0.000000000000000D+00 0.998061012117695D+03
 0.998061012117695D+03 -.000000000000000D+00 -.000000000000000D+00 -.998061012117695D+03
 0.644151147322594D+03 0.249647826938654D+03 0.577110286604651D+03 -.626528546589846D+02
 0.507703418913543D+03 -.406247248086698D+02 0.109194404869078D+02 -.505957665353706D+03
 0.844267457999252D+03 -.209023102129984D+03 -.588029727091559D+03 0.568610520012691D+03
 0.000000000000000D+00 0.000000000000000D+00 0.000000000000000D+00 -.000000000000000D+00
 0.998061012117695D+03 0.000000000000000D+00 0.000000000000000D+00 0.998061012117695D+03
 0.998061012117695D+03 -.000000000000000D+00 -.000000000000000D+00 -.998061012117695D+03
 0.572293100528340D+03 0.226036191910013D+03 0.510685364380299D+03 0.157843812718842D+01
 0.460608198536367D+03 -.594200132451207D+02 -.419559987218184D+02 -.454828394843728D+03
 0.416943223261705D+03 -.113742856058879D+03 0.718159860223916D+02 0.394647536760412D+03
 0.546277501908977D+03 -.528733226060139D+02 -.540545351680873D+03 0.586024199561274D+02
0.423892329378D-02 0.000000000000D+00 0.000000000000D+00 0.233399461913D-04 0.000000000000D+00  6 -2 2 25 1 -1 21 0 0.17258584D+00 0.13660994D+00 0.42721820D+06 0.42721820D+06 0.42721820D+06 0.10733727D+01  1  2  2  4  6  5       -1 0.306574985850D-02 0.100000000000D+01
0.206545518539D-02 0.000000000000D+00 -.162785815823D-04 0.233399461913D-04 0.000000000000D+00  6 -2 2 25 1 -1 21 2 0.17258584D+00 0.13660994D+00 0.42721820D+06 0.42721820D+06 0.42721820D+06 0.10733727D+01  1  2  3  4  6  5       -1 0.172106786210D-02 0.100000000000D+01
-.249935635721D-02 0.000000000000D+00 0.000000000000D+00 0.233399461913D-04 0.000000000000D+00  6 -2 2 25 1 -1 21 2 0.17258584D+00 0.13660994D+00 0.42721820D+06 0.42721820D+06 0.42721820D+06 0.10733727D+01  1  2 15  4  6  5       -1 -.208262175464D-02 0.100000000000D+01
  </mgrwgt>
  </event>
  <event>
  5     66 0.17652913E-05 0.33147989E+02 0.75467711E-02 0.94490982E-01
       -2 -1    0    0    0  501 0.00000000E+00 0.00000000E+00 0.21372061E+04 0.21372062E+04 0.32000000E+00 0.0000E+00 0.9000E+01
        2 -1    0    0  502    0 0.00000000E+00 0.00000000E+00 -.26720164E+04 0.26720164E+04 0.32000000E+00 0.0000E+00 0.9000E+01
       25  1    1    2    0    0 -.35726050E+03 -.30370737E+03 0.10751240E+03 0.49704844E+03 0.12500000E+03 0.0000E+00 0.9000E+01
        1  1    1    2  502    0 0.28151840E+02 0.17496827E+02 -.24512169E+04 0.24514410E+04 0.32000000E+00 0.0000E+00 0.9000E+01
       -1  1    1    2    0  501 0.32910866E+03 0.28621054E+03 0.18088943E+04 0.18607331E+04 0.32000000E+00 0.0000E+00 0.9000E+01
#aMCatNLO 1  0  0  2  1 0.86671813D+02 0.00000000D+00  -5  6  0 0.00000000D+00 0.00000000D+00 0.00000000D+00 0.00000000D+00 0.00000000D+00
  <mgrwgt>
 0.1042226873D+00    7    2    0
 0.238969660185966D+04 0.000000000000000D+00 0.000000000000000D+00 0.238969660185966D+04
 0.238969660185966D+04 0.000000000000000D+00 0.000000000000000D+00 -.238969660185966D+04
 0.512194041843064D+03 -.357256585896106D+03 -.303703573647628D+03 0.163858498977174D+03
 0.219247371835132D+04 0.281534279979683D+02 0.174978195222711D+02 -.219222312196209D+04
 0.207472544352493D+04 0.329103157898137D+03 0.286205754125357D+03 0.202836462298491D+04
 0.000000000000000D+00 -.000000000000000D+00 0.000000000000000D+00 -.000000000000000D+00
 0.239033990372196D+04 0.000000000000000D+00 0.000000000000000D+00 0.239033990372196D+04
 0.306814743736296D+04 0.000000000000000D+00 0.000000000000000D+00 -.306814743736296D+04
 0.510544591916906D+03 -.353431517974599D+03 -.305397011692515D+03 0.163858498977174D+03
 0.219269972344776D+04 0.445540857112731D+02 0.102369032973007D+02 -.219222312196209D+04
 0.207630880397181D+04 0.344628129202686D+03 0.279332522697208D+03 0.202836462298491D+04
 0.678934221748447D+03 -.357506969393605D+02 0.158275856980064D+02 -.677807533640997D+03
0.579575187188D-01 0.000000000000D+00 0.000000000000D+00 0.168892163905D-01 0.000000000000D+00  6 -2 2 25 1 -1 21 0 0.32880095D+00 0.41107944D+00 0.22780074D+06 0.22780074D+06 0.22780074D+06 0.10935103D+01  1  2  2  2  6  2        2 0.397481482407D-03 0.100000000000D+01
0.395001644021D-01 0.000000000000D+00 -.222572132445D-03 0.168892163905D-01 0.000000000000D+00  6 -2 2 25 1 -1 21 2 0.32880095D+00 0.41107944D+00 0.22780074D+06 0.22780074D+06 0.22780074D+06 0.10935103D+01  1  2  3  2  6  2        2 0.323930460340D-03 0.100000000000D+01
-.457126032819D-01 0.000000000000D+00 0.000000000000D+00 0.168892163905D-01 0.000000000000D+00  6 -2 2 25 1 -1 21 2 0.32880095D+00 0.41107944D+00 0.22780074D+06 0.22780074D+06 0.22780074D+06 0.10935103D+01  1  2 15  2  6  2        2 -.374877037819D-03 0.100000000000D+01
-.462289138798D+00 0.000000000000D+00 0.000000000000D+00 0.168892163905D-01 0.000000000000D+00  6 -2 2 25 1 -1 21 2 0.32880095D+00 0.41107944D+00 0.22780074D+06 0.22780074D+06 0.22780074D+06 0.10935103D+01  1  2  4  2  6  2        2 -.379111165251D-02 0.100000000000D+01
-.204367360359D+02 0.000000000000D+00 -.436307176684D-01 0.168892163905D-01 0.000000000000D+00  6 -2 2 25 1 -1 21 2 0.32880095D+00 0.52781704D+00 0.22780074D+06 0.22780074D+06 0.22780074D+06 0.10935103D+01  1  2  5  2  6  2        2 -.548506210462D-01 0.100000000000D+01
0.198263477390D+02 0.000000000000D+00 0.423022654343D-01 0.168892163905D-01 0.000000000000D+00  6 -2 2 25 1 -1 21 2 0.32880095D+00 0.41107944D+00 0.22780074D+06 0.22780074D+06 0.22780074D+06 0.10935103D+01  1  2  6  2  6  2        2 0.162590663790D+00 0.100000000000D+01
-.690839151226D+00 0.000000000000D+00 -.147644433101D-02 0.168892163905D-01 0.000000000000D+00  6 -2 21 25 1 -1 -2 2 0.32880095D+00 0.52781704D+00 0.22780074D+06 0.22780074D+06 0.22780074D+06 0.10935103D+01  1  2  5  6  6  2        2 -.727787294699D-04 0.100000000000D+01
  </mgrwgt>
  </event>
  <event>
  5     66 0.17652913E-05 0.25264274E+03 0.75467711E-02 0.91210312E-01
       -2 -1    0    0    0  501 0.00000000E+00 0.00000000E+00 0.75813261E+03 0.75813268E+03 0.32000000E+00 0.0000E+00 0.9000E+01
        2 -1    0    0  502    0 0.00000000E+00 0.00000000E+00 -.19985327E+04 0.19985328E+04 0.32000000E+00 0.0000E+00 0.9000E+01
       25  1    1    2    0    0 0.25924644E+02 0.45649378E+03 -.26939114E+03 0.54521119E+03 0.12500000E+03 0.0000E+00 0.9000E+01
        1  1    1    2  502    0 -.22762003E+03 -.10956826E+03 -.15147463E+04 0.15356668E+04 0.32000000E+00 0.0000E+00 0.9000E+01
       -1  1    1    2    0  501 0.20169539E+03 -.34692552E+03 0.54373730E+03 0.67578746E+03 0.32000000E+00 0.0000E+00 0.9000E+01
#aMCatNLO 1  0  0  2  1 0.23998230D+03 0.00000000D+00  -5  6  0 0.00000000D+00 0.00000000D+00 0.00000000D+00 0.00000000D+00 0.00000000D+00
  <mgrwgt>
 0.4737426985D-02    9    2    0
 0.123091549899119D+04 0.000000000000000D+00 0.000000000000000D+00 0.123091549899119D+04
 0.123091549899119D+04 0.000000000000000D+00 0.000000000000000D+00 -.123091549899119D+04
 0.474772263172814D+03 0.259522862997995D+02 0.456494990804011D+03 -.268794360970521D+02
 0.956411682822506D+03 -.227640302584429D+03 -.109582152133590D+03 -.922439673698187D+03
 0.103064705198706D+04 0.201688016284630D+03 -.346912838670421D+03 0.949319109795239D+03
 0.000000000000000D+00 -.000000000000000D+00 0.000000000000000D+00 -.000000000000000D+00
 0.135111511851190D+04 0.000000000000000D+00 0.000000000000000D+00 0.135111511851190D+04
 0.136264418319573D+04 0.000000000000000D+00 0.000000000000000D+00 -.136264418319573D+04
 0.473169954882256D+03 0.715736177068079D+02 0.449910568187435D+03 -.268794360970521D+02
 0.940507975405323D+03 -.136347817945399D+03 -.122758188037011D+03 -.922439673698187D+03
 0.105982229547885D+04 0.302295408887746D+03 -.361433273976017D+03 0.949319109795239D+03
 0.240259075941203D+03 -.237521208649155D+03 0.342808938255935D+02 -.115290646838222D+02
0.508817854994D-02 0.000000000000D+00 0.000000000000D+00 0.816485589156D-05 0.000000000000D+00  6 -2 2 25 1 -1 21 0 0.11663579D+00 0.30746658D+00 0.31805915D+06 0.31805915D+06 0.31805915D+06 0.10826786D+01  1  2  2  2  6  2        2 0.252328141133D-02 0.100000000000D+01
0.457268519460D-03 0.000000000000D+00 -.195399453799D-04 0.816485589156D-05 0.000000000000D+00  6 -2 2 25 1 -1 21 2 0.11663579D+00 0.30746658D+00 0.31805915D+06 0.31805915D+06 0.31805915D+06 0.10826786D+01  1  2  3  2  6  2        2 0.265811509335D-03 0.100000000000D+01
-.360093550760D-02 0.000000000000D+00 0.000000000000D+00 0.816485589156D-05 0.000000000000D+00  6 -2 2 25 1 -1 21 2 0.11663579D+00 0.30746658D+00 0.31805915D+06 0.31805915D+06 0.31805915D+06 0.10826786D+01  1  2 15  2  6  2        2 -.209323419733D-02 0.100000000000D+01
0.117703664291D-08 0.000000000000D+00 0.000000000000D+00 0.816485589156D-05 0.000000000000D+00  6 -2 2 25 1 -1 21 2 0.11663579D+00 0.35390067D+00 0.46720089D+06 0.46720089D+06 0.46720089D+06 0.10705992D+01  1  2 12  2  6  2        2 0.441319054103D-09 0.100000000000D+01
-.158912863032D-03 0.000000000000D+00 0.000000000000D+00 0.816485589156D-05 0.000000000000D+00  6 -2 2 25 1 -1 21 2 0.11663579D+00 0.30746658D+00 0.31805915D+06 0.31805915D+06 0.31805915D+06 0.10826786D+01  1  2  4  2  6  2        2 -.923765056587D-04 0.100000000000D+01
-.187286111678D-01 0.000000000000D+00 -.715466043470D-02 0.816485589156D-05 0.000000000000D+00  6 -2 2 25 1 -1 21 2 0.11663579D+00 0.35605242D+00 0.31805915D+06 0.31805915D+06 0.31805915D+06 0.10826786D+01  1  2  5  2  6  2        2 -.726405293503D-02 0.100000000000D+01
0.196428192661D-01 0.000000000000D+00 0.707834553281D-02 0.816485589156D-05 0.000000000000D+00  6 -2 2 25 1 -1 21 2 0.11663579D+00 0.30746658D+00 0.31805915D+06 0.31805915D+06 0.31805915D+06 0.10826786D+01  1  2  6  2  6  2        2 0.114184274983D-01 0.100000000000D+01
0.254786054848D-10 0.000000000000D+00 0.000000000000D+00 0.816485589156D-05 0.000000000000D+00  6 -2 21 25 1 -1 -2 2 0.11663579D+00 0.35390067D+00 0.46720089D+06 0.46720089D+06 0.46720089D+06 0.10705992D+01  1  2 12  6  6  2        2 0.134536601577D-11 0.100000000000D+01
-.371888853095D-03 0.000000000000D+00 -.160296508727D-03 0.816485589156D-05 0.000000000000D+00  6 -2 21 25 1 -1 -2 2 0.11663579D+00 0.35605242D+00 0.31805915D+06 0.31805915D+06 0.31805915D+06 0.10826786D+01  1  2  5  6  6  2        2 -.204302386606D-04 0.100000000000D+01
  </mgrwgt>
  </event>
  <event>
  5     66 -.17652913E-05 0.11483509E+03 0.75467711E-02 0.93995500E-01
       -2 -1    0    0    0  501 0.00000000E+00 0.00000000E+00 0.37750971E+03 0.37750984E+03 0.32000000E+00 0.0000E+00 0.9000E+01
        2 -1    0    0  502    0 -.00000000E+00 -.00000000E+00 -.15718918E+04 0.15718919E+04 0.32000000E+00 0.0000E+00 0.9000E+01
       25  1    1    2    0    0 -.42895043E+02 0.47588962E+03 -.49265170E+03 0.69759703E+03 0.12500000E+03 0.0000E+00 0.9000E+01
        1  1    1    2  502    0 0.11021535E+03 -.32191811E+02 -.78671751E+03 0.79505237E+03 0.32000000E+00 0.0000E+00 0.9000E+01
       -1  1    1    2    0  501 -.67320306E+02 -.44369781E+03 0.84987080E+02 0.45675231E+03 0.32000000E+00 0.0000E+00 0.9000E+01
#aMCatNLO 1  0  0  4  2 0.10212371D+02 0.00000000D+00  -5  6  0 0.00000000D+00 0.00000000D+00 0.00000000D+00 0.00000000D+00 0.00000000D+00
  <mgrwgt>
 -.1522358421D-01    8    2    0
 0.770327586912269D+03 0.000000000000000D+00 0.000000000000000D+00 0.770327586912269D+03
 0.770327586912269D+03 -.000000000000000D+00 -.000000000000000D+00 -.770327586912269D+03
 0.500727042136494D+03 -.429113052584306D+02 0.475876598337021D+03 -.824782017442513D+02
 0.396139566123400D+03 0.110228591983189D+03 -.321986873575448D+02 -.379129869425096D+03
 0.643788565564643D+03 -.673172867247585D+02 -.443677910979476D+03 0.461608071169347D+03
 0.000000000000000D+00 0.000000000000000D+00 0.000000000000000D+00 -.000000000000000D+00
 0.770327586912269D+03 0.000000000000000D+00 0.000000000000000D+00 0.770327586912269D+03
 0.770327586912269D+03 -.000000000000000D+00 -.000000000000000D+00 -.770327586912269D+03
 0.500737201963079D+03 -.428614711573847D+02 0.475862041382147D+03 -.826496055142037D+02
 0.239623396579860D+03 0.747035094753974D+02 -.250195071463959D+02 -.226302412984660D+03
 0.643636794106818D+03 -.672532228444543D+02 -.443696624571074D+03 0.461387724250843D+03
 0.156657781174780D+03 0.354111845264416D+02 -.714590966467665D+01 -.152435705751979D+03
0.237171289347D-04 0.000000000000D+00 0.000000000000D+00 0.289849320063D-05 0.000000000000D+00  6 -2 2 25 1 -1 21 0 0.58078430D-01 0.24182953D+00 0.27956513D+06 0.27956513D+06 0.27956513D+06 0.10868259D+01  1  2  2  3  6  4        1 0.993112321797D-04 0.100000000000D+01
0.341065062203D-05 0.000000000000D+00 -.910800199727D-07 0.289849320063D-05 0.000000000000D+00  6 -2 2 25 1 -1 21 2 0.58078430D-01 0.24182953D+00 0.27956513D+06 0.27956513D+06 0.27956513D+06 0.10868259D+01  1  2  3  3  6  4        1 0.168691603246D-04 0.100000000000D+01
-.144965649867D-04 0.000000000000D+00 0.000000000000D+00 0.289849320063D-05 0.000000000000D+00  6 -2 2 25 1 -1 21 2 0.58078430D-01 0.24182953D+00 0.27956513D+06 0.27956513D+06 0.27956513D+06 0.10868259D+01  1  2 15  3  6  4        1 -.717003604347D-04 0.100000000000D+01
0.999952526717D-08 0.000000000000D+00 0.000000000000D+00 0.289849320063D-05 0.000000000000D+00  6 -2 2 25 1 -1 21 2 0.58078430D-01 0.24182953D+00 0.27959811D+06 0.27959811D+06 0.27959811D+06 0.10868221D+01  1  2 12  3  6  4        1 0.494572680250D-07 0.100000000000D+01
0.176745520361D-02 0.000000000000D+00 0.000000000000D+00 0.289849320063D-05 0.000000000000D+00  6 -2 2 25 1 -1 21 2 0.58078430D-01 0.24182953D+00 0.27959811D+06 0.27959811D+06 0.27959811D+06 0.10868221D+01  1  2 12  3  6  4        1 0.874176557301D-02 0.100000000000D+01
-.569259049124D-02 0.000000000000D+00 0.000000000000D+00 0.289849320063D-05 0.000000000000D+00  6 -2 2 25 1 -1 21 2 0.58078430D-01 0.24182953D+00 0.27956513D+06 0.27956513D+06 0.27956513D+06 0.10868259D+01  1  2  4  3  6  4        1 -.281556900138D-01 0.100000000000D+01
-.180376742850D-02 0.000000000000D+00 0.000000000000D+00 0.289849320063D-05 0.000000000000D+00  6 -2 2 25 1 -1 21 2 0.58078430D-01 0.24182953D+00 0.27956513D+06 0.27956513D+06 0.27956513D+06 0.10868259D+01  1  2  5  3  6  4        1 -.892147725221D-02 0.100000000000D+01
0.264197820477D-02 0.000000000000D+00 -.000000000000D+00 0.289849320063D-05 0.000000000000D+00  6 -2 2 25 1 -1 21 2 0.58078430D-01 0.24182953D+00 0.27956513D+06 0.27956513D+06 0.27956513D+06 0.10868259D+01  1  2  6  3  6  4        1 0.130672879897D-01 0.100000000000D+01
  </mgrwgt>
  </event>
  <event>
  6     66 0.17652913E-05 0.17265239E+03 0.75467711E-02 0.94195053E-01
       -2 -1    0    0    0  503 0.00000000E+00 0.00000000E+00 0.11348922E+04 0.11348922E+04 0.32000000E+00 0.0000E+00 0.9000E+01
        2 -1    0    0  502    0 0.00000000E+00 0.00000000E+00 -.22037882E+04 0.22037882E+04 0.32000000E+00 0.0000E+00 0.9000E+01
       25  1    1    2    0    0 0.35314442E+03 0.33805046E+03 -.39072450E+03 0.63818472E+03 0.12500000E+03 0.0000E+00 0.9000E+01
        1  1    1    2  502    0 -.31201083E+03 -.16092586E+03 -.16614538E+04 0.16981392E+04 0.32000000E+00 0.0000E+00 0.9000E+01
       -1  1    1    2    0  501 -.35894168E+02 -.17246677E+03 0.81019334E+03 0.82912395E+03 0.32000000E+00 0.0000E+00 0.9000E+01
       21  1    1    2  501  503 -.52394297E+01 -.46578314E+01 0.17308898E+03 0.17323251E+03 0.75000000E+00 0.0000E+00 0.9000E+01
#aMCatNLO 2  0  0  1  5 0.70104933D+01 0.00000000D+00  -5  6  0 0.00000000D+00 0.00000000D+00 0.00000000D+00 0.00000000D+00 0.00000000D+00
  <mgrwgt>
 0.4535451755D-01    3    2    0
 0.145580599612072D+04 0.000000000000000D+00 0.000000000000000D+00 0.145580599612072D+04
 0.145580599612072D+04 0.000000000000000D+00 0.000000000000000D+00 -.145580599612072D+04
 0.525987745054869D+03 0.352222320934541D+03 0.337219317777346D+03 -.152514511772396D+03
 0.113831164025945D+04 -.314084897235914D+03 -.162762076637261D+03 -.108194850805719D+04
 0.124731260692713D+04 -.381374236986268D+02 -.174457241140085D+03 0.123446301982959D+04
 0.000000000000000D+00 -.000000000000000D+00 -.000000000000000D+00 0.000000000000000D+00
 0.171792972383697D+04 0.000000000000000D+00 0.000000000000000D+00 0.171792972383697D+04
 0.145585709065640D+04 0.000000000000000D+00 0.000000000000000D+00 -.145585709065640D+04
 0.527162556142303D+03 0.353169888631310D+03 0.338061701559734D+03 -.152514511772396D+03
 0.113748936829895D+04 -.312037254541861D+03 -.160941730710026D+03 -.108194850805719D+04
 0.124696850761732D+04 -.358932044185127D+02 -.172462139436919D+03 0.123446301982959D+04
 0.262166382434791D+03 -.523942967093607D+01 -.465783141278887D+01 0.262072633180572D+03
-.451211802820D-08 0.000000000000D+00 0.000000000000D+00 0.104737412899D-03 0.000000000000D+00  6 -2 2 25 1 -1 21 2 0.17460104D+00 0.33903231D+00 0.26982001D+06 0.26982001D+06 0.26982001D+06 0.10879752D+01  1  2 13  1  6  1       -2 -.689888650267D-09 0.100000000000D+01
-.670104294841D+00 0.000000000000D+00 0.000000000000D+00 0.104737412899D-03 0.000000000000D+00  6 -2 2 25 1 -1 21 2 0.17523285D+00 0.33903231D+00 0.26982001D+06 0.26982001D+06 0.26982001D+06 0.10879752D+01  1  2 13  1  6  1       -2 -.101377018155D+00 0.100000000000D+01
0.959734694800D+00 0.000000000000D+00 0.000000000000D+00 0.104737412899D-03 0.193515828508D-04  6 -2 2 25 1 -1 21 2 0.17459873D+00 0.33904421D+00 0.26982001D+06 0.26982001D+06 0.26982001D+06 0.10879752D+01  1  2  1  1  6  1       -2 0.146731536399D+00 0.100000000000D+01
  </mgrwgt>
  </event>
  <event>
  6     66 0.17652913E-05 0.16351053E+03 0.75467711E-02 0.92912655E-01
       -2 -1    0    0    0  501 0.00000000E+00 0.00000000E+00 0.89251470E+03 0.89251476E+03 0.32000000E+00 0.0000E+00 0.9000E+01
        2 -1    0    0  502    0 0.00000000E+00 0.00000000E+00 -.88957654E+03 0.88957659E+03 0.32000000E+00 0.0000E+00 0.9000E+01
       25  1    1    2    0    0 0.37913562E+03 0.42008832E+03 0.41783972E+03 0.71444598E+03 0.12500000E+03 0.0000E+00 0.9000E+01
        1  1    1    2  503    0 -.16307580E+03 -.79885723E+02 -.45700997E+03 0.49176586E+03 0.32000000E+00 0.0000E+00 0.9000E+01
       -1  1    1    2    0  501 -.20830523E+03 -.30491767E+03 0.19581499E+03 0.41798262E+03 0.32000000E+00 0.0000E+00 0.9000E+01
       21  1    1    2  502  503 -.77545991E+01 -.35284923E+02 -.15370657E+03 0.15789690E+03 0.75000000E+00 0.0000E+00 0.9000E+01
#aMCatNLO 2  0  0  4  2 0.34876419D+02 0.00000000D+00  -5  6  0 0.00000000D+00 0.00000000D+00 0.00000000D+00 0.00000000D+00 0.00000000D+00
  <mgrwgt>
 0.1033854597D-03    3    2    0
 0.891044466237946D+03 0.000000000000000D+00 0.000000000000000D+00 0.891044466237946D+03
 0.891044466237946D+03 -.000000000000000D+00 -.000000000000000D+00 -.891044466237946D+03
 0.715431293506964D+03 0.379641106249062D+03 0.420378829379049D+03 0.418773454250548D+03
 0.648912306139688D+03 -.171720551566271D+03 -.115773088860078D+03 -.614976280132088D+03
 0.417745332829240D+03 -.207920554682791D+03 -.304605740518971D+03 0.196202825881540D+03
 0.000000000000000D+00 0.000000000000000D+00 0.000000000000000D+00 -.000000000000000D+00
 0.891044466237946D+03 0.000000000000000D+00 0.000000000000000D+00 0.891044466237946D+03
 0.891044466237946D+03 -.000000000000000D+00 -.000000000000000D+00 -.891044466237946D+03
 0.713785713419350D+03 0.379096411303922D+03 0.420011598924044D+03 0.416822758960359D+03
 0.492452569780112D+03 -.163087587302327D+03 -.798681783788665D+02 -.457747797846569D+03
 0.417526499565682D+03 -.208238888667566D+03 -.304820359610108D+03 0.195062788489329D+03
 0.158324149710748D+03 -.776993533402823D+01 -.353230609350702D+02 -.154137749603119D+03
-.117769386941D-07 0.000000000000D+00 0.000000000000D+00 0.427114389521D-06 0.000000000000D+00  6 -2 2 25 1 -1 21 2 0.13730996D+00 0.13685794D+00 0.34009886D+06 0.34009886D+06 0.34009886D+06 0.10805438D+01  1  2 13  3  6  4        1 -.190340203807D-07 0.100000000000D+01
-.207444822427D-03 0.000000000000D+00 0.000000000000D+00 0.427114389521D-06 0.000000000000D+00  6 -2 2 25 1 -1 21 2 0.13730996D+00 0.13685794D+00 0.34009886D+06 0.34009886D+06 0.34009886D+06 0.10805438D+01  1  2 13  3  6  4        1 -.335274648233D-03 0.100000000000D+01
0.271424389450D-03 0.000000000000D+00 0.000000000000D+00 0.427114389521D-06 0.242493391516D-08  6 -2 2 25 1 -1 21 2 0.13730996D+00 0.13685794D+00 0.34009886D+06 0.34009886D+06 0.34009886D+06 0.10805438D+01  1  2  1  3  6  4        1 0.438679141906D-03 0.100000000000D+01
  </mgrwgt>
  </event>
  <event>
  5     66 0.17652913E-05 0.49200769E+02 0.75467711E-02 0.93939819E-01
       -2 -1    0    0    0  501 0.00000000E+00 0.00000000E+00 0.23826647E+03 0.23826669E+03 0.32000000E+00 0.0000E+00 0.9000E+01
        2 -1    0    0  502    0 -.00000000E+00 -.00000000E+00 -.42427969E+04 0.42427969E+04 0.32000000E+00 0.0000E+00 0.9000E+01
       25  1    1    2    0    0 -.38914887E+03 0.34960369E+03 -.11163991E+04 0.12392060E+04 0.12500000E+03 0.0000E+00 0.9000E+01
        1  1    1    2  502    0 0.26275988E+02 -.41589536E+02 -.27441414E+04 0.27445824E+04 0.32000000E+00 0.0000E+00 0.9000E+01
       -1  1    1    2    0  501 0.36287289E+03 -.30801415E+03 -.14398990E+03 0.49727522E+03 0.32000000E+00 0.0000E+00 0.9000E+01
#aMCatNLO 1  0  0  5  1 0.14149536D+02 0.00000000D+00  -5  6  0 0.00000000D+00 0.00000000D+00 0.00000000D+00 0.00000000D+00 0.00000000D+00
  <mgrwgt>
 0.8043852103D-02    8    2    0
 0.100544356341699D+04 0.000000000000000D+00 0.000000000000000D+00 0.100544356341699D+04
 0.100544356341699D+04 -.000000000000000D+00 -.000000000000000D+00 -.100544356341699D+04
 0.538202507530811D+03 -.389134007482142D+03 0.349593323326396D+03 -.199040603633217D+02
 0.651342167464445D+03 0.262793241554057D+02 -.415946243084182D+02 -.649481257210597D+03
 0.821342451838725D+03 0.362854683326737D+03 -.307998699017977D+03 0.669385317573919D+03
 0.000000000000000D+00 0.000000000000000D+00 -.000000000000000D+00 0.000000000000000D+00
 0.100544356341699D+04 0.000000000000000D+00 0.000000000000000D+00 0.100544356341699D+04
 0.100544356341699D+04 -.000000000000000D+00 -.000000000000000D+00 -.100544356341699D+04
 0.538038900932253D+03 -.389012115970090D+03 0.349489859243228D+03 -.196791979259496D+02
 0.651084806803327D+03 0.264268326901851D+02 -.417198326601186D+02 -.649209137125242D+03
 0.708780877269095D+03 0.307675923823855D+03 -.255206540543125D+03 0.585299478511212D+03
 0.112982541829306D+03 0.549093594560505D+02 -.525634860399849D+02 0.835888565399806D+02
0.625766615347D-03 0.000000000000D+00 0.000000000000D+00 0.970251053802D-04 0.000000000000D+00  6 -2 2 25 1 -1 21 0 0.36656398D-01 0.65273801D+00 0.28248339D+06 0.28248339D+06 0.28248339D+06 0.10864903D+01  1  2  2  4  6  5       -1 0.116827969437D-03 0.100000000000D+01
0.271794277232D-03 0.000000000000D+00 -.240310857107D-05 0.970251053802D-04 0.000000000000D+00  6 -2 2 25 1 -1 21 2 0.36656398D-01 0.65273801D+00 0.28248339D+06 0.28248339D+06 0.28248339D+06 0.10864903D+01  1  2  3  4  6  5       -1 0.598999450818D-04 0.100000000000D+01
-.400670785373D-03 0.000000000000D+00 0.000000000000D+00 0.970251053802D-04 0.000000000000D+00  6 -2 2 25 1 -1 21 2 0.36656398D-01 0.65273801D+00 0.28248339D+06 0.28248339D+06 0.28248339D+06 0.10864903D+01  1  2 15  4  6  5       -1 -.883026614250D-04 0.100000000000D+01
0.435496616862D-08 0.000000000000D+00 0.000000000000D+00 0.970251053802D-04 0.000000000000D+00  6 -2 2 25 1 -1 21 2 0.36656398D-01 0.65273801D+00 0.28239696D+06 0.28239696D+06 0.28239696D+06 0.10865002D+01  1  2 12  4  6  5       -1 0.959824263431D-09 0.100000000000D+01
0.988751733968D-01 0.000000000000D+00 0.000000000000D+00 0.970251053802D-04 0.000000000000D+00  6 -2 2 25 1 -1 21 2 0.36656398D-01 0.65273801D+00 0.28239696D+06 0.28239696D+06 0.28239696D+06 0.10865002D+01  1  2 12  4  6  5       -1 0.217918548165D-01 0.100000000000D+01
-.775503469277D-01 0.000000000000D+00 0.000000000000D+00 0.970251053802D-04 0.000000000000D+00  6 -2 2 25 1 -1 21 2 0.36656398D-01 0.65273801D+00 0.28248339D+06 0.28248339D+06 0.28248339D+06 0.10864903D+01  1  2  4  4  6  5       -1 -.170910939308D-01 0.100000000000D+01
-.100519077245D+00 0.000000000000D+00 0.000000000000D+00 0.970251053802D-04 0.000000000000D+00  6 -2 2 25 1 -1 21 2 0.36656398D-01 0.65273801D+00 0.28248339D+06 0.28248339D+06 0.28248339D+06 0.10864903D+01  1  2  5  4  6  5       -1 -.221531051645D-01 0.100000000000D+01
0.115287026054D+00 0.000000000000D+00 -.000000000000D+00 0.970251053802D-04 0.000000000000D+00  6 -2 2 25 1 -1 21 2 0.36656398D-01 0.65273801D+00 0.28248339D+06 0.28248339D+06 0.28248339D+06 0.10864903D+01  1  2  6  4  6  5       -1 0.254077701694D-01 0.100000000000D+01
  </mgrwgt>
  </event>
  <event>
  5     66 0.17652913E-05 0.15803819E+03 0.75467711E-02 0.92976774E-01
       -2 -1    0    0    0  501 0.00000000E+00 0.00000000E+00 0.11733443E+04 0.11733443E+04 0.32000000E+00 0.0000E+00 0.9000E+01
        2 -1    0    0  502    0 0.00000000E+00 0.00000000E+00 -.82289409E+03 0.82289415E+03 0.32000000E+00 0.0000E+00 0.9000E+01
       25  1    1    2    0    0 -.40149039E+03 -.36160299E+03 -.42507030E+02 0.55622217E+03 0.12500000E+03 0.0000E+00 0.9000E+01
        1  1    1    2  502    0 0.25157159E+03 0.46373660E+02 -.45558014E+03 0.52248650E+03 0.32000000E+00 0.0000E+00 0.9000E+01
       -1  1    1    2    0  501 0.14991880E+03 0.31522933E+03 0.84853737E+03 0.91752981E+03 0.32000000E+00 0.0000E+00 0.9000E+01
#aMCatNLO 1  0  0  5  1 0.45611731D+01 0.00000000D+00  -5  6  0 0.00000000D+00 0.00000000D+00 0.00000000D+00 0.00000000D+00 0.00000000D+00
  <mgrwgt>
 0.3613099401D-03    9    2    0
 0.982618027745811D+03 0.000000000000000D+00 0.000000000000000D+00 0.982618027745811D+03
 0.982618027745811D+03 -.000000000000000D+00 -.000000000000000D+00 -.982618027745811D+03
 0.572567704206930D+03 -.401515696564293D+03 -.361595886190544D+03 -.142275565025623D+03
 0.612027829395201D+03 0.251606199813036D+03 0.463861121695358D+02 -.555986252318921D+03
 0.780640521889490D+03 0.149909496751257D+03 0.315209774021008D+03 0.698261817344544D+03
 0.000000000000000D+00 0.000000000000000D+00 0.000000000000000D+00 0.000000000000000D+00
 0.982618027745811D+03 0.000000000000000D+00 0.000000000000000D+00 0.982618027745811D+03
 0.982618027745811D+03 -.000000000000000D+00 -.000000000000000D+00 -.982618027745811D+03
 0.572558146978297D+03 -.401512697314696D+03 -.361589579766949D+03 -.142261594853491D+03
 0.612016092810958D+03 0.251609405760431D+03 0.463928532098020D+02 -.555971319371357D+03
 0.360848902975019D+03 0.651497423085981D+02 0.144445558094602D+03 0.324195809044683D+03
 0.419812912727348D+03 0.847535492456671D+02 0.170751168462544D+03 0.374037105180165D+03
0.456665581340D-05 0.000000000000D+00 0.000000000000D+00 0.217238050007D-05 0.000000000000D+00  6 -2 2 25 1 -1 21 0 0.18051451D+00 0.12659910D+00 0.33610846D+06 0.33610846D+06 0.33610846D+06 0.10809189D+01  1  2  2  4  6  5       -1 0.324248191928D-05 0.100000000000D+01
0.354186679845D-06 0.000000000000D+00 -.175371607516D-07 0.217238050007D-05 0.000000000000D+00  6 -2 2 25 1 -1 21 2 0.18051451D+00 0.12659910D+00 0.33610846D+06 0.33610846D+06 0.33610846D+06 0.10809189D+01  1  2  3  4  6  5       -1 0.293831084174D-06 0.100000000000D+01
-.360788440214D-05 0.000000000000D+00 0.000000000000D+00 0.217238050007D-05 0.000000000000D+00  6 -2 2 25 1 -1 21 2 0.18051451D+00 0.12659910D+00 0.33610846D+06 0.33610846D+06 0.33610846D+06 0.10809189D+01  1  2 15  4  6  5       -1 -.299307863842D-05 0.100000000000D+01
0.289733849408D-08 0.000000000000D+00 0.000000000000D+00 0.217238050007D-05 0.000000000000D+00  6 -2 2 25 1 -1 21 2 0.18051451D+00 0.12659910D+00 0.33613335D+06 0.33613335D+06 0.33613335D+06 0.10809166D+01  1  2 12  4  6  5       -1 0.240359394861D-08 0.100000000000D+01
0.118471736526D-02 0.000000000000D+00 0.000000000000D+00 0.217238050007D-05 0.000000000000D+00  6 -2 2 25 1 -1 21 2 0.18051451D+00 0.12659910D+00 0.33613335D+06 0.33613335D+06 0.33613335D+06 0.10809166D+01  1  2 12  4  6  5       -1 0.982825961058D-03 0.100000000000D+01
-.767252534726D-02 0.000000000000D+00 0.000000000000D+00 0.217238050007D-05 0.000000000000D+00  6 -2 2 25 1 -1 21 2 0.18051451D+00 0.12659910D+00 0.33610846D+06 0.33610846D+06 0.33610846D+06 0.10809189D+01  1  2  4  4  6  5       -1 -.636507968658D-02 0.100000000000D+01
-.499731687642D-02 0.000000000000D+00 0.000000000000D+00 0.217238050007D-05 0.000000000000D+00  6 -2 2 25 1 -1 21 2 0.18051451D+00 0.12659910D+00 0.33610846D+06 0.33610846D+06 0.33610846D+06 0.10809189D+01  1  2  5  4  6  5       -1 -.414574324592D-02 0.100000000000D+01
0.823520477038D-02 0.000000000000D+00 -.000000000000D+00 0.217238050007D-05 0.000000000000D+00  6 -2 2 25 1 -1 21 2 0.18051451D+00 0.12659910D+00 0.33610846D+06 0.33610846D+06 0.33610846D+06 0.10809189D+01  1  2  6  4  6  5       -1 0.683187506412D-02 0.100000000000D+01
0.368482958274D-02 0.000000000000D+00 0.000000000000D+00 0.217238050007D-05 0.176403623182D-06  6 -2 2 25 1 -1 21 2 0.18051451D+00 0.12659910D+00 0.33613335D+06 0.33613335D+06 0.33613335D+06 0.10809166D+01  1  2 11  4  6  5       -1 0.305688620947D-02 0.100000000000D+01
  </mgrwgt>
  </event>
  <event>
  5     66 0.17652913E-05 0.80762066E+02 0.75467711E-02 0.90257344E-01
       -2 -1    0    0    0  501 0.00000000E+00 0.00000000E+00 0.16364077E+04 0.16364077E+04 0.32000000E+00 0.0000E+00 0.9000E+01
        2 -1    0    0  502    0 0.00000000E+00 0.00000000E+00 -.26899335E+04 0.26899335E+04 0.32000000E+00 0.0000E+00 0.9000E+01
       25  1    1    2    0    0 -.21226201E+03 -.61697338E+03 0.57940462E+03 0.88150214E+03 0.12500000E+03 0.0000E+00 0.9000E+01
        1  1    1    2  502    0 0.70079415E+02 -.40130276E+02 -.24133856E+04 0.24147364E+04 0.32000000E+00 0.0000E+00 0.9000E+01
       -1  1    1    2    0  501 0.14218259E+03 0.65710365E+03 0.78045522E+03 0.10301027E+04 0.32000000E+00 0.0000E+00 0.9000E+01
#aMCatNLO 1  0  0  1  2 0.85405441D+02 0.00000000D+00  -5  6  0 0.00000000D+00 0.00000000D+00 0.00000000D+00 0.00000000D+00 0.00000000D+00
  <mgrwgt>
 0.1447139138D-02    7    4    0
 0.209805336309994D+04 0.000000000000000D+00 0.000000000000000D+00 0.209805336309994D+04
 0.209805336309994D+04 0.000000000000000D+00 0.000000000000000D+00 -.209805336309994D+04
 0.105440927294781D+04 -.212253340978085D+03 -.616906723367728D+03 0.818858063882662D+03
 0.188379512584331D+04 0.700845620969270D+02 -.401330966908539D+02 -.188206311394084D+04
 0.125790232740876D+04 0.142168778881158D+03 0.657039820058581D+03 0.106320505005818D+04
 0.000000000000000D+00 -.000000000000000D+00 -.000000000000000D+00 0.000000000000000D+00
 0.347722005301336D+04 0.000000000000000D+00 0.000000000000000D+00 0.347722005301336D+04
 0.209981050103337D+04 0.000000000000000D+00 0.000000000000000D+00 -.209981050103337D+04
 0.104199756642982D+04 -.211878989261426D+03 -.595577613388516D+03 0.818858063882662D+03
 0.188339358975521D+04 0.707572624221554D+02 -.180523927397024D+01 -.188206311394084D+04
 0.127158462966367D+04 0.142620464959861D+03 0.682775142270369D+03 0.106320505005818D+04
 0.138005476819804D+04 -.149873812058980D+01 -.853922896078832D+02 0.137740955197999D+04
 0.209805336309994D+04 0.000000000000000D+00 0.000000000000000D+00 0.209805336309994D+04
 0.209805336309994D+04 0.000000000000000D+00 0.000000000000000D+00 -.209805336309994D+04
 0.105440927294781D+04 -.212253340978085D+03 -.616906723367728D+03 0.818858063882662D+03
 0.188379512584331D+04 0.700845620969270D+02 -.401330966908539D+02 -.188206311394084D+04
 0.000000000000000D+00 -.000000000000000D+00 -.000000000000000D+00 0.000000000000000D+00
 0.125790232740876D+04 0.142168778881158D+03 0.657039820058581D+03 0.106320505005818D+04
 0.347722005301336D+04 0.000000000000000D+00 0.000000000000000D+00 0.347722005301336D+04
 0.209981050103337D+04 0.000000000000000D+00 0.000000000000000D+00 -.209981050103337D+04
 0.104199756642982D+04 -.211878989261426D+03 -.595577613388516D+03 0.818858063882662D+03
 0.188339358975521D+04 0.707572624221554D+02 -.180523927397024D+01 -.188206311394084D+04
 0.138005476819804D+04 -.149873812058980D+01 -.853922896078832D+02 0.137740955197999D+04
 0.127158462966367D+04 0.142620464959861D+03 0.682775142270369D+03 0.106320505005818D+04
0.367745507592D-02 0.000000000000D+00 0.000000000000D+00 0.151123179065D-03 0.000000000000D+00  6 -2 2 25 1 -1 21 0 0.25175503D+00 0.41383592D+00 0.50216628D+06 0.50216628D+06 0.50216628D+06 0.10683777D+01  1  2  2  1  6  1       -2 0.705968750050D-04 0.100000000000D+01
0.162095198468D-02 0.000000000000D+00 -.141223957877D-04 0.151123179065D-03 0.000000000000D+00  6 -2 2 25 1 -1 21 2 0.25175503D+00 0.41383592D+00 0.50216628D+06 0.50216628D+06 0.50216628D+06 0.10683777D+01  1  2  3  1  6  1       -2 0.355187687519D-04 0.100000000000D+01
-.307193290697D-02 0.000000000000D+00 0.000000000000D+00 0.151123179065D-03 0.000000000000D+00  6 -2 2 25 1 -1 21 2 0.25175503D+00 0.41383592D+00 0.50216628D+06 0.50216628D+06 0.50216628D+06 0.10683777D+01  1  2 15  1  6  1       -2 -.673130824201D-04 0.100000000000D+01
-.480850227391D+00 0.000000000000D+00 0.000000000000D+00 0.151123179065D-03 0.000000000000D+00  6 -2 2 25 1 -1 21 2 0.25175503D+00 0.41383592D+00 0.50216628D+06 0.50216628D+06 0.50216628D+06 0.10683777D+01  1  2  4  1  6  1       -2 -.105365292695D-01 0.100000000000D+01
-.699003268253D+00 0.000000000000D+00 -.222885924189D-02 0.151123179065D-03 0.000000000000D+00  6 -2 2 25 1 -1 21 2 0.41732436D+00 0.41383592D+00 0.50216628D+06 0.50216628D+06 0.50216628D+06 0.10683777D+01  1  2  5  1  6  1       -2 -.114612732869D-02 0.100000000000D+01
0.619559187771D+00 0.000000000000D+00 0.197163893739D-02 0.151123179065D-03 0.000000000000D+00  6 -2 2 25 1 -1 21 2 0.25175503D+00 0.41383592D+00 0.50216628D+06 0.50216628D+06 0.50216628D+06 0.10683777D+01  1  2  6  1  6  1       -2 0.135759601311D-01 0.100000000000D+01
-.396481137156D-01 0.000000000000D+00 -.126747408641D-03 0.151123179065D-03 0.000000000000D+00  6 21 2 25 1 2 -1 2 0.41732436D+00 0.41383592D+00 0.50216628D+06 0.50216628D+06 0.50216628D+06 0.10683777D+01  3  4  5  5  5  1       -2 -.484966956780D-03 0.100000000000D+01
  </mgrwgt>
  </event>
  <event>
  5     66 -.17652913E-05 0.14454166E+03 0.75467711E-02 0.95008044E-01
       -2 -1    0    0    0  501 0.00000000E+00 0.00000000E+00 0.30140461E+03 0.30140478E+03 0.32000000E+00 0.0000E+00 0.9000E+01
        2 -1    0    0  502    0 -.00000000E+00 -.00000000E+00 -.15912522E+04 0.15912522E+04 0.32000000E+00 0.0000E+00 0.9000E+01
       25  1    1    2    0    0 0.45247384E+03 0.13979944E+03 -.54750290E+03 0.73461615E+03 0.12500000E+03 0.0000E+00 0.9000E+01
        1  1    1    2  502    0 -.14269074E+03 -.22865643E+02 -.80770729E+03 0.82053315E+03 0.32000000E+00 0.0000E+00 0.9000E+01
       -1  1    1    2    0  501 -.30978310E+03 -.11693380E+03 0.65362596E+02 0.33750771E+03 0.32000000E+00 0.0000E+00 0.9000E+01
#aMCatNLO 1  0  0  4  2 0.20558778D+02 0.00000000D+00  -5  6  0 0.00000000D+00 0.00000000D+00 0.00000000D+00 0.00000000D+00 0.00000000D+00
  <mgrwgt>
 -.6038847080D-02    8    2    0
 0.692539484393454D+03 0.000000000000000D+00 0.000000000000000D+00 0.692539484393454D+03
 0.692539484393454D+03 -.000000000000000D+00 -.000000000000000D+00 -.692539484393454D+03
 0.493947121495956D+03 0.452471240664843D+03 0.139793127649716D+03 -.639250863688758D+02
 0.369126866089214D+03 -.142720642165744D+03 -.228715962358751D+02 -.339650337338660D+03
 0.522004981201737D+03 -.309750598499100D+03 -.116921531413841D+03 0.403575423707536D+03
 0.000000000000000D+00 0.000000000000000D+00 0.000000000000000D+00 -.000000000000000D+00
 0.692539484393454D+03 0.000000000000000D+00 0.000000000000000D+00 0.692539484393454D+03
 0.692539484393454D+03 -.000000000000000D+00 -.000000000000000D+00 -.692539484393454D+03
 0.493708312309306D+03 0.452104445584792D+03 0.139734347161870D+03 -.647979949459613D+02
 0.252881249717108D+03 -.115207138460513D+03 -.792342546192180D+01 -.224974356394625D+03
 0.521536556086877D+03 -.310138148537914D+03 -.116983637973022D+03 0.402653121933795D+03
 0.116952850673617D+03 -.267591585863647D+02 -.148272837269264D+02 -.112880770593208D+03
0.298649532581D-04 0.000000000000D+00 0.000000000000D+00 0.242534288565D-05 0.000000000000D+00  6 -2 2 25 1 -1 21 0 0.46369955D-01 0.24480805D+00 0.23300798D+06 0.23300798D+06 0.23300798D+06 0.10927663D+01  1  2  2  3  6  4        1 0.192980762640D-03 0.100000000000D+01
0.300676852999D-05 0.000000000000D+00 -.114689284134D-06 0.242534288565D-05 0.000000000000D+00  6 -2 2 25 1 -1 21 2 0.46369955D-01 0.24480805D+00 0.23300798D+06 0.23300798D+06 0.23300798D+06 0.10927663D+01  1  2  3  3  6  4        1 0.232010029154D-04 0.100000000000D+01
-.203585802618D-04 0.000000000000D+00 0.000000000000D+00 0.242534288565D-05 0.000000000000D+00  6 -2 2 25 1 -1 21 2 0.46369955D-01 0.24480805D+00 0.23300798D+06 0.23300798D+06 0.23300798D+06 0.10927663D+01  1  2 15  3  6  4        1 -.157092065883D-03 0.100000000000D+01
0.764738566543D-08 0.000000000000D+00 0.000000000000D+00 0.242534288565D-05 0.000000000000D+00  6 -2 2 25 1 -1 21 2 0.46369955D-01 0.24480805D+00 0.23376115D+06 0.23376115D+06 0.23376115D+06 0.10926602D+01  1  2 12  3  6  4        1 0.589895060309D-07 0.100000000000D+01
0.497524208528D-03 0.000000000000D+00 0.000000000000D+00 0.242534288565D-05 0.000000000000D+00  6 -2 2 25 1 -1 21 2 0.46369955D-01 0.24480805D+00 0.23376115D+06 0.23376115D+06 0.23376115D+06 0.10926602D+01  1  2 12  3  6  4        1 0.383774384913D-02 0.100000000000D+01
-.148192310348D-02 0.000000000000D+00 0.000000000000D+00 0.242534288565D-05 0.000000000000D+00  6 -2 2 25 1 -1 21 2 0.46369955D-01 0.24480805D+00 0.23300798D+06 0.23300798D+06 0.23300798D+06 0.10927663D+01  1  2  4  3  6  4        1 -.114349015899D-01 0.100000000000D+01
-.534349359270D-03 0.000000000000D+00 0.000000000000D+00 0.242534288565D-05 0.000000000000D+00  6 -2 2 25 1 -1 21 2 0.46369955D-01 0.24480805D+00 0.23300798D+06 0.23300798D+06 0.23300798D+06 0.10927663D+01  1  2  5  3  6  4        1 -.412317773005D-02 0.100000000000D+01
0.728635487966D-03 0.000000000000D+00 -.000000000000D+00 0.242534288565D-05 0.000000000000D+00  6 -2 2 25 1 -1 21 2 0.46369955D-01 0.24480805D+00 0.23300798D+06 0.23300798D+06 0.23300798D+06 0.10927663D+01  1  2  6  3  6  4        1 0.562233970189D-02 0.100000000000D+01
  </mgrwgt>
  </event>
  <event>
  5     66 -.17652913E-05 0.52881072E+02 0.75467711E-02 0.92866957E-01
       -2 -1    0    0    0  501 0.00000000E+00 0.00000000E+00 0.60600452E+03 0.60600461E+03 0.32000000E+00 0.0000E+00 0.9000E+01
        2 -1    0    0  502    0 -.00000000E+00 -.00000000E+00 -.30736760E+04 0.30736760E+04 0.32000000E+00 0.0000E+00 0.9000E+01
       25  1    1    2    0    0 0.40692578E+03 0.41159132E+03 -.29246245E+03 0.66042054E+03 0.12500000E+03 0.0000E+00 0.9000E+01
        1  1    1    2  502    0 -.37320061E+03 -.37085246E+03 -.25688030E+04 0.26221287E+04 0.32000000E+00 0.0000E+00 0.9000E+01
       -1  1    1    2    0  501 -.33725169E+02 -.40738858E+02 0.39359393E+03 0.39713137E+03 0.32000000E+00 0.0000E+00 0.9000E+01
#aMCatNLO 1  0  0  4  2 0.20558778D+02 0.00000000D+00  -5  6  0 0.00000000D+00 0.00000000D+00 0.00000000D+00 0.00000000D+00 0.00000000D+00
  <mgrwgt>
 -.1387628619D-01    1    2    0
 0.136479366176534D+04 0.000000000000000D+00 0.000000000000000D+00 0.136479366176534D+04
 0.136479366176534D+04 -.000000000000000D+00 -.000000000000000D+00 -.136479366176534D+04
 0.625974777965681D+03 0.406963196363785D+03 0.411627882151854D+03 0.202886337858751D+03
 0.121252497523808D+04 -.373241849226990D+03 -.370893640043882D+03 -.109240342609163D+04
 0.891087570326915D+03 -.337213471367942D+02 -.407342421079724D+02 0.889517088232876D+03
 0.000000000000000D+00 0.000000000000000D+00 0.000000000000000D+00 0.000000000000000D+00
 0.136479366176534D+04 0.000000000000000D+00 0.000000000000000D+00 0.136479366176534D+04
 0.136479366176534D+04 -.000000000000000D+00 -.000000000000000D+00 -.136479366176534D+04
 0.453181720789717D+03 0.286650820505162D+03 0.292072438096077D+03 -.149243660053816D+03
 0.800522058447350D+03 -.116877962968978D+03 0.783910716739248D+03 0.112512648241714D+03
 0.511058348348841D+03 -.190042980719050D+03 -.196072395685891D+03 0.431995273754771D+03
 0.964825195944771D+03 0.202701231828649D+02 -.879910759149434D+03 -.395264261942671D+03
-.596699642812D-01 0.000000000000D+00 0.000000000000D+00 0.297047290407D-03 0.000000000000D+00  6 -2 2 25 1 -1 21 2 0.93231473D-01 0.47287324D+00 0.34295703D+06 0.34295703D+06 0.34295703D+06 0.10802780D+01  1  2 14  3  6  4        1 -.138762861897D-01 0.100000000000D+01
  </mgrwgt>
  </event>
  <event>
  5     66 -.17652913E-05 0.68908349E+02 0.75467711E-02 0.92340984E-01
       -2 -1    0    0    0  501 0.00000000E+00 0.00000000E+00 0.21391804E+03 0.21391828E+03 0.32000000E+00 0.0000E+00 0.9000E+01
        2 -1    0    0  502    0 -.00000000E+00 -.00000000E+00 -.30039650E+04 0.30039650E+04 0.32000000E+00 0.0000E+00 0.9000E+01
       25  1    1    2    0    0 0.60793143E+03 -.24168193E+02 -.69349177E+03 0.93097828E+03 0.12500000E+03 0.0000E+00 0.9000E+01
        1  1    1    2  502    0 -.68844981E+02 0.26409516E+01 -.14195372E+04 0.14212081E+04 0.32000000E+00 0.0000E+00 0.9000E+01
       -1  1    1    2    0  501 -.53908645E+03 0.21527242E+02 -.67701799E+03 0.86569688E+03 0.32000000E+00 0.0000E+00 0.9000E+01
#aMCatNLO 1  0  0  4  1 0.18998163D+00 0.00000000D+00  -5  6  0 0.00000000D+00 0.00000000D+00 0.00000000D+00 0.00000000D+00 0.00000000D+00
  <mgrwgt>
 -.2699584736D-02    7    2    0
 0.801625051082143D+03 0.000000000000000D+00 0.000000000000000D+00 0.801625051082143D+03
 0.801625051082143D+03 -.000000000000000D+00 -.000000000000000D+00 -.801625051082143D+03
 0.661703885819983D+03 0.607869204483627D+03 -.241656904240933D+02 0.228337649449306D+03
 0.382260605774833D+03 -.688577033257222D+02 0.264144148800297D+01 -.375998417825015D+03
 0.559285610569470D+03 -.539011501157905D+03 0.215242489360903D+02 0.147660768375709D+03
 0.000000000000000D+00 0.000000000000000D+00 0.000000000000000D+00 -.000000000000000D+00
 0.801625051082143D+03 0.000000000000000D+00 0.000000000000000D+00 0.801625051082143D+03
 0.801625051082143D+03 -.000000000000000D+00 -.000000000000000D+00 -.801625051082143D+03
 0.661702196728956D+03 0.607868602166343D+03 -.241656673186776D+02 0.228334360487652D+03
 0.380017844893368D+03 -.686341260415648D+02 0.257623871746992D+01 -.373759658301938D+03
 0.559285368024704D+03 -.539012010249288D+03 0.215242684652793D+02 0.147657988475341D+03
 0.224469251725842D+01 -.222465875489690D+00 0.651601359283057D-01 -.223269066105548D+01
0.490889675478D-05 0.000000000000D+00 0.000000000000D+00 0.142583629571D-05 0.000000000000D+00  6 -2 2 25 1 -1 21 0 0.32910488D-01 0.46214848D+00 0.37786111D+06 0.37786111D+06 0.37786111D+06 0.10772148D+01  1  2  2  3  6  4        1 0.913226265724D-05 0.100000000000D+01
0.134755332993D-05 0.000000000000D+00 -.188514560805D-07 0.142583629571D-05 0.000000000000D+00  6 -2 2 25 1 -1 21 2 0.32910488D-01 0.46214848D+00 0.37786111D+06 0.37786111D+06 0.37786111D+06 0.10772148D+01  1  2  3  3  6  4        1 0.290900896660D-05 0.100000000000D+01
-.351207231358D-05 0.000000000000D+00 0.000000000000D+00 0.142583629571D-05 0.000000000000D+00  6 -2 2 25 1 -1 21 2 0.32910488D-01 0.46214848D+00 0.37786111D+06 0.37786111D+06 0.37786111D+06 0.10772148D+01  1  2 15  3  6  4        1 -.758162933119D-05 0.100000000000D+01
-.153595602384D+00 0.000000000000D+00 0.000000000000D+00 0.142583629571D-05 0.000000000000D+00  6 -2 2 25 1 -1 21 2 0.32910488D-01 0.46214848D+00 0.37786111D+06 0.37786111D+06 0.37786111D+06 0.10772148D+01  1  2  4  3  6  4        1 -.331572023637D+00 0.100000000000D+01
-.586090564754D-01 0.000000000000D+00 0.000000000000D+00 0.142583629571D-05 0.000000000000D+00  6 -2 2 25 1 -1 21 2 0.32910488D-01 0.46214848D+00 0.37786111D+06 0.37786111D+06 0.37786111D+06 0.10772148D+01  1  2  5  3  6  4        1 -.126521353199D+00 0.100000000000D+01
0.589706345292D-01 0.000000000000D+00 -.000000000000D+00 0.142583629571D-05 0.000000000000D+00  6 -2 2 25 1 -1 21 2 0.32910488D-01 0.46214848D+00 0.37786111D+06 0.37786111D+06 0.37786111D+06 0.10772148D+01  1  2  6  3  6  4        1 0.127301903978D+00 0.100000000000D+01
0.151981597486D+00 0.000000000000D+00 0.000000000000D+00 0.142583629571D-05 0.739749806228D-03  6 -2 2 25 1 -1 21 2 0.32910488D-01 0.46214848D+00 0.37786471D+06 0.37786471D+06 0.37786471D+06 0.10772145D+01  1  2 11  3  6  4        1 0.328087428480D+00 0.100000000000D+01
  </mgrwgt>
  </event>
  <event>
  5     66 0.17652913E-05 0.18646445E+02 0.75467711E-02 0.91054866E-01
       -2 -1    0    0    0  501 0.00000000E+00 0.00000000E+00 0.25306290E+03 0.25306310E+03 0.32000000E+00 0.0000E+00 0.9000E+01
        2 -1    0    0  502    0 -.00000000E+00 -.00000000E+00 -.26302784E+04 0.26302784E+04 0.32000000E+00 0.0000E+00 0.9000E+01
       25  1    1    2    0    0 0.55804631E+03 0.36618700E+03 -.89274158E+03 0.11216600E+04 0.12500000E+03 0.0000E+00 0.9000E+01
        1  1    1    2  502    0 0.10865250E+02 -.15151262E+02 -.81630121E+03 0.81651416E+03 0.32000000E+00 0.0000E+00 0.9000E+01
       -1  1    1    2    0  501 -.56891156E+03 -.35103574E+03 -.66817267E+03 0.94516733E+03 0.32000000E+00 0.0000E+00 0.9000E+01
#aMCatNLO 1  0  0  4  2 0.26570129D+02 0.00000000D+00  -5  6  0 0.00000000D+00 0.00000000D+00 0.00000000D+00 0.00000000D+00 0.00000000D+00
  <mgrwgt>
 0.1192050740D-02    6    2    0
 0.815859172307794D+03 0.000000000000000D+00 0.000000000000000D+00 0.815859172307794D+03
 0.815859172307794D+03 -.000000000000000D+00 -.000000000000000D+00 -.815859172307794D+03
 0.681404290838453D+03 0.558025756811996D+03 0.366176709046231D+03 0.566452121500601D+02
 0.253618765051635D+03 0.108662133427274D+02 -.151530631619313D+02 -.252932378454632D+03
 0.696695288725500D+03 -.568891970154724D+03 -.351023645884300D+03 0.196287166304572D+03
 0.000000000000000D+00 0.000000000000000D+00 -.000000000000000D+00 0.000000000000000D+00
 0.815859172307794D+03 0.000000000000000D+00 0.000000000000000D+00 0.815859172307794D+03
 0.815859172307794D+03 -.000000000000000D+00 -.000000000000000D+00 -.815859172307794D+03
 0.681033075583480D+03 0.558233986472247D+03 0.365886330319582D+03 0.517982593459193D+02
 0.214946691093955D+03 -.312213808871791D+01 0.107486006163863D+02 -.214655071803077D+03
 0.695292129114066D+03 -.568679224178847D+03 -.351320322666562D+03 0.191335087416758D+03
 0.404464488240865D+02 0.135673757953189D+02 -.253146082694059D+02 -.284782749595999D+02
0.277273130655D-03 0.000000000000D+00 0.000000000000D+00 0.387175991047D-05 0.000000000000D+00  6 -2 2 25 1 -1 21 0 0.38932771D-01 0.40465823D+00 0.46660159D+06 0.46660159D+06 0.46660159D+06 0.10706388D+01  1  2  2  3  6  4        1 0.633119923523D-03 0.100000000000D+01
0.184672866698D-03 0.000000000000D+00 -.106480182941D-05 0.387175991047D-05 0.000000000000D+00  6 -2 2 25 1 -1 21 2 0.38932771D-01 0.40465823D+00 0.46660159D+06 0.46660159D+06 0.46660159D+06 0.10706388D+01  1  2  3  3  6  4        1 0.483356147320D-03 0.100000000000D+01
-.179913264239D-03 0.000000000000D+00 0.000000000000D+00 0.387175991047D-05 0.000000000000D+00  6 -2 2 25 1 -1 21 2 0.38932771D-01 0.40465823D+00 0.46660159D+06 0.46660159D+06 0.46660159D+06 0.10706388D+01  1  2 15  3  6  4        1 -.470898534306D-03 0.100000000000D+01
-.886936675050D-04 0.000000000000D+00 0.000000000000D+00 0.387175991047D-05 0.000000000000D+00  6 -2 2 25 1 -1 21 2 0.38932771D-01 0.40465823D+00 0.46660159D+06 0.46660159D+06 0.46660159D+06 0.10706388D+01  1  2  4  3  6  4        1 -.232143628804D-03 0.100000000000D+01
-.114049710516D-02 0.000000000000D+00 0.000000000000D+00 0.387175991047D-05 0.000000000000D+00  6 -2 2 25 1 -1 21 2 0.38932771D-01 0.40465823D+00 0.46660159D+06 0.46660159D+06 0.46660159D+06 0.10706388D+01  1  2  5  3  6  4        1 -.298509627665D-02 0.100000000000D+01
0.143797837899D-02 0.000000000000D+00 -.000000000000D+00 0.387175991047D-05 0.000000000000D+00  6 -2 2 25 1 -1 21 2 0.38932771D-01 0.40465823D+00 0.46660159D+06 0.46660159D+06 0.46660159D+06 0.10706388D+01  1  2  6  3  6  4        1 0.376371310861D-02 0.100000000000D+01
  </mgrwgt>
  </event>
  <event>
  5     66 -.17652913E-05 0.23280225E+02 0.75467711E-02 0.91677586E-01
       -2 -1    0    0    0  501 0.00000000E+00 0.00000000E+00 0.77463067E+03 0.77463073E+03 0.32000000E+00 0.0000E+00 0.9000E+01
        2 -1    0    0  502    0 -.00000000E+00 -.00000000E+00 -.12879614E+04 0.12879614E+04 0.32000000E+00 0.0000E+00 0.9000E+01
       25  1    1    2    0    0 0.61622967E+03 -.10237375E+03 -.27109334E+03 0.69234095E+03 0.12500000E+03 0.0000E+00 0.9000E+01
        1  1    1    2  502    0 0.23278163E+02 -.71004514E-01 -.62002289E+03 0.62045980E+03 0.32000000E+00 0.0000E+00 0.9000E+01
       -1  1    1    2    0  501 -.63950783E+03 0.10244476E+03 0.37778550E+03 0.74979142E+03 0.32000000E+00 0.0000E+00 0.9000E+01
#aMCatNLO 1  0  0  5  4 0.87427816D+02 0.00000000D+00  -5  6  0 0.00000000D+00 0.00000000D+00 0.00000000D+00 0.00000000D+00 0.00000000D+00
  <mgrwgt>
 -.3562435860D-02    1    2    0
 0.998846585925439D+03 0.000000000000000D+00 0.000000000000000D+00 0.998846585925439D+03
 0.998846585925439D+03 -.000000000000000D+00 -.000000000000000D+00 -.998846585925439D+03
 0.645144213289901D+03 0.616211414288841D+03 -.102371166207036D+03 -.101929844358766D+03
 0.481344926376816D+03 0.232801167671560D+02 -.709779306116758D-01 -.480781623270008D+03
 0.871204032184162D+03 -.639491531055997D+03 0.102442144137648D+03 0.582711467628774D+03
 0.000000000000000D+00 0.000000000000000D+00 0.000000000000000D+00 -.000000000000000D+00
 0.998846585925439D+03 0.000000000000000D+00 0.000000000000000D+00 0.998846585925439D+03
 0.998846585925439D+03 -.000000000000000D+00 -.000000000000000D+00 -.998846585925439D+03
 0.453480039284193D+03 0.423672881687912D+03 -.715278177795987D+02 0.735133092381404D+02
 0.368044452593108D+03 -.125578953338485D+03 0.237752210812450D+02 -.345139659305489D+03
 0.766275375602804D+03 -.540104828402016D+03 -.177752352366514D+03 0.513681639559190D+03
 0.409893304370773D+03 0.242010900052589D+03 0.225504949064867D+03 -.242055289491841D+03
-.272143371418D-02 0.000000000000D+00 0.000000000000D+00 0.357920550313D-04 0.000000000000D+00  6 -2 2 25 1 -1 21 2 0.11917396D+00 0.19814791D+00 0.42769386D+06 0.42769386D+06 0.42769386D+06 0.10733380D+01  1  2 14  4  6  5       -1 -.356243585988D-02 0.100000000000D+01
  </mgrwgt>
  </event>
  <event>
  5     66 0.17652913E-05 0.16763148E+02 0.75467711E-02 0.92273704E-01
       -2 -1    0    0    0  501 0.00000000E+00 0.00000000E+00 0.39125266E+03 0.39125279E+03 0.32000000E+00 0.0000E+00 0.9000E+01
        2 -1    0    0  502    0 0.00000000E+00 0.00000000E+00 -.17958398E+04 0.17958398E+04 0.32000000E+00 0.0000E+00 0.9000E+01
       25  1    1    2    0    0 0.38572653E+03 -.32284438E+03 -.75060642E+03 0.91216690E+03 0.12500000E+03 0.0000E+00 0.9000E+01
        1  1    1    2  502    0 -.40244783E+03 0.32407612E+03 -.89493331E+03 0.10333902E+04 0.32000000E+00 0.0000E+00 0.9000E+01
       -1  1    1    2    0  501 0.16721302E+02 -.12317413E+01 0.24095262E+03 0.24153548E+03 0.32000000E+00 0.0000E+00 0.9000E+01
#aMCatNLO 1  0  0  1  2 0.32958293D+03 0.00000000D+00  -5  6  0 0.00000000D+00 0.00000000D+00 0.00000000D+00 0.00000000D+00 0.00000000D+00
  <mgrwgt>
 0.1499510678D+00    4    2    0
 0.838228639389689D+03 0.000000000000000D+00 0.000000000000000D+00 0.838228639389689D+03
 0.838228639389689D+03 0.000000000000000D+00 0.000000000000000D+00 -.838228639389689D+03
 0.561183225423442D+03 0.385795976184295D+03 -.322899881107075D+03 -.214938930949470D+03
 0.598398147372785D+03 -.402513827560504D+03 0.324131368219922D+03 -.301665075104254D+03
 0.516875905983151D+03 0.167178513762093D+02 -.123148711284621D+01 0.516604006053724D+03
 0.000000000000000D+00 -.000000000000000D+00 0.000000000000000D+00 -.000000000000000D+00
 0.848016294216072D+03 0.000000000000000D+00 0.000000000000000D+00 0.848016294216072D+03
 0.157695568397297D+04 0.000000000000000D+00 0.000000000000000D+00 -.157695568397297D+04
 0.595999911639958D+03 0.434552110474633D+03 -.323352151561078D+03 -.214938930949470D+03
 0.566293951026779D+03 -.353441314716452D+03 0.323676162982958D+03 -.301665075104254D+03
 0.520126705905948D+03 0.604103638103288D+02 -.163678652229961D+01 0.516604006053724D+03
 0.742551409616358D+03 -.141521159568510D+03 0.131277510041943D+01 -.728939389756899D+03
0.446606380463D-01 0.000000000000D+00 0.000000000000D+00 0.269562273818D-04 0.000000000000D+00  6 -2 2 25 1 -1 21 0 0.60192728D-01 0.27628305D+00 0.27664930D+06 0.27664930D+06 0.27664930D+06 0.10871651D+01  1  2  2  1  6  1       -2 0.131243352468D+00 0.100000000000D+01
0.379921931448D-01 0.000000000000D+00 -.171508609514D-03 0.269562273818D-04 0.000000000000D+00  6 -2 2 25 1 -1 21 2 0.60192728D-01 0.27628305D+00 0.27664930D+06 0.27664930D+06 0.27664930D+06 0.10871651D+01  1  2  3  1  6  1       -2 0.131958628805D+00 0.100000000000D+01
-.307990442185D-01 0.000000000000D+00 0.000000000000D+00 0.269562273818D-04 0.000000000000D+00  6 -2 2 25 1 -1 21 2 0.60192728D-01 0.27628305D+00 0.27664930D+06 0.27664930D+06 0.27664930D+06 0.10871651D+01  1  2 15  1  6  1       -2 -.106974599442D+00 0.100000000000D+01
-.180701282890D-02 0.000000000000D+00 0.000000000000D+00 0.269562273818D-04 0.000000000000D+00  6 -2 2 25 1 -1 21 2 0.60192728D-01 0.27628305D+00 0.27664930D+06 0.27664930D+06 0.27664930D+06 0.10871651D+01  1  2  4  1  6  1       -2 -.627631403708D-02 0.100000000000D+01
  </mgrwgt>
  </event>
  <event>
  5     66 0.17652913E-05 0.18079294E+03 0.75467711E-02 0.92650818E-01
       -2 -1    0    0    0  501 0.00000000E+00 0.00000000E+00 0.54204086E+03 0.54204095E+03 0.32000000E+00 0.0000E+00 0.9000E+01
        2 -1    0    0  502    0 -.00000000E+00 -.00000000E+00 -.16286145E+04 0.16286145E+04 0.32000000E+00 0.0000E+00 0.9000E+01
       25  1    1    2    0    0 0.35353268E+03 0.46384867E+03 -.27239094E+02 0.59708283E+03 0.12500000E+03 0.0000E+00 0.9000E+01
        1  1    1    2  502    0 -.23863340E+03 -.32416616E+03 -.12485407E+04 0.13118245E+04 0.32000000E+00 0.0000E+00 0.9000E+01
       -1  1    1    2    0  501 -.11489928E+03 -.13968251E+03 0.18920611E+03 0.26174817E+03 0.32000000E+00 0.0000E+00 0.9000E+01
#aMCatNLO 1  0  0  4  5 0.16713830D+03 0.00000000D+00  -5  6  0 0.00000000D+00 0.00000000D+00 0.00000000D+00 0.00000000D+00 0.00000000D+00
  <mgrwgt>
 0.2020940322D-03    7    2    0
 0.939561465339630D+03 0.000000000000000D+00 0.000000000000000D+00 0.939561465339630D+03
 0.939561465339630D+03 -.000000000000000D+00 -.000000000000000D+00 -.939561465339630D+03
 0.674058479310210D+03 0.353530915195329D+03 0.463852093894655D+03 0.313985605594731D+03
 0.793472250027954D+03 -.238678991561498D+03 -.324227154005968D+03 -.683745057135187D+03
 0.411592201341096D+03 -.114851923633832D+03 -.139624939888686D+03 0.369759451540456D+03
 0.000000000000000D+00 0.000000000000000D+00 0.000000000000000D+00 -.000000000000000D+00
 0.939561465339630D+03 0.000000000000000D+00 0.000000000000000D+00 0.939561465339630D+03
 0.939561465339630D+03 -.000000000000000D+00 -.000000000000000D+00 -.939561465339630D+03
 0.651439751692208D+03 0.345375225559652D+03 0.452773213335323D+03 0.290621955365439D+03
 0.502860640738118D+03 -.257699293644369D+03 -.282786625952656D+03 -.326330541385658D+03
 0.402645287727149D+03 -.119861864873475D+03 -.146430561863372D+03 0.355407444534169D+03
 0.322177250521786D+03 0.321859329581923D+02 -.235560255192944D+02 -.319698858513950D+03
0.184556349267D-03 0.000000000000D+00 0.000000000000D+00 0.156154849337D-05 0.000000000000D+00  6 -2 2 25 1 -1 21 0 0.83390911D-01 0.25055609D+00 0.34801793D+06 0.34801793D+06 0.34801793D+06 0.10798133D+01  1  2  2  3  6  4        1 0.325067701311D-03 0.100000000000D+01
0.156212987956D-04 0.000000000000D+00 -.708744975987D-06 0.156154849337D-05 0.000000000000D+00  6 -2 2 25 1 -1 21 2 0.83390911D-01 0.25055609D+00 0.34801793D+06 0.34801793D+06 0.34801793D+06 0.10798133D+01  1  2  3  3  6  4        1 0.320818445181D-04 0.100000000000D+01
-.117895371146D-03 0.000000000000D+00 0.000000000000D+00 0.156154849337D-05 0.000000000000D+00  6 -2 2 25 1 -1 21 2 0.83390911D-01 0.25055609D+00 0.34801793D+06 0.34801793D+06 0.34801793D+06 0.10798133D+01  1  2 15  3  6  4        1 -.242124615629D-03 0.100000000000D+01
0.133697237928D-08 0.000000000000D+00 0.000000000000D+00 0.156154849337D-05 0.000000000000D+00  6 -2 2 25 1 -1 21 2 0.83390911D-01 0.25055609D+00 0.35684504D+06 0.35684504D+06 0.35684504D+06 0.10790202D+01  1  2 12  3  6  4        1 0.273791398589D-08 0.100000000000D+01
-.604651762039D-04 0.000000000000D+00 0.000000000000D+00 0.156154849337D-05 0.000000000000D+00  6 -2 2 25 1 -1 21 2 0.83390911D-01 0.25055609D+00 0.34801793D+06 0.34801793D+06 0.34801793D+06 0.10798133D+01  1  2  4  3  6  4        1 -.124178815546D-03 0.100000000000D+01
-.214998062765D-03 0.000000000000D+00 0.000000000000D+00 0.156154849337D-05 0.000000000000D+00  6 -2 2 25 1 -1 21 2 0.83390911D-01 0.25055609D+00 0.34801793D+06 0.34801793D+06 0.34801793D+06 0.10798133D+01  1  2  5  3  6  4        1 -.441546795281D-03 0.100000000000D+01
0.317857612114D-03 0.000000000000D+00 -.000000000000D+00 0.156154849337D-05 0.000000000000D+00  6 -2 2 25 1 -1 21 2 0.83390911D-01 0.25055609D+00 0.34801793D+06 0.34801793D+06 0.34801793D+06 0.10798133D+01  1  2  6  3  6  4        1 0.652791974865D-03 0.100000000000D+01
  </mgrwgt>
  </event>
  <event>
  5     66 0.17652913E-05 0.54365021E+02 0.75467711E-02 0.94830407E-01
       -2 -1    0    0    0  501 0.00000000E+00 0.00000000E+00 0.23298145E+04 0.23298146E+04 0.32000000E+00 0.0000E+00 0.9000E+01
        2 -1    0    0  502    0 0.00000000E+00 0.00000000E+00 -.58953418E+03 0.58953427E+03 0.32000000E+00 0.0000E+00 0.9000E+01
       25  1    1    2    0    0 -.46349551E+03 0.56960936E+02 -.25391880E+03 0.54605164E+03 0.12500000E+03 0.0000E+00 0.9000E+01
        1  1    1    2  502    0 0.37558746E+02 0.39318762E+02 -.16326560E+03 0.17208248E+03 0.32000000E+00 0.0000E+00 0.9000E+01
       -1  1    1    2    0  501 0.42593676E+03 -.96279698E+02 0.21574648E+04 0.22012147E+04 0.32000000E+00 0.0000E+00 0.9000E+01
#aMCatNLO 1  0  0  4  2 0.17420431D+02 0.00000000D+00  -5  6  0 0.00000000D+00 0.00000000D+00 0.00000000D+00 0.00000000D+00 0.00000000D+00
  <mgrwgt>
 0.1315372263D-01    8    2    0
 0.117196649565776D+04 0.000000000000000D+00 0.000000000000000D+00 0.117196649565776D+04
 0.117196649565776D+04 -.000000000000000D+00 -.000000000000000D+00 -.117196649565776D+04
 0.868695512411277D+03 -.463491066866827D+03 0.569678921471392D+02 -.721760059495157D+03
 0.335469177277369D+03 0.375510205296823D+02 0.393125476031113D+02 -.331034761560304D+03
 0.113976830162687D+04 0.425940046337145D+03 -.962804397502505D+02 0.105279482105546D+04
 0.000000000000000D+00 0.000000000000000D+00 0.000000000000000D+00 0.000000000000000D+00
 0.117196649565776D+04 0.000000000000000D+00 0.000000000000000D+00 0.117196649565776D+04
 0.117196649565776D+04 -.000000000000000D+00 -.000000000000000D+00 -.117196649565776D+04
 0.869431555420565D+03 -.463383797188024D+03 0.570801938714290D+02 -.722705706032705D+03
 0.258832284303981D+03 0.120052556053764D+02 0.342269151225001D+02 -.256278254085406D+03
 0.113866355861878D+04 0.426080661288921D+03 -.961332285185069D+02 0.105155521594283D+04
 0.770055929721903D+02 0.252978802937266D+02 0.482611952457787D+01 -.725712558247232D+02
0.997486932857D-02 0.000000000000D+00 0.000000000000D+00 0.801746442856D-04 0.000000000000D+00  6 -2 2 25 1 -1 21 0 0.35843302D+00 0.90697575D-01 0.23739825D+06 0.23739825D+06 0.23739825D+06 0.10921530D+01  1  2  2  3  6  4        1 0.737036944621D-03 0.100000000000D+01
0.178407826564D-02 0.000000000000D+00 -.383061246651D-04 0.801746442856D-04 0.000000000000D+00  6 -2 2 25 1 -1 21 2 0.35843302D+00 0.90697575D-01 0.23739825D+06 0.23739825D+06 0.23739825D+06 0.10921530D+01  1  2  3  3  6  4        1 0.157239951346D-03 0.100000000000D+01
-.672865813935D-02 0.000000000000D+00 0.000000000000D+00 0.801746442856D-04 0.000000000000D+00  6 -2 2 25 1 -1 21 2 0.35843302D+00 0.90697575D-01 0.23739825D+06 0.23739825D+06 0.23739825D+06 0.10921530D+01  1  2 15  3  6  4        1 -.593031089964D-03 0.100000000000D+01
0.826211218605D-08 0.000000000000D+00 0.000000000000D+00 0.801746442856D-04 0.000000000000D+00  6 -2 2 25 1 -1 21 2 0.35843302D+00 0.90697575D-01 0.24115277D+06 0.24115277D+06 0.24115277D+06 0.10916382D+01  1  2 12  3  6  4        1 0.726573247273D-09 0.100000000000D+01
0.104724451005D+00 0.000000000000D+00 0.000000000000D+00 0.801746442856D-04 0.000000000000D+00  6 -2 2 25 1 -1 21 2 0.35843302D+00 0.90697575D-01 0.24115277D+06 0.24115277D+06 0.24115277D+06 0.10916382D+01  1  2 12  3  6  4        1 0.920950753540D-02 0.100000000000D+01
-.366214497003D-01 0.000000000000D+00 0.000000000000D+00 0.801746442856D-04 0.000000000000D+00  6 -2 2 25 1 -1 21 2 0.35843302D+00 0.90697575D-01 0.23739825D+06 0.23739825D+06 0.23739825D+06 0.10921530D+01  1  2  4  3  6  4        1 -.322763584983D-02 0.100000000000D+01
-.176858672152D+00 0.000000000000D+00 0.000000000000D+00 0.801746442856D-04 0.000000000000D+00  6 -2 2 25 1 -1 21 2 0.35843302D+00 0.90697575D-01 0.23739825D+06 0.23739825D+06 0.23739825D+06 0.10921530D+01  1  2  5  3  6  4        1 -.155874602252D-01 0.100000000000D+01
0.254814025678D+00 0.000000000000D+00 -.000000000000D+00 0.801746442856D-04 0.000000000000D+00  6 -2 2 25 1 -1 21 2 0.35843302D+00 0.90697575D-01 0.23739825D+06 0.23739825D+06 0.23739825D+06 0.10921530D+01  1  2  6  3  6  4        1 0.224580646329D-01 0.100000000000D+01
  </mgrwgt>
  </event>
  <event>
  6     66 -.17652913E-05 0.23433064E+03 0.75467711E-02 0.91393575E-01
       -2 -1    0    0    0  501 0.00000000E+00 0.00000000E+00 0.14695846E+04 0.14695846E+04 0.32000000E+00 0.0000E+00 0.9000E+01
        2 -1    0    0  502    0 -.00000000E+00 -.00000000E+00 -.19412383E+04 0.19412384E+04 0.32000000E+00 0.0000E+00 0.9000E+01
       25  1    1    2    0    0 -.59063468E+03 -.24767828E+03 0.91126769E+03 0.11208156E+04 0.12500000E+03 0.0000E+00 0.9000E+01
        1  1    1    2  502    0 0.44530106E+03 0.53254670E+02 -.17734405E+04 0.18292677E+04 0.32000000E+00 0.0000E+00 0.9000E+01
       -1  1    1    2    0  503 0.11313924E+03 0.14727234E+03 0.32018704E+03 0.37014790E+03 0.32000000E+00 0.0000E+00 0.9000E+01
       21  1    1    2  503  501 0.32194383E+02 0.47151263E+02 0.70332008E+02 0.90591798E+02 0.75000000E+00 0.0000E+00 0.9000E+01
#aMCatNLO 2  0  0  5  1 0.11544464D+02 0.00000000D+00  -5  6  0 0.00000000D+00 0.00000000D+00 0.00000000D+00 0.00000000D+00 0.00000000D+00
  <mgrwgt>
 -.8864754379D-04    6    2    0
 0.168902755352074D+04 0.000000000000000D+00 0.000000000000000D+00 0.168902755352074D+04
 0.168902755352074D+04 -.000000000000000D+00 -.000000000000000D+00 -.168902755352074D+04
 0.125933448957622D+04 -.590661748289819D+03 -.247542875134769D+03 0.107709775819720D+04
 0.159984966910208D+04 0.445339788064426D+03 0.531348657265867D+02 -.153569792698205D+04
 0.518870948363171D+03 0.145321960225393D+03 0.194408009408183D+03 0.458600168784851D+03
 0.000000000000000D+00 0.000000000000000D+00 0.000000000000000D+00 0.000000000000000D+00
 0.168902755352074D+04 0.000000000000000D+00 0.000000000000000D+00 0.168902755352074D+04
 0.168902755352074D+04 -.000000000000000D+00 -.000000000000000D+00 -.168902755352074D+04
 0.125950303477366D+04 -.590576079337242D+03 -.247428269396499D+03 0.107736810822586D+04
 0.159955518785827D+04 0.445448604000474D+03 0.532804369085757D+02 -.153535453079774D+04
 0.417827176657544D+03 0.112965384876281D+03 0.147038668758045D+03 0.374430235508873D+03
 0.101169707752004D+03 0.321620904604871D+02 0.471091637298784D+02 0.835561870630106D+02
-.161411989447D-08 0.000000000000D+00 0.000000000000D+00 0.199807991180D-05 0.000000000000D+00  6 -2 2 25 1 -1 21 2 0.22608995D+00 0.29865205D+00 0.45123961D+06 0.45123961D+06 0.45123961D+06 0.10716742D+01  1  2 13  4  6  5       -1 -.141656015149D-09 0.100000000000D+01
-.324005047551D-02 0.000000000000D+00 0.000000000000D+00 0.199807991180D-05 0.000000000000D+00  6 -2 2 25 1 -1 21 2 0.22608995D+00 0.29865205D+00 0.45123961D+06 0.45123961D+06 0.45123961D+06 0.10716742D+01  1  2 13  4  6  5       -1 -.284348542395D-03 0.100000000000D+01
-.108440598443D-02 0.000000000000D+00 0.000000000000D+00 0.199807991180D-05 0.000000000000D+00  6 -2 2 25 1 -1 21 2 0.22608995D+00 0.29865205D+00 0.45140890D+06 0.45140890D+06 0.45140890D+06 0.10716626D+01  1  2  8  4  6  5       -1 -.951628665219D-04 0.100000000000D+01
-.144457954229D-02 0.000000000000D+00 0.000000000000D+00 0.199807991180D-05 0.000000000000D+00  6 -2 2 25 1 -1 21 2 0.22608995D+00 0.29865205D+00 0.45140890D+06 0.45140890D+06 0.45140890D+06 0.10716626D+01  1  2  9  4  6  5       -1 -.126770169232D-03 0.100000000000D+01
0.175307049119D-02 0.000000000000D+00 0.000000000000D+00 0.199807991180D-05 0.000000000000D+00  6 -2 2 25 1 -1 21 2 0.22608995D+00 0.29865205D+00 0.45140890D+06 0.45140890D+06 0.45140890D+06 0.10716626D+01  1  2 10  4  6  5       -1 0.153842025544D-03 0.100000000000D+01
0.300581770302D-02 0.000000000000D+00 0.000000000000D+00 0.199807991180D-05 0.387240231507D-07  6 -2 2 25 1 -1 21 2 0.22608995D+00 0.29865205D+00 0.45123961D+06 0.45123961D+06 0.45123961D+06 0.10716742D+01  1  2  1  4  6  5       -1 0.263792150468D-03 0.100000000000D+01
  </mgrwgt>
  </event>
  <event>
  5     66 0.17652913E-05 0.45972075E+02 0.75467711E-02 0.91415687E-01
       -2 -1    0    0    0  501 0.00000000E+00 0.00000000E+00 0.42822402E+03 0.42822414E+03 0.32000000E+00 0.0000E+00 0.9000E+01
        2 -1    0    0  502    0 -.00000000E+00 -.00000000E+00 -.24476076E+04 0.24476076E+04 0.32000000E+00 0.0000E+00 0.9000E+01
       25  1    1    2    0    0 -.39374150E+03 -.47966599E+03 -.14725188E+03 0.64993842E+03 0.12500000E+03 0.0000E+00 0.9000E+01
        1  1    1    2  502    0 0.43738827E+03 0.46512591E+03 -.19950087E+04 0.20946862E+04 0.32000000E+00 0.0000E+00 0.9000E+01
       -1  1    1    2    0  501 -.43646770E+02 0.14540081E+02 0.12287699E+03 0.13120713E+03 0.32000000E+00 0.0000E+00 0.9000E+01
#aMCatNLO 1  0  0  4  4 0.34293238D+02 0.00000000D+00  -5  6  0 0.00000000D+00 0.00000000D+00 0.00000000D+00 0.00000000D+00 0.00000000D+00
  <mgrwgt>
 0.2540577783D-02    6    2    0
 0.102377955019816D+04 0.000000000000000D+00 0.000000000000000D+00 0.102377955019816D+04
 0.102377955019816D+04 -.000000000000000D+00 -.000000000000000D+00 -.102377955019816D+04
 0.767810149288504D+03 -.393833622638002D+03 -.479729150067901D+03 0.434352904451429D+03
 0.974498551826544D+03 0.437449212309455D+03 0.465199455629802D+03 -.736121647992779D+03
 0.305250399281276D+03 -.436155896714529D+02 0.145296944380989D+02 0.301768743541350D+03
 0.000000000000000D+00 -.000000000000000D+00 0.000000000000000D+00 0.000000000000000D+00
 0.102377955019816D+04 0.000000000000000D+00 0.000000000000000D+00 0.102377955019816D+04
 0.102377955019816D+04 -.000000000000000D+00 -.000000000000000D+00 -.102377955019816D+04
 0.707410660794868D+03 -.365352447773838D+03 -.449441229391219D+03 0.386425947932081D+03
 0.966878421426779D+03 0.461793722338255D+03 0.442048894003594D+03 -.725391766661241D+03
 0.285648187703049D+03 -.322074764806307D+02 0.266614983065201D+02 0.282571637120284D+03
 0.876218304716270D+02 -.642337980837861D+02 -.192691629188957D+02 0.563941816088769D+02
0.402506229946D-02 0.000000000000D+00 0.000000000000D+00 0.120878418398D-04 0.000000000000D+00  6 -2 2 25 1 -1 21 0 0.65880630D-01 0.37655502D+00 0.43407381D+06 0.43407381D+06 0.43407381D+06 0.10728775D+01  1  2  2  3  6  4        1 0.412499493855D-02 0.100000000000D+01
0.131085682531D-02 0.000000000000D+00 -.154572990532D-04 0.120878418398D-04 0.000000000000D+00  6 -2 2 25 1 -1 21 2 0.65880630D-01 0.37655502D+00 0.43407381D+06 0.43407381D+06 0.43407381D+06 0.10728775D+01  1  2  3  3  6  4        1 0.154634489257D-02 0.100000000000D+01
-.263366587998D-02 0.000000000000D+00 0.000000000000D+00 0.120878418398D-04 0.000000000000D+00  6 -2 2 25 1 -1 21 2 0.65880630D-01 0.37655502D+00 0.43407381D+06 0.43407381D+06 0.43407381D+06 0.10728775D+01  1  2 15  3  6  4        1 -.310678916538D-02 0.100000000000D+01
-.174740665087D-04 0.000000000000D+00 0.000000000000D+00 0.120878418398D-04 0.000000000000D+00  6 -2 2 25 1 -1 21 2 0.65880630D-01 0.37655502D+00 0.43407381D+06 0.43407381D+06 0.43407381D+06 0.10728775D+01  1  2  4  3  6  4        1 -.206131844276D-04 0.100000000000D+01
0.303181097725D-04 0.000000000000D+00 0.000000000000D+00 0.120878418398D-04 0.000000000000D+00  6 -2 2 25 1 -1 21 2 0.65880630D-01 0.37655502D+00 0.43407381D+06 0.43407381D+06 0.43407381D+06 0.10728775D+01  1  2  5  3  6  4        1 0.357645879351D-04 0.100000000000D+01
-.331661701696D-04 0.000000000000D+00 0.000000000000D+00 0.120878418398D-04 0.000000000000D+00  6 -2 2 25 1 -1 21 2 0.65880630D-01 0.37655502D+00 0.43407381D+06 0.43407381D+06 0.43407381D+06 0.10728775D+01  1  2  6  3  6  4        1 -.391242863886D-04 0.100000000000D+01
  </mgrwgt>
  </event>
  <event>
  5     66 0.17652913E-05 0.83336180E+02 0.75467711E-02 0.91072817E-01
       -2 -1    0    0    0  501 0.00000000E+00 0.00000000E+00 0.75953421E+03 0.75953428E+03 0.32000000E+00 0.0000E+00 0.9000E+01
        2 -1    0    0  502    0 -.00000000E+00 -.00000000E+00 -.47965034E+04 0.47965034E+04 0.32000000E+00 0.0000E+00 0.9000E+01
       25  1    1    2    0    0 -.28424856E+03 0.59035819E+03 -.28949509E+04 0.29708056E+04 0.12500000E+03 0.0000E+00 0.9000E+01
        1  1    1    2  502    0 0.55817149E+02 -.61884109E+02 -.17476379E+04 0.17496238E+04 0.32000000E+00 0.0000E+00 0.9000E+01
       -1  1    1    2    0  501 0.22843142E+03 -.52847408E+03 0.60561969E+03 0.83560821E+03 0.32000000E+00 0.0000E+00 0.9000E+01
#aMCatNLO 1  0  0  4  5 0.41165939D+02 0.00000000D+00  -5  6  0 0.00000000D+00 0.00000000D+00 0.00000000D+00 0.00000000D+00 0.00000000D+00
  <mgrwgt>
 0.2209527327D-03    7    2    0
 0.190869290402896D+04 0.000000000000000D+00 0.000000000000000D+00 0.190869290402896D+04
 0.190869290402896D+04 -.000000000000000D+00 -.000000000000000D+00 -.190869290402896D+04
 0.126241883361115D+04 -.284247701273575D+03 0.590357444278107D+03 -.107180112136639D+04
 0.698317961882682D+03 0.558160595567120D+02 -.618828444713489D+02 -.693327525015183D+03
 0.185664901256409D+04 0.228431641716862D+03 -.528474599806758D+03 0.176512864638157D+04
 0.000000000000000D+00 0.000000000000000D+00 0.000000000000000D+00 -.000000000000000D+00
 0.190869290402896D+04 0.000000000000000D+00 0.000000000000000D+00 0.190869290402896D+04
 0.190869290402896D+04 -.000000000000000D+00 -.000000000000000D+00 -.190869290402896D+04
 0.126506905934434D+04 -.283977514859153D+03 0.590057890637189D+03 -.107515728229016D+04
 0.599297686250134D+03 0.740189670724874D+02 -.843271387031394D+02 -.588700129893333D+03
 0.185214205003470D+04 0.228828108486034D+03 -.528914159525046D+03 0.176020387515974D+04
 0.100877012428749D+03 -.188695606993688D+02 0.231834075909972D+02 -.963464629762424D+02
0.194481472336D-01 0.000000000000D+00 0.000000000000D+00 0.111900458471D-03 0.000000000000D+00  6 -2 2 25 1 -1 21 0 0.11685142D+00 0.73792360D+00 0.43964085D+06 0.43964085D+06 0.43964085D+06 0.10724817D+01  1  2  2  3  6  4        1 0.782166343677D-04 0.100000000000D+01
0.368843603530D-02 0.000000000000D+00 -.746860061917D-04 0.111900458471D-03 0.000000000000D+00  6 -2 2 25 1 -1 21 2 0.11685142D+00 0.73792360D+00 0.43964085D+06 0.43964085D+06 0.43964085D+06 0.10724817D+01  1  2  3  3  6  4        1 0.170625093958D-04 0.100000000000D+01
-.129457337512D-01 0.000000000000D+00 0.000000000000D+00 0.111900458471D-03 0.000000000000D+00  6 -2 2 25 1 -1 21 2 0.11685142D+00 0.73792360D+00 0.43964085D+06 0.43964085D+06 0.43964085D+06 0.10724817D+01  1  2 15  3  6  4        1 -.598862774497D-04 0.100000000000D+01
0.585110549277D-09 0.000000000000D+00 0.000000000000D+00 0.111900458471D-03 0.000000000000D+00  6 -2 2 25 1 -1 21 2 0.11685142D+00 0.73792360D+00 0.47959043D+06 0.47959043D+06 0.47959043D+06 0.10697919D+01  1  2 12  3  6  4        1 0.266283271374D-11 0.100000000000D+01
-.125562359706D-01 0.000000000000D+00 0.000000000000D+00 0.111900458471D-03 0.000000000000D+00  6 -2 2 25 1 -1 21 2 0.11685142D+00 0.73792360D+00 0.43964085D+06 0.43964085D+06 0.43964085D+06 0.10724817D+01  1  2  4  3  6  4        1 -.580844813829D-04 0.100000000000D+01
-.254599737211D+00 0.000000000000D+00 0.000000000000D+00 0.111900458471D-03 0.000000000000D+00  6 -2 2 25 1 -1 21 2 0.11685142D+00 0.73792360D+00 0.43964085D+06 0.43964085D+06 0.43964085D+06 0.10724817D+01  1  2  5  3  6  4        1 -.117776487561D-02 0.100000000000D+01
0.307268811936D+00 0.000000000000D+00 -.000000000000D+00 0.111900458471D-03 0.000000000000D+00  6 -2 2 25 1 -1 21 2 0.11685142D+00 0.73792360D+00 0.43964085D+06 0.43964085D+06 0.43964085D+06 0.10724817D+01  1  2  6  3  6  4        1 0.142140922074D-02 0.100000000000D+01
  </mgrwgt>
  </event>
  <event>
  5     66 0.17652913E-05 0.13433824E+02 0.75467711E-02 0.90641390E-01
       -2 -1    0    0    0  501 0.00000000E+00 0.00000000E+00 0.15262013E+04 0.15262013E+04 0.32000000E+00 0.0000E+00 0.9000E+01
        2 -1    0    0  502    0 0.00000000E+00 0.00000000E+00 -.12624216E+04 0.12624217E+04 0.32000000E+00 0.0000E+00 0.9000E+01
       25  1    1    2    0    0 -.59978156E+02 -.65860623E+03 -.44308796E+03 0.80579866E+03 0.12500000E+03 0.0000E+00 0.9000E+01
        1  1    1    2  502    0 0.12624205E+02 -.45924576E+01 -.55571271E+03 0.55587514E+03 0.32000000E+00 0.0000E+00 0.9000E+01
       -1  1    1    2    0  501 0.47353951E+02 0.66319868E+03 0.12625803E+04 0.14269492E+04 0.32000000E+00 0.0000E+00 0.9000E+01
#aMCatNLO 1  0  0  4  1 0.19026345D+03 0.00000000D+00  -5  6  0 0.00000000D+00 0.00000000D+00 0.00000000D+00 0.00000000D+00 0.00000000D+00
  <mgrwgt>
 0.5395753521D-02    6    2    0
 0.138805965927654D+04 0.000000000000000D+00 0.000000000000000D+00 0.138805965927654D+04
 0.138805965927654D+04 -.000000000000000D+00 -.000000000000000D+00 -.138805965927654D+04
 0.851517601231177D+03 -.599783337979852D+02 -.658604843934552D+03 -.521631559845893D+03
 0.611195563231906D+03 0.126244871469622D+02 -.459237886116226D+01 -.611047910474324D+03
 0.131340615409000D+04 0.473538466510251D+02 0.663197222795714D+03 0.113267947032022D+04
 0.000000000000000D+00 0.000000000000000D+00 0.000000000000000D+00 -.000000000000000D+00
 0.138805965927654D+04 0.000000000000000D+00 0.000000000000000D+00 0.138805965927654D+04
 0.138805965927654D+04 -.000000000000000D+00 -.000000000000000D+00 -.138805965927654D+04
 0.853251550186872D+03 -.599203629989041D+02 -.658625931830573D+03 -.524437450907817D+03
 0.377936115843480D+03 0.568102552401031D+02 -.173897809060569D+02 -.373237053463948D+03
 0.130967150700217D+04 0.474430445978197D+02 0.663164775476425D+03 0.112836212907911D+04
 0.235260145520558D+03 -.443329368390166D+02 0.128509372602040D+02 -.230687624707344D+03
0.606310480230D-02 0.000000000000D+00 0.000000000000D+00 0.236833030759D-03 0.000000000000D+00  6 -2 2 25 1 -1 21 0 0.23480020D+00 0.19421872D+00 0.45654306D+06 0.45654306D+06 0.45654306D+06 0.10713125D+01  1  2  2  3  6  4        1 0.965456597343D-03 0.100000000000D+01
0.575028552417D-02 0.000000000000D+00 -.232839188930D-04 0.236833030759D-03 0.000000000000D+00  6 -2 2 25 1 -1 21 2 0.23480020D+00 0.19421872D+00 0.45654306D+06 0.45654306D+06 0.45654306D+06 0.10713125D+01  1  2  3  3  6  4        1 0.105089516767D-02 0.100000000000D+01
-.439198999913D-02 0.000000000000D+00 0.000000000000D+00 0.236833030759D-03 0.000000000000D+00  6 -2 2 25 1 -1 21 2 0.23480020D+00 0.19421872D+00 0.45654306D+06 0.45654306D+06 0.45654306D+06 0.10713125D+01  1  2 15  3  6  4        1 -.802659458759D-03 0.100000000000D+01
-.342910418409D-03 0.000000000000D+00 0.000000000000D+00 0.236833030759D-03 0.000000000000D+00  6 -2 2 25 1 -1 21 2 0.23480020D+00 0.19421872D+00 0.45654306D+06 0.45654306D+06 0.45654306D+06 0.10713125D+01  1  2  4  3  6  4        1 -.626686970820D-04 0.100000000000D+01
-.444928211771D-01 0.000000000000D+00 0.000000000000D+00 0.236833030759D-03 0.000000000000D+00  6 -2 2 25 1 -1 21 2 0.23480020D+00 0.19421872D+00 0.45654306D+06 0.45654306D+06 0.45654306D+06 0.10713125D+01  1  2  5  3  6  4        1 -.813129897193D-02 0.100000000000D+01
0.677191235852D-01 0.000000000000D+00 -.000000000000D+00 0.236833030759D-03 0.000000000000D+00  6 -2 2 25 1 -1 21 2 0.23480020D+00 0.19421872D+00 0.45654306D+06 0.45654306D+06 0.45654306D+06 0.10713125D+01  1  2  6  3  6  4        1 0.123760288833D-01 0.100000000000D+01
  </mgrwgt>
  </event>
  <event>
  5     66 0.17652913E-05 0.75872033E+02 0.75467711E-02 0.95084441E-01
       -2 -1    0    0    0  501 0.00000000E+00 0.00000000E+00 0.20543672E+04 0.20543673E+04 0.32000000E+00 0.0000E+00 0.9000E+01
        2 -1    0    0  502    0 0.00000000E+00 0.00000000E+00 -.10068571E+04 0.10068572E+04 0.32000000E+00 0.0000E+00 0.9000E+01
       25  1    1    2    0    0 0.34760819E+03 -.31299593E+03 0.20116816E+03 0.52430100E+03 0.12500000E+03 0.0000E+00 0.9000E+01
        1  1    1    2  502    0 -.72683633E+02 0.21740207E+02 -.81980781E+03 0.82331070E+03 0.32000000E+00 0.0000E+00 0.9000E+01
       -1  1    1    2    0  501 -.27492456E+03 0.29125572E+03 0.16661498E+04 0.17136127E+04 0.32000000E+00 0.0000E+00 0.9000E+01
#aMCatNLO 1  0  0  2  1 0.50598420D+02 0.00000000D+00  -5  6  0 0.00000000D+00 0.00000000D+00 0.00000000D+00 0.00000000D+00 0.00000000D+00
  <mgrwgt>
 0.7819494965D-02    7    2    0
 0.143821221553197D+04 0.000000000000000D+00 0.000000000000000D+00 0.143821221553197D+04
 0.143821221553197D+04 0.000000000000000D+00 0.000000000000000D+00 -.143821221553197D+04
 0.484723620751326D+03 0.347606249042350D+03 -.312989141722194D+03 0.232310418403368D+02
 0.117479481711478D+04 -.726900267214967D+02 0.217422508158116D+02 -.117234222685377D+04
 0.121690599319782D+04 -.274916222320853D+03 0.291246890906383D+03 0.114911118501343D+04
 0.000000000000000D+00 0.000000000000000D+00 -.000000000000000D+00 -.000000000000000D+00
 0.150138574060729D+04 0.000000000000000D+00 0.000000000000000D+00 0.150138574060729D+04
 0.158431606270068D+04 0.000000000000000D+00 0.000000000000000D+00 -.158431606270068D+04
 0.456750622705461D+03 0.320280933429018D+03 -.299794218954729D+03 0.232310418403368D+02
 0.118207211553846D+04 -.141095650391998D+03 0.547741445353556D+02 -.117234222685377D+04
 0.124358405640603D+04 -.346329399724440D+03 0.325731080357425D+03 0.114911118501343D+04
 0.203295008658019D+03 0.167144116687420D+03 -.807110059380510D+02 -.829303220933954D+02
0.580800082900D-01 0.000000000000D+00 0.000000000000D+00 0.777573601601D-03 0.000000000000D+00  6 -2 2 25 1 -1 21 0 0.31605650D+00 0.15490110D+00 0.23066068D+06 0.23066068D+06 0.23066068D+06 0.10930994D+01  1  2  2  2  6  2        2 0.414513411199D-02 0.100000000000D+01
0.194639159925D-01 0.000000000000D+00 -.223042524651D-03 0.777573601601D-03 0.000000000000D+00  6 -2 2 25 1 -1 21 2 0.31605650D+00 0.15490110D+00 0.23066068D+06 0.23066068D+06 0.23066068D+06 0.10930994D+01  1  2  3  2  6  2        2 0.165982177681D-02 0.100000000000D+01
-.418467507564D-01 0.000000000000D+00 0.000000000000D+00 0.777573601601D-03 0.000000000000D+00  6 -2 2 25 1 -1 21 2 0.31605650D+00 0.15490110D+00 0.23066068D+06 0.23066068D+06 0.23066068D+06 0.10930994D+01  1  2 15  2  6  2        2 -.356855980169D-02 0.100000000000D+01
-.123435463848D-02 0.000000000000D+00 0.000000000000D+00 0.777573601601D-03 0.000000000000D+00  6 -2 2 25 1 -1 21 2 0.31605650D+00 0.15490110D+00 0.23066068D+06 0.23066068D+06 0.23066068D+06 0.10930994D+01  1  2  4  2  6  2        2 -.105261896427D-03 0.100000000000D+01
-.341070365455D+00 0.000000000000D+00 -.116889456396D+00 0.777573601601D-03 0.000000000000D+00  6 -2 2 25 1 -1 21 2 0.31605650D+00 0.17522309D+00 0.23066068D+06 0.23066068D+06 0.23066068D+06 0.10930994D+01  1  2  5  2  6  2        2 -.242262467493D-01 0.100000000000D+01
0.353671595599D+00 0.000000000000D+00 0.116006904352D+00 0.777573601601D-03 0.000000000000D+00  6 -2 2 25 1 -1 21 2 0.31605650D+00 0.15490110D+00 0.23066068D+06 0.23066068D+06 0.23066068D+06 0.10930994D+01  1  2  6  2  6  2        2 0.301600056454D-01 0.100000000000D+01
-.605114440849D-02 0.000000000000D+00 -.226847738715D-02 0.777573601601D-03 0.000000000000D+00  6 -2 21 25 1 -1 -2 2 0.31605650D+00 0.17522309D+00 0.23066068D+06 0.23066068D+06 0.23066068D+06 0.10930994D+01  1  2  5  6  6  2        2 -.245398121259D-03 0.100000000000D+01
  </mgrwgt>
  </event>
  <event>
  5     66 0.17652913E-05 0.50702573E+02 0.75467711E-02 0.93728066E-01
       -2 -1    0    0    0  501 0.00000000E+00 0.00000000E+00 0.20476267E+03 0.20476292E+03 0.32000000E+00 0.0000E+00 0.9000E+01
        2 -1    0    0  502    0 0.00000000E+00 0.00000000E+00 -.21082973E+04 0.21082974E+04 0.32000000E+00 0.0000E+00 0.9000E+01
       25  1    1    2    0    0 0.29052733E+02 0.45457530E+03 -.61646968E+03 0.77662258E+03 0.12500000E+03 0.0000E+00 0.9000E+01
        1  1    1    2  502    0 0.19092479E+02 -.47057499E+03 -.13647084E+04 0.14436878E+04 0.32000000E+00 0.0000E+00 0.9000E+01
       -1  1    1    2    0  501 -.48145212E+02 0.15999699E+02 0.77643387E+02 0.92749931E+02 0.32000000E+00 0.0000E+00 0.9000E+01
#aMCatNLO 1  0  0  2  4 0.28938869D+02 0.00000000D+00  -5  6  0 0.00000000D+00 0.00000000D+00 0.00000000D+00 0.00000000D+00 0.00000000D+00
  <mgrwgt>
 0.2406474083D-01    7    2    0
 0.657039505716079D+03 0.000000000000000D+00 0.000000000000000D+00 0.657039505716079D+03
 0.657039505716079D+03 0.000000000000000D+00 0.000000000000000D+00 -.657039505716079D+03
 0.474140719791524D+03 0.290318264361556D+02 0.454690076844837D+03 0.399813611204191D+02
 0.564378412623651D+03 0.190834397363209D+02 -.470679824221866D+03 -.310836481182464D+03
 0.275559879016982D+03 -.481152661724764D+02 0.159897473770287D+02 0.270855120062044D+03
 0.000000000000000D+00 0.000000000000000D+00 -.000000000000000D+00 -.000000000000000D+00
 0.685770820176053D+03 0.000000000000000D+00 0.000000000000000D+00 0.685770820176053D+03
 0.711652738740522D+03 0.000000000000000D+00 0.000000000000000D+00 -.711652738740522D+03
 0.486505552181402D+03 0.456540137336383D+01 0.468447756080216D+03 0.399813611204191D+02
 0.550877035223285D+03 -.932068219357339D+01 -.454707944493987D+03 -.310836481182464D+03
 0.278942142530911D+03 -.622377195178743D+02 0.239309231983410D+02 0.270855120062044D+03
 0.810988289809770D+02 0.669930003380839D+02 -.376707347845705D+02 -.258819185644687D+02
0.123644723944D-02 0.000000000000D+00 0.000000000000D+00 0.560973253460D-05 0.000000000000D+00  6 -2 2 25 1 -1 21 0 0.31501971D-01 0.32435346D+00 0.24711891D+06 0.24711891D+06 0.24711891D+06 0.10908380D+01  1  2  2  2  6  2        2 0.855806432669D-02 0.100000000000D+01
0.353376492429D-03 0.000000000000D+00 -.474828296349D-05 0.560973253460D-05 0.000000000000D+00  6 -2 2 25 1 -1 21 2 0.31501971D-01 0.32435346D+00 0.24711891D+06 0.24711891D+06 0.24711891D+06 0.10908380D+01  1  2  3  2  6  2        2 0.291043660447D-02 0.100000000000D+01
-.819071335127D-03 0.000000000000D+00 0.000000000000D+00 0.560973253460D-05 0.000000000000D+00  6 -2 2 25 1 -1 21 2 0.31501971D-01 0.32435346D+00 0.24711891D+06 0.24711891D+06 0.24711891D+06 0.10908380D+01  1  2 15  2  6  2        2 -.674593598187D-02 0.100000000000D+01
-.718298637679D-03 0.000000000000D+00 0.000000000000D+00 0.560973253460D-05 0.000000000000D+00  6 -2 2 25 1 -1 21 2 0.31501971D-01 0.32435346D+00 0.24711891D+06 0.24711891D+06 0.24711891D+06 0.10908380D+01  1  2  4  2  6  2        2 -.591596411428D-02 0.100000000000D+01
-.119061285240D-01 0.000000000000D+00 -.246762875254D-02 0.560973253460D-05 0.000000000000D+00  6 -2 2 25 1 -1 21 2 0.31501971D-01 0.35770720D+00 0.24711891D+06 0.24711891D+06 0.24711891D+06 0.10908380D+01  1  2  5  2  6  2        2 -.742489085989D-01 0.100000000000D+01
0.121014199096D-01 0.000000000000D+00 0.245585497963D-02 0.560973253460D-05 0.000000000000D+00  6 -2 2 25 1 -1 21 2 0.31501971D-01 0.32435346D+00 0.24711891D+06 0.24711891D+06 0.24711891D+06 0.10908380D+01  1  2  6  2  6  2        2 0.996682468286D-01 0.100000000000D+01
-.182013331213D-03 0.000000000000D+00 -.393441335100D-04 0.560973253460D-05 0.000000000000D+00  6 -2 21 25 1 -1 -2 2 0.31501971D-01 0.35770720D+00 0.24711891D+06 0.24711891D+06 0.24711891D+06 0.10908380D+01  1  2  5  6  6  2        2 -.161198235432D-03 0.100000000000D+01
  </mgrwgt>
  </event>
  <event>
  6     66 -.17652913E-05 0.30504296E+02 0.75467711E-02 0.91077543E-01
       -2 -1    0    0    0  501 0.00000000E+00 0.00000000E+00 0.18068873E+03 0.18068902E+03 0.32000000E+00 0.0000E+00 0.9000E+01
        2 -1    0    0  502    0 -.00000000E+00 -.00000000E+00 -.31680229E+04 0.31680229E+04 0.32000000E+00 0.0000E+00 0.9000E+01
       25  1    1    2    0    0 -.40994208E+03 -.53563688E+03 -.10439064E+04 0.12491297E+04 0.12500000E+03 0.0000E+00 0.9000E+01
        1  1    1    2  502    0 0.32584883E+02 -.10950907E+02 -.59376419E+03 0.59475854E+03 0.32000000E+00 0.0000E+00 0.9000E+01
       -1  1    1    2    0  503 0.36540687E+03 0.52732188E+03 -.12840682E+04 0.14354169E+04 0.32000000E+00 0.0000E+00 0.9000E+01
       21  1    1    2  503  501 0.11950329E+02 0.19265905E+02 -.65595339E+02 0.69406747E+02 0.75000000E+00 0.0000E+00 0.9000E+01
#aMCatNLO 2  0  0  5  1 0.76817723D+01 0.00000000D+00  -5  6  0 0.00000000D+00 0.00000000D+00 0.00000000D+00 0.00000000D+00 0.00000000D+00
  <mgrwgt>
 -.2398118115D-03    6    2    0
 0.756588748735073D+03 0.000000000000000D+00 0.000000000000000D+00 0.756588748735073D+03
 0.756588748735073D+03 -.000000000000000D+00 -.000000000000000D+00 -.756588748735073D+03
 0.704006927173746D+03 -.410253717668863D+03 -.536052824027824D+03 0.156012853634858D+03
 0.144145240735578D+03 0.325351770307336D+02 -.110583540621732D+02 -.139989376338822D+03
 0.665025329560822D+03 0.377718540638129D+03 0.547111178089998D+03 -.160234772960361D+02
 0.000000000000000D+00 0.000000000000000D+00 0.000000000000000D+00 -.000000000000000D+00
 0.756588748735073D+03 0.000000000000000D+00 0.000000000000000D+00 0.756588748735073D+03
 0.756588748735073D+03 -.000000000000000D+00 -.000000000000000D+00 -.756588748735073D+03
 0.703418936176990D+03 -.409906818415951D+03 -.535550353435255D+03 0.155998137565338D+03
 0.144156364917752D+03 0.326062369808302D+02 -.109554263823545D+02 -.139992390825469D+03
 0.641677240096222D+03 0.365450897830252D+03 0.527383657912954D+03 -.786124029142050D+01
 0.239249562791830D+02 0.118496836048689D+02 0.191221219046553D+02 -.814450644844872D+01
-.778938879438D-07 0.000000000000D+00 0.000000000000D+00 0.299685170413D-06 0.000000000000D+00  6 -2 2 25 1 -1 21 2 0.27798290D-01 0.48738815D+00 0.47915849D+06 0.47915849D+06 0.47915849D+06 0.10698197D+01  1  2 13  4  6  5       -1 -.172915121291D-06 0.100000000000D+01
-.290835051997D-03 0.000000000000D+00 0.000000000000D+00 0.299685170413D-06 0.000000000000D+00  6 -2 2 25 1 -1 21 2 0.27798290D-01 0.48738815D+00 0.47915849D+06 0.47915849D+06 0.47915849D+06 0.10698197D+01  1  2 13  4  6  5       -1 -.645619054576D-03 0.100000000000D+01
-.815688286820D-03 0.000000000000D+00 0.000000000000D+00 0.299685170413D-06 0.000000000000D+00  6 -2 2 25 1 -1 21 2 0.27798290D-01 0.48738815D+00 0.48003970D+06 0.48003970D+06 0.48003970D+06 0.10697631D+01  1  2  8  4  6  5       -1 -.181032256551D-02 0.100000000000D+01
-.494545097789D-03 0.000000000000D+00 0.000000000000D+00 0.299685170413D-06 0.000000000000D+00  6 -2 2 25 1 -1 21 2 0.27798290D-01 0.48738815D+00 0.48003970D+06 0.48003970D+06 0.48003970D+06 0.10697631D+01  1  2  9  4  6  5       -1 -.109758367829D-02 0.100000000000D+01
0.512656679483D-03 0.000000000000D+00 0.000000000000D+00 0.299685170413D-06 0.000000000000D+00  6 -2 2 25 1 -1 21 2 0.27798290D-01 0.48738815D+00 0.48003970D+06 0.48003970D+06 0.48003970D+06 0.10697631D+01  1  2 10  4  6  5       -1 0.113778016703D-02 0.100000000000D+01
0.980280810362D-03 0.000000000000D+00 0.000000000000D+00 0.299685170413D-06 0.215810110766D-07  6 -2 2 25 1 -1 21 2 0.27798290D-01 0.48738815D+00 0.47915849D+06 0.47915849D+06 0.47915849D+06 0.10698197D+01  1  2  1  4  6  5       -1 0.217610623500D-02 0.100000000000D+01
  </mgrwgt>
  </event>
  <event>
  5     66 0.17652913E-05 0.32692711E+02 0.75467711E-02 0.92522558E-01
       -2 -1    0    0    0  501 0.00000000E+00 0.00000000E+00 0.11918818E+04 0.11918818E+04 0.32000000E+00 0.0000E+00 0.9000E+01
        2 -1    0    0  502    0 0.00000000E+00 0.00000000E+00 -.65890056E+03 0.65890064E+03 0.32000000E+00 0.0000E+00 0.9000E+01
       25  1    1    2    0    0 0.28004290E+03 -.51857296E+03 -.80097929E+02 0.60776855E+03 0.12500000E+03 0.0000E+00 0.9000E+01
        1  1    1    2  502    0 0.11099645E+02 0.30748906E+02 -.22674535E+03 0.22909006E+03 0.32000000E+00 0.0000E+00 0.9000E+01
       -1  1    1    2    0  501 -.29114254E+03 0.48782405E+03 0.83982452E+03 0.10139239E+04 0.32000000E+00 0.0000E+00 0.9000E+01
#aMCatNLO 1  0  0  4  5 0.59561116D+01 0.00000000D+00  -5  6  0 0.00000000D+00 0.00000000D+00 0.00000000D+00 0.00000000D+00 0.00000000D+00
  <mgrwgt>
 0.2736878457D-02    8    2    0
 0.886189424115321D+03 0.000000000000000D+00 0.000000000000000D+00 0.886189424115321D+03
 0.886189424115321D+03 -.000000000000000D+00 -.000000000000000D+00 -.886189424115321D+03
 0.658727756518909D+03 0.280040119072033D+03 -.518570647229104D+03 -.266381817605754D+03
 0.307429672931937D+03 0.110999969009378D+02 0.307506653350870D+02 -.305686425032723D+03
 0.806221418779797D+03 -.291140115972971D+03 0.487819981894017D+03 0.572068242638477D+03
 0.000000000000000D+00 0.000000000000000D+00 0.000000000000000D+00 0.000000000000000D+00
 0.886189424115321D+03 0.000000000000000D+00 0.000000000000000D+00 0.886189424115321D+03
 0.886189424115321D+03 -.000000000000000D+00 -.000000000000000D+00 -.886189424115321D+03
 0.658812858923679D+03 0.280049186517564D+03 -.518545527403805D+03 -.266631528937505D+03
 0.292993876604773D+02 -.773509194837987D+00 -.276976189719181D+01 -.291579186472101D+02
 0.806019224968632D+03 -.291129020372540D+03 0.487850720379674D+03 0.571762677289268D+03
 0.278247376677855D+03 0.118533430498140D+02 0.334645689213226D+02 -.275973229704553D+03
0.288023843770D-03 0.000000000000D+00 0.000000000000D+00 0.205365349701D-04 0.000000000000D+00  6 -2 2 25 1 -1 21 0 0.18336644D+00 0.10136933D+00 0.36195318D+06 0.36195318D+06 0.36195318D+06 0.10785709D+01  1  2  2  3  6  4        1 0.256685687647D-03 0.100000000000D+01
0.127555190041D-03 0.000000000000D+00 -.110608739850D-05 0.205365349701D-04 0.000000000000D+00  6 -2 2 25 1 -1 21 2 0.18336644D+00 0.10136933D+00 0.36195318D+06 0.36195318D+06 0.36195318D+06 0.10785709D+01  1  2  3  3  6  4        1 0.132241793630D-03 0.100000000000D+01
-.169763749537D-03 0.000000000000D+00 0.000000000000D+00 0.205365349701D-04 0.000000000000D+00  6 -2 2 25 1 -1 21 2 0.18336644D+00 0.10136933D+00 0.36195318D+06 0.36195318D+06 0.36195318D+06 0.10785709D+01  1  2 15  3  6  4        1 -.176001170355D-03 0.100000000000D+01
0.768499115965D-09 0.000000000000D+00 0.000000000000D+00 0.205365349701D-04 0.000000000000D+00  6 -2 2 25 1 -1 21 2 0.18336644D+00 0.10136933D+00 0.36538341D+06 0.36538341D+06 0.36538341D+06 0.10782730D+01  1  2 12  3  6  4        1 0.795915723243D-09 0.100000000000D+01
-.423559011302D-03 0.000000000000D+00 0.000000000000D+00 0.205365349701D-04 0.000000000000D+00  6 -2 2 25 1 -1 21 2 0.18336644D+00 0.10136933D+00 0.36195318D+06 0.36195318D+06 0.36195318D+06 0.10785709D+01  1  2  4  3  6  4        1 -.439121319523D-03 0.100000000000D+01
-.161477088788D-02 0.000000000000D+00 0.000000000000D+00 0.205365349701D-04 0.000000000000D+00  6 -2 2 25 1 -1 21 2 0.18336644D+00 0.10136933D+00 0.36195318D+06 0.36195318D+06 0.36195318D+06 0.10785709D+01  1  2  5  3  6  4        1 -.167410043015D-02 0.100000000000D+01
0.425961938521D-02 0.000000000000D+00 -.000000000000D+00 0.205365349701D-04 0.000000000000D+00  6 -2 2 25 1 -1 21 2 0.18336644D+00 0.10136933D+00 0.36195318D+06 0.36195318D+06 0.36195318D+06 0.10785709D+01  1  2  6  3  6  4        1 0.441612534543D-02 0.100000000000D+01
0.213433406080D-03 0.000000000000D+00 0.000000000000D+00 0.205365349701D-04 0.100336919420D-06  6 -2 2 25 1 -1 21 2 0.18336644D+00 0.10136933D+00 0.36538341D+06 0.36538341D+06 0.36538341D+06 0.10782730D+01  1  2 11  3  6  4        1 0.221047754299D-03 0.100000000000D+01
  </mgrwgt>
  </event>
  <event>
  6     66 -.17652913E-05 0.22701544E+03 0.75467711E-02 0.95207394E-01
       -2 -1    0    0    0  501 0.00000000E+00 0.00000000E+00 0.33895365E+03 0.33895380E+03 0.32000000E+00 0.0000E+00 0.9000E+01
        2 -1    0    0  502    0 -.00000000E+00 -.00000000E+00 -.16949026E+04 0.16949027E+04 0.32000000E+00 0.0000E+00 0.9000E+01
       25  1    1    2    0    0 0.32463955E+03 -.31341241E+03 -.33052651E+03 0.57314130E+03 0.12500000E+03 0.0000E+00 0.9000E+01
        1  1    1    2  503    0 -.10754204E+03 0.21765314E+03 -.11584229E+04 0.11835886E+04 0.32000000E+00 0.0000E+00 0.9000E+01
       -1  1    1    2    0  501 -.20928154E+03 0.98071304E+02 0.13628114E+03 0.26830839E+03 0.32000000E+00 0.0000E+00 0.9000E+01
       21  1    1    2  502  503 -.78159708E+01 -.23120426E+01 -.32806982E+01 0.88181869E+01 0.75000000E+00 0.0000E+00 0.9000E+01
#aMCatNLO 2  0  0  4  1 0.85484324D+01 0.00000000D+00  -5  6  0 0.00000000D+00 0.00000000D+00 0.00000000D+00 0.00000000D+00 0.00000000D+00
  <mgrwgt>
 -.1784222430D-03    2    2    0
 0.757953566781725D+03 0.000000000000000D+00 0.000000000000000D+00 0.757953566781725D+03
 0.757953566781725D+03 -.000000000000000D+00 -.000000000000000D+00 -.757953566781725D+03
 0.475252567285810D+03 0.325380951279272D+03 -.314824292457077D+03 0.724769213974395D+02
 0.556587479512582D+03 -.116886238170356D+03 0.218187213790280D+03 -.498519377171025D+03
 0.484067086765057D+03 -.208494713108916D+03 0.966370786667978D+02 0.426042455773585D+03
 0.000000000000000D+00 0.000000000000000D+00 0.000000000000000D+00 0.000000000000000D+00
 0.757953566781725D+03 0.000000000000000D+00 0.000000000000000D+00 0.757953566781725D+03
 0.757953566781725D+03 -.000000000000000D+00 -.000000000000000D+00 -.757953566781725D+03
 0.473334835610979D+03 0.324631514615015D+03 -.313425346779246D+03 0.692805767725938D+02
 0.551865445647527D+03 -.107552691151320D+03 0.217688280110705D+03 -.495580166500129D+03
 0.481824065012007D+03 -.209257820694587D+03 0.980615433475513D+02 0.422787804719038D+03
 0.888278729293716D+01 -.782100276910836D+01 -.232447667900992D+01 0.351178500849700D+01
-.859413607658D-03 0.000000000000D+00 0.000000000000D+00 0.347663927942D-05 0.000000000000D+00  6 -2 2 25 1 -1 21 2 0.52146729D-01 0.26075426D+00 0.22421127D+06 0.22421127D+06 0.22421127D+06 0.10940341D+01  1  2  8  3  6  4        1 -.464181849756D-02 0.100000000000D+01
0.826998180273D-03 0.000000000000D+00 0.000000000000D+00 0.347663927942D-05 0.896063985131D-07  6 -2 2 25 1 -1 21 2 0.52146729D-01 0.26075426D+00 0.22576724D+06 0.22576724D+06 0.22576724D+06 0.10938059D+01  1  2  1  3  6  4        1 0.446339625452D-02 0.100000000000D+01
  </mgrwgt>
  </event>
  <event>
  5     66 0.17652913E-05 0.96059712E+02 0.75467711E-02 0.95011322E-01
       -2 -1    0    0    0  501 0.00000000E+00 0.00000000E+00 0.24418485E+03 0.24418506E+03 0.32000000E+00 0.0000E+00 0.9000E+01
        2 -1    0    0  502    0 -.00000000E+00 -.00000000E+00 -.34561296E+04 0.34561296E+04 0.32000000E+00 0.0000E+00 0.9000E+01
       25  1    1    2    0    0 0.45401976E+03 0.99334509E+02 -.22112412E+03 0.52964343E+03 0.12500000E+03 0.0000E+00 0.9000E+01
        1  1    1    2  502    0 -.65497399E+02 -.70244966E+02 -.26537552E+04 0.26554926E+04 0.32000000E+00 0.0000E+00 0.9000E+01
       -1  1    1    2    0  501 -.38852236E+03 -.29089543E+02 -.33706548E+03 0.51517867E+03 0.32000000E+00 0.0000E+00 0.9000E+01
#aMCatNLO 1  0  0  5  1 0.10070884D+03 0.00000000D+00  -5  6  0 0.00000000D+00 0.00000000D+00 0.00000000D+00 0.00000000D+00 0.00000000D+00
  <mgrwgt>
 0.7099137995D-03    1    2    0
 0.918659291477399D+03 0.000000000000000D+00 0.000000000000000D+00 0.918659291477399D+03
 0.918659291477399D+03 -.000000000000000D+00 -.000000000000000D+00 -.918659291477399D+03
 0.680173437037859D+03 0.453899627784125D+03 0.993363014681490D+02 0.480747679723944D+03
 0.708988070472918D+03 -.655093272920579D+02 -.702566459060464D+02 -.702450436555267D+03
 0.448157075444021D+03 -.388390300492067D+03 -.290796555621025D+02 0.221702756831323D+03
 0.000000000000000D+00 0.000000000000000D+00 0.000000000000000D+00 0.000000000000000D+00
 0.918659291477399D+03 0.000000000000000D+00 0.000000000000000D+00 0.918659291477399D+03
 0.918659291477399D+03 -.000000000000000D+00 -.000000000000000D+00 -.918659291477399D+03
 0.679300761386791D+03 0.450689331909639D+03 0.990959393938020D+02 0.482580195738675D+03
 0.707439071680271D+03 -.688541132513896D+02 -.705070775556089D+02 -.700541150285103D+03
 0.629631717504306D+01 0.249671910712770D+01 -.450992758178412D+01 -.361532251340042D+01
 0.444282432712692D+03 -.384331937765377D+03 -.240789342564089D+02 0.221576277059829D+03
0.786769811577D-03 0.000000000000D+00 0.000000000000D+00 0.657036018192D-05 0.000000000000D+00  6 -2 2 25 1 -1 21 2 0.37566917D-01 0.53171226D+00 0.23362715D+06 0.23362715D+06 0.23362715D+06 0.10926790D+01  1  2 14  4  6  5       -1 0.709913799505D-03 0.100000000000D+01
  </mgrwgt>
  </event>
  <event>
  5     66 0.17652913E-05 0.40279791E+02 0.75467711E-02 0.94882512E-01
       -2 -1    0    0    0  501 0.00000000E+00 0.00000000E+00 0.15671942E+04 0.15671942E+04 0.32000000E+00 0.0000E+00 0.9000E+01
        2 -1    0    0  502    0 0.00000000E+00 0.00000000E+00 -.12157690E+04 0.12157690E+04 0.32000000E+00 0.0000E+00 0.9000E+01
       25  1    1    2    0    0 0.23405774E+03 0.42093815E+03 0.61773317E+03 0.79321574E+03 0.12500000E+03 0.0000E+00 0.9000E+01
        1  1    1    2  502    0 -.31680205E+02 0.24869167E+02 -.10580722E+04 0.10588385E+04 0.32000000E+00 0.0000E+00 0.9000E+01
       -1  1    1    2    0  501 -.20237754E+03 -.44580731E+03 0.79176425E+03 0.93090899E+03 0.32000000E+00 0.0000E+00 0.9000E+01
#aMCatNLO 1  0  0  5  1 0.31991763D+02 0.00000000D+00  -5  6  0 0.00000000D+00 0.00000000D+00 0.00000000D+00 0.00000000D+00 0.00000000D+00
  <mgrwgt>
 0.5328607750D-01    3    2    0
 0.138034276895575D+04 0.000000000000000D+00 0.000000000000000D+00 0.138034276895575D+04
 0.138034276895575D+04 -.000000000000000D+00 -.000000000000000D+00 -.138034276895575D+04
 0.721043611695241D+03 0.234033053534732D+03 0.420873478867462D+03 0.521893604679850D+03
 0.120212619230251D+04 -.316836791009221D+02 0.248717923560728D+02 -.120145117280869D+04
 0.837515733913743D+03 -.202349374433810D+03 -.445745271223535D+03 0.679557568128837D+03
 0.000000000000000D+00 0.000000000000000D+00 0.000000000000000D+00 0.000000000000000D+00
 0.138034276895575D+04 0.000000000000000D+00 0.000000000000000D+00 0.138034276895575D+04
 0.138034276895575D+04 -.000000000000000D+00 -.000000000000000D+00 -.138034276895575D+04
 0.726260849406098D+03 0.228151525029956D+03 0.407917355203101D+03 0.541645764619904D+03
 0.116981571163822D+04 -.413227317637501D+02 0.363840749608839D+01 -.116907997717270D+04
 0.869712027709165D+02 -.354506668424894D+02 -.614952455014724D+02 -.502551003636086D+02
 0.777637774096264D+03 -.151378126423716D+03 -.350060517197717D+03 0.677689312916401D+03
0.359007206586D+00 0.000000000000D+00 0.000000000000D+00 0.256746229159D-03 0.000000000000D+00  6 -2 2 25 1 -1 21 0 0.24110680D+00 0.18704138D+00 0.26385122D+06 0.26385122D+06 0.26385122D+06 0.10887017D+01  1  2  2  4  6  5       -1 0.576808008829D-01 0.100000000000D+01
0.207881290826D+00 0.000000000000D+00 -.137868220206D-02 0.256746229159D-03 0.000000000000D+00  6 -2 2 25 1 -1 21 2 0.24110680D+00 0.18704138D+00 0.26385122D+06 0.26385122D+06 0.26385122D+06 0.10887017D+01  1  2  3  4  6  5       -1 0.395877929787D-01 0.100000000000D+01
-.230958626057D+00 0.000000000000D+00 0.000000000000D+00 0.256746229159D-03 0.000000000000D+00  6 -2 2 25 1 -1 21 2 0.24110680D+00 0.18704138D+00 0.26385122D+06 0.26385122D+06 0.26385122D+06 0.10887017D+01  1  2 15  4  6  5       -1 -.439825163613D-01 0.100000000000D+01
  </mgrwgt>
  </event>
  <event>
  5     66 -.17652913E-05 0.25357769E+03 0.75467711E-02 0.93787739E-01
       -2 -1    0    0    0  501 0.00000000E+00 0.00000000E+00 0.70529055E+03 0.70529062E+03 0.32000000E+00 0.0000E+00 0.9000E+01
        2 -1    0    0  502    0 0.00000000E+00 0.00000000E+00 -.36650876E+04 0.36650877E+04 0.32000000E+00 0.0000E+00 0.9000E+01
       25  1    1    2    0    0 -.35206897E+03 -.34429778E+03 -.24622016E+03 0.56457319E+03 0.12500000E+03 0.0000E+00 0.9000E+01
        1  1    1    2  502    0 0.10730873E+03 0.27796106E+03 -.32230053E+04 0.32367484E+04 0.32000000E+00 0.0000E+00 0.9000E+01
       -1  1    1    2    0  501 0.24476024E+03 0.66336714E+02 0.50942832E+03 0.56905664E+03 0.32000000E+00 0.0000E+00 0.9000E+01
#aMCatNLO 1  0  0  2  4 0.21958508D+02 0.00000000D+00  -5  6  0 0.00000000D+00 0.00000000D+00 0.00000000D+00 0.00000000D+00 0.00000000D+00
  <mgrwgt>
 -.8073208802D-02   11    2    0
 0.160777854953298D+04 0.000000000000000D+00 0.000000000000000D+00 0.160777854953298D+04
 0.160777854953298D+04 0.000000000000000D+00 0.000000000000000D+00 -.160777854953298D+04
 0.540734946132538D+03 -.352067347956020D+03 -.344318994335913D+03 0.185100768803586D+03
 0.143255048684258D+04 0.107319458356905D+03 0.277985628478806D+03 -.140121640782933D+04
 0.124227166609085D+04 0.244747889599114D+03 0.663333658571075D+02 0.121611563902574D+04
 0.000000000000000D+00 -.000000000000000D+00 0.000000000000000D+00 -.000000000000000D+00
 0.160800425764461D+04 0.000000000000000D+00 0.000000000000000D+00 0.160800425764461D+04
 0.224825546583730D+04 0.000000000000000D+00 0.000000000000000D+00 -.224825546583730D+04
 0.541932728443697D+03 -.350579929424481D+03 -.347703178920580D+03 0.185100768803586D+03
 0.143114090678044D+04 0.111253728999233D+03 0.269034349617234D+03 -.140121640782933D+04
 0.124255843847823D+04 0.248161663217789D+03 0.585663253026828D+02 0.121611563902574D+04
 0.640627649779545D+03 -.883546279254024D+01 0.201025040006635D+02 -.640251208192697D+03
0.751861002080D-03 0.000000000000D+00 0.000000000000D+00 0.959372423226D-04 0.000000000000D+00  6 -2 2 25 1 -1 21 0 0.10850624D+00 0.56385964D+00 0.28070231D+06 0.28070231D+06 0.28070231D+06 0.10866947D+01  1  2  2  2  6  2        2 0.413717380340D-04 0.100000000000D+01
0.868044709461D-04 0.000000000000D+00 -.288734421753D-05 0.959372423226D-04 0.000000000000D+00  6 -2 2 25 1 -1 21 2 0.10850624D+00 0.56385964D+00 0.28070231D+06 0.28070231D+06 0.28070231D+06 0.10866947D+01  1  2  3  2  6  2        2 0.564057496074D-05 0.100000000000D+01
-.528281594788D-03 0.000000000000D+00 0.000000000000D+00 0.959372423226D-04 0.000000000000D+00  6 -2 2 25 1 -1 21 2 0.10850624D+00 0.56385964D+00 0.28070231D+06 0.28070231D+06 0.28070231D+06 0.10866947D+01  1  2 15  2  6  2        2 -.343278624165D-04 0.100000000000D+01
0.187590637265D-08 0.000000000000D+00 0.000000000000D+00 0.959372423226D-04 0.000000000000D+00  6 -2 2 25 1 -1 21 2 0.10850624D+00 0.78850733D+00 0.29020267D+06 0.29020267D+06 0.29020267D+06 0.10856203D+01  1  2 12  2  6  2        2 0.432025281515D-11 0.100000000000D+01
0.396117584566D+00 0.000000000000D+00 0.000000000000D+00 0.959372423226D-04 0.000000000000D+00  6 -2 2 25 1 -1 21 2 0.10850624D+00 0.79316938D+00 0.29020267D+06 0.29020267D+06 0.29020267D+06 0.10856203D+01  1  2 12  2  6  2        2 0.825707904857D-03 0.100000000000D+01
-.540853573064D+00 0.000000000000D+00 0.000000000000D+00 0.959372423226D-04 0.000000000000D+00  6 -2 2 25 1 -1 21 2 0.10850624D+00 0.56385964D+00 0.28070231D+06 0.28070231D+06 0.28070231D+06 0.10866947D+01  1  2  4  2  6  2        2 -.351447925251D-01 0.100000000000D+01
-.405607364596D+00 0.000000000000D+00 -.333416971109D-03 0.959372423226D-04 0.000000000000D+00  6 -2 2 25 1 -1 21 2 0.10850624D+00 0.78848933D+00 0.28070231D+06 0.28070231D+06 0.28070231D+06 0.10866947D+01  1  2  5  2  6  2        2 -.940937323517D-03 0.100000000000D+01
0.418191172022D+00 0.000000000000D+00 0.343674082036D-03 0.959372423226D-04 0.000000000000D+00  6 -2 2 25 1 -1 21 2 0.10850624D+00 0.56385964D+00 0.28070231D+06 0.28070231D+06 0.28070231D+06 0.10866947D+01  1  2  6  2  6  2        2 0.271741608238D-01 0.100000000000D+01
0.785746811371D-10 0.000000000000D+00 0.000000000000D+00 0.959372423226D-04 0.000000000000D+00  6 -2 21 25 1 -1 -2 2 0.10850624D+00 0.78850733D+00 0.29020267D+06 0.29020267D+06 0.29020267D+06 0.10856203D+01  1  2 12  6  6  2        2 0.105126338557D-14 0.100000000000D+01
0.168015365918D-01 0.000000000000D+00 0.000000000000D+00 0.959372423226D-04 0.000000000000D+00  6 -2 21 25 1 -1 -2 2 0.10850624D+00 0.79316938D+00 0.29020267D+06 0.29020267D+06 0.29020267D+06 0.10856203D+01  1  2 12  6  6  2        2 0.196896978883D-06 0.100000000000D+01
-.169796849135D-01 0.000000000000D+00 -.139649011913D-04 0.959372423226D-04 0.000000000000D+00  6 -2 21 25 1 -1 -2 2 0.10850624D+00 0.78848933D+00 0.28070231D+06 0.28070231D+06 0.28070231D+06 0.10866947D+01  1  2  5  6  6  2        2 -.229034260856D-06 0.100000000000D+01
  </mgrwgt>
  </event>
  <event>
  5     66 -.17652913E-05 0.25668663E+03 0.75467711E-02 0.92198136E-01
       -2 -1    0    0    0  501 0.00000000E+00 0.00000000E+00 0.76880179E+03 0.76880185E+03 0.32000000E+00 0.0000E+00 0.9000E+01
        2 -1    0    0  502    0 -.00000000E+00 -.00000000E+00 -.24936559E+04 0.24936559E+04 0.32000000E+00 0.0000E+00 0.9000E+01
       25  1    1    2    0    0 -.51359906E+03 0.11976435E+03 0.43732170E+03 0.69642140E+03 0.12500000E+03 0.0000E+00 0.9000E+01
        1  1    1    2  502    0 0.26263290E+03 -.65188448E+02 -.22710254E+04 0.22870903E+04 0.32000000E+00 0.0000E+00 0.9000E+01
       -1  1    1    2    0  501 0.25096616E+03 -.54575903E+02 0.10884963E+03 0.27894603E+03 0.32000000E+00 0.0000E+00 0.9000E+01
#aMCatNLO 1  0  0  4  5 0.17009086D+03 0.00000000D+00  -5  6  0 0.00000000D+00 0.00000000D+00 0.00000000D+00 0.00000000D+00 0.00000000D+00
  <mgrwgt>
 -.3805608004D-03    5    2    0
 0.138460363286350D+04 0.000000000000000D+00 0.000000000000000D+00 0.138460363286350D+04
 0.138460363286350D+04 -.000000000000000D+00 -.000000000000000D+00 -.138460363286350D+04
 0.109301407139117D+04 -.513489602364001D+03 0.119741469811446D+03 0.949233990610616D+03
 0.127998638756403D+04 0.262665236273196D+03 -.651964005558467D+02 -.125104818266816D+04
 0.396206806771796D+03 0.250824366090805D+03 -.545450692555991D+02 0.301814192057549D+03
 0.000000000000000D+00 0.000000000000000D+00 0.000000000000000D+00 -.000000000000000D+00
 0.138460363286350D+04 0.000000000000000D+00 0.000000000000000D+00 0.138460363286350D+04
 0.138460363286350D+04 -.000000000000000D+00 -.000000000000000D+00 -.138460363286350D+04
 0.106574708779709D+04 -.507596650014029D+03 0.118278774224788D+03 0.921166449459812D+03
 0.275885746898674D+03 0.451151214973767D+01 -.176369106614197D+03 -.212100282489373D+03
 0.389941039073934D+03 0.252970380148861D+03 -.550777335476563D+02 0.291592942281966D+03
 0.103763339195729D+04 0.250114757715430D+03 0.113168065937065D+03 -.100065910925240D+04
0.636338049926D-02 0.000000000000D+00 0.000000000000D+00 0.316076087917D-05 0.000000000000D+00  6 -2 2 25 1 -1 21 0 0.11827720D+00 0.38363937D+00 0.28579865D+06 0.28579865D+06 0.28579865D+06 0.10861135D+01  1  2  2  3  6  4        1 0.161892085325D-02 0.100000000000D+01
0.359852090547D-03 0.000000000000D+00 -.244370566337D-04 0.316076087917D-05 0.000000000000D+00  6 -2 2 25 1 -1 21 2 0.11827720D+00 0.38363937D+00 0.28579865D+06 0.28579865D+06 0.28579865D+06 0.10861135D+01  1  2  3  3  6  4        1 0.107997121905D-03 0.100000000000D+01
-.381331438551D-02 0.000000000000D+00 0.000000000000D+00 0.316076087917D-05 0.000000000000D+00  6 -2 2 25 1 -1 21 2 0.11827720D+00 0.38363937D+00 0.28579865D+06 0.28579865D+06 0.28579865D+06 0.10861135D+01  1  2 15  3  6  4        1 -.114443403102D-02 0.100000000000D+01
0.276670878388D-08 0.000000000000D+00 0.000000000000D+00 0.316076087917D-05 0.000000000000D+00  6 -2 2 25 1 -1 21 2 0.11827720D+00 0.38363937D+00 0.38801963D+06 0.38801963D+06 0.38801963D+06 0.10763809D+01  1  2 12  3  6  4        1 0.795398632057D-09 0.100000000000D+01
-.320891839272D-02 0.000000000000D+00 0.000000000000D+00 0.316076087917D-05 0.000000000000D+00  6 -2 2 25 1 -1 21 2 0.11827720D+00 0.38363937D+00 0.28579865D+06 0.28579865D+06 0.28579865D+06 0.10861135D+01  1  2  5  3  6  4        1 -.963045539949D-03 0.100000000000D+01
  </mgrwgt>
  </event>
  <event>
  5     66 -.17652913E-05 0.22683701E+03 0.75467711E-02 0.94159634E-01
       -2 -1    0    0    0  501 0.00000000E+00 0.00000000E+00 0.22057542E+03 0.22057566E+03 0.32000000E+00 0.0000E+00 0.9000E+01
        2 -1    0    0  502    0 0.00000000E+00 0.00000000E+00 -.14641852E+04 0.14641852E+04 0.32000000E+00 0.0000E+00 0.9000E+01
       25  1    1    2    0    0 0.36057940E+03 0.36204334E+03 -.65860749E+03 0.84290077E+03 0.12500000E+03 0.0000E+00 0.9000E+01
        1  1    1    2  502    0 -.15667179E+03 -.16391906E+03 -.49364768E+03 0.54323442E+03 0.32000000E+00 0.0000E+00 0.9000E+01
       -1  1    1    2    0  501 -.20390761E+03 -.19812428E+03 -.91354614E+02 0.29862570E+03 0.32000000E+00 0.0000E+00 0.9000E+01
#aMCatNLO 1  0  0  2  4 0.52358678D+01 0.00000000D+00  -5  6  0 0.00000000D+00 0.00000000D+00 0.00000000D+00 0.00000000D+00 0.00000000D+00
  <mgrwgt>
 -.3069397567D-03   13    2    0
 0.568298772309529D+03 0.000000000000000D+00 0.000000000000000D+00 0.568298772309529D+03
 0.568298772309529D+03 0.000000000000000D+00 0.000000000000000D+00 -.568298772309529D+03
 0.528789960862731D+03 0.360579103453445D+03 0.362045896423744D+03 -.538451645428491D+02
 0.265218378785480D+03 -.156732846946764D+03 -.163981230009543D+03 -.137425468302343D+03
 0.342589204970846D+03 -.203846256506681D+03 -.198064666414201D+03 0.191270632845192D+03
 0.000000000000000D+00 0.000000000000000D+00 -.000000000000000D+00 -.000000000000000D+00
 0.568444225120792D+03 0.000000000000000D+00 0.000000000000000D+00 0.568444225120792D+03
 0.617461547755513D+03 0.000000000000000D+00 0.000000000000000D+00 -.617461547755513D+03
 0.529804581648356D+03 0.359755831224110D+03 0.364340959667167D+03 -.538451645428491D+02
 0.264753941619486D+03 -.157145008049229D+03 -.162832234861969D+03 -.137425468302343D+03
 0.342051081101766D+03 -.204378703361423D+03 -.196580346693635D+03 0.191270632845192D+03
 0.492961685066986D+02 0.176788018654177D+01 -.492837811156201D+01 -.490173226347210D+02
0.101076058090D-05 0.000000000000D+00 0.000000000000D+00 0.447388583115D-07 0.000000000000D+00  6 -2 2 25 1 -1 21 0 0.33934701D-01 0.22525928D+00 0.26889499D+06 0.26889499D+06 0.26889499D+06 0.10880866D+01  1  2  2  2  6  2        2 0.136965272023D-04 0.100000000000D+01
0.264065736830D-07 0.000000000000D+00 -.388158677002D-08 0.447388583115D-07 0.000000000000D+00  6 -2 2 25 1 -1 21 2 0.33934701D-01 0.22525928D+00 0.26889499D+06 0.26889499D+06 0.26889499D+06 0.10880866D+01  1  2  3  2  6  2        2 0.423644079265D-06 0.100000000000D+01
-.500057042621D-06 0.000000000000D+00 0.000000000000D+00 0.447388583115D-07 0.000000000000D+00  6 -2 2 25 1 -1 21 2 0.33934701D-01 0.22525928D+00 0.26889499D+06 0.26889499D+06 0.26889499D+06 0.10880866D+01  1  2 15  2  6  2        2 -.802247985460D-05 0.100000000000D+01
0.239806307158D-05 0.000000000000D+00 0.000000000000D+00 0.447388583115D-07 0.000000000000D+00  6 -2 2 25 1 -1 21 2 0.33934701D-01 0.24477359D+00 0.27152720D+06 0.27152720D+06 0.27152720D+06 0.10877706D+01  1  2 12  2  6  2        2 0.327485501576D-04 0.100000000000D+01
0.199627467109D-03 0.000000000000D+00 0.000000000000D+00 0.447388583115D-07 0.000000000000D+00  6 -2 2 25 1 -1 21 2 0.33934701D-01 0.24501030D+00 0.27152720D+06 0.27152720D+06 0.27152720D+06 0.10877706D+01  1  2 12  2  6  2        2 0.272089626648D-02 0.100000000000D+01
-.461264313066D-03 0.000000000000D+00 0.000000000000D+00 0.447388583115D-07 0.000000000000D+00  6 -2 2 25 1 -1 21 2 0.33934701D-01 0.22525928D+00 0.26889499D+06 0.26889499D+06 0.26889499D+06 0.10880866D+01  1  2  4  2  6  2        2 -.740012307361D-02 0.100000000000D+01
-.437978265993D-03 0.000000000000D+00 -.270229476344D-05 0.447388583115D-07 0.000000000000D+00  6 -2 2 25 1 -1 21 2 0.33934701D-01 0.24476892D+00 0.26889499D+06 0.26889499D+06 0.26889499D+06 0.10880866D+01  1  2  5  2  6  2        2 -.598701634930D-02 0.100000000000D+01
0.436704660002D-03 0.000000000000D+00 0.269299941671D-05 0.447388583115D-07 0.000000000000D+00  6 -2 2 25 1 -1 21 2 0.33934701D-01 0.22525928D+00 0.26889499D+06 0.26889499D+06 0.26889499D+06 0.10880866D+01  1  2  6  2  6  2        2 0.700610938087D-02 0.100000000000D+01
0.242800480020D-03 0.000000000000D+00 0.000000000000D+00 0.447388583115D-07 0.113044775957D-07  6 -2 2 25 1 -1 21 2 0.33943386D-01 0.24474616D+00 0.27152720D+06 0.27152720D+06 0.27152720D+06 0.10877706D+01  1  2 11  2  6  2        2 0.331494528523D-02 0.100000000000D+01
0.352297061250D-07 0.000000000000D+00 0.000000000000D+00 0.447388583115D-07 0.000000000000D+00  6 -2 21 25 1 -1 -2 2 0.33934701D-01 0.24477359D+00 0.27152720D+06 0.27152720D+06 0.27152720D+06 0.10877706D+01  1  2 12  6  6  2        2 0.151653473713D-06 0.100000000000D+01
0.296284845666D-05 0.000000000000D+00 0.000000000000D+00 0.447388583115D-07 0.000000000000D+00  6 -2 21 25 1 -1 -2 2 0.33934701D-01 0.24501030D+00 0.27152720D+06 0.27152720D+06 0.27152720D+06 0.10877706D+01  1  2 12  6  6  2        2 0.127064955524D-04 0.100000000000D+01
-.622140463851D-05 0.000000000000D+00 -.373166310278D-07 0.447388583115D-07 0.000000000000D+00  6 -2 21 25 1 -1 -2 2 0.33934701D-01 0.24476892D+00 0.26889499D+06 0.26889499D+06 0.26889499D+06 0.10880866D+01  1  2  5  6  6  2        2 -.268215427414D-04 0.100000000000D+01
0.310504452161D-05 0.000000000000D+00 0.000000000000D+00 0.447388583115D-07 0.143742670773D-09  6 -2 21 25 1 -1 -2 2 0.33943386D-01 0.24474616D+00 0.27152720D+06 0.27152720D+06 0.27152720D+06 0.10877706D+01  1  2 11  6  6  2        2 0.133658857207D-04 0.100000000000D+01
  </mgrwgt>
  </event>
  <event>
  5     66 0.17652913E-05 0.11098100E+03 0.75467711E-02 0.89125311E-01
       -2 -1    0    0    0  501 0.00000000E+00 0.00000000E+00 0.18427106E+04 0.18427106E+04 0.32000000E+00 0.0000E+00 0.9000E+01
        2 -1    0    0  502    0 0.00000000E+00 0.00000000E+00 -.10518382E+04 0.10518383E+04 0.32000000E+00 0.0000E+00 0.9000E+01
       25  1    1    2    0    0 -.31294794E+03 -.33277598E+03 0.31668945E+03 0.56973106E+03 0.12500000E+03 0.0000E+00 0.9000E+01
        1  1    1    2  502    0 0.40704033E+03 0.27390942E+03 -.85781280E+03 0.98820600E+03 0.32000000E+00 0.0000E+00 0.9000E+01
       -1  1    1    2    0  501 -.94092387E+02 0.58866566E+02 0.13319957E+04 0.13366118E+04 0.32000000E+00 0.0000E+00 0.9000E+01
#aMCatNLO 1  0  0  2  1 0.22912027D+02 0.00000000D+00  -5  6  0 0.00000000D+00 0.00000000D+00 0.00000000D+00 0.00000000D+00 0.00000000D+00
  <mgrwgt>
 0.7693472646D-02    7    2    0
 0.139220457713881D+04 0.000000000000000D+00 0.000000000000000D+00 0.139220457713881D+04
 0.139220457713881D+04 0.000000000000000D+00 0.000000000000000D+00 -.139220457713881D+04
 0.502383465775061D+03 -.312994512312852D+03 -.332800830868907D+03 0.167458021364064D+03
 0.127095433610335D+04 0.407079768017169D+03 0.273938726169669D+03 -.117241995941536D+04
 0.101107135239922D+04 -.940852557043170D+02 0.588621046992376D+02 0.100496193805130D+04
 0.000000000000000D+00 0.000000000000000D+00 -.000000000000000D+00 -.000000000000000D+00
 0.162945659191533D+04 0.000000000000000D+00 0.000000000000000D+00 0.162945659191533D+04
 0.163237188614167D+04 0.000000000000000D+00 0.000000000000000D+00 -.163237188614167D+04
 0.513408934886933D+03 -.374871421447740D+03 -.281767568900891D+03 0.167458021364064D+03
 0.126469409041057D+04 0.252620956174144D+03 0.401329333073933D+03 -.117241995941536D+04
 0.104124369748055D+04 -.219101855331184D+03 0.161970113297410D+03 0.100496193805130D+04
 0.442481755278940D+03 0.341352320604780D+03 -.281531877470452D+03 -.291529422634093D+01
0.652924741985D-01 0.000000000000D+00 0.000000000000D+00 0.110347068343D-03 0.000000000000D+00  6 -2 2 25 1 -1 21 0 0.28349394D+00 0.16182127D+00 0.28906918D+06 0.28906918D+06 0.28906918D+06 0.10857465D+01  1  2  2  2  6  2        2 0.695484750206D-02 0.100000000000D+01
0.146551171847D-01 0.000000000000D+00 -.250740292826D-03 0.110347068343D-03 0.000000000000D+00  6 -2 2 25 1 -1 21 2 0.28349394D+00 0.16182127D+00 0.28906918D+06 0.28906918D+06 0.28906918D+06 0.10857465D+01  1  2  3  2  6  2        2 0.184022376552D-02 0.100000000000D+01
-.453475680132D-01 0.000000000000D+00 0.000000000000D+00 0.110347068343D-03 0.000000000000D+00  6 -2 2 25 1 -1 21 2 0.28349394D+00 0.16182127D+00 0.28906918D+06 0.28906918D+06 0.28906918D+06 0.10857465D+01  1  2 15  2  6  2        2 -.569423439710D-02 0.100000000000D+01
-.120539579701D-02 0.000000000000D+00 0.000000000000D+00 0.110347068343D-03 0.000000000000D+00  6 -2 2 25 1 -1 21 2 0.28349394D+00 0.16182127D+00 0.28906918D+06 0.28906918D+06 0.28906918D+06 0.10857465D+01  1  2  4  2  6  2        2 -.151359962841D-03 0.100000000000D+01
-.557952751113D-01 0.000000000000D+00 -.631776367982D-01 0.110347068343D-03 0.000000000000D+00  6 -2 2 25 1 -1 21 2 0.28349394D+00 0.21492180D+00 0.28906918D+06 0.28906918D+06 0.28906918D+06 0.10857465D+01  1  2  5  2  6  2        2 -.442535449747D-02 0.100000000000D+01
0.732171914952D-01 0.000000000000D+00 0.607163770184D-01 0.110347068343D-03 0.000000000000D+00  6 -2 2 25 1 -1 21 2 0.28349394D+00 0.16182127D+00 0.28906918D+06 0.28906918D+06 0.28906918D+06 0.10857465D+01  1  2  6  2  6  2        2 0.919378631616D-02 0.100000000000D+01
-.773224992962D-03 0.000000000000D+00 -.234581691247D-02 0.110347068343D-03 0.000000000000D+00  6 -2 21 25 1 -1 -2 2 0.28349394D+00 0.21492180D+00 0.28906918D+06 0.28906918D+06 0.28906918D+06 0.10857465D+01  1  2  5  6  6  2        2 -.244360798351D-04 0.100000000000D+01
  </mgrwgt>
  </event>
  <event>
  5     66 0.17652913E-05 0.25951723E+02 0.75467711E-02 0.87790126E-01
       -2 -1    0    0    0  501 0.00000000E+00 0.00000000E+00 0.61468166E+03 0.61468175E+03 0.32000000E+00 0.0000E+00 0.9000E+01
        2 -1    0    0  502    0 0.00000000E+00 0.00000000E+00 -.23581991E+04 0.23581991E+04 0.32000000E+00 0.0000E+00 0.9000E+01
       25  1    1    2    0    0 0.31023784E+03 0.54305529E+03 -.63596402E+02 0.64095715E+03 0.12500000E+03 0.0000E+00 0.9000E+01
        1  1    1    2  502    0 -.29732179E+03 -.52053703E+03 -.19605225E+04 0.20501238E+04 0.32000000E+00 0.0000E+00 0.9000E+01
       -1  1    1    2    0  501 -.12916044E+02 -.22518267E+02 0.28060147E+03 0.28179990E+03 0.32000000E+00 0.0000E+00 0.9000E+01
#aMCatNLO 1  0  0  1  1 0.14421617D+03 0.00000000D+00  -5  6  0 0.00000000D+00 0.00000000D+00 0.00000000D+00 0.00000000D+00 0.00000000D+00
  <mgrwgt>
 0.9209619583D-02    7    4    0
 0.120396922765125D+04 0.000000000000000D+00 0.000000000000000D+00 0.120396922765125D+04
 0.120396922765125D+04 0.000000000000000D+00 0.000000000000000D+00 -.120396922765125D+04
 0.745424632790269D+03 0.310272775423424D+03 0.543116486756685D+03 0.385730695971462D+03
 0.111158925209445D+04 -.297360609521180D+03 -.520604980277171D+03 -.936043689037911D+03
 0.550924570417783D+03 -.129121659022442D+02 -.225115064795139D+02 0.550312993066450D+03
 0.000000000000000D+00 0.000000000000000D+00 -.000000000000000D+00 0.000000000000000D+00
 0.156485164537267D+04 0.000000000000000D+00 0.000000000000000D+00 0.156485164537267D+04
 0.142659401119864D+04 0.000000000000000D+00 0.000000000000000D+00 -.142659401119864D+04
 0.783227343488041D+03 0.185343970533711D+03 0.643956143195718D+03 0.385730695971462D+03
 0.111608020269459D+04 -.479416490777861D+03 -.373653662405878D+03 -.936043689037911D+03
 0.562344985425963D+03 -.103893917988332D+03 0.509268701277196D+02 0.550312993066450D+03
 0.529793124962720D+03 0.397966438232482D+03 -.321229350917560D+03 0.138257634174027D+03
 0.120396922765125D+04 0.000000000000000D+00 0.000000000000000D+00 0.120396922765125D+04
 0.120396922765125D+04 0.000000000000000D+00 0.000000000000000D+00 -.120396922765125D+04
 0.745424632790269D+03 0.310272775423424D+03 0.543116486756685D+03 0.385730695971462D+03
 0.111158925209445D+04 -.297360609521180D+03 -.520604980277171D+03 -.936043689037911D+03
 0.000000000000000D+00 0.000000000000000D+00 -.000000000000000D+00 0.000000000000000D+00
 0.550924570417783D+03 -.129121659022442D+02 -.225115064795139D+02 0.550312993066450D+03
 0.156485164537267D+04 0.000000000000000D+00 0.000000000000000D+00 0.156485164537267D+04
 0.142659401119864D+04 0.000000000000000D+00 0.000000000000000D+00 -.142659401119864D+04
 0.783227343488041D+03 0.185343970533711D+03 0.643956143195718D+03 0.385730695971462D+03
 0.111608020269459D+04 -.479416490777861D+03 -.373653662405878D+03 -.936043689037911D+03
 0.529793124962720D+03 0.397966438232482D+03 -.321229350917560D+03 0.138257634174027D+03
 0.562344985425963D+03 -.103893917988332D+03 0.509268701277196D+02 0.550312993066450D+03
0.914554555858D-02 0.000000000000D+00 0.000000000000D+00 0.141377558259D-03 0.000000000000D+00  6 -2 2 25 1 -1 21 0 0.94566418D-01 0.36279987D+00 0.39901900D+06 0.39901900D+06 0.39901900D+06 0.10755045D+01  1  2  2  1  6  1       -2 0.470267586668D-02 0.100000000000D+01
0.577013282896D-02 0.000000000000D+00 -.351213030224D-04 0.141377558259D-03 0.000000000000D+00  6 -2 2 25 1 -1 21 2 0.94566418D-01 0.36279987D+00 0.39901900D+06 0.39901900D+06 0.39901900D+06 0.10755045D+01  1  2  3  1  6  1       -2 0.343198759329D-02 0.100000000000D+01
-.514954438803D-02 0.000000000000D+00 0.000000000000D+00 0.141377558259D-03 0.000000000000D+00  6 -2 2 25 1 -1 21 2 0.94566418D-01 0.36279987D+00 0.39901900D+06 0.39901900D+06 0.39901900D+06 0.10755045D+01  1  2 15  1  6  1       -2 -.306287099009D-02 0.100000000000D+01
-.147697643198D-03 0.000000000000D+00 0.000000000000D+00 0.141377558259D-03 0.000000000000D+00  6 -2 2 25 1 -1 21 2 0.94566418D-01 0.36279987D+00 0.39901900D+06 0.39901900D+06 0.39901900D+06 0.10755045D+01  1  2  4  1  6  1       -2 -.878483206610D-04 0.100000000000D+01
-.649918331063D-02 0.000000000000D+00 -.736918420925D-02 0.141377558259D-03 0.000000000000D+00  6 -2 2 25 1 -1 21 2 0.14535553D+00 0.36279987D+00 0.39901900D+06 0.39901900D+06 0.39901900D+06 0.10755045D+01  1  2  5  1  6  1       -2 -.129100127854D-02 0.100000000000D+01
0.941571043734D-02 0.000000000000D+00 0.673704566938D-02 0.141377558259D-03 0.000000000000D+00  6 -2 2 25 1 -1 21 2 0.94566418D-01 0.36279987D+00 0.39901900D+06 0.39901900D+06 0.39901900D+06 0.10755045D+01  1  2  6  1  6  1       -2 0.560032192686D-02 0.100000000000D+01
-.495951182710D-04 0.000000000000D+00 -.369983261211D-03 0.141377558259D-03 0.000000000000D+00  6 21 2 25 1 2 -1 2 0.14535553D+00 0.36279987D+00 0.39901900D+06 0.39901900D+06 0.39901900D+06 0.10755045D+01  3  4  5  5  5  1       -2 -.836452144019D-04 0.100000000000D+01
  </mgrwgt>
  </event>
  <event>
  5     66 0.17652913E-05 0.79836417E+02 0.75467711E-02 0.93436813E-01
       -2 -1    0    0    0  501 0.00000000E+00 0.00000000E+00 0.35192927E+03 0.35192942E+03 0.32000000E+00 0.0000E+00 0.9000E+01
        2 -1    0    0  502    0 -.00000000E+00 -.00000000E+00 -.28219312E+04 0.28219312E+04 0.32000000E+00 0.0000E+00 0.9000E+01
       25  1    1    2    0    0 -.30918808E+03 0.33994425E+03 -.40883611E+03 0.62763949E+03 0.12500000E+03 0.0000E+00 0.9000E+01
        1  1    1    2  502    0 0.38894523E+03 -.34381852E+03 -.22668755E+04 0.23255567E+04 0.32000000E+00 0.0000E+00 0.9000E+01
       -1  1    1    2    0  501 -.79757155E+02 0.38742737E+01 0.20570967E+03 0.22066441E+03 0.32000000E+00 0.0000E+00 0.9000E+01
#aMCatNLO 1  0  0  4  5 0.47053422D+02 0.00000000D+00  -5  6  0 0.00000000D+00 0.00000000D+00 0.00000000D+00 0.00000000D+00 0.00000000D+00
  <mgrwgt>
 0.4902102375D-02    5    2    0
 0.996554287499282D+03 0.000000000000000D+00 0.000000000000000D+00 0.996554287499282D+03
 0.996554287499282D+03 -.000000000000000D+00 -.000000000000000D+00 -.996554287499282D+03
 0.492902232732637D+03 -.309254406269862D+03 0.339995183973238D+03 0.126856604520609D+03
 0.893998772667926D+03 0.388996797607866D+03 -.343868740568937D+03 -.727784024448267D+03
 0.606207569598001D+03 -.797423913380041D+02 0.387355659569906D+01 0.600927419927658D+03
 0.000000000000000D+00 0.000000000000000D+00 -.000000000000000D+00 0.000000000000000D+00
 0.996554287499282D+03 0.000000000000000D+00 0.000000000000000D+00 0.996554287499282D+03
 0.996554287499282D+03 -.000000000000000D+00 -.000000000000000D+00 -.996554287499282D+03
 0.486415252021655D+03 -.305459982000402D+03 0.336640956116487D+03 0.119757519432316D+03
 0.496078646751632D+02 0.391319724264802D+01 0.357944177986341D+02 -.341231121005453D+02
 0.596946240476595D+03 -.750806998151721D+02 -.247325639668496D+00 0.592205742427775D+03
 0.860139217825152D+03 0.376627484572926D+03 -.372188048275453D+03 -.677840149759546D+03
0.192446971053D-01 0.000000000000D+00 0.000000000000D+00 0.296547304039D-04 0.000000000000D+00  6 -2 2 25 1 -1 21 0 0.54142977D-01 0.43414327D+00 0.28908387D+06 0.28908387D+06 0.28908387D+06 0.10857448D+01  1  2  2  3  6  4        1 0.182925654790D-01 0.100000000000D+01
0.511277355122D-02 0.000000000000D+00 -.739047041295D-04 0.296547304039D-04 0.000000000000D+00  6 -2 2 25 1 -1 21 2 0.54142977D-01 0.43414327D+00 0.28908387D+06 0.28908387D+06 0.28908387D+06 0.10857448D+01  1  2  3  3  6  4        1 0.572895801956D-02 0.100000000000D+01
-.135770686767D-01 0.000000000000D+00 0.000000000000D+00 0.296547304039D-04 0.000000000000D+00  6 -2 2 25 1 -1 21 2 0.54142977D-01 0.43414327D+00 0.28908387D+06 0.28908387D+06 0.28908387D+06 0.10857448D+01  1  2 15  3  6  4        1 -.152133584048D-01 0.100000000000D+01
0.654073289089D-09 0.000000000000D+00 0.000000000000D+00 0.296547304039D-04 0.000000000000D+00  6 -2 2 25 1 -1 21 2 0.54142977D-01 0.43414327D+00 0.30915437D+06 0.30915437D+06 0.30915437D+06 0.10835874D+01  1  2 12  3  6  4        1 0.726417732245D-09 0.100000000000D+01
-.348594243556D-02 0.000000000000D+00 0.000000000000D+00 0.296547304039D-04 0.000000000000D+00  6 -2 2 25 1 -1 21 2 0.54142977D-01 0.43414327D+00 0.28908387D+06 0.28908387D+06 0.28908387D+06 0.10857448D+01  1  2  5  3  6  4        1 -.390606344518D-02 0.100000000000D+01
  </mgrwgt>
  </event>
  <event>
  5     66 0.17652913E-05 0.12719836E+03 0.75467711E-02 0.92971168E-01
       -2 -1    0    0    0  501 0.00000000E+00 0.00000000E+00 0.12541305E+04 0.12541305E+04 0.32000000E+00 0.0000E+00 0.9000E+01
        2 -1    0    0  502    0 0.00000000E+00 0.00000000E+00 -.23670983E+04 0.23670983E+04 0.32000000E+00 0.0000E+00 0.9000E+01
       25  1    1    2    0    0 -.45756606E+03 -.20441211E+03 -.38543654E+03 0.64446670E+03 0.12500000E+03 0.0000E+00 0.9000E+01
        1  1    1    2  502    0 0.52441490E+02 -.11587746E+03 -.17904821E+04 0.17949941E+04 0.32000000E+00 0.0000E+00 0.9000E+01
       -1  1    1    2    0  501 0.40512457E+03 0.32028957E+03 0.10629508E+04 0.11817681E+04 0.32000000E+00 0.0000E+00 0.9000E+01
#aMCatNLO 1  0  0  1  2 0.10207083D+02 0.00000000D+00  -5  6  0 0.00000000D+00 0.00000000D+00 0.00000000D+00 0.00000000D+00 0.00000000D+00
  <mgrwgt>
 0.4468921596D-02    1    2    0
 0.172297714540917D+04 0.000000000000000D+00 0.000000000000000D+00 0.172297714540917D+04
 0.172297714540917D+04 0.000000000000000D+00 0.000000000000000D+00 -.172297714540917D+04
 0.552738285490088D+03 -.457565688227159D+03 -.204403240927377D+03 -.196844020234585D+03
 0.130804333412361D+04 0.524448194099929D+02 -.115883403237968D+03 -.130184405429999D+04
 0.158517267120463D+04 0.405120868817166D+03 0.320286644165345D+03 0.149868807453458D+04
 0.000000000000000D+00 0.000000000000000D+00 -.000000000000000D+00 0.000000000000000D+00
 0.231223179963347D+04 0.000000000000000D+00 0.000000000000000D+00 0.231223179963347D+04
 0.209787699269668D+04 0.000000000000000D+00 0.000000000000000D+00 -.209787699269668D+04
 0.532183684927126D+03 -.472401930923901D+03 -.753878097564188D+02 -.196844020234585D+03
 0.131665523161467D+04 0.165522243765358D+02 0.196237308099731D+03 -.130184405429999D+04
 0.169729951497907D+04 0.360233259083536D+03 0.710627678778471D+03 0.149868807453458D+04
 0.863970360809283D+03 0.956164474638296D+02 -.831477177121784D+03 0.214354806936791D+03
0.503760728919D-01 0.000000000000D+00 0.000000000000D+00 0.167191452242D-03 0.000000000000D+00  6 -2 2 25 1 -1 21 2 0.19294315D+00 0.36416898D+00 0.33647799D+06 0.33647799D+06 0.33647799D+06 0.10808840D+01  1  2 14  1  6  1       -2 0.446892159648D-02 0.100000000000D+01
  </mgrwgt>
  </event>
  <event>
  5     66 0.17652913E-05 0.13474500E+03 0.75467711E-02 0.93541307E-01
       -2 -1    0    0    0  501 0.00000000E+00 0.00000000E+00 0.12798007E+04 0.12798008E+04 0.32000000E+00 0.0000E+00 0.9000E+01
        2 -1    0    0  502    0 -.00000000E+00 -.00000000E+00 -.16031860E+04 0.16031860E+04 0.32000000E+00 0.0000E+00 0.9000E+01
       25  1    1    2    0    0 0.37142954E+03 -.35902641E+03 -.24758963E+03 0.58633224E+03 0.12500000E+03 0.0000E+00 0.9000E+01
        1  1    1    2  502    0 -.13458915E+03 -.62623915E+01 -.11394325E+04 0.11473709E+04 0.32000000E+00 0.0000E+00 0.9000E+01
       -1  1    1    2    0  501 -.23684039E+03 0.36528880E+03 0.10636369E+04 0.11492836E+04 0.32000000E+00 0.0000E+00 0.9000E+01
#aMCatNLO 1  0  0  5  5 0.85163245D+03 0.00000000D+00  -5  6  0 0.00000000D+00 0.00000000D+00 0.00000000D+00 0.00000000D+00 0.00000000D+00
  <mgrwgt>
 0.4164379305D-03    1    2    0
 0.143239612130359D+04 0.000000000000000D+00 0.000000000000000D+00 0.143239612130359D+04
 0.143239612130359D+04 -.000000000000000D+00 -.000000000000000D+00 -.143239612130359D+04
 0.562088093112263D+03 0.371435761040541D+03 -.359020505399846D+03 -.182914670109465D+03
 0.102607702513592D+04 -.134599409036587D+03 -.626207582619056D+01 -.101719115558735D+04
 0.127662712435900D+04 -.236836352003953D+03 0.365282581226036D+03 0.120010582569681D+04
 0.000000000000000D+00 0.000000000000000D+00 0.000000000000000D+00 0.000000000000000D+00
 0.143239612130359D+04 0.000000000000000D+00 0.000000000000000D+00 0.143239612130359D+04
 0.143239612130359D+04 -.000000000000000D+00 -.000000000000000D+00 -.143239612130359D+04
 0.554426120046793D+03 0.369082796968161D+03 -.355391430797832D+03 -.170991644496947D+03
 0.100514099567928D+04 -.138880037952744D+03 0.340116643563679D+00 -.995500196169766D+03
 0.737935572629688D+03 -.129316611071435D+03 0.395109273178358D+03 0.609684168813472D+03
 0.567289554251422D+03 -.100886147943982D+03 -.400579590240895D+02 0.556807671853240D+03
0.186581241049D-02 0.000000000000D+00 0.000000000000D+00 0.100507139490D-03 0.000000000000D+00  6 -2 2 25 1 -1 21 2 0.19689243D+00 0.24664400D+00 0.30336995D+06 0.30336995D+06 0.30336995D+06 0.10841931D+01  1  2 14  4  6  5       -1 0.416437930521D-03 0.100000000000D+01
  </mgrwgt>
  </event>
  <event>
  5     66 0.17652913E-05 0.17949782E+03 0.75467711E-02 0.88279655E-01
       -2 -1    0    0    0  501 0.00000000E+00 0.00000000E+00 0.69697928E+03 0.69697935E+03 0.32000000E+00 0.0000E+00 0.9000E+01
        2 -1    0    0  502    0 0.00000000E+00 0.00000000E+00 -.19610745E+04 0.19610745E+04 0.32000000E+00 0.0000E+00 0.9000E+01
       25  1    1    2    0    0 -.52101785E+03 0.34829588E+03 -.47446053E+03 0.79593179E+03 0.12500000E+03 0.0000E+00 0.9000E+01
        1  1    1    2  502    0 0.34229884E+03 -.36518433E+03 -.12615499E+04 0.13572164E+04 0.32000000E+00 0.0000E+00 0.9000E+01
       -1  1    1    2    0  501 0.17871901E+03 0.16888450E+02 0.47191520E+03 0.50490570E+03 0.32000000E+00 0.0000E+00 0.9000E+01
#aMCatNLO 1  0  0  2  4 0.64567806D+01 0.00000000D+00  -5  6  0 0.00000000D+00 0.00000000D+00 0.00000000D+00 0.00000000D+00 0.00000000D+00
  <mgrwgt>
 0.1256478412D-02    7    2    0
 0.116911437782616D+04 0.000000000000000D+00 0.000000000000000D+00 0.116911437782616D+04
 0.116911437782616D+04 0.000000000000000D+00 0.000000000000000D+00 -.116911437782616D+04
 0.648332748504679D+03 -.521050591344084D+03 0.348340656902342D+03 -.108974404299619D+03
 0.860881907514218D+03 0.342348874129466D+03 -.365227472953779D+03 -.700374042970898D+03
 0.829014099633417D+03 0.178701717214618D+03 0.168868160514377D+02 0.809348447270517D+03
 0.000000000000000D+00 -.000000000000000D+00 -.000000000000000D+00 -.000000000000000D+00
 0.131307066671583D+04 0.000000000000000D+00 0.000000000000000D+00 0.131307066671583D+04
 0.147851331059345D+04 0.000000000000000D+00 0.000000000000000D+00 -.147851331059345D+04
 0.645994068227850D+03 -.452636967202449D+03 0.430032197997871D+03 -.108974404299619D+03
 0.862650875678010D+03 0.433448836287992D+03 -.256446562779116D+03 -.700374042970898D+03
 0.861493954883567D+03 0.268056106813138D+03 0.123583367820739D+03 0.809348447270517D+03
 0.421445078519858D+03 -.248867975898680D+03 -.297169003039494D+03 -.165442643877618D+03
0.119638816661D-02 0.000000000000D+00 0.000000000000D+00 0.437931892567D-05 0.000000000000D+00  6 -2 2 25 1 -1 21 0 0.10722759D+00 0.30170378D+00 0.43507218D+06 0.43507218D+06 0.43507218D+06 0.10728061D+01  1  2  2  2  6  2        2 0.751365983450D-03 0.100000000000D+01
0.182455161275D-03 0.000000000000D+00 -.459444557604D-05 0.437931892567D-05 0.000000000000D+00  6 -2 2 25 1 -1 21 2 0.10722759D+00 0.30170378D+00 0.43507218D+06 0.43507218D+06 0.43507218D+06 0.10728061D+01  1  2  3  2  6  2        2 0.131879733880D-03 0.100000000000D+01
-.777113781035D-03 0.000000000000D+00 0.000000000000D+00 0.437931892567D-05 0.000000000000D+00  6 -2 2 25 1 -1 21 2 0.10722759D+00 0.30170378D+00 0.43507218D+06 0.43507218D+06 0.43507218D+06 0.10728061D+01  1  2 15  2  6  2        2 -.561702710525D-03 0.100000000000D+01
-.121249657808D-03 0.000000000000D+00 0.000000000000D+00 0.437931892567D-05 0.000000000000D+00  6 -2 2 25 1 -1 21 2 0.10722759D+00 0.30170378D+00 0.43507218D+06 0.43507218D+06 0.43507218D+06 0.10728061D+01  1  2  4  2  6  2        2 -.876400124451D-04 0.100000000000D+01
-.213488852437D-02 0.000000000000D+00 -.976465221314D-03 0.437931892567D-05 0.000000000000D+00  6 -2 2 25 1 -1 21 2 0.10722759D+00 0.39893685D+00 0.43507218D+06 0.43507218D+06 0.43507218D+06 0.10728061D+01  1  2  5  2  6  2        2 -.675675954678D-03 0.100000000000D+01
0.235219084838D-02 0.000000000000D+00 0.939564103980D-03 0.437931892567D-05 0.000000000000D+00  6 -2 2 25 1 -1 21 2 0.10722759D+00 0.30170378D+00 0.43507218D+06 0.43507218D+06 0.43507218D+06 0.10728061D+01  1  2  6  2  6  2        2 0.170017828463D-02 0.100000000000D+01
-.587939258734D-04 0.000000000000D+00 -.358451034426D-04 0.437931892567D-05 0.000000000000D+00  6 -2 21 25 1 -1 -2 2 0.10722759D+00 0.39893685D+00 0.43507218D+06 0.43507218D+06 0.43507218D+06 0.10728061D+01  1  2  5  6  6  2        2 -.192691245366D-05 0.100000000000D+01
  </mgrwgt>
  </event>
  <event>
  5     66 0.17652913E-05 0.13721626E+03 0.75467711E-02 0.91109195E-01
       -2 -1    0    0    0  501 0.00000000E+00 0.00000000E+00 0.27902233E+04 0.27902233E+04 0.32000000E+00 0.0000E+00 0.9000E+01
        2 -1    0    0  502    0 0.00000000E+00 0.00000000E+00 -.50402685E+03 0.50402695E+03 0.32000000E+00 0.0000E+00 0.9000E+01
       25  1    1    2    0    0 -.58399968E+03 0.14227714E+03 0.56768607E+03 0.83617634E+03 0.12500000E+03 0.0000E+00 0.9000E+01
        1  1    1    2  502    0 0.45573476E+03 -.93489907E+02 -.22006411E+03 0.51464828E+03 0.32000000E+00 0.0000E+00 0.9000E+01
       -1  1    1    2    0  501 0.12826491E+03 -.48787230E+02 0.19385745E+04 0.19434256E+04 0.32000000E+00 0.0000E+00 0.9000E+01
#aMCatNLO 1  0  0  1  5 0.30259318D+02 0.00000000D+00  -5  6  0 0.00000000D+00 0.00000000D+00 0.00000000D+00 0.00000000D+00 0.00000000D+00
  <mgrwgt>
 0.4058408302D-02    7    4    0
 0.118589529909126D+04 0.000000000000000D+00 0.000000000000000D+00 0.118589529909126D+04
 0.118589529909126D+04 0.000000000000000D+00 0.000000000000000D+00 -.118589529909126D+04
 0.614234375064187D+03 -.584046174889105D+03 0.142285270720107D+03 -.174308589576945D+02
 0.926972562949350D+03 0.455794130067675D+03 -.935029359623569D+02 -.801740010491654D+03
 0.830583660168978D+03 0.128252044821429D+03 -.487823347577506D+02 0.819170869449348D+03
 0.000000000000000D+00 0.000000000000000D+00 0.000000000000000D+00 0.000000000000000D+00
 0.175239237975175D+04 0.000000000000000D+00 0.000000000000000D+00 0.175239237975175D+04
 0.120031374157161D+04 0.000000000000000D+00 0.000000000000000D+00 -.120031374157161D+04
 0.626204124212989D+03 -.604282629175883D+03 0.105096500482349D+03 -.174308589576945D+02
 0.919858951478929D+03 0.425665009164957D+03 -.148871576082724D+03 -.801740010491654D+03
 0.831260078212148D+03 0.101140805640193D+03 -.986049781163105D+02 0.819170869449348D+03
 0.575382967419296D+03 0.774768143707320D+02 0.142380053716686D+03 0.552078638180134D+03
 0.118589529909126D+04 0.000000000000000D+00 0.000000000000000D+00 0.118589529909126D+04
 0.118589529909126D+04 0.000000000000000D+00 0.000000000000000D+00 -.118589529909126D+04
 0.614234375064187D+03 -.584046174889105D+03 0.142285270720107D+03 -.174308589576945D+02
 0.926972562949350D+03 0.455794130067675D+03 -.935029359623569D+02 -.801740010491654D+03
 0.000000000000000D+00 0.000000000000000D+00 0.000000000000000D+00 0.000000000000000D+00
 0.830583660168978D+03 0.128252044821429D+03 -.487823347577506D+02 0.819170869449348D+03
 0.175239237975175D+04 0.000000000000000D+00 0.000000000000000D+00 0.175239237975175D+04
 0.120031374157161D+04 0.000000000000000D+00 0.000000000000000D+00 -.120031374157161D+04
 0.626204124212989D+03 -.604282629175883D+03 0.105096500482349D+03 -.174308589576945D+02
 0.919858951478929D+03 0.425665009164957D+03 -.148871576082724D+03 -.801740010491654D+03
 0.575382967419296D+03 0.774768143707320D+02 0.142380053716686D+03 0.552078638180134D+03
 0.831260078212148D+03 0.101140805640193D+03 -.986049781163105D+02 0.819170869449348D+03
0.167943152199D-01 0.000000000000D+00 0.000000000000D+00 0.194507601034D-04 0.000000000000D+00  6 -2 2 25 1 -1 21 0 0.42926513D+00 0.77542602D-01 0.36996155D+06 0.36996155D+06 0.36996155D+06 0.10778802D+01  1  2  2  1  6  1       -2 0.432820778846D-03 0.100000000000D+01
0.332795795817D-02 0.000000000000D+00 -.644945924893D-04 0.194507601034D-04 0.000000000000D+00  6 -2 2 25 1 -1 21 2 0.42926513D+00 0.77542602D-01 0.36996155D+06 0.36996155D+06 0.36996155D+06 0.10778802D+01  1  2  3  1  6  1       -2 0.996470990411D-04 0.100000000000D+01
-.103407880767D-01 0.000000000000D+00 0.000000000000D+00 0.194507601034D-04 0.000000000000D+00  6 -2 2 25 1 -1 21 2 0.42926513D+00 0.77542602D-01 0.36996155D+06 0.36996155D+06 0.36996155D+06 0.10778802D+01  1  2 15  1  6  1       -2 -.309628170367D-03 0.100000000000D+01
-.124007509878D-01 0.000000000000D+00 0.000000000000D+00 0.194507601034D-04 0.000000000000D+00  6 -2 2 25 1 -1 21 2 0.42926513D+00 0.77542602D-01 0.36996155D+06 0.36996155D+06 0.36996155D+06 0.10778802D+01  1  2  4  1  6  1       -2 -.371308435201D-03 0.100000000000D+01
-.152307691071D+00 0.000000000000D+00 -.905144003574D-02 0.194507601034D-04 0.000000000000D+00  6 -2 2 25 1 -1 21 2 0.63547955D+00 0.77542602D-01 0.36996155D+06 0.36996155D+06 0.36996155D+06 0.10778802D+01  1  2  5  1  6  1       -2 -.106551342831D-03 0.100000000000D+01
0.145195997758D+00 0.000000000000D+00 0.839695086055D-02 0.194507601034D-04 0.000000000000D+00  6 -2 2 25 1 -1 21 2 0.42926513D+00 0.77542602D-01 0.36996155D+06 0.36996155D+06 0.36996155D+06 0.10778802D+01  1  2  6  1  6  1       -2 0.434751885415D-02 0.100000000000D+01
-.684651294615D-02 0.000000000000D+00 -.424759073768D-03 0.194507601034D-04 0.000000000000D+00  6 21 2 25 1 2 -1 2 0.63547955D+00 0.77542602D-01 0.36996155D+06 0.36996155D+06 0.36996155D+06 0.10778802D+01  3  4  5  5  5  1       -2 -.340904815216D-04 0.100000000000D+01
  </mgrwgt>
  </event>
  <event>
  5     66 0.17652913E-05 0.15311071E+03 0.75467711E-02 0.95180679E-01
       -2 -1    0    0    0  501 0.00000000E+00 0.00000000E+00 0.33355692E+03 0.33355707E+03 0.32000000E+00 0.0000E+00 0.9000E+01
        2 -1    0    0  502    0 0.00000000E+00 0.00000000E+00 -.11475470E+04 0.11475471E+04 0.32000000E+00 0.0000E+00 0.9000E+01
       25  1    1    2    0    0 -.39793234E+03 -.23129532E+03 -.42986261E+03 0.64207051E+03 0.12500000E+03 0.0000E+00 0.9000E+01
        1  1    1    2  502    0 0.14771714E+03 0.40138820E+02 -.48484840E+03 0.50843835E+03 0.32000000E+00 0.0000E+00 0.9000E+01
       -1  1    1    2    0  501 0.25021520E+03 0.19115650E+03 0.10072089E+03 0.33059530E+03 0.32000000E+00 0.0000E+00 0.9000E+01
#aMCatNLO 1  0  0  2  4 0.67450788D+01 0.00000000D+00  -5  6  0 0.00000000D+00 0.00000000D+00 0.00000000D+00 0.00000000D+00 0.00000000D+00
  <mgrwgt>
 0.6644936163D-02   13    2    0
 0.618686028542639D+03 0.000000000000000D+00 0.000000000000000D+00 0.618686028542639D+03
 0.618686028542639D+03 0.000000000000000D+00 0.000000000000000D+00 -.618686028542639D+03
 0.485743576971572D+03 -.397938081815621D+03 -.231286057620423D+03 -.920535993888555D+02
 0.289710195366906D+03 0.147752194896093D+03 0.401519541008304D+02 -.245945332919335D+03
 0.461918284746800D+03 0.250185886919528D+03 0.191134103519593D+03 0.337998932308190D+03
 0.000000000000000D+00 -.000000000000000D+00 0.000000000000000D+00 -.000000000000000D+00
 0.618865784864507D+03 0.000000000000000D+00 0.000000000000000D+00 0.618865784864507D+03
 0.685379875221656D+03 0.000000000000000D+00 0.000000000000000D+00 -.685379875221656D+03
 0.484425388972884D+03 -.395602192677770D+03 -.232525262003135D+03 -.920535993888555D+02
 0.290323421373068D+03 0.149148749797859D+03 0.394110726407805D+02 -.245945332919335D+03
 0.462641630761505D+03 0.252411962520520D+03 0.189953155932529D+03 0.337998932308190D+03
 0.668552189787078D+02 -.595851964060891D+01 0.316103342982549D+01 -.665140903571489D+02
0.738744870736D-05 0.000000000000D+00 0.000000000000D+00 0.872784595680D-06 0.000000000000D+00  6 -2 2 25 1 -1 21 0 0.51316464D-01 0.17654571D+00 0.22320596D+06 0.22320596D+06 0.22320596D+06 0.10941824D+01  1  2  2  2  6  2        2 0.693976852010D-04 0.100000000000D+01
0.553976936415D-06 0.000000000000D+00 -.283697481962D-07 0.872784595680D-06 0.000000000000D+00  6 -2 2 25 1 -1 21 2 0.51316464D-01 0.17654571D+00 0.22320596D+06 0.22320596D+06 0.22320596D+06 0.10941824D+01  1  2  3  2  6  2        2 0.623048219852D-05 0.100000000000D+01
-.423772387467D-05 0.000000000000D+00 0.000000000000D+00 0.872784595680D-06 0.000000000000D+00  6 -2 2 25 1 -1 21 2 0.51316464D-01 0.17654571D+00 0.22320596D+06 0.22320596D+06 0.22320596D+06 0.10941824D+01  1  2 15  2  6  2        2 -.476609429524D-04 0.100000000000D+01
0.251305291826D-06 0.000000000000D+00 0.000000000000D+00 0.872784595680D-06 0.000000000000D+00  6 -2 2 25 1 -1 21 2 0.51316464D-01 0.19560125D+00 0.22682050D+06 0.22682050D+06 0.22682050D+06 0.10936525D+01  1  2 12  2  6  2        2 0.239461845160D-05 0.100000000000D+01
0.272417753859D-02 0.000000000000D+00 0.000000000000D+00 0.872784595680D-06 0.000000000000D+00  6 -2 2 25 1 -1 21 2 0.51316464D-01 0.19633356D+00 0.22682050D+06 0.22682050D+06 0.22682050D+06 0.10936525D+01  1  2 12  2  6  2        2 0.257971635523D-01 0.100000000000D+01
-.229011621269D-02 0.000000000000D+00 0.000000000000D+00 0.872784595680D-06 0.000000000000D+00  6 -2 2 25 1 -1 21 2 0.51316464D-01 0.17654571D+00 0.22320596D+06 0.22320596D+06 0.22320596D+06 0.10941824D+01  1  2  4  2  6  2        2 -.257565385087D-01 0.100000000000D+01
-.310135857882D-02 0.000000000000D+00 -.172080840838D-04 0.872784595680D-06 0.000000000000D+00  6 -2 2 25 1 -1 21 2 0.51316464D-01 0.19559897D+00 0.22320596D+06 0.22320596D+06 0.22320596D+06 0.10941824D+01  1  2  5  2  6  2        2 -.295992196847D-01 0.100000000000D+01
0.308698585606D-02 0.000000000000D+00 0.171181052051D-04 0.872784595680D-06 0.000000000000D+00  6 -2 2 25 1 -1 21 2 0.51316464D-01 0.17654571D+00 0.22320596D+06 0.22320596D+06 0.22320596D+06 0.10941824D+01  1  2  6  2  6  2        2 0.347187927132D-01 0.100000000000D+01
0.153675333129D-03 0.000000000000D+00 0.000000000000D+00 0.872784595680D-06 0.914626986973D-07  6 -2 2 25 1 -1 21 2 0.51331374D-01 0.19557720D+00 0.22682050D+06 0.22682050D+06 0.22682050D+06 0.10936525D+01  1  2 11  2  6  2        2 0.146378229684D-02 0.100000000000D+01
0.417214951084D-08 0.000000000000D+00 0.000000000000D+00 0.872784595680D-06 0.000000000000D+00  6 -2 21 25 1 -1 -2 2 0.51316464D-01 0.19560125D+00 0.22682050D+06 0.22682050D+06 0.22682050D+06 0.10936525D+01  1  2 12  6  6  2        2 0.188819013248D-07 0.100000000000D+01
0.466388833853D-04 0.000000000000D+00 0.000000000000D+00 0.872784595680D-06 0.000000000000D+00  6 -2 21 25 1 -1 -2 2 0.51316464D-01 0.19633356D+00 0.22682050D+06 0.22682050D+06 0.22682050D+06 0.10936525D+01  1  2 12  6  6  2        2 0.208425138220D-03 0.100000000000D+01
-.514213177831D-04 0.000000000000D+00 -.285482456676D-06 0.872784595680D-06 0.000000000000D+00  6 -2 21 25 1 -1 -2 2 0.51316464D-01 0.19559897D+00 0.22320596D+06 0.22320596D+06 0.22320596D+06 0.10941824D+01  1  2  5  6  6  2        2 -.233265932080D-03 0.100000000000D+01
0.340684789177D-05 0.000000000000D+00 0.000000000000D+00 0.872784595680D-06 0.199785550441D-08  6 -2 21 25 1 -1 -2 2 0.51331374D-01 0.19557720D+00 0.22682050D+06 0.22682050D+06 0.22682050D+06 0.10936525D+01  1  2 11  6  6  2        2 0.154158632840D-04 0.100000000000D+01
  </mgrwgt>
  </event>
  <event>
  5     66 0.17652913E-05 0.63374845E+02 0.75467711E-02 0.88613882E-01
       -2 -1    0    0    0  501 0.00000000E+00 0.00000000E+00 0.26349993E+04 0.26349993E+04 0.32000000E+00 0.0000E+00 0.9000E+01
        2 -1    0    0  502    0 -.00000000E+00 -.00000000E+00 -.29212976E+04 0.29212976E+04 0.32000000E+00 0.0000E+00 0.9000E+01
       25  1    1    2    0    0 -.53288130E+03 0.38646611E+02 -.33697411E+03 0.64391971E+03 0.12500000E+03 0.0000E+00 0.9000E+01
        1  1    1    2  502    0 0.35488896E+02 -.52503697E+02 -.24054857E+04 0.24063204E+04 0.32000000E+00 0.0000E+00 0.9000E+01
       -1  1    1    2    0  501 0.49739241E+03 0.13857086E+02 0.24561615E+04 0.25060568E+04 0.32000000E+00 0.0000E+00 0.9000E+01
#aMCatNLO 1  0  0  5  1 0.20039447D+02 0.00000000D+00  -5  6  0 0.00000000D+00 0.00000000D+00 0.00000000D+00 0.00000000D+00 0.00000000D+00
  <mgrwgt>
 0.5624678924D-02    6    2    0
 0.277445798045133D+04 0.000000000000000D+00 0.000000000000000D+00 0.277445798045133D+04
 0.277445798045133D+04 -.000000000000000D+00 -.000000000000000D+00 -.277445798045133D+04
 0.627372773741168D+03 -.532880874338883D+03 0.386483904380706D+02 -.304164220302224D+03
 0.228543535475100D+04 0.354901503660165D+02 -.525054298107764D+02 -.228455649740014D+04
 0.263610783241048D+04 0.497390723972867D+03 0.138570393727058D+02 0.258872071770237D+04
 0.000000000000000D+00 0.000000000000000D+00 0.000000000000000D+00 0.000000000000000D+00
 0.277445798045133D+04 0.000000000000000D+00 0.000000000000000D+00 0.277445798045133D+04
 0.277445798045133D+04 -.000000000000000D+00 -.000000000000000D+00 -.277445798045133D+04
 0.610864301120312D+03 -.527882130163638D+03 0.387876527755288D+02 -.278147746762888D+03
 0.219175843617487D+04 0.535645133762978D+02 -.520018877304787D+02 -.219048663294779D+04
 0.221499345539470D+04 0.773064864957419D+03 0.191077226881979D+03 0.206689530827684D+04
 0.531299768212772D+03 -.298747248170078D+03 -.177862991927029D+03 0.401739071433830D+03
0.331882860162D+01 0.000000000000D+00 0.000000000000D+00 0.988574662636D-02 0.000000000000D+00  6 -2 2 25 1 -1 21 0 0.40538450D+00 0.44943040D+00 0.30784010D+06 0.30784010D+06 0.30784010D+06 0.10837239D+01  1  2  2  4  6  5       -1 0.455402329203D-02 0.100000000000D+01
0.148729913819D+01 0.000000000000D+00 -.127451756979D-01 0.988574662636D-02 0.000000000000D+00  6 -2 2 25 1 -1 21 2 0.40538450D+00 0.44943040D+00 0.30784010D+06 0.30784010D+06 0.30784010D+06 0.10837239D+01  1  2  3  4  6  5       -1 0.239687877783D-02 0.100000000000D+01
-.222153727107D+01 0.000000000000D+00 0.000000000000D+00 0.988574662636D-02 0.000000000000D+00  6 -2 2 25 1 -1 21 2 0.40538450D+00 0.44943040D+00 0.30784010D+06 0.30784010D+06 0.30784010D+06 0.10837239D+01  1  2 15  4  6  5       -1 -.358015102843D-02 0.100000000000D+01
-.140272903081D+00 0.000000000000D+00 0.000000000000D+00 0.988574662636D-02 0.000000000000D+00  6 -2 2 25 1 -1 21 2 0.40538450D+00 0.44943040D+00 0.30784010D+06 0.30784010D+06 0.30784010D+06 0.10837239D+01  1  2  4  4  6  5       -1 -.226058857875D-03 0.100000000000D+01
-.695207707428D+01 0.000000000000D+00 0.000000000000D+00 0.988574662636D-02 0.000000000000D+00  6 -2 2 25 1 -1 21 2 0.40538450D+00 0.44943040D+00 0.30784010D+06 0.30784010D+06 0.30784010D+06 0.10837239D+01  1  2  5  4  6  5       -1 -.112037219503D-01 0.100000000000D+01
0.849094594662D+01 0.000000000000D+00 -.000000000000D+00 0.988574662636D-02 0.000000000000D+00  6 -2 2 25 1 -1 21 2 0.40538450D+00 0.44943040D+00 0.30784010D+06 0.30784010D+06 0.30784010D+06 0.10837239D+01  1  2  6  4  6  5       -1 0.136837086908D-01 0.100000000000D+01
  </mgrwgt>
  </event>
  <event>
  5     66 0.17652913E-05 0.15825204E+03 0.75467711E-02 0.88743542E-01
       -2 -1    0    0    0  501 0.00000000E+00 0.00000000E+00 0.16246977E+03 0.16247009E+03 0.32000000E+00 0.0000E+00 0.9000E+01
        2 -1    0    0  502    0 0.00000000E+00 0.00000000E+00 -.42670297E+04 0.42670297E+04 0.32000000E+00 0.0000E+00 0.9000E+01
       25  1    1    2    0    0 -.50087876E+03 0.35696219E+03 -.14013367E+04 0.15354710E+04 0.12500000E+03 0.0000E+00 0.9000E+01
        1  1    1    2  502    0 0.52223211E+03 -.20008145E+03 -.26754610E+04 0.27332857E+04 0.32000000E+00 0.0000E+00 0.9000E+01
       -1  1    1    2    0  501 -.21353348E+02 -.15688074E+03 -.27762275E+02 0.16074320E+03 0.32000000E+00 0.0000E+00 0.9000E+01
#aMCatNLO 1  0  0  1  5 0.33804581D+02 0.00000000D+00  -5  6  0 0.00000000D+00 0.00000000D+00 0.00000000D+00 0.00000000D+00 0.00000000D+00
  <mgrwgt>
 0.4083350215D-03    7    4    0
 0.832624814958610D+03 0.000000000000000D+00 0.000000000000000D+00 0.832624814958610D+03
 0.832624814958610D+03 0.000000000000000D+00 0.000000000000000D+00 -.832624814958610D+03
 0.630324176070139D+03 -.500980799419856D+03 0.356955441766455D+03 0.573115882213730D+02
 0.675954903276832D+03 0.522323998097970D+03 -.200149269157049D+03 -.379516722070111D+03
 0.358970550570249D+03 -.213431986781145D+02 -.156806172609406D+03 0.322205133848738D+03
 0.000000000000000D+00 -.000000000000000D+00 0.000000000000000D+00 0.000000000000000D+00
 0.106607040321164D+04 0.000000000000000D+00 0.000000000000000D+00 0.106607040321164D+04
 0.964873226509981D+03 0.000000000000000D+00 0.000000000000000D+00 -.964873226509981D+03
 0.571364092437640D+03 -.498648669514385D+03 0.242686654709658D+03 0.573115882213730D+02
 0.728753606843871D+03 0.525050131664198D+03 -.333723293158445D+03 -.379516722070111D+03
 0.395534358136241D+03 -.198789225363462D+02 -.228552201097602D+03 0.322205133848738D+03
 0.335291572303873D+03 -.652253961346685D+01 0.319588839546388D+03 0.101197176701662D+03
 0.832624814958610D+03 0.000000000000000D+00 0.000000000000000D+00 0.832624814958610D+03
 0.832624814958610D+03 0.000000000000000D+00 0.000000000000000D+00 -.832624814958610D+03
 0.630324176070139D+03 -.500980799419856D+03 0.356955441766455D+03 0.573115882213730D+02
 0.675954903276832D+03 0.522323998097970D+03 -.200149269157049D+03 -.379516722070111D+03
 0.000000000000000D+00 -.000000000000000D+00 0.000000000000000D+00 0.000000000000000D+00
 0.358970550570249D+03 -.213431986781145D+02 -.156806172609406D+03 0.322205133848738D+03
 0.106607040321164D+04 0.000000000000000D+00 0.000000000000000D+00 0.106607040321164D+04
 0.964873226509981D+03 0.000000000000000D+00 0.000000000000000D+00 -.964873226509981D+03
 0.571364092437640D+03 -.498648669514385D+03 0.242686654709658D+03 0.573115882213730D+02
 0.728753606843871D+03 0.525050131664198D+03 -.333723293158445D+03 -.379516722070111D+03
 0.335291572303873D+03 -.652253961346685D+01 0.319588839546388D+03 0.101197176701662D+03
 0.395534358136241D+03 -.198789225363462D+02 -.228552201097602D+03 0.322205133848738D+03
0.949562825354D-03 0.000000000000D+00 0.000000000000D+00 0.217262078749D-06 0.000000000000D+00  6 -2 2 25 1 -1 21 0 0.24995375D-01 0.65646614D+00 0.45247413D+06 0.45247413D+06 0.45247413D+06 0.10715896D+01  1  2  2  1  6  1       -2 0.319911237597D-03 0.100000000000D+01
0.961839122161D-04 0.000000000000D+00 -.364657127499D-05 0.217262078749D-06 0.000000000000D+00  6 -2 2 25 1 -1 21 2 0.24995375D-01 0.65646614D+00 0.45247413D+06 0.45247413D+06 0.45247413D+06 0.10715896D+01  1  2  3  1  6  1       -2 0.372104720959D-04 0.100000000000D+01
-.567412118582D-03 0.000000000000D+00 0.000000000000D+00 0.217262078749D-06 0.000000000000D+00  6 -2 2 25 1 -1 21 2 0.24995375D-01 0.65646614D+00 0.45247413D+06 0.45247413D+06 0.45247413D+06 0.10715896D+01  1  2 15  1  6  1       -2 -.219513558130D-03 0.100000000000D+01
-.530365185249D-04 0.000000000000D+00 0.000000000000D+00 0.217262078749D-06 0.000000000000D+00  6 -2 2 25 1 -1 21 2 0.24995375D-01 0.65646614D+00 0.45247413D+06 0.45247413D+06 0.45247413D+06 0.10715896D+01  1  2  4  1  6  1       -2 -.205181287303D-04 0.100000000000D+01
-.591171621868D-03 0.000000000000D+00 -.671991803411D-03 0.217262078749D-06 0.000000000000D+00  6 -2 2 25 1 -1 21 2 0.47764643D-01 0.65646614D+00 0.45247413D+06 0.45247413D+06 0.45247413D+06 0.10715896D+01  1  2  5  1  6  1       -2 -.694782196247D-04 0.100000000000D+01
0.941751872691D-03 0.000000000000D+00 0.552115833928D-03 0.217262078749D-06 0.000000000000D+00  6 -2 2 25 1 -1 21 2 0.24995375D-01 0.65646614D+00 0.45247413D+06 0.45247413D+06 0.45247413D+06 0.10715896D+01  1  2  6  1  6  1       -2 0.364333608112D-03 0.100000000000D+01
-.295117506746D-05 0.000000000000D+00 -.472534133413D-04 0.217262078749D-06 0.000000000000D+00  6 21 2 25 1 2 -1 2 0.47764643D-01 0.65646614D+00 0.45247413D+06 0.45247413D+06 0.45247413D+06 0.10715896D+01  3  4  5  5  5  1       -2 -.361038981384D-05 0.100000000000D+01
  </mgrwgt>
  </event>
  <event>
  5     66 0.17652913E-05 0.54505064E+02 0.75467711E-02 0.95124567E-01
       -2 -1    0    0    0  501 0.00000000E+00 0.00000000E+00 0.18495957E+03 0.18495985E+03 0.32000000E+00 0.0000E+00 0.9000E+01
        2 -1    0    0  502    0 -.00000000E+00 -.00000000E+00 -.30236888E+04 0.30236888E+04 0.32000000E+00 0.0000E+00 0.9000E+01
       25  1    1    2    0    0 -.57503683E+02 0.46212175E+03 -.10105911E+04 0.11197243E+04 0.12500000E+03 0.0000E+00 0.9000E+01
        1  1    1    2  502    0 0.76899673E+02 -.41116921E+03 -.19292356E+04 0.19740628E+04 0.32000000E+00 0.0000E+00 0.9000E+01
       -1  1    1    2    0  501 -.19395990E+02 -.50952538E+02 0.10109751E+03 0.11486154E+03 0.32000000E+00 0.0000E+00 0.9000E+01
#aMCatNLO 1  0  0  5  1 0.67435711D+01 0.00000000D+00  -5  6  0 0.00000000D+00 0.00000000D+00 0.00000000D+00 0.00000000D+00 0.00000000D+00
  <mgrwgt>
 0.3042923161D-01    9    2    0
 0.747837318665182D+03 0.000000000000000D+00 0.000000000000000D+00 0.747837318665182D+03
 0.747837318665182D+03 -.000000000000000D+00 -.000000000000000D+00 -.747837318665182D+03
 0.484130060654580D+03 -.575210748856337D+02 0.462194314296712D+03 -.427160087695590D+02
 0.573370275719606D+03 0.769119630924937D+02 -.411255179296157D+03 -.392055098824287D+03
 0.438174300956178D+03 -.193908882068601D+02 -.509391350005542D+02 0.434771107593846D+03
 0.000000000000000D+00 0.000000000000000D+00 -.000000000000000D+00 0.000000000000000D+00
 0.747837318665182D+03 0.000000000000000D+00 0.000000000000000D+00 0.747837318665182D+03
 0.747837318665182D+03 -.000000000000000D+00 -.000000000000000D+00 -.747837318665182D+03
 0.484109375390897D+03 -.575258137623227D+02 0.462181865445641D+03 -.426097564594611D+02
 0.573294065661752D+03 0.769063509466596D+02 -.411269922192472D+03 -.391929266586265D+03
 0.352764622986574D+03 -.210011510471761D+02 -.369603556315355D+02 0.350193893432115D+03
 0.855065732911411D+02 0.162061386283914D+01 -.139515876216331D+02 0.843451296136105D+02
0.911344997200D-04 0.000000000000D+00 0.000000000000D+00 0.229812368483D-04 0.000000000000D+00  6 -2 2 25 1 -1 21 0 0.28455341D-01 0.46518291D+00 0.22806942D+06 0.22806942D+06 0.22806942D+06 0.10934715D+01  1  2  2  4  6  5       -1 0.220689009880D-03 0.100000000000D+01
0.302688485786D-04 0.000000000000D+00 -.349980475190D-06 0.229812368483D-04 0.000000000000D+00  6 -2 2 25 1 -1 21 2 0.28455341D-01 0.46518291D+00 0.22806942D+06 0.22806942D+06 0.22806942D+06 0.10934715D+01  1  2  3  4  6  5       -1 0.876412792161D-04 0.100000000000D+01
-.578495459231D-04 0.000000000000D+00 0.000000000000D+00 0.229812368483D-04 0.000000000000D+00  6 -2 2 25 1 -1 21 2 0.28455341D-01 0.46518291D+00 0.22806942D+06 0.22806942D+06 0.22806942D+06 0.10934715D+01  1  2 15  4  6  5       -1 -.167499209414D-03 0.100000000000D+01
0.161533006309D-07 0.000000000000D+00 0.000000000000D+00 0.229812368483D-04 0.000000000000D+00  6 -2 2 25 1 -1 21 2 0.28455341D-01 0.46518291D+00 0.22905074D+06 0.22905074D+06 0.22905074D+06 0.10933300D+01  1  2 12  4  6  5       -1 0.467458510400D-07 0.100000000000D+01
0.169663813997D-01 0.000000000000D+00 0.000000000000D+00 0.229812368483D-04 0.000000000000D+00  6 -2 2 25 1 -1 21 2 0.28455341D-01 0.46518291D+00 0.22905074D+06 0.22905074D+06 0.22905074D+06 0.10933300D+01  1  2 12  4  6  5       -1 0.490988161317D-01 0.100000000000D+01
-.118361553717D-01 0.000000000000D+00 0.000000000000D+00 0.229812368483D-04 0.000000000000D+00  6 -2 2 25 1 -1 21 2 0.28455341D-01 0.46518291D+00 0.22806942D+06 0.22806942D+06 0.22806942D+06 0.10934715D+01  1  2  4  4  6  5       -1 -.342707386137D-01 0.100000000000D+01
-.214543718961D-01 0.000000000000D+00 0.000000000000D+00 0.229812368483D-04 0.000000000000D+00  6 -2 2 25 1 -1 21 2 0.28455341D-01 0.46518291D+00 0.22806942D+06 0.22806942D+06 0.22806942D+06 0.10934715D+01  1  2  5  4  6  5       -1 -.621195944361D-01 0.100000000000D+01
0.260400973053D-01 0.000000000000D+00 -.000000000000D+00 0.229812368483D-04 0.000000000000D+00  6 -2 2 25 1 -1 21 2 0.28455341D-01 0.46518291D+00 0.22806942D+06 0.22806942D+06 0.22806942D+06 0.10934715D+01  1  2  6  4  6  5       -1 0.753972333246D-01 0.100000000000D+01
0.754223036605D-03 0.000000000000D+00 0.000000000000D+00 0.229812368483D-04 0.116290507782D-05  6 -2 2 25 1 -1 21 2 0.28455341D-01 0.46518291D+00 0.22905074D+06 0.22905074D+06 0.22905074D+06 0.10933300D+01  1  2 11  4  6  5       -1 0.218263737707D-02 0.100000000000D+01
  </mgrwgt>
  </event>
  <event>
  5     66 -.17652913E-05 0.20132308E+03 0.75467711E-02 0.95145091E-01
       -2 -1    0    0    0  501 0.00000000E+00 0.00000000E+00 0.59080140E+03 0.59080149E+03 0.32000000E+00 0.0000E+00 0.9000E+01
        2 -1    0    0  502    0 -.00000000E+00 -.00000000E+00 -.63014646E+03 0.63014654E+03 0.32000000E+00 0.0000E+00 0.9000E+01
       25  1    1    2    0    0 0.12499404E+03 0.44788976E+03 -.20283250E+03 0.52248902E+03 0.12500000E+03 0.0000E+00 0.9000E+01
        1  1    1    2  502    0 -.11597349E+03 -.24672237E+03 -.16096682E+03 0.31659469E+03 0.32000000E+00 0.0000E+00 0.9000E+01
       -1  1    1    2    0  501 -.90205509E+01 -.20116739E+03 0.32445426E+03 0.38186432E+03 0.32000000E+00 0.0000E+00 0.9000E+01
#aMCatNLO 1  0  0  4  2 0.49632276D+01 0.00000000D+00  -5  6  0 0.00000000D+00 0.00000000D+00 0.00000000D+00 0.00000000D+00 0.00000000D+00
  <mgrwgt>
 -.6491569347D-03    9    2    0
 0.610156957503776D+03 0.000000000000000D+00 0.000000000000000D+00 0.610156957503776D+03
 0.610156957503776D+03 -.000000000000000D+00 -.000000000000000D+00 -.610156957503776D+03
 0.516217844067691D+03 0.125018894760842D+03 0.447926851273110D+03 -.185977617995364D+03
 0.311663043626674D+03 -.116000425246604D+03 -.246805872363162D+03 -.150879473329899D+03
 0.392433027313187D+03 -.901846951423746D+01 -.201120978909948D+03 0.336857091325264D+03
 0.000000000000000D+00 0.000000000000000D+00 0.000000000000000D+00 -.000000000000000D+00
 0.610156957503776D+03 0.000000000000000D+00 0.000000000000000D+00 0.610156957503776D+03
 0.610156957503776D+03 -.000000000000000D+00 -.000000000000000D+00 -.610156957503776D+03
 0.516170652224063D+03 0.124989757156349D+03 0.447864857259897D+03 -.186015516704879D+03
 0.215302467649820D+03 -.826731878204409D+02 -.171729484307694D+03 -.100146297041486D+03
 0.392432963294206D+03 -.904062117022398D+01 -.201168109416310D+03 0.336828279101675D+03
 0.964078318394624D+02 -.332759481656839D+02 -.749672635358929D+02 -.506664653553095D+02
0.333335339301D-05 0.000000000000D+00 0.000000000000D+00 0.274553858570D-06 0.000000000000D+00  6 -2 2 25 1 -1 21 0 0.90892536D-01 0.96945622D-01 0.22828482D+06 0.22828482D+06 0.22828482D+06 0.10934404D+01  1  2  2  3  6  4        1 0.203106107219D-04 0.100000000000D+01
0.177440004441D-06 0.000000000000D+00 -.128009547213D-07 0.274553858570D-06 0.000000000000D+00  6 -2 2 25 1 -1 21 2 0.90892536D-01 0.96945622D-01 0.22828482D+06 0.22828482D+06 0.22828482D+06 0.10934404D+01  1  2  3  3  6  4        1 0.129265720639D-05 0.100000000000D+01
-.228410500431D-05 0.000000000000D+00 0.000000000000D+00 0.274553858570D-06 0.000000000000D+00  6 -2 2 25 1 -1 21 2 0.90892536D-01 0.96945622D-01 0.22828482D+06 0.22828482D+06 0.22828482D+06 0.10934404D+01  1  2 15  3  6  4        1 -.166397921555D-04 0.100000000000D+01
0.128204532487D-06 0.000000000000D+00 0.000000000000D+00 0.274553858570D-06 0.000000000000D+00  6 -2 2 25 1 -1 21 2 0.90892536D-01 0.96945622D-01 0.22823211D+06 0.22823211D+06 0.22823211D+06 0.10934480D+01  1  2 12  3  6  4        1 0.933994946930D-06 0.100000000000D+01
0.279672234224D-03 0.000000000000D+00 0.000000000000D+00 0.274553858570D-06 0.000000000000D+00  6 -2 2 25 1 -1 21 2 0.90892536D-01 0.96945622D-01 0.22823211D+06 0.22823211D+06 0.22823211D+06 0.10934480D+01  1  2 12  3  6  4        1 0.203746660508D-02 0.100000000000D+01
-.112278083211D-02 0.000000000000D+00 0.000000000000D+00 0.274553858570D-06 0.000000000000D+00  6 -2 2 25 1 -1 21 2 0.90892536D-01 0.96945622D-01 0.22828482D+06 0.22828482D+06 0.22828482D+06 0.10934404D+01  1  2  4  3  6  4        1 -.817950122574D-02 0.100000000000D+01
-.733396596178D-03 0.000000000000D+00 0.000000000000D+00 0.274553858570D-06 0.000000000000D+00  6 -2 2 25 1 -1 21 2 0.90892536D-01 0.96945622D-01 0.22828482D+06 0.22828482D+06 0.22828482D+06 0.10934404D+01  1  2  5  3  6  4        1 -.534282220167D-02 0.100000000000D+01
0.993075944309D-03 0.000000000000D+00 -.000000000000D+00 0.274553858570D-06 0.000000000000D+00  6 -2 2 25 1 -1 21 2 0.90892536D-01 0.96945622D-01 0.22828482D+06 0.22828482D+06 0.22828482D+06 0.10934404D+01  1  2  6  3  6  4        1 0.723459616644D-02 0.100000000000D+01
0.493494893146D-03 0.000000000000D+00 0.000000000000D+00 0.274553858570D-06 0.394195285992D-07  6 -2 2 25 1 -1 21 2 0.90892536D-01 0.96945622D-01 0.22823211D+06 0.22823211D+06 0.22823211D+06 0.10934480D+01  1  2 11  3  6  4        1 0.359520625046D-02 0.100000000000D+01
  </mgrwgt>
  </event>
  <event>
  6     66 0.17652913E-05 0.12692208E+03 0.75467711E-02 0.93009950E-01
       -2 -1    0    0    0  501 0.00000000E+00 0.00000000E+00 0.46510199E+03 0.46510210E+03 0.32000000E+00 0.0000E+00 0.9000E+01
        2 -1    0    0  502    0 -.00000000E+00 -.00000000E+00 -.14566941E+04 0.14566942E+04 0.32000000E+00 0.0000E+00 0.9000E+01
       25  1    1    2    0    0 -.41913257E+02 0.55696346E+03 -.39255682E+02 0.57369942E+03 0.12500000E+03 0.0000E+00 0.9000E+01
        1  1    1    2  502    0 -.17536085E+02 -.13670338E+02 -.72262178E+03 0.72296385E+03 0.32000000E+00 0.0000E+00 0.9000E+01
       -1  1    1    2    0  503 -.41881928E+02 -.18011080E+03 -.15378901E+03 0.24051020E+03 0.32000000E+00 0.0000E+00 0.9000E+01
       21  1    1    2  503  501 0.10133127E+03 -.36318232E+03 -.75925670E+02 0.38462280E+03 0.75000000E+00 0.0000E+00 0.9000E+01
#aMCatNLO 2  0  0  5  4 0.81531055D+02 0.00000000D+00  -5  6  0 0.00000000D+00 0.00000000D+00 0.00000000D+00 0.00000000D+00 0.00000000D+00
  <mgrwgt>
 0.4048161837D-02    1    2    0
 0.823110856043946D+03 0.000000000000000D+00 0.000000000000000D+00 0.823110856043946D+03
 0.823110856043946D+03 -.000000000000000D+00 -.000000000000000D+00 -.823110856043946D+03
 0.656453386378906D+03 -.433304797265415D+02 0.570024739953953D+03 0.297490023119145D+03
 0.410594655497894D+03 -.184657549447240D+02 -.528393063604839D+01 -.410145178070874D+03
 0.579173670211091D+03 0.617962346712656D+02 -.564740809317905D+03 0.112655154951729D+03
 0.000000000000000D+00 0.000000000000000D+00 0.000000000000000D+00 0.000000000000000D+00
 0.823110856043946D+03 0.000000000000000D+00 0.000000000000000D+00 0.823110856043946D+03
 0.823110856043946D+03 -.000000000000000D+00 -.000000000000000D+00 -.823110856043946D+03
 0.646057745910947D+03 -.418733669765460D+02 0.556708539734354D+03 0.300146354261424D+03
 0.409078593778065D+03 -.175487905420855D+02 -.136638460405480D+02 -.408473542777656D+03
 0.187542157646154D+03 -.418202468422626D+02 -.179508795595442D+03 -.346369766651343D+02
 0.403543214752725D+03 0.101242404360894D+03 -.363535898098364D+03 0.142964165181366D+03
0.112155065604D-02 0.000000000000D+00 0.000000000000D+00 0.619387150085D-05 0.843080086184D-09  6 -2 2 25 1 -1 21 2 0.71554164D-01 0.22410680D+00 0.33410192D+06 0.33410192D+06 0.33410192D+06 0.10811094D+01  1  2  1  4  6  5       -1 0.404816183660D-02 0.100000000000D+01
  </mgrwgt>
  </event>
  <event>
  5     66 -.17652913E-05 0.11056252E+02 0.75467711E-02 0.92662564E-01
       -2 -1    0    0    0  501 0.00000000E+00 0.00000000E+00 0.23086705E+03 0.23086728E+03 0.32000000E+00 0.0000E+00 0.9000E+01
        2 -1    0    0  502    0 -.00000000E+00 -.00000000E+00 -.19926350E+04 0.19926351E+04 0.32000000E+00 0.0000E+00 0.9000E+01
       25  1    1    2    0    0 -.49520288E+03 0.30004022E+03 -.54319275E+03 0.80369981E+03 0.12500000E+03 0.0000E+00 0.9000E+01
        1  1    1    2  502    0 -.93971336E+01 0.58240922E+01 -.45341435E+03 0.45354923E+03 0.32000000E+00 0.0000E+00 0.9000E+01
       -1  1    1    2    0  501 0.50460002E+03 -.30586431E+03 -.76516087E+03 0.96625328E+03 0.32000000E+00 0.0000E+00 0.9000E+01
#aMCatNLO 1  0  0  5  4 0.81531055D+02 0.00000000D+00  -5  6  0 0.00000000D+00 0.00000000D+00 0.00000000D+00 0.00000000D+00 0.00000000D+00
  <mgrwgt>
 -.4186043257D-02    1    2    0
 0.678258101729008D+03 0.000000000000000D+00 0.000000000000000D+00 0.678258101729008D+03
 0.678258101729008D+03 -.000000000000000D+00 -.000000000000000D+00 -.678258101729008D+03
 0.611889667469822D+03 -.495190974679005D+03 0.300032986071407D+03 0.153460323933781D+03
 0.154576533171467D+03 -.939769076295869D+01 0.582444101448948D+01 -.154180621034234D+03
 0.590050002816727D+03 0.504588665441964D+03 -.305857427085897D+03 0.720297100453041D+00
 0.000000000000000D+00 0.000000000000000D+00 0.000000000000000D+00 0.000000000000000D+00
 0.678258101729008D+03 0.000000000000000D+00 0.000000000000000D+00 0.678258101729008D+03
 0.678258101729008D+03 -.000000000000000D+00 -.000000000000000D+00 -.678258101729008D+03
 0.560020115004786D+03 -.448040479467518D+03 0.271452619252070D+03 0.153527630964858D+03
 0.154202012977505D+03 0.302567286053129D+01 -.170600565201458D+01 -.154162886761927D+03
 0.144404180533608D+03 -.154546827723295D+02 -.106835493024028D+03 -.959160964922068D+02
 0.497889894942118D+03 0.460469489379316D+03 -.162911120576027D+03 0.965513522892765D+02
-.567255557037D-03 0.000000000000D+00 0.000000000000D+00 0.131547744395D-05 0.000000000000D+00  6 -2 2 25 1 -1 21 2 0.35518027D-01 0.30655925D+00 0.35607431D+06 0.35607431D+06 0.35607431D+06 0.10790886D+01  1  2 14  4  6  5       -1 -.418604325674D-02 0.100000000000D+01
  </mgrwgt>
  </event>
  <event>
  5     66 -.17652913E-05 0.22505287E+03 0.75467711E-02 0.94941030E-01
       -2 -1    0    0    0  501 0.00000000E+00 0.00000000E+00 0.45162803E+03 0.45162814E+03 0.32000000E+00 0.0000E+00 0.9000E+01
        2 -1    0    0  502    0 0.00000000E+00 0.00000000E+00 -.11477201E+04 0.11477202E+04 0.32000000E+00 0.0000E+00 0.9000E+01
       25  1    1    2    0    0 -.50385152E+02 -.46605388E+03 -.51297622E+02 0.48785379E+03 0.12500000E+03 0.0000E+00 0.9000E+01
        1  1    1    2  502    0 0.66483084E+02 0.22678633E+03 -.79442542E+03 0.82883285E+03 0.32000000E+00 0.0000E+00 0.9000E+01
       -1  1    1    2    0  501 -.16097932E+02 0.23926754E+03 0.14963094E+03 0.28266167E+03 0.32000000E+00 0.0000E+00 0.9000E+01
#aMCatNLO 1  0  0  1  5 0.15331096D+02 0.00000000D+00  -5  6  0 0.00000000D+00 0.00000000D+00 0.00000000D+00 0.00000000D+00 0.00000000D+00
  <mgrwgt>
 -.5463979775D-02   11    4    0
 0.719960213180735D+03 0.000000000000000D+00 0.000000000000000D+00 0.719960213180735D+03
 0.719960213180735D+03 0.000000000000000D+00 0.000000000000000D+00 -.719960213180735D+03
 0.517110476561424D+03 -.504036057744841D+02 -.466027988027306D+03 0.179040877650145D+03
 0.536648850864987D+03 0.664960406122111D+02 0.226842152347138D+03 -.481780970603995D+03
 0.386161098935059D+03 -.160924348377270D+02 0.239185835680168D+03 0.302740092953850D+03
 0.000000000000000D+00 -.000000000000000D+00 0.000000000000000D+00 0.000000000000000D+00
 0.978658320766511D+03 0.000000000000000D+00 0.000000000000000D+00 0.978658320766511D+03
 0.720228195851283D+03 0.000000000000000D+00 0.000000000000000D+00 -.720228195851283D+03
 0.521816791063339D+03 -.490418821152391D+02 -.471388397570943D+03 0.179040877650145D+03
 0.534512707216804D+03 0.679000138083795D+02 0.221315427986687D+03 -.481780970603995D+03
 0.383672542255150D+03 -.150834126322669D+02 0.235213831358168D+03 0.302740092953850D+03
 0.258884476082501D+03 -.377471906087351D+01 0.148591382260874D+02 0.258430124915229D+03
 0.719960213180735D+03 0.000000000000000D+00 0.000000000000000D+00 0.719960213180735D+03
 0.719960213180735D+03 0.000000000000000D+00 0.000000000000000D+00 -.719960213180735D+03
 0.517110476561424D+03 -.504036057744841D+02 -.466027988027306D+03 0.179040877650145D+03
 0.536648850864987D+03 0.664960406122111D+02 0.226842152347138D+03 -.481780970603995D+03
 0.000000000000000D+00 -.000000000000000D+00 0.000000000000000D+00 0.000000000000000D+00
 0.386161098935059D+03 -.160924348377270D+02 0.239185835680168D+03 0.302740092953850D+03
 0.978658320766511D+03 0.000000000000000D+00 0.000000000000000D+00 0.978658320766511D+03
 0.720228195851283D+03 0.000000000000000D+00 0.000000000000000D+00 -.720228195851283D+03
 0.521816791063339D+03 -.490418821152391D+02 -.471388397570943D+03 0.179040877650145D+03
 0.534512707216804D+03 0.679000138083795D+02 0.221315427986687D+03 -.481780970603995D+03
 0.258884476082501D+03 -.377471906087351D+01 0.148591382260874D+02 0.258430124915229D+03
 0.383672542255150D+03 -.150834126322669D+02 0.235213831358168D+03 0.302740092953850D+03
0.925998613207D-05 0.000000000000D+00 0.000000000000D+00 0.155644410400D-05 0.000000000000D+00  6 -2 2 25 1 -1 21 0 0.69481248D-01 0.17657234D+00 0.23099584D+06 0.23099584D+06 0.23099584D+06 0.10930516D+01  1  2  2  1  6  1       -2 0.463941344262D-04 0.100000000000D+01
0.637019416095D-06 0.000000000000D+00 -.355607849575D-07 0.155644410400D-05 0.000000000000D+00  6 -2 2 25 1 -1 21 2 0.69481248D-01 0.17657234D+00 0.23099584D+06 0.23099584D+06 0.23099584D+06 0.10930516D+01  1  2  3  1  6  1       -2 0.381317515470D-05 0.100000000000D+01
-.643175496127D-05 0.000000000000D+00 0.000000000000D+00 0.155644410400D-05 0.000000000000D+00  6 -2 2 25 1 -1 21 2 0.69481248D-01 0.17657234D+00 0.23099584D+06 0.23099584D+06 0.23099584D+06 0.10930516D+01  1  2 15  1  6  1       -2 -.385002522683D-04 0.100000000000D+01
0.789572921456D-07 0.000000000000D+00 0.000000000000D+00 0.155644410400D-05 0.000000000000D+00  6 -2 2 25 1 -1 21 2 0.94456989D-01 0.17657234D+00 0.23651935D+06 0.23651935D+06 0.23651935D+06 0.10922748D+01  1  2 12  1  6  1       -2 0.235780295216D-06 0.100000000000D+01
0.402552079454D-02 0.000000000000D+00 0.000000000000D+00 0.155644410400D-05 0.000000000000D+00  6 -2 2 25 1 -1 21 2 0.94698596D-01 0.17657234D+00 0.23651935D+06 0.23651935D+06 0.23651935D+06 0.10922748D+01  1  2 12  1  6  1       -2 0.119484813600D-01 0.100000000000D+01
-.475628424223D-02 0.000000000000D+00 0.000000000000D+00 0.155644410400D-05 0.000000000000D+00  6 -2 2 25 1 -1 21 2 0.69481248D-01 0.17657234D+00 0.23099584D+06 0.23099584D+06 0.23099584D+06 0.10930516D+01  1  2  4  1  6  1       -2 -.284709452223D-01 0.100000000000D+01
-.407788870155D-02 0.000000000000D+00 -.970311530382D-05 0.155644410400D-05 0.000000000000D+00  6 -2 2 25 1 -1 21 2 0.94461013D-01 0.17657234D+00 0.23099584D+06 0.23099584D+06 0.23099584D+06 0.10930516D+01  1  2  5  1  6  1       -2 -.122071323749D-01 0.100000000000D+01
0.389610236951D-02 0.000000000000D+00 0.926279514943D-05 0.155644410400D-05 0.000000000000D+00  6 -2 2 25 1 -1 21 2 0.69481248D-01 0.17657234D+00 0.23099584D+06 0.23099584D+06 0.23099584D+06 0.10930516D+01  1  2  6  1  6  1       -2 0.233219276842D-01 0.100000000000D+01
0.310400940777D-08 0.000000000000D+00 0.000000000000D+00 0.155644410400D-05 0.000000000000D+00  6 21 2 25 1 2 -1 2 0.94456989D-01 0.17657234D+00 0.23651935D+06 0.23651935D+06 0.23651935D+06 0.10922748D+01  3  4 12  5  5  1       -2 0.868887950343D-07 0.100000000000D+01
0.159201950438D-03 0.000000000000D+00 0.000000000000D+00 0.155644410400D-05 0.000000000000D+00  6 21 2 25 1 2 -1 2 0.94698596D-01 0.17657234D+00 0.23651935D+06 0.23651935D+06 0.23651935D+06 0.10922748D+01  3  4 12  5  5  1       -2 0.442761368750D-02 0.100000000000D+01
-.160102494107D-03 0.000000000000D+00 -.381492011359D-06 0.155644410400D-05 0.000000000000D+00  6 21 2 25 1 2 -1 2 0.94461013D-01 0.17657234D+00 0.23099584D+06 0.23099584D+06 0.23099584D+06 0.10930516D+01  3  4  5  5  5  1       -2 -.449595463644D-02 0.100000000000D+01
  </mgrwgt>
  </event>
  <event>
  5     66 0.17652913E-05 0.10391453E+02 0.75467711E-02 0.93072467E-01
       -2 -1    0    0    0  501 0.00000000E+00 0.00000000E+00 0.36337481E+03 0.36337495E+03 0.32000000E+00 0.0000E+00 0.9000E+01
        2 -1    0    0  502    0 -.00000000E+00 -.00000000E+00 -.15157692E+04 0.15157693E+04 0.32000000E+00 0.0000E+00 0.9000E+01
       25  1    1    2    0    0 -.43121637E+03 0.34739092E+03 -.73833498E+03 0.93133858E+03 0.12500000E+03 0.0000E+00 0.9000E+01
        1  1    1    2  502    0 -.10182985E+02 0.20758548E+01 -.38386317E+03 0.38400396E+03 0.32000000E+00 0.0000E+00 0.9000E+01
       -1  1    1    2    0  501 0.44139935E+03 -.34946677E+03 -.30196273E+02 0.56380168E+03 0.32000000E+00 0.0000E+00 0.9000E+01
#aMCatNLO 1  0  0  4  2 0.62651567D+01 0.00000000D+00  -5  6  0 0.00000000D+00 0.00000000D+00 0.00000000D+00 0.00000000D+00 0.00000000D+00
  <mgrwgt>
 0.1047713661D-01    7    2    0
 0.742153972214738D+03 0.000000000000000D+00 0.000000000000000D+00 0.742153972214738D+03
 0.742153972214738D+03 -.000000000000000D+00 -.000000000000000D+00 -.742153972214738D+03
 0.605860228998077D+03 -.431220543083750D+03 0.347393869206499D+03 -.211678907645272D+03
 0.188109759316080D+03 -.101820747376034D+02 0.207548773688626D+01 -.187822520626908D+03
 0.690337956115321D+03 0.441402617821353D+03 -.349469356943385D+03 0.399501428272180D+03
 0.000000000000000D+00 0.000000000000000D+00 0.000000000000000D+00 -.000000000000000D+00
 0.742153972214738D+03 0.000000000000000D+00 0.000000000000000D+00 0.742153972214738D+03
 0.742153972214738D+03 -.000000000000000D+00 -.000000000000000D+00 -.742153972214738D+03
 0.606664194100372D+03 -.431330679636314D+03 0.347416319156054D+03 -.213710529436403D+03
 0.182267335454849D+03 -.119177169314906D+02 -.390758360983333D+01 -.181835311167230D+03
 0.688909958086488D+03 0.441277337367196D+03 -.349443820100161D+03 0.397190456167632D+03
 0.646645678776719D+01 0.197105920060863D+01 0.593508455393949D+01 -.164461556399827D+01
0.118049834586D-02 0.000000000000D+00 0.000000000000D+00 0.124082352294D-04 0.000000000000D+00  6 -2 2 25 1 -1 21 0 0.55903830D-01 0.23319528D+00 0.32550807D+06 0.32550807D+06 0.32550807D+06 0.10819395D+01  1  2  2  3  6  4        1 0.569733335554D-02 0.100000000000D+01
0.923875266657D-03 0.000000000000D+00 -.453342448047D-05 0.124082352294D-04 0.000000000000D+00  6 -2 2 25 1 -1 21 2 0.55903830D-01 0.23319528D+00 0.32550807D+06 0.32550807D+06 0.32550807D+06 0.10819395D+01  1  2  3  3  6  4        1 0.521945981867D-02 0.100000000000D+01
-.634418960401D-03 0.000000000000D+00 0.000000000000D+00 0.124082352294D-04 0.000000000000D+00  6 -2 2 25 1 -1 21 2 0.55903830D-01 0.23319528D+00 0.32550807D+06 0.32550807D+06 0.32550807D+06 0.10819395D+01  1  2 15  3  6  4        1 -.358416811395D-02 0.100000000000D+01
-.302196759366D-03 0.000000000000D+00 0.000000000000D+00 0.124082352294D-04 0.000000000000D+00  6 -2 2 25 1 -1 21 2 0.55903830D-01 0.23319528D+00 0.32550807D+06 0.32550807D+06 0.32550807D+06 0.10819395D+01  1  2  4  3  6  4        1 -.170726926000D-02 0.100000000000D+01
-.108099031947D-01 0.000000000000D+00 0.000000000000D+00 0.124082352294D-04 0.000000000000D+00  6 -2 2 25 1 -1 21 2 0.55903830D-01 0.23319528D+00 0.32550807D+06 0.32550807D+06 0.32550807D+06 0.10819395D+01  1  2  5  3  6  4        1 -.610708581610D-01 0.100000000000D+01
0.114491747119D-01 0.000000000000D+00 -.000000000000D+00 0.124082352294D-04 0.000000000000D+00  6 -2 2 25 1 -1 21 2 0.55903830D-01 0.23319528D+00 0.32550807D+06 0.32550807D+06 0.32550807D+06 0.10819395D+01  1  2  6  3  6  4        1 0.646824409340D-01 0.100000000000D+01
0.219857031547D-03 0.000000000000D+00 0.000000000000D+00 0.124082352294D-04 0.198399885350D-06  6 -2 2 25 1 -1 21 2 0.55903830D-01 0.23319528D+00 0.33031111D+06 0.33031111D+06 0.33031111D+06 0.10814727D+01  1  2 11  3  6  4        1 0.124019803924D-02 0.100000000000D+01
  </mgrwgt>
  </event>
  <event>
  5     66 0.17652913E-05 0.15609551E+03 0.75467711E-02 0.95318060E-01
       -2 -1    0    0    0  501 0.00000000E+00 0.00000000E+00 0.24110276E+03 0.24110297E+03 0.32000000E+00 0.0000E+00 0.9000E+01
        2 -1    0    0  502    0 -.00000000E+00 -.00000000E+00 -.36730827E+04 0.36730827E+04 0.32000000E+00 0.0000E+00 0.9000E+01
       25  1    1    2    0    0 -.37628888E+03 -.26120268E+03 -.99935916E+03 0.11064194E+04 0.12500000E+03 0.0000E+00 0.9000E+01
        1  1    1    2  502    0 0.10010476E+03 0.11974129E+03 -.24877170E+04 0.24926081E+04 0.32000000E+00 0.0000E+00 0.9000E+01
       -1  1    1    2    0  501 0.27618412E+03 0.14146138E+03 0.55096250E+02 0.31515820E+03 0.32000000E+00 0.0000E+00 0.9000E+01
#aMCatNLO 1  0  0  4  2 0.90973587D+02 0.00000000D+00  -5  6  0 0.00000000D+00 0.00000000D+00 0.00000000D+00 0.00000000D+00 0.00000000D+00
  <mgrwgt>
 0.1918133096D-02    3    2    0
 0.941058350917866D+03 0.000000000000000D+00 0.000000000000000D+00 0.941058350917866D+03
 0.941058350917866D+03 -.000000000000000D+00 -.000000000000000D+00 -.941058350917866D+03
 0.478681736148374D+03 -.376287429939803D+03 -.261210579366896D+03 -.607289701718231D+02
 0.647587671879308D+03 0.100119616704527D+03 0.119757546360906D+03 -.628493424954165D+03
 0.755847293808050D+03 0.276167813235276D+03 0.141453033005991D+03 0.689222395125988D+03
 0.000000000000000D+00 0.000000000000000D+00 0.000000000000000D+00 0.000000000000000D+00
 0.941058350917866D+03 0.000000000000000D+00 0.000000000000000D+00 0.941058350917866D+03
 0.941058350917866D+03 -.000000000000000D+00 -.000000000000000D+00 -.941058350917866D+03
 0.477143580808095D+03 -.364591505834054D+03 -.247220562031317D+03 -.134149261231465D+03
 0.149867556082908D+03 -.348001290169589D+02 -.109412245132768D+03 0.963233928060751D+02
 0.669794144967499D+03 0.293612626397396D+03 0.162319553372178D+03 0.579713881881246D+03
 0.585311419977231D+03 0.105779008453617D+03 0.194313253791907D+03 -.541888013455856D+03
0.127287035979D-01 0.000000000000D+00 0.000000000000D+00 0.262368875956D-04 0.000000000000D+00  6 -2 2 25 1 -1 21 0 0.37092750D-01 0.56508966D+00 0.22146234D+06 0.22146234D+06 0.22146234D+06 0.10944414D+01  1  2  2  3  6  4        1 0.690202612526D-02 0.100000000000D+01
0.164158723538D-02 0.000000000000D+00 -.488815733604D-04 0.262368875956D-04 0.000000000000D+00  6 -2 2 25 1 -1 21 2 0.37092750D-01 0.56508966D+00 0.22146234D+06 0.22146234D+06 0.22146234D+06 0.10944414D+01  1  2  3  3  6  4        1 0.106620680433D-02 0.100000000000D+01
-.931504715535D-02 0.000000000000D+00 0.000000000000D+00 0.262368875956D-04 0.000000000000D+00  6 -2 2 25 1 -1 21 2 0.37092750D-01 0.56508966D+00 0.22146234D+06 0.22146234D+06 0.22146234D+06 0.10944414D+01  1  2 15  3  6  4        1 -.605009983362D-02 0.100000000000D+01
  </mgrwgt>
  </event>
  <event>
  5     66 0.17652913E-05 0.10189101E+03 0.75467711E-02 0.89174037E-01
       -2 -1    0    0    0  501 0.00000000E+00 0.00000000E+00 0.12679221E+04 0.12679221E+04 0.32000000E+00 0.0000E+00 0.9000E+01
        2 -1    0    0  502    0 -.00000000E+00 -.00000000E+00 -.14954057E+04 0.14954058E+04 0.32000000E+00 0.0000E+00 0.9000E+01
       25  1    1    2    0    0 0.44596345E+03 0.10071159E+03 -.19084423E+03 0.51095278E+03 0.12500000E+03 0.0000E+00 0.9000E+01
        1  1    1    2  502    0 -.73096469E+02 0.70973055E+02 -.11040563E+04 0.11087474E+04 0.32000000E+00 0.0000E+00 0.9000E+01
       -1  1    1    2    0  501 -.37286698E+03 -.17168465E+03 0.10674169E+04 0.11436277E+04 0.32000000E+00 0.0000E+00 0.9000E+01
#aMCatNLO 1  0  0  4  2 0.12992271D+03 0.00000000D+00  -5  6  0 0.00000000D+00 0.00000000D+00 0.00000000D+00 0.00000000D+00 0.00000000D+00
  <mgrwgt>
 0.5933748433D-02    4    2    0
 0.137697421589711D+04 0.000000000000000D+00 0.000000000000000D+00 0.137697421589711D+04
 0.137697421589711D+04 -.000000000000000D+00 -.000000000000000D+00 -.137697421589711D+04
 0.496910669066892D+03 0.445963348005916D+03 0.100704143130590D+03 -.149233310035642D+03
 0.102136272654045D+04 -.731021391897189D+02 0.709778457594275D+02 -.101626770184995D+04
 0.123567503618688D+04 -.372861208816198D+03 -.171681988890017D+03 0.116550101188559D+04
 0.000000000000000D+00 0.000000000000000D+00 0.000000000000000D+00 0.000000000000000D+00
 0.137697421589711D+04 0.000000000000000D+00 0.000000000000000D+00 0.137697421589711D+04
 0.137697421589711D+04 -.000000000000000D+00 -.000000000000000D+00 -.137697421589711D+04
 0.522068839589814D+03 0.440331895887148D+03 0.106171949467285D+03 -.227521893191403D+03
 0.763223865817381D+03 -.356724419614429D+03 -.178295813964944D+03 -.650744927392104D+03
 0.107262471185092D+04 -.385618167514980D+03 -.159295737859365D+03 0.988153464425182D+03
 0.396031014536107D+03 0.302010691242260D+03 0.231419602357024D+03 -.109886643841675D+03
0.774587410831D-01 0.000000000000D+00 0.000000000000D+00 0.278084259800D-03 0.000000000000D+00  6 -2 2 25 1 -1 21 0 0.19506494D+00 0.23006242D+00 0.24322204D+06 0.24322204D+06 0.24322204D+06 0.10913583D+01  1  2  2  3  6  4        1 0.176379290728D-01 0.100000000000D+01
0.182904957931D-01 0.000000000000D+00 -.297461961114D-03 0.278084259800D-03 0.000000000000D+00  6 -2 2 25 1 -1 21 2 0.19506494D+00 0.23006242D+00 0.24322204D+06 0.24322204D+06 0.24322204D+06 0.10913583D+01  1  2  3  3  6  4        1 0.496063554411D-02 0.100000000000D+01
-.605163508677D-01 0.000000000000D+00 0.000000000000D+00 0.278084259800D-03 0.000000000000D+00  6 -2 2 25 1 -1 21 2 0.19506494D+00 0.23006242D+00 0.24322204D+06 0.24322204D+06 0.24322204D+06 0.10913583D+01  1  2 15  3  6  4        1 -.164128717181D-01 0.100000000000D+01
-.928951371091D-03 0.000000000000D+00 0.000000000000D+00 0.278084259800D-03 0.000000000000D+00  6 -2 2 25 1 -1 21 2 0.19506494D+00 0.23006242D+00 0.24322204D+06 0.24322204D+06 0.24322204D+06 0.10913583D+01  1  2  4  3  6  4        1 -.251944465710D-03 0.100000000000D+01
  </mgrwgt>
  </event>
  <event>
  5     66 0.17652913E-05 0.73143876E+02 0.75467711E-02 0.94354463E-01
       -2 -1    0    0    0  501 0.00000000E+00 0.00000000E+00 0.10678173E+04 0.10678173E+04 0.32000000E+00 0.0000E+00 0.9000E+01
        2 -1    0    0  502    0 0.00000000E+00 0.00000000E+00 -.70754938E+03 0.70754945E+03 0.32000000E+00 0.0000E+00 0.9000E+01
       25  1    1    2    0    0 -.38917325E+03 0.31494846E+03 0.25291583E+03 0.57466491E+03 0.12500000E+03 0.0000E+00 0.9000E+01
        1  1    1    2  502    0 0.35423117E+03 -.25066628E+03 -.45782606E+03 0.63080751E+03 0.32000000E+00 0.0000E+00 0.9000E+01
       -1  1    1    2    0  501 0.34942074E+02 -.64282184E+02 0.56517811E+03 0.56989433E+03 0.32000000E+00 0.0000E+00 0.9000E+01
#aMCatNLO 1  0  0  5  2 0.80131752D+00 0.00000000D+00  -5  6  0 0.00000000D+00 0.00000000D+00 0.00000000D+00 0.00000000D+00 0.00000000D+00
  <mgrwgt>
 0.9804844438D-03    5    2    0
 0.869214324349881D+03 0.000000000000000D+00 0.000000000000000D+00 0.869214324349881D+03
 0.869214324349881D+03 -.000000000000000D+00 -.000000000000000D+00 -.869214324349881D+03
 0.534552224032618D+03 -.389226600813119D+03 0.314977825505041D+03 0.139329475983365D+03
 0.739134825154943D+03 0.354294714947138D+03 -.250714383258457D+03 -.598279067613672D+03
 0.464741599512201D+03 0.349318858659805D+02 -.642634422465835D+02 0.458949591630307D+03
 0.000000000000000D+00 0.000000000000000D+00 0.000000000000000D+00 0.000000000000000D+00
 0.869214324349881D+03 0.000000000000000D+00 0.000000000000000D+00 0.869214324349881D+03
 0.869214324349881D+03 -.000000000000000D+00 -.000000000000000D+00 -.869214324349881D+03
 0.534611765058899D+03 -.389189809583559D+03 0.314910141468025D+03 0.139812854402925D+03
 0.738650287115385D+03 0.354345567325128D+03 -.250807935289074D+03 -.597610947999370D+03
 0.464169550088059D+03 0.343400584479586D+02 -.647667982600280D+02 0.458344186674040D+03
 0.997046437418969D+00 0.504183810472553D+00 0.664592081077239D+00 -.546093077594525D+00
0.357110857118D-02 0.000000000000D+00 0.000000000000D+00 0.271382982430D-04 0.000000000000D+00  6 -2 2 25 1 -1 21 0 0.16427959D+00 0.10885376D+00 0.26175979D+06 0.26175979D+06 0.26175979D+06 0.10889605D+01  1  2  2  4  6  5       -1 0.409084987710D-02 0.100000000000D+01
0.906225272218D-03 0.000000000000D+00 -.137139972078D-04 0.271382982430D-04 0.000000000000D+00  6 -2 2 25 1 -1 21 2 0.16427959D+00 0.10885376D+00 0.26175979D+06 0.26175979D+06 0.26175979D+06 0.10889605D+01  1  2  3  4  6  5       -1 0.123103639093D-02 0.100000000000D+01
-.250629144525D-02 0.000000000000D+00 0.000000000000D+00 0.271382982430D-04 0.000000000000D+00  6 -2 2 25 1 -1 21 2 0.16427959D+00 0.10885376D+00 0.26175979D+06 0.26175979D+06 0.26175979D+06 0.10889605D+01  1  2 15  4  6  5       -1 -.340460155985D-02 0.100000000000D+01
-.536720546350D-01 0.000000000000D+00 0.000000000000D+00 0.271382982430D-04 0.000000000000D+00  6 -2 2 25 1 -1 21 2 0.16427959D+00 0.10885376D+00 0.26175979D+06 0.26175979D+06 0.26175979D+06 0.10889605D+01  1  2  4  4  6  5       -1 -.729093024185D-01 0.100000000000D+01
0.529939750906D-01 0.000000000000D+00 0.000000000000D+00 0.271382982430D-04 0.669470545222D-04  6 -2 2 25 1 -1 21 2 0.16427959D+00 0.10885376D+00 0.26228408D+06 0.26228408D+06 0.26228408D+06 0.10888954D+01  1  2 11  4  6  5       -1 0.719725021542D-01 0.100000000000D+01
  </mgrwgt>
  </event>
  <event>
  5     66 0.17652913E-05 0.22851691E+02 0.75467711E-02 0.94231436E-01
       -2 -1    0    0    0  501 0.00000000E+00 0.00000000E+00 0.68367585E+03 0.68367592E+03 0.32000000E+00 0.0000E+00 0.9000E+01
        2 -1    0    0  502    0 -.00000000E+00 -.00000000E+00 -.24401390E+04 0.24401390E+04 0.32000000E+00 0.0000E+00 0.9000E+01
       25  1    1    2    0    0 -.11172873E+03 -.47855897E+03 -.97501830E+03 0.10989939E+04 0.12500000E+03 0.0000E+00 0.9000E+01
        1  1    1    2  502    0 -.20853148E+02 -.93461117E+01 -.13002194E+04 0.13004202E+04 0.32000000E+00 0.0000E+00 0.9000E+01
       -1  1    1    2    0  501 0.13258187E+03 0.48790508E+03 0.51877455E+03 0.72440076E+03 0.32000000E+00 0.0000E+00 0.9000E+01
#aMCatNLO 1  0  0  5  1 0.57785776D+02 0.00000000D+00  -5  6  0 0.00000000D+00 0.00000000D+00 0.00000000D+00 0.00000000D+00 0.00000000D+00
  <mgrwgt>
 0.2621809880D-01    4    2    0
 0.129161303197971D+04 0.000000000000000D+00 0.000000000000000D+00 0.129161303197971D+04
 0.129161303197971D+04 -.000000000000000D+00 -.000000000000000D+00 -.129161303197971D+04
 0.666015884679670D+03 -.111728742366989D+03 -.478559096143403D+03 -.431798608465964D+03
 0.688474508779989D+03 -.208531254460522D+02 -.934595944595594D+01 -.688095160163922D+03
 0.122873567049976D+04 0.132581867813041D+03 0.487905055589359D+03 0.111989376862989D+04
 0.000000000000000D+00 0.000000000000000D+00 -.000000000000000D+00 0.000000000000000D+00
 0.129161303197971D+04 0.000000000000000D+00 0.000000000000000D+00 0.129161303197971D+04
 0.129161303197971D+04 -.000000000000000D+00 -.000000000000000D+00 -.129161303197971D+04
 0.469894204168986D+03 -.866618917882131D+02 -.386312370955203D+03 -.220063699119737D+03
 0.478316547439894D+03 0.489519508569093D+01 0.854085946088109D+02 -.470604004006385D+03
 0.117164968549447D+04 0.884699996222394D+02 0.689279481253654D+03 0.943307925021746D+03
 0.463365626856067D+03 -.670330291971718D+01 -.388375704907261D+03 -.252640221895624D+03
0.720381558991D-01 0.000000000000D+00 0.000000000000D+00 0.590371871986D-03 0.000000000000D+00  6 -2 2 25 1 -1 21 0 0.10518091D+00 0.37540600D+00 0.26807888D+06 0.26807888D+06 0.26807888D+06 0.10881853D+01  1  2  2  4  6  5       -1 0.265066801990D-01 0.100000000000D+01
0.469550089082D-01 0.000000000000D+00 -.276645486735D-03 0.590371871986D-03 0.000000000000D+00  6 -2 2 25 1 -1 21 2 0.10518091D+00 0.37540600D+00 0.26807888D+06 0.26807888D+06 0.26807888D+06 0.10881853D+01  1  2  3  4  6  5       -1 0.204588093123D-01 0.100000000000D+01
-.475897289618D-01 0.000000000000D+00 0.000000000000D+00 0.590371871986D-03 0.000000000000D+00  6 -2 2 25 1 -1 21 2 0.10518091D+00 0.37540600D+00 0.26807888D+06 0.26807888D+06 0.26807888D+06 0.10881853D+01  1  2 15  4  6  5       -1 -.207353637597D-01 0.100000000000D+01
-.276030629366D-04 0.000000000000D+00 0.000000000000D+00 0.590371871986D-03 0.000000000000D+00  6 -2 2 25 1 -1 21 2 0.10518091D+00 0.37540600D+00 0.26807888D+06 0.26807888D+06 0.26807888D+06 0.10881853D+01  1  2  4  4  6  5       -1 -.120269554662D-04 0.100000000000D+01
  </mgrwgt>
  </event>
  <event>
  5     66 0.17652913E-05 0.29391919E+02 0.75467711E-02 0.92856753E-01
       -2 -1    0    0    0  501 0.00000000E+00 0.00000000E+00 0.24009292E+03 0.24009313E+03 0.32000000E+00 0.0000E+00 0.9000E+01
        2 -1    0    0  502    0 -.00000000E+00 -.00000000E+00 -.27146235E+04 0.27146236E+04 0.32000000E+00 0.0000E+00 0.9000E+01
       25  1    1    2    0    0 0.30434528E+03 0.41501368E+03 -.12820367E+04 0.13871213E+04 0.12500000E+03 0.0000E+00 0.9000E+01
        1  1    1    2  502    0 -.26658084E+02 -.12373923E+02 -.10606088E+04 0.10610159E+04 0.32000000E+00 0.0000E+00 0.9000E+01
       -1  1    1    2    0  501 -.27768720E+03 -.40263975E+03 -.13188517E+03 0.50657946E+03 0.32000000E+00 0.0000E+00 0.9000E+01
#aMCatNLO 1  0  0  5  4 0.80483740D+02 0.00000000D+00  -5  6  0 0.00000000D+00 0.00000000D+00 0.00000000D+00 0.00000000D+00 0.00000000D+00
  <mgrwgt>
 0.1566721774D-01    3    2    0
 0.807317919343077D+03 0.000000000000000D+00 0.000000000000000D+00 0.807317919343077D+03
 0.807317919343077D+03 -.000000000000000D+00 -.000000000000000D+00 -.807317919343077D+03
 0.573557940974785D+03 0.304343772655236D+03 0.415009947834427D+03 -.220193830294309D+03
 0.316189327911669D+03 -.266598290044922D+02 -.123749118913170D+02 -.314820275964504D+03
 0.724888569799700D+03 -.277683943650744D+03 -.402635035943110D+03 0.535014106258812D+03
 0.000000000000000D+00 0.000000000000000D+00 0.000000000000000D+00 -.000000000000000D+00
 0.807317919343077D+03 0.000000000000000D+00 0.000000000000000D+00 0.807317919343077D+03
 0.807317919343077D+03 -.000000000000000D+00 -.000000000000000D+00 -.807317919343077D+03
 0.518190570862663D+03 0.280122575634312D+03 0.379889795027281D+03 -.173526810565695D+03
 0.293298648977354D+03 -.401817419817474D+02 -.319813603090348D+02 -.288767584219623D+03
 0.119318542873768D+03 -.208079352628974D+02 0.116956810474351D+03 0.111825304507126D+02
 0.683828075972369D+03 -.219132898389667D+03 -.464865245192597D+03 0.451111864334605D+03
0.731238712852D-02 0.000000000000D+00 0.000000000000D+00 0.352539292408D-04 0.000000000000D+00  6 -2 2 25 1 -1 21 0 0.36937390D-01 0.41763441D+00 0.27463017D+06 0.27463017D+06 0.27463017D+06 0.10874023D+01  1  2  2  4  6  5       -1 0.169492027300D-01 0.100000000000D+01
0.339610708201D-02 0.000000000000D+00 -.280814919693D-04 0.352539292408D-04 0.000000000000D+00  6 -2 2 25 1 -1 21 2 0.36937390D-01 0.41763441D+00 0.27463017D+06 0.27463017D+06 0.27463017D+06 0.10874023D+01  1  2  3  4  6  5       -1 0.930790618928D-02 0.100000000000D+01
-.386385549057D-02 0.000000000000D+00 0.000000000000D+00 0.352539292408D-04 0.000000000000D+00  6 -2 2 25 1 -1 21 2 0.36937390D-01 0.41763441D+00 0.27463017D+06 0.27463017D+06 0.27463017D+06 0.10874023D+01  1  2 15  4  6  5       -1 -.105898911803D-01 0.100000000000D+01
  </mgrwgt>
  </event>
  <event>
  5     66 0.17652913E-05 0.18498746E+02 0.75467711E-02 0.93166119E-01
       -2 -1    0    0    0  501 0.00000000E+00 0.00000000E+00 0.26607184E+04 0.26607184E+04 0.32000000E+00 0.0000E+00 0.9000E+01
        2 -1    0    0  502    0 0.00000000E+00 0.00000000E+00 -.48389262E+03 0.48389272E+03 0.32000000E+00 0.0000E+00 0.9000E+01
       25  1    1    2    0    0 0.46112884E+03 0.24442067E+03 0.25897071E+03 0.59587927E+03 0.12500000E+03 0.0000E+00 0.9000E+01
        1  1    1    2  502    0 -.46437494E+03 -.22620759E+03 -.10390480E+03 0.52688734E+03 0.32000000E+00 0.0000E+00 0.9000E+01
       -1  1    1    2    0  501 0.32460959E+01 -.18213077E+02 0.20217599E+04 0.20218445E+04 0.32000000E+00 0.0000E+00 0.9000E+01
#aMCatNLO 1  0  0  1  5 0.37468482D+01 0.00000000D+00  -5  6  0 0.00000000D+00 0.00000000D+00 0.00000000D+00 0.00000000D+00 0.00000000D+00
  <mgrwgt>
 0.1103001226D+00    7    4    0
 0.113468153268843D+04 0.000000000000000D+00 0.000000000000000D+00 0.113468153268843D+04
 0.113468153268843D+04 0.000000000000000D+00 0.000000000000000D+00 -.113468153268843D+04
 0.577325823668660D+03 0.461183670795292D+03 0.244447173579066D+03 -.212685936995567D+03
 0.829789295049116D+03 -.464429531077235D+03 -.226235419119194D+03 -.649363549929815D+03
 0.862247946659074D+03 0.324586028194220D+01 -.182117544598722D+02 0.862049486925381D+03
 0.000000000000000D+00 -.000000000000000D+00 0.000000000000000D+00 0.000000000000000D+00
 0.224277430799779D+04 0.000000000000000D+00 0.000000000000000D+00 0.224277430799779D+04
 0.113556235397058D+04 0.000000000000000D+00 0.000000000000000D+00 -.113556235397058D+04
 0.580069250751781D+03 0.469691838286636D+03 0.234541264853269D+03 -.212685936995567D+03
 0.827044634404988D+03 -.452249921116310D+03 -.240415923289038D+03 -.649363549929815D+03
 0.862826998120875D+03 0.159271191620678D+02 -.329763195818605D+02 0.862049486925381D+03
 0.110839577869073D+04 -.333690363323935D+02 0.388509780176289D+02 0.110721195402721D+04
 0.113468153268843D+04 0.000000000000000D+00 0.000000000000000D+00 0.113468153268843D+04
 0.113468153268843D+04 0.000000000000000D+00 0.000000000000000D+00 -.113468153268843D+04
 0.577325823668660D+03 0.461183670795292D+03 0.244447173579066D+03 -.212685936995567D+03
 0.829789295049116D+03 -.464429531077235D+03 -.226235419119194D+03 -.649363549929815D+03
 0.000000000000000D+00 -.000000000000000D+00 0.000000000000000D+00 0.000000000000000D+00
 0.862247946659074D+03 0.324586028194220D+01 -.182117544598722D+02 0.862049486925381D+03
 0.224277430799779D+04 0.000000000000000D+00 0.000000000000000D+00 0.224277430799779D+04
 0.113556235397058D+04 0.000000000000000D+00 0.000000000000000D+00 -.113556235397058D+04
 0.580069250751781D+03 0.469691838286636D+03 0.234541264853269D+03 -.212685936995567D+03
 0.827044634404988D+03 -.452249921116310D+03 -.240415923289038D+03 -.649363549929815D+03
 0.110839577869073D+04 -.333690363323935D+02 0.388509780176289D+02 0.110721195402721D+04
 0.862826998120875D+03 0.159271191620678D+02 -.329763195818605D+02 0.862049486925381D+03
0.154729225962D-01 0.000000000000D+00 0.000000000000D+00 0.199202263763D-03 0.000000000000D+00  6 -2 2 25 1 -1 21 0 0.40934130D+00 0.74445028D-01 0.28720045D+06 0.28720045D+06 0.28720045D+06 0.10859556D+01  1  2  2  1  6  1       -2 0.612617031078D-03 0.100000000000D+01
0.141174799390D-01 0.000000000000D+00 -.594200968836D-04 0.199202263763D-03 0.000000000000D+00  6 -2 2 25 1 -1 21 2 0.40934130D+00 0.74445028D-01 0.28720045D+06 0.28720045D+06 0.28720045D+06 0.10859556D+01  1  2  3  1  6  1       -2 0.659170942804D-03 0.100000000000D+01
-.114312118991D-01 0.000000000000D+00 0.000000000000D+00 0.199202263763D-03 0.000000000000D+00  6 -2 2 25 1 -1 21 2 0.40934130D+00 0.74445028D-01 0.28720045D+06 0.28720045D+06 0.28720045D+06 0.10859556D+01  1  2 15  1  6  1       -2 -.533744177962D-03 0.100000000000D+01
-.959478823670D-01 0.000000000000D+00 0.000000000000D+00 0.199202263763D-03 0.000000000000D+00  6 -2 2 25 1 -1 21 2 0.40934130D+00 0.74445028D-01 0.28720045D+06 0.28720045D+06 0.28720045D+06 0.10859556D+01  1  2  4  1  6  1       -2 -.447998200481D-02 0.100000000000D+01
-.308494110410D+01 0.000000000000D+00 -.652694241631D-02 0.199202263763D-03 0.000000000000D+00  6 -2 2 25 1 -1 21 2 0.80913090D+00 0.74445028D-01 0.28720045D+06 0.28720045D+06 0.28720045D+06 0.10859556D+01  1  2  5  1  6  1       -2 -.219541863106D-02 0.100000000000D+01
0.248988724691D+01 0.000000000000D+00 0.525821816617D-02 0.199202263763D-03 0.000000000000D+00  6 -2 2 25 1 -1 21 2 0.40934130D+00 0.74445028D-01 0.28720045D+06 0.28720045D+06 0.28720045D+06 0.10859556D+01  1  2  6  1  6  1       -2 0.116257386666D+00 0.100000000000D+01
-.227202339419D+00 0.000000000000D+00 -.481522210349D-03 0.199202263763D-03 0.000000000000D+00  6 21 2 25 1 2 -1 2 0.80913090D+00 0.74445028D-01 0.28720045D+06 0.28720045D+06 0.28720045D+06 0.10859556D+01  3  4  5  5  5  1       -2 -.199071974268D-04 0.100000000000D+01
  </mgrwgt>
  </event>
  <event>
  6     66 0.17652913E-05 0.77657530E+02 0.75467711E-02 0.93859305E-01
       -2 -1    0    0    0  501 0.00000000E+00 0.00000000E+00 0.31309812E+03 0.31309828E+03 0.32000000E+00 0.0000E+00 0.9000E+01
        2 -1    0    0  502    0 -.00000000E+00 -.00000000E+00 -.23510704E+04 0.23510704E+04 0.32000000E+00 0.0000E+00 0.9000E+01
       25  1    1    2    0    0 0.22541404E+03 -.46139031E+03 -.59810793E+03 0.79815450E+03 0.12500000E+03 0.0000E+00 0.9000E+01
        1  1    1    2  503    0 -.21674629E+03 0.28189615E+03 -.10343184E+04 0.10937363E+04 0.32000000E+00 0.0000E+00 0.9000E+01
       -1  1    1    2    0  501 -.26809361E+02 0.63668603E+02 0.17074033E+03 0.18418685E+03 0.32000000E+00 0.0000E+00 0.9000E+01
       21  1    1    2  502  503 0.18141609E+02 0.11582556E+03 -.57628630E+03 0.58809110E+03 0.75000000E+00 0.0000E+00 0.9000E+01
#aMCatNLO 2  0  0  4  2 0.43828464D+01 0.00000000D+00  -5  6  0 0.00000000D+00 0.00000000D+00 0.00000000D+00 0.00000000D+00 0.00000000D+00
  <mgrwgt>
 0.3092677667D-02    1    2    0
 0.857972010768108D+03 0.000000000000000D+00 0.000000000000000D+00 0.857972010768108D+03
 0.857972010768108D+03 -.000000000000000D+00 -.000000000000000D+00 -.857972010768108D+03
 0.534582001033044D+03 0.227923695760339D+03 -.466415007469651D+03 0.257049712415033D+02
 0.687628540630639D+03 -.203416295045540D+03 0.407358072489037D+03 -.515280721139249D+03
 0.493733479872533D+03 -.245074007147982D+02 0.590569349806148D+02 0.489575749897746D+03
 0.000000000000000D+00 0.000000000000000D+00 0.000000000000000D+00 -.000000000000000D+00
 0.857972010768108D+03 0.000000000000000D+00 0.000000000000000D+00 0.857972010768108D+03
 0.857972010768108D+03 -.000000000000000D+00 -.000000000000000D+00 -.857972010768108D+03
 0.528906542131117D+03 0.225435442531794D+03 -.461432073143679D+03 0.194018925343895D+02
 0.469522662753769D+03 -.216743492019047D+03 0.281806299856328D+03 -.306690395787125D+03
 0.488659801149714D+03 -.268059146658101D+02 0.636599006007670D+02 0.483753306194498D+03
 0.228855015501616D+03 0.181139641530633D+02 0.115965872686584D+03 -.196464802941762D+03
0.115540618403D-02 0.000000000000D+00 0.000000000000D+00 0.258798141864D-04 0.134269889883D-07  6 -2 2 25 1 -1 21 2 0.48168955D-01 0.36170316D+00 0.28649970D+06 0.28649970D+06 0.28649970D+06 0.10860344D+01  1  2  1  3  6  4        1 0.309267766731D-02 0.100000000000D+01
  </mgrwgt>
  </event>
  <event>
  5     66 -.17652913E-05 0.21273082E+03 0.75467711E-02 0.87858798E-01
       -2 -1    0    0    0  501 0.00000000E+00 0.00000000E+00 0.13932152E+04 0.13932152E+04 0.32000000E+00 0.0000E+00 0.9000E+01
        2 -1    0    0  502    0 0.00000000E+00 0.00000000E+00 -.12213500E+04 0.12213501E+04 0.32000000E+00 0.0000E+00 0.9000E+01
       25  1    1    2    0    0 0.58758064E+03 -.47952110E+03 -.11429997E+02 0.76873086E+03 0.12500000E+03 0.0000E+00 0.9000E+01
        1  1    1    2  502    0 0.21173524E+03 0.20422736E+02 -.59975021E+03 0.63635628E+03 0.32000000E+00 0.0000E+00 0.9000E+01
       -1  1    1    2    0  501 -.79931588E+03 0.45909837E+03 0.78304537E+03 0.12094781E+04 0.32000000E+00 0.0000E+00 0.9000E+01
#aMCatNLO 1  0  0  4  2 0.15818515D+02 0.00000000D+00  -5  6  0 0.00000000D+00 0.00000000D+00 0.00000000D+00 0.00000000D+00 0.00000000D+00
  <mgrwgt>
 -.2004434577D-03    8    2    0
 0.130445523914071D+04 0.000000000000000D+00 0.000000000000000D+00 0.130445523914071D+04
 0.130445523914071D+04 -.000000000000000D+00 -.000000000000000D+00 -.130445523914071D+04
 0.771121583581265D+03 0.587553561729112D+03 -.479516357212457D+03 -.620352474808341D+02
 0.677294298387994D+03 0.211747889821121D+03 0.204262776912745D+02 -.643018790522381D+03
 0.116049459631216D+04 -.799301451550234D+03 0.459090079521182D+03 0.705054038003215D+03
 0.000000000000000D+00 0.000000000000000D+00 0.000000000000000D+00 -.000000000000000D+00
 0.130445523914071D+04 0.000000000000000D+00 0.000000000000000D+00 0.130445523914071D+04
 0.130445523914071D+04 -.000000000000000D+00 -.000000000000000D+00 -.130445523914071D+04
 0.771222984881893D+03 0.587660648600826D+03 -.479506027068527D+03 -.623604401936802D+02
 0.542276383246886D+03 0.184268036115853D+03 0.134875707659165D+02 -.509830415067760D+03
 0.116009255593196D+04 -.799140330343109D+03 0.459105622091743D+03 0.704564758210059D+03
 0.135318554220681D+03 0.272116456264292D+02 0.691283421086706D+01 -.132373902948618D+03
0.437538834935D-05 0.000000000000D+00 0.000000000000D+00 0.160165655725D-06 0.000000000000D+00  6 -2 2 25 1 -1 21 0 0.21434080D+00 0.18790001D+00 0.90546240D+06 0.90546240D+06 0.90546240D+06 0.10507471D+01  1  2  2  3  6  4        1 0.957973886912D-06 0.100000000000D+01
0.567789777473D-06 0.000000000000D+00 -.168026433277D-07 0.160165655725D-06 0.000000000000D+00  6 -2 2 25 1 -1 21 2 0.21434080D+00 0.18790001D+00 0.90546240D+06 0.90546240D+06 0.90546240D+06 0.10507471D+01  1  2  3  3  6  4        1 0.137252735764D-06 0.100000000000D+01
-.282187136124D-05 0.000000000000D+00 0.000000000000D+00 0.160165655725D-06 0.000000000000D+00  6 -2 2 25 1 -1 21 2 0.21434080D+00 0.18790001D+00 0.90546240D+06 0.90546240D+06 0.90546240D+06 0.10507471D+01  1  2 15  3  6  4        1 -.682135500973D-06 0.100000000000D+01
0.389313140724D-08 0.000000000000D+00 0.000000000000D+00 0.160165655725D-06 0.000000000000D+00  6 -2 2 25 1 -1 21 2 0.21434080D+00 0.18790001D+00 0.90550961D+06 0.90550961D+06 0.90550961D+06 0.10507456D+01  1  2 12  3  6  4        1 0.941086778301D-09 0.100000000000D+01
0.411713860826D-03 0.000000000000D+00 0.000000000000D+00 0.160165655725D-06 0.000000000000D+00  6 -2 2 25 1 -1 21 2 0.21434080D+00 0.18790001D+00 0.90550961D+06 0.90550961D+06 0.90550961D+06 0.10507456D+01  1  2 12  3  6  4        1 0.995236046095D-04 0.100000000000D+01
-.133695814097D-02 0.000000000000D+00 0.000000000000D+00 0.160165655725D-06 0.000000000000D+00  6 -2 2 25 1 -1 21 2 0.21434080D+00 0.18790001D+00 0.90546240D+06 0.90546240D+06 0.90546240D+06 0.10507471D+01  1  2  4  3  6  4        1 -.323185040892D-03 0.100000000000D+01
-.430235042161D-03 0.000000000000D+00 0.000000000000D+00 0.160165655725D-06 0.000000000000D+00  6 -2 2 25 1 -1 21 2 0.21434080D+00 0.18790001D+00 0.90546240D+06 0.90546240D+06 0.90546240D+06 0.10507471D+01  1  2  5  3  6  4        1 -.104001408445D-03 0.100000000000D+01
0.524570849489D-03 0.000000000000D+00 -.000000000000D+00 0.160165655725D-06 0.000000000000D+00  6 -2 2 25 1 -1 21 2 0.21434080D+00 0.18790001D+00 0.90546240D+06 0.90546240D+06 0.90546240D+06 0.10507471D+01  1  2  6  3  6  4        1 0.126805354818D-03 0.100000000000D+01
  </mgrwgt>
  </event>
  <event>
  5     66 0.17652913E-05 0.30916185E+02 0.75467711E-02 0.90595273E-01
       -2 -1    0    0    0  501 0.00000000E+00 0.00000000E+00 0.34476878E+03 0.34476893E+03 0.32000000E+00 0.0000E+00 0.9000E+01
        2 -1    0    0  502    0 0.00000000E+00 0.00000000E+00 -.17957493E+04 0.17957493E+04 0.32000000E+00 0.0000E+00 0.9000E+01
       25  1    1    2    0    0 -.59185540E+03 0.27077943E+03 -.53384237E+03 0.85101527E+03 0.12500000E+03 0.0000E+00 0.9000E+01
        1  1    1    2  502    0 -.30671923E+02 0.38633332E+01 -.47949561E+03 0.48049124E+03 0.32000000E+00 0.0000E+00 0.9000E+01
       -1  1    1    2    0  501 0.62252732E+03 -.27464277E+03 -.43764253E+03 0.80901174E+03 0.32000000E+00 0.0000E+00 0.9000E+01
#aMCatNLO 1  0  0  2  4 0.74636282D+02 0.00000000D+00  -5  6  0 0.00000000D+00 0.00000000D+00 0.00000000D+00 0.00000000D+00 0.00000000D+00
  <mgrwgt>
 0.2241170940D-02    7    2    0
 0.786840829830422D+03 0.000000000000000D+00 0.000000000000000D+00 0.786840829830422D+03
 0.786840829830422D+03 0.000000000000000D+00 0.000000000000000D+00 -.786840829830422D+03
 0.665319799851869D+03 -.591842714037025D+03 0.270774569500736D+03 0.585557036326139D+02
 0.211477245170405D+03 -.306738366137736D+02 0.386344720613670D+01 -.209205197707754D+03
 0.696884614638570D+03 0.622516550650799D+03 -.274638016706873D+03 0.150649494075140D+03
 0.000000000000000D+00 -.000000000000000D+00 -.000000000000000D+00 -.000000000000000D+00
 0.798054329815906D+03 0.000000000000000D+00 0.000000000000000D+00 0.798054329815906D+03
 0.922553299603048D+03 0.000000000000000D+00 0.000000000000000D+00 -.922553299603048D+03
 0.668467433157884D+03 -.580965743465804D+03 0.300455893075847D+03 0.585557036326139D+02
 0.211386437719114D+03 -.272254036699009D+02 0.132736091040616D+02 -.209205197707754D+03
 0.695596712449888D+03 0.633872168729058D+03 -.243650548976845D+03 0.150649494075140D+03
 0.145157046092069D+03 -.256810215933529D+02 -.700789532030641D+02 -.124498969787142D+03
0.118437557313D-03 0.000000000000D+00 0.000000000000D+00 0.146150517044D-05 0.000000000000D+00  6 -2 2 25 1 -1 21 0 0.53041365D-01 0.27626914D+00 0.47201064D+06 0.47201064D+06 0.47201064D+06 0.10702831D+01  1  2  2  2  6  2        2 0.438736085991D-03 0.100000000000D+01
0.516804709808D-04 0.000000000000D+00 -.454831405406D-06 0.146150517044D-05 0.000000000000D+00  6 -2 2 25 1 -1 21 2 0.53041365D-01 0.27626914D+00 0.47201064D+06 0.47201064D+06 0.47201064D+06 0.10702831D+01  1  2  3  2  6  2        2 0.219299516709D-03 0.100000000000D+01
-.805191373357D-04 0.000000000000D+00 0.000000000000D+00 0.146150517044D-05 0.000000000000D+00  6 -2 2 25 1 -1 21 2 0.53041365D-01 0.27626914D+00 0.47201064D+06 0.47201064D+06 0.47201064D+06 0.10702831D+01  1  2 15  2  6  2        2 -.341672735724D-03 0.100000000000D+01
-.139573122721D-04 0.000000000000D+00 0.000000000000D+00 0.146150517044D-05 0.000000000000D+00  6 -2 2 25 1 -1 21 2 0.53041365D-01 0.27626914D+00 0.47201064D+06 0.47201064D+06 0.47201064D+06 0.10702831D+01  1  2  4  2  6  2        2 -.592260824589D-04 0.100000000000D+01
-.138342546798D-02 0.000000000000D+00 -.157513836357D-03 0.146150517044D-05 0.000000000000D+00  6 -2 2 25 1 -1 21 2 0.53041365D-01 0.32547241D+00 0.47201064D+06 0.47201064D+06 0.47201064D+06 0.10702831D+01  1  2  5  2  6  2        2 -.390945859764D-02 0.100000000000D+01
0.139258752885D-02 0.000000000000D+00 0.155421542965D-03 0.146150517044D-05 0.000000000000D+00  6 -2 2 25 1 -1 21 2 0.53041365D-01 0.27626914D+00 0.47201064D+06 0.47201064D+06 0.47201064D+06 0.10702831D+01  1  2  6  2  6  2        2 0.590926836108D-02 0.100000000000D+01
-.326043774186D-04 0.000000000000D+00 -.385808691509D-05 0.146150517044D-05 0.000000000000D+00  6 -2 21 25 1 -1 -2 2 0.53041365D-01 0.32547241D+00 0.47201064D+06 0.47201064D+06 0.47201064D+06 0.10702831D+01  1  2  5  6  6  2        2 -.157756076162D-04 0.100000000000D+01
  </mgrwgt>
  </event>
  <event>
  5     66 0.17652913E-05 0.18092181E+02 0.75467711E-02 0.94087027E-01
       -2 -1    0    0    0  501 0.00000000E+00 0.00000000E+00 0.77809250E+03 0.77809256E+03 0.32000000E+00 0.0000E+00 0.9000E+01
        2 -1    0    0  502    0 -.00000000E+00 -.00000000E+00 -.20307385E+04 0.20307385E+04 0.32000000E+00 0.0000E+00 0.9000E+01
       25  1    1    2    0    0 0.29283795E+03 0.39992380E+03 -.87197841E+03 0.10107742E+04 0.12500000E+03 0.0000E+00 0.9000E+01
        1  1    1    2  502    0 0.33667045E+01 0.17776720E+02 -.99677152E+03 0.99693576E+03 0.32000000E+00 0.0000E+00 0.9000E+01
       -1  1    1    2    0  501 -.29620466E+03 -.41770052E+03 0.61610393E+03 0.80112114E+03 0.32000000E+00 0.0000E+00 0.9000E+01
#aMCatNLO 1  0  0  4  5 0.66011714D+01 0.00000000D+00  -5  6  0 0.00000000D+00 0.00000000D+00 0.00000000D+00 0.00000000D+00 0.00000000D+00
  <mgrwgt>
 0.3037280484D-01    8    2    0
 0.125702129159224D+04 0.000000000000000D+00 0.000000000000000D+00 0.125702129159224D+04
 0.125702129159224D+04 -.000000000000000D+00 -.000000000000000D+00 -.125702129159224D+04
 0.694833663801416D+03 0.292838636623020D+03 0.399925032537570D+03 -.470610583818824D+03
 0.617169152595937D+03 0.336652700710288D+01 0.177762059602535D+02 -.616903911410486D+03
 0.120203976678712D+04 -.296205163630123D+03 -.417701238497825D+03 0.108751449522931D+04
 0.000000000000000D+00 0.000000000000000D+00 0.000000000000000D+00 0.000000000000000D+00
 0.125702129159224D+04 0.000000000000000D+00 0.000000000000000D+00 0.125702129159224D+04
 0.125702129159224D+04 -.000000000000000D+00 -.000000000000000D+00 -.125702129159224D+04
 0.694905500436094D+03 0.292839199692752D+03 0.399928005703537D+03 -.470713764312919D+03
 0.654079153557511D+02 -.615556682404871D+01 0.786208674095673D+00 -.651128732600597D+02
 0.120187626884516D+04 -.296204189654292D+03 -.417696095632511D+03 0.108733601767704D+04
 0.551852898547461D+03 0.952055678558858D+01 0.169818812548767D+02 -.551509380104067D+03
0.250906429831D-02 0.000000000000D+00 0.000000000000D+00 0.508324455721D-03 0.000000000000D+00  6 -2 2 25 1 -1 21 0 0.11970655D+00 0.31242132D+00 0.27110381D+06 0.27110381D+06 0.27110381D+06 0.10878212D+01  1  2  2  3  6  4        1 0.113121286610D-02 0.100000000000D+01
0.181484723666D-02 0.000000000000D+00 -.963546755733D-05 0.508324455721D-03 0.000000000000D+00  6 -2 2 25 1 -1 21 2 0.11970655D+00 0.31242132D+00 0.27110381D+06 0.27110381D+06 0.27110381D+06 0.10878212D+01  1  2  3  3  6  4        1 0.968250323736D-03 0.100000000000D+01
-.172877100231D-02 0.000000000000D+00 0.000000000000D+00 0.508324455721D-03 0.000000000000D+00  6 -2 2 25 1 -1 21 2 0.11970655D+00 0.31242132D+00 0.27110381D+06 0.27110381D+06 0.27110381D+06 0.10878212D+01  1  2 15  3  6  4        1 -.922327261950D-03 0.100000000000D+01
0.176931118623D-09 0.000000000000D+00 0.000000000000D+00 0.508324455721D-03 0.000000000000D+00  6 -2 2 25 1 -1 21 2 0.11970655D+00 0.31242132D+00 0.27506482D+06 0.27506482D+06 0.27506482D+06 0.10873511D+01  1  2 12  3  6  4        1 0.942138077609D-10 0.100000000000D+01
-.496766851236D-02 0.000000000000D+00 0.000000000000D+00 0.508324455721D-03 0.000000000000D+00  6 -2 2 25 1 -1 21 2 0.11970655D+00 0.31242132D+00 0.27110381D+06 0.27110381D+06 0.27110381D+06 0.10878212D+01  1  2  4  3  6  4        1 -.265033141531D-02 0.100000000000D+01
-.568969417652D-01 0.000000000000D+00 0.000000000000D+00 0.508324455721D-03 0.000000000000D+00  6 -2 2 25 1 -1 21 2 0.11970655D+00 0.31242132D+00 0.27110381D+06 0.27110381D+06 0.27110381D+06 0.10878212D+01  1  2  5  3  6  4        1 -.303554377310D-01 0.100000000000D+01
0.114365804351D+00 0.000000000000D+00 -.000000000000D+00 0.508324455721D-03 0.000000000000D+00  6 -2 2 25 1 -1 21 2 0.11970655D+00 0.31242132D+00 0.27110381D+06 0.27110381D+06 0.27110381D+06 0.10878212D+01  1  2  6  3  6  4        1 0.610160044606D-01 0.100000000000D+01
0.222621375968D-02 0.000000000000D+00 0.000000000000D+00 0.508324455721D-03 0.243100618242D-05  6 -2 2 25 1 -1 21 2 0.11970655D+00 0.31242132D+00 0.27506482D+06 0.27506482D+06 0.27506482D+06 0.10873511D+01  1  2 11  3  6  4        1 0.118543349989D-02 0.100000000000D+01
  </mgrwgt>
  </event>
  <event>
  5     66 -.17652913E-05 0.41514692E+02 0.75467711E-02 0.95400980E-01
       -2 -1    0    0    0  501 0.00000000E+00 0.00000000E+00 0.54871184E+03 0.54871193E+03 0.32000000E+00 0.0000E+00 0.9000E+01
        2 -1    0    0  502    0 -.00000000E+00 -.00000000E+00 -.30180775E+04 0.30180775E+04 0.32000000E+00 0.0000E+00 0.9000E+01
       25  1    1    2    0    0 0.17460438E+03 -.42217868E+03 -.97753126E+02 0.48363437E+03 0.12500000E+03 0.0000E+00 0.9000E+01
        1  1    1    2  502    0 -.14463395E+03 0.39344323E+03 -.27100006E+04 0.27422290E+04 0.32000000E+00 0.0000E+00 0.9000E+01
       -1  1    1    2    0  501 -.29970430E+02 0.28735445E+02 0.33838810E+03 0.34092604E+03 0.32000000E+00 0.0000E+00 0.9000E+01
#aMCatNLO 1  0  0  5  1 0.20645837D+01 0.00000000D+00  -5  6  0 0.00000000D+00 0.00000000D+00 0.00000000D+00 0.00000000D+00 0.00000000D+00
  <mgrwgt>
 -.4858661145D+00    9    2    0
 0.128687801496813D+04 0.000000000000000D+00 0.000000000000000D+00 0.128687801496813D+04
 0.128687801496813D+04 -.000000000000000D+00 -.000000000000000D+00 -.128687801496813D+04
 0.576543771898228D+03 0.174617473414956D+03 -.422220647948527D+03 0.328658155746573D+03
 0.120019504513962D+04 -.144651240870404D+03 0.393489227157749D+03 -.112459343453674D+04
 0.797017212898411D+03 -.299662325445522D+02 0.287314207907781D+02 0.795935278790167D+03
 0.000000000000000D+00 0.000000000000000D+00 0.000000000000000D+00 0.000000000000000D+00
 0.128687801496813D+04 0.000000000000000D+00 0.000000000000000D+00 0.128687801496813D+04
 0.128687801496813D+04 -.000000000000000D+00 -.000000000000000D+00 -.128687801496813D+04
 0.576545069097136D+03 0.174617381650161D+03 -.422220559965063D+03 0.328660593117964D+03
 0.120019037394494D+04 -.144651431897209D+03 0.393489410312956D+03 -.112458836065991D+04
 0.344615859356429D+03 -.145742465279242D+02 0.137011414868597D+02 0.344034824661793D+03
 0.452404727537748D+03 -.153917032250283D+02 0.150300081652480D+02 0.451892942880158D+03
0.393049337310D-03 0.000000000000D+00 0.000000000000D+00 0.890398044279D-03 0.000000000000D+00  6 -2 2 25 1 -1 21 0 0.84417214D-01 0.46431962D+00 0.21829639D+06 0.21829639D+06 0.21829639D+06 0.10949175D+01  1  2  2  4  6  5       -1 0.111335341599D-03 0.100000000000D+01
0.172209559104D-03 0.000000000000D+00 -.150941294754D-05 0.890398044279D-03 0.000000000000D+00  6 -2 2 25 1 -1 21 2 0.84417214D-01 0.46431962D+00 0.21829639D+06 0.21829639D+06 0.21829639D+06 0.10949175D+01  1  2  3  4  6  5       -1 0.584798194499D-04 0.100000000000D+01
-.251934381414D-03 0.000000000000D+00 0.000000000000D+00 0.890398044279D-03 0.000000000000D+00  6 -2 2 25 1 -1 21 2 0.84417214D-01 0.46431962D+00 0.21829639D+06 0.21829639D+06 0.21829639D+06 0.10949175D+01  1  2 15  4  6  5       -1 -.855531900492D-04 0.100000000000D+01
0.433595795001D-11 0.000000000000D+00 0.000000000000D+00 0.890398044279D-03 0.000000000000D+00  6 -2 2 25 1 -1 21 2 0.84417214D-01 0.46431962D+00 0.21829713D+06 0.21829713D+06 0.21829713D+06 0.10949174D+01  1  2 12  4  6  5       -1 0.147242645962D-11 0.100000000000D+01
0.298248049288D-02 0.000000000000D+00 0.000000000000D+00 0.890398044279D-03 0.000000000000D+00  6 -2 2 25 1 -1 21 2 0.84417214D-01 0.46431962D+00 0.21829713D+06 0.21829713D+06 0.21829713D+06 0.10949174D+01  1  2 12  4  6  5       -1 0.101280576141D-02 0.100000000000D+01
-.518031347321D+01 0.000000000000D+00 0.000000000000D+00 0.890398044279D-03 0.000000000000D+00  6 -2 2 25 1 -1 21 2 0.84417214D-01 0.46431962D+00 0.21829639D+06 0.21829639D+06 0.21829639D+06 0.10949175D+01  1  2  4  4  6  5       -1 -.175915784340D+01 0.100000000000D+01
-.197655328416D+01 0.000000000000D+00 0.000000000000D+00 0.890398044279D-03 0.000000000000D+00  6 -2 2 25 1 -1 21 2 0.84417214D-01 0.46431962D+00 0.21829639D+06 0.21829639D+06 0.21829639D+06 0.10949175D+01  1  2  5  4  6  5       -1 -.671208263886D+00 0.100000000000D+01
0.333047299975D+01 0.000000000000D+00 -.000000000000D+00 0.890398044279D-03 0.000000000000D+00  6 -2 2 25 1 -1 21 2 0.84417214D-01 0.46431962D+00 0.21829639D+06 0.21829639D+06 0.21829639D+06 0.10949175D+01  1  2  6  4  6  5       -1 0.113097937607D+01 0.100000000000D+01
0.239240087195D+01 0.000000000000D+00 0.000000000000D+00 0.890398044279D-03 0.416083910632D-03  6 -2 2 25 1 -1 21 2 0.84417214D-01 0.46431962D+00 0.21829713D+06 0.21829713D+06 0.21829713D+06 0.10949174D+01  1  2 11  4  6  5       -1 0.812423548954D+00 0.100000000000D+01
  </mgrwgt>
  </event>
  <event>
  6     66 -.17652913E-05 0.98775214E+02 0.75467711E-02 0.94287185E-01
       -2 -1    0    0    0  501 0.00000000E+00 0.00000000E+00 0.13124603E+04 0.13124603E+04 0.32000000E+00 0.0000E+00 0.9000E+01
        2 -1    0    0  502    0 0.00000000E+00 0.00000000E+00 -.62111119E+03 0.62111127E+03 0.32000000E+00 0.0000E+00 0.9000E+01
       25  1    1    2    0    0 -.25659007E+03 0.39219808E+03 -.84680141E+02 0.49239570E+03 0.12500000E+03 0.0000E+00 0.9000E+01
        1  1    1    2  503    0 0.79134283E+02 0.72357606E+01 -.23774760E+03 0.25067632E+03 0.32000000E+00 0.0000E+00 0.9000E+01
       -1  1    1    2    0  501 0.14509012E+03 -.40747790E+03 0.10533754E+04 0.11387226E+04 0.32000000E+00 0.0000E+00 0.9000E+01
       21  1    1    2  502  503 0.32365671E+02 0.80440597E+01 -.39598564E+02 0.51776948E+02 0.75000000E+00 0.0000E+00 0.9000E+01
#aMCatNLO 2  0  0  4  2 0.16049882D+02 0.00000000D+00  -5  6  0 0.00000000D+00 0.00000000D+00 0.00000000D+00 0.00000000D+00 0.00000000D+00
  <mgrwgt>
 -.2600646524D-02    6    2    0
 0.902875336783164D+03 0.000000000000000D+00 0.000000000000000D+00 0.902875336783164D+03
 0.902875336783164D+03 -.000000000000000D+00 -.000000000000000D+00 -.902875336783164D+03
 0.559478906543771D+03 -.256746262021443D+03 0.392192592759342D+03 -.278671803363985D+03
 0.429413273859901D+03 0.111909082564940D+03 0.153401507466690D+02 -.414290715297388D+03
 0.816858493162656D+03 0.144837179456503D+03 -.407532743506011D+03 0.692962518661373D+03
 0.000000000000000D+00 0.000000000000000D+00 0.000000000000000D+00 0.000000000000000D+00
 0.902875336783164D+03 0.000000000000000D+00 0.000000000000000D+00 0.902875336783164D+03
 0.902875336783164D+03 -.000000000000000D+00 -.000000000000000D+00 -.902875336783164D+03
 0.559743298844754D+03 -.256567995983935D+03 0.392217028916138D+03 -.279331749478273D+03
 0.359287886157486D+03 0.790719784138597D+02 0.722491233487076D+01 -.350404349303753D+03
 0.816070239373064D+03 0.145097266982715D+03 -.407497091512733D+03 0.691999666989240D+03
 0.706492491910240D+02 0.323987505873602D+02 0.805515026172426D+01 -.622635682072148D+02
-.498166106632D-08 0.000000000000D+00 0.000000000000D+00 0.862669457456D-05 0.000000000000D+00  6 -2 2 25 1 -1 21 2 0.20191697D+00 0.95555577D-01 0.26543540D+06 0.26543540D+06 0.26543540D+06 0.10885071D+01  1  2 13  3  6  4        1 -.426425406088D-08 0.100000000000D+01
-.435647199717D-02 0.000000000000D+00 0.000000000000D+00 0.862669457456D-05 0.000000000000D+00  6 -2 2 25 1 -1 21 2 0.20191697D+00 0.95555577D-01 0.26543540D+06 0.26543540D+06 0.26543540D+06 0.10885071D+01  1  2 13  3  6  4        1 -.372909821799D-02 0.100000000000D+01
-.118902009553D-03 0.000000000000D+00 0.000000000000D+00 0.862669457456D-05 0.000000000000D+00  6 -2 2 25 1 -1 21 2 0.20191697D+00 0.95555577D-01 0.26553335D+06 0.26553335D+06 0.26553335D+06 0.10884951D+01  1  2  8  3  6  4        1 -.101774736745D-03 0.100000000000D+01
-.309502504664D-03 0.000000000000D+00 0.000000000000D+00 0.862669457456D-05 0.000000000000D+00  6 -2 2 25 1 -1 21 2 0.20191697D+00 0.95555577D-01 0.26553335D+06 0.26553335D+06 0.26553335D+06 0.10884951D+01  1  2  9  3  6  4        1 -.264920130893D-03 0.100000000000D+01
0.364545534226D-03 0.000000000000D+00 0.000000000000D+00 0.862669457456D-05 0.000000000000D+00  6 -2 2 25 1 -1 21 2 0.20191697D+00 0.95555577D-01 0.26553335D+06 0.26553335D+06 0.26553335D+06 0.10884951D+01  1  2 10  3  6  4        1 0.312034472059D-03 0.100000000000D+01
0.138216077050D-02 0.000000000000D+00 0.000000000000D+00 0.862669457456D-05 0.367612322346D-07  6 -2 2 25 1 -1 21 2 0.20191697D+00 0.95555577D-01 0.26543540D+06 0.26543540D+06 0.26543540D+06 0.10885071D+01  1  2  1  3  6  4        1 0.118311635415D-02 0.100000000000D+01
  </mgrwgt>
  </event>
  <event>
  6     66 0.17652913E-05 0.12134968E+03 0.75467711E-02 0.94897461E-01
       -2 -1    0    0    0  501 0.00000000E+00 0.00000000E+00 0.67540757E+03 0.67540764E+03 0.32000000E+00 0.0000E+00 0.9000E+01
        2 -1    0    0  502    0 -.00000000E+00 -.00000000E+00 -.11927596E+04 0.11927596E+04 0.32000000E+00 0.0000E+00 0.9000E+01
       25  1    1    2    0    0 0.42700742E+03 -.21499561E+03 -.15267947E+03 0.51719868E+03 0.12500000E+03 0.0000E+00 0.9000E+01
        1  1    1    2  503    0 -.44188091E+02 0.32997030E+02 -.22040265E+03 0.22719776E+03 0.32000000E+00 0.0000E+00 0.9000E+01
       -1  1    1    2    0  501 -.32039785E+03 0.12970053E+03 0.42550376E+03 0.54820667E+03 0.32000000E+00 0.0000E+00 0.9000E+01
       21  1    1    2  502  503 -.62421485E+02 0.52298054E+02 -.56977363E+03 0.57556414E+03 0.75000000E+00 0.0000E+00 0.9000E+01
#aMCatNLO 2  0  0  4  2 0.16872664D+02 0.00000000D+00  -5  6  0 0.00000000D+00 0.00000000D+00 0.00000000D+00 0.00000000D+00 0.00000000D+00
  <mgrwgt>
 0.9521837432D-02    3    2    0
 0.897551640419230D+03 0.000000000000000D+00 0.000000000000000D+00 0.897551640419230D+03
 0.897551640419230D+03 -.000000000000000D+00 -.000000000000000D+00 -.897551640419230D+03
 0.494307758686161D+03 0.427062172355713D+03 -.215041454888527D+03 -.949915362443992D+01
 0.607328583614742D+03 -.106749158430402D+03 0.854063507256997D+02 -.591741819466572D+03
 0.693466938537556D+03 -.320313013925311D+03 0.129635104162827D+03 0.601240973091012D+03
 0.000000000000000D+00 0.000000000000000D+00 0.000000000000000D+00 -.000000000000000D+00
 0.897551640419230D+03 0.000000000000000D+00 0.000000000000000D+00 0.897551640419230D+03
 0.897551640419230D+03 -.000000000000000D+00 -.000000000000000D+00 -.897551640419230D+03
 0.494246113985926D+03 0.427006321178734D+03 -.214996770271995D+03 -.980875304022159D+01
 0.172673588602116D+03 -.441127681223625D+02 0.329420654887106D+02 -.163661394991773D+03
 0.693138397032755D+03 -.320391354157582D+03 0.129697781503349D+03 0.600806710261560D+03
 0.435045181217662D+03 -.625021988987887D+02 0.523569232799361D+02 -.427336562229565D+03
-.418371160356D-08 0.000000000000D+00 0.000000000000D+00 0.178893659632D-04 0.000000000000D+00  6 -2 2 25 1 -1 21 2 0.10390887D+00 0.18350148D+00 0.23833222D+06 0.23833222D+06 0.23833222D+06 0.10920241D+01  1  2 13  3  6  4        1 -.934343423129D-08 0.100000000000D+01
-.102378789624D-01 0.000000000000D+00 0.000000000000D+00 0.178893659632D-04 0.000000000000D+00  6 -2 2 25 1 -1 21 2 0.10390887D+00 0.18350148D+00 0.23833222D+06 0.23833222D+06 0.23833222D+06 0.10920241D+01  1  2 13  3  6  4        1 -.228641354417D-01 0.100000000000D+01
0.145014783900D-01 0.000000000000D+00 0.000000000000D+00 0.178893659632D-04 0.869332178680D-07  6 -2 2 25 1 -1 21 2 0.10390887D+00 0.18350148D+00 0.23833222D+06 0.23833222D+06 0.23833222D+06 0.10920241D+01  1  2  1  3  6  4        1 0.323859822168D-01 0.100000000000D+01
  </mgrwgt>
  </event>
  <event>
  5     66 0.17652913E-05 0.57422328E+02 0.75467711E-02 0.92977103E-01
       -2 -1    0    0    0  501 0.00000000E+00 0.00000000E+00 0.83836942E+03 0.83836948E+03 0.32000000E+00 0.0000E+00 0.9000E+01
        2 -1    0    0  502    0 -.00000000E+00 -.00000000E+00 -.23563848E+04 0.23563848E+04 0.32000000E+00 0.0000E+00 0.9000E+01
       25  1    1    2    0    0 0.51024423E+03 -.12960896E+03 -.56181223E+03 0.78000361E+03 0.12500000E+03 0.0000E+00 0.9000E+01
        1  1    1    2  502    0 -.54972471E+03 0.87909007E+02 -.16382674E+04 0.17302732E+04 0.32000000E+00 0.0000E+00 0.9000E+01
       -1  1    1    2    0  501 0.39480471E+02 0.41699948E+02 0.68206427E+03 0.68447744E+03 0.32000000E+00 0.0000E+00 0.9000E+01
#aMCatNLO 1  0  0  5  4 0.31324544D+02 0.00000000D+00  -5  6  0 0.00000000D+00 0.00000000D+00 0.00000000D+00 0.00000000D+00 0.00000000D+00
  <mgrwgt>
 0.1831700008D-01    5    2    0
 0.140553229792657D+04 0.000000000000000D+00 0.000000000000000D+00 0.140553229792657D+04
 0.140553229792657D+04 -.000000000000000D+00 -.000000000000000D+00 -.140553229792657D+04
 0.583116535115474D+03 0.510295120793532D+03 -.129617002795852D+03 -.217251503575028D+03
 0.108176686854410D+04 -.549773978235186D+03 0.879187592147616D+02 -.927490389445247D+03
 0.114618119219358D+04 0.394788574416533D+02 0.416982435810895D+02 0.114474189302028D+04
 0.000000000000000D+00 0.000000000000000D+00 0.000000000000000D+00 0.000000000000000D+00
 0.140553229792657D+04 0.000000000000000D+00 0.000000000000000D+00 0.140553229792657D+04
 0.140553229792657D+04 -.000000000000000D+00 -.000000000000000D+00 -.140553229792657D+04
 0.581837062494996D+03 0.510422025494622D+03 -.129482963882861D+03 -.213571733258135D+03
 0.107582952454072D+04 -.549538939581373D+03 0.881670110556905D+02 -.920675131584853D+03
 0.370257224966187D+02 0.292367331271613D+02 0.135099938730696D+02 0.182646551568214D+02
 0.111637228632082D+04 0.988018095958940D+01 0.278059589540996D+02 0.111598220968617D+04
0.191957117997D+00 0.000000000000D+00 0.000000000000D+00 0.213335168611D-03 0.000000000000D+00  6 -2 2 25 1 -1 21 0 0.12897992D+00 0.36252074D+00 0.33368902D+06 0.33368902D+06 0.33368902D+06 0.10811487D+01  1  2  2  4  6  5       -1 0.461914867966D-01 0.100000000000D+01
0.913176477340D-01 0.000000000000D+00 -.737165876578D-03 0.213335168611D-03 0.000000000000D+00  6 -2 2 25 1 -1 21 2 0.12897992D+00 0.36252074D+00 0.33368902D+06 0.33368902D+06 0.33368902D+06 0.10811487D+01  1  2  3  4  6  5       -1 0.256852220542D-01 0.100000000000D+01
-.136594698404D+00 0.000000000000D+00 0.000000000000D+00 0.213335168611D-03 0.000000000000D+00  6 -2 2 25 1 -1 21 2 0.12897992D+00 0.36252074D+00 0.33368902D+06 0.33368902D+06 0.33368902D+06 0.10811487D+01  1  2 15  4  6  5       -1 -.384204504496D-01 0.100000000000D+01
0.265397013506D-09 0.000000000000D+00 0.000000000000D+00 0.213335168611D-03 0.000000000000D+00  6 -2 2 25 1 -1 21 2 0.12897992D+00 0.36252074D+00 0.33611312D+06 0.33611312D+06 0.33611312D+06 0.10809185D+01  1  2 12  4  6  5       -1 0.745739388547D-10 0.100000000000D+01
-.538240028684D-01 0.000000000000D+00 0.000000000000D+00 0.213335168611D-03 0.000000000000D+00  6 -2 2 25 1 -1 21 2 0.12897992D+00 0.36252074D+00 0.33368902D+06 0.33368902D+06 0.33368902D+06 0.10811487D+01  1  2  5  4  6  5       -1 -.151392584000D-01 0.100000000000D+01
  </mgrwgt>
  </event>
  <event>
  6     66 0.17652913E-05 0.34180027E+02 0.75467711E-02 0.92944197E-01
       -2 -1    0    0    0  501 0.00000000E+00 0.00000000E+00 0.48967692E+03 0.48967702E+03 0.32000000E+00 0.0000E+00 0.9000E+01
        2 -1    0    0  502    0 -.00000000E+00 -.00000000E+00 -.23532579E+04 0.23532579E+04 0.32000000E+00 0.0000E+00 0.9000E+01
       25  1    1    2    0    0 -.17379870E+03 0.54701424E+03 -.15450392E+04 0.16529373E+04 0.12500000E+03 0.0000E+00 0.9000E+01
        1  1    1    2  503    0 0.10155098E+03 -.33487417E+03 -.36905670E+03 0.50858260E+03 0.32000000E+00 0.0000E+00 0.9000E+01
       -1  1    1    2    0  501 -.47253855E+00 -.21652351E+02 0.33262746E+03 0.33333193E+03 0.32000000E+00 0.0000E+00 0.9000E+01
       21  1    1    2  502  503 0.72720257E+02 -.19048773E+03 -.28211253E+03 0.34808311E+03 0.75000000E+00 0.0000E+00 0.9000E+01
#aMCatNLO 2  0  0  4  2 0.20113414D+02 0.00000000D+00  -5  6  0 0.00000000D+00 0.00000000D+00 0.00000000D+00 0.00000000D+00 0.00000000D+00
  <mgrwgt>
 0.7539292162D-02    1    2    0
 0.107346925396729D+04 0.000000000000000D+00 0.000000000000000D+00 0.107346925396729D+04
 0.107346925396729D+04 -.000000000000000D+00 -.000000000000000D+00 -.107346925396729D+04
 0.848302969574165D+03 -.174186930015739D+03 0.548185281886170D+03 -.610855742645856D+03
 0.568385365847701D+03 0.174980421431180D+03 -.527502340385535D+03 -.119101037415194D+03
 0.730250172512708D+03 -.793491415440357D+00 -.206829415006350D+02 0.729956780061050D+03
 0.000000000000000D+00 0.000000000000000D+00 0.000000000000000D+00 -.000000000000000D+00
 0.107346925396729D+04 0.000000000000000D+00 0.000000000000000D+00 0.107346925396729D+04
 0.107346925396729D+04 -.000000000000000D+00 -.000000000000000D+00 -.107346925396729D+04
 0.847683272891969D+03 -.173813976157901D+03 0.547060961626472D+03 -.611109594996954D+03
 0.352827848304148D+03 0.101460900276282D+03 -.334621253154092D+03 -.471359013030029D+02
 0.730059473929741D+03 -.472363741970844D+00 -.216510246606378D+02 0.729738203384070D+03
 0.216367912808717D+03 0.728254396235900D+02 -.190788683811741D+03 -.714927070841125D+02
0.731722013898D-02 0.000000000000D+00 0.000000000000D+00 0.122258834695D-04 0.457084808522D-07  6 -2 2 25 1 -1 21 2 0.75334920D-01 0.36203968D+00 0.33814160D+06 0.33814160D+06 0.33814160D+06 0.10807272D+01  1  2  1  3  6  4        1 0.753929216188D-02 0.100000000000D+01
  </mgrwgt>
  </event>
  <event>
  5     66 0.17652913E-05 0.74924883E+02 0.75467711E-02 0.87339959E-01
       -2 -1    0    0    0  501 0.00000000E+00 0.00000000E+00 0.82513461E+03 0.82513467E+03 0.32000000E+00 0.0000E+00 0.9000E+01
        2 -1    0    0  502    0 -.00000000E+00 -.00000000E+00 -.25424463E+04 0.25424463E+04 0.32000000E+00 0.0000E+00 0.9000E+01
       25  1    1    2    0    0 0.53301869E+03 -.30155309E+03 -.57589459E+03 0.84989574E+03 0.12500000E+03 0.0000E+00 0.9000E+01
        1  1    1    2  502    0 -.41073220E+02 0.62656277E+02 -.17199498E+04 0.17215808E+04 0.32000000E+00 0.0000E+00 0.9000E+01
       -1  1    1    2    0  501 -.49194547E+03 0.23889681E+03 0.57853277E+03 0.79610445E+03 0.32000000E+00 0.0000E+00 0.9000E+01
#aMCatNLO 1  0  0  4  2 0.21860303D+03 0.00000000D+00  -5  6  0 0.00000000D+00 0.00000000D+00 0.00000000D+00 0.00000000D+00 0.00000000D+00
  <mgrwgt>
 0.2241362797D-02    4    2    0
 0.144839929935522D+04 0.000000000000000D+00 0.000000000000000D+00 0.144839929935522D+04
 0.144839929935522D+04 -.000000000000000D+00 -.000000000000000D+00 -.144839929935522D+04
 0.646585682423228D+03 0.533011703752183D+03 -.301553014661592D+03 -.165566747043034D+03
 0.981782083382953D+03 -.410767421225247D+02 0.626613062755692D+02 -.978918955380992D+03
 0.126843083290426D+04 -.491934961629659D+03 0.238891708386023D+03 0.114448570242403D+04
 0.000000000000000D+00 0.000000000000000D+00 0.000000000000000D+00 0.000000000000000D+00
 0.144839929935522D+04 0.000000000000000D+00 0.000000000000000D+00 0.144839929935522D+04
 0.144839929935522D+04 -.000000000000000D+00 -.000000000000000D+00 -.144839929935522D+04
 0.672161315603406D+03 0.528919935849895D+03 -.295311148620486D+03 -.263079571906855D+03
 0.616616864979367D+03 0.399735597405515D+03 0.360624186200571D+02 -.468110363383583D+03
 0.111761280529153D+04 -.499338304944821D+03 0.250185280830274D+03 0.968053182951386D+03
 0.490407612836136D+03 -.429317228310589D+03 0.906344917015515D+01 -.236863247660947D+03
0.201982375735D-01 0.000000000000D+00 0.000000000000D+00 0.171293864316D-03 0.000000000000D+00  6 -2 2 25 1 -1 21 0 0.12694379D+00 0.39114558D+00 0.38864357D+06 0.38864357D+06 0.38864357D+06 0.10763305D+01  1  2  2  3  6  4        1 0.390853217520D-02 0.100000000000D+01
0.737474433302D-02 0.000000000000D+00 -.775665506002D-04 0.171293864316D-03 0.000000000000D+00  6 -2 2 25 1 -1 21 2 0.12694379D+00 0.39114558D+00 0.38864357D+06 0.38864357D+06 0.38864357D+06 0.10763305D+01  1  2  3  3  6  4        1 0.165324982951D-02 0.100000000000D+01
-.142724305869D-01 0.000000000000D+00 0.000000000000D+00 0.171293864316D-03 0.000000000000D+00  6 -2 2 25 1 -1 21 2 0.12694379D+00 0.39114558D+00 0.38864357D+06 0.38864357D+06 0.38864357D+06 0.10763305D+01  1  2 15  3  6  4        1 -.319955409556D-02 0.100000000000D+01
-.539149790085D-03 0.000000000000D+00 0.000000000000D+00 0.171293864316D-03 0.000000000000D+00  6 -2 2 25 1 -1 21 2 0.12694379D+00 0.39114558D+00 0.38864357D+06 0.38864357D+06 0.38864357D+06 0.10763305D+01  1  2  4  3  6  4        1 -.120865111832D-03 0.100000000000D+01
  </mgrwgt>
  </event>
  <event>
  5     66 -.17652913E-05 0.24390343E+02 0.75467711E-02 0.91732877E-01
       -2 -1    0    0    0  501 0.00000000E+00 0.00000000E+00 0.96258052E+03 0.96258057E+03 0.32000000E+00 0.0000E+00 0.9000E+01
        2 -1    0    0  502    0 -.00000000E+00 -.00000000E+00 -.40346584E+04 0.40346585E+04 0.32000000E+00 0.0000E+00 0.9000E+01
       25  1    1    2    0    0 0.53954325E+03 -.31457575E+02 -.17307237E+04 0.18174504E+04 0.12500000E+03 0.0000E+00 0.9000E+01
        1  1    1    2  502    0 -.54118667E+03 0.71224534E+01 -.22280053E+04 0.22928021E+04 0.32000000E+00 0.0000E+00 0.9000E+01
       -1  1    1    2    0  501 0.16434231E+01 0.24335122E+02 0.88665105E+03 0.88698652E+03 0.32000000E+00 0.0000E+00 0.9000E+01
#aMCatNLO 1  0  0  5  1 0.96371386D+02 0.00000000D+00  -5  6  0 0.00000000D+00 0.00000000D+00 0.00000000D+00 0.00000000D+00 0.00000000D+00
  <mgrwgt>
 -.4578676632D-01    4    2    0
 0.197070641443981D+04 0.000000000000000D+00 0.000000000000000D+00 0.197070641443981D+04
 0.197070641443981D+04 -.000000000000000D+00 -.000000000000000D+00 -.197070641443981D+04
 0.955328920269266D+03 0.539571037137075D+03 -.314583450555344D+02 -.777754340593499D+03
 0.117041933502732D+04 -.541214446209750D+03 0.712343069186488D+01 -.103774640435650D+04
 0.181566457358304D+04 0.164340907267520D+01 0.243349143636668D+02 0.181550074495000D+04
 0.000000000000000D+00 0.000000000000000D+00 0.000000000000000D+00 0.000000000000000D+00
 0.197070641443981D+04 0.000000000000000D+00 0.000000000000000D+00 0.197070641443981D+04
 0.197070641443981D+04 -.000000000000000D+00 -.000000000000000D+00 -.197070641443981D+04
 0.952711088079931D+03 0.539573950154040D+03 -.314152103183849D+02 -.774536283350407D+03
 0.116692417506842D+04 -.541210877772366D+03 0.717627062053238D+01 -.103380429351012D+04
 0.599478986826743D+03 -.959193299510998D+02 0.441730466441339D+02 0.590104465106582D+03
 0.122229857890454D+04 0.975562575694254D+02 -.199341069462840D+02 0.121823611175394D+04
0.554888508010D+00 0.000000000000D+00 0.000000000000D+00 0.110298092260D-02 0.000000000000D+00  6 -2 2 25 1 -1 21 0 0.14808932D+00 0.62071669D+00 0.31382698D+06 0.31382698D+06 0.31382698D+06 0.10831070D+01  1  2  2  4  6  5       -1 0.686694983660D-02 0.100000000000D+01
0.482275630437D+00 0.000000000000D+00 -.213091797626D-02 0.110298092260D-02 0.000000000000D+00  6 -2 2 25 1 -1 21 2 0.14808932D+00 0.62071669D+00 0.31382698D+06 0.31382698D+06 0.31382698D+06 0.10831070D+01  1  2  3  4  6  5       -1 0.700158247285D-02 0.100000000000D+01
-.392762021781D+00 0.000000000000D+00 0.000000000000D+00 0.110298092260D-02 0.000000000000D+00  6 -2 2 25 1 -1 21 2 0.14808932D+00 0.62071669D+00 0.31382698D+06 0.31382698D+06 0.31382698D+06 0.10831070D+01  1  2 15  4  6  5       -1 -.570204155912D-02 0.100000000000D+01
-.371635143467D+01 0.000000000000D+00 0.000000000000D+00 0.110298092260D-02 0.000000000000D+00  6 -2 2 25 1 -1 21 2 0.14808932D+00 0.62071669D+00 0.31382698D+06 0.31382698D+06 0.31382698D+06 0.10831070D+01  1  2  5  4  6  5       -1 -.539532570708D-01 0.100000000000D+01
  </mgrwgt>
  </event>
  <event>
  6     66 0.17652913E-05 0.16466261E+02 0.75467711E-02 0.95382988E-01
       -2 -1    0    0    0  501 0.00000000E+00 0.00000000E+00 0.36089145E+03 0.36089159E+03 0.32000000E+00 0.0000E+00 0.9000E+01
        2 -1    0    0  503    0 0.00000000E+00 0.00000000E+00 -.10662473E+04 0.10662473E+04 0.32000000E+00 0.0000E+00 0.9000E+01
       25  1    1    2    0    0 0.26220160E+03 -.37111176E+03 -.18212382E+03 0.50524024E+03 0.12500000E+03 0.0000E+00 0.9000E+01
        1  1    1    2  502    0 -.24625474E+03 0.33738495E+03 -.39416863E+03 0.57431613E+03 0.32000000E+00 0.0000E+00 0.9000E+01
       -1  1    1    2    0  501 -.22225962E+02 0.14573634E+02 0.10720697E+03 0.11045280E+03 0.32000000E+00 0.0000E+00 0.9000E+01
       21  1    1    2  503  502 0.62791013E+01 0.19153175E+02 -.23627034E+03 0.23712973E+03 0.75000000E+00 0.0000E+00 0.9000E+01
#aMCatNLO 2  0  0  2  4 0.39817281D+02 0.00000000D+00  -5  6  0 0.00000000D+00 0.00000000D+00 0.00000000D+00 0.00000000D+00 0.00000000D+00
  <mgrwgt>
 0.5151089159D-01    1    2    0
 0.546734482393741D+03 0.000000000000000D+00 0.000000000000000D+00 0.546734482393741D+03
 0.546734482393741D+03 0.000000000000000D+00 0.000000000000000D+00 -.546734482393741D+03
 0.466828168429804D+03 0.264950546351891D+03 -.362981137862774D+03 0.186933245626749D+02
 0.460528373145796D+03 -.243705988324707D+03 0.345517881463925D+03 -.182513471600518D+03
 0.166112423211881D+03 -.212445580271849D+02 0.174632563988496D+02 0.163820147037843D+03
 0.000000000000000D+00 0.000000000000000D+00 0.000000000000000D+00 -.000000000000000D+00
 0.547478316761618D+03 0.000000000000000D+00 0.000000000000000D+00 0.547478316761618D+03
 0.702855953305115D+03 0.000000000000000D+00 0.000000000000000D+00 -.702855953305115D+03
 0.471743997179106D+03 0.262255961788799D+03 -.371200443153758D+03 0.186933245626749D+02
 0.455953973452264D+03 -.246337154338337D+03 0.337492022103819D+03 -.182513471600518D+03
 0.165956750106993D+03 -.221979087668411D+02 0.145552456850844D+02 0.163820147037843D+03
 0.156679549328371D+03 0.627910131637930D+01 0.191531753648547D+02 -.155377636543497D+03
0.479257107135D-02 0.000000000000D+00 0.000000000000D+00 0.408677581863D-05 0.773772315039D-07  6 -2 2 25 1 -1 21 2 0.55521685D-01 0.16403779D+00 0.21897961D+06 0.21897961D+06 0.21897961D+06 0.10948141D+01  1  2  1  2  6  2        2 0.515108915920D-01 0.100000000000D+01
  </mgrwgt>
  </event>
  <event>
  5     66 0.17652913E-05 0.33699296E+02 0.75467711E-02 0.93073910E-01
       -2 -1    0    0    0  501 0.00000000E+00 0.00000000E+00 0.55636853E+03 0.55636862E+03 0.32000000E+00 0.0000E+00 0.9000E+01
        2 -1    0    0  502    0 0.00000000E+00 0.00000000E+00 -.16538564E+04 0.16538564E+04 0.32000000E+00 0.0000E+00 0.9000E+01
       25  1    1    2    0    0 -.14273273E+03 0.42722487E+03 0.24170345E+03 0.52625021E+03 0.12500000E+03 0.0000E+00 0.9000E+01
        1  1    1    2  502    0 0.17060976E+03 -.40823269E+03 -.14771301E+04 0.15419711E+04 0.32000000E+00 0.0000E+00 0.9000E+01
       -1  1    1    2    0  501 -.27877022E+02 -.18992176E+02 0.13793879E+03 0.14200367E+03 0.32000000E+00 0.0000E+00 0.9000E+01
#aMCatNLO 1  0  0  2  1 0.21732778D+03 0.00000000D+00  -5  6  0 0.00000000D+00 0.00000000D+00 0.00000000D+00 0.00000000D+00 0.00000000D+00
  <mgrwgt>
 0.1608536863D-01    7    2    0
 0.959246452856401D+03 0.000000000000000D+00 0.000000000000000D+00 0.959246452856401D+03
 0.959246452856401D+03 0.000000000000000D+00 0.000000000000000D+00 -.959246452856401D+03
 0.744751151493031D+03 -.142785228513643D+03 0.427275531042846D+03 0.579721723536868D+03
 0.931469215480560D+03 0.170635427722752D+03 -.408301628797594D+03 -.819639085277828D+03
 0.242272538739210D+03 -.278501992091090D+02 -.189739022452522D+02 0.239917361740960D+03
 0.000000000000000D+00 0.000000000000000D+00 -.000000000000000D+00 -.000000000000000D+00
 0.988981797516890D+03 0.000000000000000D+00 0.000000000000000D+00 0.988981797516890D+03
 0.146570924330085D+04 0.000000000000000D+00 0.000000000000000D+00 -.146570924330085D+04
 0.800041540804507D+03 -.181774175837425D+03 0.505294309557229D+03 0.579721723536868D+03
 0.887411905423313D+03 0.124728775933980D+03 -.316440187438277D+03 -.819639085277828D+03
 0.243309717029542D+03 -.401057860499384D+02 0.555012266257658D+01 0.239917361740960D+03
 0.523927877560383D+03 0.971511859533833D+02 -.194404244781529D+03 -.476727445783964D+03
0.261940013289D-02 0.000000000000D+00 0.000000000000D+00 0.661947402836D-04 0.000000000000D+00  6 -2 2 25 1 -1 21 0 0.85595167D-01 0.25443945D+00 0.22266345D+06 0.22266345D+06 0.22266345D+06 0.10942628D+01  1  2  2  2  6  2        2 0.431906459830D-02 0.100000000000D+01
0.716085652181D-03 0.000000000000D+00 -.100591862142D-04 0.661947402836D-04 0.000000000000D+00  6 -2 2 25 1 -1 21 2 0.85595167D-01 0.25443945D+00 0.22266345D+06 0.22266345D+06 0.22266345D+06 0.10942628D+01  1  2  3  2  6  2        2 0.141382637473D-02 0.100000000000D+01
-.179355362093D-02 0.000000000000D+00 0.000000000000D+00 0.661947402836D-04 0.000000000000D+00  6 -2 2 25 1 -1 21 2 0.85595167D-01 0.25443945D+00 0.22266345D+06 0.22266345D+06 0.22266345D+06 0.10942628D+01  1  2 15  2  6  2        2 -.354115936556D-02 0.100000000000D+01
-.790689014551D-03 0.000000000000D+00 0.000000000000D+00 0.661947402836D-04 0.000000000000D+00  6 -2 2 25 1 -1 21 2 0.85595167D-01 0.25443945D+00 0.22266345D+06 0.22266345D+06 0.22266345D+06 0.10942628D+01  1  2  4  2  6  2        2 -.156112188476D-02 0.100000000000D+01
-.118886554093D-01 0.000000000000D+00 -.167053854567D-02 0.661947402836D-04 0.000000000000D+00  6 -2 2 25 1 -1 21 2 0.85595167D-01 0.39193985D+00 0.22266345D+06 0.22266345D+06 0.22266345D+06 0.10942628D+01  1  2  5  2  6  2        2 -.750986259651D-02 0.100000000000D+01
0.116506527600D-01 0.000000000000D+00 0.152589509983D-02 0.661947402836D-04 0.000000000000D+00  6 -2 2 25 1 -1 21 2 0.85595167D-01 0.25443945D+00 0.22266345D+06 0.22266345D+06 0.22266345D+06 0.10942628D+01  1  2  6  2  6  2        2 0.230028350725D-01 0.100000000000D+01
-.536002866063D-03 0.000000000000D+00 -.841881055893D-04 0.661947402836D-04 0.000000000000D+00  6 -2 21 25 1 -1 -2 2 0.85595167D-01 0.39193985D+00 0.22266345D+06 0.22266345D+06 0.22266345D+06 0.10942628D+01  1  2  5  6  6  2        2 -.382135707751D-04 0.100000000000D+01
  </mgrwgt>
  </event>
  <event>
  6     66 0.17652913E-05 0.14612032E+02 0.75467711E-02 0.94382465E-01
       -2 -1    0    0    0  501 0.00000000E+00 0.00000000E+00 0.21236523E+03 0.21236547E+03 0.32000000E+00 0.0000E+00 0.9000E+01
        2 -1    0    0  502    0 -.00000000E+00 -.00000000E+00 -.26448673E+04 0.26448673E+04 0.32000000E+00 0.0000E+00 0.9000E+01
       25  1    1    2    0    0 -.37917450E+03 -.32202766E+03 -.17250240E+04 0.17996689E+04 0.12500000E+03 0.0000E+00 0.9000E+01
        1  1    1    2  503    0 -.11515525E+00 0.21736104E+02 -.53783228E+03 0.53827143E+03 0.32000000E+00 0.0000E+00 0.9000E+01
       -1  1    1    2    0  501 0.37658768E+03 0.28679926E+03 -.17476197E+03 0.50459285E+03 0.32000000E+00 0.0000E+00 0.9000E+01
       21  1    1    2  502  503 0.27019810E+01 0.13492291E+02 0.51161780E+01 0.14699673E+02 0.75000000E+00 0.0000E+00 0.9000E+01
#aMCatNLO 2  0  0  4  1 0.22898723D+02 0.00000000D+00  -5  6  0 0.00000000D+00 0.00000000D+00 0.00000000D+00 0.00000000D+00 0.00000000D+00
  <mgrwgt>
 0.2789504217D-01    2    2    0
 0.749451953165534D+03 0.000000000000000D+00 0.000000000000000D+00 0.749451953165534D+03
 0.749451953165534D+03 -.000000000000000D+00 -.000000000000000D+00 -.749451953165534D+03
 0.620469197886220D+03 -.379796134192313D+03 -.330103757952544D+03 -.340798226174597D+03
 0.182432815608362D+03 0.382675079235612D+01 0.521636894685047D+02 -.174774247788973D+03
 0.696001892836486D+03 0.375969383399957D+03 0.277940068484040D+03 0.515572473963570D+03
 0.000000000000000D+00 0.000000000000000D+00 0.000000000000000D+00 0.000000000000000D+00
 0.749451953165534D+03 0.000000000000000D+00 0.000000000000000D+00 0.749451953165534D+03
 0.749451953165534D+03 -.000000000000000D+00 -.000000000000000D+00 -.749451953165534D+03
 0.631292927704460D+03 -.379199944632462D+03 -.321976903408850D+03 -.368027222133981D+03
 0.152903668263298D+03 -.140499466138917D+00 0.215356529976902D+02 -.151379416296390D+03
 0.678247464851516D+03 0.376623911207546D+03 0.286862150729838D+03 0.485679070542360D+03
 0.364598455117940D+02 0.271653289105481D+01 0.135790996813226D+02 0.337275678880112D+02
-.857016107505D-03 0.000000000000D+00 0.000000000000D+00 0.493610782273D-05 0.000000000000D+00  6 -2 2 25 1 -1 21 2 0.32671594D-01 0.40690269D+00 0.26954322D+06 0.26954322D+06 0.26954322D+06 0.10880085D+01  1  2  8  3  6  4        1 -.324062517924D-02 0.100000000000D+01
0.820263253653D-02 0.000000000000D+00 0.000000000000D+00 0.493610782273D-05 0.984620546391D-06  6 -2 2 25 1 -1 21 2 0.32671594D-01 0.40690269D+00 0.26098486D+06 0.26098486D+06 0.26098486D+06 0.10890569D+01  1  2  1  3  6  4        1 0.311356673458D-01 0.100000000000D+01
  </mgrwgt>
  </event>
  <event>
  5     66 0.17652913E-05 0.15443854E+02 0.75467711E-02 0.94017481E-01
       -2 -1    0    0    0  501 0.00000000E+00 0.00000000E+00 0.20897808E+03 0.20897833E+03 0.32000000E+00 0.0000E+00 0.9000E+01
        2 -1    0    0  502    0 -.00000000E+00 -.00000000E+00 -.19710580E+04 0.19710581E+04 0.32000000E+00 0.0000E+00 0.9000E+01
       25  1    1    2    0    0 0.15612958E+03 0.48128459E+03 -.31019441E+03 0.60651206E+03 0.12500000E+03 0.0000E+00 0.9000E+01
        1  1    1    2  502    0 -.44941309E+01 0.14774038E+02 -.40385554E+03 0.40415080E+03 0.32000000E+00 0.0000E+00 0.9000E+01
       -1  1    1    2    0  501 -.15163545E+03 -.49605863E+03 -.10480300E+04 0.11693735E+04 0.32000000E+00 0.0000E+00 0.9000E+01
#aMCatNLO 1  0  0  4  2 0.15271281D+01 0.00000000D+00  -5  6  0 0.00000000D+00 0.00000000D+00 0.00000000D+00 0.00000000D+00 0.00000000D+00
  <mgrwgt>
 0.3860990529D-02    9    2    0
 0.641800764856155D+03 0.000000000000000D+00 0.000000000000000D+00 0.641800764856155D+03
 0.641800764856155D+03 -.000000000000000D+00 -.000000000000000D+00 -.641800764856155D+03
 0.604255847292760D+03 0.156125276058739D+03 0.481267373585940D+03 0.305788721644153D+03
 0.132025114506805D+03 -.449469754460053D+01 0.147753277926219D+02 -.131118718126506D+03
 0.547320567912744D+03 -.151630578514139D+03 -.496042701378562D+03 -.174670003517647D+03
 0.000000000000000D+00 0.000000000000000D+00 0.000000000000000D+00 -.000000000000000D+00
 0.641800764856155D+03 0.000000000000000D+00 0.000000000000000D+00 0.641800764856155D+03
 0.641800764856155D+03 -.000000000000000D+00 -.000000000000000D+00 -.641800764856155D+03
 0.604219197981880D+03 0.156122320734401D+03 0.481277088563511D+03 0.305702509316167D+03
 0.674733097454163D+01 -.135828831981422D+01 0.174625770917309D+01 -.637433228922252D+01
 0.547338261607742D+03 -.151633255501052D+03 -.496033901373946D+03 -.174748096223337D+03
 0.125296739148146D+03 -.313077691353446D+01 0.130105551012614D+02 -.124580080803607D+03
0.357125577973D-04 0.000000000000D+00 0.000000000000D+00 0.394702796782D-06 0.000000000000D+00  6 -2 2 25 1 -1 21 0 0.32150495D-01 0.30323972D+00 0.27842220D+06 0.27842220D+06 0.27842220D+06 0.10869584D+01  1  2  2  3  6  4        1 0.281906051087D-03 0.100000000000D+01
0.177799822310D-04 0.000000000000D+00 -.137145625274D-06 0.394702796782D-06 0.000000000000D+00  6 -2 2 25 1 -1 21 2 0.32150495D-01 0.30323972D+00 0.27842220D+06 0.27842220D+06 0.27842220D+06 0.10869584D+01  1  2  3  3  6  4        1 0.165821420256D-03 0.100000000000D+01
-.211174453534D-04 0.000000000000D+00 0.000000000000D+00 0.394702796782D-06 0.000000000000D+00  6 -2 2 25 1 -1 21 2 0.32150495D-01 0.30323972D+00 0.27842220D+06 0.27842220D+06 0.27842220D+06 0.10869584D+01  1  2 15  3  6  4        1 -.196947597313D-03 0.100000000000D+01
0.157668805354D-10 0.000000000000D+00 0.000000000000D+00 0.394702796782D-06 0.000000000000D+00  6 -2 2 25 1 -1 21 2 0.32150495D-01 0.30323972D+00 0.27850181D+06 0.27850181D+06 0.27850181D+06 0.10869492D+01  1  2 12  3  6  4        1 0.147042253431D-09 0.100000000000D+01
0.355919729152D-07 0.000000000000D+00 0.000000000000D+00 0.394702796782D-06 0.000000000000D+00  6 -2 2 25 1 -1 21 2 0.32150495D-01 0.30323972D+00 0.27850181D+06 0.27850181D+06 0.27850181D+06 0.10869492D+01  1  2 12  3  6  4        1 0.331931474319D-06 0.100000000000D+01
-.279426672272D-03 0.000000000000D+00 0.000000000000D+00 0.394702796782D-06 0.000000000000D+00  6 -2 2 25 1 -1 21 2 0.32150495D-01 0.30323972D+00 0.27842220D+06 0.27842220D+06 0.27842220D+06 0.10869584D+01  1  2  4  3  6  4        1 -.260601653316D-02 0.100000000000D+01
-.167815449683D-03 0.000000000000D+00 0.000000000000D+00 0.394702796782D-06 0.000000000000D+00  6 -2 2 25 1 -1 21 2 0.32150495D-01 0.30323972D+00 0.27842220D+06 0.27842220D+06 0.27842220D+06 0.10869584D+01  1  2  5  3  6  4        1 -.156509696386D-02 0.100000000000D+01
0.616924016995D-03 0.000000000000D+00 -.000000000000D+00 0.394702796782D-06 0.000000000000D+00  6 -2 2 25 1 -1 21 2 0.32150495D-01 0.30323972D+00 0.27842220D+06 0.27842220D+06 0.27842220D+06 0.10869584D+01  1  2  6  3  6  4        1 0.575361748727D-02 0.100000000000D+01
0.217389030362D-03 0.000000000000D+00 0.000000000000D+00 0.394702796782D-06 0.353051005306D-07  6 -2 2 25 1 -1 21 2 0.32150495D-01 0.30323972D+00 0.27850181D+06 0.27850181D+06 0.27850181D+06 0.10869492D+01  1  2 11  3  6  4        1 0.202737458585D-02 0.100000000000D+01
  </mgrwgt>
  </event>
  <event>
  5     66 0.17652913E-05 0.87325922E+02 0.75467711E-02 0.94615475E-01
       -2 -1    0    0    0  501 0.00000000E+00 0.00000000E+00 0.21579231E+03 0.21579254E+03 0.32000000E+00 0.0000E+00 0.9000E+01
        2 -1    0    0  502    0 0.00000000E+00 0.00000000E+00 -.18151420E+04 0.18151421E+04 0.32000000E+00 0.0000E+00 0.9000E+01
       25  1    1    2    0    0 0.47393930E+03 0.62246236E+02 -.59115223E+03 0.77044079E+03 0.12500000E+03 0.0000E+00 0.9000E+01
        1  1    1    2  502    0 -.54427566E+02 -.68267519E+02 -.77614672E+03 0.78104203E+03 0.32000000E+00 0.0000E+00 0.9000E+01
       -1  1    1    2    0  501 -.41951173E+03 0.60212831E+01 -.23205078E+03 0.47945179E+03 0.32000000E+00 0.0000E+00 0.9000E+01
#aMCatNLO 1  0  0  1  2 0.11357633D+04 0.00000000D+00  -5  6  0 0.00000000D+00 0.00000000D+00 0.00000000D+00 0.00000000D+00 0.00000000D+00
  <mgrwgt>
 0.1738705950D-02    7    4    0
 0.625854580899460D+03 0.000000000000000D+00 0.000000000000000D+00 0.625854580899460D+03
 0.625854580899460D+03 0.000000000000000D+00 0.000000000000000D+00 -.625854580899460D+03
 0.494707454740529D+03 0.473911387094572D+03 0.622587835852834D+02 0.253437728925984D+02
 0.275622633846700D+03 -.544401361178485D+02 -.682794856646807D+02 -.261423066513704D+03
 0.481379073211691D+03 -.419471250976724D+03 0.602070207939735D+01 0.236079293621106D+03
 0.000000000000000D+00 0.000000000000000D+00 -.000000000000000D+00 0.000000000000000D+00
 0.789684970681469D+03 0.000000000000000D+00 0.000000000000000D+00 0.789684970681469D+03
 0.667619803009332D+03 0.000000000000000D+00 0.000000000000000D+00 -.667619803009332D+03
 0.440571293387816D+03 0.416773255864634D+03 0.643102707891513D+02 0.253437728925984D+02
 0.284066410097939D+03 -.886327082305627D+02 -.670518357110222D+02 -.261423066513704D+03
 0.536461961577987D+03 -.481653284657498D+03 0.825328553392510D+01 0.236079293621106D+03
 0.196205108627059D+03 0.153512737023427D+03 -.551172061205422D+01 0.122065167672136D+03
 0.625854580899460D+03 0.000000000000000D+00 0.000000000000000D+00 0.625854580899460D+03
 0.625854580899460D+03 0.000000000000000D+00 0.000000000000000D+00 -.625854580899460D+03
 0.494707454740529D+03 0.473911387094572D+03 0.622587835852834D+02 0.253437728925984D+02
 0.275622633846700D+03 -.544401361178485D+02 -.682794856646807D+02 -.261423066513704D+03
 0.000000000000000D+00 0.000000000000000D+00 -.000000000000000D+00 0.000000000000000D+00
 0.481379073211691D+03 -.419471250976724D+03 0.602070207939735D+01 0.236079293621106D+03
 0.789684970681469D+03 0.000000000000000D+00 0.000000000000000D+00 0.789684970681469D+03
 0.667619803009332D+03 0.000000000000000D+00 0.000000000000000D+00 -.667619803009332D+03
 0.440571293387816D+03 0.416773255864634D+03 0.643102707891513D+02 0.253437728925984D+02
 0.284066410097939D+03 -.886327082305627D+02 -.670518357110222D+02 -.261423066513704D+03
 0.196205108627059D+03 0.153512737023427D+03 -.551172061205422D+01 0.122065167672136D+03
 0.536461961577987D+03 -.481653284657498D+03 0.825328553392510D+01 0.236079293621106D+03
0.179098997206D-03 0.000000000000D+00 0.000000000000D+00 0.130673871549D-05 0.000000000000D+00  6 -2 2 25 1 -1 21 0 0.33198837D-01 0.27925264D+00 0.25044932D+06 0.25044932D+06 0.25044932D+06 0.10904004D+01  1  2  2  1  6  1       -2 0.162990581205D-02 0.100000000000D+01
0.286947681104D-04 0.000000000000D+00 -.687787307121D-06 0.130673871549D-05 0.000000000000D+00  6 -2 2 25 1 -1 21 2 0.33198837D-01 0.27925264D+00 0.25044932D+06 0.25044932D+06 0.25044932D+06 0.10904004D+01  1  2  3  1  6  1       -2 0.310487495344D-03 0.100000000000D+01
-.125726109711D-03 0.000000000000D+00 0.000000000000D+00 0.130673871549D-05 0.000000000000D+00  6 -2 2 25 1 -1 21 2 0.33198837D-01 0.27925264D+00 0.25044932D+06 0.25044932D+06 0.25044932D+06 0.10904004D+01  1  2 15  1  6  1       -2 -.136040077945D-02 0.100000000000D+01
-.887043092095D-04 0.000000000000D+00 0.000000000000D+00 0.130673871549D-05 0.000000000000D+00  6 -2 2 25 1 -1 21 2 0.33198837D-01 0.27925264D+00 0.25044932D+06 0.25044932D+06 0.25044932D+06 0.10904004D+01  1  2  4  1  6  1       -2 -.959811861407D-03 0.100000000000D+01
-.722119011653D-03 0.000000000000D+00 -.201888321133D-03 0.130673871549D-05 0.000000000000D+00  6 -2 2 25 1 -1 21 2 0.44526165D-01 0.27925264D+00 0.25044932D+06 0.25044932D+06 0.25044932D+06 0.10904004D+01  1  2  5  1  6  1       -2 -.452109765349D-02 0.100000000000D+01
0.756932576212D-03 0.000000000000D+00 0.193490874123D-03 0.130673871549D-05 0.000000000000D+00  6 -2 2 25 1 -1 21 2 0.33198837D-01 0.27925264D+00 0.25044932D+06 0.25044932D+06 0.25044932D+06 0.10904004D+01  1  2  6  1  6  1       -2 0.819027701594D-02 0.100000000000D+01
-.231029274748D-04 0.000000000000D+00 -.768258208927D-05 0.130673871549D-05 0.000000000000D+00  6 21 2 25 1 2 -1 2 0.44526165D-01 0.27925264D+00 0.25044932D+06 0.25044932D+06 0.25044932D+06 0.10904004D+01  3  4  5  5  5  1       -2 -.155065407944D-02 0.100000000000D+01
  </mgrwgt>
  </event>
  <event>
  5     66 0.17652913E-05 0.31161625E+02 0.75467711E-02 0.94442226E-01
       -2 -1    0    0    0  501 0.00000000E+00 0.00000000E+00 0.23117274E+03 0.23117296E+03 0.32000000E+00 0.0000E+00 0.9000E+01
        2 -1    0    0  502    0 -.00000000E+00 -.00000000E+00 -.13363341E+04 0.13363341E+04 0.32000000E+00 0.0000E+00 0.9000E+01
       25  1    1    2    0    0 -.41235993E+03 0.18316697E+03 -.74656357E+03 0.88123380E+03 0.12500000E+03 0.0000E+00 0.9000E+01
        1  1    1    2  502    0 0.38874866E+03 -.20356069E+03 -.42625732E+03 0.61176620E+03 0.32000000E+00 0.0000E+00 0.9000E+01
       -1  1    1    2    0  501 0.23611266E+02 0.20393723E+02 0.67659526E+02 0.74507111E+02 0.32000000E+00 0.0000E+00 0.9000E+01
#aMCatNLO 1  0  0  5  1 0.83273142D+02 0.00000000D+00  -5  6  0 0.00000000D+00 0.00000000D+00 0.00000000D+00 0.00000000D+00 0.00000000D+00
  <mgrwgt>
 0.2424877987D-01    6    2    0
 0.555809522443160D+03 0.000000000000000D+00 0.000000000000000D+00 0.555809522443160D+03
 0.555809522443160D+03 -.000000000000000D+00 -.000000000000000D+00 -.555809522443160D+03
 0.500484787392382D+03 -.412461215136197D+03 0.183231479670220D+03 -.176527599194661D+03
 0.439012776936619D+03 0.388878454981916D+03 -.203600581306979D+03 0.725043832745841D+01
 0.172121480557319D+03 0.235827601542814D+02 0.203691016367581D+02 0.169277160867202D+03
 0.000000000000000D+00 0.000000000000000D+00 0.000000000000000D+00 0.000000000000000D+00
 0.555809522443160D+03 0.000000000000000D+00 0.000000000000000D+00 0.555809522443160D+03
 0.555809522443160D+03 -.000000000000000D+00 -.000000000000000D+00 -.555809522443160D+03
 0.493733287433001D+03 -.410162569147802D+03 0.185216885681147D+03 -.160027907716279D+03
 0.440488888810506D+03 0.390911875040298D+03 -.201844258486051D+03 0.218463368601813D+02
 0.961432442980850D+02 0.511345417625304D+02 0.438702488433605D+02 0.685870492827831D+02
 0.812536243447283D+02 -.318838476550268D+02 -.272428760384561D+02 0.695945215733148D+02
0.198126623553D-02 0.000000000000D+00 0.000000000000D+00 0.967356184553D-06 0.000000000000D+00  6 -2 2 25 1 -1 21 0 0.35565057D-01 0.20558988D+00 0.22016454D+06 0.22016454D+06 0.22016454D+06 0.10946357D+01  1  2  2  4  6  5       -1 0.292160459574D-01 0.100000000000D+01
0.655524593144D-03 0.000000000000D+00 -.760858402383D-05 0.967356184553D-06 0.000000000000D+00  6 -2 2 25 1 -1 21 2 0.35565057D-01 0.20558988D+00 0.22016454D+06 0.22016454D+06 0.22016454D+06 0.10946357D+01  1  2  3  4  6  5       -1 0.115826195515D-01 0.100000000000D+01
-.125949359403D-02 0.000000000000D+00 0.000000000000D+00 0.967356184553D-06 0.000000000000D+00  6 -2 2 25 1 -1 21 2 0.35565057D-01 0.20558988D+00 0.22016454D+06 0.22016454D+06 0.22016454D+06 0.10946357D+01  1  2 15  4  6  5       -1 -.222542911124D-01 0.100000000000D+01
-.556072678144D-03 0.000000000000D+00 0.000000000000D+00 0.967356184553D-06 0.000000000000D+00  6 -2 2 25 1 -1 21 2 0.35565057D-01 0.20558988D+00 0.22016454D+06 0.22016454D+06 0.22016454D+06 0.10946357D+01  1  2  4  4  6  5       -1 -.982538007157D-02 0.100000000000D+01
-.957625475651D-03 0.000000000000D+00 0.000000000000D+00 0.967356184553D-06 0.000000000000D+00  6 -2 2 25 1 -1 21 2 0.35565057D-01 0.20558988D+00 0.22016454D+06 0.22016454D+06 0.22016454D+06 0.10946357D+01  1  2  5  4  6  5       -1 -.169205117142D-01 0.100000000000D+01
0.183654205444D-02 0.000000000000D+00 -.000000000000D+00 0.967356184553D-06 0.000000000000D+00  6 -2 2 25 1 -1 21 2 0.35565057D-01 0.20558988D+00 0.22016454D+06 0.22016454D+06 0.22016454D+06 0.10946357D+01  1  2  6  4  6  5       -1 0.324502972570D-01 0.100000000000D+01
  </mgrwgt>
  </event>
  <event>
  6     66 -.17652913E-05 0.44579648E+02 0.75467711E-02 0.94464598E-01
       -2 -1    0    0    0  501 0.00000000E+00 0.00000000E+00 0.15796788E+04 0.15796789E+04 0.32000000E+00 0.0000E+00 0.9000E+01
        2 -1    0    0  502    0 0.00000000E+00 0.00000000E+00 -.10826992E+04 0.10826993E+04 0.32000000E+00 0.0000E+00 0.9000E+01
       25  1    1    2    0    0 -.53160414E+02 0.48547524E+03 0.99025695E+03 0.11111913E+04 0.12500000E+03 0.0000E+00 0.9000E+01
        1  1    1    2  502    0 0.38134441E+02 -.44470119E+03 -.95788105E+03 0.10567637E+04 0.32000000E+00 0.0000E+00 0.9000E+01
       -1  1    1    2    0  503 0.27504806E+02 -.42940470E+02 0.47517810E+03 0.47790661E+03 0.32000000E+00 0.0000E+00 0.9000E+01
       21  1    1    2  503  501 -.12478833E+02 0.21664206E+01 -.10574401E+02 0.16516510E+02 0.75000000E+00 0.0000E+00 0.9000E+01
#aMCatNLO 2  0  0  5  2 0.11939632D+02 0.00000000D+00  -5  6  0 0.00000000D+00 0.00000000D+00 0.00000000D+00 0.00000000D+00 0.00000000D+00
  <mgrwgt>
 -.8834351643D-03    2    2    0
 0.130779094623004D+04 0.000000000000000D+00 0.000000000000000D+00 0.130779094623004D+04
 0.130779094623004D+04 -.000000000000000D+00 -.000000000000000D+00 -.130779094623004D+04
 0.934139709581324D+03 -.536255017016899D+02 0.486876812149180D+03 0.785536296026717D+03
 0.127228659168685D+04 0.375083816732058D+02 -.443141857052949D+03 -.119202835000602D+04
 0.409155591191899D+03 0.161171200284840D+02 -.437349550962302D+02 0.406492053979301D+03
 0.000000000000000D+00 -.000000000000000D+00 0.000000000000000D+00 0.000000000000000D+00
 0.130779094623004D+04 0.000000000000000D+00 0.000000000000000D+00 0.130779094623004D+04
 0.130779094623004D+04 -.000000000000000D+00 -.000000000000000D+00 -.130779094623004D+04
 0.943592622204214D+03 -.531481228085115D+02 0.485581410463261D+03 0.797576333357921D+03
 0.125773588151537D+04 0.381515933320397D+02 -.444887257780049D+03 -.117580582216725D+04
 0.395434482245466D+03 0.274812528694364D+02 -.428621221035149D+02 0.392142893571016D+03
 0.188189064950297D+02 -.124847233929646D+02 0.216796942030270D+01 -.139134047616845D+02
-.159821755625D-01 0.000000000000D+00 0.000000000000D+00 0.204375182297D-03 0.000000000000D+00  6 -2 2 25 1 -1 21 2 0.24302752D+00 0.16656912D+00 0.24843039D+06 0.24843039D+06 0.24843039D+06 0.10906649D+01  1  2  8  4  6  5       -1 -.356958326577D-02 0.100000000000D+01
0.120826692218D-01 0.000000000000D+00 0.000000000000D+00 0.204375182297D-03 0.912849050636D-06  6 -2 2 25 1 -1 21 2 0.24302752D+00 0.16656912D+00 0.25721548D+06 0.25721548D+06 0.25721548D+06 0.10895307D+01  1  2  1  4  6  5       -1 0.268614810146D-02 0.100000000000D+01
  </mgrwgt>
  </event>
  <event>
  5     66 0.17652913E-05 0.28183589E+02 0.75467711E-02 0.89649097E-01
       -2 -1    0    0    0  501 0.00000000E+00 0.00000000E+00 0.57036133E+03 0.57036142E+03 0.32000000E+00 0.0000E+00 0.9000E+01
        2 -1    0    0  502    0 -.00000000E+00 -.00000000E+00 -.44829515E+04 0.44829515E+04 0.32000000E+00 0.0000E+00 0.9000E+01
       25  1    1    2    0    0 0.55261742E+03 0.22271433E+03 -.35407837E+03 0.70426144E+03 0.12500000E+03 0.0000E+00 0.9000E+01
        1  1    1    2  502    0 -.57585289E+03 -.23867007E+03 -.39286729E+04 0.39778186E+04 0.32000000E+00 0.0000E+00 0.9000E+01
       -1  1    1    2    0  501 0.23235474E+02 0.15955739E+02 0.37016113E+03 0.37123286E+03 0.32000000E+00 0.0000E+00 0.9000E+01
#aMCatNLO 1  0  0  4  2 0.19376510D+02 0.00000000D+00  -5  6  0 0.00000000D+00 0.00000000D+00 0.00000000D+00 0.00000000D+00 0.00000000D+00
  <mgrwgt>
 0.1017091195D-01    4    2    0
 0.159903170756947D+04 0.000000000000000D+00 0.000000000000000D+00 0.159903170756947D+04
 0.159903170756947D+04 -.000000000000000D+00 -.000000000000000D+00 -.159903170756947D+04
 0.679719300848393D+03 0.552672934104435D+03 0.222737820575531D+03 0.302214855921223D+03
 0.147899217096243D+04 -.575906094568932D+03 -.238691971115620D+03 -.134118460881844D+04
 0.103935194332811D+04 0.232331604644970D+02 0.159541505400883D+02 0.103896975289721D+04
 0.000000000000000D+00 0.000000000000000D+00 0.000000000000000D+00 0.000000000000000D+00
 0.159903170756947D+04 0.000000000000000D+00 0.000000000000000D+00 0.159903170756947D+04
 0.159903170756947D+04 -.000000000000000D+00 -.000000000000000D+00 -.159903170756947D+04
 0.573664254162422D+03 0.495367937758593D+03 0.198986999631710D+03 0.168761538041392D+03
 0.135205631859953D+04 -.281255174584378D+03 -.526579881826749D+03 -.121312218819447D+04
 0.841302522801039D+03 -.627508121817627D+02 -.196830550891546D+02 0.838728113147687D+03
 0.431040319575944D+03 -.151361950992453D+03 0.347275937284193D+03 0.205632537005396D+03
0.647980248665D+00 0.000000000000D+00 0.000000000000D+00 0.636580864825D-03 0.000000000000D+00  6 -2 2 25 1 -1 21 0 0.87747904D-01 0.68968485D+00 0.39717320D+06 0.39717320D+06 0.39717320D+06 0.10756497D+01  1  2  2  3  6  4        1 0.114703097938D-01 0.100000000000D+01
0.471866852165D+00 0.000000000000D+00 -.248841477199D-02 0.636580864825D-03 0.000000000000D+00  6 -2 2 25 1 -1 21 2 0.87747904D-01 0.68968485D+00 0.39717320D+06 0.39717320D+06 0.39717320D+06 0.10756497D+01  1  2  3  3  6  4        1 0.966439329440D-02 0.100000000000D+01
-.534683868863D+00 0.000000000000D+00 0.000000000000D+00 0.636580864825D-03 0.000000000000D+00  6 -2 2 25 1 -1 21 2 0.87747904D-01 0.68968485D+00 0.39717320D+06 0.39717320D+06 0.39717320D+06 0.10756497D+01  1  2 15  3  6  4        1 -.109509603677D-01 0.100000000000D+01
-.626466040196D-03 0.000000000000D+00 0.000000000000D+00 0.636580864825D-03 0.000000000000D+00  6 -2 2 25 1 -1 21 2 0.87747904D-01 0.68968485D+00 0.39717320D+06 0.39717320D+06 0.39717320D+06 0.10756497D+01  1  2  4  3  6  4        1 -.128307681929D-04 0.100000000000D+01
  </mgrwgt>
  </event>
  <event>
  5     66 0.17652913E-05 0.80963320E+02 0.75467711E-02 0.91873980E-01
       -2 -1    0    0    0  501 0.00000000E+00 0.00000000E+00 0.54303818E+03 0.54303828E+03 0.32000000E+00 0.0000E+00 0.9000E+01
        2 -1    0    0  502    0 -.00000000E+00 -.00000000E+00 -.35544374E+04 0.35544374E+04 0.32000000E+00 0.0000E+00 0.9000E+01
       25  1    1    2    0    0 -.35668877E+03 0.42962212E+03 -.79898002E+03 0.98274927E+03 0.12500000E+03 0.0000E+00 0.9000E+01
        1  1    1    2  502    0 -.74984058E+02 0.30521475E+02 -.24419869E+04 0.24433286E+04 0.32000000E+00 0.0000E+00 0.9000E+01
       -1  1    1    2    0  501 0.43167283E+03 -.46014360E+03 0.22956778E+03 0.67139782E+03 0.32000000E+00 0.0000E+00 0.9000E+01
#aMCatNLO 1  0  0  4  2 0.19376510D+02 0.00000000D+00  -5  6  0 0.00000000D+00 0.00000000D+00 0.00000000D+00 0.00000000D+00 0.00000000D+00
  <mgrwgt>
 0.1770752152D-03    1    2    0
 0.138931473217717D+04 0.000000000000000D+00 0.000000000000000D+00 0.138931473217717D+04
 0.138931473217717D+04 -.000000000000000D+00 -.000000000000000D+00 -.138931473217717D+04
 0.583260933629072D+03 -.356676230259818D+03 0.429612370362918D+03 -.113064559861423D+03
 0.956521273935879D+03 -.749892230847091D+02 0.305233616248320D+02 -.953088604647117D+03
 0.123884725678940D+04 0.431665453344527D+03 -.460135731987750D+03 0.106615316450854D+04
 0.000000000000000D+00 0.000000000000000D+00 -.000000000000000D+00 0.000000000000000D+00
 0.138931473217717D+04 0.000000000000000D+00 0.000000000000000D+00 0.138931473217717D+04
 0.138931473217717D+04 -.000000000000000D+00 -.000000000000000D+00 -.138931473217717D+04
 0.613644515470698D+03 -.363809969322001D+03 0.432516063562756D+03 -.203732060190267D+03
 0.249002513420364D+03 -.157349103685170D+03 0.141767235957014D+03 0.130941063338590D+03
 0.108336520486755D+04 0.417824712824155D+03 -.454502043429842D+03 0.890241859827551D+03
 0.832617230595738D+03 0.103334360183016D+03 -.119781256089929D+03 -.817450862975874D+03
0.128963546469D-02 0.000000000000D+00 0.000000000000D+00 0.704515607337D-04 0.000000000000D+00  6 -2 2 25 1 -1 21 2 0.83544344D-01 0.54683653D+00 0.41221570D+06 0.41221570D+06 0.41221570D+06 0.10744871D+01  1  2 14  3  6  4        1 0.177075215210D-03 0.100000000000D+01
  </mgrwgt>
  </event>
  <event>
  5     66 -.17652913E-05 0.20464581E+02 0.75467711E-02 0.91841919E-01
       -2 -1    0    0    0  501 0.00000000E+00 0.00000000E+00 0.11809559E+04 0.11809560E+04 0.32000000E+00 0.0000E+00 0.9000E+01
        2 -1    0    0  502    0 0.00000000E+00 0.00000000E+00 -.10277805E+04 0.10277805E+04 0.32000000E+00 0.0000E+00 0.9000E+01
       25  1    1    2    0    0 -.18520834E+03 -.58797348E+03 0.59071444E+03 0.86289252E+03 0.12500000E+03 0.0000E+00 0.9000E+01
        1  1    1    2  502    0 0.11288158E+02 -.17066516E+02 -.67329577E+03 0.67360670E+03 0.32000000E+00 0.0000E+00 0.9000E+01
       -1  1    1    2    0  501 0.17392018E+03 0.60504000E+03 0.23575679E+03 0.67223730E+03 0.32000000E+00 0.0000E+00 0.9000E+01
#aMCatNLO 1  0  0  1  5 0.76701920D+01 0.00000000D+00  -5  6  0 0.00000000D+00 0.00000000D+00 0.00000000D+00 0.00000000D+00 0.00000000D+00
  <mgrwgt>
 -.2431424193D-02   13    4    0
 0.110170938498362D+04 0.000000000000000D+00 0.000000000000000D+00 0.110170938498362D+04
 0.110170938498362D+04 0.000000000000000D+00 0.000000000000000D+00 -.110170938498362D+04
 0.823917806881691D+03 -.185178791957173D+03 -.587863123344880D+03 0.532298145513602D+03
 0.722148008171903D+03 0.112896964163933D+02 -.170687389859592D+02 -.721857982300468D+03
 0.657352954913653D+03 0.173889095540779D+03 0.604931862330840D+03 0.189559836786866D+03
 0.000000000000000D+00 0.000000000000000D+00 0.000000000000000D+00 0.000000000000000D+00
 0.132940765223956D+04 0.000000000000000D+00 0.000000000000000D+00 0.132940765223956D+04
 0.110178065600585D+04 0.000000000000000D+00 0.000000000000000D+00 -.110178065600585D+04
 0.825945209090098D+03 -.186906450096143D+03 -.590156887288562D+03 0.532298145513602D+03
 0.722176200027276D+03 0.977726874848960D+01 -.190767473840396D+02 -.721857982300468D+03
 0.655310710937327D+03 0.172514536535526D+03 0.603106898344277D+03 0.189559836786866D+03
 0.227756188190706D+03 0.461464481212670D+01 0.612673632832436D+01 0.227626996233710D+03
 0.110170938498362D+04 0.000000000000000D+00 0.000000000000000D+00 0.110170938498362D+04
 0.110170938498362D+04 0.000000000000000D+00 0.000000000000000D+00 -.110170938498362D+04
 0.823917806881691D+03 -.185178791957173D+03 -.587863123344880D+03 0.532298145513602D+03
 0.722148008171903D+03 0.112896964163933D+02 -.170687389859592D+02 -.721857982300468D+03
 0.000000000000000D+00 0.000000000000000D+00 0.000000000000000D+00 0.000000000000000D+00
 0.657352954913653D+03 0.173889095540779D+03 0.604931862330840D+03 0.189559836786866D+03
 0.132940765223956D+04 0.000000000000000D+00 0.000000000000000D+00 0.132940765223956D+04
 0.110178065600585D+04 0.000000000000000D+00 0.000000000000000D+00 -.110178065600585D+04
 0.825945209090098D+03 -.186906450096143D+03 -.590156887288562D+03 0.532298145513602D+03
 0.722176200027276D+03 0.977726874848960D+01 -.190767473840396D+02 -.721857982300468D+03
 0.227756188190706D+03 0.461464481212670D+01 0.612673632832436D+01 0.227626996233710D+03
 0.655310710937327D+03 0.172514536535526D+03 0.603106898344277D+03 0.189559836786866D+03
0.427022766058D-04 0.000000000000D+00 0.000000000000D+00 0.137164007477D-04 0.000000000000D+00  6 -2 2 25 1 -1 21 0 0.18168554D+00 0.15812008D+00 0.40881968D+06 0.40881968D+06 0.40881968D+06 0.10747455D+01  1  2  2  1  6  1       -2 0.216522416373D-04 0.100000000000D+01
0.369987410702D-04 0.000000000000D+00 -.163987985934D-06 0.137164007477D-04 0.000000000000D+00  6 -2 2 25 1 -1 21 2 0.18168554D+00 0.15812008D+00 0.40881968D+06 0.40881968D+06 0.40881968D+06 0.10747455D+01  1  2  3  1  6  1       -2 0.216695569970D-04 0.100000000000D+01
-.285956717729D-04 0.000000000000D+00 0.000000000000D+00 0.137164007477D-04 0.000000000000D+00  6 -2 2 25 1 -1 21 2 0.18168554D+00 0.15812008D+00 0.40881968D+06 0.40881968D+06 0.40881968D+06 0.10747455D+01  1  2 15  1  6  1       -2 -.167480168629D-04 0.100000000000D+01
0.321199420889D-07 0.000000000000D+00 0.000000000000D+00 0.137164007477D-04 0.000000000000D+00  6 -2 2 25 1 -1 21 2 0.21924090D+00 0.15812008D+00 0.41469916D+06 0.41469916D+06 0.41469916D+06 0.10742996D+01  1  2 12  1  6  1       -2 0.103737340491D-07 0.100000000000D+01
0.852345361539D-01 0.000000000000D+00 0.000000000000D+00 0.137164007477D-04 0.000000000000D+00  6 -2 2 25 1 -1 21 2 0.21926475D+00 0.15812008D+00 0.41469916D+06 0.41469916D+06 0.41469916D+06 0.10742996D+01  1  2 12  1  6  1       -2 0.275180478302D-01 0.100000000000D+01
-.888316361462D-01 0.000000000000D+00 0.000000000000D+00 0.137164007477D-04 0.000000000000D+00  6 -2 2 25 1 -1 21 2 0.18168554D+00 0.15812008D+00 0.40881968D+06 0.40881968D+06 0.40881968D+06 0.10747455D+01  1  2  4  1  6  1       -2 -.520272351687D-01 0.100000000000D+01
-.863258028010D-01 0.000000000000D+00 -.590181238449D-04 0.137164007477D-04 0.000000000000D+00  6 -2 2 25 1 -1 21 2 0.21924083D+00 0.15812008D+00 0.40881968D+06 0.40881968D+06 0.40881968D+06 0.10747455D+01  1  2  5  1  6  1       -2 -.279305464633D-01 0.100000000000D+01
0.848359857121D-01 0.000000000000D+00 0.579914456208D-04 0.137164007477D-04 0.000000000000D+00  6 -2 2 25 1 -1 21 2 0.18168554D+00 0.15812008D+00 0.40881968D+06 0.40881968D+06 0.40881968D+06 0.10747455D+01  1  2  6  1  6  1       -2 0.496870481160D-01 0.100000000000D+01
0.980784607878D-03 0.000000000000D+00 0.000000000000D+00 0.137164007477D-04 0.150638562070D-05  6 -2 2 25 1 -1 21 2 0.21923580D+00 0.15813031D+00 0.41469916D+06 0.41469916D+06 0.41469916D+06 0.10742996D+01  1  2 11  1  6  1       -2 0.316757415470D-03 0.100000000000D+01
0.875940041886D-09 0.000000000000D+00 0.000000000000D+00 0.137164007477D-04 0.000000000000D+00  6 21 2 25 1 2 -1 2 0.21924090D+00 0.15812008D+00 0.41469916D+06 0.41469916D+06 0.41469916D+06 0.10742996D+01  3  4 12  5  5  1       -2 0.215400483674D-08 0.100000000000D+01
0.232546727365D-02 0.000000000000D+00 0.000000000000D+00 0.137164007477D-04 0.000000000000D+00  6 21 2 25 1 2 -1 2 0.21926475D+00 0.15812008D+00 0.41469916D+06 0.41469916D+06 0.41469916D+06 0.10742996D+01  3  4 12  5  5  1       -2 0.571624985939D-02 0.100000000000D+01
-.235356961027D-02 0.000000000000D+00 -.160947556562D-05 0.137164007477D-04 0.000000000000D+00  6 21 2 25 1 2 -1 2 0.21924083D+00 0.15812008D+00 0.40881968D+06 0.40881968D+06 0.40881968D+06 0.10747455D+01  3  4  5  5  5  1       -2 -.580104158964D-02 0.100000000000D+01
0.255014843972D-04 0.000000000000D+00 0.000000000000D+00 0.137164007477D-04 0.391644690107D-07  6 21 2 25 1 2 -1 2 0.21923580D+00 0.15813031D+00 0.41469916D+06 0.41469916D+06 0.41469916D+06 0.10742996D+01  3  4 11  5  5  1       -2 0.627094981775D-04 0.100000000000D+01
  </mgrwgt>
  </event>
  <event>
  5     66 0.17652913E-05 0.12039759E+03 0.75467711E-02 0.92434233E-01
       -2 -1    0    0    0  501 0.00000000E+00 0.00000000E+00 0.15180757E+04 0.15180758E+04 0.32000000E+00 0.0000E+00 0.9000E+01
        2 -1    0    0  502    0 0.00000000E+00 0.00000000E+00 -.55794251E+03 0.55794260E+03 0.32000000E+00 0.0000E+00 0.9000E+01
       25  1    1    2    0    0 -.23798797E+02 0.51204698E+03 0.26607606E+03 0.59091451E+03 0.12500000E+03 0.0000E+00 0.9000E+01
        1  1    1    2  502    0 0.14188167E+03 -.53567145E+03 -.19536005E+03 0.58757125E+03 0.32000000E+00 0.0000E+00 0.9000E+01
       -1  1    1    2    0  501 -.11808288E+03 0.23624474E+02 0.88941721E+03 0.89753260E+03 0.32000000E+00 0.0000E+00 0.9000E+01
#aMCatNLO 1  0  0  2  4 0.13711273D+02 0.00000000D+00  -5  6  0 0.00000000D+00 0.00000000D+00 0.00000000D+00 0.00000000D+00 0.00000000D+00
  <mgrwgt>
 0.2801803019D-02   11    2    0
 0.920325541988592D+03 0.000000000000000D+00 0.000000000000000D+00 0.920325541988592D+03
 0.920325541988592D+03 0.000000000000000D+00 0.000000000000000D+00 -.920325541988592D+03
 0.527768543435608D+03 -.238326185632691D+02 0.512134326160045D+03 -.806682720509147D+01
 0.764640358952253D+03 0.141890647685736D+03 -.535753828788859D+03 -.526791949042533D+03
 0.548242181589323D+03 -.118058029122466D+03 0.236195026288141D+02 0.534858776247624D+03
 0.000000000000000D+00 0.000000000000000D+00 0.000000000000000D+00 -.000000000000000D+00
 0.921029096366397D+03 0.000000000000000D+00 0.000000000000000D+00 0.921029096366397D+03
 0.989670157143955D+03 0.000000000000000D+00 0.000000000000000D+00 -.989670157143955D+03
 0.525678644752220D+03 -.270026728238144D+02 0.509822341122614D+03 -.806682720509147D+01
 0.766159256035534D+03 0.137284134994880D+03 -.539113452170877D+03 -.526791949042533D+03
 0.548864251098186D+03 -.121359463651136D+03 0.212116992901332D+02 0.534858776247624D+03
 0.699971016244121D+02 0.110780014800696D+02 0.807941175812937D+01 -.686410607775583D+02
0.193735316900D-03 0.000000000000D+00 0.000000000000D+00 0.311525519141D-05 0.000000000000D+00  6 -2 2 25 1 -1 21 0 0.23355012D+00 0.85837318D-01 0.36139892D+06 0.36139892D+06 0.36139892D+06 0.10786193D+01  1  2  2  2  6  2        2 0.961834748766D-04 0.100000000000D+01
0.349209732898D-04 0.000000000000D+00 -.743994628576D-06 0.311525519141D-05 0.000000000000D+00  6 -2 2 25 1 -1 21 2 0.23355012D+00 0.85837318D-01 0.36139892D+06 0.36139892D+06 0.36139892D+06 0.10786193D+01  1  2  3  2  6  2        2 0.201703938259D-04 0.100000000000D+01
-.132198866346D-03 0.000000000000D+00 0.000000000000D+00 0.311525519141D-05 0.000000000000D+00  6 -2 2 25 1 -1 21 2 0.23355012D+00 0.85837318D-01 0.36139892D+06 0.36139892D+06 0.36139892D+06 0.10786193D+01  1  2 15  2  6  2        2 -.763582153169D-04 0.100000000000D+01
0.558369418330D-07 0.000000000000D+00 0.000000000000D+00 0.311525519141D-05 0.000000000000D+00  6 -2 2 25 1 -1 21 2 0.23355012D+00 0.92336410D-01 0.37139624D+06 0.37139624D+06 0.37139624D+06 0.10777582D+01  1  2 12  2  6  2        2 0.295209587747D-07 0.100000000000D+01
0.275086919400D-01 0.000000000000D+00 0.000000000000D+00 0.311525519141D-05 0.000000000000D+00  6 -2 2 25 1 -1 21 2 0.23355012D+00 0.92564803D-01 0.37139624D+06 0.37139624D+06 0.37139624D+06 0.10777582D+01  1  2 12  2  6  2        2 0.145015303453D-01 0.100000000000D+01
-.228028057970D-01 0.000000000000D+00 0.000000000000D+00 0.311525519141D-05 0.000000000000D+00  6 -2 2 25 1 -1 21 2 0.23355012D+00 0.85837318D-01 0.36139892D+06 0.36139892D+06 0.36139892D+06 0.10786193D+01  1  2  4  2  6  2        2 -.131709265215D-01 0.100000000000D+01
-.312645567678D-01 0.000000000000D+00 -.691521787831D-03 0.311525519141D-05 0.000000000000D+00  6 -2 2 25 1 -1 21 2 0.23355012D+00 0.92336845D-01 0.36139892D+06 0.36139892D+06 0.36139892D+06 0.10786193D+01  1  2  5  2  6  2        2 -.165819743711D-01 0.100000000000D+01
0.312336336939D-01 0.000000000000D+00 0.689683843575D-03 0.311525519141D-05 0.000000000000D+00  6 -2 2 25 1 -1 21 2 0.23355012D+00 0.85837318D-01 0.36139892D+06 0.36139892D+06 0.36139892D+06 0.10786193D+01  1  2  6  2  6  2        2 0.180405822882D-01 0.100000000000D+01
0.804238006387D-09 0.000000000000D+00 0.000000000000D+00 0.311525519141D-05 0.000000000000D+00  6 -2 21 25 1 -1 -2 2 0.23355012D+00 0.92336410D-01 0.37139624D+06 0.37139624D+06 0.37139624D+06 0.10777582D+01  1  2 12  6  6  2        2 0.622642664197D-09 0.100000000000D+01
0.408211025790D-03 0.000000000000D+00 0.000000000000D+00 0.311525519141D-05 0.000000000000D+00  6 -2 21 25 1 -1 -2 2 0.23355012D+00 0.92564803D-01 0.37139624D+06 0.37139624D+06 0.37139624D+06 0.10777582D+01  1  2 12  6  6  2        2 0.314063675333D-03 0.100000000000D+01
-.439232891400D-03 0.000000000000D+00 -.851024368823D-05 0.311525519141D-05 0.000000000000D+00  6 -2 21 25 1 -1 -2 2 0.23355012D+00 0.92336845D-01 0.36139892D+06 0.36139892D+06 0.36139892D+06 0.10786193D+01  1  2  5  6  6  2        2 -.341498194483D-03 0.100000000000D+01
  </mgrwgt>
  </event>
  <event>
  6     66 -.17652913E-05 0.30000000E+01 0.75467711E-02 0.94745066E-01
       -4 -1    0    0    0  501 0.00000000E+00 0.00000000E+00 0.43530729E+03 0.43531005E+03 0.15500000E+01 0.0000E+00 0.9000E+01
        4 -1    0    0  502    0 -.00000000E+00 -.00000000E+00 -.80916856E+03 0.80917004E+03 0.15500000E+01 0.0000E+00 0.9000E+01
       25  1    1    2    0    0 0.33442722E+03 0.35275080E+03 0.86700078E+02 0.50932956E+03 0.12500000E+03 0.0000E+00 0.9000E+01
        3  1    1    2  502    0 -.32895815E+03 -.34441439E+03 -.49904837E+03 0.68984365E+03 0.50000000E+00 0.0000E+00 0.9000E+01
       -3  1    1    2    0  503 -.16053781E+01 -.45888780E+01 0.39480841E+02 0.39782180E+02 0.50000000E+00 0.0000E+00 0.9000E+01
       21  1    1    2  503  501 -.38636957E+01 -.37475337E+01 -.99382086E+00 0.55247021E+01 0.75000000E+00 0.0000E+00 0.9000E+01
#aMCatNLO 2  0  0  5  4 0.51846174D+01 0.00000000D+00  -5  6  0 0.00000000D+00 0.00000000D+00 0.00000000D+00 0.00000000D+00 0.00000000D+00
  <mgrwgt>
 -.3476219433D-03    1    2    0
 0.593497776854255D+03 0.000000000000000D+00 0.000000000000000D+00 0.593497776854255D+03
 0.593497776854255D+03 -.000000000000000D+00 -.000000000000000D+00 -.593497776854255D+03
 0.561483463627637D+03 0.334889822497491D+03 0.353287258702339D+03 0.250350952771250D+03
 0.567207856401086D+03 -.329146841391588D+03 -.344533335013882D+03 -.307707475094882D+03
 0.583042336797879D+02 -.574298110590313D+01 -.875392368845693D+01 0.573565223236314D+02
 0.000000000000000D+00 -.000000000000000D+00 0.000000000000000D+00 0.000000000000000D+00
 0.593497776854255D+03 0.000000000000000D+00 0.000000000000000D+00 0.593497776854255D+03
 0.593497776854255D+03 -.000000000000000D+00 -.000000000000000D+00 -.593497776854255D+03
 0.562039176352630D+03 0.334699091505645D+03 0.352996530852665D+03 0.252255828686716D+03
 0.566457877802290D+03 -.329339294291255D+03 -.344826687536944D+03 -.305785402075231D+03
 0.530745814624842D+02 -.149435491887803D+01 -.442274923658113D+01 0.528688697626932D+02
 0.542391809110647D+01 -.386544229551199D+01 -.374709407913980D+01 0.660703625822161D+00
-.168994656434D-02 0.000000000000D+00 0.000000000000D+00 0.311932684221D-05 0.000000000000D+00  6 -4 4 25 3 -3 21 2 0.66970678D-01 0.12448780D+00 0.24479690D+06 0.24479690D+06 0.24479690D+06 0.10911469D+01  1  2  8  4  6  5       -3 -.347621943304D-03 0.100000000000D+01
  </mgrwgt>
  </event>
  <event>
  5     66 0.17652913E-05 0.13344580E+03 0.75467711E-02 0.94915743E-01
       -2 -1    0    0    0  501 0.00000000E+00 0.00000000E+00 0.23772645E+03 0.23772667E+03 0.32000000E+00 0.0000E+00 0.9000E+01
        2 -1    0    0  502    0 0.00000000E+00 0.00000000E+00 -.21095454E+04 0.21095455E+04 0.32000000E+00 0.0000E+00 0.9000E+01
       25  1    1    2    0    0 -.43692966E+03 0.17251592E+03 -.10975235E+04 0.12003550E+04 0.12500000E+03 0.0000E+00 0.9000E+01
        1  1    1    2  502    0 0.13293937E+03 0.11378033E+02 -.78025660E+03 0.79158246E+03 0.32000000E+00 0.0000E+00 0.9000E+01
       -1  1    1    2    0  501 0.30399029E+03 -.18389395E+03 0.59611373E+01 0.35533466E+03 0.32000000E+00 0.0000E+00 0.9000E+01
#aMCatNLO 1  0  0  1  1 0.17440139D+01 0.00000000D+00  -5  6  0 0.00000000D+00 0.00000000D+00 0.00000000D+00 0.00000000D+00 0.00000000D+00
  <mgrwgt>
 0.7247194543D-03    1    2    0
 0.708163143892724D+03 0.000000000000000D+00 0.000000000000000D+00 0.708163143892724D+03
 0.708163143892724D+03 0.000000000000000D+00 0.000000000000000D+00 -.708163143892724D+03
 0.538833804700865D+03 -.436937954760140D+03 0.172509887278342D+03 -.232470281046093D+03
 0.280743711451375D+03 0.132959972119264D+03 0.113766185961884D+02 -.247000505835219D+03
 0.596748771633209D+03 0.303977982640875D+03 -.183886505874531D+03 0.479470786881312D+03
 0.000000000000000D+00 -.000000000000000D+00 0.000000000000000D+00 -.000000000000000D+00
 0.737232135894030D+03 0.000000000000000D+00 0.000000000000000D+00 0.737232135894030D+03
 0.782156736335474D+03 0.000000000000000D+00 0.000000000000000D+00 -.782156736335474D+03
 0.513914694708302D+03 -.415790374041328D+03 0.146830673641615D+03 -.232470281046093D+03
 0.286096496933104D+03 0.144346641459763D+03 -.245005588224724D+01 -.247000505835219D+03
 0.619146391260361D+03 0.328402848710345D+03 -.213545281608080D+03 0.479470786881312D+03
 0.100231289327738D+03 -.569591161287796D+02 0.691646638487130D+02 -.449246004414441D+02
0.115066257876D-03 0.000000000000D+00 0.000000000000D+00 0.162729379204D-05 0.000000000000D+00  6 -2 2 25 1 -1 21 2 0.36573319D-01 0.32454547D+00 0.23756964D+06 0.23756964D+06 0.23756964D+06 0.10921293D+01  1  2 14  1  6  1       -2 0.724719454309D-03 0.100000000000D+01
  </mgrwgt>
  </event>
  <event>
  5     66 0.17652913E-05 0.26384900E+03 0.75467711E-02 0.89536422E-01
       -2 -1    0    0    0  501 0.00000000E+00 0.00000000E+00 0.11536940E+04 0.11536940E+04 0.32000000E+00 0.0000E+00 0.9000E+01
        2 -1    0    0  502    0 0.00000000E+00 0.00000000E+00 -.96063368E+03 0.96063373E+03 0.32000000E+00 0.0000E+00 0.9000E+01
       25  1    1    2    0    0 0.52055571E+03 -.21711150E+03 -.11378609E+03 0.58880211E+03 0.12500000E+03 0.0000E+00 0.9000E+01
        1  1    1    2  502    0 -.75896773E+03 0.10396930E+03 -.33155709E+03 0.83472860E+03 0.32000000E+00 0.0000E+00 0.9000E+01
       -1  1    1    2    0  501 0.23841202E+03 0.11314219E+03 0.63840346E+03 0.69079702E+03 0.32000000E+00 0.0000E+00 0.9000E+01
#aMCatNLO 1  0  0  5  1 0.14517778D+02 0.00000000D+00  -5  6  0 0.00000000D+00 0.00000000D+00 0.00000000D+00 0.00000000D+00 0.00000000D+00
  <mgrwgt>
 0.4275882807D-03    8    2    0
 0.105274753402565D+04 0.000000000000000D+00 0.000000000000000D+00 0.105274753402565D+04
 0.105274753402565D+04 -.000000000000000D+00 -.000000000000000D+00 -.105274753402565D+04
 0.601803459673145D+03 0.520665949510967D+03 -.217124124983663D+03 -.168245319235004D+03
 0.868648908726591D+03 -.759034912965503D+03 0.104002362623306D+03 -.409390322430951D+03
 0.635042699651561D+03 0.238368963454536D+03 0.113121762360356D+03 0.577635641665955D+03
 0.000000000000000D+00 0.000000000000000D+00 0.000000000000000D+00 0.000000000000000D+00
 0.105274753402565D+04 0.000000000000000D+00 0.000000000000000D+00 0.105274753402565D+04
 0.105274753402565D+04 -.000000000000000D+00 -.000000000000000D+00 -.105274753402565D+04
 0.601804930981037D+03 0.520752525181721D+03 -.217083039129568D+03 -.168035521816733D+03
 0.868404158728794D+03 -.758909966566310D+03 0.104061657913567D+03 -.409087541849010D+03
 0.451129911601546D+03 0.156125838897113D+03 0.781854089490216D+02 0.415968702425755D+03
 0.184156066739920D+03 0.820316024874761D+02 0.348359722669789D+02 0.161154361239988D+03
0.124258022148D-04 0.000000000000D+00 0.000000000000D+00 0.559046404126D-07 0.000000000000D+00  6 -2 2 25 1 -1 21 0 0.17749139D+00 0.14778980D+00 0.64624149D+06 0.64624149D+06 0.64624149D+06 0.10607235D+01  1  2  2  4  6  5       -1 0.724876594735D-05 0.100000000000D+01
0.839176857384D-06 0.000000000000D+00 -.477183522935D-07 0.559046404126D-07 0.000000000000D+00  6 -2 2 25 1 -1 21 2 0.17749139D+00 0.14778980D+00 0.64624149D+06 0.64624149D+06 0.64624149D+06 0.10607235D+01  1  2  3  4  6  5       -1 0.550804523422D-06 0.100000000000D+01
-.941331083171D-05 0.000000000000D+00 0.000000000000D+00 0.559046404126D-07 0.000000000000D+00  6 -2 2 25 1 -1 21 2 0.17749139D+00 0.14778980D+00 0.64624149D+06 0.64624149D+06 0.64624149D+06 0.10607235D+01  1  2 15  4  6  5       -1 -.617854763375D-05 0.100000000000D+01
0.750446150243D-07 0.000000000000D+00 0.000000000000D+00 0.559046404126D-07 0.000000000000D+00  6 -2 2 25 1 -1 21 2 0.17749139D+00 0.14778980D+00 0.64610374D+06 0.64610374D+06 0.64610374D+06 0.10607299D+01  1  2 12  4  6  5       -1 0.492576845837D-07 0.100000000000D+01
0.138160576447D-02 0.000000000000D+00 0.000000000000D+00 0.559046404126D-07 0.000000000000D+00  6 -2 2 25 1 -1 21 2 0.17749139D+00 0.14778980D+00 0.64610374D+06 0.64610374D+06 0.64610374D+06 0.10607299D+01  1  2 12  4  6  5       -1 0.906856553844D-03 0.100000000000D+01
-.119435870309D-02 0.000000000000D+00 0.000000000000D+00 0.559046404126D-07 0.000000000000D+00  6 -2 2 25 1 -1 21 2 0.17749139D+00 0.14778980D+00 0.64624149D+06 0.64624149D+06 0.64624149D+06 0.10607235D+01  1  2  4  4  6  5       -1 -.783932696025D-03 0.100000000000D+01
-.140019745175D-02 0.000000000000D+00 0.000000000000D+00 0.559046404126D-07 0.000000000000D+00  6 -2 2 25 1 -1 21 2 0.17749139D+00 0.14778980D+00 0.64624149D+06 0.64624149D+06 0.64624149D+06 0.10607235D+01  1  2  5  4  6  5       -1 -.919037606100D-03 0.100000000000D+01
0.186182342137D-02 0.000000000000D+00 -.000000000000D+00 0.559046404126D-07 0.000000000000D+00  6 -2 2 25 1 -1 21 2 0.17749139D+00 0.14778980D+00 0.64624149D+06 0.64624149D+06 0.64624149D+06 0.10607235D+01  1  2  6  4  6  5       -1 0.122203174847D-02 0.100000000000D+01
  </mgrwgt>
  </event>
  <event>
  5     66 0.17652913E-05 0.48522934E+02 0.75467711E-02 0.93777419E-01
       -2 -1    0    0    0  501 0.00000000E+00 0.00000000E+00 0.17064295E+03 0.17064325E+03 0.32000000E+00 0.0000E+00 0.9000E+01
        2 -1    0    0  502    0 -.00000000E+00 -.00000000E+00 -.26991604E+04 0.26991605E+04 0.32000000E+00 0.0000E+00 0.9000E+01
       25  1    1    2    0    0 -.68518527E+02 0.49666112E+03 -.12149916E+04 0.13203017E+04 0.12500000E+03 0.0000E+00 0.9000E+01
        1  1    1    2  502    0 -.46912765E+02 -.12384092E+02 -.90279026E+03 0.90409321E+03 0.32000000E+00 0.0000E+00 0.9000E+01
       -1  1    1    2    0  501 0.11543129E+03 -.48427703E+03 -.41073561E+03 0.64540876E+03 0.32000000E+00 0.0000E+00 0.9000E+01
#aMCatNLO 1  0  0  4  5 0.15478792D+02 0.00000000D+00  -5  6  0 0.00000000D+00 0.00000000D+00 0.00000000D+00 0.00000000D+00 0.00000000D+00
  <mgrwgt>
 0.4878971968D-02    7    2    0
 0.678670141892042D+03 0.000000000000000D+00 0.000000000000000D+00 0.678670141892042D+03
 0.678670141892042D+03 -.000000000000000D+00 -.000000000000000D+00 -.678670141892042D+03
 0.528139221372245D+03 -.685140346158673D+02 0.496655613861119D+03 -.109293483028822D+03
 0.229769593752034D+03 -.469156004617555D+02 -.123855385285279D+02 -.224587602243860D+03
 0.599431468659805D+03 0.115429635077623D+03 -.484270075332591D+03 0.333881085272682D+03
 0.000000000000000D+00 0.000000000000000D+00 0.000000000000000D+00 -.000000000000000D+00
 0.678670141892042D+03 0.000000000000000D+00 0.000000000000000D+00 0.678670141892042D+03
 0.678670141892042D+03 -.000000000000000D+00 -.000000000000000D+00 -.678670141892042D+03
 0.529021937068222D+03 -.695016503761824D+02 0.496394887089419D+03 -.114021254886463D+03
 0.215775629209931D+03 -.404726325181036D+02 -.266852115798502D+02 -.210259334301559D+03
 0.596493376372670D+03 0.114312384206574D+03 -.484565025276175D+03 0.328532742892662D+03
 0.160493411332608D+02 -.433810131228819D+01 0.148553497666064D+02 -.425215370464027D+01
0.103300505390D-02 0.000000000000D+00 0.000000000000D+00 0.399051778853D-05 0.000000000000D+00  6 -2 2 25 1 -1 21 0 0.26252786D-01 0.41525548D+00 0.28252766D+06 0.28252766D+06 0.28252766D+06 0.10864852D+01  1  2  2  3  6  4        1 0.449994786059D-02 0.100000000000D+01
0.287010616385D-03 0.000000000000D+00 -.396701140346D-05 0.399051778853D-05 0.000000000000D+00  6 -2 2 25 1 -1 21 2 0.26252786D-01 0.41525548D+00 0.28252766D+06 0.28252766D+06 0.28252766D+06 0.10864852D+01  1  2  3  3  6  4        1 0.147587857197D-02 0.100000000000D+01
-.586106645736D-03 0.000000000000D+00 0.000000000000D+00 0.399051778853D-05 0.000000000000D+00  6 -2 2 25 1 -1 21 2 0.26252786D-01 0.41525548D+00 0.28252766D+06 0.28252766D+06 0.28252766D+06 0.10864852D+01  1  2 15  3  6  4        1 -.301390328423D-02 0.100000000000D+01
0.581836653755D-08 0.000000000000D+00 0.000000000000D+00 0.399051778853D-05 0.000000000000D+00  6 -2 2 25 1 -1 21 2 0.26252786D-01 0.41525548D+00 0.29074107D+06 0.29074107D+06 0.29074107D+06 0.10855606D+01  1  2 12  3  6  4        1 0.298204049778D-07 0.100000000000D+01
-.720489829846D-04 0.000000000000D+00 0.000000000000D+00 0.399051778853D-05 0.000000000000D+00  6 -2 2 25 1 -1 21 2 0.26252786D-01 0.41525548D+00 0.28252766D+06 0.28252766D+06 0.28252766D+06 0.10864852D+01  1  2  4  3  6  4        1 -.370493438392D-03 0.100000000000D+01
-.438330757339D-02 0.000000000000D+00 0.000000000000D+00 0.399051778853D-05 0.000000000000D+00  6 -2 2 25 1 -1 21 2 0.26252786D-01 0.41525548D+00 0.28252766D+06 0.28252766D+06 0.28252766D+06 0.10864852D+01  1  2  5  3  6  4        1 -.225400363353D-01 0.100000000000D+01
0.482815470866D-02 0.000000000000D+00 -.000000000000D+00 0.399051778853D-05 0.000000000000D+00  6 -2 2 25 1 -1 21 2 0.26252786D-01 0.41525548D+00 0.28252766D+06 0.28252766D+06 0.28252766D+06 0.10864852D+01  1  2  6  3  6  4        1 0.248275487731D-01 0.100000000000D+01
  </mgrwgt>
  </event>
  <event>
  5     66 0.17652913E-05 0.64645001E+02 0.75467711E-02 0.88790832E-01
       -2 -1    0    0    0  501 0.00000000E+00 0.00000000E+00 0.67816779E+03 0.67816787E+03 0.32000000E+00 0.0000E+00 0.9000E+01
        2 -1    0    0  502    0 -.00000000E+00 -.00000000E+00 -.29544930E+04 0.29544930E+04 0.32000000E+00 0.0000E+00 0.9000E+01
       25  1    1    2    0    0 -.39939256E+03 0.38709441E+03 0.75556187E+02 0.57505673E+03 0.12500000E+03 0.0000E+00 0.9000E+01
        1  1    1    2  502    0 -.30919177E+02 -.56763424E+02 -.24955764E+04 0.24964134E+04 0.32000000E+00 0.0000E+00 0.9000E+01
       -1  1    1    2    0  501 0.43031174E+03 -.33033099E+03 0.14369499E+03 0.56119080E+03 0.32000000E+00 0.0000E+00 0.9000E+01
#aMCatNLO 1  0  0  4  4 0.13458479D+00 0.00000000D+00  -5  6  0 0.00000000D+00 0.00000000D+00 0.00000000D+00 0.00000000D+00 0.00000000D+00
  <mgrwgt>
 0.3614699581D-02    6    2    0
 0.141550068325729D+04 0.000000000000000D+00 0.000000000000000D+00 0.141550068325729D+04
 0.141550068325729D+04 -.000000000000000D+00 -.000000000000000D+00 -.141550068325729D+04
 0.798706221211333D+03 -.399326429464544D+03 0.387052220139442D+03 0.559495852905020D+03
 0.119677244063233D+04 -.309223191848167D+02 -.567695894886518D+02 -.119502522924940D+04
 0.835522704670928D+03 0.430248748649360D+03 -.330282630650791D+03 0.635529376344380D+03
 0.000000000000000D+00 0.000000000000000D+00 0.000000000000000D+00 -.000000000000000D+00
 0.141550068325729D+04 0.000000000000000D+00 0.000000000000000D+00 0.141550068325729D+04
 0.141550068325729D+04 -.000000000000000D+00 -.000000000000000D+00 -.141550068325729D+04
 0.756106282143334D+03 -.400923413369955D+03 0.384120353348070D+03 0.497778746685868D+03
 0.955975108418050D+03 -.125529100615032D+03 -.314194087415271D+03 -.894098947682508D+03
 0.787996317364176D+03 0.428581194688529D+03 -.333344055417826D+03 0.571085016837646D+03
 0.330923658589029D+03 0.978713192964579D+02 0.263417789485027D+03 -.174764815841007D+03
0.185359708121D-01 0.000000000000D+00 0.000000000000D+00 0.829000603743D-04 0.000000000000D+00  6 -2 2 25 1 -1 21 0 0.10433351D+00 0.45453740D+00 0.34635822D+06 0.34635822D+06 0.34635822D+06 0.10799649D+01  1  2  2  3  6  4        1 0.335094400103D-02 0.100000000000D+01
0.810135733212D-02 0.000000000000D+00 -.711830085515D-04 0.829000603743D-04 0.000000000000D+00  6 -2 2 25 1 -1 21 2 0.10433351D+00 0.45453740D+00 0.34635822D+06 0.34635822D+06 0.34635822D+06 0.10799649D+01  1  2  3  3  6  4        1 0.170816140090D-02 0.100000000000D+01
-.111156496166D-01 0.000000000000D+00 0.000000000000D+00 0.829000603743D-04 0.000000000000D+00  6 -2 2 25 1 -1 21 2 0.10433351D+00 0.45453740D+00 0.34635822D+06 0.34635822D+06 0.34635822D+06 0.10799649D+01  1  2 15  3  6  4        1 -.234372128553D-02 0.100000000000D+01
-.805508484671D-03 0.000000000000D+00 0.000000000000D+00 0.829000603743D-04 0.000000000000D+00  6 -2 2 25 1 -1 21 2 0.10433351D+00 0.45453740D+00 0.34635822D+06 0.34635822D+06 0.34635822D+06 0.10799649D+01  1  2  4  3  6  4        1 -.169840490328D-03 0.100000000000D+01
-.162094809505D-01 0.000000000000D+00 0.000000000000D+00 0.829000603743D-04 0.000000000000D+00  6 -2 2 25 1 -1 21 2 0.10433351D+00 0.45453740D+00 0.34635822D+06 0.34635822D+06 0.34635822D+06 0.10799649D+01  1  2  5  3  6  4        1 -.341774946507D-02 0.100000000000D+01
0.212802046121D-01 0.000000000000D+00 -.000000000000D+00 0.829000603743D-04 0.000000000000D+00  6 -2 2 25 1 -1 21 2 0.10433351D+00 0.45453740D+00 0.34635822D+06 0.34635822D+06 0.34635822D+06 0.10799649D+01  1  2  6  3  6  4        1 0.448690541985D-02 0.100000000000D+01
  </mgrwgt>
  </event>
  <event>
  5     66 0.17652913E-05 0.44449688E+02 0.75467711E-02 0.86171288E-01
       -2 -1    0    0    0  501 0.00000000E+00 0.00000000E+00 0.52537332E+03 0.52537342E+03 0.32000000E+00 0.0000E+00 0.9000E+01
        2 -1    0    0  502    0 0.00000000E+00 0.00000000E+00 -.15873139E+04 0.15873140E+04 0.32000000E+00 0.0000E+00 0.9000E+01
       25  1    1    2    0    0 -.31787286E+03 0.34762047E+03 -.40161803E+03 0.63151024E+03 0.12500000E+03 0.0000E+00 0.9000E+01
        1  1    1    2  502    0 0.43880833E+02 0.70582239E+01 -.94772019E+03 0.94876182E+03 0.32000000E+00 0.0000E+00 0.9000E+01
       -1  1    1    2    0  501 0.27399202E+03 -.35467869E+03 0.28739760E+03 0.53241533E+03 0.32000000E+00 0.0000E+00 0.9000E+01
#aMCatNLO 1  0  0  2  2 0.21315446D+03 0.00000000D+00  -5  6  0 0.00000000D+00 0.00000000D+00 0.00000000D+00 0.00000000D+00 0.00000000D+00
  <mgrwgt>
 0.9261071787D-02    5    2    0
 0.913199068954466D+03 0.000000000000000D+00 0.000000000000000D+00 0.913199068954466D+03
 0.913199068954466D+03 0.000000000000000D+00 0.000000000000000D+00 -.913199068954466D+03
 0.496958311012825D+03 -.317868774610054D+03 0.347608502239694D+03 -.973156420278825D+02
 0.546489074323783D+03 0.438856458621519D+02 0.705867500678897D+01 -.544678376245722D+03
 0.782950752572323D+03 0.273983128747903D+03 -.354667177246483D+03 0.641994018273604D+03
 0.000000000000000D+00 0.000000000000000D+00 0.000000000000000D+00 -.000000000000000D+00
 0.128725275288994D+04 0.000000000000000D+00 0.000000000000000D+00 0.128725275288994D+04
 0.173299810841878D+04 0.000000000000000D+00 0.000000000000000D+00 -.173299810841878D+04
 0.544381455071539D+03 -.488586040172600D+03 0.180387127564484D+03 -.973156420278825D+02
 0.589666430272033D+03 -.142375714085489D+03 -.175388487303852D+03 -.544678376245722D+03
 0.895412094034721D+03 -.116771550720142D+01 -.624183574827990D+03 0.641994018273604D+03
 0.990790881930424D+03 0.632129469765291D+03 0.619184934567358D+03 -.445745355528843D+03
0.696267137535D-02 0.000000000000D+00 0.000000000000D+00 0.978742315999D-04 0.000000000000D+00  6 -2 2 25 1 -1 21 0 0.80826675D-01 0.24420215D+00 0.24007829D+06 0.24007829D+06 0.24007829D+06 0.10917847D+01  1  2  2  2  6  2        2 0.141535766803D-01 0.100000000000D+01
0.291105159029D-02 0.000000000000D+00 -.267384913948D-04 0.978742315999D-04 0.000000000000D+00  6 -2 2 25 1 -1 21 2 0.80826675D-01 0.24420215D+00 0.24007829D+06 0.24007829D+06 0.24007829D+06 0.10917847D+01  1  2  3  2  6  2        2 0.705365438203D-02 0.100000000000D+01
-.498149218997D-02 0.000000000000D+00 0.000000000000D+00 0.978742315999D-04 0.000000000000D+00  6 -2 2 25 1 -1 21 2 0.80826675D-01 0.24420215D+00 0.24007829D+06 0.24007829D+06 0.24007829D+06 0.10917847D+01  1  2 15  2  6  2        2 -.120704574017D-01 0.100000000000D+01
0.550531659950D-03 0.000000000000D+00 -.354027131918D-02 0.978742315999D-04 0.000000000000D+00  6 -2 2 25 1 -1 21 2 0.80826675D-01 0.51652339D+00 0.24007829D+06 0.24007829D+06 0.24007829D+06 0.10917847D+01  1  2  5  2  6  2        2 0.121769763918D-03 0.100000000000D+01
0.264624071359D-03 0.000000000000D+00 -.286881780281D-03 0.978742315999D-04 0.000000000000D+00  6 -2 21 25 1 -1 -2 2 0.80826675D-01 0.51652339D+00 0.24007829D+06 0.24007829D+06 0.24007829D+06 0.10917847D+01  1  2  5  6  6  2        2 0.252836237681D-05 0.100000000000D+01
  </mgrwgt>
  </event>
  <event>
  5     66 0.17652913E-05 0.18222385E+03 0.75467711E-02 0.95131120E-01
       -2 -1    0    0    0  501 0.00000000E+00 0.00000000E+00 0.38376843E+03 0.38376856E+03 0.32000000E+00 0.0000E+00 0.9000E+01
        2 -1    0    0  502    0 -.00000000E+00 -.00000000E+00 -.14420395E+04 0.14420396E+04 0.32000000E+00 0.0000E+00 0.9000E+01
       25  1    1    2    0    0 -.46534873E+03 -.66904949E+02 -.66913974E+03 0.82728394E+03 0.12500000E+03 0.0000E+00 0.9000E+01
        1  1    1    2  502    0 0.18048231E+03 0.24885221E+02 -.60935902E+03 0.63601231E+03 0.32000000E+00 0.0000E+00 0.9000E+01
       -1  1    1    2    0  501 0.28486642E+03 0.42019727E+02 0.22022766E+03 0.36251188E+03 0.32000000E+00 0.0000E+00 0.9000E+01
#aMCatNLO 1  0  0  4  2 0.10305959D+02 0.00000000D+00  -5  6  0 0.00000000D+00 0.00000000D+00 0.00000000D+00 0.00000000D+00 0.00000000D+00
  <mgrwgt>
 0.8933001720D-03    1    2    0
 0.743914910937417D+03 0.000000000000000D+00 0.000000000000000D+00 0.743914910937417D+03
 0.743914910937417D+03 -.000000000000000D+00 -.000000000000000D+00 -.743914910937417D+03
 0.539241508219446D+03 -.465364668867048D+03 -.669070525043914D+02 -.232627546696904D+03
 0.347120436254121D+03 0.180515985368462D+03 0.248899419123017D+02 -.295443847597655D+03
 0.601467877401267D+03 0.284848683498586D+03 0.420171105920896D+02 0.528071394294559D+03
 0.000000000000000D+00 0.000000000000000D+00 0.000000000000000D+00 -.000000000000000D+00
 0.743914910937417D+03 0.000000000000000D+00 0.000000000000000D+00 0.743914910937417D+03
 0.743914910937417D+03 -.000000000000000D+00 -.000000000000000D+00 -.743914910937417D+03
 0.537562365828640D+03 -.452443790129575D+03 -.651254932669910D+02 -.253774671815768D+03
 0.160567634343705D+03 0.122675587382947D+03 -.716234603783271D+02 -.748514888456922D+02
 0.588334960594444D+03 0.299125469236226D+03 0.439856252750353D+02 0.504705106256157D+03
 0.201364861108045D+03 0.306427335104018D+02 0.927633283702828D+02 -.176078945594696D+03
0.155223995131D-03 0.000000000000D+00 0.000000000000D+00 0.216619871482D-05 0.000000000000D+00  6 -2 2 25 1 -1 21 2 0.59041309D-01 0.22185225D+00 0.22878901D+06 0.22878901D+06 0.22878901D+06 0.10933677D+01  1  2 14  3  6  4        1 0.893300172015D-03 0.100000000000D+01
  </mgrwgt>
  </event>
  <event>
  5     66 0.17652913E-05 0.64770926E+02 0.75467711E-02 0.94073430E-01
       -2 -1    0    0    0  501 0.00000000E+00 0.00000000E+00 0.50137542E+03 0.50137553E+03 0.32000000E+00 0.0000E+00 0.9000E+01
        2 -1    0    0  502    0 0.00000000E+00 0.00000000E+00 -.10508306E+04 0.10508306E+04 0.32000000E+00 0.0000E+00 0.9000E+01
       25  1    1    2    0    0 0.26368520E+03 0.39238307E+03 -.27154732E+03 0.55933649E+03 0.12500000E+03 0.0000E+00 0.9000E+01
        1  1    1    2  502    0 -.21468772E+03 -.43477926E+03 -.53832545E+03 0.72451240E+03 0.32000000E+00 0.0000E+00 0.9000E+01
       -1  1    1    2    0  501 -.48997481E+02 0.42396191E+02 0.26041761E+03 0.26835727E+03 0.32000000E+00 0.0000E+00 0.9000E+01
#aMCatNLO 1  0  0  2  4 0.96328491D+01 0.00000000D+00  -5  6  0 0.00000000D+00 0.00000000D+00 0.00000000D+00 0.00000000D+00 0.00000000D+00
  <mgrwgt>
 0.9176627598D-02   13    2    0
 0.725851739724410D+03 0.000000000000000D+00 0.000000000000000D+00 0.725851739724410D+03
 0.725851739724410D+03 0.000000000000000D+00 0.000000000000000D+00 -.725851739724410D+03
 0.495363824697899D+03 0.263722319814317D+03 0.392477154694509D+03 -.785655133884347D+02
 0.570972434843608D+03 -.214741865990928D+03 -.434858612518438D+03 -.301319497312257D+03
 0.385367219907312D+03 -.489804538233888D+02 0.423814578239289D+02 0.379885010700691D+03
 0.000000000000000D+00 0.000000000000000D+00 0.000000000000000D+00 -.000000000000000D+00
 0.726033715439071D+03 0.000000000000000D+00 0.000000000000000D+00 0.726033715439071D+03
 0.865617677838956D+03 0.000000000000000D+00 0.000000000000000D+00 -.865617677838956D+03
 0.493219605872739D+03 0.260487285761794D+03 0.391936747039271D+03 -.785655133884347D+02
 0.572865894932169D+03 -.218484955175895D+03 -.435483890032354D+03 -.301319497312257D+03
 0.385649937911601D+03 -.515035254059098D+02 0.419599824466159D+02 0.379885010700691D+03
 0.139915954561517D+03 0.950119482001080D+01 0.158716054646649D+01 -.139583962399885D+03
0.457111733417D-04 0.000000000000D+00 0.000000000000D+00 0.535521424777D-05 0.000000000000D+00  6 -2 2 25 1 -1 21 0 0.77134692D-01 0.16166626D+00 0.26980522D+06 0.26980522D+06 0.26980522D+06 0.10879769D+01  1  2  2  2  6  2        2 0.206760271441D-03 0.100000000000D+01
0.125735490057D-04 0.000000000000D+00 -.175542941661D-06 0.535521424777D-05 0.000000000000D+00  6 -2 2 25 1 -1 21 2 0.77134692D-01 0.16166626D+00 0.26980522D+06 0.26980522D+06 0.26980522D+06 0.10879769D+01  1  2  3  2  6  2        2 0.673196706670D-04 0.100000000000D+01
-.335312655864D-04 0.000000000000D+00 0.000000000000D+00 0.535521424777D-05 0.000000000000D+00  6 -2 2 25 1 -1 21 2 0.77134692D-01 0.16166626D+00 0.26980522D+06 0.26980522D+06 0.26980522D+06 0.10879769D+01  1  2 15  2  6  2        2 -.179528767518D-03 0.100000000000D+01
0.942675814005D-07 0.000000000000D+00 0.000000000000D+00 0.535521424777D-05 0.000000000000D+00  6 -2 2 25 1 -1 21 2 0.77134692D-01 0.19281360D+00 0.27573301D+06 0.27573301D+06 0.27573301D+06 0.10872725D+01  1  2 12  2  6  2        2 0.382902794095D-06 0.100000000000D+01
0.232801755003D-01 0.000000000000D+00 0.000000000000D+00 0.535521424777D-05 0.000000000000D+00  6 -2 2 25 1 -1 21 2 0.77134692D-01 0.19291017D+00 0.27573301D+06 0.27573301D+06 0.27573301D+06 0.10872725D+01  1  2 12  2  6  2        2 0.944830165968D-01 0.100000000000D+01
-.212284503710D-01 0.000000000000D+00 0.000000000000D+00 0.535521424777D-05 0.000000000000D+00  6 -2 2 25 1 -1 21 2 0.77134692D-01 0.16166626D+00 0.26980522D+06 0.26980522D+06 0.26980522D+06 0.10879769D+01  1  2  4  2  6  2        2 -.113658624713D+00 0.100000000000D+01
-.234864601996D-01 0.000000000000D+00 -.660368320893D-04 0.535521424777D-05 0.000000000000D+00  6 -2 2 25 1 -1 21 2 0.77134692D-01 0.19281364D+00 0.26980522D+06 0.26980522D+06 0.26980522D+06 0.10879769D+01  1  2  5  2  6  2        2 -.956183062854D-01 0.100000000000D+01
0.231390253601D-01 0.000000000000D+00 0.650249357966D-04 0.535521424777D-05 0.000000000000D+00  6 -2 2 25 1 -1 21 2 0.77134692D-01 0.16166626D+00 0.26980522D+06 0.26980522D+06 0.26980522D+06 0.10879769D+01  1  2  6  2  6  2        2 0.123887978334D+00 0.100000000000D+01
0.533309276993D-07 0.000000000000D+00 0.000000000000D+00 0.535521424777D-05 0.322957586743D-06  6 -2 2 25 1 -1 21 2 0.77154030D-01 0.19279580D+00 0.27573301D+06 0.27573301D+06 0.27573301D+06 0.10872725D+01  1  2 11  2  6  2        2 0.216535497221D-06 0.100000000000D+01
0.244484474624D-08 0.000000000000D+00 0.000000000000D+00 0.535521424777D-05 0.000000000000D+00  6 -2 21 25 1 -1 -2 2 0.77134692D-01 0.19281360D+00 0.27573301D+06 0.27573301D+06 0.27573301D+06 0.10872725D+01  1  2 12  6  6  2        2 0.479047859151D-08 0.100000000000D+01
0.605122343631D-03 0.000000000000D+00 0.000000000000D+00 0.535521424777D-05 0.000000000000D+00  6 -2 21 25 1 -1 -2 2 0.77134692D-01 0.19291017D+00 0.27573301D+06 0.27573301D+06 0.27573301D+06 0.10872725D+01  1  2 12  6  6  2        2 0.118369623224D-02 0.100000000000D+01
-.608515573605D-03 0.000000000000D+00 -.171267735717D-05 0.535521424777D-05 0.000000000000D+00  6 -2 21 25 1 -1 -2 2 0.77134692D-01 0.19281364D+00 0.26980522D+06 0.26980522D+06 0.26980522D+06 0.10879769D+01  1  2  5  6  6  2        2 -.119629089774D-02 0.100000000000D+01
0.149440083906D-08 0.000000000000D+00 0.000000000000D+00 0.535521424777D-05 0.904308614769D-08  6 -2 21 25 1 -1 -2 2 0.77154030D-01 0.19279580D+00 0.27573301D+06 0.27573301D+06 0.27573301D+06 0.10872725D+01  1  2 11  6  6  2        2 0.292743369495D-08 0.100000000000D+01
  </mgrwgt>
  </event>
  <event>
  5     66 -.17652913E-05 0.97855988E+02 0.75467711E-02 0.91610456E-01
       -2 -1    0    0    0  501 0.00000000E+00 0.00000000E+00 0.11156423E+04 0.11156424E+04 0.32000000E+00 0.0000E+00 0.9000E+01
        2 -1    0    0  502    0 0.00000000E+00 0.00000000E+00 -.56533882E+03 0.56533891E+03 0.32000000E+00 0.0000E+00 0.9000E+01
       25  1    1    2    0    0 -.34252017E+02 -.55806961E+03 0.53772973E+03 0.78574369E+03 0.12500000E+03 0.0000E+00 0.9000E+01
        1  1    1    2  502    0 0.86226390E+02 0.64115429E+03 -.18656432E+03 0.67329055E+03 0.32000000E+00 0.0000E+00 0.9000E+01
       -1  1    1    2    0  501 -.51974373E+02 -.83084689E+02 0.19913809E+03 0.22194703E+03 0.32000000E+00 0.0000E+00 0.9000E+01
#aMCatNLO 1  0  0  5  1 0.14288446D+02 0.00000000D+00  -5  6  0 0.00000000D+00 0.00000000D+00 0.00000000D+00 0.00000000D+00 0.00000000D+00
  <mgrwgt>
 -.8110473067D-02    8    2    0
 0.794176317899423D+03 0.000000000000000D+00 0.000000000000000D+00 0.794176317899423D+03
 0.794176317899423D+03 -.000000000000000D+00 -.000000000000000D+00 -.794176317899423D+03
 0.645495708586242D+03 -.343231506464347D+02 -.558284042376683D+03 0.296952115938760D+03
 0.777207812277802D+03 0.862200634200254D+02 0.641244905942270D+03 -.430607773655542D+03
 0.165649114934802D+03 -.518969127735907D+02 -.829608635655863D+02 0.133655657716782D+03
 0.000000000000000D+00 0.000000000000000D+00 0.000000000000000D+00 0.000000000000000D+00
 0.794176317899423D+03 0.000000000000000D+00 0.000000000000000D+00 0.794176317899423D+03
 0.794176317899423D+03 -.000000000000000D+00 -.000000000000000D+00 -.794176317899423D+03
 0.646528375691258D+03 -.347170640365279D+02 -.558913740623952D+03 0.297966603129280D+03
 0.775855438158503D+03 0.857465641892811D+02 0.640487984133615D+03 -.429388320556480D+03
 0.469369336811233D+02 -.215004842558855D+02 -.312086408143746D+02 0.276916171190478D+02
 0.119031888267961D+03 -.295290158968677D+02 -.503656026952883D+02 0.103730100308152D+03
0.214413659847D-03 0.000000000000D+00 0.000000000000D+00 0.111576076025D-06 0.000000000000D+00  6 -2 2 25 1 -1 21 0 0.17163729D+00 0.86975213D-01 0.43428545D+06 0.43428545D+06 0.43428545D+06 0.10728624D+01  1  2  2  4  6  5       -1 0.276228735531D-03 0.100000000000D+01
0.260603604190D-04 0.000000000000D+00 -.823404910226D-06 0.111576076025D-06 0.000000000000D+00  6 -2 2 25 1 -1 21 2 0.17163729D+00 0.86975213D-01 0.43428545D+06 0.43428545D+06 0.43428545D+06 0.10728624D+01  1  2  3  4  6  5       -1 0.386442469963D-04 0.100000000000D+01
-.146476020087D-03 0.000000000000D+00 0.000000000000D+00 0.111576076025D-06 0.000000000000D+00  6 -2 2 25 1 -1 21 2 0.17163729D+00 0.86975213D-01 0.43428545D+06 0.43428545D+06 0.43428545D+06 0.10728624D+01  1  2 15  4  6  5       -1 -.217205572305D-03 0.100000000000D+01
0.839175608192D-07 0.000000000000D+00 0.000000000000D+00 0.111576076025D-06 0.000000000000D+00  6 -2 2 25 1 -1 21 2 0.17163729D+00 0.86975213D-01 0.43313266D+06 0.43313266D+06 0.43313266D+06 0.10729450D+01  1  2 12  4  6  5       -1 0.124473548471D-06 0.100000000000D+01
0.477633080448D-03 0.000000000000D+00 0.000000000000D+00 0.111576076025D-06 0.000000000000D+00  6 -2 2 25 1 -1 21 2 0.17163729D+00 0.86975213D-01 0.43313266D+06 0.43313266D+06 0.43313266D+06 0.10729450D+01  1  2 12  4  6  5       -1 0.708465353496D-03 0.100000000000D+01
-.697057725910D-02 0.000000000000D+00 0.000000000000D+00 0.111576076025D-06 0.000000000000D+00  6 -2 2 25 1 -1 21 2 0.17163729D+00 0.86975213D-01 0.43428545D+06 0.43428545D+06 0.43428545D+06 0.10728624D+01  1  2  4  4  6  5       -1 -.103364920890D-01 0.100000000000D+01
-.474565492934D-03 0.000000000000D+00 0.000000000000D+00 0.111576076025D-06 0.000000000000D+00  6 -2 2 25 1 -1 21 2 0.17163729D+00 0.86975213D-01 0.43428545D+06 0.43428545D+06 0.43428545D+06 0.10728624D+01  1  2  5  4  6  5       -1 -.703721123960D-03 0.100000000000D+01
0.143200435382D-02 0.000000000000D+00 -.000000000000D+00 0.111576076025D-06 0.000000000000D+00  6 -2 2 25 1 -1 21 2 0.17163729D+00 0.86975213D-01 0.43428545D+06 0.43428545D+06 0.43428545D+06 0.10728624D+01  1  2  6  4  6  5       -1 0.212348290888D-02 0.100000000000D+01
  </mgrwgt>
  </event>
  <event>
  6     66 0.17652913E-05 0.12376574E+03 0.75467711E-02 0.94372424E-01
       -2 -1    0    0    0  503 0.00000000E+00 0.00000000E+00 0.88399196E+03 0.88399202E+03 0.32000000E+00 0.0000E+00 0.9000E+01
        2 -1    0    0  502    0 0.00000000E+00 0.00000000E+00 -.14183369E+04 0.14183370E+04 0.32000000E+00 0.0000E+00 0.9000E+01
       25  1    1    2    0    0 0.35830804E+03 -.27729521E+03 0.40010643E+03 0.61724180E+03 0.12500000E+03 0.0000E+00 0.9000E+01
        1  1    1    2  502    0 -.14778136E+03 -.54109126E+02 -.11753086E+04 0.11857982E+04 0.32000000E+00 0.0000E+00 0.9000E+01
       -1  1    1    2    0  501 -.16070424E+03 0.28620514E+03 0.99902788E+02 0.34310334E+03 0.32000000E+00 0.0000E+00 0.9000E+01
       21  1    1    2  501  503 -.49822441E+02 0.45199201E+02 0.14095438E+03 0.15618560E+03 0.75000000E+00 0.0000E+00 0.9000E+01
#aMCatNLO 2  0  0  1  5 0.16123809D+02 0.00000000D+00  -5  6  0 0.00000000D+00 0.00000000D+00 0.00000000D+00 0.00000000D+00 0.00000000D+00
  <mgrwgt>
 0.5493479244D-02    1    2    0
 0.101800994060041D+04 0.000000000000000D+00 0.000000000000000D+00 0.101800994060041D+04
 0.101800994060041D+04 0.000000000000000D+00 0.000000000000000D+00 -.101800994060041D+04
 0.768496919949972D+03 0.339281938251090D+03 -.259943140977772D+03 0.626322477488863D+03
 0.862624786020443D+03 -.168873836508148D+03 -.350015254318499D+02 -.845208874786155D+03
 0.404898175230395D+03 -.170408101742942D+03 0.294944666409621D+03 0.218886397297291D+03
 0.000000000000000D+00 -.000000000000000D+00 0.000000000000000D+00 0.000000000000000D+00
 0.122433528017805D+04 0.000000000000000D+00 0.000000000000000D+00 0.122433528017805D+04
 0.102406338014137D+04 0.000000000000000D+00 0.000000000000000D+00 -.102406338014137D+04
 0.782989347920950D+03 0.358259589044932D+03 -.277159773429050D+03 0.626322477488863D+03
 0.859740091524870D+03 -.147806012794510D+03 -.541143746125143D+02 -.845208874786155D+03
 0.394401435095223D+03 -.160631135489010D+03 0.286074947164017D+03 0.218886397297291D+03
 0.211267785778371D+03 -.498224407614120D+02 0.451992008775477D+02 0.200271900036681D+03
0.662140819654D-02 0.000000000000D+00 0.000000000000D+00 0.212437389788D-05 0.829878399396D-08  6 -2 2 25 1 -1 21 2 0.13599868D+00 0.21820555D+00 0.26144992D+06 0.26144992D+06 0.26144992D+06 0.10889990D+01  1  2  1  1  6  1       -2 0.549347924367D-02 0.100000000000D+01
  </mgrwgt>
  </event>
  <event>
  5     66 0.17652913E-05 0.16054894E+03 0.75467711E-02 0.94502445E-01
       -2 -1    0    0    0  501 0.00000000E+00 0.00000000E+00 0.16884181E+04 0.16884182E+04 0.32000000E+00 0.0000E+00 0.9000E+01
        2 -1    0    0  502    0 0.00000000E+00 0.00000000E+00 -.28815004E+04 0.28815004E+04 0.32000000E+00 0.0000E+00 0.9000E+01
       25  1    1    2    0    0 -.48581891E+03 -.88377626E+02 -.12248081E+03 0.52388659E+03 0.12500000E+03 0.0000E+00 0.9000E+01
        1  1    1    2  502    0 0.14540273E+03 0.68051322E+02 -.25362025E+04 0.25412785E+04 0.32000000E+00 0.0000E+00 0.9000E+01
       -1  1    1    2    0  501 0.34041618E+03 0.20326303E+02 0.14656011E+04 0.15047535E+04 0.32000000E+00 0.0000E+00 0.9000E+01
#aMCatNLO 1  0  0  1  5 0.31303845D+02 0.00000000D+00  -5  6  0 0.00000000D+00 0.00000000D+00 0.00000000D+00 0.00000000D+00 0.00000000D+00
  <mgrwgt>
 0.7508245104D-03    5    4    0
 0.220571476679518D+04 0.000000000000000D+00 0.000000000000000D+00 0.220571476679518D+04
 0.220571476679518D+04 0.000000000000000D+00 0.000000000000000D+00 -.220571476679518D+04
 0.509588566746658D+03 -.485822605689121D+03 -.883812219959052D+02 0.148547217697526D+02
 0.194667889878898D+04 0.145411311697507D+03 0.680552105123341D+02 -.194004710606284D+04
 0.195516206805472D+04 0.340411293991614D+03 0.203260114835711D+02 0.192519238429309D+04
 0.000000000000000D+00 -.000000000000000D+00 -.000000000000000D+00 0.000000000000000D+00
 0.529358145353913D+04 0.000000000000000D+00 0.000000000000000D+00 0.529358145353913D+04
 0.226711935640694D+04 0.000000000000000D+00 0.000000000000000D+00 -.226711935640694D+04
 0.449267104444264D+03 -.429022668116216D+03 -.439865731709078D+02 0.148547217697526D+02
 0.199247514369679D+04 0.378755818515048D+03 0.250436527782453D+03 -.194004710606284D+04
 0.201984379645048D+04 0.575879562824400D+03 0.204367254325504D+03 0.192519238429309D+04
 0.309911476535453D+04 -.525612713223233D+03 -.410817208937049D+03 0.302646209713219D+04
 0.220571476679518D+04 0.000000000000000D+00 0.000000000000000D+00 0.220571476679518D+04
 0.220571476679518D+04 0.000000000000000D+00 0.000000000000000D+00 -.220571476679518D+04
 0.509588566746658D+03 -.485822605689121D+03 -.883812219959052D+02 0.148547217697526D+02
 0.194667889878898D+04 0.145411311697507D+03 0.680552105123341D+02 -.194004710606284D+04
 0.000000000000000D+00 -.000000000000000D+00 -.000000000000000D+00 0.000000000000000D+00
 0.195516206805472D+04 0.340411293991614D+03 0.203260114835711D+02 0.192519238429309D+04
 0.529358145353913D+04 0.000000000000000D+00 0.000000000000000D+00 0.529358145353913D+04
 0.226711935640694D+04 0.000000000000000D+00 0.000000000000000D+00 -.226711935640694D+04
 0.449267104444264D+03 -.429022668116216D+03 -.439865731709078D+02 0.148547217697526D+02
 0.199247514369679D+04 0.378755818515048D+03 0.250436527782453D+03 -.194004710606284D+04
 0.309911476535453D+04 -.525612713223233D+03 -.410817208937049D+03 0.302646209713219D+04
 0.201984379645048D+04 0.575879562824400D+03 0.204367254325504D+03 0.192519238429309D+04
0.144751136508D+00 0.000000000000D+00 0.000000000000D+00 0.150234323549D-02 0.000000000000D+00  6 -2 2 25 1 -1 21 0 0.25975664D+00 0.44330775D+00 0.25549918D+06 0.25549918D+06 0.25549918D+06 0.10897489D+01  1  2  2  1  6  1       -2 0.203465796231D-02 0.100000000000D+01
0.279730304884D-01 0.000000000000D+00 -.555882478042D-03 0.150234323549D-02 0.000000000000D+00  6 -2 2 25 1 -1 21 2 0.25975664D+00 0.44330775D+00 0.25549918D+06 0.25549918D+06 0.25549918D+06 0.10897489D+01  1  2  3  1  6  1       -2 0.466940835835D-03 0.100000000000D+01
-.101631732833D+00 0.000000000000D+00 0.000000000000D+00 0.150234323549D-02 0.000000000000D+00  6 -2 2 25 1 -1 21 2 0.25975664D+00 0.44330775D+00 0.25549918D+06 0.25549918D+06 0.25549918D+06 0.10897489D+01  1  2 15  1  6  1       -2 -.169649142220D-02 0.100000000000D+01
-.108971044209D+01 0.000000000000D+00 -.735389221333D-01 0.150234323549D-02 0.000000000000D+00  6 -2 2 25 1 -1 21 2 0.62541194D+00 0.44330775D+00 0.25549918D+06 0.25549918D+06 0.25549918D+06 0.10897489D+01  1  2  5  1  6  1       -2 -.304344827048D-04 0.100000000000D+01
-.100188071829D+00 0.000000000000D+00 -.707271709687D-02 0.150234323549D-02 0.000000000000D+00  6 21 2 25 1 2 -1 2 0.62541194D+00 0.44330775D+00 0.25549918D+06 0.25549918D+06 0.25549918D+06 0.10897489D+01  3  4  5  5  5  1       -2 -.238483828651D-04 0.100000000000D+01
  </mgrwgt>
  </event>
  <event>
  5     66 0.17652913E-05 0.70138101E+02 0.75467711E-02 0.86759400E-01
       -2 -1    0    0    0  501 0.00000000E+00 0.00000000E+00 0.69471397E+03 0.69471404E+03 0.32000000E+00 0.0000E+00 0.9000E+01
        2 -1    0    0  502    0 -.00000000E+00 -.00000000E+00 -.26229574E+04 0.26229574E+04 0.32000000E+00 0.0000E+00 0.9000E+01
       25  1    1    2    0    0 -.62077120E+03 -.31064305E+03 -.34308611E+03 0.78433989E+03 0.12500000E+03 0.0000E+00 0.9000E+01
        1  1    1    2  502    0 0.68266313E+02 -.16063230E+02 -.18410114E+04 0.18423467E+04 0.32000000E+00 0.0000E+00 0.9000E+01
       -1  1    1    2    0  501 0.55250489E+03 0.32670628E+03 0.25585408E+03 0.69098485E+03 0.32000000E+00 0.0000E+00 0.9000E+01
#aMCatNLO 1  0  0  4  2 0.19832206D+02 0.00000000D+00  -5  6  0 0.00000000D+00 0.00000000D+00 0.00000000D+00 0.00000000D+00 0.00000000D+00
  <mgrwgt>
 0.2131282481D-02    4    2    0
 0.134989084019991D+04 0.000000000000000D+00 0.000000000000000D+00 0.134989084019991D+04
 0.134989084019991D+04 -.000000000000000D+00 -.000000000000000D+00 -.134989084019991D+04
 0.718800523011593D+03 -.620744458497266D+03 -.310621494733079D+03 0.138707592209161D+03
 0.949179900996560D+03 0.682735610490854D+02 -.160646859332185D+02 -.946584983603366D+03
 0.103180125639167D+04 0.552470897448181D+03 0.326686180666297D+03 0.807877391394204D+03
 0.000000000000000D+00 0.000000000000000D+00 0.000000000000000D+00 0.000000000000000D+00
 0.134989084019991D+04 0.000000000000000D+00 0.000000000000000D+00 0.134989084019991D+04
 0.134989084019991D+04 -.000000000000000D+00 -.000000000000000D+00 -.134989084019991D+04
 0.699466008618275D+03 -.612602225631887D+03 -.312537352230001D+03 0.258188656664145D+02
 0.645546266805253D+03 -.873206498184190D+02 0.369454506781967D+03 -.522119195318446D+03
 0.921094670786379D+03 0.563682424369472D+03 0.324048122008527D+03 0.652434158847289D+03
 0.433674734189918D+03 0.136240451080834D+03 -.380965276560493D+03 -.156133829195258D+03
0.146491059436D-01 0.000000000000D+00 0.000000000000D+00 0.471099558212D-04 0.000000000000D+00  6 -2 2 25 1 -1 21 0 0.10687908D+00 0.40353191D+00 0.50215656D+06 0.50215656D+06 0.50215656D+06 0.10683783D+01  1  2  2  3  6  4        1 0.385416006155D-02 0.100000000000D+01
0.631632463275D-02 0.000000000000D+00 -.562564240218D-04 0.471099558212D-04 0.000000000000D+00  6 -2 2 25 1 -1 21 2 0.10687908D+00 0.40353191D+00 0.50215656D+06 0.50215656D+06 0.50215656D+06 0.10683783D+01  1  2  3  3  6  4        1 0.189685093765D-02 0.100000000000D+01
-.114199498143D-01 0.000000000000D+00 0.000000000000D+00 0.471099558212D-04 0.000000000000D+00  6 -2 2 25 1 -1 21 2 0.10687908D+00 0.40353191D+00 0.50215656D+06 0.50215656D+06 0.50215656D+06 0.10683783D+01  1  2 15  3  6  4        1 -.342951696953D-02 0.100000000000D+01
-.633385506206D-03 0.000000000000D+00 0.000000000000D+00 0.471099558212D-04 0.000000000000D+00  6 -2 2 25 1 -1 21 2 0.10687908D+00 0.40353191D+00 0.50215656D+06 0.50215656D+06 0.50215656D+06 0.10683783D+01  1  2  4  3  6  4        1 -.190211548835D-03 0.100000000000D+01
  </mgrwgt>
  </event>
  <event>
  6     66 0.17652913E-05 0.79462582E+02 0.75467711E-02 0.93050524E-01
       21 -1    0    0  503  501 0.00000000E+00 0.00000000E+00 0.18488877E+04 0.18488878E+04 0.75000000E+00 0.0000E+00 0.9000E+01
        2 -1    0    0  502    0 0.00000000E+00 0.00000000E+00 -.59684226E+03 0.59684235E+03 0.32000000E+00 0.0000E+00 0.9000E+01
       25  1    1    2    0    0 -.12102372E+03 -.45705751E+03 0.28505381E+03 0.56606446E+03 0.12500000E+03 0.0000E+00 0.9000E+01
        1  1    1    2  502    0 -.52588129E+02 0.37877681E+01 -.36269488E+03 0.36650721E+03 0.32000000E+00 0.0000E+00 0.9000E+01
        2  1    1    2  503    0 -.10131171E+03 0.30587963E+02 0.69279963E+03 0.70083601E+03 0.32000000E+00 0.0000E+00 0.9000E+01
       -1  1    1    2    0  501 0.27492355E+03 0.42268178E+03 0.63688689E+03 0.81232251E+03 0.32000000E+00 0.0000E+00 0.9000E+01
#aMCatNLO 2  0  0  1  5 0.10582857D+03 0.00000000D+00  -5  6  0 0.00000000D+00 0.00000000D+00 0.00000000D+00 0.00000000D+00 0.00000000D+00
  <mgrwgt>
 0.2051059669D-02    1    2    0
 0.824727251225656D+03 0.000000000000000D+00 0.000000000000000D+00 0.824727251225656D+03
 0.824727251225656D+03 0.000000000000000D+00 0.000000000000000D+00 -.824727251225656D+03
 0.501111138467223D+03 -.151740693017979D+03 -.447740304570930D+03 0.109502305186101D+03
 0.514056151489920D+03 -.840037928787951D+02 0.132723632854755D+02 -.506972320782331D+03
 0.000000000000000D+00 -.000000000000000D+00 0.000000000000000D+00 0.000000000000000D+00
 0.634287212494169D+03 0.235744485896774D+03 0.434467941285455D+03 0.397470015596230D+03
 0.132627645028448D+04 0.000000000000000D+00 0.000000000000000D+00 0.132627645028448D+04
 0.832024475534425D+03 0.000000000000000D+00 0.000000000000000D+00 -.832024475534425D+03
 0.501124393498307D+03 -.120992978549218D+03 -.457023634027568D+03 0.109502305186101D+03
 0.509707361557062D+03 -.525956186735057D+02 0.378962826543306D+01 -.506972320782331D+03
 0.505454943557125D+03 -.101311706834897D+03 0.305879629953710D+02 0.494251974750056D+03
 0.642014227206412D+03 0.274900304057621D+03 0.422646042766764D+03 0.397470015596230D+03
0.111885935613D-02 0.000000000000D+00 0.000000000000D+00 0.692418352803D-05 0.595328081124D-09  6 21 2 25 1 2 -1 2 0.28444426D+00 0.91821899D-01 0.33163611D+06 0.33163611D+06 0.33163611D+06 0.10813452D+01  1  2  1  5  5  1       -2 0.205105966853D-02 0.100000000000D+01
  </mgrwgt>
  </event>
  <event>
  5     66 0.17652913E-05 0.33747506E+02 0.75467711E-02 0.92548679E-01
       -2 -1    0    0    0  501 0.00000000E+00 0.00000000E+00 0.18340549E+03 0.18340577E+03 0.32000000E+00 0.0000E+00 0.9000E+01
        2 -1    0    0  502    0 -.00000000E+00 -.00000000E+00 -.46428547E+04 0.46428547E+04 0.32000000E+00 0.0000E+00 0.9000E+01
       25  1    1    2    0    0 -.46487770E+03 -.49749161E+02 -.13934192E+04 0.14750689E+04 0.12500000E+03 0.0000E+00 0.9000E+01
        1  1    1    2  502    0 0.29397606E+02 -.16565483E+02 -.28680451E+04 0.28682436E+04 0.32000000E+00 0.0000E+00 0.9000E+01
       -1  1    1    2    0  501 0.43548010E+03 0.66314645E+02 -.19798482E+03 0.48294786E+03 0.32000000E+00 0.0000E+00 0.9000E+01
#aMCatNLO 1  0  0  4  2 0.26634747D+02 0.00000000D+00  -5  6  0 0.00000000D+00 0.00000000D+00 0.00000000D+00 0.00000000D+00 0.00000000D+00
  <mgrwgt>
 0.3819320908D-02    6    2    0
 0.922781527047333D+03 0.000000000000000D+00 0.000000000000000D+00 0.922781527047333D+03
 0.922781527047333D+03 -.000000000000000D+00 -.000000000000000D+00 -.922781527047333D+03
 0.490441085520213D+03 -.464865519020751D+03 -.497450236588020D+02 -.795797726372577D+02
 0.570604256920051D+03 0.294010304490679D+02 -.165672444346711D+02 -.569605410644649D+03
 0.784517711654403D+03 0.435464488571683D+03 0.663122680934731D+02 0.649185183281906D+03
 0.000000000000000D+00 0.000000000000000D+00 0.000000000000000D+00 -.000000000000000D+00
 0.922781527047333D+03 0.000000000000000D+00 0.000000000000000D+00 0.922781527047333D+03
 0.922781527047333D+03 -.000000000000000D+00 -.000000000000000D+00 -.922781527047333D+03
 0.495937679083700D+03 -.463003205847410D+03 -.507944221691736D+02 -.115659584931157D+03
 0.161996306342834D+03 0.128853054283904D+03 -.851500203229512D+02 -.488791132226400D+02
 0.740576765876148D+03 0.438343913431599D+03 0.646897353197276D+02 0.593400200419000D+03
 0.447052302791984D+03 -.104193761868093D+03 0.712547071723971D+02 -.428861502265204D+03
0.294295256917D-01 0.000000000000D+00 0.000000000000D+00 0.154171565568D-03 0.000000000000D+00  6 -2 2 25 1 -1 21 0 0.28216252D-01 0.71428535D+00 0.22952421D+06 0.22952421D+06 0.22952421D+06 0.10932620D+01  1  2  2  3  6  4        1 0.366396751693D-02 0.100000000000D+01
0.153206017493D-01 0.000000000000D+00 -.113017127628D-03 0.154171565568D-03 0.000000000000D+00  6 -2 2 25 1 -1 21 2 0.28216252D-01 0.71428535D+00 0.22952421D+06 0.22952421D+06 0.22952421D+06 0.10932620D+01  1  2  3  3  6  4        1 0.227977874485D-02 0.100000000000D+01
-.184926965043D-01 0.000000000000D+00 0.000000000000D+00 0.154171565568D-03 0.000000000000D+00  6 -2 2 25 1 -1 21 2 0.28216252D-01 0.71428535D+00 0.22952421D+06 0.22952421D+06 0.22952421D+06 0.10932620D+01  1  2 15  3  6  4        1 -.275180160123D-02 0.100000000000D+01
-.462019061354D-03 0.000000000000D+00 0.000000000000D+00 0.154171565568D-03 0.000000000000D+00  6 -2 2 25 1 -1 21 2 0.28216252D-01 0.71428535D+00 0.22952421D+06 0.22952421D+06 0.22952421D+06 0.10932620D+01  1  2  4  3  6  4        1 -.687506439387D-04 0.100000000000D+01
-.513836280524D-02 0.000000000000D+00 0.000000000000D+00 0.154171565568D-03 0.000000000000D+00  6 -2 2 25 1 -1 21 2 0.28216252D-01 0.71428535D+00 0.22952421D+06 0.22952421D+06 0.22952421D+06 0.10932620D+01  1  2  5  3  6  4        1 -.764612937430D-03 0.100000000000D+01
0.981648470345D-02 0.000000000000D+00 -.000000000000D+00 0.154171565568D-03 0.000000000000D+00  6 -2 2 25 1 -1 21 2 0.28216252D-01 0.71428535D+00 0.22952421D+06 0.22952421D+06 0.22952421D+06 0.10932620D+01  1  2  6  3  6  4        1 0.146073982878D-02 0.100000000000D+01
  </mgrwgt>
  </event>
  <event>
  5     66 0.17652913E-05 0.22132628E+03 0.75467711E-02 0.91493241E-01
       -2 -1    0    0    0  501 0.00000000E+00 0.00000000E+00 0.33472410E+03 0.33472426E+03 0.32000000E+00 0.0000E+00 0.9000E+01
        2 -1    0    0  502    0 0.00000000E+00 0.00000000E+00 -.19398601E+04 0.19398601E+04 0.32000000E+00 0.0000E+00 0.9000E+01
       25  1    1    2    0    0 0.21622515E+03 -.40472141E+03 -.65369496E+03 0.80839027E+03 0.12500000E+03 0.0000E+00 0.9000E+01
        1  1    1    2  502    0 -.11139331E+03 0.20977340E+03 -.11466953E+04 0.11710352E+04 0.32000000E+00 0.0000E+00 0.9000E+01
       -1  1    1    2    0  501 -.10483184E+03 0.19494801E+03 0.19525424E+03 0.29515888E+03 0.32000000E+00 0.0000E+00 0.9000E+01
#aMCatNLO 1  0  0  2  2 0.49800761D+03 0.00000000D+00  -5  6  0 0.00000000D+00 0.00000000D+00 0.00000000D+00 0.00000000D+00 0.00000000D+00
  <mgrwgt>
 0.1034360520D-01    7    2    0
 0.805802793351844D+03 0.000000000000000D+00 0.000000000000000D+00 0.805802793351844D+03
 0.805802793351844D+03 0.000000000000000D+00 0.000000000000000D+00 -.805802793351844D+03
 0.489872015992648D+03 0.216235951040736D+03 -.404741893680345D+03 -.117369523430309D+03
 0.510739412009797D+03 -.111413866377030D+03 0.209812028006229D+03 -.452128975252580D+03
 0.610994158701242D+03 -.104822084663706D+03 0.194929865674116D+03 0.569498498682889D+03
 0.000000000000000D+00 -.000000000000000D+00 0.000000000000000D+00 -.000000000000000D+00
 0.989131511146158D+03 0.000000000000000D+00 0.000000000000000D+00 0.989131511146158D+03
 0.126885390433634D+04 0.000000000000000D+00 0.000000000000000D+00 -.126885390433634D+04
 0.644704507242488D+03 0.346625220804711D+03 -.515843244533266D+03 -.117369523430309D+03
 0.466313596936838D+03 0.872282461997131D+00 0.114135881950115D+03 -.452128975252580D+03
 0.575778903928542D+03 0.315657832701563D+02 0.787172632503820D+02 0.569498498682889D+03
 0.571188407374627D+03 -.379063286536864D+03 0.322990099332769D+03 -.279722393190181D+03
0.259360142357D-02 0.000000000000D+00 0.000000000000D+00 0.676265485557D-05 0.000000000000D+00  6 -2 2 25 1 -1 21 0 0.51496030D-01 0.29844003D+00 0.21831733D+06 0.21831733D+06 0.21831733D+06 0.10949143D+01  1  2  2  2  6  2        2 0.885084372231D-02 0.100000000000D+01
0.231842190340D-03 0.000000000000D+00 -.996011237746D-05 0.676265485557D-05 0.000000000000D+00  6 -2 2 25 1 -1 21 2 0.51496030D-01 0.29844003D+00 0.21831733D+06 0.21831733D+06 0.21831733D+06 0.10949143D+01  1  2  3  2  6  2        2 0.948493111337D-03 0.100000000000D+01
-.158897153695D-02 0.000000000000D+00 0.000000000000D+00 0.676265485557D-05 0.000000000000D+00  6 -2 2 25 1 -1 21 2 0.51496030D-01 0.29844003D+00 0.21831733D+06 0.21831733D+06 0.21831733D+06 0.10949143D+01  1  2 15  2  6  2        2 -.650066562387D-02 0.100000000000D+01
-.104485455110D-03 0.000000000000D+00 0.000000000000D+00 0.676265485557D-05 0.000000000000D+00  6 -2 2 25 1 -1 21 2 0.51496030D-01 0.29844003D+00 0.21831733D+06 0.21831733D+06 0.21831733D+06 0.10949143D+01  1  2  4  2  6  2        2 -.427462034676D-03 0.100000000000D+01
-.146144423649D-02 0.000000000000D+00 -.140664291547D-02 0.676265485557D-05 0.000000000000D+00  6 -2 2 25 1 -1 21 2 0.51496030D-01 0.49965971D+00 0.21831733D+06 0.21831733D+06 0.21831733D+06 0.10949143D+01  1  2  5  2  6  2        2 -.100810915401D-02 0.100000000000D+01
0.207306667191D-02 0.000000000000D+00 0.123850104432D-02 0.676265485557D-05 0.000000000000D+00  6 -2 2 25 1 -1 21 2 0.51496030D-01 0.29844003D+00 0.21831733D+06 0.21831733D+06 0.21831733D+06 0.10949143D+01  1  2  6  2  6  2        2 0.848115459387D-02 0.100000000000D+01
-.188050129563D-04 0.000000000000D+00 -.812492310132D-04 0.676265485557D-05 0.000000000000D+00  6 -2 21 25 1 -1 -2 2 0.51496030D-01 0.49965971D+00 0.21831733D+06 0.21831733D+06 0.21831733D+06 0.10949143D+01  1  2  5  6  6  2        2 -.649413313041D-06 0.100000000000D+01
  </mgrwgt>
  </event>
  <event>
  6     66 -.17652913E-05 0.25172384E+02 0.75467711E-02 0.91722323E-01
       -2 -1    0    0    0  501 0.00000000E+00 0.00000000E+00 0.45477226E+03 0.45477238E+03 0.32000000E+00 0.0000E+00 0.9000E+01
        2 -1    0    0  502    0 -.00000000E+00 -.00000000E+00 -.13061989E+04 0.13061990E+04 0.32000000E+00 0.0000E+00 0.9000E+01
       25  1    1    2    0    0 -.12518978E+03 -.60884123E+03 -.23075485E+03 0.67470951E+03 0.12500000E+03 0.0000E+00 0.9000E+01
        1  1    1    2  502    0 -.41624777E+02 0.20115970E+02 -.42788063E+03 0.43037101E+03 0.32000000E+00 0.0000E+00 0.9000E+01
       -1  1    1    2    0  503 0.18451698E+03 0.53856623E+03 -.15311882E+03 0.58952996E+03 0.32000000E+00 0.0000E+00 0.9000E+01
       21  1    1    2  503  501 -.17702426E+02 0.50159030E+02 -.39672384E+02 0.66360868E+02 0.75000000E+00 0.0000E+00 0.9000E+01
#aMCatNLO 2  0  0  5  1 0.35751908D+02 0.00000000D+00  -5  6  0 0.00000000D+00 0.00000000D+00 0.00000000D+00 0.00000000D+00 0.00000000D+00
  <mgrwgt>
 -.1537070283D-02    4    2    0
 0.770728994712387D+03 0.000000000000000D+00 0.000000000000000D+00 0.770728994712387D+03
 0.770728994712387D+03 -.000000000000000D+00 -.000000000000000D+00 -.770728994712387D+03
 0.648796044989825D+03 -.126758189949393D+03 -.614483221831517D+03 0.107953876089520D+03
 0.256048486153208D+03 -.422982942244835D+02 0.178456930027272D+02 -.251899211607145D+03
 0.636613458281742D+03 0.169056484173876D+03 0.596637528828790D+03 0.143945335517625D+03
 0.000000000000000D+00 0.000000000000000D+00 0.000000000000000D+00 0.000000000000000D+00
 0.770728994712387D+03 0.000000000000000D+00 0.000000000000000D+00 0.770728994712387D+03
 0.770728994712387D+03 -.000000000000000D+00 -.000000000000000D+00 -.770728994712387D+03
 0.643240381189168D+03 -.125120752584704D+03 -.608704345098962D+03 0.109348093365486D+03
 0.255568921723424D+03 -.416499058020610D+02 0.201339984053016D+02 -.251347132877557D+03
 0.588726632029203D+03 0.184488252414382D+03 0.538386652407219D+03 0.150674963053865D+03
 0.539220544829805D+02 -.177175940276176D+02 0.501836942864412D+02 -.867592354179390D+01
-.125512256692D-07 0.000000000000D+00 0.000000000000D+00 0.121479397180D-05 0.000000000000D+00  6 -2 2 25 1 -1 21 2 0.69964975D-01 0.20095370D+00 0.42411174D+06 0.42411174D+06 0.42411174D+06 0.10735999D+01  1  2 13  4  6  5       -1 -.563518625674D-07 0.100000000000D+01
-.499760267229D-03 0.000000000000D+00 0.000000000000D+00 0.121479397180D-05 0.000000000000D+00  6 -2 2 25 1 -1 21 2 0.69964975D-01 0.20095370D+00 0.42411174D+06 0.42411174D+06 0.42411174D+06 0.10735999D+01  1  2 13  4  6  5       -1 -.224379854507D-02 0.100000000000D+01
-.280832547887D-04 0.000000000000D+00 0.000000000000D+00 0.121479397180D-05 0.000000000000D+00  6 -2 2 25 1 -1 21 2 0.69964975D-01 0.20095370D+00 0.42626968D+06 0.42626968D+06 0.42626968D+06 0.10734418D+01  1  2  8  4  6  5       -1 -.126020823051D-03 0.100000000000D+01
0.185490390264D-03 0.000000000000D+00 0.000000000000D+00 0.121479397180D-05 0.288431912026D-08  6 -2 2 25 1 -1 21 2 0.69964975D-01 0.20095370D+00 0.42411174D+06 0.42411174D+06 0.42411174D+06 0.10735999D+01  1  2  1  4  6  5       -1 0.832805437109D-03 0.100000000000D+01
  </mgrwgt>
  </event>
  <event>
  6     66 0.17652913E-05 0.35390068E+02 0.75467711E-02 0.92317164E-01
       21 -1    0    0  503  501 0.00000000E+00 0.00000000E+00 0.17967147E+04 0.17967148E+04 0.75000000E+00 0.0000E+00 0.9000E+01
        2 -1    0    0  502    0 0.00000000E+00 0.00000000E+00 -.22318043E+04 0.22318043E+04 0.32000000E+00 0.0000E+00 0.9000E+01
       25  1    1    2    0    0 -.47903017E+03 0.36901050E+03 0.16776325E+03 0.63985011E+03 0.12500000E+03 0.0000E+00 0.9000E+01
        1  1    1    2  502    0 0.46701590E+03 -.33069519E+03 -.19543859E+04 0.20364399E+04 0.32000000E+00 0.0000E+00 0.9000E+01
        2  1    1    2  503    0 0.80375878E+01 -.67040325E+01 0.47940161E+03 0.47951596E+03 0.32000000E+00 0.0000E+00 0.9000E+01
       -1  1    1    2    0  501 0.39766822E+01 -.31611268E+02 0.87213136E+03 0.87271319E+03 0.32000000E+00 0.0000E+00 0.9000E+01
#aMCatNLO 2  0  0  1  5 0.10466464D+02 0.00000000D+00  -5  6  0 0.00000000D+00 0.00000000D+00 0.00000000D+00 0.00000000D+00 0.00000000D+00
  <mgrwgt>
 0.3494786340D-01    3    2    0
 0.171457135931554D+04 0.000000000000000D+00 0.000000000000000D+00 0.171457135931554D+04
 0.171457135931554D+04 0.000000000000000D+00 0.000000000000000D+00 -.171457135931554D+04
 0.705197538392312D+03 -.477415832412178D+03 0.367656845923472D+03 0.344356116197124D+03
 0.158817462339116D+04 0.470777456550548D+03 -.333827988876853D+03 -.147960335719742D+04
 0.000000000000000D+00 0.000000000000000D+00 -.000000000000000D+00 0.000000000000000D+00
 0.113577055684762D+04 0.663837586162967D+01 -.338288570466190D+02 0.113524724100030D+04
 0.233865703398001D+04 0.000000000000000D+00 0.000000000000000D+00 0.233865703398001D+04
 0.171462322926524D+04 0.000000000000000D+00 0.000000000000000D+00 -.171462322926524D+04
 0.707038616371933D+03 -.479070902877166D+03 0.369037315586415D+03 0.344356116197124D+03
 0.158642592361913D+04 0.467056982757431D+03 -.330724797011719D+03 -.147960335719742D+04
 0.624121571727785D+03 0.803758781109708D+01 -.670403246942347D+01 0.624033804714767D+03
 0.113569415152641D+04 0.397633230863733D+01 -.316084861052726D+02 0.113524724100030D+04
-.933649745635D-10 0.000000000000D+00 0.000000000000D+00 0.105051149722D-02 0.000000000000D+00  6 21 2 25 1 2 -1 2 0.27641990D+00 0.34334413D+00 0.37953720D+06 0.37953720D+06 0.37953720D+06 0.10770755D+01  1  2 13  5  5  1       -2 -.198103011470D-10 0.100000000000D+01
-.221659239459D+00 0.000000000000D+00 0.000000000000D+00 0.105051149722D-02 0.000000000000D+00  6 21 2 25 1 2 -1 2 0.29792255D+00 0.34334413D+00 0.37953720D+06 0.37953720D+06 0.37953720D+06 0.10770755D+01  1  2 13  5  5  1       -2 -.338048185739D-01 0.100000000000D+01
0.324045044208D+00 0.000000000000D+00 0.000000000000D+00 0.105051149722D-02 0.339064878480D-05  6 21 2 25 1 2 -1 2 0.27641765D+00 0.34335451D+00 0.37953720D+06 0.37953720D+06 0.37953720D+06 0.10770755D+01  1  2  1  5  5  1       -2 0.687526819890D-01 0.100000000000D+01
  </mgrwgt>
  </event>
  <event>
  6     66 0.17652913E-05 0.15744859E+03 0.75467711E-02 0.94985866E-01
       -2 -1    0    0    0  501 0.00000000E+00 0.00000000E+00 0.73304467E+03 0.73304474E+03 0.32000000E+00 0.0000E+00 0.9000E+01
        2 -1    0    0  502    0 -.00000000E+00 -.00000000E+00 -.23054118E+04 0.23054118E+04 0.32000000E+00 0.0000E+00 0.9000E+01
       25  1    1    2    0    0 -.45853479E+03 0.10184309E+03 -.22500304E+03 0.53560950E+03 0.12500000E+03 0.0000E+00 0.9000E+01
        1  1    1    2  503    0 0.25246360E+03 -.10309254E+03 -.64242696E+03 0.69791005E+03 0.32000000E+00 0.0000E+00 0.9000E+01
       -1  1    1    2    0  501 0.31782918E+02 0.15141400E+02 0.54333751E+03 0.54447696E+03 0.32000000E+00 0.0000E+00 0.9000E+01
       21  1    1    2  502  503 0.17428827E+03 -.13891952E+02 -.12482746E+04 0.12604600E+04 0.75000000E+00 0.0000E+00 0.9000E+01
#aMCatNLO 2  0  0  4  4 0.17515081D+03 0.00000000D+00  -5  6  0 0.00000000D+00 0.00000000D+00 0.00000000D+00 0.00000000D+00 0.00000000D+00
  <mgrwgt>
 0.3866723309D-01    1    2    0
 0.129998845154770D+04 0.000000000000000D+00 0.000000000000000D+00 0.129998845154770D+04
 0.129998845154770D+04 -.000000000000000D+00 -.000000000000000D+00 -.129998845154770D+04
 0.492601793020924D+03 -.460637428443715D+03 0.102420106910251D+03 0.659909668415514D+02
 0.113279433604773D+04 0.432953032454717D+03 -.118684028842351D+03 -.104004268218560D+04
 0.974580774026748D+03 0.276843959889988D+02 0.162639219321007D+02 0.974051715344050D+03
 0.000000000000000D+00 0.000000000000000D+00 0.000000000000000D+00 -.000000000000000D+00
 0.129998845154770D+04 0.000000000000000D+00 0.000000000000000D+00 0.129998845154770D+04
 0.129998845154770D+04 -.000000000000000D+00 -.000000000000000D+00 -.129998845154770D+04
 0.489898046692186D+03 -.458562531090814D+03 0.101851321940942D+03 0.610066344858309D+02
 0.426718902784560D+03 0.252289939867113D+03 -.103031761571969D+03 -.328364529666169D+03
 0.964855139845412D+03 0.317802037246929D+02 0.151411512687801D+02 0.964212738494770D+03
 0.718504813773240D+03 0.174492387499008D+03 -.139607116377536D+02 -.696854843314432D+03
0.868396468262D-01 0.000000000000D+00 0.000000000000D+00 0.952914135298D-03 0.197221427391D-06  6 -2 2 25 1 -1 21 2 0.11277611D+00 0.35467875D+00 0.23466993D+06 0.23466993D+06 0.23466993D+06 0.10925327D+01  1  2  1  3  6  4        1 0.386672330948D-01 0.100000000000D+01
  </mgrwgt>
  </event>
  <event>
  5     66 0.17652913E-05 0.52843919E+02 0.75467711E-02 0.88134345E-01
       -2 -1    0    0    0  501 0.00000000E+00 0.00000000E+00 0.15447815E+04 0.15447815E+04 0.32000000E+00 0.0000E+00 0.9000E+01
        2 -1    0    0  502    0 0.00000000E+00 0.00000000E+00 -.77293955E+03 0.77293962E+03 0.32000000E+00 0.0000E+00 0.9000E+01
       25  1    1    2    0    0 -.39385012E+03 0.33283840E+03 0.37379954E+03 0.64903807E+03 0.12500000E+03 0.0000E+00 0.9000E+01
        1  1    1    2  502    0 0.48875007E+02 0.20075142E+02 -.57511700E+03 0.57753912E+03 0.32000000E+00 0.0000E+00 0.9000E+01
       -1  1    1    2    0  501 0.34497512E+03 -.35291355E+03 0.97315941E+03 0.10911440E+04 0.32000000E+00 0.0000E+00 0.9000E+01
#aMCatNLO 1  0  0  4  2 0.20177704D+03 0.00000000D+00  -5  6  0 0.00000000D+00 0.00000000D+00 0.00000000D+00 0.00000000D+00 0.00000000D+00
  <mgrwgt>
 0.1108748905D-01    4    2    0
 0.109271352171209D+04 0.000000000000000D+00 0.000000000000000D+00 0.109271352171209D+04
 0.109271352171209D+04 -.000000000000000D+00 -.000000000000000D+00 -.109271352171209D+04
 0.556311355672094D+03 -.393827837859685D+03 0.332806935610852D+03 0.167321553261389D+03
 0.815684267401446D+03 0.488812503752658D+02 0.200774272316317D+02 -.813970726969799D+03
 0.813431420350641D+03 0.344946587484419D+03 -.352884362842483D+03 0.646649173708410D+03
 0.000000000000000D+00 -.000000000000000D+00 0.000000000000000D+00 0.000000000000000D+00
 0.109271352171209D+04 0.000000000000000D+00 0.000000000000000D+00 0.109271352171209D+04
 0.109271352171209D+04 -.000000000000000D+00 -.000000000000000D+00 -.109271352171209D+04
 0.528459484652463D+03 -.386207605375151D+03 0.335936860930311D+03 0.404294192121043D+02
 0.495953198375882D+03 0.269608386593672D+03 -.318472089509064D+03 -.268060480230403D+03
 0.685554157689670D+03 0.355476570565650D+03 -.348559289988563D+03 0.471303864048605D+03
 0.475460202706166D+03 -.238877351784172D+03 0.331094518567317D+03 -.243672803030307D+03
0.600307822465D-01 0.000000000000D+00 0.000000000000D+00 0.994434881492D-04 0.000000000000D+00  6 -2 2 25 1 -1 21 0 0.23765870D+00 0.11891378D+00 0.28991183D+06 0.28991183D+06 0.28991183D+06 0.10856526D+01  1  2  2  3  6  4        1 0.191614926723D-01 0.100000000000D+01
0.270871206347D-01 0.000000000000D+00 -.230534010295D-03 0.994434881492D-04 0.000000000000D+00  6 -2 2 25 1 -1 21 2 0.23765870D+00 0.11891378D+00 0.28991183D+06 0.28991183D+06 0.28991183D+06 0.10856526D+01  1  2  3  3  6  4        1 0.101906048922D-01 0.100000000000D+01
-.471348266868D-01 0.000000000000D+00 0.000000000000D+00 0.994434881492D-04 0.000000000000D+00  6 -2 2 25 1 -1 21 2 0.23765870D+00 0.11891378D+00 0.28991183D+06 0.28991183D+06 0.28991183D+06 0.10856526D+01  1  2 15  3  6  4        1 -.177328702413D-01 0.100000000000D+01
-.141338603943D-02 0.000000000000D+00 0.000000000000D+00 0.994434881492D-04 0.000000000000D+00  6 -2 2 25 1 -1 21 2 0.23765870D+00 0.11891378D+00 0.28991183D+06 0.28991183D+06 0.28991183D+06 0.10856526D+01  1  2  4  3  6  4        1 -.531738270825D-03 0.100000000000D+01
  </mgrwgt>
  </event>
  <event>
  5     66 0.17652913E-05 0.20301602E+02 0.75467711E-02 0.92938896E-01
       -2 -1    0    0    0  501 0.00000000E+00 0.00000000E+00 0.38491288E+03 0.38491301E+03 0.32000000E+00 0.0000E+00 0.9000E+01
        2 -1    0    0  502    0 0.00000000E+00 0.00000000E+00 -.10762598E+04 0.10762599E+04 0.32000000E+00 0.0000E+00 0.9000E+01
       25  1    1    2    0    0 0.25087398E+03 -.39033457E+03 -.59714854E+03 0.76649214E+03 0.12500000E+03 0.0000E+00 0.9000E+01
        1  1    1    2  502    0 -.23225787E+03 0.38220738E+03 -.26687360E+03 0.52081457E+03 0.32000000E+00 0.0000E+00 0.9000E+01
       -1  1    1    2    0  501 -.18616104E+02 0.81271907E+01 0.17267521E+03 0.17386616E+03 0.32000000E+00 0.0000E+00 0.9000E+01
#aMCatNLO 1  0  0  1  5 0.32703587D+02 0.00000000D+00  -5  6  0 0.00000000D+00 0.00000000D+00 0.00000000D+00 0.00000000D+00 0.00000000D+00
  <mgrwgt>
 0.7127794178D-02    7    4    0
 0.643635295819734D+03 0.000000000000000D+00 0.000000000000000D+00 0.643635295819734D+03
 0.643635295819734D+03 0.000000000000000D+00 0.000000000000000D+00 -.643635295819734D+03
 0.549385778601064D+03 0.250926916788920D+03 -.390423592576389D+03 -.266091778376653D+03
 0.447953096798745D+03 -.232321091230904D+03 0.382300889269638D+03 -.231282849453252D+02
 0.289931716239658D+03 -.186058255580159D+02 0.812270330675169D+01 0.289220063321978D+03
 0.000000000000000D+00 -.000000000000000D+00 -.000000000000000D+00 0.000000000000000D+00
 0.785094061543863D+03 0.000000000000000D+00 0.000000000000000D+00 0.785094061543863D+03
 0.716481093466041D+03 0.000000000000000D+00 0.000000000000000D+00 -.716481093466041D+03
 0.566196625313263D+03 0.325452866878195D+03 -.358091071429101D+03 -.266091778376653D+03
 0.443801906166265D+03 -.172747823841921D+03 0.408146301845526D+03 -.231282849453252D+02
 0.290997216158766D+03 0.202028545264238D+02 0.249595563495560D+02 0.289220063321978D+03
 0.200579407371610D+03 -.172907897562698D+03 -.750147867659812D+02 0.686129680778221D+02
 0.643635295819734D+03 0.000000000000000D+00 0.000000000000000D+00 0.643635295819734D+03
 0.643635295819734D+03 0.000000000000000D+00 0.000000000000000D+00 -.643635295819734D+03
 0.549385778601064D+03 0.250926916788920D+03 -.390423592576389D+03 -.266091778376653D+03
 0.447953096798745D+03 -.232321091230904D+03 0.382300889269638D+03 -.231282849453252D+02
 0.000000000000000D+00 -.000000000000000D+00 -.000000000000000D+00 0.000000000000000D+00
 0.289931716239658D+03 -.186058255580159D+02 0.812270330675169D+01 0.289220063321978D+03
 0.785094061543863D+03 0.000000000000000D+00 0.000000000000000D+00 0.785094061543863D+03
 0.716481093466041D+03 0.000000000000000D+00 0.000000000000000D+00 -.716481093466041D+03
 0.566196625313263D+03 0.325452866878195D+03 -.358091071429101D+03 -.266091778376653D+03
 0.443801906166265D+03 -.172747823841921D+03 0.408146301845526D+03 -.231282849453252D+02
 0.200579407371610D+03 -.172907897562698D+03 -.750147867659812D+02 0.686129680778221D+02
 0.290997216158766D+03 0.202028545264238D+02 0.249595563495560D+02 0.289220063321978D+03
0.451980643721D-03 0.000000000000D+00 0.000000000000D+00 0.338993385215D-05 0.000000000000D+00  6 -2 2 25 1 -1 21 0 0.59217380D-01 0.16557845D+00 0.22481942D+06 0.22481942D+06 0.22481942D+06 0.10939447D+01  1  2  2  1  6  1       -2 0.350031806990D-02 0.100000000000D+01
0.264582479582D-03 0.000000000000D+00 -.173572468113D-05 0.338993385215D-05 0.000000000000D+00  6 -2 2 25 1 -1 21 2 0.59217380D-01 0.16557845D+00 0.22481942D+06 0.22481942D+06 0.22481942D+06 0.10939447D+01  1  2  3  1  6  1       -2 0.245210744628D-02 0.100000000000D+01
-.313795230170D-03 0.000000000000D+00 0.000000000000D+00 0.338993385215D-05 0.000000000000D+00  6 -2 2 25 1 -1 21 2 0.59217380D-01 0.16557845D+00 0.22481942D+06 0.22481942D+06 0.22481942D+06 0.10939447D+01  1  2 15  1  6  1       -2 -.290820322541D-02 0.100000000000D+01
-.636440841909D-04 0.000000000000D+00 0.000000000000D+00 0.338993385215D-05 0.000000000000D+00  6 -2 2 25 1 -1 21 2 0.59217380D-01 0.16557845D+00 0.22481942D+06 0.22481942D+06 0.22481942D+06 0.10939447D+01  1  2  4  1  6  1       -2 -.589843034968D-03 0.100000000000D+01
-.127886526017D-02 0.000000000000D+00 -.500567223910D-03 0.338993385215D-05 0.000000000000D+00  6 -2 2 25 1 -1 21 2 0.79136666D-01 0.16557845D+00 0.22481942D+06 0.22481942D+06 0.22481942D+06 0.10939447D+01  1  2  5  1  6  1       -2 -.635875768392D-02 0.100000000000D+01
0.138567923335D-02 0.000000000000D+00 0.480236817777D-03 0.338993385215D-05 0.000000000000D+00  6 -2 2 25 1 -1 21 2 0.59217380D-01 0.16557845D+00 0.22481942D+06 0.22481942D+06 0.22481942D+06 0.10939447D+01  1  2  6  1  6  1       -2 0.128422500675D-01 0.100000000000D+01
-.375894359805D-04 0.000000000000D+00 -.188789277064D-04 0.338993385215D-05 0.000000000000D+00  6 21 2 25 1 2 -1 2 0.79136666D-01 0.16557845D+00 0.22481942D+06 0.22481942D+06 0.22481942D+06 0.10939447D+01  3  4  5  5  5  1       -2 -.181007746100D-02 0.100000000000D+01
  </mgrwgt>
  </event>
  <event>
  5     66 0.17652913E-05 0.38212434E+03 0.75467711E-02 0.87488887E-01
       -2 -1    0    0    0  501 0.00000000E+00 0.00000000E+00 0.15880558E+04 0.15880558E+04 0.32000000E+00 0.0000E+00 0.9000E+01
        2 -1    0    0  502    0 0.00000000E+00 0.00000000E+00 -.18031106E+04 0.18031107E+04 0.32000000E+00 0.0000E+00 0.9000E+01
       25  1    1    2    0    0 -.71616193E+01 -.83723268E+03 -.10866840E+03 0.85348911E+03 0.12500000E+03 0.0000E+00 0.9000E+01
        1  1    1    2  502    0 0.20789641E+03 0.37048676E+03 -.12317395E+04 0.13029443E+04 0.32000000E+00 0.0000E+00 0.9000E+01
       -1  1    1    2    0  501 -.20073479E+03 0.46674592E+03 0.11253531E+04 0.12347331E+04 0.32000000E+00 0.0000E+00 0.9000E+01
#aMCatNLO 1  0  0  1  2 0.29418540D+03 0.00000000D+00  -5  6  0 0.00000000D+00 0.00000000D+00 0.00000000D+00 0.00000000D+00 0.00000000D+00
  <mgrwgt>
 0.4785990933D-04    9    4    0
 0.169217033266675D+04 0.000000000000000D+00 0.000000000000000D+00 0.169217033266675D+04
 0.169217033266675D+04 0.000000000000000D+00 0.000000000000000D+00 -.169217033266675D+04
 0.848312331617813D+03 -.718628877244362D+01 -.837246361280409D+03 -.545499748051644D+02
 0.122735836788019D+04 0.207911413469726D+03 0.370522908522056D+03 -.115147478548812D+04
 0.130866996583550D+04 -.200725124697283D+03 0.466723452758354D+03 0.120602476029328D+04
 0.000000000000000D+00 0.000000000000000D+00 0.000000000000000D+00 0.000000000000000D+00
 0.272548255785581D+04 0.000000000000000D+00 0.000000000000000D+00 0.272548255785581D+04
 0.171962020623058D+04 0.000000000000000D+00 0.000000000000000D+00 -.171962020623058D+04
 0.914845047393502D+03 -.454413735564326D+02 -.903479851772290D+03 -.545499748051644D+02
 0.119505746317872D+04 0.155352450723474D+03 0.279524193476102D+03 -.115147478548812D+04
 0.128720019489343D+04 -.257047512176157D+03 0.369208878248160D+03 0.120602476029328D+04
 0.104800005862074D+04 0.147136435009116D+03 0.254746780048028D+03 0.100586235162523D+04
 0.169217033266675D+04 0.000000000000000D+00 0.000000000000000D+00 0.169217033266675D+04
 0.169217033266675D+04 0.000000000000000D+00 0.000000000000000D+00 -.169217033266675D+04
 0.848312331617813D+03 -.718628877244362D+01 -.837246361280409D+03 -.545499748051644D+02
 0.122735836788019D+04 0.207911413469726D+03 0.370522908522056D+03 -.115147478548812D+04
 0.000000000000000D+00 0.000000000000000D+00 0.000000000000000D+00 0.000000000000000D+00
 0.130866996583550D+04 -.200725124697283D+03 0.466723452758354D+03 0.120602476029328D+04
 0.272548255785581D+04 0.000000000000000D+00 0.000000000000000D+00 0.272548255785581D+04
 0.171962020623058D+04 0.000000000000000D+00 0.000000000000000D+00 -.171962020623058D+04
 0.914845047393502D+03 -.454413735564326D+02 -.903479851772290D+03 -.545499748051644D+02
 0.119505746317872D+04 0.155352450723474D+03 0.279524193476102D+03 -.115147478548812D+04
 0.104800005862074D+04 0.147136435009116D+03 0.254746780048028D+03 0.100586235162523D+04
 0.128720019489343D+04 -.257047512176157D+03 0.369208878248160D+03 0.120602476029328D+04
0.200494637349D-03 0.000000000000D+00 0.000000000000D+00 0.991210268131D-06 0.000000000000D+00  6 -2 2 25 1 -1 21 0 0.24431628D+00 0.27740164D+00 0.79163986D+06 0.79163986D+06 0.79163986D+06 0.10546862D+01  1  2  2  1  6  1       -2 0.131994720510D-04 0.100000000000D+01
0.177699875640D-04 0.000000000000D+00 -.769952198870D-06 0.991210268131D-06 0.000000000000D+00  6 -2 2 25 1 -1 21 2 0.24431628D+00 0.27740164D+00 0.79163986D+06 0.79163986D+06 0.79163986D+06 0.10546862D+01  1  2  3  1  6  1       -2 0.130132994623D-05 0.100000000000D+01
-.167080571372D-03 0.000000000000D+00 0.000000000000D+00 0.991210268131D-06 0.000000000000D+00  6 -2 2 25 1 -1 21 2 0.24431628D+00 0.27740164D+00 0.79163986D+06 0.79163986D+06 0.79163986D+06 0.10546862D+01  1  2 15  1  6  1       -2 -.122356276377D-04 0.100000000000D+01
0.903333854545D-09 0.000000000000D+00 0.000000000000D+00 0.991210268131D-06 0.000000000000D+00  6 -2 2 25 1 -1 21 2 0.39446266D+00 0.27740164D+00 0.97720424D+06 0.97720424D+06 0.97720424D+06 0.10485313D+01  1  2 12  1  6  1       -2 0.628646557969D-11 0.100000000000D+01
-.907151853188D-03 0.000000000000D+00 0.000000000000D+00 0.991210268131D-06 0.000000000000D+00  6 -2 2 25 1 -1 21 2 0.24431628D+00 0.27740164D+00 0.79163986D+06 0.79163986D+06 0.79163986D+06 0.10546862D+01  1  2  4  1  6  1       -2 -.664324534884D-04 0.100000000000D+01
-.192264691888D-02 0.000000000000D+00 -.126167518259D-03 0.991210268131D-06 0.000000000000D+00  6 -2 2 25 1 -1 21 2 0.39505431D+00 0.27740164D+00 0.79163986D+06 0.79163986D+06 0.79163986D+06 0.10546862D+01  1  2  5  1  6  1       -2 -.137271079245D-04 0.100000000000D+01
0.178630256756D-02 0.000000000000D+00 0.112880559328D-03 0.991210268131D-06 0.000000000000D+00  6 -2 2 25 1 -1 21 2 0.24431628D+00 0.27740164D+00 0.79163986D+06 0.79163986D+06 0.79163986D+06 0.10546862D+01  1  2  6  1  6  1       -2 0.130814330389D-03 0.100000000000D+01
0.492510602391D-10 0.000000000000D+00 0.000000000000D+00 0.991210268131D-06 0.000000000000D+00  6 21 2 25 1 2 -1 2 0.39446266D+00 0.27740164D+00 0.97720424D+06 0.97720424D+06 0.97720424D+06 0.10485313D+01  3  4 12  5  5  1       -2 0.241985112964D-11 0.100000000000D+01
-.996437343913D-04 0.000000000000D+00 -.689556387918D-05 0.991210268131D-06 0.000000000000D+00  6 21 2 25 1 2 -1 2 0.39505431D+00 0.27740164D+00 0.79163986D+06 0.79163986D+06 0.79163986D+06 0.10546862D+01  3  4  5  5  5  1       -2 -.506004271157D-05 0.100000000000D+01
  </mgrwgt>
  </event>
  <event>
  5     66 -.17652913E-05 0.89948956E+02 0.75467711E-02 0.92378897E-01
       -2 -1    0    0    0  501 0.00000000E+00 0.00000000E+00 0.39209808E+03 0.39209821E+03 0.32000000E+00 0.0000E+00 0.9000E+01
        2 -1    0    0  502    0 -.00000000E+00 -.00000000E+00 -.29756606E+04 0.29756606E+04 0.32000000E+00 0.0000E+00 0.9000E+01
       25  1    1    2    0    0 -.40165655E+03 0.34212973E+03 -.12252444E+04 0.13398618E+04 0.12500000E+03 0.0000E+00 0.9000E+01
        1  1    1    2  502    0 0.49161416E+03 -.34204100E+03 -.16327364E+04 0.17391103E+04 0.32000000E+00 0.0000E+00 0.9000E+01
       -1  1    1    2    0  501 -.89957603E+02 -.88738031E-01 0.27441818E+03 0.28878681E+03 0.32000000E+00 0.0000E+00 0.9000E+01
#aMCatNLO 1  0  0  4  2 0.44081146D+02 0.00000000D+00  -5  6  0 0.00000000D+00 0.00000000D+00 0.00000000D+00 0.00000000D+00 0.00000000D+00
  <mgrwgt>
 -.8614997324D-02    8    2    0
 0.108016251991231D+04 0.000000000000000D+00 0.000000000000000D+00 0.108016251991231D+04
 0.108016251991231D+04 -.000000000000000D+00 -.000000000000000D+00 -.108016251991231D+04
 0.623492438536095D+03 -.401718463957039D+03 0.342173434635081D+03 -.307664488132308D+03
 0.758533862000456D+03 0.491667376058651D+03 -.342084705177432D+03 -.465419021532853D+03
 0.778298739288059D+03 -.899489121016111D+02 -.887294576497775D-01 0.773083509665160D+03
 0.000000000000000D+00 0.000000000000000D+00 0.000000000000000D+00 -.000000000000000D+00
 0.108016251991231D+04 0.000000000000000D+00 0.000000000000000D+00 0.108016251991231D+04
 0.108016251991231D+04 -.000000000000000D+00 -.000000000000000D+00 -.108016251991231D+04
 0.622299536252405D+03 -.399570880379167D+03 0.340679222224713D+03 -.309697419939754D+03
 0.660275067532676D+03 0.458719759316991D+03 -.292819710195914D+03 -.373892985409224D+03
 0.775476726329870D+03 -.872704049822921D+02 -.195233961940796D+01 0.770547998416406D+03
 0.102273709709659D+03 0.281215260444689D+02 -.459071724093902D+02 -.869575930674281D+02
0.960747668420D-03 0.000000000000D+00 0.000000000000D+00 0.864629317941D-05 0.000000000000D+00  6 -2 2 25 1 -1 21 0 0.60322793D-01 0.45779395D+00 0.37896957D+06 0.37896957D+06 0.37896957D+06 0.10771226D+01  1  2  2  3  6  4        1 0.575448737426D-03 0.100000000000D+01
0.285091994059D-03 0.000000000000D+00 -.368952401740D-05 0.864629317941D-05 0.000000000000D+00  6 -2 2 25 1 -1 21 2 0.60322793D-01 0.45779395D+00 0.37896957D+06 0.37896957D+06 0.37896957D+06 0.10771226D+01  1  2  3  3  6  4        1 0.198112833166D-03 0.100000000000D+01
-.723443680089D-03 0.000000000000D+00 0.000000000000D+00 0.864629317941D-05 0.000000000000D+00  6 -2 2 25 1 -1 21 2 0.60322793D-01 0.45779395D+00 0.37896957D+06 0.37896957D+06 0.37896957D+06 0.10771226D+01  1  2 15  3  6  4        1 -.502727119966D-03 0.100000000000D+01
0.477479252056D-08 0.000000000000D+00 0.000000000000D+00 0.864629317941D-05 0.000000000000D+00  6 -2 2 25 1 -1 21 2 0.60322793D-01 0.45779395D+00 0.37521969D+06 0.37521969D+06 0.37521969D+06 0.10774356D+01  1  2 12  3  6  4        1 0.332252685259D-08 0.100000000000D+01
0.118267969226D-01 0.000000000000D+00 0.000000000000D+00 0.864629317941D-05 0.000000000000D+00  6 -2 2 25 1 -1 21 2 0.60322793D-01 0.45779395D+00 0.37521969D+06 0.37521969D+06 0.37521969D+06 0.10774356D+01  1  2 12  3  6  4        1 0.822964562046D-02 0.100000000000D+01
-.264158504980D-01 0.000000000000D+00 0.000000000000D+00 0.864629317941D-05 0.000000000000D+00  6 -2 2 25 1 -1 21 2 0.60322793D-01 0.45779395D+00 0.37896957D+06 0.37896957D+06 0.37896957D+06 0.10771226D+01  1  2  4  3  6  4        1 -.183565974903D-01 0.100000000000D+01
-.124178907550D-01 0.000000000000D+00 0.000000000000D+00 0.864629317941D-05 0.000000000000D+00  6 -2 2 25 1 -1 21 2 0.60322793D-01 0.45779395D+00 0.37896957D+06 0.37896957D+06 0.37896957D+06 0.10771226D+01  1  2  5  3  6  4        1 -.862929710651D-02 0.100000000000D+01
0.142039055719D-01 0.000000000000D+00 -.000000000000D+00 0.864629317941D-05 0.000000000000D+00  6 -2 2 25 1 -1 21 2 0.60322793D-01 0.45779395D+00 0.37896957D+06 0.37896957D+06 0.37896957D+06 0.10771226D+01  1  2  6  3  6  4        1 0.987041387873D-02 0.100000000000D+01
  </mgrwgt>
  </event>
  <event>
  5     66 0.17652913E-05 0.15338587E+02 0.75467711E-02 0.87284269E-01
       -2 -1    0    0    0  501 0.00000000E+00 0.00000000E+00 0.66831727E+03 0.66831735E+03 0.32000000E+00 0.0000E+00 0.9000E+01
        2 -1    0    0  502    0 0.00000000E+00 0.00000000E+00 -.21737183E+04 0.21737183E+04 0.32000000E+00 0.0000E+00 0.9000E+01
       25  1    1    2    0    0 0.81100392E+03 0.71105582E+02 -.32569146E+03 0.88571061E+03 0.12500000E+03 0.0000E+00 0.9000E+01
        1  1    1    2  502    0 -.81052996E+03 -.86442189E+02 -.14618598E+04 0.16737578E+04 0.32000000E+00 0.0000E+00 0.9000E+01
       -1  1    1    2    0  501 -.47396154E+00 0.15336607E+02 0.28215019E+03 0.28256728E+03 0.32000000E+00 0.0000E+00 0.9000E+01
#aMCatNLO 1  0  0  1  5 0.50329947D+00 0.00000000D+00  -5  6  0 0.00000000D+00 0.00000000D+00 0.00000000D+00 0.00000000D+00 0.00000000D+00
  <mgrwgt>
 0.1198911485D-01    7    4    0
 0.120529400384368D+04 0.000000000000000D+00 0.000000000000000D+00 0.120529400384368D+04
 0.120529400384368D+04 0.000000000000000D+00 0.000000000000000D+00 -.120529400384368D+04
 0.840970228221834D+03 0.811108107444230D+03 0.711200406958963D+02 0.169267547406872D+03
 0.106045247307327D+04 -.810634310909472D+03 -.864513083340987D+02 -.678201764160831D+03
 0.509165306392252D+03 -.473796534757348D+00 0.153312676382023D+02 0.508934216753959D+03
 0.000000000000000D+00 -.000000000000000D+00 0.000000000000000D+00 0.000000000000000D+00
 0.144741933275097D+04 0.000000000000000D+00 0.000000000000000D+00 0.144741933275097D+04
 0.133160109588872D+04 0.000000000000000D+00 0.000000000000000D+00 -.133160109588872D+04
 0.957303940085852D+03 0.931903217914805D+03 0.609157084731924D+02 0.169267547406872D+03
 0.961717980397763D+03 -.674799460127379D+03 -.979261431962228D+02 -.678201764160831D+03
 0.513575386516232D+03 0.682265591506582D+02 0.952771109935816D+01 0.508934216753959D+03
 0.346423121639837D+03 -.325330316938084D+03 0.274827236236722D+02 0.115818236862249D+03
 0.120529400384368D+04 0.000000000000000D+00 0.000000000000000D+00 0.120529400384368D+04
 0.120529400384368D+04 0.000000000000000D+00 0.000000000000000D+00 -.120529400384368D+04
 0.840970228221834D+03 0.811108107444230D+03 0.711200406958963D+02 0.169267547406872D+03
 0.106045247307327D+04 -.810634310909472D+03 -.864513083340987D+02 -.678201764160831D+03
 0.000000000000000D+00 -.000000000000000D+00 0.000000000000000D+00 0.000000000000000D+00
 0.509165306392252D+03 -.473796534757348D+00 0.153312676382023D+02 0.508934216753959D+03
 0.144741933275097D+04 0.000000000000000D+00 0.000000000000000D+00 0.144741933275097D+04
 0.133160109588872D+04 0.000000000000000D+00 0.000000000000000D+00 -.133160109588872D+04
 0.957303940085852D+03 0.931903217914805D+03 0.609157084731924D+02 0.169267547406872D+03
 0.961717980397763D+03 -.674799460127379D+03 -.979261431962228D+02 -.678201764160831D+03
 0.346423121639837D+03 -.325330316938084D+03 0.274827236236722D+02 0.115818236862249D+03
 0.513575386516232D+03 0.682265591506582D+02 0.952771109935816D+01 0.508934216753959D+03
0.850590939830D-02 0.000000000000D+00 0.000000000000D+00 0.303923600013D-04 0.000000000000D+00  6 -2 2 25 1 -1 21 0 0.10281805D+00 0.33441821D+00 0.68420115D+06 0.68420115D+06 0.68420115D+06 0.10590147D+01  1  2  2  1  6  1       -2 0.437254232866D-02 0.100000000000D+01
0.824647149867D-02 0.000000000000D+00 -.326649317468D-04 0.303923600013D-04 0.000000000000D+00  6 -2 2 25 1 -1 21 2 0.10281805D+00 0.33441821D+00 0.68420115D+06 0.68420115D+06 0.68420115D+06 0.10590147D+01  1  2  3  1  6  1       -2 0.475428677335D-02 0.100000000000D+01
-.543030660299D-02 0.000000000000D+00 0.000000000000D+00 0.303923600013D-04 0.000000000000D+00  6 -2 2 25 1 -1 21 2 0.10281805D+00 0.33441821D+00 0.68420115D+06 0.68420115D+06 0.68420115D+06 0.10590147D+01  1  2 15  1  6  1       -2 -.313070079270D-02 0.100000000000D+01
-.746944879150D-03 0.000000000000D+00 0.000000000000D+00 0.303923600013D-04 0.000000000000D+00  6 -2 2 25 1 -1 21 2 0.10281805D+00 0.33441821D+00 0.68420115D+06 0.68420115D+06 0.68420115D+06 0.10590147D+01  1  2  4  1  6  1       -2 -.430631471889D-03 0.100000000000D+01
-.242952117128D-01 0.000000000000D+00 -.951009793346D-02 0.303923600013D-04 0.000000000000D+00  6 -2 2 25 1 -1 21 2 0.13466159D+00 0.33441821D+00 0.68420115D+06 0.68420115D+06 0.68420115D+06 0.10590147D+01  1  2  5  1  6  1       -2 -.701468609346D-02 0.100000000000D+01
0.262362854829D-01 0.000000000000D+00 0.917415496842D-02 0.303923600013D-04 0.000000000000D+00  6 -2 2 25 1 -1 21 2 0.10281805D+00 0.33441821D+00 0.68420115D+06 0.68420115D+06 0.68420115D+06 0.10590147D+01  1  2  6  1  6  1       -2 0.151258420130D-01 0.100000000000D+01
-.689176877162D-03 0.000000000000D+00 -.340368159382D-03 0.303923600013D-04 0.000000000000D+00  6 21 2 25 1 2 -1 2 0.13466159D+00 0.33441821D+00 0.68420115D+06 0.68420115D+06 0.68420115D+06 0.10590147D+01  3  4  5  5  5  1       -2 -.168753790738D-02 0.100000000000D+01
  </mgrwgt>
  </event>
  <event>
  5     66 -.17652913E-05 0.33575110E+02 0.75467711E-02 0.94343354E-01
       -2 -1    0    0    0  501 0.00000000E+00 0.00000000E+00 0.21054908E+03 0.21054933E+03 0.32000000E+00 0.0000E+00 0.9000E+01
        2 -1    0    0  502    0 -.00000000E+00 -.00000000E+00 -.36232848E+04 0.36232848E+04 0.32000000E+00 0.0000E+00 0.9000E+01
       25  1    1    2    0    0 0.44712505E+03 0.18742435E+03 -.18781652E+04 0.19437537E+04 0.12500000E+03 0.0000E+00 0.9000E+01
        1  1    1    2  502    0 0.55233509E+01 -.33118059E+02 -.13901033E+04 0.13905088E+04 0.32000000E+00 0.0000E+00 0.9000E+01
       -1  1    1    2    0  501 -.45264841E+03 -.15430629E+03 -.14446717E+03 0.49957169E+03 0.32000000E+00 0.0000E+00 0.9000E+01
#aMCatNLO 1  0  0  5  1 0.46059717D+02 0.00000000D+00  -5  6  0 0.00000000D+00 0.00000000D+00 0.00000000D+00 0.00000000D+00 0.00000000D+00
  <mgrwgt>
 -.7209382589D-02    6    2    0
 0.873429894312426D+03 0.000000000000000D+00 0.000000000000000D+00 0.873429894312426D+03
 0.873429894312426D+03 -.000000000000000D+00 -.000000000000000D+00 -.873429894312426D+03
 0.596702178953027D+03 0.447126075693224D+03 0.187424271921765D+03 -.324621171671017D+03
 0.335982947657295D+03 0.552307644842649D+01 -.331177239571060D+02 -.334301141342548D+03
 0.814174662014529D+03 -.452649152141651D+03 -.154306547964658D+03 0.658922313013565D+03
 0.000000000000000D+00 0.000000000000000D+00 -.000000000000000D+00 0.000000000000000D+00
 0.873429894312426D+03 0.000000000000000D+00 0.000000000000000D+00 0.873429894312426D+03
 0.873429894312426D+03 -.000000000000000D+00 -.000000000000000D+00 -.873429894312426D+03
 0.592681399598195D+03 0.444685210403125D+03 0.186592189291807D+03 -.321067998987278D+03
 0.334018358492155D+03 0.414809283338972D+01 -.335864511692094D+02 -.332299574831954D+03
 0.652180022703614D+03 -.370870799049551D+03 -.664655537115036D+02 0.532330689135857D+03
 0.167980007830887D+03 -.779625041869632D+02 -.865401844110940D+02 0.121036884683375D+03
0.222566637297D-02 0.000000000000D+00 0.000000000000D+00 0.554656533005D-04 0.000000000000D+00  6 -2 2 25 1 -1 21 0 0.32392186D-01 0.55742845D+00 0.25627741D+06 0.25627741D+06 0.25627741D+06 0.10896498D+01  1  2  2  4  6  5       -1 0.166130495913D-02 0.100000000000D+01
0.889084727182D-03 0.000000000000D+00 -.854714490362D-05 0.554656533005D-04 0.000000000000D+00  6 -2 2 25 1 -1 21 2 0.32392186D-01 0.55742845D+00 0.25627741D+06 0.25627741D+06 0.25627741D+06 0.10896498D+01  1  2  3  4  6  5       -1 0.787963902367D-03 0.100000000000D+01
-.147805914953D-02 0.000000000000D+00 0.000000000000D+00 0.554656533005D-04 0.000000000000D+00  6 -2 2 25 1 -1 21 2 0.32392186D-01 0.55742845D+00 0.25627741D+06 0.25627741D+06 0.25627741D+06 0.10896498D+01  1  2 15  4  6  5       -1 -.130995080647D-02 0.100000000000D+01
-.150230851542D-01 0.000000000000D+00 0.000000000000D+00 0.554656533005D-04 0.000000000000D+00  6 -2 2 25 1 -1 21 2 0.32392186D-01 0.55742845D+00 0.25627741D+06 0.25627741D+06 0.25627741D+06 0.10896498D+01  1  2  4  4  6  5       -1 -.133144214963D-01 0.100000000000D+01
-.246775856167D-01 0.000000000000D+00 0.000000000000D+00 0.554656533005D-04 0.000000000000D+00  6 -2 2 25 1 -1 21 2 0.32392186D-01 0.55742845D+00 0.25627741D+06 0.25627741D+06 0.25627741D+06 0.10896498D+01  1  2  5  4  6  5       -1 -.218708589509D-01 0.100000000000D+01
0.302805663571D-01 0.000000000000D+00 -.000000000000D+00 0.554656533005D-04 0.000000000000D+00  6 -2 2 25 1 -1 21 2 0.32392186D-01 0.55742845D+00 0.25627741D+06 0.25627741D+06 0.25627741D+06 0.10896498D+01  1  2  6  4  6  5       -1 0.268365798029D-01 0.100000000000D+01
  </mgrwgt>
  </event>
  <event>
  5     66 -.17652913E-05 0.56713003E+02 0.75467711E-02 0.93933330E-01
       -2 -1    0    0    0  501 0.00000000E+00 0.00000000E+00 0.54701455E+03 0.54701464E+03 0.32000000E+00 0.0000E+00 0.9000E+01
        2 -1    0    0  502    0 -.00000000E+00 -.00000000E+00 -.19095284E+04 0.19095284E+04 0.32000000E+00 0.0000E+00 0.9000E+01
       25  1    1    2    0    0 0.32469477E+03 -.34191586E+03 -.61177695E+03 0.78245076E+03 0.12500000E+03 0.0000E+00 0.9000E+01
        1  1    1    2  502    0 0.32823175E+02 -.46247011E+02 -.10606061E+04 0.10621213E+04 0.32000000E+00 0.0000E+00 0.9000E+01
       -1  1    1    2    0  501 -.35751795E+03 0.38816287E+03 0.30986923E+03 0.61197103E+03 0.32000000E+00 0.0000E+00 0.9000E+01
#aMCatNLO 1  0  0  5  5 0.76457469D+02 0.00000000D+00  -5  6  0 0.00000000D+00 0.00000000D+00 0.00000000D+00 0.00000000D+00 0.00000000D+00
  <mgrwgt>
 -.1207371129D-01    4    2    0
 0.102202737023537D+04 0.000000000000000D+00 0.000000000000000D+00 0.102202737023537D+04
 0.102202737023537D+04 -.000000000000000D+00 -.000000000000000D+00 -.102202737023537D+04
 0.532539219492861D+03 0.324691501355030D+03 -.341911882893697D+03 -.213646234654321D+03
 0.569504380259306D+03 0.328242479529139D+02 -.462486044982326D+02 -.566673516641485D+03
 0.942011140718574D+03 -.357515749307944D+03 0.388160487391930D+03 0.780319751295806D+03
 0.000000000000000D+00 0.000000000000000D+00 0.000000000000000D+00 0.000000000000000D+00
 0.102202737023537D+04 0.000000000000000D+00 0.000000000000000D+00 0.102202737023537D+04
 0.102202737023537D+04 -.000000000000000D+00 -.000000000000000D+00 -.102202737023537D+04
 0.529363926113194D+03 0.323234550108194D+03 -.340330047947479D+03 -.210466268913559D+03
 0.565897450922926D+03 0.312664551161127D+02 -.445572842474216D+02 -.563273452388830D+03
 0.289546241617027D+03 -.147654519612116D+03 0.162782571285861D+03 0.188512607955609D+03
 0.659247121817594D+03 -.206846485612190D+03 0.222104760909040D+03 0.585227113346781D+03
0.346619616557D-02 0.000000000000D+00 0.000000000000D+00 0.602202087862D-04 0.000000000000D+00  6 -2 2 25 1 -1 21 0 0.84156093D-01 0.29377361D+00 0.28742218D+06 0.28742218D+06 0.28742218D+06 0.10859307D+01  1  2  2  4  6  5       -1 0.424953883712D-02 0.100000000000D+01
0.119304622138D-02 0.000000000000D+00 -.133111059462D-04 0.602202087862D-04 0.000000000000D+00  6 -2 2 25 1 -1 21 2 0.84156093D-01 0.29377361D+00 0.28742218D+06 0.28742218D+06 0.28742218D+06 0.10859307D+01  1  2  3  4  6  5       -1 0.172484544299D-02 0.100000000000D+01
-.252566346585D-02 0.000000000000D+00 0.000000000000D+00 0.602202087862D-04 0.000000000000D+00  6 -2 2 25 1 -1 21 2 0.84156093D-01 0.29377361D+00 0.28742218D+06 0.28742218D+06 0.28742218D+06 0.10859307D+01  1  2 15  4  6  5       -1 -.365147556024D-02 0.100000000000D+01
-.995789690756D-02 0.000000000000D+00 0.000000000000D+00 0.602202087862D-04 0.000000000000D+00  6 -2 2 25 1 -1 21 2 0.84156093D-01 0.29377361D+00 0.28742218D+06 0.28742218D+06 0.28742218D+06 0.10859307D+01  1  2  5  4  6  5       -1 -.143966200093D-01 0.100000000000D+01
  </mgrwgt>
  </event>
  <event>
  5     66 0.17652913E-05 0.76268892E+02 0.75467711E-02 0.80174717E-01
       -2 -1    0    0    0  501 0.00000000E+00 0.00000000E+00 0.14510455E+04 0.14510455E+04 0.32000000E+00 0.0000E+00 0.9000E+01
        2 -1    0    0  502    0 0.00000000E+00 0.00000000E+00 -.12624610E+04 0.12624611E+04 0.32000000E+00 0.0000E+00 0.9000E+01
       25  1    1    2    0    0 0.46919927E+03 0.69553988E+02 0.66974812E+03 0.83016460E+03 0.12500000E+03 0.0000E+00 0.9000E+01
        1  1    1    2  502    0 -.33914785E+02 -.68303763E+02 -.11132582E+04 0.11158671E+04 0.32000000E+00 0.0000E+00 0.9000E+01
       -1  1    1    2    0  501 -.43528448E+03 -.12502250E+01 0.63209446E+03 0.76747486E+03 0.32000000E+00 0.0000E+00 0.9000E+01
#aMCatNLO 1  0  0  1  2 0.36825616D+02 0.00000000D+00  -5  6  0 0.00000000D+00 0.00000000D+00 0.00000000D+00 0.00000000D+00 0.00000000D+00
  <mgrwgt>
 0.1532362896D-01    3    2    0
 0.135347274332239D+04 0.000000000000000D+00 0.000000000000000D+00 0.135347274332239D+04
 0.135347274332239D+04 0.000000000000000D+00 0.000000000000000D+00 -.135347274332239D+04
 0.785601525941458D+03 0.469119206059757D+03 0.695614431169691D+02 0.613704435130540D+03
 0.119618519535321D+04 -.339188497842686D+02 -.683114598004354D+02 -.119375126289836D+04
 0.725158765350124D+03 -.435200356275489D+03 -.124998331653376D+01 0.580046827767821D+03
 0.000000000000000D+00 0.000000000000000D+00 -.000000000000000D+00 -.000000000000000D+00
 0.198480977791538D+04 0.000000000000000D+00 0.000000000000000D+00 0.198480977791538D+04
 0.588165912038763D+04 0.000000000000000D+00 0.000000000000000D+00 -.588165912038763D+04
 0.859800271686554D+03 0.185089732731282D+03 0.559231762626945D+03 0.613704435130540D+03
 0.148453454287037D+04 -.496665041314217D+03 0.729468688869004D+03 -.119375126289836D+04
 0.108944549374398D+04 -.748437580613703D+03 0.538774859621954D+03 0.580046827767821D+03
 0.443268859000211D+04 0.106001288919664D+04 -.182747531111790D+04 -.389684934247225D+04
0.125951386012D+00 0.000000000000D+00 0.000000000000D+00 0.105641759063D-03 0.000000000000D+00  6 -2 2 25 1 -1 21 0 0.22323777D+00 0.19422478D+00 0.25095911D+06 0.25095911D+06 0.25095911D+06 0.10903340D+01  1  2  2  1  6  1       -2 0.249707068608D-01 0.100000000000D+01
0.420733171691D-01 0.000000000000D+00 -.483686486048D-03 0.105641759063D-03 0.000000000000D+00  6 -2 2 25 1 -1 21 2 0.22323777D+00 0.19422478D+00 0.25095911D+06 0.25095911D+06 0.25095911D+06 0.10903340D+01  1  2  3  1  6  1       -2 0.991639392523D-02 0.100000000000D+01
-.830039792059D-01 0.000000000000D+00 0.000000000000D+00 0.105641759063D-03 0.000000000000D+00  6 -2 2 25 1 -1 21 2 0.22323777D+00 0.19422478D+00 0.25095911D+06 0.25095911D+06 0.25095911D+06 0.10903340D+01  1  2 15  1  6  1       -2 -.195634718285D-01 0.100000000000D+01
  </mgrwgt>
  </event>
  <event>
  5     66 0.17652913E-05 0.22158423E+02 0.75467711E-02 0.90892251E-01
       -2 -1    0    0    0  501 0.00000000E+00 0.00000000E+00 0.61085884E+03 0.61085892E+03 0.32000000E+00 0.0000E+00 0.9000E+01
        2 -1    0    0  502    0 -.00000000E+00 -.00000000E+00 -.29295769E+04 0.29295769E+04 0.32000000E+00 0.0000E+00 0.9000E+01
       25  1    1    2    0    0 0.37684114E+03 -.36878694E+03 -.10772497E+04 0.12058627E+04 0.12500000E+03 0.0000E+00 0.9000E+01
        1  1    1    2  502    0 0.91702811E+01 0.20170901E+02 -.16641827E+04 0.16643303E+04 0.32000000E+00 0.0000E+00 0.9000E+01
       -1  1    1    2    0  501 -.38601143E+03 0.34861604E+03 0.42271435E+03 0.67024285E+03 0.32000000E+00 0.0000E+00 0.9000E+01
#aMCatNLO 1  0  0  4  2 0.14157905D+02 0.00000000D+00  -5  6  0 0.00000000D+00 0.00000000D+00 0.00000000D+00 0.00000000D+00 0.00000000D+00
  <mgrwgt>
 0.1168902359D-01    6    2    0
 0.133774367230825D+04 0.000000000000000D+00 0.000000000000000D+00 0.133774367230825D+04
 0.133774367230825D+04 -.000000000000000D+00 -.000000000000000D+00 -.133774367230825D+04
 0.662082711554336D+03 0.376839243570790D+03 -.368786218609912D+03 -.380417437044544D+03
 0.760140448162821D+03 0.917049620784904D+01 0.201717058428492D+02 -.759817415709765D+03
 0.125326418489935D+04 -.386009739778638D+03 0.348614512767065D+03 0.114023485275431D+04
 0.000000000000000D+00 0.000000000000000D+00 0.000000000000000D+00 0.000000000000000D+00
 0.133774367230825D+04 0.000000000000000D+00 0.000000000000000D+00 0.133774367230825D+04
 0.133774367230825D+04 -.000000000000000D+00 -.000000000000000D+00 -.133774367230825D+04
 0.674312927310154D+03 0.377094918169928D+03 -.368223828888744D+03 -.401601243108780D+03
 0.324870219389559D+03 0.142460826372281D+03 -.950758149918591D+02 -.276054635532861D+03
 0.121788259882476D+04 -.385536968508689D+03 0.349654435010335D+03 0.110106359785022D+04
 0.458421599092039D+03 -.134018776033519D+03 0.113645208870270D+03 -.423407719208580D+03
0.306405646982D-01 0.000000000000D+00 0.000000000000D+00 0.637607064626D-03 0.000000000000D+00  6 -2 2 25 1 -1 21 0 0.93978291D-01 0.45070415D+00 0.29385657D+06 0.29385657D+06 0.29385657D+06 0.10852173D+01  1  2  2  3  6  4        1 0.749314791053D-02 0.100000000000D+01
0.218605249062D-01 0.000000000000D+00 -.117667836287D-03 0.637607064626D-03 0.000000000000D+00  6 -2 2 25 1 -1 21 2 0.93978291D-01 0.45070415D+00 0.29385657D+06 0.29385657D+06 0.29385657D+06 0.10852173D+01  1  2  3  3  6  4        1 0.629595401346D-02 0.100000000000D+01
-.200497773724D-01 0.000000000000D+00 0.000000000000D+00 0.637607064626D-03 0.000000000000D+00  6 -2 2 25 1 -1 21 2 0.93978291D-01 0.45070415D+00 0.29385657D+06 0.29385657D+06 0.29385657D+06 0.10852173D+01  1  2 15  3  6  4        1 -.577444854860D-02 0.100000000000D+01
-.416372667372D-03 0.000000000000D+00 0.000000000000D+00 0.637607064626D-03 0.000000000000D+00  6 -2 2 25 1 -1 21 2 0.93978291D-01 0.45070415D+00 0.29385657D+06 0.29385657D+06 0.29385657D+06 0.10852173D+01  1  2  4  3  6  4        1 -.119917667919D-03 0.100000000000D+01
-.181019162988D-01 0.000000000000D+00 0.000000000000D+00 0.637607064626D-03 0.000000000000D+00  6 -2 2 25 1 -1 21 2 0.93978291D-01 0.45070415D+00 0.29385657D+06 0.29385657D+06 0.29385657D+06 0.10852173D+01  1  2  5  3  6  4        1 -.521345361382D-02 0.100000000000D+01
0.312762699686D-01 0.000000000000D+00 -.000000000000D+00 0.637607064626D-03 0.000000000000D+00  6 -2 2 25 1 -1 21 2 0.93978291D-01 0.45070415D+00 0.29385657D+06 0.29385657D+06 0.29385657D+06 0.10852173D+01  1  2  6  3  6  4        1 0.900774150116D-02 0.100000000000D+01
  </mgrwgt>
  </event>
  <event>
  5     66 -.17652913E-05 0.12641788E+03 0.75467711E-02 0.92309968E-01
       -2 -1    0    0    0  501 0.00000000E+00 0.00000000E+00 0.55904758E+03 0.55904767E+03 0.32000000E+00 0.0000E+00 0.9000E+01
        2 -1    0    0  502    0 -.00000000E+00 -.00000000E+00 -.13417871E+04 0.13417872E+04 0.32000000E+00 0.0000E+00 0.9000E+01
       25  1    1    2    0    0 0.27964708E+02 0.51262829E+03 -.48385307E+03 0.71645557E+03 0.12500000E+03 0.0000E+00 0.9000E+01
        1  1    1    2  502    0 -.11172101E+03 0.59156226E+02 -.54265284E+03 0.55718332E+03 0.32000000E+00 0.0000E+00 0.9000E+01
       -1  1    1    2    0  501 0.83756305E+02 -.57178452E+03 0.24376633E+03 0.62719597E+03 0.32000000E+00 0.0000E+00 0.9000E+01
#aMCatNLO 1  0  0  4  2 0.13377533D+02 0.00000000D+00  -5  6  0 0.00000000D+00 0.00000000D+00 0.00000000D+00 0.00000000D+00 0.00000000D+00
  <mgrwgt>
 -.7394296558D-02    8    2    0
 0.866096400068774D+03 0.000000000000000D+00 0.000000000000000D+00 0.866096400068774D+03
 0.866096400068774D+03 -.000000000000000D+00 -.000000000000000D+00 -.866096400068774D+03
 0.567561357829168D+03 0.279667725462016D+02 0.512626668806262D+03 -.207201961773611D+03
 0.366222668604880D+03 -.111722867362549D+03 0.591564168089874D+02 -.343711452033084D+03
 0.798408773703501D+03 0.837560948163471D+02 -.571783085615249D+03 0.550913413806696D+03
 0.000000000000000D+00 0.000000000000000D+00 0.000000000000000D+00 -.000000000000000D+00
 0.866096400068774D+03 0.000000000000000D+00 0.000000000000000D+00 0.866096400068774D+03
 0.866096400068774D+03 -.000000000000000D+00 -.000000000000000D+00 -.866096400068774D+03
 0.567723303503927D+03 0.278624845949910D+02 0.512681888490965D+03 -.207522799968927D+03
 0.137700430423209D+03 -.488011972956665D+02 0.327785844472784D+02 -.124520745592368D+03
 0.798026525373579D+03 0.836094452823127D+02 -.571705435791493D+03 0.550462251699306D+03
 0.228742540836833D+03 -.626707325816373D+02 0.262449628532495D+02 -.218418706138011D+03
0.588829011692D-04 0.000000000000D+00 0.000000000000D+00 0.920597182240D-06 0.000000000000D+00  6 -2 2 25 1 -1 21 0 0.86007329D-01 0.20642880D+00 0.37988128D+06 0.37988128D+06 0.37988128D+06 0.10770470D+01  1  2  2  3  6  4        1 0.138671473821D-03 0.100000000000D+01
0.732091023637D-05 0.000000000000D+00 -.226125844714D-06 0.920597182240D-06 0.000000000000D+00  6 -2 2 25 1 -1 21 2 0.86007329D-01 0.20642880D+00 0.37988128D+06 0.37988128D+06 0.37988128D+06 0.10770470D+01  1  2  3  3  6  4        1 0.200001081628D-04 0.100000000000D+01
-.404028304760D-04 0.000000000000D+00 0.000000000000D+00 0.920597182240D-06 0.000000000000D+00  6 -2 2 25 1 -1 21 2 0.86007329D-01 0.20642880D+00 0.37988128D+06 0.37988128D+06 0.37988128D+06 0.10770470D+01  1  2 15  3  6  4        1 -.110377118899D-03 0.100000000000D+01
0.113549410702D-07 0.000000000000D+00 0.000000000000D+00 0.920597182240D-06 0.000000000000D+00  6 -2 2 25 1 -1 21 2 0.86007329D-01 0.20642880D+00 0.38004404D+06 0.38004404D+06 0.38004404D+06 0.10770336D+01  1  2 12  3  6  4        1 0.310192983501D-07 0.100000000000D+01
0.112463980052D-02 0.000000000000D+00 0.000000000000D+00 0.920597182240D-06 0.000000000000D+00  6 -2 2 25 1 -1 21 2 0.86007329D-01 0.20642880D+00 0.38004404D+06 0.38004404D+06 0.38004404D+06 0.10770336D+01  1  2 12  3  6  4        1 0.307227816448D-02 0.100000000000D+01
-.491323042776D-02 0.000000000000D+00 0.000000000000D+00 0.920597182240D-06 0.000000000000D+00  6 -2 2 25 1 -1 21 2 0.86007329D-01 0.20642880D+00 0.37988128D+06 0.37988128D+06 0.37988128D+06 0.10770470D+01  1  2  4  3  6  4        1 -.134225303701D-01 0.100000000000D+01
-.113651474859D-02 0.000000000000D+00 0.000000000000D+00 0.920597182240D-06 0.000000000000D+00  6 -2 2 25 1 -1 21 2 0.86007329D-01 0.20642880D+00 0.37988128D+06 0.37988128D+06 0.37988128D+06 0.10770470D+01  1  2  5  3  6  4        1 -.310486225981D-02 0.100000000000D+01
0.220083396456D-02 0.000000000000D+00 -.000000000000D+00 0.920597182240D-06 0.000000000000D+00  6 -2 2 25 1 -1 21 2 0.86007329D-01 0.20642880D+00 0.37988128D+06 0.37988128D+06 0.37988128D+06 0.10770470D+01  1  2  6  3  6  4        1 0.601249242491D-02 0.100000000000D+01
  </mgrwgt>
  </event>
  <event>
  5     66 0.17652913E-05 0.38547414E+02 0.75467711E-02 0.89440162E-01
       -2 -1    0    0    0  501 0.00000000E+00 0.00000000E+00 0.13636899E+04 0.13636899E+04 0.32000000E+00 0.0000E+00 0.9000E+01
        2 -1    0    0  502    0 0.00000000E+00 0.00000000E+00 -.92819091E+03 0.92819096E+03 0.32000000E+00 0.0000E+00 0.9000E+01
       25  1    1    2    0    0 0.75353115E+03 -.10574941E+03 0.18726994E+02 0.77134158E+03 0.12500000E+03 0.0000E+00 0.9000E+01
        1  1    1    2  502    0 -.76342392E+03 0.14301598E+03 -.27780631E+03 0.82489158E+03 0.32000000E+00 0.0000E+00 0.9000E+01
       -1  1    1    2    0  501 0.98927785E+01 -.37266574E+02 0.69457830E+03 0.69564774E+03 0.32000000E+00 0.0000E+00 0.9000E+01
#aMCatNLO 1  0  0  1  2 0.29663312D+02 0.00000000D+00  -5  6  0 0.00000000D+00 0.00000000D+00 0.00000000D+00 0.00000000D+00 0.00000000D+00
  <mgrwgt>
 0.3834580154D-02    9    4    0
 0.112506207064728D+04 0.000000000000000D+00 0.000000000000000D+00 0.112506207064728D+04
 0.112506207064728D+04 0.000000000000000D+00 0.000000000000000D+00 -.112506207064728D+04
 0.782120921810079D+03 0.753635350622669D+03 -.105772354334602D+03 -.130131101906539D+03
 0.894024873078719D+03 -.763525595251044D+03 0.143029382865062D+03 -.442551392176321D+03
 0.573978346405762D+03 0.989024462837439D+01 -.372570285304595D+02 0.572682494082860D+03
 0.000000000000000D+00 0.000000000000000D+00 0.000000000000000D+00 0.000000000000000D+00
 0.128343972574069D+04 0.000000000000000D+00 0.000000000000000D+00 0.128343972574069D+04
 0.112654963290357D+04 0.000000000000000D+00 0.000000000000000D+00 -.112654963290357D+04
 0.782841695677749D+03 0.752869416961103D+03 -.116058854952362D+03 -.130131101906539D+03
 0.892969621356051D+03 -.764400197123975D+03 0.131283466531006D+03 -.442551392176321D+03
 0.574508340992909D+03 0.932814518656676D+01 -.448060325049952D+02 0.572682494082860D+03
 0.159669700617558D+03 0.220263497630511D+01 0.295814209263512D+02 0.156890092837119D+03
 0.112506207064728D+04 0.000000000000000D+00 0.000000000000000D+00 0.112506207064728D+04
 0.112506207064728D+04 0.000000000000000D+00 0.000000000000000D+00 -.112506207064728D+04
 0.782120921810079D+03 0.753635350622669D+03 -.105772354334602D+03 -.130131101906539D+03
 0.894024873078719D+03 -.763525595251044D+03 0.143029382865062D+03 -.442551392176321D+03
 0.000000000000000D+00 0.000000000000000D+00 0.000000000000000D+00 0.000000000000000D+00
 0.573978346405762D+03 0.989024462837439D+01 -.372570285304595D+02 0.572682494082860D+03
 0.128343972574069D+04 0.000000000000000D+00 0.000000000000000D+00 0.128343972574069D+04
 0.112654963290357D+04 0.000000000000000D+00 0.000000000000000D+00 -.112654963290357D+04
 0.782841695677749D+03 0.752869416961103D+03 -.116058854952362D+03 -.130131101906539D+03
 0.892969621356051D+03 -.764400197123975D+03 0.131283466531006D+03 -.442551392176321D+03
 0.159669700617558D+03 0.220263497630511D+01 0.295814209263512D+02 0.156890092837119D+03
 0.574508340992909D+03 0.932814518656676D+01 -.448060325049952D+02 0.572682494082860D+03
0.397798362317D-03 0.000000000000D+00 0.000000000000D+00 0.105857400525D-04 0.000000000000D+00  6 -2 2 25 1 -1 21 0 0.20979845D+00 0.14279861D+00 0.62930375D+06 0.62930375D+06 0.62930375D+06 0.10615215D+01  1  2  2  1  6  1       -2 0.145003940297D-03 0.100000000000D+01
0.234905589042D-03 0.000000000000D+00 -.152765045401D-05 0.105857400525D-04 0.000000000000D+00  6 -2 2 25 1 -1 21 2 0.20979845D+00 0.14279861D+00 0.62930375D+06 0.62930375D+06 0.62930375D+06 0.10615215D+01  1  2  3  1  6  1       -2 0.964867646240D-04 0.100000000000D+01
-.285711990142D-03 0.000000000000D+00 0.000000000000D+00 0.105857400525D-04 0.000000000000D+00  6 -2 2 25 1 -1 21 2 0.20979845D+00 0.14279861D+00 0.62930375D+06 0.62930375D+06 0.62930375D+06 0.10615215D+01  1  2 15  1  6  1       -2 -.117355341163D-03 0.100000000000D+01
0.136505595033D-07 0.000000000000D+00 0.000000000000D+00 0.105857400525D-04 0.000000000000D+00  6 -2 2 25 1 -1 21 2 0.23945922D+00 0.14279861D+00 0.65850972D+06 0.65850972D+06 0.65850972D+06 0.10601595D+01  1  2 12  1  6  1       -2 0.354308539686D-08 0.100000000000D+01
-.114183138585D-02 0.000000000000D+00 0.000000000000D+00 0.105857400525D-04 0.000000000000D+00  6 -2 2 25 1 -1 21 2 0.20979845D+00 0.14279861D+00 0.62930375D+06 0.62930375D+06 0.62930375D+06 0.10615215D+01  1  2  4  1  6  1       -2 -.469003809643D-03 0.100000000000D+01
-.386778591641D-01 0.000000000000D+00 -.728019985800D-03 0.105857400525D-04 0.000000000000D+00  6 -2 2 25 1 -1 21 2 0.23944613D+00 0.14279861D+00 0.62930375D+06 0.62930375D+06 0.62930375D+06 0.10615215D+01  1  2  5  1  6  1       -2 -.100971205841D-01 0.100000000000D+01
0.384440697204D-01 0.000000000000D+00 0.721706028370D-03 0.105857400525D-04 0.000000000000D+00  6 -2 2 25 1 -1 21 2 0.20979845D+00 0.14279861D+00 0.62930375D+06 0.62930375D+06 0.62930375D+06 0.10615215D+01  1  2  6  1  6  1       -2 0.157907860832D-01 0.100000000000D+01
0.280854917771D-09 0.000000000000D+00 0.000000000000D+00 0.105857400525D-04 0.000000000000D+00  6 21 2 25 1 2 -1 2 0.23945922D+00 0.14279861D+00 0.65850972D+06 0.65850972D+06 0.65850972D+06 0.10601595D+01  3  4 12  5  5  1       -2 0.533389898186D-09 0.100000000000D+01
-.791490362704D-03 0.000000000000D+00 -.149736030965D-04 0.105857400525D-04 0.000000000000D+00  6 21 2 25 1 2 -1 2 0.23944613D+00 0.14279861D+00 0.62930375D+06 0.62930375D+06 0.62930375D+06 0.10615215D+01  3  4  5  5  5  1       -2 -.151422097554D-02 0.100000000000D+01
  </mgrwgt>
  </event>
  <event>
  5     66 0.17652913E-05 0.33399909E+02 0.75467711E-02 0.91615738E-01
       -2 -1    0    0    0  501 0.00000000E+00 0.00000000E+00 0.12619458E+04 0.12619459E+04 0.32000000E+00 0.0000E+00 0.9000E+01
        2 -1    0    0  502    0 0.00000000E+00 0.00000000E+00 -.11720505E+04 0.11720505E+04 0.32000000E+00 0.0000E+00 0.9000E+01
       25  1    1    2    0    0 0.62174659E+03 0.33336668E+02 -.18963499E+03 0.66277190E+03 0.12500000E+03 0.0000E+00 0.9000E+01
        1  1    1    2  502    0 0.16995803E+02 -.28749615E+02 -.64589498E+03 0.64675793E+03 0.32000000E+00 0.0000E+00 0.9000E+01
       -1  1    1    2    0  501 -.63874240E+03 -.45870527E+01 0.92542532E+03 0.11244665E+04 0.32000000E+00 0.0000E+00 0.9000E+01
#aMCatNLO 1  0  0  5  1 0.21214307D+02 0.00000000D+00  -5  6  0 0.00000000D+00 0.00000000D+00 0.00000000D+00 0.00000000D+00 0.00000000D+00
  <mgrwgt>
 0.4325348383D-02    8    2    0
 0.121616787430956D+04 0.000000000000000D+00 0.000000000000000D+00 0.121616787430956D+04
 0.121616787430956D+04 -.000000000000000D+00 -.000000000000000D+00 -.121616787430956D+04
 0.670203136060449D+03 0.621735412760174D+03 0.333387004030902D+02 -.214198158630342D+03
 0.671118019611282D+03 0.169968378074186D+02 -.287517205848660D+02 -.670286388281104D+03
 0.109101459294738D+04 -.638732250567592D+03 -.458697981822403D+01 0.884484546911446D+03
 0.000000000000000D+00 0.000000000000000D+00 0.000000000000000D+00 0.000000000000000D+00
 0.121616787430956D+04 0.000000000000000D+00 0.000000000000000D+00 0.121616787430956D+04
 0.121616787430956D+04 -.000000000000000D+00 -.000000000000000D+00 -.121616787430956D+04
 0.668536680966040D+03 0.620518722436627D+03 0.333299628859941D+02 -.212513346584922D+03
 0.669403611987297D+03 0.157785281127876D+02 -.287604697312833D+02 -.668599333811417D+03
 0.106002325705925D+04 -.630579186788718D+03 0.127392798211089D+02 0.851972361902087D+03
 0.343721986065233D+02 -.571806376069596D+01 -.173087729758196D+02 0.291403184942518D+02
0.374919982233D-02 0.000000000000D+00 0.000000000000D+00 0.105488388236D-03 0.000000000000D+00  6 -2 2 25 1 -1 21 0 0.19414552D+00 0.18031546D+00 0.42719355D+06 0.42719355D+06 0.42719355D+06 0.10733745D+01  1  2  2  4  6  5       -1 0.126844531348D-02 0.100000000000D+01
0.227442894572D-02 0.000000000000D+00 -.143979145047D-04 0.105488388236D-03 0.000000000000D+00  6 -2 2 25 1 -1 21 2 0.19414552D+00 0.18031546D+00 0.42719355D+06 0.42719355D+06 0.42719355D+06 0.10733745D+01  1  2  3  4  6  5       -1 0.886559824722D-03 0.100000000000D+01
-.266073603281D-02 0.000000000000D+00 0.000000000000D+00 0.105488388236D-03 0.000000000000D+00  6 -2 2 25 1 -1 21 2 0.19414552D+00 0.18031546D+00 0.42719355D+06 0.42719355D+06 0.42719355D+06 0.10733745D+01  1  2 15  4  6  5       -1 -.103714019087D-02 0.100000000000D+01
0.347482279789D-09 0.000000000000D+00 0.000000000000D+00 0.105488388236D-03 0.000000000000D+00  6 -2 2 25 1 -1 21 2 0.19414552D+00 0.18031546D+00 0.43270198D+06 0.43270198D+06 0.43270198D+06 0.10729759D+01  1  2 12  4  6  5       -1 0.135230897420D-09 0.100000000000D+01
0.127004518800D-01 0.000000000000D+00 0.000000000000D+00 0.105488388236D-03 0.000000000000D+00  6 -2 2 25 1 -1 21 2 0.19414552D+00 0.18031546D+00 0.43270198D+06 0.43270198D+06 0.43270198D+06 0.10729759D+01  1  2 12  4  6  5       -1 0.494267939765D-02 0.100000000000D+01
-.883165031847D-02 0.000000000000D+00 0.000000000000D+00 0.105488388236D-03 0.000000000000D+00  6 -2 2 25 1 -1 21 2 0.19414552D+00 0.18031546D+00 0.42719355D+06 0.42719355D+06 0.42719355D+06 0.10733745D+01  1  2  4  4  6  5       -1 -.344252845229D-02 0.100000000000D+01
-.136874087357D+00 0.000000000000D+00 0.000000000000D+00 0.105488388236D-03 0.000000000000D+00  6 -2 2 25 1 -1 21 2 0.19414552D+00 0.18031546D+00 0.42719355D+06 0.42719355D+06 0.42719355D+06 0.10733745D+01  1  2  5  4  6  5       -1 -.533527622943D-01 0.100000000000D+01
0.141254170935D+00 0.000000000000D+00 -.000000000000D+00 0.105488388236D-03 0.000000000000D+00  6 -2 2 25 1 -1 21 2 0.19414552D+00 0.18031546D+00 0.42719355D+06 0.42719355D+06 0.42719355D+06 0.10733745D+01  1  2  6  4  6  5       -1 0.550600946497D-01 0.100000000000D+01
  </mgrwgt>
  </event>
  <event>
  5     66 0.17652913E-05 0.59028867E+02 0.75467711E-02 0.84966778E-01
       -2 -1    0    0    0  501 0.00000000E+00 0.00000000E+00 0.28777998E+03 0.28778016E+03 0.32000000E+00 0.0000E+00 0.9000E+01
        2 -1    0    0  502    0 0.00000000E+00 0.00000000E+00 -.16786979E+04 0.16786979E+04 0.32000000E+00 0.0000E+00 0.9000E+01
       25  1    1    2    0    0 0.51546792E+03 0.25994411E+03 -.32810902E+03 0.67569124E+03 0.12500000E+03 0.0000E+00 0.9000E+01
        1  1    1    2  502    0 -.26086846E+02 0.52943658E+02 -.42116831E+03 0.42528391E+03 0.32000000E+00 0.0000E+00 0.9000E+01
       -1  1    1    2    0  501 -.48938107E+03 -.31288777E+03 -.64164059E+03 0.86550294E+03 0.32000000E+00 0.0000E+00 0.9000E+01
#aMCatNLO 1  0  0  2  4 0.10870238D+02 0.00000000D+00  -5  6  0 0.00000000D+00 0.00000000D+00 0.00000000D+00 0.00000000D+00 0.00000000D+00
  <mgrwgt>
 0.2200264118D-02    3    2    0
 0.695050968982467D+03 0.000000000000000D+00 0.000000000000000D+00 0.695050968982467D+03
 0.695050968982467D+03 0.000000000000000D+00 0.000000000000000D+00 -.695050968982467D+03
 0.627540059087317D+03 0.515450955500787D+03 0.259924582905001D+03 0.211969454012367D+03
 0.180239225261317D+03 -.260911620185958D+02 0.529495835448406D+02 -.170299063972023D+03
 0.582322653616301D+03 -.489359793482191D+03 -.312874166449842D+03 -.416703900403437D+02
 0.000000000000000D+00 -.000000000000000D+00 -.000000000000000D+00 0.000000000000000D+00
 0.257036909215901D+04 0.000000000000000D+00 0.000000000000000D+00 0.257036909215901D+04
 0.989625737780565D+03 0.000000000000000D+00 0.000000000000000D+00 -.989625737780565D+03
 0.112139527817536D+04 0.822752111293195D+03 0.721145119821447D+03 0.211969454012367D+03
 0.241331177178876D+03 0.479819435774658D+02 0.164124035349256D+03 -.170299063972023D+03
 0.337725035880686D+03 -.327700461463048D+03 -.702437613699759D+02 -.416703900403437D+02
 0.185954333870465D+04 -.543033593407613D+03 -.815025393800727D+03 0.158074335437844D+04
0.818057037779D-03 0.000000000000D+00 0.000000000000D+00 0.144191835987D-06 0.000000000000D+00  6 -2 2 25 1 -1 21 0 0.44273859D-01 0.25826123D+00 0.37854209D+06 0.37854209D+06 0.37854209D+06 0.10771581D+01  1  2  2  2  6  2        2 0.507103709006D-02 0.100000000000D+01
0.165665123263D-03 0.000000000000D+00 -.314155442444D-05 0.144191835987D-06 0.000000000000D+00  6 -2 2 25 1 -1 21 2 0.44273859D-01 0.25826123D+00 0.37854209D+06 0.37854209D+06 0.37854209D+06 0.10771581D+01  1  2  3  2  6  2        2 0.119152513548D-02 0.100000000000D+01
-.564806479212D-03 0.000000000000D+00 0.000000000000D+00 0.144191835987D-06 0.000000000000D+00  6 -2 2 25 1 -1 21 2 0.44273859D-01 0.25826123D+00 0.37854209D+06 0.37854209D+06 0.37854209D+06 0.10771581D+01  1  2 15  2  6  2        2 -.406229810719D-02 0.100000000000D+01
  </mgrwgt>
  </event>
  <event>
  5     66 0.17652913E-05 0.18612360E+02 0.75467711E-02 0.93045329E-01
       -2 -1    0    0    0  501 0.00000000E+00 0.00000000E+00 0.65072428E+03 0.65072436E+03 0.32000000E+00 0.0000E+00 0.9000E+01
        2 -1    0    0  502    0 -.00000000E+00 -.00000000E+00 -.66009702E+03 0.66009710E+03 0.32000000E+00 0.0000E+00 0.9000E+01
       25  1    1    2    0    0 -.56011398E+03 0.70094256E+02 -.18638150E+03 0.60745695E+03 0.12500000E+03 0.0000E+00 0.9000E+01
        1  1    1    2  502    0 0.17706776E+02 -.57428509E+01 -.92448563E+02 0.94304557E+02 0.32000000E+00 0.0000E+00 0.9000E+01
       -1  1    1    2    0  501 0.54240720E+03 -.64351405E+02 0.26945733E+03 0.60905996E+03 0.32000000E+00 0.0000E+00 0.9000E+01
#aMCatNLO 1  0  0  4  5 0.85271995D+01 0.00000000D+00  -5  6  0 0.00000000D+00 0.00000000D+00 0.00000000D+00 0.00000000D+00 0.00000000D+00
  <mgrwgt>
 0.6383897294D-02    8    2    0
 0.655393975839738D+03 0.000000000000000D+00 0.000000000000000D+00 0.655393975839738D+03
 0.655393975839738D+03 -.000000000000000D+00 -.000000000000000D+00 -.655393975839738D+03
 0.606154193331279D+03 -.560120442894089D+03 0.700944998843664D+02 -.182070746225702D+03
 0.936217070381185D+02 0.177044839598680D+02 -.574205607486702D+01 -.917529512793957D+02
 0.611012051310077D+03 0.542415958934221D+03 -.643524438094994D+02 0.273823697505098D+03
 0.000000000000000D+00 0.000000000000000D+00 0.000000000000000D+00 0.000000000000000D+00
 0.655393975839738D+03 0.000000000000000D+00 0.000000000000000D+00 0.655393975839738D+03
 0.655393975839738D+03 -.000000000000000D+00 -.000000000000000D+00 -.655393975839738D+03
 0.606294499614170D+03 -.559886762718735D+03 0.700187109105952D+02 -.183281786648729D+03
 0.176963626936407D+02 -.295917013532783D+01 -.706942808393199D+01 -.159507915559441D+02
 0.610683438316975D+03 0.542651421282365D+03 -.644288107914250D+02 0.272603421025627D+03
 0.761136510546893D+02 0.201945115716975D+02 0.147952796476174D+01 -.733708428209536D+02
0.438971087866D-03 0.000000000000D+00 0.000000000000D+00 0.220099673618D-05 0.000000000000D+00  6 -2 2 25 1 -1 21 0 0.10011144D+00 0.10155340D+00 0.32660995D+06 0.32660995D+06 0.32660995D+06 0.10818318D+01  1  2  2  3  6  4        1 0.198703839044D-02 0.100000000000D+01
0.190455105707D-03 0.000000000000D+00 -.168576456115D-05 0.220099673618D-05 0.000000000000D+00  6 -2 2 25 1 -1 21 2 0.10011144D+00 0.10155340D+00 0.32660995D+06 0.32660995D+06 0.32660995D+06 0.10818318D+01  1  2  3  3  6  4        1 0.100897965969D-02 0.100000000000D+01
-.280075234326D-03 0.000000000000D+00 0.000000000000D+00 0.220099673618D-05 0.000000000000D+00  6 -2 2 25 1 -1 21 2 0.10011144D+00 0.10155340D+00 0.32660995D+06 0.32660995D+06 0.32660995D+06 0.10818318D+01  1  2 15  3  6  4        1 -.148376287193D-02 0.100000000000D+01
0.290112195707D-07 0.000000000000D+00 0.000000000000D+00 0.220099673618D-05 0.000000000000D+00  6 -2 2 25 1 -1 21 2 0.10011144D+00 0.10155340D+00 0.33195072D+06 0.33195072D+06 0.33195072D+06 0.10813150D+01  1  2 12  3  6  4        1 0.153458334865D-06 0.100000000000D+01
-.212965289494D-03 0.000000000000D+00 0.000000000000D+00 0.220099673618D-05 0.000000000000D+00  6 -2 2 25 1 -1 21 2 0.10011144D+00 0.10155340D+00 0.32660995D+06 0.32660995D+06 0.32660995D+06 0.10818318D+01  1  2  4  3  6  4        1 -.112823252767D-02 0.100000000000D+01
-.390383069787D-03 0.000000000000D+00 0.000000000000D+00 0.220099673618D-05 0.000000000000D+00  6 -2 2 25 1 -1 21 2 0.10011144D+00 0.10155340D+00 0.32660995D+06 0.32660995D+06 0.32660995D+06 0.10818318D+01  1  2  5  3  6  4        1 -.206814396202D-02 0.100000000000D+01
0.152275197815D-02 0.000000000000D+00 -.000000000000D+00 0.220099673618D-05 0.000000000000D+00  6 -2 2 25 1 -1 21 2 0.10011144D+00 0.10155340D+00 0.32660995D+06 0.32660995D+06 0.32660995D+06 0.10818318D+01  1  2  6  3  6  4        1 0.806712829778D-02 0.100000000000D+01
0.139301036844D-06 0.000000000000D+00 0.000000000000D+00 0.220099673618D-05 0.580262385276D-08  6 -2 2 25 1 -1 21 2 0.10011144D+00 0.10155340D+00 0.33195072D+06 0.33195072D+06 0.33195072D+06 0.10813150D+01  1  2 11  3  6  4        1 0.736849587002D-06 0.100000000000D+01
  </mgrwgt>
  </event>
  <event>
  5     66 0.17652913E-05 0.45076372E+02 0.75467711E-02 0.93029523E-01
       -2 -1    0    0    0  501 0.00000000E+00 0.00000000E+00 0.79532385E+03 0.79532391E+03 0.32000000E+00 0.0000E+00 0.9000E+01
        2 -1    0    0  502    0 -.00000000E+00 -.00000000E+00 -.17458041E+04 0.17458041E+04 0.32000000E+00 0.0000E+00 0.9000E+01
       25  1    1    2    0    0 0.10397151E+03 -.46855419E+03 -.96916754E+03 0.10886982E+04 0.12500000E+03 0.0000E+00 0.9000E+01
        1  1    1    2  502    0 -.39824102E+02 0.21124427E+02 -.64657234E+03 0.64814203E+03 0.32000000E+00 0.0000E+00 0.9000E+01
       -1  1    1    2    0  501 -.64147404E+02 0.44742976E+03 0.66525966E+03 0.80428776E+03 0.32000000E+00 0.0000E+00 0.9000E+01
#aMCatNLO 1  0  0  4  5 0.85271995D+01 0.00000000D+00  -5  6  0 0.00000000D+00 0.00000000D+00 0.00000000D+00 0.00000000D+00 0.00000000D+00
  <mgrwgt>
 0.6592924212D-02    6    2    0
 0.117833769960296D+04 0.000000000000000D+00 0.000000000000000D+00 0.117833769960296D+04
 0.117833769960296D+04 -.000000000000000D+00 -.000000000000000D+00 -.117833769960296D+04
 0.783065675386171D+03 0.103968745687843D+03 -.468554640486508D+03 -.605981766034801D+03
 0.438057653751484D+03 -.398210193818764D+02 0.211226364348079D+02 -.435732290122831D+03
 0.113555207006827D+04 -.641477263059673D+02 0.447432004051700D+03 0.104171405615763D+04
 0.000000000000000D+00 -.000000000000000D+00 0.000000000000000D+00 0.000000000000000D+00
 0.117833769960296D+04 0.000000000000000D+00 0.000000000000000D+00 0.117833769960296D+04
 0.117833769960296D+04 -.000000000000000D+00 -.000000000000000D+00 -.117833769960296D+04
 0.794994552202930D+03 0.102490632863891D+03 -.467770591251340D+03 -.622155673580069D+03
 0.227677576131924D+03 0.308873805236807D+02 0.976427933115651D+02 -.203344371232666D+03
 0.111500224998901D+04 -.662557404003095D+02 0.448550177719914D+03 0.101864759971837D+04
 0.219001020882057D+03 -.671222729872622D+02 -.784223797801391D+02 -.193147554905637D+03
0.886067586419D-02 0.000000000000D+00 0.000000000000D+00 0.179443169432D-03 0.000000000000D+00  6 -2 2 25 1 -1 21 0 0.12235752D+00 0.26858525D+00 0.24653460D+06 0.24653460D+06 0.24653460D+06 0.10909155D+01  1  2  2  3  6  4        1 0.543465295404D-02 0.100000000000D+01
0.251974860671D-02 0.000000000000D+00 -.340273283880D-04 0.179443169432D-03 0.000000000000D+00  6 -2 2 25 1 -1 21 2 0.12235752D+00 0.26858525D+00 0.24653460D+06 0.24653460D+06 0.24653460D+06 0.10909155D+01  1  2  3  3  6  4        1 0.183926525492D-02 0.100000000000D+01
-.651090379251D-02 0.000000000000D+00 0.000000000000D+00 0.179443169432D-03 0.000000000000D+00  6 -2 2 25 1 -1 21 2 0.12235752D+00 0.26858525D+00 0.24653460D+06 0.24653460D+06 0.24653460D+06 0.10909155D+01  1  2 15  3  6  4        1 -.475256900303D-02 0.100000000000D+01
-.248007983920D-03 0.000000000000D+00 0.000000000000D+00 0.179443169432D-03 0.000000000000D+00  6 -2 2 25 1 -1 21 2 0.12235752D+00 0.26858525D+00 0.24653460D+06 0.24653460D+06 0.24653460D+06 0.10909155D+01  1  2  4  3  6  4        1 -.181030943544D-03 0.100000000000D+01
-.696081265470D-02 0.000000000000D+00 0.000000000000D+00 0.179443169432D-03 0.000000000000D+00  6 -2 2 25 1 -1 21 2 0.12235752D+00 0.26858525D+00 0.24653460D+06 0.24653460D+06 0.24653460D+06 0.10909155D+01  1  2  5  3  6  4        1 -.508097547021D-02 0.100000000000D+01
0.127867792399D-01 0.000000000000D+00 -.000000000000D+00 0.179443169432D-03 0.000000000000D+00  6 -2 2 25 1 -1 21 2 0.12235752D+00 0.26858525D+00 0.24653460D+06 0.24653460D+06 0.24653460D+06 0.10909155D+01  1  2  6  3  6  4        1 0.933358141985D-02 0.100000000000D+01
  </mgrwgt>
  </event>
  <event>
  5     66 0.17652913E-05 0.10353703E+03 0.75467711E-02 0.93572256E-01
       -2 -1    0    0    0  501 0.00000000E+00 0.00000000E+00 0.55662702E+03 0.55662711E+03 0.32000000E+00 0.0000E+00 0.9000E+01
        2 -1    0    0  502    0 -.00000000E+00 -.00000000E+00 -.76402079E+03 0.76402086E+03 0.32000000E+00 0.0000E+00 0.9000E+01
       25  1    1    2    0    0 0.41180268E+03 0.22737354E+03 0.34768497E+02 0.48796929E+03 0.12500000E+03 0.0000E+00 0.9000E+01
        1  1    1    2  502    0 -.21383734E+02 0.10129083E+03 -.30161510E+03 0.31888692E+03 0.32000000E+00 0.0000E+00 0.9000E+01
       -1  1    1    2    0  501 -.39041895E+03 -.32866438E+03 0.59452827E+02 0.51379176E+03 0.32000000E+00 0.0000E+00 0.9000E+01
#aMCatNLO 1  0  0  4  2 0.27227432D+02 0.00000000D+00  -5  6  0 0.00000000D+00 0.00000000D+00 0.00000000D+00 0.00000000D+00 0.00000000D+00
  <mgrwgt>
 0.6610343730D-02    8    2    0
 0.652130905959158D+03 0.000000000000000D+00 0.000000000000000D+00 0.652130905959158D+03
 0.652130905959158D+03 -.000000000000000D+00 -.000000000000000D+00 -.652130905959158D+03
 0.499611429008949D+03 0.411784461289050D+03 0.227340693877668D+03 0.112855422308683D+03
 0.274982385999878D+03 -.213894259251139D+02 0.101303549854011D+03 -.254745747473351D+03
 0.529667996909489D+03 -.390395035363936D+03 -.328644243731679D+03 0.141890325164668D+03
 0.000000000000000D+00 0.000000000000000D+00 0.000000000000000D+00 0.000000000000000D+00
 0.652130905959158D+03 0.000000000000000D+00 0.000000000000000D+00 0.652130905959158D+03
 0.652130905959158D+03 -.000000000000000D+00 -.000000000000000D+00 -.652130905959158D+03
 0.499357062284387D+03 0.411592925038578D+03 0.228247838471750D+03 0.110574246298376D+03
 0.191059064823275D+03 -.113966249721124D+02 0.446521290592002D+02 -.185418096638030D+03
 0.528579237298168D+03 -.390597937366430D+03 -.327683269220389D+03 0.139473784278055D+03
 0.852664475124866D+02 -.959836270003586D+01 0.547833016894390D+02 -.646299339384012D+02
0.193120611719D-03 0.000000000000D+00 0.000000000000D+00 0.266168218404D-06 0.000000000000D+00  6 -2 2 25 1 -1 21 0 0.85634938D-01 0.11754167D+00 0.30279948D+06 0.30279948D+06 0.30279948D+06 0.10842535D+01  1  2  2  3  6  4        1 0.105770554883D-02 0.100000000000D+01
0.242380568099D-04 0.000000000000D+00 -.741633998825D-06 0.266168218404D-06 0.000000000000D+00  6 -2 2 25 1 -1 21 2 0.85634938D-01 0.11754167D+00 0.30279948D+06 0.30279948D+06 0.30279948D+06 0.10842535D+01  1  2  3  3  6  4        1 0.156061457265D-03 0.100000000000D+01
-.146099883006D-03 0.000000000000D+00 0.000000000000D+00 0.266168218404D-06 0.000000000000D+00  6 -2 2 25 1 -1 21 2 0.85634938D-01 0.11754167D+00 0.30279948D+06 0.30279948D+06 0.30279948D+06 0.10842535D+01  1  2 15  3  6  4        1 -.940692598708D-03 0.100000000000D+01
0.169309875805D-06 0.000000000000D+00 0.000000000000D+00 0.266168218404D-06 0.000000000000D+00  6 -2 2 25 1 -1 21 2 0.85634938D-01 0.11754167D+00 0.30168011D+06 0.30168011D+06 0.30168011D+06 0.10843725D+01  1  2 12  3  6  4        1 0.109051733687D-05 0.100000000000D+01
0.880376046520D-03 0.000000000000D+00 0.000000000000D+00 0.266168218404D-06 0.000000000000D+00  6 -2 2 25 1 -1 21 2 0.85634938D-01 0.11754167D+00 0.30168011D+06 0.30168011D+06 0.30168011D+06 0.10843725D+01  1  2 12  3  6  4        1 0.567046273663D-02 0.100000000000D+01
-.363484720648D-03 0.000000000000D+00 0.000000000000D+00 0.266168218404D-06 0.000000000000D+00  6 -2 2 25 1 -1 21 2 0.85634938D-01 0.11754167D+00 0.30279948D+06 0.30279948D+06 0.30279948D+06 0.10842535D+01  1  2  4  3  6  4        1 -.234036728451D-02 0.100000000000D+01
-.109437709064D-02 0.000000000000D+00 0.000000000000D+00 0.266168218404D-06 0.000000000000D+00  6 -2 2 25 1 -1 21 2 0.85634938D-01 0.11754167D+00 0.30279948D+06 0.30279948D+06 0.30279948D+06 0.10842535D+01  1  2  5  3  6  4        1 -.704636039525D-02 0.100000000000D+01
0.156125482180D-02 0.000000000000D+00 -.000000000000D+00 0.266168218404D-06 0.000000000000D+00  6 -2 2 25 1 -1 21 2 0.85634938D-01 0.11754167D+00 0.30279948D+06 0.30279948D+06 0.30279948D+06 0.10842535D+01  1  2  6  3  6  4        1 0.100524437484D-01 0.100000000000D+01
  </mgrwgt>
  </event>
  <event>
  5     66 0.17652913E-05 0.13122713E+02 0.75467711E-02 0.89039707E-01
       -2 -1    0    0    0  501 0.00000000E+00 0.00000000E+00 0.15984382E+04 0.15984382E+04 0.32000000E+00 0.0000E+00 0.9000E+01
        2 -1    0    0  502    0 0.00000000E+00 0.00000000E+00 -.15395406E+04 0.15395406E+04 0.32000000E+00 0.0000E+00 0.9000E+01
       25  1    1    2    0    0 0.55601933E+03 -.14943841E+03 -.60814583E+03 0.84673236E+03 0.12500000E+03 0.0000E+00 0.9000E+01
        1  1    1    2  502    0 -.54295909E+03 0.15072053E+03 -.71431979E+03 0.90982093E+03 0.32000000E+00 0.0000E+00 0.9000E+01
       -1  1    1    2    0  501 -.13060240E+02 -.12821242E+01 0.13813632E+04 0.13814255E+04 0.32000000E+00 0.0000E+00 0.9000E+01
#aMCatNLO 1  0  0  1  5 0.28330737D+02 0.00000000D+00  -5  6  0 0.00000000D+00 0.00000000D+00 0.00000000D+00 0.00000000D+00 0.00000000D+00
  <mgrwgt>
 0.4787802437D-01    7    4    0
 0.156871302300183D+04 0.000000000000000D+00 0.000000000000000D+00 0.156871302300183D+04
 0.156871302300183D+04 0.000000000000000D+00 0.000000000000000D+00 -.156871302300183D+04
 0.858312384340447D+03 0.556061349408384D+03 -.149449971051849D+03 -.624127896315261D+03
 0.923408441391391D+03 -.543001416655944D+03 0.150732065039824D+03 -.731513811018868D+03
 0.135570522027183D+04 -.130599327524398D+02 -.128209398797533D+01 0.135564170733413D+04
 0.000000000000000D+00 -.000000000000000D+00 0.000000000000000D+00 0.000000000000000D+00
 0.177569347124277D+04 0.000000000000000D+00 0.000000000000000D+00 0.177569347124277D+04
 0.176862301760796D+04 0.000000000000000D+00 0.000000000000000D+00 -.176862301760796D+04
 0.934594350456781D+03 0.657447204765176D+03 -.189918777095042D+03 -.624127896315261D+03
 0.861810422897843D+03 -.442050297424683D+03 0.110436786673467D+03 -.731513811018868D+03
 0.136436989877855D+04 0.140755732740524D+03 -.626785906820513D+02 0.135564170733413D+04
 0.383541816717553D+03 -.356152640081017D+03 0.142160581103626D+03 0.707045363481005D+01
 0.156871302300183D+04 0.000000000000000D+00 0.000000000000000D+00 0.156871302300183D+04
 0.156871302300183D+04 0.000000000000000D+00 0.000000000000000D+00 -.156871302300183D+04
 0.858312384340447D+03 0.556061349408384D+03 -.149449971051849D+03 -.624127896315261D+03
 0.923408441391391D+03 -.543001416655944D+03 0.150732065039824D+03 -.731513811018868D+03
 0.000000000000000D+00 -.000000000000000D+00 0.000000000000000D+00 0.000000000000000D+00
 0.135570522027183D+04 -.130599327524398D+02 -.128209398797533D+01 0.135564170733413D+04
 0.177569347124277D+04 0.000000000000000D+00 0.000000000000000D+00 0.177569347124277D+04
 0.176862301760796D+04 0.000000000000000D+00 0.000000000000000D+00 -.176862301760796D+04
 0.934594350456781D+03 0.657447204765176D+03 -.189918777095042D+03 -.624127896315261D+03
 0.861810422897843D+03 -.442050297424683D+03 0.110436786673467D+03 -.731513811018868D+03
 0.383541816717553D+03 -.356152640081017D+03 0.142160581103626D+03 0.707045363481005D+01
 0.136436989877855D+04 0.140755732740524D+03 -.626785906820513D+02 0.135564170733413D+04
0.169187280075D+00 0.000000000000D+00 0.000000000000D+00 0.336938437454D-03 0.000000000000D+00  6 -2 2 25 1 -1 21 0 0.24591357D+00 0.23685241D+00 0.33980943D+06 0.33980943D+06 0.33980943D+06 0.10805708D+01  1  2  2  1  6  1       -2 0.163287530734D-01 0.100000000000D+01
0.203061719716D+00 0.000000000000D+00 -.649723703520D-03 0.336938437454D-03 0.000000000000D+00  6 -2 2 25 1 -1 21 2 0.24591357D+00 0.23685241D+00 0.33980943D+06 0.33980943D+06 0.33980943D+06 0.10805708D+01  1  2  3  1  6  1       -2 0.228833628669D-01 0.100000000000D+01
-.112561461414D+00 0.000000000000D+00 0.000000000000D+00 0.336938437454D-03 0.000000000000D+00  6 -2 2 25 1 -1 21 2 0.24591357D+00 0.23685241D+00 0.33980943D+06 0.33980943D+06 0.33980943D+06 0.10805708D+01  1  2 15  1  6  1       -2 -.126847382656D-01 0.100000000000D+01
-.907830732375D-02 0.000000000000D+00 0.000000000000D+00 0.336938437454D-03 0.000000000000D+00  6 -2 2 25 1 -1 21 2 0.24591357D+00 0.23685241D+00 0.33980943D+06 0.33980943D+06 0.33980943D+06 0.10805708D+01  1  2  4  1  6  1       -2 -.102304954867D-02 0.100000000000D+01
-.346239310446D+00 0.000000000000D+00 -.212221554557D+00 0.336938437454D-03 0.000000000000D+00  6 -2 2 25 1 -1 21 2 0.29772816D+00 0.23685241D+00 0.33980943D+06 0.33980943D+06 0.33980943D+06 0.10805708D+01  1  2  5  1  6  1       -2 -.181093186469D-01 0.100000000000D+01
0.383603943980D+00 0.000000000000D+00 0.208400609278D+00 0.336938437454D-03 0.000000000000D+00  6 -2 2 25 1 -1 21 2 0.24591357D+00 0.23685241D+00 0.33980943D+06 0.33980943D+06 0.33980943D+06 0.10805708D+01  1  2  6  1  6  1       -2 0.432289663436D-01 0.100000000000D+01
-.730940927105D-02 0.000000000000D+00 -.586624278049D-02 0.336938437454D-03 0.000000000000D+00  6 21 2 25 1 2 -1 2 0.29772816D+00 0.23685241D+00 0.33980943D+06 0.33980943D+06 0.33980943D+06 0.10805708D+01  3  4  5  5  5  1       -2 -.274595145641D-02 0.100000000000D+01
  </mgrwgt>
  </event>
  <event>
  5     66 -.17652913E-05 0.21051020E+03 0.75467711E-02 0.95037363E-01
       -2 -1    0    0    0  501 0.00000000E+00 0.00000000E+00 0.13277325E+04 0.13277326E+04 0.32000000E+00 0.0000E+00 0.9000E+01
        2 -1    0    0  502    0 0.00000000E+00 0.00000000E+00 -.31682229E+03 0.31682245E+03 0.32000000E+00 0.0000E+00 0.9000E+01
       25  1    1    2    0    0 -.42854025E+03 -.14629490E+03 0.41587930E+03 0.62739903E+03 0.12500000E+03 0.0000E+00 0.9000E+01
        1  1    1    2  502    0 0.18646017E+03 0.16742100E+03 -.10832616E+03 0.27300521E+03 0.32000000E+00 0.0000E+00 0.9000E+01
       -1  1    1    2    0  501 0.24208008E+03 -.21126098E+02 0.70335710E+03 0.74415078E+03 0.32000000E+00 0.0000E+00 0.9000E+01
#aMCatNLO 1  0  0  1  5 0.14877744D+01 0.00000000D+00  -5  6  0 0.00000000D+00 0.00000000D+00 0.00000000D+00 0.00000000D+00 0.00000000D+00
  <mgrwgt>
 -.1935609907D-02   13    4    0
 0.648579540813750D+03 0.000000000000000D+00 0.000000000000000D+00 0.648579540813750D+03
 0.648579540813750D+03 0.000000000000000D+00 0.000000000000000D+00 -.648579540813750D+03
 0.471335811126981D+03 -.428532262001622D+03 -.146335246245408D+03 0.384518267550229D+02
 0.430628248266405D+03 0.186515929566761D+03 0.167455781586074D+03 -.350158617538162D+03
 0.395195022234113D+03 0.242016332434861D+03 -.211205353406657D+02 0.311706790783139D+03
 0.000000000000000D+00 0.000000000000000D+00 0.000000000000000D+00 0.000000000000000D+00
 0.746567083432102D+03 0.000000000000000D+00 0.000000000000000D+00 0.746567083432102D+03
 0.648585614770483D+03 0.000000000000000D+00 0.000000000000000D+00 -.648585614770483D+03
 0.471851134518139D+03 -.429017242969349D+03 -.146574743391332D+03 0.384518267550229D+02
 0.430351678864148D+03 0.186073218945944D+03 0.167237158717938D+03 -.350158617538162D+03
 0.394957121445146D+03 0.241610041027773D+03 -.213211733839830D+02 0.311706790783139D+03
 0.979927633751527D+02 0.133398299563159D+01 0.658758057377063D+00 0.979814686616192D+02
 0.648579540813750D+03 0.000000000000000D+00 0.000000000000000D+00 0.648579540813750D+03
 0.648579540813750D+03 0.000000000000000D+00 0.000000000000000D+00 -.648579540813750D+03
 0.471335811126981D+03 -.428532262001622D+03 -.146335246245408D+03 0.384518267550229D+02
 0.430628248266405D+03 0.186515929566761D+03 0.167455781586074D+03 -.350158617538162D+03
 0.000000000000000D+00 0.000000000000000D+00 0.000000000000000D+00 0.000000000000000D+00
 0.395195022234113D+03 0.242016332434861D+03 -.211205353406657D+02 0.311706790783139D+03
 0.746567083432102D+03 0.000000000000000D+00 0.000000000000000D+00 0.746567083432102D+03
 0.648585614770483D+03 0.000000000000000D+00 0.000000000000000D+00 -.648585614770483D+03
 0.471851134518139D+03 -.429017242969349D+03 -.146574743391332D+03 0.384518267550229D+02
 0.430351678864148D+03 0.186073218945944D+03 0.167237158717938D+03 -.350158617538162D+03
 0.979927633751527D+02 0.133398299563159D+01 0.658758057377063D+00 0.979814686616192D+02
 0.394957121445146D+03 0.241610041027773D+03 -.213211733839830D+02 0.311706790783139D+03
0.793499102742D-05 0.000000000000D+00 0.000000000000D+00 0.717050206754D-06 0.000000000000D+00  6 -2 2 25 1 -1 21 0 0.20426656D+00 0.48741906D-01 0.23201528D+06 0.23201528D+06 0.23201528D+06 0.10929067D+01  1  2  2  1  6  1       -2 0.118621263454D-04 0.100000000000D+01
0.447898897257D-06 0.000000000000D+00 -.304724548764D-07 0.717050206754D-06 0.000000000000D+00  6 -2 2 25 1 -1 21 2 0.20426656D+00 0.48741906D-01 0.23201528D+06 0.23201528D+06 0.23201528D+06 0.10929067D+01  1  2  3  1  6  1       -2 0.799764816977D-06 0.100000000000D+01
-.469643939747D-05 0.000000000000D+00 0.000000000000D+00 0.717050206754D-06 0.000000000000D+00  6 -2 2 25 1 -1 21 2 0.20426656D+00 0.48741906D-01 0.23201528D+06 0.23201528D+06 0.23201528D+06 0.10929067D+01  1  2 15  1  6  1       -2 -.838592597161D-05 0.100000000000D+01
0.123531863656D-08 0.000000000000D+00 0.000000000000D+00 0.717050206754D-06 0.000000000000D+00  6 -2 2 25 1 -1 21 2 0.23512807D+00 0.48741906D-01 0.23256578D+06 0.23256578D+06 0.23256578D+06 0.10928288D+01  1  2 12  1  6  1       -2 0.137955163819D-08 0.100000000000D+01
0.188617408168D-04 0.000000000000D+00 0.000000000000D+00 0.717050206754D-06 0.000000000000D+00  6 -2 2 25 1 -1 21 2 0.23514295D+00 0.48741906D-01 0.23256578D+06 0.23256578D+06 0.23256578D+06 0.10928288D+01  1  2 12  1  6  1       -2 0.210593116010D-04 0.100000000000D+01
-.107374148694D+00 0.000000000000D+00 0.000000000000D+00 0.717050206754D-06 0.000000000000D+00  6 -2 2 25 1 -1 21 2 0.20426656D+00 0.48741906D-01 0.23201528D+06 0.23201528D+06 0.23201528D+06 0.10929067D+01  1  2  4  1  6  1       -2 -.191726451895D+00 0.100000000000D+01
-.104136221590D+00 0.000000000000D+00 -.138111452807D-04 0.717050206754D-06 0.000000000000D+00  6 -2 2 25 1 -1 21 2 0.23512798D+00 0.48741906D-01 0.23201528D+06 0.23201528D+06 0.23201528D+06 0.10929067D+01  1  2  5  1  6  1       -2 -.116324853536D+00 0.100000000000D+01
0.103115888712D+00 0.000000000000D+00 0.136755498535D-04 0.717050206754D-06 0.000000000000D+00  6 -2 2 25 1 -1 21 2 0.20426656D+00 0.48741906D-01 0.23201528D+06 0.23201528D+06 0.23201528D+06 0.10929067D+01  1  2  6  1  6  1       -2 0.184122935707D+00 0.100000000000D+01
0.109099244538D+00 0.000000000000D+00 0.000000000000D+00 0.717050206754D-06 0.218423921649D-05  6 -2 2 25 1 -1 21 2 0.23512720D+00 0.48742362D-01 0.23256578D+06 0.23256578D+06 0.23256578D+06 0.10928288D+01  1  2 11  1  6  1       -2 0.121837747178D+00 0.100000000000D+01
0.267487062343D-10 0.000000000000D+00 0.000000000000D+00 0.717050206754D-06 0.000000000000D+00  6 21 2 25 1 2 -1 2 0.23512807D+00 0.48741906D-01 0.23256578D+06 0.23256578D+06 0.23256578D+06 0.10928288D+01  3  4 12  5  5  1       -2 0.228090501819D-09 0.100000000000D+01
0.408569031232D-06 0.000000000000D+00 0.000000000000D+00 0.717050206754D-06 0.000000000000D+00  6 21 2 25 1 2 -1 2 0.23514295D+00 0.48741906D-01 0.23256578D+06 0.23256578D+06 0.23256578D+06 0.10928288D+01  3  4 12  5  5  1       -2 0.348310303304D-05 0.100000000000D+01
-.225480105264D-02 0.000000000000D+00 -.299056025704D-06 0.717050206754D-06 0.000000000000D+00  6 21 2 25 1 2 -1 2 0.23512798D+00 0.48741906D-01 0.23201528D+06 0.23201528D+06 0.23201528D+06 0.10929067D+01  3  4  5  5  5  1       -2 -.192336962974D-01 0.100000000000D+01
0.227037128865D-02 0.000000000000D+00 0.000000000000D+00 0.717050206754D-06 0.454527361886D-07  6 21 2 25 1 2 -1 2 0.23512720D+00 0.48742362D-01 0.23256578D+06 0.23256578D+06 0.23256578D+06 0.10928288D+01  3  4 11  5  5  1       -2 0.193598889492D-01 0.100000000000D+01
  </mgrwgt>
  </event>
  <event>
  6     66 0.17652913E-05 0.21848906E+03 0.75467711E-02 0.90338020E-01
       -2 -1    0    0    0  501 0.00000000E+00 0.00000000E+00 0.78433548E+03 0.78433554E+03 0.32000000E+00 0.0000E+00 0.9000E+01
        2 -1    0    0  502    0 -.00000000E+00 -.00000000E+00 -.29022803E+04 0.29022803E+04 0.32000000E+00 0.0000E+00 0.9000E+01
       25  1    1    2    0    0 -.11187176E+03 0.69634627E+03 0.23673442E+03 0.75437498E+03 0.12500000E+03 0.0000E+00 0.9000E+01
        1  1    1    2  502    0 0.15990476E+02 0.25429346E+02 -.21310391E+04 0.21312508E+04 0.32000000E+00 0.0000E+00 0.9000E+01
       -1  1    1    2    0  503 -.17485579E+02 -.38973465E+03 -.10104956E+02 0.39025767E+03 0.32000000E+00 0.0000E+00 0.9000E+01
       21  1    1    2  503  501 0.11336687E+03 -.33204097E+03 -.21353520E+03 0.41073239E+03 0.75000000E+00 0.0000E+00 0.9000E+01
#aMCatNLO 2  0  0  5  5 0.12245916D+03 0.00000000D+00  -5  6  0 0.00000000D+00 0.00000000D+00 0.00000000D+00 0.00000000D+00 0.00000000D+00
  <mgrwgt>
 0.8252753814D-03    1    2    0
 0.150876159535613D+04 0.000000000000000D+00 0.000000000000000D+00 0.150876159535613D+04
 0.150876159535613D+04 -.000000000000000D+00 -.000000000000000D+00 -.150876159535613D+04
 0.109251339430683D+04 -.113520089999464D+03 0.708703307364133D+03 0.814133482935987D+03
 0.111404395389799D+04 0.142603018447088D+02 0.385050081305075D+02 -.111328699774893D+04
 0.810965842507441D+03 0.992597881547549D+02 -.747208315494640D+03 0.299153514812944D+03
 0.000000000000000D+00 0.000000000000000D+00 0.000000000000000D+00 0.000000000000000D+00
 0.150876159535613D+04 0.000000000000000D+00 0.000000000000000D+00 0.150876159535613D+04
 0.150876159535613D+04 -.000000000000000D+00 -.000000000000000D+00 -.150876159535613D+04
 0.108792583059394D+04 -.111817765339666D+03 0.695888539519881D+03 0.819264023860952D+03
 0.110846495304546D+04 0.159954713810590D+02 0.254429904649809D+02 -.110805746749055D+04
 0.469073530282439D+03 -.175377348317534D+02 -.389158182506006D+03 0.261301193371220D+03
 0.352058876790416D+03 0.113360028790360D+03 -.332173347478856D+03 0.274922502583809D+02
0.560110186298D-02 0.000000000000D+00 0.000000000000D+00 0.153454797525D-04 0.190992287317D-08  6 -2 2 25 1 -1 21 2 0.12066700D+00 0.44650467D+00 0.55234909D+06 0.55234909D+06 0.55234909D+06 0.10654675D+01  1  2  1  4  6  5       -1 0.825275381433D-03 0.100000000000D+01
  </mgrwgt>
  </event>
  <event>
  5     66 0.17652913E-05 0.21814070E+02 0.75467711E-02 0.92567699E-01
       -2 -1    0    0    0  501 0.00000000E+00 0.00000000E+00 0.85266157E+03 0.85266163E+03 0.32000000E+00 0.0000E+00 0.9000E+01
        2 -1    0    0  502    0 0.00000000E+00 0.00000000E+00 -.56501397E+03 0.56501406E+03 0.32000000E+00 0.0000E+00 0.9000E+01
       25  1    1    2    0    0 0.39782049E+03 -.43126021E+03 0.33566227E+02 0.60083126E+03 0.12500000E+03 0.0000E+00 0.9000E+01
        1  1    1    2  502    0 -.21811302E+02 -.27681106E+00 -.12723240E+03 0.12908910E+03 0.32000000E+00 0.0000E+00 0.9000E+01
       -1  1    1    2    0  501 -.37600919E+03 0.43153702E+03 0.38131377E+03 0.68775534E+03 0.32000000E+00 0.0000E+00 0.9000E+01
#aMCatNLO 1  0  0  2  1 0.10132754D+02 0.00000000D+00  -5  6  0 0.00000000D+00 0.00000000D+00 0.00000000D+00 0.00000000D+00 0.00000000D+00
  <mgrwgt>
 0.1062840247D-02    9    2    0
 0.694093517788267D+03 0.000000000000000D+00 0.000000000000000D+00 0.694093517788267D+03
 0.694093517788267D+03 0.000000000000000D+00 0.000000000000000D+00 -.694093517788267D+03
 0.606634856317773D+03 0.397819034113590D+03 -.431257656398797D+03 -.902091946202433D+02
 0.158203726306420D+03 -.218123170651114D+02 -.276531178585060D+00 -.156692582377071D+03
 0.623348452952341D+03 -.376006717048478D+03 0.431534187577382D+03 0.246901776997314D+03
 0.000000000000000D+00 -.000000000000000D+00 -.000000000000000D+00 -.000000000000000D+00
 0.696770845477860D+03 0.000000000000000D+00 0.000000000000000D+00 0.696770845477860D+03
 0.703765918077616D+03 0.000000000000000D+00 0.000000000000000D+00 -.703765918077616D+03
 0.605184947561043D+03 0.399846849903696D+03 -.427327296790787D+03 -.902091946202433D+02
 0.158133146076954D+03 -.212829702903198D+02 0.749461020717384D+00 -.156692582377071D+03
 0.624905922310339D+03 -.373917932953578D+03 0.435582717368157D+03 0.246901776997314D+03
 0.123127476071392D+02 -.464594665979773D+01 -.900488159808754D+01 -.699507259975548D+01
0.111750455734D-03 0.000000000000D+00 0.000000000000D+00 0.321979710755D-05 0.000000000000D+00  6 -2 2 25 1 -1 21 0 0.13117872D+00 0.86925238D-01 0.35645089D+06 0.35645089D+06 0.35645089D+06 0.10790551D+01  1  2  2  2  6  2        2 0.306093015609D-03 0.100000000000D+01
0.534947696784D-04 0.000000000000D+00 -.429151174591D-06 0.321979710755D-05 0.000000000000D+00  6 -2 2 25 1 -1 21 2 0.13117872D+00 0.86925238D-01 0.35645089D+06 0.35645089D+06 0.35645089D+06 0.10790551D+01  1  2  3  2  6  2        2 0.170609299983D-03 0.100000000000D+01
-.751246857704D-04 0.000000000000D+00 0.000000000000D+00 0.321979710755D-05 0.000000000000D+00  6 -2 2 25 1 -1 21 2 0.13117872D+00 0.86925238D-01 0.35645089D+06 0.35645089D+06 0.35645089D+06 0.10790551D+01  1  2 15  2  6  2        2 -.239592956989D-03 0.100000000000D+01
0.417255540548D-08 0.000000000000D+00 0.000000000000D+00 0.321979710755D-05 0.000000000000D+00  6 -2 2 25 1 -1 21 2 0.13117872D+00 0.88302708D-01 0.36235257D+06 0.36235257D+06 0.36235257D+06 0.10785360D+01  1  2 12  2  6  2        2 0.130451295949D-07 0.100000000000D+01
-.188477336554D-05 0.000000000000D+00 0.000000000000D+00 0.321979710755D-05 0.000000000000D+00  6 -2 2 25 1 -1 21 2 0.13117872D+00 0.86925238D-01 0.35645089D+06 0.35645089D+06 0.35645089D+06 0.10790551D+01  1  2  4  2  6  2        2 -.601105241605D-05 0.100000000000D+01
-.161907351736D-01 0.000000000000D+00 -.170345642113D-02 0.321979710755D-05 0.000000000000D+00  6 -2 2 25 1 -1 21 2 0.13117872D+00 0.88376499D-01 0.35645089D+06 0.35645089D+06 0.35645089D+06 0.10790551D+01  1  2  5  2  6  2        2 -.506506603637D-01 0.100000000000D+01
0.162169508743D-01 0.000000000000D+00 0.170322294116D-02 0.321979710755D-05 0.000000000000D+00  6 -2 2 25 1 -1 21 2 0.13117872D+00 0.86925238D-01 0.35645089D+06 0.35645089D+06 0.35645089D+06 0.10790551D+01  1  2  6  2  6  2        2 0.517202457952D-01 0.100000000000D+01
0.277818460632D-09 0.000000000000D+00 0.000000000000D+00 0.321979710755D-05 0.000000000000D+00  6 -2 21 25 1 -1 -2 2 0.13117872D+00 0.88302708D-01 0.36235257D+06 0.36235257D+06 0.36235257D+06 0.10785360D+01  1  2 12  6  6  2        2 0.135203374726D-08 0.100000000000D+01
-.488680877332D-04 0.000000000000D+00 -.515954625520D-05 0.321979710755D-05 0.000000000000D+00  6 -2 21 25 1 -1 -2 2 0.13117872D+00 0.88376499D-01 0.35645089D+06 0.35645089D+06 0.35645089D+06 0.10790551D+01  1  2  5  6  6  2        2 -.237857888148D-03 0.100000000000D+01
  </mgrwgt>
  </event>
  <event>
  5     66 -.17652913E-05 0.13563725E+02 0.75467711E-02 0.91761764E-01
       -2 -1    0    0    0  501 0.00000000E+00 0.00000000E+00 0.27847691E+03 0.27847709E+03 0.32000000E+00 0.0000E+00 0.9000E+01
        2 -1    0    0  502    0 0.00000000E+00 0.00000000E+00 -.29714417E+04 0.29714417E+04 0.32000000E+00 0.0000E+00 0.9000E+01
       25  1    1    2    0    0 0.45583082E+03 -.42142787E+03 -.30281695E+03 0.70193040E+03 0.12500000E+03 0.0000E+00 0.9000E+01
        1  1    1    2  502    0 -.13086951E+02 -.35565493E+01 -.12754029E+04 0.12754750E+04 0.32000000E+00 0.0000E+00 0.9000E+01
       -1  1    1    2    0  501 -.44274387E+03 0.42498442E+03 -.11147449E+04 0.12725134E+04 0.32000000E+00 0.0000E+00 0.9000E+01
#aMCatNLO 1  0  0  1  2 0.24471092D+02 0.00000000D+00  -5  6  0 0.00000000D+00 0.00000000D+00 0.00000000D+00 0.00000000D+00 0.00000000D+00
  <mgrwgt>
 -.4791711267D-02    7    4    0
 0.909658301328531D+03 0.000000000000000D+00 0.000000000000000D+00 0.909658301328531D+03
 0.909658301328531D+03 0.000000000000000D+00 0.000000000000000D+00 -.909658301328531D+03
 0.805642663059074D+03 0.455772774667041D+03 -.421369696402846D+03 0.498150436481387D+03
 0.390669557678388D+03 -.130890107777100D+02 -.355702668212103D+01 -.390434025995009D+03
 0.623004381919600D+03 -.442683763889331D+03 0.424926723084967D+03 -.107716410486378D+03
 0.000000000000000D+00 0.000000000000000D+00 0.000000000000000D+00 0.000000000000000D+00
 0.111472275507140D+04 0.000000000000000D+00 0.000000000000000D+00 0.111472275507140D+04
 0.910983134674281D+03 0.000000000000000D+00 0.000000000000000D+00 -.910983134674281D+03
 0.805881554837564D+03 0.446495407034984D+03 -.431634190672469D+03 0.498150436481387D+03
 0.390923186482959D+03 -.175885542196307D+02 -.853532868622874D+01 -.390434025995009D+03
 0.622780090034222D+03 -.449855608040521D+03 0.416991783335663D+03 -.107716410486378D+03
 0.206121058390940D+03 0.209487552251683D+02 0.231777360230352D+02 0.203739620397123D+03
 0.909658301328531D+03 0.000000000000000D+00 0.000000000000000D+00 0.909658301328531D+03
 0.909658301328531D+03 0.000000000000000D+00 0.000000000000000D+00 -.909658301328531D+03
 0.805642663059074D+03 0.455772774667041D+03 -.421369696402846D+03 0.498150436481387D+03
 0.390669557678388D+03 -.130890107777100D+02 -.355702668212103D+01 -.390434025995009D+03
 0.000000000000000D+00 0.000000000000000D+00 0.000000000000000D+00 0.000000000000000D+00
 0.623004381919600D+03 -.442683763889331D+03 0.424926723084967D+03 -.107716410486378D+03
 0.111472275507140D+04 0.000000000000000D+00 0.000000000000000D+00 0.111472275507140D+04
 0.910983134674281D+03 0.000000000000000D+00 0.000000000000000D+00 -.910983134674281D+03
 0.805881554837564D+03 0.446495407034984D+03 -.431634190672469D+03 0.498150436481387D+03
 0.390923186482959D+03 -.175885542196307D+02 -.853532868622874D+01 -.390434025995009D+03
 0.206121058390940D+03 0.209487552251683D+02 0.231777360230352D+02 0.203739620397123D+03
 0.622780090034222D+03 -.449855608040521D+03 0.416991783335663D+03 -.107716410486378D+03
0.382310200465D-04 0.000000000000D+00 0.000000000000D+00 0.196637371656D-05 0.000000000000D+00  6 -2 2 25 1 -1 21 0 0.42842617D-01 0.45714489D+00 0.39712496D+06 0.39712496D+06 0.39712496D+06 0.10756535D+01  1  2  2  1  6  1       -2 0.454769551641D-04 0.100000000000D+01
0.332632100639D-04 0.000000000000D+00 -.146817183437D-06 0.196637371656D-05 0.000000000000D+00  6 -2 2 25 1 -1 21 2 0.42842617D-01 0.45714489D+00 0.39712496D+06 0.39712496D+06 0.39712496D+06 0.10756535D+01  1  2  3  1  6  1       -2 0.457809152323D-04 0.100000000000D+01
-.257977195159D-04 0.000000000000D+00 0.000000000000D+00 0.196637371656D-05 0.000000000000D+00  6 -2 2 25 1 -1 21 2 0.42842617D-01 0.45714489D+00 0.39712496D+06 0.39712496D+06 0.39712496D+06 0.10756535D+01  1  2 15  1  6  1       -2 -.355059901938D-04 0.100000000000D+01
-.399850942425D-02 0.000000000000D+00 0.000000000000D+00 0.196637371656D-05 0.000000000000D+00  6 -2 2 25 1 -1 21 2 0.42842617D-01 0.45714489D+00 0.39712496D+06 0.39712496D+06 0.39712496D+06 0.10756535D+01  1  2  4  1  6  1       -2 -.550323978519D-02 0.100000000000D+01
-.417633982488D-02 0.000000000000D+00 -.575620049058D-04 0.196637371656D-05 0.000000000000D+00  6 -2 2 25 1 -1 21 2 0.52534827D-01 0.45714489D+00 0.39712496D+06 0.39712496D+06 0.39712496D+06 0.10756535D+01  1  2  5  1  6  1       -2 -.385098082340D-02 0.100000000000D+01
0.410361927883D-02 0.000000000000D+00 0.563853248096D-04 0.196637371656D-05 0.000000000000D+00  6 -2 2 25 1 -1 21 2 0.42842617D-01 0.45714489D+00 0.39712496D+06 0.39712496D+06 0.39712496D+06 0.10756535D+01  1  2  6  1  6  1       -2 0.564790487716D-02 0.100000000000D+01
-.120627732874D-03 0.000000000000D+00 -.167204635052D-05 0.196637371656D-05 0.000000000000D+00  6 21 2 25 1 2 -1 2 0.52534827D-01 0.45714489D+00 0.39712496D+06 0.39712496D+06 0.39712496D+06 0.10756535D+01  3  4  5  5  5  1       -2 -.114114741534D-02 0.100000000000D+01
  </mgrwgt>
  </event>
  <event>
  5     66 0.17652913E-05 0.64475710E+02 0.75467711E-02 0.94823297E-01
       -2 -1    0    0    0  501 0.00000000E+00 0.00000000E+00 0.23041328E+03 0.23041350E+03 0.32000000E+00 0.0000E+00 0.9000E+01
        2 -1    0    0  502    0 -.00000000E+00 -.00000000E+00 -.18140585E+04 0.18140585E+04 0.32000000E+00 0.0000E+00 0.9000E+01
       25  1    1    2    0    0 -.44392865E+03 0.17620964E+03 -.29355923E+03 0.57439055E+03 0.12500000E+03 0.0000E+00 0.9000E+01
        1  1    1    2  502    0 0.38116241E+03 -.19134446E+03 -.13282749E+04 0.13950670E+04 0.32000000E+00 0.0000E+00 0.9000E+01
       -1  1    1    2    0  501 0.62766241E+02 0.15134820E+02 0.38189002E+02 0.75014439E+02 0.32000000E+00 0.0000E+00 0.9000E+01
#aMCatNLO 1  0  0  4  2 0.41301930D+02 0.00000000D+00  -5  6  0 0.00000000D+00 0.00000000D+00 0.00000000D+00 0.00000000D+00 0.00000000D+00
  <mgrwgt>
 0.4287532911D-02    8    2    0
 0.646516366911377D+03 0.000000000000000D+00 0.000000000000000D+00 0.646516366911377D+03
 0.646516366911377D+03 -.000000000000000D+00 -.000000000000000D+00 -.646516366911377D+03
 0.548793644513227D+03 -.443954486202207D+03 0.176272687596518D+03 0.239545023005166D+03
 0.579087828840118D+03 0.381275232361171D+03 -.191386532889895D+03 -.391590482171211D+03
 0.165151260469409D+03 0.626792538410353D+02 0.151138452933770D+02 0.152045459166046D+03
 0.000000000000000D+00 0.000000000000000D+00 -.000000000000000D+00 0.000000000000000D+00
 0.646516366911377D+03 0.000000000000000D+00 0.000000000000000D+00 0.646516366911377D+03
 0.646516366911377D+03 -.000000000000000D+00 -.000000000000000D+00 -.646516366911377D+03
 0.545552064918589D+03 -.441668271959514D+03 0.175125089797828D+03 0.237196956145175D+03
 0.443172740778652D+03 0.280373432057919D+03 -.114650508880950D+03 -.323493551061942D+03
 0.164732303214239D+03 0.633684186042575D+02 0.147679092256021D+02 0.151337649324178D+03
 0.139575624911274D+03 0.979264212973379D+02 -.752424901424803D+02 -.650410544074102D+02
0.598161462069D-04 0.000000000000D+00 0.000000000000D+00 0.189558609070D-05 0.000000000000D+00  6 -2 2 25 1 -1 21 0 0.35448216D-01 0.27908593D+00 0.24247916D+06 0.24247916D+06 0.24247916D+06 0.10914585D+01  1  2  2  3  6  4        1 0.484489859066D-03 0.100000000000D+01
0.975847564987D-05 0.000000000000D+00 -.229709751388D-06 0.189558609070D-05 0.000000000000D+00  6 -2 2 25 1 -1 21 2 0.35448216D-01 0.27908593D+00 0.24247916D+06 0.24247916D+06 0.24247916D+06 0.10914585D+01  1  2  3  3  6  4        1 0.941591831291D-04 0.100000000000D+01
-.305587142847D-04 0.000000000000D+00 0.000000000000D+00 0.189558609070D-05 0.000000000000D+00  6 -2 2 25 1 -1 21 2 0.35448216D-01 0.27908593D+00 0.24247916D+06 0.24247916D+06 0.24247916D+06 0.10914585D+01  1  2 15  3  6  4        1 -.294859943065D-03 0.100000000000D+01
0.281480325211D-07 0.000000000000D+00 0.000000000000D+00 0.189558609070D-05 0.000000000000D+00  6 -2 2 25 1 -1 21 2 0.35448216D-01 0.27908593D+00 0.24145406D+06 0.24145406D+06 0.24145406D+06 0.10915973D+01  1  2 12  3  6  4        1 0.271717835562D-06 0.100000000000D+01
0.621546454152D-03 0.000000000000D+00 0.000000000000D+00 0.189558609070D-05 0.000000000000D+00  6 -2 2 25 1 -1 21 2 0.35448216D-01 0.27908593D+00 0.24145406D+06 0.24145406D+06 0.24145406D+06 0.10915973D+01  1  2 12  3  6  4        1 0.599989562668D-02 0.100000000000D+01
-.382928728767D-03 0.000000000000D+00 0.000000000000D+00 0.189558609070D-05 0.000000000000D+00  6 -2 2 25 1 -1 21 2 0.35448216D-01 0.27908593D+00 0.24247916D+06 0.24247916D+06 0.24247916D+06 0.10914585D+01  1  2  4  3  6  4        1 -.369486563179D-02 0.100000000000D+01
-.654354392419D-03 0.000000000000D+00 0.000000000000D+00 0.189558609070D-05 0.000000000000D+00  6 -2 2 25 1 -1 21 2 0.35448216D-01 0.27908593D+00 0.24247916D+06 0.24247916D+06 0.24247916D+06 0.10914585D+01  1  2  5  3  6  4        1 -.631384216939D-02 0.100000000000D+01
0.830377647067D-03 0.000000000000D+00 -.000000000000D+00 0.189558609070D-05 0.000000000000D+00  6 -2 2 25 1 -1 21 2 0.35448216D-01 0.27908593D+00 0.24247916D+06 0.24247916D+06 0.24247916D+06 0.10914585D+01  1  2  6  3  6  4        1 0.801228426875D-02 0.100000000000D+01
  </mgrwgt>
  </event>
  <event>
  6     66 -.17652913E-05 0.49751178E+02 0.75467711E-02 0.93544739E-01
       -2 -1    0    0    0  501 0.00000000E+00 0.00000000E+00 0.52869700E+03 0.52869710E+03 0.32000000E+00 0.0000E+00 0.9000E+01
        2 -1    0    0  502    0 -.00000000E+00 -.00000000E+00 -.11282637E+04 0.11282637E+04 0.32000000E+00 0.0000E+00 0.9000E+01
       25  1    1    2    0    0 0.27792101E+03 0.41939054E+03 0.21098371E+02 0.51884357E+03 0.12500000E+03 0.0000E+00 0.9000E+01
        1  1    1    2  502    0 -.69083328E+02 0.30070465E+02 -.61910815E+03 0.62367599E+03 0.32000000E+00 0.0000E+00 0.9000E+01
       -1  1    1    2    0  503 -.21948898E+03 -.38979940E+03 0.25486425E+02 0.44807214E+03 0.32000000E+00 0.0000E+00 0.9000E+01
       21  1    1    2  503  501 0.10651298E+02 -.59661605E+02 -.27043324E+02 0.66369128E+02 0.75000000E+00 0.0000E+00 0.9000E+01
#aMCatNLO 2  0  0  5  1 0.40892219D+02 0.00000000D+00  -5  6  0 0.00000000D+00 0.00000000D+00 0.00000000D+00 0.00000000D+00 0.00000000D+00
  <mgrwgt>
 -.6858592888D-02    4    2    0
 0.772340433227399D+03 0.000000000000000D+00 0.000000000000000D+00 0.772340433227399D+03
 0.772340433227399D+03 -.000000000000000D+00 -.000000000000000D+00 -.772340433227399D+03
 0.569053210336055D+03 0.280386108156870D+03 0.424575981302431D+03 0.222070760451465D+03
 0.430844988439491D+03 -.672119888889566D+02 0.342179190672492D+02 -.424192275539906D+03
 0.544782667679252D+03 -.213174119267914D+03 -.458793900369681D+03 0.202121515088441D+03
 0.000000000000000D+00 0.000000000000000D+00 -.000000000000000D+00 0.000000000000000D+00
 0.772340433227399D+03 0.000000000000000D+00 0.000000000000000D+00 0.772340433227399D+03
 0.772340433227399D+03 -.000000000000000D+00 -.000000000000000D+00 -.772340433227399D+03
 0.564694943578192D+03 0.277853031351666D+03 0.419124286737507D+03 0.224472502855569D+03
 0.429047055913618D+03 -.691332026832284D+02 0.300830776843221D+02 -.422370672409842D+03
 0.490209906044286D+03 -.219378862722938D+03 -.389509596796970D+03 0.201149050650010D+03
 0.607289609187021D+02 0.106590340545002D+02 -.596977676248588D+02 -.325088109573660D+01
-.257258429605D-07 0.000000000000D+00 0.000000000000D+00 0.237384488048D-05 0.000000000000D+00  6 -2 2 25 1 -1 21 2 0.81338012D-01 0.17357904D+00 0.30318208D+06 0.30318208D+06 0.30318208D+06 0.10842130D+01  1  2 13  4  6  5       -1 -.108579944931D-06 0.100000000000D+01
-.285633879426D-02 0.000000000000D+00 0.000000000000D+00 0.237384488048D-05 0.000000000000D+00  6 -2 2 25 1 -1 21 2 0.81338012D-01 0.17357904D+00 0.30318208D+06 0.30318208D+06 0.30318208D+06 0.10842130D+01  1  2 13  4  6  5       -1 -.120556247452D-01 0.100000000000D+01
-.931872555664D-04 0.000000000000D+00 0.000000000000D+00 0.237384488048D-05 0.000000000000D+00  6 -2 2 25 1 -1 21 2 0.81338012D-01 0.17357904D+00 0.30539688D+06 0.30539688D+06 0.30539688D+06 0.10839794D+01  1  2  8  4  6  5       -1 -.393015363905D-03 0.100000000000D+01
0.132447543921D-02 0.000000000000D+00 0.000000000000D+00 0.237384488048D-05 0.368487600194D-08  6 -2 2 25 1 -1 21 2 0.81338012D-01 0.17357904D+00 0.30318208D+06 0.30318208D+06 0.30318208D+06 0.10842130D+01  1  2  1  4  6  5       -1 0.559015580063D-02 0.100000000000D+01
  </mgrwgt>
  </event>
  <event>
  6     66 0.17652913E-05 0.10745767E+03 0.75467711E-02 0.94136766E-01
       -2 -1    0    0    0  501 0.00000000E+00 0.00000000E+00 0.36842173E+03 0.36842187E+03 0.32000000E+00 0.0000E+00 0.9000E+01
        2 -1    0    0  502    0 -.00000000E+00 -.00000000E+00 -.19747003E+04 0.19747003E+04 0.32000000E+00 0.0000E+00 0.9000E+01
       25  1    1    2    0    0 0.32552701E+03 0.32912670E+03 -.50713838E+03 0.69793019E+03 0.12500000E+03 0.0000E+00 0.9000E+01
        1  1    1    2  502    0 -.11096912E+03 0.55304873E+02 -.11868409E+04 0.11932997E+04 0.32000000E+00 0.0000E+00 0.9000E+01
       -1  1    1    2    0  503 -.16172117E+03 -.26749361E+03 0.40637255E+02 0.31521113E+03 0.32000000E+00 0.0000E+00 0.9000E+01
       21  1    1    2  503  501 -.52836718E+02 -.11693797E+03 0.47063464E+02 0.13668116E+03 0.75000000E+00 0.0000E+00 0.9000E+01
#aMCatNLO 2  0  0  5  1 0.24386977D+02 0.00000000D+00  -5  6  0 0.00000000D+00 0.00000000D+00 0.00000000D+00 0.00000000D+00 0.00000000D+00
  <mgrwgt>
 0.7243768023D-02    3    2    0
 0.852949407258011D+03 0.000000000000000D+00 0.000000000000000D+00 0.852949407258011D+03
 0.852949407258011D+03 -.000000000000000D+00 -.000000000000000D+00 -.852949407258011D+03
 0.481367829928364D+03 0.325712218213429D+03 0.329310708941667D+03 -.394461097291770D+02
 0.522213015357694D+03 -.110859730259512D+03 0.556487054304817D+02 -.507266966399030D+03
 0.702317969229965D+03 -.214852487953917D+03 -.384959414372149D+03 0.546713076128207D+03
 0.000000000000000D+00 0.000000000000000D+00 0.000000000000000D+00 0.000000000000000D+00
 0.852949407258011D+03 0.000000000000000D+00 0.000000000000000D+00 0.852949407258011D+03
 0.852949407258011D+03 -.000000000000000D+00 -.000000000000000D+00 -.852949407258011D+03
 0.481018784219685D+03 0.325546781245051D+03 0.329014289202391D+03 -.390251392542786D+02
 0.521773398126272D+03 -.111039194463124D+03 0.553271525577136D+02 -.506810302258225D+03
 0.470910431164987D+03 -.161630676524613D+03 -.267326109154683D+03 0.352376091627125D+03
 0.232196201005079D+03 -.528769102573148D+02 -.117015332605422D+03 0.193459349885379D+03
-.975027980672D-08 0.000000000000D+00 0.000000000000D+00 0.621785945116D-05 0.000000000000D+00  6 -2 2 25 1 -1 21 2 0.56680279D-01 0.30380006D+00 0.27263586D+06 0.27263586D+06 0.27263586D+06 0.10876385D+01  1  2 13  4  6  5       -1 -.306750232170D-07 0.100000000000D+01
-.706028388295D-02 0.000000000000D+00 0.000000000000D+00 0.621785945116D-05 0.000000000000D+00  6 -2 2 25 1 -1 21 2 0.56680279D-01 0.30380006D+00 0.27263586D+06 0.27263586D+06 0.27263586D+06 0.10876385D+01  1  2 13  4  6  5       -1 -.222121186593D-01 0.100000000000D+01
0.936277811972D-02 0.000000000000D+00 0.000000000000D+00 0.621785945116D-05 0.422009962950D-07  6 -2 2 25 1 -1 21 2 0.56680279D-01 0.30380006D+00 0.27263586D+06 0.27263586D+06 0.27263586D+06 0.10876385D+01  1  2  1  4  6  5       -1 0.294559173574D-01 0.100000000000D+01
  </mgrwgt>
  </event>
  <event>
  5     66 -.17652913E-05 0.65226627E+02 0.75467711E-02 0.89537685E-01
       -2 -1    0    0    0  501 0.00000000E+00 0.00000000E+00 0.35419883E+03 0.35419897E+03 0.32000000E+00 0.0000E+00 0.9000E+01
        2 -1    0    0  502    0 0.00000000E+00 0.00000000E+00 -.33949340E+04 0.33949340E+04 0.32000000E+00 0.0000E+00 0.9000E+01
       25  1    1    2    0    0 0.50544503E+03 -.51997654E+03 -.21644414E+04 0.22861062E+04 0.12500000E+03 0.0000E+00 0.9000E+01
        1  1    1    2  502    0 -.55036692E+03 0.56729893E+03 -.10286722E+04 0.12972658E+04 0.32000000E+00 0.0000E+00 0.9000E+01
       -1  1    1    2    0  501 0.44921897E+02 -.47322388E+02 0.15237848E+03 0.16576094E+03 0.32000000E+00 0.0000E+00 0.9000E+01
#aMCatNLO 1  0  0  1  5 0.21512977D+02 0.00000000D+00  -5  6  0 0.00000000D+00 0.00000000D+00 0.00000000D+00 0.00000000D+00 0.00000000D+00
  <mgrwgt>
 -.6342837081D-02   11    4    0
 0.109657737174516D+04 0.000000000000000D+00 0.000000000000000D+00 0.109657737174516D+04
 0.109657737174516D+04 0.000000000000000D+00 0.000000000000000D+00 -.109657737174516D+04
 0.907176558866335D+03 0.505522714007252D+03 -.520056626492393D+03 -.530407578962309D+03
 0.791514149644040D+03 -.550429455151991D+03 0.567363048116538D+03 0.402645702785935D+02
 0.494464034979943D+03 0.449067411447385D+02 -.473064216241455D+02 0.490143008683715D+03
 0.000000000000000D+00 0.000000000000000D+00 -.000000000000000D+00 0.000000000000000D+00
 0.198455416073683D+04 0.000000000000000D+00 0.000000000000000D+00 0.198455416073683D+04
 0.109676043271166D+04 0.000000000000000D+00 0.000000000000000D+00 -.109676043271166D+04
 0.900106033695597D+03 0.499314145446121D+03 -.513730528810553D+03 -.530407578962309D+03
 0.799306125306025D+03 -.555894409435352D+03 0.572931454792397D+03 0.402645702785935D+02
 0.493848093929094D+03 0.415115866529161D+02 -.438469963558688D+02 0.490143008683715D+03
 0.888054340517768D+03 0.150686773363142D+02 -.153539296259749D+02 0.887793728025166D+03
 0.109657737174516D+04 0.000000000000000D+00 0.000000000000000D+00 0.109657737174516D+04
 0.109657737174516D+04 0.000000000000000D+00 0.000000000000000D+00 -.109657737174516D+04
 0.907176558866335D+03 0.505522714007252D+03 -.520056626492393D+03 -.530407578962309D+03
 0.791514149644040D+03 -.550429455151991D+03 0.567363048116538D+03 0.402645702785935D+02
 0.000000000000000D+00 0.000000000000000D+00 -.000000000000000D+00 0.000000000000000D+00
 0.494464034979943D+03 0.449067411447385D+02 -.473064216241455D+02 0.490143008683715D+03
 0.198455416073683D+04 0.000000000000000D+00 0.000000000000000D+00 0.198455416073683D+04
 0.109676043271166D+04 0.000000000000000D+00 0.000000000000000D+00 -.109676043271166D+04
 0.900106033695597D+03 0.499314145446121D+03 -.513730528810553D+03 -.530407578962309D+03
 0.799306125306025D+03 -.555894409435352D+03 0.572931454792397D+03 0.402645702785935D+02
 0.888054340517768D+03 0.150686773363142D+02 -.153539296259749D+02 0.887793728025166D+03
 0.493848093929094D+03 0.415115866529161D+02 -.438469963558688D+02 0.490143008683715D+03
0.208137675000D-04 0.000000000000D+00 0.000000000000D+00 0.523301785374D-06 0.000000000000D+00  6 -2 2 25 1 -1 21 0 0.54492140D-01 0.52229754D+00 0.63335810D+06 0.63335810D+06 0.63335810D+06 0.10613284D+01  1  2  2  1  6  1       -2 0.777602341055D-05 0.100000000000D+01
0.709314254424D-05 0.000000000000D+00 -.799303475907D-07 0.523301785374D-06 0.000000000000D+00  6 -2 2 25 1 -1 21 2 0.54492140D-01 0.52229754D+00 0.63335810D+06 0.63335810D+06 0.63335810D+06 0.10613284D+01  1  2  3  1  6  1       -2 0.298500517969D-05 0.100000000000D+01
-.159597476364D-04 0.000000000000D+00 0.000000000000D+00 0.523301785374D-06 0.000000000000D+00  6 -2 2 25 1 -1 21 2 0.54492140D-01 0.52229754D+00 0.63335810D+06 0.63335810D+06 0.63335810D+06 0.10613284D+01  1  2 15  1  6  1       -2 -.671633610409D-05 0.100000000000D+01
0.361555382533D-06 0.000000000000D+00 0.000000000000D+00 0.523301785374D-06 0.000000000000D+00  6 -2 2 25 1 -1 21 2 0.98619421D-01 0.52229754D+00 0.64594271D+06 0.64594271D+06 0.64594271D+06 0.10607374D+01  1  2 12  1  6  1       -2 0.407469731865D-07 0.100000000000D+01
0.257875187753D-01 0.000000000000D+00 0.000000000000D+00 0.523301785374D-06 0.000000000000D+00  6 -2 2 25 1 -1 21 2 0.10150287D+00 0.52229754D+00 0.64594271D+06 0.64594271D+06 0.64594271D+06 0.10607374D+01  1  2 12  1  6  1       -2 0.270932231903D-02 0.100000000000D+01
-.371397334601D-01 0.000000000000D+00 0.000000000000D+00 0.523301785374D-06 0.000000000000D+00  6 -2 2 25 1 -1 21 2 0.54492140D-01 0.52229754D+00 0.63335810D+06 0.63335810D+06 0.63335810D+06 0.10613284D+01  1  2  4  1  6  1       -2 -.156295035747D-01 0.100000000000D+01
-.278066667288D-01 0.000000000000D+00 -.147677121944D-04 0.523301785374D-06 0.000000000000D+00  6 -2 2 25 1 -1 21 2 0.98623599D-01 0.52229754D+00 0.63335810D+06 0.63335810D+06 0.63335810D+06 0.10613284D+01  1  2  5  1  6  1       -2 -.314266467832D-02 0.100000000000D+01
0.235504193137D-01 0.000000000000D+00 0.125023240766D-04 0.523301785374D-06 0.000000000000D+00  6 -2 2 25 1 -1 21 2 0.54492140D-01 0.52229754D+00 0.63335810D+06 0.63335810D+06 0.63335810D+06 0.10613284D+01  1  2  6  1  6  1       -2 0.991071632876D-02 0.100000000000D+01
0.234951173917D-07 0.000000000000D+00 0.000000000000D+00 0.523301785374D-06 0.000000000000D+00  6 21 2 25 1 2 -1 2 0.98619421D-01 0.52229754D+00 0.64594271D+06 0.64594271D+06 0.64594271D+06 0.10607374D+01  3  4 12  5  5  1       -2 0.238773143444D-07 0.100000000000D+01
0.174781463550D-02 0.000000000000D+00 0.000000000000D+00 0.523301785374D-06 0.000000000000D+00  6 21 2 25 1 2 -1 2 0.10150287D+00 0.52229754D+00 0.64594271D+06 0.64594271D+06 0.64594271D+06 0.10607374D+01  3  4 12  5  5  1       -2 0.164710531589D-02 0.100000000000D+01
-.180629444298D-02 0.000000000000D+00 -.959716819467D-06 0.523301785374D-06 0.000000000000D+00  6 21 2 25 1 2 -1 2 0.98623599D-01 0.52229754D+00 0.63335810D+06 0.63335810D+06 0.63335810D+06 0.10613284D+01  3  4  5  5  5  1       -2 -.184192210883D-02 0.100000000000D+01
  </mgrwgt>
  </event>
  <event>
  6     66 0.17652913E-05 0.52497417E+02 0.75467711E-02 0.87538502E-01
       -2 -1    0    0    0  503 0.00000000E+00 0.00000000E+00 0.29267417E+04 0.29267417E+04 0.32000000E+00 0.0000E+00 0.9000E+01
        2 -1    0    0  502    0 0.00000000E+00 0.00000000E+00 -.13652572E+04 0.13652572E+04 0.32000000E+00 0.0000E+00 0.9000E+01
       25  1    1    2    0    0 -.61852581E+03 -.61020232E+03 -.98899078E+02 0.88336124E+03 0.12500000E+03 0.0000E+00 0.9000E+01
        1  1    1    2  502    0 0.50754503E+02 -.35966904E+02 -.76851161E+03 0.77102518E+03 0.32000000E+00 0.0000E+00 0.9000E+01
       -1  1    1    2    0  501 0.61606862E+03 0.71440940E+03 0.21911093E+04 0.23855568E+04 0.32000000E+00 0.0000E+00 0.9000E+01
       21  1    1    2  501  503 -.48297316E+02 -.68240173E+02 0.23778588E+03 0.25205563E+03 0.75000000E+00 0.0000E+00 0.9000E+01
#aMCatNLO 2  0  0  1  1 0.83602344D+02 0.00000000D+00  -5  6  0 0.00000000D+00 0.00000000D+00 0.00000000D+00 0.00000000D+00 0.00000000D+00
  <mgrwgt>
 0.7567617508D-03    2    2    0
 0.190800773951144D+04 0.000000000000000D+00 0.000000000000000D+00 0.190800773951144D+04
 0.190800773951144D+04 0.000000000000000D+00 0.000000000000000D+00 -.190800773951144D+04
 0.988206719120685D+03 -.630908235792194D+03 -.627693285416030D+03 -.410954324917599D+03
 0.108290665350702D+04 0.370549239813535D+02 -.553292514783750D+02 -.108085726474376D+04
 0.174490210639517D+04 0.593853311810841D+03 0.683022536894405D+03 0.149181158966136D+04
 0.000000000000000D+00 -.000000000000000D+00 -.000000000000000D+00 0.000000000000000D+00
 0.208275783699494D+04 0.000000000000000D+00 0.000000000000000D+00 0.208275783699494D+04
 0.191849091401212D+04 0.000000000000000D+00 0.000000000000000D+00 -.191849091401212D+04
 0.969233999993411D+03 -.618522569119687D+03 -.610193347279639D+03 -.410954324917599D+03
 0.108264606069819D+04 0.507574151055952D+02 -.359687476533416D+02 -.108085726474376D+04
 0.176505110034954D+04 0.616062469937742D+03 0.714402268285432D+03 0.149181158966136D+04
 0.184317589965919D+03 -.482973159236506D+02 -.682401733524512D+02 0.164266922982818D+03
-.229060686778D-02 0.000000000000D+00 0.000000000000D+00 0.663786724573D-04 0.000000000000D+00  6 -2 2 25 1 -1 21 2 0.41248886D+00 0.20889177D+00 0.87458204D+06 0.87458204D+06 0.87458204D+06 0.10517602D+01  1  2  8  1  6  1       -2 -.210429309837D-04 0.100000000000D+01
0.179650602347D+00 0.000000000000D+00 0.000000000000D+00 0.663786724573D-04 0.187213065352D-07  6 -2 2 25 1 -1 21 2 0.45026777D+00 0.21003949D+00 0.96723114D+06 0.96723114D+06 0.96723114D+06 0.10488285D+01  1  2  1  1  6  1       -2 0.777804681785D-03 0.100000000000D+01
  </mgrwgt>
  </event>
  <event>
  6     66 0.17652913E-05 0.23677038E+02 0.75467711E-02 0.94611550E-01
       -2 -1    0    0    0  501 0.00000000E+00 0.00000000E+00 0.32354614E+03 0.32354630E+03 0.32000000E+00 0.0000E+00 0.9000E+01
        2 -1    0    0  502    0 -.00000000E+00 -.00000000E+00 -.19883305E+04 0.19883305E+04 0.32000000E+00 0.0000E+00 0.9000E+01
       25  1    1    2    0    0 -.34129186E+03 0.32237894E+03 -.65014324E+03 0.81161540E+03 0.12500000E+03 0.0000E+00 0.9000E+01
        1  1    1    2  503    0 0.31063905E+03 -.22045236E+03 -.90462514E+03 0.98155112E+03 0.32000000E+00 0.0000E+00 0.9000E+01
       -1  1    1    2    0  501 -.28454148E+02 -.31396115E+02 0.19529129E+03 0.19983530E+03 0.32000000E+00 0.0000E+00 0.9000E+01
       21  1    1    2  502  503 0.59106958E+02 -.70530473E+02 -.30530728E+03 0.31887502E+03 0.75000000E+00 0.0000E+00 0.9000E+01
#aMCatNLO 2  0  0  4  2 0.31973134D+02 0.00000000D+00  -5  6  0 0.00000000D+00 0.00000000D+00 0.00000000D+00 0.00000000D+00 0.00000000D+00
  <mgrwgt>
 0.1309968870D-01    3    2    0
 0.802070373720297D+03 0.000000000000000D+00 0.000000000000000D+00 0.802070373720297D+03
 0.802070373720297D+03 -.000000000000000D+00 -.000000000000000D+00 -.802070373720297D+03
 0.495892346368051D+03 -.342212696081048D+03 0.323100849522600D+03 -.937044868996392D+02
 0.616714887496584D+03 0.371530078865738D+03 -.292391849554518D+03 -.395991993949411D+03
 0.491533513575960D+03 -.293173827846898D+02 -.307089999680820D+02 0.489696480849050D+03
 0.000000000000000D+00 0.000000000000000D+00 0.000000000000000D+00 -.000000000000000D+00
 0.802070373720297D+03 0.000000000000000D+00 0.000000000000000D+00 0.802070373720297D+03
 0.802070373720297D+03 -.000000000000000D+00 -.000000000000000D+00 -.802070373720297D+03
 0.495016631221928D+03 -.341336902984010D+03 0.322411605829998D+03 -.946379430974312D+02
 0.475671721810913D+03 0.310610800328426D+03 -.220413918850345D+03 -.284960035841742D+03
 0.490603916910741D+03 -.284493422265597D+02 -.313921424610259D+02 0.488771287625147D+03
 0.142848477497012D+03 0.591754448821433D+02 -.706055445186271D+02 -.109173308685974D+03
-.304192761180D-08 0.000000000000D+00 0.000000000000D+00 0.278627370149D-04 0.000000000000D+00  6 -2 2 25 1 -1 21 2 0.49776344D-01 0.30589702D+00 0.25062281D+06 0.25062281D+06 0.25062281D+06 0.10903778D+01  1  2 13  3  6  4        1 -.123317767011D-07 0.100000000000D+01
-.671344873697D-02 0.000000000000D+00 0.000000000000D+00 0.278627370149D-04 0.000000000000D+00  6 -2 2 25 1 -1 21 2 0.49776344D-01 0.30589702D+00 0.25062281D+06 0.25062281D+06 0.25062281D+06 0.10903778D+01  1  2 13  3  6  4        1 -.272158845586D-01 0.100000000000D+01
0.994480324933D-02 0.000000000000D+00 0.000000000000D+00 0.278627370149D-04 0.158034918597D-06  6 -2 2 25 1 -1 21 2 0.49776344D-01 0.30589702D+00 0.25062281D+06 0.25062281D+06 0.25062281D+06 0.10903778D+01  1  2  1  3  6  4        1 0.403155855948D-01 0.100000000000D+01
  </mgrwgt>
  </event>
  <event>
  5     66 -.17652913E-05 0.32783058E+02 0.75467711E-02 0.94975681E-01
       -2 -1    0    0    0  501 0.00000000E+00 0.00000000E+00 0.20464512E+03 0.20464537E+03 0.32000000E+00 0.0000E+00 0.9000E+01
        2 -1    0    0  502    0 -.00000000E+00 -.00000000E+00 -.21007620E+04 0.21007621E+04 0.32000000E+00 0.0000E+00 0.9000E+01
       25  1    1    2    0    0 -.26708563E+03 0.37886070E+03 -.99871470E+03 0.11081183E+04 0.12500000E+03 0.0000E+00 0.9000E+01
        1  1    1    2  502    0 -.21520843E+02 -.24729030E+02 -.69809636E+03 0.69886573E+03 0.32000000E+00 0.0000E+00 0.9000E+01
       -1  1    1    2    0  501 0.28860647E+03 -.35413167E+03 -.19930584E+03 0.49842337E+03 0.32000000E+00 0.0000E+00 0.9000E+01
#aMCatNLO 1  0  0  4  2 0.31973134D+02 0.00000000D+00  -5  6  0 0.00000000D+00 0.00000000D+00 0.00000000D+00 0.00000000D+00 0.00000000D+00
  <mgrwgt>
 -.3111712793D-02    1    2    0
 0.655675994646261D+03 0.000000000000000D+00 0.000000000000000D+00 0.655675994646261D+03
 0.655675994646261D+03 -.000000000000000D+00 -.000000000000000D+00 -.655675994646261D+03
 0.504043996942354D+03 -.267084020424449D+03 0.378859984459098D+03 -.153514133105680D+03
 0.219244572094873D+03 -.215211428839356D+02 -.247299275155443D+02 -.216779734954882D+03
 0.588063420255296D+03 0.288605163308385D+03 -.354130056943554D+03 0.370293868060562D+03
 0.000000000000000D+00 0.000000000000000D+00 0.000000000000000D+00 0.000000000000000D+00
 0.655675994646261D+03 0.000000000000000D+00 0.000000000000000D+00 0.655675994646261D+03
 0.655675994646261D+03 -.000000000000000D+00 -.000000000000000D+00 -.655675994646261D+03
 0.524649334235209D+03 -.273313467373383D+03 0.371701732114421D+03 -.216262559887111D+03
 0.145039776644387D+03 -.473487544645480D+01 -.100469270581428D+03 -.104499011633584D+03
 0.548648174399173D+03 0.281721591343325D+03 -.362039963804078D+03 0.300956523191095D+03
 0.930147040137536D+02 -.367324852348735D+01 0.908075022710850D+02 0.198050483295997D+02
-.371848043948D-03 0.000000000000D+00 0.000000000000D+00 0.112318433817D-04 0.000000000000D+00  6 -2 2 25 1 -1 21 2 0.31483885D-01 0.32319418D+00 0.23508864D+06 0.23508864D+06 0.23508864D+06 0.10924741D+01  1  2 14  3  6  4        1 -.311171279344D-02 0.100000000000D+01
  </mgrwgt>
  </event>
  <event>
  6     66 0.17652913E-05 0.17191511E+02 0.75467711E-02 0.92087585E-01
       -2 -1    0    0    0  503 0.00000000E+00 0.00000000E+00 0.16329884E+04 0.16329885E+04 0.32000000E+00 0.0000E+00 0.9000E+01
        2 -1    0    0  502    0 0.00000000E+00 0.00000000E+00 -.18273560E+04 0.18273561E+04 0.32000000E+00 0.0000E+00 0.9000E+01
       25  1    1    2    0    0 0.44686929E+03 0.42009511E+03 -.56065855E+03 0.84031843E+03 0.12500000E+03 0.0000E+00 0.9000E+01
        1  1    1    2  502    0 -.16065828E+02 0.11503105E+02 -.10519893E+04 0.10521749E+04 0.32000000E+00 0.0000E+00 0.9000E+01
       -1  1    1    2    0  501 -.40498151E+03 -.42346802E+03 0.10819063E+04 0.12303888E+04 0.32000000E+00 0.0000E+00 0.9000E+01
       21  1    1    2  501  503 -.25821949E+02 -.81301956E+01 0.33637395E+03 0.33746240E+03 0.75000000E+00 0.0000E+00 0.9000E+01
#aMCatNLO 2  0  0  1  5 0.27071629D+02 0.00000000D+00  -5  6  0 0.00000000D+00 0.00000000D+00 0.00000000D+00 0.00000000D+00 0.00000000D+00
  <mgrwgt>
 0.6061920084D-01    1    2    0
 0.153866608776065D+04 0.000000000000000D+00 0.000000000000000D+00 0.153866608776065D+04
 0.153866608776065D+04 0.000000000000000D+00 0.000000000000000D+00 -.153866608776065D+04
 0.751176832483410D+03 0.440544601648875D+03 0.418101499356708D+03 -.423973140485945D+03
 0.886451247190761D+03 -.235041411339330D+02 0.916173985772201D+01 -.886092225176585D+03
 0.143970409584714D+04 -.417040460514942D+03 -.427263239214430D+03 0.131006536566253D+04
 0.000000000000000D+00 -.000000000000000D+00 -.000000000000000D+00 0.000000000000000D+00
 0.193872248906141D+04 0.000000000000000D+00 0.000000000000000D+00 0.193872248906141D+04
 0.153918367392489D+04 0.000000000000000D+00 0.000000000000000D+00 -.153918367392489D+04
 0.756007124348874D+03 0.446867882951550D+03 0.420092422449082D+03 -.423973140485945D+03
 0.886312528685299D+03 -.160666389051962D+02 0.115034821000785D+02 -.886092225176585D+03
 0.143513159623353D+04 -.404979295255326D+03 -.423465708899568D+03 0.131006536566253D+04
 0.400454913718590D+03 -.258219487910280D+02 -.813019564959318D+01 0.399538815136522D+03
0.855791456766D+00 0.000000000000D+00 0.000000000000D+00 0.615007236731D-03 0.802026647791D-05  6 -2 2 25 1 -1 21 2 0.25122894D+00 0.28113164D+00 0.39608829D+06 0.39608829D+06 0.39608829D+06 0.10757354D+01  1  2  1  1  6  1       -2 0.606192008384D-01 0.100000000000D+01
  </mgrwgt>
  </event>
  <event>
  5     66 -.17652913E-05 0.10878889E+02 0.75467711E-02 0.91042638E-01
       -2 -1    0    0    0  501 0.00000000E+00 0.00000000E+00 0.68738338E+03 0.68738345E+03 0.32000000E+00 0.0000E+00 0.9000E+01
        2 -1    0    0  502    0 -.00000000E+00 -.00000000E+00 -.25206347E+04 0.25206348E+04 0.32000000E+00 0.0000E+00 0.9000E+01
       25  1    1    2    0    0 -.63574569E+03 0.23559319E+03 -.65396687E+03 0.95024965E+03 0.12500000E+03 0.0000E+00 0.9000E+01
        1  1    1    2  502    0 -.95933301E+01 0.51283987E+01 -.14985560E+04 0.14985955E+04 0.32000000E+00 0.0000E+00 0.9000E+01
       -1  1    1    2    0  501 0.64533902E+03 -.24072159E+03 0.31927149E+03 0.75917306E+03 0.32000000E+00 0.0000E+00 0.9000E+01
#aMCatNLO 1  0  0  4  5 0.16198012D+02 0.00000000D+00  -5  6  0 0.00000000D+00 0.00000000D+00 0.00000000D+00 0.00000000D+00 0.00000000D+00
  <mgrwgt>
 -.8776275240D-03    1    2    0
 0.131629881705487D+04 0.000000000000000D+00 0.000000000000000D+00 0.131629881705487D+04
 0.131629881705487D+04 -.000000000000000D+00 -.000000000000000D+00 -.131629881705487D+04
 0.702518354119799D+03 -.635729732237101D+03 0.235587111863653D+03 -.135105359437284D+03
 0.782667167667770D+03 -.959404497759184D+01 0.512879454325689D+01 -.782591557015913D+03
 0.114741211232218D+04 0.645323777214692D+03 -.240715906406910D+03 0.917696916453197D+03
 0.000000000000000D+00 0.000000000000000D+00 0.000000000000000D+00 0.000000000000000D+00
 0.131629881705487D+04 0.000000000000000D+00 0.000000000000000D+00 0.131629881705487D+04
 0.131629881705487D+04 -.000000000000000D+00 -.000000000000000D+00 -.131629881705487D+04
 0.702638011664594D+03 -.635736853098972D+03 0.235590918541399D+03 -.135686212079968D+03
 0.134081581346167D+03 0.119300854000016D+02 -.163711683699183D+02 -.132542553034267D+03
 0.114664595872235D+04 0.645312151696674D+03 -.240709691625395D+03 0.916748616516276D+03
 0.649232082376639D+03 -.215053839977037D+02 0.214899414539149D+02 -.648519851402041D+03
-.246366729495D-02 0.000000000000D+00 0.000000000000D+00 0.169402349556D-03 0.000000000000D+00  6 -2 2 25 1 -1 21 2 0.10575130D+00 0.38778997D+00 0.48235867D+06 0.48235867D+06 0.48235867D+06 0.10696147D+01  1  2 14  3  6  4        1 -.877627523988D-03 0.100000000000D+01
  </mgrwgt>
  </event>
  <event>
  5     66 0.17652913E-05 0.52611399E+02 0.75467711E-02 0.89233296E-01
       -2 -1    0    0    0  501 0.00000000E+00 0.00000000E+00 0.11522398E+04 0.11522398E+04 0.32000000E+00 0.0000E+00 0.9000E+01
        2 -1    0    0  502    0 0.00000000E+00 0.00000000E+00 -.96688442E+03 0.96688448E+03 0.32000000E+00 0.0000E+00 0.9000E+01
       25  1    1    2    0    0 -.78934141E+03 0.14607683E+03 -.39790343E+03 0.90462724E+03 0.12500000E+03 0.0000E+00 0.9000E+01
        1  1    1    2  502    0 0.74104461E+03 -.16700471E+03 0.14531867E+03 0.77340501E+03 0.32000000E+00 0.0000E+00 0.9000E+01
       -1  1    1    2    0  501 0.48296803E+02 0.20927884E+02 0.43794013E+03 0.44109207E+03 0.32000000E+00 0.0000E+00 0.9000E+01
#aMCatNLO 1  0  0  1  2 0.35627513D+02 0.00000000D+00  -5  6  0 0.00000000D+00 0.00000000D+00 0.00000000D+00 0.00000000D+00 0.00000000D+00
  <mgrwgt>
 0.2674728480D-03    9    4    0
 0.105550121656456D+04 0.000000000000000D+00 0.000000000000000D+00 0.105550121656456D+04
 0.105550121656456D+04 0.000000000000000D+00 0.000000000000000D+00 -.105550121656456D+04
 0.943096269098217D+03 -.789447115670263D+03 0.146102965779166D+03 -.478782568330774D+03
 0.763759878287627D+03 0.741172964189632D+03 -.167021034196339D+03 0.780753672567146D+02
 0.404146285743277D+03 0.482741514806309D+02 0.209180684171729D+02 0.400707201074059D+03
 0.000000000000000D+00 0.000000000000000D+00 0.000000000000000D+00 0.000000000000000D+00
 0.120105276220023D+04 0.000000000000000D+00 0.000000000000000D+00 0.120105276220023D+04
 0.105783397082101D+04 0.000000000000000D+00 0.000000000000000D+00 -.105783397082101D+04
 0.950116003313105D+03 -.799933048391016D+03 0.134051445744205D+03 -.478782568330774D+03
 0.757784336128382D+03 0.732745588930916D+03 -.176706646766744D+03 0.780753672567146D+02
 0.403402716098358D+03 0.438013807166649D+02 0.157774969573697D+02 0.400707201074059D+03
 0.147583677481395D+03 0.233860787434358D+02 0.268777040651690D+02 0.143218791379216D+03
 0.105550121656456D+04 0.000000000000000D+00 0.000000000000000D+00 0.105550121656456D+04
 0.105550121656456D+04 0.000000000000000D+00 0.000000000000000D+00 -.105550121656456D+04
 0.943096269098217D+03 -.789447115670263D+03 0.146102965779166D+03 -.478782568330774D+03
 0.763759878287627D+03 0.741172964189632D+03 -.167021034196339D+03 0.780753672567146D+02
 0.000000000000000D+00 0.000000000000000D+00 0.000000000000000D+00 0.000000000000000D+00
 0.404146285743277D+03 0.482741514806309D+02 0.209180684171729D+02 0.400707201074059D+03
 0.120105276220023D+04 0.000000000000000D+00 0.000000000000000D+00 0.120105276220023D+04
 0.105783397082101D+04 0.000000000000000D+00 0.000000000000000D+00 -.105783397082101D+04
 0.950116003313105D+03 -.799933048391016D+03 0.134051445744205D+03 -.478782568330774D+03
 0.757784336128382D+03 0.732745588930916D+03 -.176706646766744D+03 0.780753672567146D+02
 0.147583677481395D+03 0.233860787434358D+02 0.268777040651690D+02 0.143218791379216D+03
 0.403402716098358D+03 0.438013807166649D+02 0.157774969573697D+02 0.400707201074059D+03
0.324183834859D-04 0.000000000000D+00 0.000000000000D+00 0.513390489392D-06 0.000000000000D+00  6 -2 2 25 1 -1 21 0 0.17726767D+00 0.14875146D+00 0.66007155D+06 0.66007155D+06 0.66007155D+06 0.10600886D+01  1  2  2  1  6  1       -2 0.187861654576D-04 0.100000000000D+01
0.123029104729D-04 0.000000000000D+00 -.124495128542D-06 0.513390489392D-06 0.000000000000D+00  6 -2 2 25 1 -1 21 2 0.17726767D+00 0.14875146D+00 0.66007155D+06 0.66007155D+06 0.66007155D+06 0.10600886D+01  1  2  3  1  6  1       -2 0.801196309620D-05 0.100000000000D+01
-.209484972913D-04 0.000000000000D+00 0.000000000000D+00 0.513390489392D-06 0.000000000000D+00  6 -2 2 25 1 -1 21 2 0.17726767D+00 0.14875146D+00 0.66007155D+06 0.66007155D+06 0.66007155D+06 0.10600886D+01  1  2 15  1  6  1       -2 -.136421855291D-04 0.100000000000D+01
0.607758295530D-07 0.000000000000D+00 0.000000000000D+00 0.513390489392D-06 0.000000000000D+00  6 -2 2 25 1 -1 21 2 0.20189213D+00 0.14875146D+00 0.68607947D+06 0.68607947D+06 0.68607947D+06 0.10589328D+01  1  2 12  1  6  1       -2 0.264090809249D-07 0.100000000000D+01
-.646694201999D-04 0.000000000000D+00 0.000000000000D+00 0.513390489392D-06 0.000000000000D+00  6 -2 2 25 1 -1 21 2 0.17726767D+00 0.14875146D+00 0.66007155D+06 0.66007155D+06 0.66007155D+06 0.10600886D+01  1  2  4  1  6  1       -2 -.421143443444D-04 0.100000000000D+01
-.205020539675D-02 0.000000000000D+00 -.627109025235D-04 0.513390489392D-06 0.000000000000D+00  6 -2 2 25 1 -1 21 2 0.20188328D+00 0.14875146D+00 0.66007155D+06 0.66007155D+06 0.66007155D+06 0.10600886D+01  1  2  5  1  6  1       -2 -.895049600914D-03 0.100000000000D+01
0.204160251895D-02 0.000000000000D+00 0.621844691208D-04 0.513390489392D-06 0.000000000000D+00  6 -2 2 25 1 -1 21 2 0.17726767D+00 0.14875146D+00 0.66007155D+06 0.66007155D+06 0.66007155D+06 0.10600886D+01  1  2  6  1  6  1       -2 0.132954263749D-02 0.100000000000D+01
0.123346433534D-08 0.000000000000D+00 0.000000000000D+00 0.513390489392D-06 0.000000000000D+00  6 21 2 25 1 2 -1 2 0.20189213D+00 0.14875146D+00 0.68607947D+06 0.68607947D+06 0.68607947D+06 0.10589328D+01  3  4 12  5  5  1       -2 0.410348967078D-08 0.100000000000D+01
-.412619139536D-04 0.000000000000D+00 -.127238125228D-05 0.513390489392D-06 0.000000000000D+00  6 21 2 25 1 2 -1 2 0.20188328D+00 0.14875146D+00 0.66007155D+06 0.66007155D+06 0.66007155D+06 0.10600886D+01  3  4  5  5  5  1       -2 -.138092299827D-03 0.100000000000D+01
  </mgrwgt>
  </event>
  <event>
  6     66 -.17652913E-05 0.24814169E+03 0.75467711E-02 0.93952362E-01
       -2 -1    0    0    0  501 0.00000000E+00 0.00000000E+00 0.15464872E+03 0.15464906E+03 0.32000000E+00 0.0000E+00 0.9000E+01
        2 -1    0    0  502    0 -.00000000E+00 -.00000000E+00 -.32579783E+04 0.32579783E+04 0.32000000E+00 0.0000E+00 0.9000E+01
       25  1    1    2    0    0 -.38336176E+03 0.26890803E+03 -.12392813E+04 0.13306844E+04 0.12500000E+03 0.0000E+00 0.9000E+01
        1  1    1    2  503    0 0.12494561E+03 -.25629836E+03 -.16061804E+04 0.16312927E+04 0.32000000E+00 0.0000E+00 0.9000E+01
       -1  1    1    2    0  501 0.25356089E+03 0.24156616E+02 -.77109445E+02 0.26612523E+03 0.32000000E+00 0.0000E+00 0.9000E+01
       21  1    1    2  502  503 0.48552614E+01 -.36766279E+02 -.18075832E+03 0.18452497E+03 0.75000000E+00 0.0000E+00 0.9000E+01
#aMCatNLO 2  0  0  4  2 0.11056082D+02 0.00000000D+00  -5  6  0 0.00000000D+00 0.00000000D+00 0.00000000D+00 0.00000000D+00 0.00000000D+00
  <mgrwgt>
 -.6403036757D-03    6    2    0
 0.709818830122021D+03 0.000000000000000D+00 0.000000000000000D+00 0.709818830122021D+03
 0.709818830122021D+03 -.000000000000000D+00 -.000000000000000D+00 -.709818830122021D+03
 0.489966811412978D+03 -.383502439139936D+03 0.269252854792334D+03 -.697943811928884D+02
 0.458315908030888D+03 0.130098920040331D+03 -.293711069573838D+03 -.326896849431605D+03
 0.471354940800176D+03 0.253403519099606D+03 0.244582147815044D+02 0.396691230624493D+03
 0.000000000000000D+00 0.000000000000000D+00 -.000000000000000D+00 0.000000000000000D+00
 0.709818830122021D+03 0.000000000000000D+00 0.000000000000000D+00 0.709818830122021D+03
 0.709818830122021D+03 -.000000000000000D+00 -.000000000000000D+00 -.709818830122021D+03
 0.489733740786207D+03 -.383362375457799D+03 0.268936647295175D+03 -.701463162927057D+02
 0.410399748606151D+03 0.124999590852124D+03 -.256349965885042D+03 -.295106338348621D+03
 0.471126843140256D+03 0.253538261770425D+03 0.241540199891785D+02 0.396352665519102D+03
 0.483773277114282D+02 0.482452283524971D+01 -.367407013993115D+02 -.311000108777748D+02
-.885328264172D-07 0.000000000000D+00 0.000000000000D+00 0.364108211449D-06 0.000000000000D+00  6 -2 2 25 1 -1 21 2 0.23792138D-01 0.50122745D+00 0.28176372D+06 0.28176372D+06 0.28176372D+06 0.10865727D+01  1  2 13  3  6  4        1 -.239752605702D-06 0.100000000000D+01
-.118838300095D-02 0.000000000000D+00 0.000000000000D+00 0.364108211449D-06 0.000000000000D+00  6 -2 2 25 1 -1 21 2 0.23792138D-01 0.50122745D+00 0.28176372D+06 0.28176372D+06 0.28176372D+06 0.10865727D+01  1  2 13  3  6  4        1 -.321821783602D-02 0.100000000000D+01
-.225719155456D-03 0.000000000000D+00 0.000000000000D+00 0.364108211449D-06 0.000000000000D+00  6 -2 2 25 1 -1 21 2 0.23792138D-01 0.50122745D+00 0.28131697D+06 0.28131697D+06 0.28131697D+06 0.10866240D+01  1  2  8  3  6  4        1 -.611383905248D-03 0.100000000000D+01
-.212894262486D-03 0.000000000000D+00 0.000000000000D+00 0.364108211449D-06 0.000000000000D+00  6 -2 2 25 1 -1 21 2 0.23792138D-01 0.50122745D+00 0.28131697D+06 0.28131697D+06 0.28131697D+06 0.10866240D+01  1  2  9  3  6  4        1 -.576646343287D-03 0.100000000000D+01
0.236544887285D-03 0.000000000000D+00 0.000000000000D+00 0.364108211449D-06 0.000000000000D+00  6 -2 2 25 1 -1 21 2 0.23792138D-01 0.50122745D+00 0.28131697D+06 0.28131697D+06 0.28131697D+06 0.10866240D+01  1  2 10  3  6  4        1 0.640706530479D-03 0.100000000000D+01
0.115413706459D-02 0.000000000000D+00 0.000000000000D+00 0.364108211449D-06 0.118530061650D-07  6 -2 2 25 1 -1 21 2 0.23792138D-01 0.50122745D+00 0.28176372D+06 0.28176372D+06 0.28176372D+06 0.10865727D+01  1  2  1  3  6  4        1 0.312547763095D-02 0.100000000000D+01
  </mgrwgt>
  </event>
  <event>
  5     66 0.17652913E-05 0.21438097E+03 0.75467711E-02 0.91988882E-01
       -2 -1    0    0    0  501 0.00000000E+00 0.00000000E+00 0.13167262E+04 0.13167262E+04 0.32000000E+00 0.0000E+00 0.9000E+01
        2 -1    0    0  502    0 0.00000000E+00 0.00000000E+00 -.97113672E+03 0.97113678E+03 0.32000000E+00 0.0000E+00 0.9000E+01
       25  1    1    2    0    0 -.54992196E+03 -.29764853E+03 -.47746637E+03 0.79662283E+03 0.12500000E+03 0.0000E+00 0.9000E+01
        1  1    1    2  502    0 0.16261969E+03 0.13965533E+03 -.25603173E+03 0.33391784E+03 0.32000000E+00 0.0000E+00 0.9000E+01
       -1  1    1    2    0  501 0.38730227E+03 0.15799319E+03 0.10790876E+04 0.11573223E+04 0.32000000E+00 0.0000E+00 0.9000E+01
#aMCatNLO 1  0  0  2  4 0.85858561D+01 0.00000000D+00  -5  6  0 0.00000000D+00 0.00000000D+00 0.00000000D+00 0.00000000D+00 0.00000000D+00
  <mgrwgt>
 0.1251803522D-03    3    2    0
 0.113080558426275D+04 0.000000000000000D+00 0.000000000000000D+00 0.113080558426275D+04
 0.113080558426275D+04 0.000000000000000D+00 0.000000000000000D+00 -.113080558426275D+04
 0.878804844244213D+03 -.549934819005232D+03 -.297659584840309D+03 -.604684562946230D+03
 0.376960854638520D+03 0.162639733499066D+03 0.139669321476882D+03 -.310064966830087D+03
 0.100584546964276D+04 0.387295085506166D+03 0.157990263363427D+03 0.914749529776317D+03
 0.000000000000000D+00 -.000000000000000D+00 0.000000000000000D+00 0.000000000000000D+00
 0.445802862007857D+04 0.000000000000000D+00 0.000000000000000D+00 0.445802862007857D+04
 0.141201118300328D+04 0.000000000000000D+00 0.000000000000000D+00 -.141201118300328D+04
 0.711189780632210D+03 -.142733293719227D+03 -.322722311398327D+03 -.604684562946230D+03
 0.514557399012121D+03 0.390959746049468D+03 0.125616520377341D+03 -.310064966830087D+03
 0.135464674924291D+04 0.991822935423079D+03 0.120782357060688D+03 0.914749529776317D+03
 0.328964587419460D+04 -.124004938775332D+04 0.763234339602982D+02 0.304601743707529D+04
0.985856133240D-03 0.000000000000D+00 0.000000000000D+00 0.753041961438D-06 0.000000000000D+00  6 -2 2 25 1 -1 21 0 0.20257327D+00 0.14940566D+00 0.40345108D+06 0.40345108D+06 0.40345108D+06 0.10751588D+01  1  2  2  2  6  2        2 0.388130588309D-03 0.100000000000D+01
0.576763323977D-04 0.000000000000D+00 -.378594713352D-05 0.753041961438D-06 0.000000000000D+00  6 -2 2 25 1 -1 21 2 0.20257327D+00 0.14940566D+00 0.40345108D+06 0.40345108D+06 0.40345108D+06 0.10751588D+01  1  2  3  2  6  2        2 0.262486618160D-04 0.100000000000D+01
-.635458366646D-03 0.000000000000D+00 0.000000000000D+00 0.753041961438D-06 0.000000000000D+00  6 -2 2 25 1 -1 21 2 0.20257327D+00 0.14940566D+00 0.40345108D+06 0.40345108D+06 0.40345108D+06 0.10751588D+01  1  2 15  2  6  2        2 -.289198897898D-03 0.100000000000D+01
  </mgrwgt>
  </event>
  <event>
  5     66 0.17652913E-05 0.10268224E+02 0.75467711E-02 0.94395913E-01
       -2 -1    0    0    0  501 0.00000000E+00 0.00000000E+00 0.43276052E+03 0.43276064E+03 0.32000000E+00 0.0000E+00 0.9000E+01
        2 -1    0    0  502    0 0.00000000E+00 0.00000000E+00 -.11184191E+04 0.11184192E+04 0.32000000E+00 0.0000E+00 0.9000E+01
       25  1    1    2    0    0 -.28179079E+03 -.41322473E+03 -.15140440E+03 0.53731650E+03 0.12500000E+03 0.0000E+00 0.9000E+01
        1  1    1    2  502    0 0.28559233E+03 0.40367805E+03 -.69490466E+03 0.85288425E+03 0.32000000E+00 0.0000E+00 0.9000E+01
       -1  1    1    2    0  501 -.38015480E+01 0.95466796E+01 0.16065045E+03 0.16097907E+03 0.32000000E+00 0.0000E+00 0.9000E+01
#aMCatNLO 1  0  0  1  2 0.10854191D-01 0.00000000D+00  -5  6  0 0.00000000D+00 0.00000000D+00 0.00000000D+00 0.00000000D+00 0.00000000D+00
  <mgrwgt>
 0.3690751762D-01    3    2    0
 0.695706671183431D+03 0.000000000000000D+00 0.000000000000000D+00 0.695706671183431D+03
 0.695706671183431D+03 0.000000000000000D+00 0.000000000000000D+00 -.695706671183431D+03
 0.524531885039192D+03 -.281856012662948D+03 -.413310122638164D+03 0.961281908356661D+02
 0.608442566317369D+03 0.285654779653944D+03 0.403770426835599D+03 -.354363014126362D+03
 0.258438891010302D+03 -.379876699099633D+01 0.953969580256546D+01 0.258234823290696D+03
 0.000000000000000D+00 -.000000000000000D+00 -.000000000000000D+00 -.000000000000000D+00
 0.121483112923971D+04 0.000000000000000D+00 0.000000000000000D+00 0.121483112923971D+04
 0.224264659123079D+04 0.000000000000000D+00 0.000000000000000D+00 -.224264659123079D+04
 0.271080499075153D+03 -.573905327400125D+02 -.212897474520749D+03 0.961281908356661D+02
 0.123703742121763D+04 0.806318559355344D+03 0.868641938056855D+03 -.354363014126362D+03
 0.347827322242576D+03 0.167246630536790D+03 0.162256545977517D+03 0.258234823290696D+03
 0.160153247793514D+04 -.916174657152121D+03 -.818001009513622D+03 -.102781546199108D+04
0.542399007846D-02 0.000000000000D+00 0.000000000000D+00 0.204525388848D-04 0.000000000000D+00  6 -2 2 25 1 -1 21 0 0.66578554D-01 0.17206449D+00 0.26036347D+06 0.26036347D+06 0.26036347D+06 0.10891345D+01  1  2  2  1  6  1       -2 0.308366155269D-01 0.100000000000D+01
0.474795850077D-02 0.000000000000D+00 -.208295500707D-04 0.204525388848D-04 0.000000000000D+00  6 -2 2 25 1 -1 21 2 0.66578554D-01 0.17206449D+00 0.26036347D+06 0.26036347D+06 0.26036347D+06 0.10891345D+01  1  2  3  1  6  1       -2 0.320197390753D-01 0.100000000000D+01
-.384775156436D-02 0.000000000000D+00 0.000000000000D+00 0.204525388848D-04 0.000000000000D+00  6 -2 2 25 1 -1 21 2 0.66578554D-01 0.17206449D+00 0.26036347D+06 0.26036347D+06 0.26036347D+06 0.10891345D+01  1  2 15  1  6  1       -2 -.259488369785D-01 0.100000000000D+01
  </mgrwgt>
  </event>
  <event>
  5     66 0.17652913E-05 0.34218601E+02 0.75467711E-02 0.91310436E-01
       -2 -1    0    0    0  501 0.00000000E+00 0.00000000E+00 0.19737887E+04 0.19737888E+04 0.32000000E+00 0.0000E+00 0.9000E+01
        2 -1    0    0  502    0 0.00000000E+00 0.00000000E+00 -.13695343E+04 0.13695343E+04 0.32000000E+00 0.0000E+00 0.9000E+01
       25  1    1    2    0    0 -.38192260E+03 0.50352996E+03 0.12141519E+04 0.13744806E+04 0.12500000E+03 0.0000E+00 0.9000E+01
        1  1    1    2  502    0 0.36630818E+03 -.53399522E+03 -.12075434E+04 0.13702167E+04 0.32000000E+00 0.0000E+00 0.9000E+01
       -1  1    1    2    0  501 0.15614420E+02 0.30465250E+02 0.59764601E+03 0.59862576E+03 0.32000000E+00 0.0000E+00 0.9000E+01
#aMCatNLO 1  0  0  2  4 0.26530340D+02 0.00000000D+00  -5  6  0 0.00000000D+00 0.00000000D+00 0.00000000D+00 0.00000000D+00 0.00000000D+00
  <mgrwgt>
 0.1278032996D-01   11    2    0
 0.164413244303468D+04 0.000000000000000D+00 0.000000000000000D+00 0.164413244303468D+04
 0.164413244303468D+04 0.000000000000000D+00 0.000000000000000D+00 -.164413244303468D+04
 0.117458860189775D+04 -.381951427992128D+03 0.503593673356849D+03 0.982109923846535D+03
 0.161507030071815D+04 0.366343863766123D+03 -.534045547232199D+03 -.147954033511228D+04
 0.498605983453470D+03 0.156075642260048D+02 0.304518738753505D+02 0.497430411265750D+03
 0.000000000000000D+00 -.000000000000000D+00 0.000000000000000D+00 -.000000000000000D+00
 0.164511231923429D+04 0.000000000000000D+00 0.000000000000000D+00 0.164511231923429D+04
 0.183413797420752D+04 0.000000000000000D+00 0.000000000000000D+00 -.183413797420752D+04
 0.116966133077971D+04 -.378103062844097D+03 0.494955351593877D+03 0.982109923846535D+03
 0.162026155127079D+04 0.371655045892206D+03 -.545967414929792D+03 -.147954033511228D+04
 0.498449028166080D+03 0.172443486421629D+02 0.267778279105007D+02 0.497430411265750D+03
 0.190878383225230D+03 -.107963316902716D+02 0.242342354254145D+02 -.189025654973225D+03
0.288712373643D-02 0.000000000000D+00 0.000000000000D+00 0.191776403772D-03 0.000000000000D+00  6 -2 2 25 1 -1 21 0 0.30365981D+00 0.21069759D+00 0.43965925D+06 0.43965925D+06 0.43965925D+06 0.10724804D+01  1  2  2  2  6  2        2 0.143748482297D-03 0.100000000000D+01
0.114513532611D-02 0.000000000000D+00 -.110873153450D-04 0.191776403772D-03 0.000000000000D+00  6 -2 2 25 1 -1 21 2 0.30365981D+00 0.21069759D+00 0.43965925D+06 0.43965925D+06 0.43965925D+06 0.10724804D+01  1  2  3  2  6  2        2 0.655802982107D-04 0.100000000000D+01
-.199528905833D-02 0.000000000000D+00 0.000000000000D+00 0.191776403772D-03 0.000000000000D+00  6 -2 2 25 1 -1 21 2 0.30365981D+00 0.21069759D+00 0.43965925D+06 0.43965925D+06 0.43965925D+06 0.10724804D+01  1  2 15  2  6  2        2 -.114267413185D-03 0.100000000000D+01
0.270340534264D-08 0.000000000000D+00 0.000000000000D+00 0.191776403772D-03 0.000000000000D+00  6 -2 2 25 1 -1 21 2 0.30365981D+00 0.23510558D+00 0.45840379D+06 0.45840379D+06 0.45840379D+06 0.10711866D+01  1  2 12  2  6  2        2 0.125498555793D-09 0.100000000000D+01
0.525068067018D+00 0.000000000000D+00 0.000000000000D+00 0.191776403772D-03 0.000000000000D+00  6 -2 2 25 1 -1 21 2 0.30365981D+00 0.23663512D+00 0.45840379D+06 0.45840379D+06 0.45840379D+06 0.10711866D+01  1  2 12  2  6  2        2 0.240682490207D-01 0.100000000000D+01
-.301151154904D+00 0.000000000000D+00 0.000000000000D+00 0.191776403772D-03 0.000000000000D+00  6 -2 2 25 1 -1 21 2 0.30365981D+00 0.21069759D+00 0.43965925D+06 0.43965925D+06 0.43965925D+06 0.10724804D+01  1  2  4  2  6  2        2 -.172465053647D-01 0.100000000000D+01
-.571345719915D+00 0.000000000000D+00 -.605462048761D-02 0.191776403772D-03 0.000000000000D+00  6 -2 2 25 1 -1 21 2 0.30365981D+00 0.23509802D+00 0.43965925D+06 0.43965925D+06 0.43965925D+06 0.10724804D+01  1  2  5  2  6  2        2 -.266910839130D-01 0.100000000000D+01
0.568628033337D+00 0.000000000000D+00 0.601845109201D-02 0.191776403772D-03 0.000000000000D+00  6 -2 2 25 1 -1 21 2 0.30365981D+00 0.21069759D+00 0.43965925D+06 0.43965925D+06 0.43965925D+06 0.10724804D+01  1  2  6  2  6  2        2 0.325645320224D-01 0.100000000000D+01
0.475076789810D-10 0.000000000000D+00 0.000000000000D+00 0.191776403772D-03 0.000000000000D+00  6 -2 21 25 1 -1 -2 2 0.30365981D+00 0.23510558D+00 0.45840379D+06 0.45840379D+06 0.45840379D+06 0.10711866D+01  1  2 12  6  6  2        2 0.730783026460D-12 0.100000000000D+01
0.968854608500D-02 0.000000000000D+00 0.000000000000D+00 0.191776403772D-03 0.000000000000D+00  6 -2 21 25 1 -1 -2 2 0.30365981D+00 0.23663512D+00 0.45840379D+06 0.45840379D+06 0.45840379D+06 0.10711866D+01  1  2 12  6  6  2        2 0.145398407981D-03 0.100000000000D+01
-.100142272917D-01 0.000000000000D+00 -.106372890406D-03 0.191776403772D-03 0.000000000000D+00  6 -2 21 25 1 -1 -2 2 0.30365981D+00 0.23509802D+00 0.43965925D+06 0.43965925D+06 0.43965925D+06 0.10724804D+01  1  2  5  6  6  2        2 -.155321704607D-03 0.100000000000D+01
  </mgrwgt>
  </event>
  <event>
  5     66 0.17652913E-05 0.64617690E+02 0.75467711E-02 0.93252408E-01
       -2 -1    0    0    0  501 0.00000000E+00 0.00000000E+00 0.10973362E+03 0.10973409E+03 0.32000000E+00 0.0000E+00 0.9000E+01
        2 -1    0    0  502    0 0.00000000E+00 0.00000000E+00 -.45324480E+04 0.45324480E+04 0.32000000E+00 0.0000E+00 0.9000E+01
       25  1    1    2    0    0 0.10032133E+03 0.46807164E+03 -.11078246E+04 0.12132831E+04 0.12500000E+03 0.0000E+00 0.9000E+01
        1  1    1    2  502    0 -.66573839E+01 0.64265241E+02 -.20787306E+04 0.20797345E+04 0.32000000E+00 0.0000E+00 0.9000E+01
       -1  1    1    2    0  501 -.93663942E+02 -.53233688E+03 -.12361591E+04 0.13491645E+04 0.32000000E+00 0.0000E+00 0.9000E+01
#aMCatNLO 1  0  0  1  1 0.37352911D+02 0.00000000D+00  -5  6  0 0.00000000D+00 0.00000000D+00 0.00000000D+00 0.00000000D+00 0.00000000D+00
  <mgrwgt>
 0.1919684711D-02    4    2    0
 0.705239694672384D+03 0.000000000000000D+00 0.000000000000000D+00 0.705239694672384D+03
 0.705239694672384D+03 0.000000000000000D+00 0.000000000000000D+00 -.705239694672384D+03
 0.519440661677734D+03 0.100316060308523D+03 0.468026382234797D+03 0.158371697536482D+03
 0.326809554699571D+03 -.665859177668074D+01 0.642737038990118D+02 -.320357673835957D+03
 0.564229172967463D+03 -.936574685318427D+02 -.532300086133809D+03 0.161985976299475D+03
 0.000000000000000D+00 -.000000000000000D+00 0.000000000000000D+00 -.000000000000000D+00
 0.712790534100585D+03 0.000000000000000D+00 0.000000000000000D+00 0.712790534100585D+03
 0.753245693669110D+03 0.000000000000000D+00 0.000000000000000D+00 -.753245693669110D+03
 0.508597476813807D+03 0.104401763002344D+03 0.455044031630772D+03 0.158371697536482D+03
 0.325247581188169D+03 -.406713967303551D+01 0.560393456247437D+02 -.320357673835957D+03
 0.577128842437604D+03 -.891214018787158D+02 -.546713471557860D+03 0.161985976299475D+03
 0.550623273301155D+02 -.112132214505926D+02 0.356300943023445D+02 -.404551595685246D+02
0.931167547901D-02 0.000000000000D+00 0.000000000000D+00 0.146767538766D-05 0.000000000000D+00  6 -2 2 25 1 -1 21 0 0.16882132D-01 0.69729972D+00 0.30239190D+06 0.30239190D+06 0.30239190D+06 0.10842968D+01  1  2  2  1  6  1       -2 0.350560031091D-02 0.100000000000D+01
0.235847791765D-02 0.000000000000D+00 -.357592856599D-04 0.146767538766D-05 0.000000000000D+00  6 -2 2 25 1 -1 21 2 0.16882132D-01 0.69729972D+00 0.30239190D+06 0.30239190D+06 0.30239190D+06 0.10842968D+01  1  2  3  1  6  1       -2 0.104390920726D-02 0.100000000000D+01
-.587971961594D-02 0.000000000000D+00 0.000000000000D+00 0.146767538766D-05 0.000000000000D+00  6 -2 2 25 1 -1 21 2 0.16882132D-01 0.69729972D+00 0.30239190D+06 0.30239190D+06 0.30239190D+06 0.10842968D+01  1  2 15  1  6  1       -2 -.260248077679D-02 0.100000000000D+01
-.617776837838D-04 0.000000000000D+00 0.000000000000D+00 0.146767538766D-05 0.000000000000D+00  6 -2 2 25 1 -1 21 2 0.16882132D-01 0.69729972D+00 0.30239190D+06 0.30239190D+06 0.30239190D+06 0.10842968D+01  1  2  4  1  6  1       -2 -.273440308354D-04 0.100000000000D+01
  </mgrwgt>
  </event>
  <event>
  5     66 0.17652913E-05 0.31762724E+02 0.75467711E-02 0.92331155E-01
       -2 -1    0    0    0  501 0.00000000E+00 0.00000000E+00 0.97264988E+03 0.97264993E+03 0.32000000E+00 0.0000E+00 0.9000E+01
        2 -1    0    0  502    0 0.00000000E+00 0.00000000E+00 -.33681288E+04 0.33681288E+04 0.32000000E+00 0.0000E+00 0.9000E+01
       25  1    1    2    0    0 -.69917417E+02 0.58441018E+03 -.57086440E+02 0.60440678E+03 0.12500000E+03 0.0000E+00 0.9000E+01
        1  1    1    2  502    0 0.91491693E+01 -.30413815E+02 -.29261917E+04 0.29263641E+04 0.32000000E+00 0.0000E+00 0.9000E+01
       -1  1    1    2    0  501 0.60768247E+02 -.55399636E+03 0.58779923E+03 0.81000789E+03 0.32000000E+00 0.0000E+00 0.9000E+01
#aMCatNLO 1  0  0  2  1 0.50246654D+02 0.00000000D+00  -5  6  0 0.00000000D+00 0.00000000D+00 0.00000000D+00 0.00000000D+00 0.00000000D+00
  <mgrwgt>
 0.6466167505D-01    7    2    0
 0.180997519860167D+04 0.000000000000000D+00 0.000000000000000D+00 0.180997519860167D+04
 0.180997519860167D+04 0.000000000000000D+00 0.000000000000000D+00 -.180997519860167D+04
 0.687012467767451D+03 -.699149829985577D+02 0.584383770667750D+03 0.331615190545273D+03
 0.157273449540095D+04 0.914990219699637D+01 -.304162770889357D+02 -.157241372494707D+04
 0.136020343403495D+04 0.607650808015614D+02 -.553967493578814D+03 0.124079853440180D+04
 0.000000000000000D+00 0.000000000000000D+00 -.000000000000000D+00 -.000000000000000D+00
 0.181052812676531D+04 0.000000000000000D+00 0.000000000000000D+00 0.181052812676531D+04
 0.347740747483667D+04 0.000000000000000D+00 0.000000000000000D+00 -.347740747483667D+04
 0.690881222390903D+03 -.788471921398722D+02 0.587797881200357D+03 0.331615190545273D+03
 0.157261662470583D+04 -.112398667875997D+02 -.226228047299236D+02 -.157241372494707D+04
 0.135680125717717D+04 0.431520716752549D+02 -.547235367290939D+03 0.124079853440180D+04
 0.166763649732807D+04 0.469349872522170D+02 -.179397091794947D+02 -.166687934807137D+04
0.501777975243D-02 0.000000000000D+00 0.000000000000D+00 0.120179692899D-02 0.000000000000D+00  6 -2 2 25 1 -1 21 0 0.14963845D+00 0.51817367D+00 0.35446057D+06 0.35446057D+06 0.35446057D+06 0.10792323D+01  1  2  2  2  6  2        2 0.189520392028D-03 0.100000000000D+01
0.383267022246D-02 0.000000000000D+00 -.192695954611D-04 0.120179692899D-02 0.000000000000D+00  6 -2 2 25 1 -1 21 2 0.14963845D+00 0.51817367D+00 0.35446057D+06 0.35446057D+06 0.35446057D+06 0.10792323D+01  1  2  3  2  6  2        2 0.168607025946D-03 0.100000000000D+01
-.374097085870D-02 0.000000000000D+00 0.000000000000D+00 0.120179692899D-02 0.000000000000D+00  6 -2 2 25 1 -1 21 2 0.14963845D+00 0.51817367D+00 0.35446057D+06 0.35446057D+06 0.35446057D+06 0.10792323D+01  1  2 15  2  6  2        2 -.164572982810D-03 0.100000000000D+01
-.176117433049D+00 0.000000000000D+00 0.000000000000D+00 0.120179692899D-02 0.000000000000D+00  6 -2 2 25 1 -1 21 2 0.14963845D+00 0.51817367D+00 0.35446057D+06 0.35446057D+06 0.35446057D+06 0.10792323D+01  1  2  4  2  6  2        2 -.774776719103D-02 0.100000000000D+01
-.193152099194D+01 0.000000000000D+00 -.168734369405D-02 0.120179692899D-02 0.000000000000D+00  6 -2 2 25 1 -1 21 2 0.14963845D+00 0.99553951D+00 0.35446057D+06 0.35446057D+06 0.35446057D+06 0.10792323D+01  1  2  5  2  6  2        2 -.158032391547D-06 0.100000000000D+01
0.164157031417D+01 0.000000000000D+00 0.143300591822D-02 0.120179692899D-02 0.000000000000D+00  6 -2 2 25 1 -1 21 2 0.14963845D+00 0.51817367D+00 0.35446057D+06 0.35446057D+06 0.35446057D+06 0.10792323D+01  1  2  6  2  6  2        2 0.722160458608D-01 0.100000000000D+01
-.136771754370D+00 0.000000000000D+00 -.119566669119D-03 0.120179692899D-02 0.000000000000D+00  6 -2 21 25 1 -1 -2 2 0.14963845D+00 0.99553951D+00 0.35446057D+06 0.35446057D+06 0.35446057D+06 0.10792323D+01  1  2  5  6  6  2        2 -.209622202966D-10 0.100000000000D+01
  </mgrwgt>
  </event>
  <event>
  5     66 -.17652913E-05 0.34478980E+02 0.75467711E-02 0.91270408E-01
       -2 -1    0    0    0  501 0.00000000E+00 0.00000000E+00 0.69060632E+03 0.69060639E+03 0.32000000E+00 0.0000E+00 0.9000E+01
        2 -1    0    0  502    0 -.00000000E+00 -.00000000E+00 -.14923637E+04 0.14923637E+04 0.32000000E+00 0.0000E+00 0.9000E+01
       25  1    1    2    0    0 -.47211403E+03 0.43095610E+03 0.21529430E+03 0.68599668E+03 0.12500000E+03 0.0000E+00 0.9000E+01
        1  1    1    2  502    0 0.49293359E+03 -.45848766E+03 -.11647463E+04 0.13452986E+04 0.32000000E+00 0.0000E+00 0.9000E+01
       -1  1    1    2    0  501 -.20819560E+02 0.27531559E+02 0.14769461E+03 0.15167479E+03 0.32000000E+00 0.0000E+00 0.9000E+01
#aMCatNLO 1  0  0  5  1 0.11752452D+01 0.00000000D+00  -5  6  0 0.00000000D+00 0.00000000D+00 0.00000000D+00 0.00000000D+00 0.00000000D+00
  <mgrwgt>
 -.2221668387D-01    9    2    0
 0.101520239913807D+04 0.000000000000000D+00 0.000000000000000D+00 0.101520239913807D+04
 0.101520239913807D+04 -.000000000000000D+00 -.000000000000000D+00 -.101520239913807D+04
 0.822776724577582D+03 -.472209763232383D+03 0.431052472048191D+03 0.502541783691440D+03
 0.986481109899559D+03 0.493006238049159D+03 -.458553502555630D+03 -.720984406715739D+03
 0.221146963798990D+03 -.207964748167759D+02 0.275010305074387D+02 0.218442623024299D+03
 0.000000000000000D+00 0.000000000000000D+00 0.000000000000000D+00 0.000000000000000D+00
 0.101520239913807D+04 0.000000000000000D+00 0.000000000000000D+00 0.101520239913807D+04
 0.101520239913807D+04 -.000000000000000D+00 -.000000000000000D+00 -.101520239913807D+04
 0.822789603305679D+03 -.472211439629577D+03 0.431054688897479D+03 0.502559392281527D+03
 0.986463440181354D+03 0.493004228140077D+03 -.458550844673875D+03 -.720963294973686D+03
 0.204124694888259D+03 -.196641264261789D+02 0.264466348595597D+02 0.201446739114152D+03
 0.170270599008391D+02 -.112866208432085D+01 0.104952091683676D+01 0.169571635780074D+02
0.247331977079D-04 0.000000000000D+00 0.000000000000D+00 0.912624073382D-05 0.000000000000D+00  6 -2 2 25 1 -1 21 0 0.10624713D+00 0.22959442D+00 0.46188627D+06 0.46188627D+06 0.46188627D+06 0.10709526D+01  1  2  2  4  6  5       -1 0.286567641580D-04 0.100000000000D+01
0.885263634745D-05 0.000000000000D+00 -.949819915988D-07 0.912624073382D-05 0.000000000000D+00  6 -2 2 25 1 -1 21 2 0.10624713D+00 0.22959442D+00 0.46188627D+06 0.46188627D+06 0.46188627D+06 0.10709526D+01  1  2  3  4  6  5       -1 0.117641354286D-04 0.100000000000D+01
-.178048162671D-04 0.000000000000D+00 0.000000000000D+00 0.912624073382D-05 0.000000000000D+00  6 -2 2 25 1 -1 21 2 0.10624713D+00 0.22959442D+00 0.46188627D+06 0.46188627D+06 0.46188627D+06 0.10709526D+01  1  2 15  4  6  5       -1 -.236605528147D-04 0.100000000000D+01
0.380526210778D-13 0.000000000000D+00 0.000000000000D+00 0.912624073382D-05 0.000000000000D+00  6 -2 2 25 1 -1 21 2 0.10624713D+00 0.22959442D+00 0.46189831D+06 0.46189831D+06 0.46189831D+06 0.10709518D+01  1  2 12  4  6  5       -1 0.505674050416D-13 0.100000000000D+01
0.372217910418D-07 0.000000000000D+00 0.000000000000D+00 0.912624073382D-05 0.000000000000D+00  6 -2 2 25 1 -1 21 2 0.10624713D+00 0.22959442D+00 0.46189831D+06 0.46189831D+06 0.46189831D+06 0.10709518D+01  1  2 12  4  6  5       -1 0.494633307949D-07 0.100000000000D+01
-.102806436953D+00 0.000000000000D+00 0.000000000000D+00 0.912624073382D-05 0.000000000000D+00  6 -2 2 25 1 -1 21 2 0.10624713D+00 0.22959442D+00 0.46188627D+06 0.46188627D+06 0.46188627D+06 0.10709526D+01  1  2  4  4  6  5       -1 -.136617929369D+00 0.100000000000D+01
-.284707679706D-01 0.000000000000D+00 0.000000000000D+00 0.912624073382D-05 0.000000000000D+00  6 -2 2 25 1 -1 21 2 0.10624713D+00 0.22959442D+00 0.46188627D+06 0.46188627D+06 0.46188627D+06 0.10709526D+01  1  2  5  4  6  5       -1 -.378343757743D-01 0.100000000000D+01
0.327139896514D-01 0.000000000000D+00 -.000000000000D+00 0.912624073382D-05 0.000000000000D+00  6 -2 2 25 1 -1 21 2 0.10624713D+00 0.22959442D+00 0.46188627D+06 0.46188627D+06 0.46188627D+06 0.10709526D+01  1  2  6  4  6  5       -1 0.434731293102D-01 0.100000000000D+01
0.818325210360D-01 0.000000000000D+00 0.000000000000D+00 0.912624073382D-05 0.104220889031D-03  6 -2 2 25 1 -1 21 2 0.10624713D+00 0.22959442D+00 0.46189831D+06 0.46189831D+06 0.46189831D+06 0.10709518D+01  1  2 11  4  6  5       -1 0.108745682153D+00 0.100000000000D+01
  </mgrwgt>
  </event>
  <event>
  5     66 0.17652913E-05 0.11954584E+03 0.75467711E-02 0.93008890E-01
       -2 -1    0    0    0  501 0.00000000E+00 0.00000000E+00 0.61636360E+03 0.61636369E+03 0.32000000E+00 0.0000E+00 0.9000E+01
        2 -1    0    0  502    0 0.00000000E+00 0.00000000E+00 -.15198365E+04 0.15198366E+04 0.32000000E+00 0.0000E+00 0.9000E+01
       25  1    1    2    0    0 0.50604876E+03 0.67895676E+02 0.26864757E+03 0.59033185E+03 0.12500000E+03 0.0000E+00 0.9000E+01
        1  1    1    2  502    0 -.45461081E+03 -.17593944E+03 -.12893060E+04 0.13783815E+04 0.32000000E+00 0.0000E+00 0.9000E+01
       -1  1    1    2    0  501 -.51437950E+02 0.10804376E+03 0.11718546E+03 0.16748687E+03 0.32000000E+00 0.0000E+00 0.9000E+01
#aMCatNLO 1  0  0  2  4 0.21308268D+02 0.00000000D+00  -5  6  0 0.00000000D+00 0.00000000D+00 0.00000000D+00 0.00000000D+00 0.00000000D+00
  <mgrwgt>
 0.1088828293D-02   11    2    0
 0.967869854588168D+03 0.000000000000000D+00 0.000000000000000D+00 0.967869854588168D+03
 0.967869854588168D+03 0.000000000000000D+00 0.000000000000000D+00 -.967869854588168D+03
 0.777037657178010D+03 0.506078071477342D+03 0.680189124598823D+02 0.572207072474852D+03
 0.919411780909947D+03 -.454690632398710D+03 -.175956579620290D+03 -.779495820241000D+03
 0.239290271088377D+03 -.513874390786321D+02 0.107937667160408D+03 0.207288747766149D+03
 0.000000000000000D+00 0.000000000000000D+00 -.000000000000000D+00 -.000000000000000D+00
 0.970160712207455D+03 0.000000000000000D+00 0.000000000000000D+00 0.970160712207455D+03
 0.101877947105951D+04 0.000000000000000D+00 0.000000000000000D+00 -.101877947105951D+04
 0.772753209605942D+03 0.498839509463582D+03 0.725309104049885D+02 0.572207072474852D+03
 0.922690454693997D+03 -.463294484411192D+03 -.170593558273437D+03 -.779495820241000D+03
 0.240413320080316D+03 -.536279763455109D+02 0.109334256638383D+03 0.207288747766149D+03
 0.530831988867119D+02 0.180829512931201D+02 -.112716087699351D+02 -.486187588520561D+02
0.410823114150D-04 0.000000000000D+00 0.000000000000D+00 0.990011875975D-06 0.000000000000D+00  6 -2 2 25 1 -1 21 0 0.94825179D-01 0.23382102D+00 0.32080948D+06 0.32080948D+06 0.32080948D+06 0.10824036D+01  1  2  2  2  6  2        2 0.618351831278D-04 0.100000000000D+01
0.313478257126D-05 0.000000000000D+00 -.157766893055D-06 0.990011875975D-06 0.000000000000D+00  6 -2 2 25 1 -1 21 2 0.94825179D-01 0.23382102D+00 0.32080948D+06 0.32080948D+06 0.32080948D+06 0.10824036D+01  1  2  3  2  6  2        2 0.552798207870D-05 0.100000000000D+01
-.289831552013D-04 0.000000000000D+00 0.000000000000D+00 0.990011875975D-06 0.000000000000D+00  6 -2 2 25 1 -1 21 2 0.94825179D-01 0.23382102D+00 0.32080948D+06 0.32080948D+06 0.32080948D+06 0.10824036D+01  1  2 15  2  6  2        2 -.511098804764D-04 0.100000000000D+01
0.122502651470D-07 0.000000000000D+00 0.000000000000D+00 0.990011875975D-06 0.000000000000D+00  6 -2 2 25 1 -1 21 2 0.94825179D-01 0.24638850D+00 0.33416660D+06 0.33416660D+06 0.33416660D+06 0.10811032D+01  1  2 12  2  6  2        2 0.193921799775D-07 0.100000000000D+01
0.823014321210D-03 0.000000000000D+00 0.000000000000D+00 0.990011875975D-06 0.000000000000D+00  6 -2 2 25 1 -1 21 2 0.94825179D-01 0.24997088D+00 0.33416660D+06 0.33416660D+06 0.33416660D+06 0.10811032D+01  1  2 12  2  6  2        2 0.126516308309D-02 0.100000000000D+01
-.368282981051D-03 0.000000000000D+00 0.000000000000D+00 0.990011875975D-06 0.000000000000D+00  6 -2 2 25 1 -1 21 2 0.94825179D-01 0.23382102D+00 0.32080948D+06 0.32080948D+06 0.32080948D+06 0.10824036D+01  1  2  4  2  6  2        2 -.649442719824D-03 0.100000000000D+01
-.261635074029D-02 0.000000000000D+00 -.169952911552D-03 0.990011875975D-06 0.000000000000D+00  6 -2 2 25 1 -1 21 2 0.94825179D-01 0.24634418D+00 0.32080948D+06 0.32080948D+06 0.32080948D+06 0.10824036D+01  1  2  5  2  6  2        2 -.416295428676D-02 0.100000000000D+01
0.262187955368D-02 0.000000000000D+00 0.169721859346D-03 0.990011875975D-06 0.000000000000D+00  6 -2 2 25 1 -1 21 2 0.94825179D-01 0.23382102D+00 0.32080948D+06 0.32080948D+06 0.32080948D+06 0.10824036D+01  1  2  6  2  6  2        2 0.462351147352D-02 0.100000000000D+01
0.204613570907D-09 0.000000000000D+00 0.000000000000D+00 0.990011875975D-06 0.000000000000D+00  6 -2 21 25 1 -1 -2 2 0.94825179D-01 0.24638850D+00 0.33416660D+06 0.33416660D+06 0.33416660D+06 0.10811032D+01  1  2 12  6  6  2        2 0.998275651488D-10 0.100000000000D+01
0.171798776383D-04 0.000000000000D+00 0.000000000000D+00 0.990011875975D-06 0.000000000000D+00  6 -2 21 25 1 -1 -2 2 0.94825179D-01 0.24997088D+00 0.33416660D+06 0.33416660D+06 0.33416660D+06 0.10811032D+01  1  2 12  6  6  2        2 0.791966116325D-05 0.100000000000D+01
-.236857494494D-04 0.000000000000D+00 -.153991263443D-05 0.990011875975D-06 0.000000000000D+00  6 -2 21 25 1 -1 -2 2 0.94825179D-01 0.24634418D+00 0.32080948D+06 0.32080948D+06 0.32080948D+06 0.10824036D+01  1  2  5  6  6  2        2 -.116416952443D-04 0.100000000000D+01
  </mgrwgt>
  </event>
  <event>
  5     66 0.17652913E-05 0.67234870E+02 0.75467711E-02 0.89513001E-01
       -2 -1    0    0    0  501 0.00000000E+00 0.00000000E+00 0.17701595E+04 0.17701595E+04 0.32000000E+00 0.0000E+00 0.9000E+01
        2 -1    0    0  502    0 0.00000000E+00 0.00000000E+00 -.15111992E+04 0.15111992E+04 0.32000000E+00 0.0000E+00 0.9000E+01
       25  1    1    2    0    0 -.42350349E+03 -.59906232E+03 -.48033617E+03 0.88576448E+03 0.12500000E+03 0.0000E+00 0.9000E+01
        1  1    1    2  502    0 0.36239970E+03 0.62712005E+03 -.66882390E+03 0.98586948E+03 0.32000000E+00 0.0000E+00 0.9000E+01
       -1  1    1    2    0  501 0.61103789E+02 -.28057732E+02 0.14081203E+04 0.14097248E+04 0.32000000E+00 0.0000E+00 0.9000E+01
#aMCatNLO 1  0  0  5  4 0.58626859D+02 0.00000000D+00  -5  6  0 0.00000000D+00 0.00000000D+00 0.00000000D+00 0.00000000D+00 0.00000000D+00
  <mgrwgt>
 0.1828373760D-02    7    2    0
 0.163556218233771D+04 0.000000000000000D+00 0.000000000000000D+00 0.163556218233771D+04
 0.163556218233771D+04 -.000000000000000D+00 -.000000000000000D+00 -.163556218233771D+04
 0.926590182445431D+03 -.423534645381852D+03 -.599114552440062D+03 -.551928005649352D+03
 0.104192841753551D+04 0.362433435568241D+03 0.627171099783703D+03 -.748941415363280D+03
 0.130260576469447D+04 0.611012098136096D+02 -.280565473436404D+02 0.130086942101263D+04
 0.000000000000000D+00 0.000000000000000D+00 0.000000000000000D+00 0.000000000000000D+00
 0.163556218233771D+04 0.000000000000000D+00 0.000000000000000D+00 0.163556218233771D+04
 0.163556218233771D+04 -.000000000000000D+00 -.000000000000000D+00 -.163556218233771D+04
 0.925549183159210D+03 -.423453502623451D+03 -.599151811696461D+03 -.550200443568943D+03
 0.104053962400877D+04 0.362524669092193D+03 0.627129207034085D+03 -.746999016811075D+03
 0.891250741463969D+03 0.576467477914420D+02 -.755413847190248D+02 0.886170545563255D+03
 0.413784816043463D+03 0.328208573981443D+01 0.475639893814006D+02 0.411028914816762D+03
0.262646370270D-02 0.000000000000D+00 0.000000000000D+00 0.456134007531D-04 0.000000000000D+00  6 -2 2 25 1 -1 21 0 0.27233223D+00 0.23249219D+00 0.58972605D+06 0.58972605D+06 0.58972605D+06 0.10634810D+01  1  2  2  4  6  5       -1 0.169246109358D-03 0.100000000000D+01
0.132755958663D-02 0.000000000000D+00 -.100863121821D-04 0.456134007531D-04 0.000000000000D+00  6 -2 2 25 1 -1 21 2 0.27233223D+00 0.23249219D+00 0.58972605D+06 0.58972605D+06 0.58972605D+06 0.10634810D+01  1  2  3  4  6  5       -1 0.967521845523D-04 0.100000000000D+01
-.187850894921D-02 0.000000000000D+00 0.000000000000D+00 0.456134007531D-04 0.000000000000D+00  6 -2 2 25 1 -1 21 2 0.27233223D+00 0.23249219D+00 0.58972605D+06 0.58972605D+06 0.58972605D+06 0.10634810D+01  1  2 15  4  6  5       -1 -.136905225474D-03 0.100000000000D+01
0.104079563058D-08 0.000000000000D+00 0.000000000000D+00 0.456134007531D-04 0.000000000000D+00  6 -2 2 25 1 -1 21 2 0.27233223D+00 0.23249219D+00 0.64909799D+06 0.64909799D+06 0.64909799D+06 0.10605911D+01  1  2 12  4  6  5       -1 0.748176306259D-10 0.100000000000D+01
-.414571562968D-02 0.000000000000D+00 0.000000000000D+00 0.456134007531D-04 0.000000000000D+00  6 -2 2 25 1 -1 21 2 0.27233223D+00 0.23249219D+00 0.58972605D+06 0.58972605D+06 0.58972605D+06 0.10634810D+01  1  2  4  4  6  5       -1 -.302138636747D-03 0.100000000000D+01
-.753126552821D-01 0.000000000000D+00 0.000000000000D+00 0.456134007531D-04 0.000000000000D+00  6 -2 2 25 1 -1 21 2 0.27233223D+00 0.23249219D+00 0.58972605D+06 0.58972605D+06 0.58972605D+06 0.10634810D+01  1  2  5  4  6  5       -1 -.548876600071D-02 0.100000000000D+01
0.102774601790D+00 0.000000000000D+00 -.000000000000D+00 0.456134007531D-04 0.000000000000D+00  6 -2 2 25 1 -1 21 2 0.27233223D+00 0.23249219D+00 0.58972605D+06 0.58972605D+06 0.58972605D+06 0.10634810D+01  1  2  6  4  6  5       -1 0.749018525410D-02 0.100000000000D+01
  </mgrwgt>
  </event>
  <event>
  5     66 0.17652913E-05 0.27750473E+02 0.75467711E-02 0.93259085E-01
       -2 -1    0    0    0  501 0.00000000E+00 0.00000000E+00 0.97991959E+03 0.97991964E+03 0.32000000E+00 0.0000E+00 0.9000E+01
        2 -1    0    0  502    0 0.00000000E+00 0.00000000E+00 -.47923660E+03 0.47923671E+03 0.32000000E+00 0.0000E+00 0.9000E+01
       25  1    1    2    0    0 -.29283540E+03 0.34337681E+03 0.15040795E+01 0.46828140E+03 0.12500000E+03 0.0000E+00 0.9000E+01
        1  1    1    2  502    0 -.43637438E+01 0.27406387E+02 -.16882800E+03 0.17109398E+03 0.32000000E+00 0.0000E+00 0.9000E+01
       -1  1    1    2    0  501 0.29719915E+03 -.37078319E+03 0.66800691E+03 0.81978098E+03 0.32000000E+00 0.0000E+00 0.9000E+01
#aMCatNLO 1  0  0  1  5 0.35493125D+01 0.00000000D+00  -5  6  0 0.00000000D+00 0.00000000D+00 0.00000000D+00 0.00000000D+00 0.00000000D+00
  <mgrwgt>
 0.1428535204D-01    7    4    0
 0.685283479950721D+03 0.000000000000000D+00 0.000000000000000D+00 0.685283479950721D+03
 0.685283479950721D+03 0.000000000000000D+00 0.000000000000000D+00 -.685283479950721D+03
 0.498007462573044D+03 -.292837202798841D+03 0.343379768863966D+03 -.169479024573312D+03
 0.243817424704459D+03 -.436342915543884D+01 0.274052772496771D+02 -.242233044513725D+03
 0.628742072623941D+03 0.297200631954280D+03 -.370785046113643D+03 0.411712069087037D+03
 0.000000000000000D+00 -.000000000000000D+00 -.000000000000000D+00 0.000000000000000D+00
 0.852181308799924D+03 0.000000000000000D+00 0.000000000000000D+00 0.852181308799924D+03
 0.718160316728889D+03 0.000000000000000D+00 0.000000000000000D+00 -.718160316728889D+03
 0.524071657450886D+03 -.276475790671686D+03 0.392255145977033D+03 -.169479024573312D+03
 0.247548268316049D+03 0.350233823100927D+01 0.509021700794987D+02 -.242233044513725D+03
 0.605935414991900D+03 0.316965312421023D+03 -.311743307917460D+03 0.411712069087037D+03
 0.192786284769977D+03 -.439918599803470D+02 -.131414008139071D+03 0.134020992071035D+03
 0.685283479950721D+03 0.000000000000000D+00 0.000000000000000D+00 0.685283479950721D+03
 0.685283479950721D+03 0.000000000000000D+00 0.000000000000000D+00 -.685283479950721D+03
 0.498007462573044D+03 -.292837202798841D+03 0.343379768863966D+03 -.169479024573312D+03
 0.243817424704459D+03 -.436342915543884D+01 0.274052772496771D+02 -.242233044513725D+03
 0.000000000000000D+00 -.000000000000000D+00 -.000000000000000D+00 0.000000000000000D+00
 0.628742072623941D+03 0.297200631954280D+03 -.370785046113643D+03 0.411712069087037D+03
 0.852181308799924D+03 0.000000000000000D+00 0.000000000000000D+00 0.852181308799924D+03
 0.718160316728889D+03 0.000000000000000D+00 0.000000000000000D+00 -.718160316728889D+03
 0.524071657450886D+03 -.276475790671686D+03 0.392255145977033D+03 -.169479024573312D+03
 0.247548268316049D+03 0.350233823100927D+01 0.509021700794987D+02 -.242233044513725D+03
 0.192786284769977D+03 -.439918599803470D+02 -.131414008139071D+03 0.134020992071035D+03
 0.605935414991900D+03 0.316965312421023D+03 -.311743307917460D+03 0.411712069087037D+03
0.405888286273D-02 0.000000000000D+00 0.000000000000D+00 0.172904288463D-04 0.000000000000D+00  6 -2 2 25 1 -1 21 0 0.15075687D+00 0.73728720D-01 0.23582057D+06 0.23582057D+06 0.23582057D+06 0.10923719D+01  1  2  2  1  6  1       -2 0.936816592549D-02 0.100000000000D+01
0.174755195359D-02 0.000000000000D+00 -.155871789213D-04 0.172904288463D-04 0.000000000000D+00  6 -2 2 25 1 -1 21 2 0.15075687D+00 0.73728720D-01 0.23582057D+06 0.23582057D+06 0.23582057D+06 0.10923719D+01  1  2  3  1  6  1       -2 0.481303732858D-02 0.100000000000D+01
-.319569644805D-02 0.000000000000D+00 0.000000000000D+00 0.172904288463D-04 0.000000000000D+00  6 -2 2 25 1 -1 21 2 0.15075687D+00 0.73728720D-01 0.23582057D+06 0.23582057D+06 0.23582057D+06 0.10923719D+01  1  2 15  1  6  1       -2 -.880145867118D-02 0.100000000000D+01
-.517439870680D-02 0.000000000000D+00 0.000000000000D+00 0.172904288463D-04 0.000000000000D+00  6 -2 2 25 1 -1 21 2 0.15075687D+00 0.73728720D-01 0.23582057D+06 0.23582057D+06 0.23582057D+06 0.10923719D+01  1  2  4  1  6  1       -2 -.142511208766D-01 0.100000000000D+01
-.200735250469D-01 0.000000000000D+00 -.470120839336D-02 0.172904288463D-04 0.000000000000D+00  6 -2 2 25 1 -1 21 2 0.19193514D+00 0.73728720D-01 0.23582057D+06 0.23582057D+06 0.23582057D+06 0.10923719D+01  1  2  5  1  6  1       -2 -.274649208076D-01 0.100000000000D+01
0.207350940291D-01 0.000000000000D+00 0.456738197325D-02 0.172904288463D-04 0.000000000000D+00  6 -2 2 25 1 -1 21 2 0.15075687D+00 0.73728720D-01 0.23582057D+06 0.23582057D+06 0.23582057D+06 0.10923719D+01  1  2  6  1  6  1       -2 0.571077623005D-01 0.100000000000D+01
-.587747234671D-03 0.000000000000D+00 -.155079585798D-03 0.172904288463D-04 0.000000000000D+00  6 21 2 25 1 2 -1 2 0.19193514D+00 0.73728720D-01 0.23582057D+06 0.23582057D+06 0.23582057D+06 0.10923719D+01  3  4  5  5  5  1       -2 -.648611315556D-02 0.100000000000D+01
  </mgrwgt>
  </event>
  <event>
  6     66 0.17652913E-05 0.68653893E+02 0.75467711E-02 0.86935789E-01
       -2 -1    0    0    0  501 0.00000000E+00 0.00000000E+00 0.12433080E+04 0.12433081E+04 0.32000000E+00 0.0000E+00 0.9000E+01
        2 -1    0    0  502    0 -.00000000E+00 -.00000000E+00 -.13498772E+04 0.13498772E+04 0.32000000E+00 0.0000E+00 0.9000E+01
       25  1    1    2    0    0 -.64384624E+03 -.81730864E+03 -.25553054E+03 0.10786344E+04 0.12500000E+03 0.0000E+00 0.9000E+01
        1  1    1    2  502    0 0.53314021E+02 0.79532447E+02 -.37776129E+03 0.38970693E+03 0.32000000E+00 0.0000E+00 0.9000E+01
       -1  1    1    2    0  503 0.54158939E+03 0.71436439E+03 0.38975347E+03 0.97751901E+03 0.32000000E+00 0.0000E+00 0.9000E+01
       21  1    1    2  503  501 0.48942825E+02 0.23411799E+02 0.13696919E+03 0.14732493E+03 0.75000000E+00 0.0000E+00 0.9000E+01
#aMCatNLO 2  0  0  5  1 0.99889600D+02 0.00000000D+00  -5  6  0 0.00000000D+00 0.00000000D+00 0.00000000D+00 0.00000000D+00 0.00000000D+00
  <mgrwgt>
 0.7093022870D-04    1    2    0
 0.129549730364883D+04 0.000000000000000D+00 0.000000000000000D+00 0.129549730364883D+04
 0.129549730364883D+04 -.000000000000000D+00 -.000000000000000D+00 -.129549730364883D+04
 0.108541498380277D+04 -.653226973213765D+03 -.829033286872151D+03 -.220224925445587D+03
 0.376535161847639D+03 0.500531416837824D+02 0.754634035120431D+02 -.365484180020954D+03
 0.112904446164726D+04 0.603173831529982D+03 0.753569883360108D+03 0.585709105466542D+03
 0.000000000000000D+00 0.000000000000000D+00 0.000000000000000D+00 0.000000000000000D+00
 0.129549730364883D+04 0.000000000000000D+00 0.000000000000000D+00 0.129549730364883D+04
 0.129549730364883D+04 -.000000000000000D+00 -.000000000000000D+00 -.129549730364883D+04
 0.106890969430934D+04 -.643801752694071D+03 -.817257971106789D+03 -.211072609494792D+03
 0.374743057889187D+03 0.533400013501106D+02 0.795698125203604D+02 -.362292490437744D+03
 0.994198104782195D+03 0.541496543810693D+03 0.714262251367287D+03 0.430163690779819D+03
 0.153143750316948D+03 0.489652075332676D+02 0.234259072191420D+02 0.143201409152717D+03
0.247405605046D-03 0.000000000000D+00 0.000000000000D+00 0.434480695222D-06 0.102333868131D-08  6 -2 2 25 1 -1 21 2 0.19127816D+00 0.20767342D+00 0.10964781D+07 0.10964781D+07 0.10964781D+07 0.10452116D+01  1  2  1  4  6  5       -1 0.709302287001D-04 0.100000000000D+01
  </mgrwgt>
  </event>
  <event>
  5     66 0.17652913E-05 0.11735322E+03 0.75467711E-02 0.92523591E-01
       -2 -1    0    0    0  501 0.00000000E+00 0.00000000E+00 0.56044117E+03 0.56044126E+03 0.32000000E+00 0.0000E+00 0.9000E+01
        2 -1    0    0  502    0 -.00000000E+00 -.00000000E+00 -.20404469E+04 0.20404469E+04 0.32000000E+00 0.0000E+00 0.9000E+01
       25  1    1    2    0    0 -.56570681E+03 0.11129163E+03 -.38838789E+03 0.70631450E+03 0.12500000E+03 0.0000E+00 0.9000E+01
        1  1    1    2  502    0 0.45494680E+03 -.72461428E+02 -.14479185E+04 0.15194392E+04 0.32000000E+00 0.0000E+00 0.9000E+01
       -1  1    1    2    0  501 0.11076001E+03 -.38830205E+02 0.35630072E+03 0.37513447E+03 0.32000000E+00 0.0000E+00 0.9000E+01
#aMCatNLO 1  0  0  4  2 0.90300625D+02 0.00000000D+00  -5  6  0 0.00000000D+00 0.00000000D+00 0.00000000D+00 0.00000000D+00 0.00000000D+00
  <mgrwgt>
 0.2695191936D-02    8    2    0
 0.106936925054668D+04 0.000000000000000D+00 0.000000000000000D+00 0.106936925054668D+04
 0.106936925054668D+04 -.000000000000000D+00 -.000000000000000D+00 -.106936925054668D+04
 0.590227819031225D+03 -.565758276310364D+03 0.111297966718769D+03 0.165594006217080D+02
 0.845852014463113D+03 0.455013493760441D+03 -.724730995838637D+02 -.709348997816964D+03
 0.702658667599026D+03 0.110744782549923D+03 -.388248671349054D+02 0.692789597195256D+03
 0.000000000000000D+00 0.000000000000000D+00 0.000000000000000D+00 -.000000000000000D+00
 0.106936925054668D+04 0.000000000000000D+00 0.000000000000000D+00 0.106936925054668D+04
 0.106936925054668D+04 -.000000000000000D+00 -.000000000000000D+00 -.106936925054668D+04
 0.585629240249448D+03 -.561263715045995D+03 0.110582087320542D+03 0.955254791903707D+01
 0.676698675204798D+03 0.391663271016650D+03 -.137556780773721D+03 -.534414737094363D+03
 0.695366570722489D+03 0.116088552894436D+03 -.396760058497829D+02 0.684458859337095D+03
 0.181044014916629D+03 0.535118911349085D+02 0.666506993029613D+02 -.159596670161769D+03
0.131545508257D-02 0.000000000000D+00 0.000000000000D+00 0.184115963982D-04 0.000000000000D+00  6 -2 2 25 1 -1 21 0 0.86221728D-01 0.31391491D+00 0.34111305D+06 0.34111305D+06 0.34111305D+06 0.10804492D+01  1  2  2  3  6  4        1 0.127892053264D-02 0.100000000000D+01
0.277965694739D-03 0.000000000000D+00 -.505169388435D-05 0.184115963982D-04 0.000000000000D+00  6 -2 2 25 1 -1 21 2 0.86221728D-01 0.31391491D+00 0.34111305D+06 0.34111305D+06 0.34111305D+06 0.10804492D+01  1  2  3  3  6  4        1 0.315476809742D-03 0.100000000000D+01
-.822923782162D-03 0.000000000000D+00 0.000000000000D+00 0.184115963982D-04 0.000000000000D+00  6 -2 2 25 1 -1 21 2 0.86221728D-01 0.31391491D+00 0.34111305D+06 0.34111305D+06 0.34111305D+06 0.10804492D+01  1  2 15  3  6  4        1 -.933976294092D-03 0.100000000000D+01
0.121501451721D-08 0.000000000000D+00 0.000000000000D+00 0.184115963982D-04 0.000000000000D+00  6 -2 2 25 1 -1 21 2 0.86221728D-01 0.31391491D+00 0.36531375D+06 0.36531375D+06 0.36531375D+06 0.10782791D+01  1  2 12  3  6  4        1 0.136731419945D-08 0.100000000000D+01
0.407207696233D-02 0.000000000000D+00 0.000000000000D+00 0.184115963982D-04 0.000000000000D+00  6 -2 2 25 1 -1 21 2 0.86221728D-01 0.31391491D+00 0.36531375D+06 0.36531375D+06 0.36531375D+06 0.10782791D+01  1  2 12  3  6  4        1 0.458250380796D-02 0.100000000000D+01
-.369366548739D-02 0.000000000000D+00 0.000000000000D+00 0.184115963982D-04 0.000000000000D+00  6 -2 2 25 1 -1 21 2 0.86221728D-01 0.31391491D+00 0.34111305D+06 0.34111305D+06 0.34111305D+06 0.10804492D+01  1  2  4  3  6  4        1 -.419212092093D-02 0.100000000000D+01
-.613159580075D-02 0.000000000000D+00 0.000000000000D+00 0.184115963982D-04 0.000000000000D+00  6 -2 2 25 1 -1 21 2 0.86221728D-01 0.31391491D+00 0.34111305D+06 0.34111305D+06 0.34111305D+06 0.10804492D+01  1  2  5  3  6  4        1 -.695904681210D-02 0.100000000000D+01
0.758046005617D-02 0.000000000000D+00 -.000000000000D+00 0.184115963982D-04 0.000000000000D+00  6 -2 2 25 1 -1 21 2 0.86221728D-01 0.31391491D+00 0.34111305D+06 0.34111305D+06 0.34111305D+06 0.10804492D+01  1  2  6  3  6  4        1 0.860343344578D-02 0.100000000000D+01
  </mgrwgt>
  </event>
</LesHouchesEvents>
