<event>
 5    0  0.2200669E+000  0.2744098E+03  0.7546771E-02  0.1098782E+00
         21   -1    0    0  502  501  0.00000000000E+00  0.00000000000E+00  0.86142710885E+03  0.86142710885E+03  0.00000000000E+00 0. -1.
         21   -1    0    0  503  502 -0.00000000000E+00 -0.00000000000E+00 -0.14540632622E+03  0.14540632622E+03  0.00000000000E+00 0. -1.
         25    1    1    2    0    0 -0.46986182024E+02  0.24089724496E+03  0.67610824341E+03  0.73005927207E+03  0.12500000000E+03 0.  0.
         21    1    1    2  503  504 -0.27752715814E+02 -0.11293593870E+02 -0.70668720581E+01  0.30784723130E+02  0.00000000000E+00 0. -1.
         21    1    1    2  504  501  0.74738897838E+02 -0.22960365109E+03  0.46979411283E+02  0.24598943987E+03  0.00000000000E+00 0. -1.
<mgrwt>
<rscale>  4 0.27440984E+03</rscale>
<asrwt>0</asrwt>
<pdfrwt beam="1">  1       21 0.13252724E+00 0.27440984E+03</pdfrwt>
<pdfrwt beam="2">  1       21 0.22370205E-01 0.27440984E+03</pdfrwt>
<totfact> 0.72947830E+03</totfact>
</mgrwt>
</event>
<event>
 5    0  0.1856407E+000  0.2474411E+03  0.7546771E-02  0.1114933E+00
         21   -1    0    0  502  501  0.00000000000E+00  0.00000000000E+00  0.30270160651E+03  0.30270160651E+03  0.00000000000E+00 0.  1.
         21   -1    0    0  503  502 -0.00000000000E+00 -0.00000000000E+00 -0.19546782169E+03  0.19546782169E+03  0.00000000000E+00 0. -1.
         25    1    1    2    0    0 -0.65996853689E+01 -0.21344446110E+03  0.11946094954E+03  0.27476901624E+03  0.12500000000E+03 0.  0.
         21    1    1    2  503  504  0.25483481160E+02  0.17353134604E+03  0.63246738473E+01  0.17550651660E+03  0.00000000000E+00 0. -1.
         21    1    1    2  504  501 -0.18883795791E+02  0.39913115069E+02 -0.18551838570E+02  0.47893895355E+02  0.00000000000E+00 0. -1.
<mgrwt>
<rscale>  4 0.24744109E+03</rscale>
<asrwt>0</asrwt>
<pdfrwt beam="1">  1       21 0.46569478E-01 0.24744109E+03</pdfrwt>
<pdfrwt beam="2">  1       21 0.30071972E-01 0.24744109E+03</pdfrwt>
<totfact> 0.45678544E+04</totfact>
</mgrwt>
</event>
<event>
 5    0  0.1856407E+000  0.2849395E+03  0.7546771E-02  0.1093021E+00
         21   -1    0    0  502  501  0.00000000000E+00  0.00000000000E+00  0.12173253757E+04  0.12173253757E+04  0.00000000000E+00 0. -1.
         21   -1    0    0  503  502 -0.00000000000E+00 -0.00000000000E+00 -0.75432631086E+02  0.75432631086E+02  0.00000000000E+00 0.  1.
         25    1    1    2    0    0  0.25543264512E+03  0.17879962971E+02  0.87080389215E+03  0.91623684048E+03  0.12500000000E+03 0.  0.
         21    1    1    2  503  504 -0.63434302596E+02 -0.25933040714E+02  0.60280978318E+02  0.91270092000E+02  0.00000000000E+00 0.  1.
         21    1    1    2  504  501 -0.19199834252E+03  0.80530777432E+01  0.21080787415E+03  0.28525107431E+03  0.00000000000E+00 0.  1.
<mgrwt>
<rscale>  4 0.28493952E+03</rscale>
<asrwt>0</asrwt>
<pdfrwt beam="1">  1       21 0.18728081E+00 0.28493952E+03</pdfrwt>
<pdfrwt beam="2">  1       21 0.11605021E-01 0.28493952E+03</pdfrwt>
<totfact> 0.95029410E+03</totfact>
</mgrwt>
</event>
<event>
 5    0  0.1856407E+000  0.3984467E+03  0.7546771E-02  0.1044319E+00
         21   -1    0    0  502  501  0.00000000000E+00  0.00000000000E+00  0.13929626829E+03  0.13929626829E+03  0.00000000000E+00 0. -1.
         21   -1    0    0  503  502 -0.00000000000E+00 -0.00000000000E+00 -0.11242185836E+04  0.11242185836E+04  0.00000000000E+00 0. -1.
         25    1    1    2    0    0  0.35748035911E+03 -0.12386505521E+03 -0.47626126774E+03  0.62095455083E+03  0.12500000000E+03 0.  0.
         21    1    1    2  503  504 -0.27028108784E+02 -0.14990450834E+02 -0.21112093170E+02  0.37429303475E+02  0.00000000000E+00 0. -1.
         21    1    1    2  504  501 -0.33045225032E+03  0.13885550604E+03 -0.48754895440E+03  0.60513099758E+03  0.00000000000E+00 0. -1.
<mgrwt>
<rscale>  4 0.39844668E+03</rscale>
<asrwt>0</asrwt>
<pdfrwt beam="1">  1       21 0.21430195E-01 0.39844668E+03</pdfrwt>
<pdfrwt beam="2">  1       21 0.17295671E+00 0.39844668E+03</pdfrwt>
<totfact> 0.36281882E+03</totfact>
</mgrwt>
</event>
<event>
 5    0  0.1856407E+000  0.2390221E+03  0.7546771E-02  0.1120446E+00
         21   -1    0    0  502  501  0.00000000000E+00  0.00000000000E+00  0.10088604229E+04  0.10088604229E+04  0.00000000000E+00 0. -1.
         21   -1    0    0  503  502 -0.00000000000E+00 -0.00000000000E+00 -0.30835351207E+03  0.30835351207E+03  0.00000000000E+00 0. -1.
         25    1    1    2    0    0  0.19147760419E+03  0.83103487053E+02  0.93306989301E+03  0.96426878395E+03  0.12500000000E+03 0.  0.
         21    1    1    2  503  504 -0.41455048787E+02 -0.93252475806E+02 -0.42382437477E+02  0.11050256251E+03  0.00000000000E+00 0. -1.
         21    1    1    2  504  501 -0.15002255540E+03  0.10148988752E+02 -0.19018054475E+03  0.24244258847E+03  0.00000000000E+00 0. -1.
<mgrwt>
<rscale>  4 0.23902212E+03</rscale>
<asrwt>0</asrwt>
<pdfrwt beam="1">  1       21 0.15520929E+00 0.23902212E+03</pdfrwt>
<pdfrwt beam="2">  1       21 0.47439002E-01 0.23902212E+03</pdfrwt>
<totfact> 0.11105398E+03</totfact>
</mgrwt>
</event>
<event>
 5    0  0.2133188E+000  0.2239156E+03  0.7546771E-02  0.1130997E+00
         21   -1    0    0  502  501  0.00000000000E+00  0.00000000000E+00  0.48883480250E+03  0.48883480250E+03  0.00000000000E+00 0. -1.
         21   -1    0    0  503  502 -0.00000000000E+00 -0.00000000000E+00 -0.18026667614E+03  0.18026667614E+03  0.00000000000E+00 0. -1.
         25    1    1    2    0    0 -0.11263323752E+03 -0.19186615493E+03  0.32540427363E+03  0.41353574078E+03  0.12500000000E+03 0.  0.
         21    1    1    2  503  504  0.53256528402E+02  0.13314904490E+03  0.46502388327E+02  0.15075608808E+03  0.00000000000E+00 0. -1.
         21    1    1    2  504  501  0.59376709115E+02  0.58717110035E+02 -0.63338535599E+02  0.10480964978E+03  0.00000000000E+00 0. -1.
<mgrwt>
<rscale>  4 0.22391555E+03</rscale>
<asrwt>0</asrwt>
<pdfrwt beam="1">  1       21 0.75205353E-01 0.22391555E+03</pdfrwt>
<pdfrwt beam="2">  1       21 0.27733335E-01 0.22391555E+03</pdfrwt>
<totfact> 0.19255140E+04</totfact>
</mgrwt>
</event>
<event>
 5    0  0.1856407E+000  0.2749925E+03  0.7546771E-02  0.1098456E+00
         21   -1    0    0  502  501  0.00000000000E+00  0.00000000000E+00  0.61985719827E+02  0.61985719827E+02  0.00000000000E+00 0.  1.
         21   -1    0    0  503  502 -0.00000000000E+00 -0.00000000000E+00 -0.14450122300E+04  0.14450122300E+04  0.00000000000E+00 0.  1.
         25    1    1    2    0    0 -0.16911832055E+03 -0.17718602164E+03 -0.10750967308E+04  0.11097089137E+04  0.12500000000E+03 0.  0.
         21    1    1    2  503  504  0.10859881107E+03  0.14063741863E+03 -0.19286200843E+03  0.26223718192E+03  0.00000000000E+00 0.  1.
         21    1    1    2  504  501  0.60519509479E+02  0.36548603009E+02 -0.11506777092E+03  0.13505185417E+03  0.00000000000E+00 0.  1.
<mgrwt>
<rscale>  4 0.27499253E+03</rscale>
<asrwt>0</asrwt>
<pdfrwt beam="1">  1       21 0.95362645E-02 0.27499253E+03</pdfrwt>
<pdfrwt beam="2">  1       21 0.22230958E+00 0.27499253E+03</pdfrwt>
<totfact> 0.80590746E+03</totfact>
</mgrwt>
</event>
<event>
 5    0  0.1856407E+000  0.6231500E+03  0.7546771E-02  0.9872994E-01
         21   -1    0    0  502  501  0.00000000000E+00  0.00000000000E+00  0.22766793329E+03  0.22766793329E+03  0.00000000000E+00 0.  1.
         21   -1    0    0  503  502 -0.00000000000E+00 -0.00000000000E+00 -0.19168194320E+04  0.19168194320E+04  0.00000000000E+00 0.  1.
         25    1    1    2    0    0  0.32318201615E+03 -0.48317036263E+03 -0.41185817117E+03  0.72329272639E+03  0.12500000000E+03 0.  0.
         21    1    1    2  503  504 -0.22345148737E+03  0.40542760239E+03 -0.11590232744E+04  0.12480533076E+04  0.00000000000E+00 0.  1.
         21    1    1    2  504  501 -0.99730528775E+02  0.77742760247E+02 -0.11827005317E+03  0.17314133134E+03  0.00000000000E+00 0.  1.
<mgrwt>
<rscale>  4 0.61588129E+03</rscale>
<asrwt>0</asrwt>
<pdfrwt beam="1">  1       21 0.35025837E-01 0.62315003E+03</pdfrwt>
<pdfrwt beam="2">  1       21 0.29489529E+00 0.62315003E+03</pdfrwt>
<totfact> 0.20691875E+02</totfact>
</mgrwt>
</event>
<event>
 5    0  0.2994252E+000  0.2721798E+03  0.7546771E-02  0.1100038E+00
         21   -1    0    0  502  501  0.00000000000E+00  0.00000000000E+00  0.44304462234E+02  0.44304462234E+02  0.00000000000E+00 0.  1.
         21   -1    0    0  503  502 -0.00000000000E+00 -0.00000000000E+00 -0.19012271070E+04  0.19012271070E+04  0.00000000000E+00 0.  1.
         25    1    1    2    0    0  0.37223326298E+02 -0.23889595439E+03 -0.54189931039E+03  0.60641299099E+03  0.12500000000E+03 0.  0.
         21    1    1    2  503  504 -0.49796904728E+02  0.21163899730E+03 -0.10414034212E+04  0.10638570781E+04  0.00000000000E+00 0.  1.
         21    1    1    2  504  501  0.12573578430E+02  0.27256957084E+02 -0.27361991312E+03  0.27526150010E+03  0.00000000000E+00 0.  1.
<mgrwt>
<rscale>  4 0.27217982E+03</rscale>
<asrwt>0</asrwt>
<pdfrwt beam="1">  1       21 0.68160711E-02 0.27217982E+03</pdfrwt>
<pdfrwt beam="2">  1       21 0.29249648E+00 0.27217982E+03</pdfrwt>
<totfact> 0.55365743E+03</totfact>
</mgrwt>
</event>
<event>
 5    0  0.1856407E+000  0.2366951E+03  0.7546771E-02  0.1122014E+00
         21   -1    0    0  502  501  0.00000000000E+00  0.00000000000E+00  0.14454625429E+04  0.14454625429E+04  0.00000000000E+00 0.  1.
         21   -1    0    0  503  502 -0.00000000000E+00 -0.00000000000E+00 -0.69422335530E+02  0.69422335530E+02  0.00000000000E+00 0.  1.
         25    1    1    2    0    0  0.19802309825E+03  0.16914249510E+03  0.76285434756E+03  0.81571691578E+03  0.12500000000E+03 0.  0.
         21    1    1    2  503  504 -0.18162453824E+03 -0.45787018899E+02  0.23194396182E+03  0.29813071867E+03  0.00000000000E+00 0.  1.
         21    1    1    2  504  501 -0.16398560017E+02 -0.12335547620E+03  0.38124189794E+03  0.40103724394E+03  0.00000000000E+00 0.  1.
<mgrwt>
<rscale>  4 0.23669508E+03</rscale>
<asrwt>0</asrwt>
<pdfrwt beam="1">  1       21 0.22237883E+00 0.23669508E+03</pdfrwt>
<pdfrwt beam="2">  1       21 0.10680360E-01 0.23669508E+03</pdfrwt>
<totfact> 0.67627945E+03</totfact>
</mgrwt>
</event>
<event>
 5    0  0.1856407E+000  0.2430953E+03  0.7546771E-02  0.1117748E+00
         21   -1    0    0  502  501  0.00000000000E+00  0.00000000000E+00  0.85437317380E+02  0.85437317380E+02  0.00000000000E+00 0. -1.
         21   -1    0    0  503  502 -0.00000000000E+00 -0.00000000000E+00 -0.10224789721E+04  0.10224789721E+04  0.00000000000E+00 0. -1.
         25    1    1    2    0    0  0.75834122619E+02  0.18806140713E+03 -0.16694204590E+03  0.29088237089E+03  0.12500000000E+03 0.  0.
         21    1    1    2  503  504 -0.73913409287E+02 -0.20934839560E+03 -0.51214949046E+03  0.55819982389E+03  0.00000000000E+00 0. -1.
         21    1    1    2  504  501 -0.19207133325E+01  0.21286988465E+02 -0.25795011838E+03  0.25883409472E+03  0.00000000000E+00 0. -1.
<mgrwt>
<rscale>  4 0.24309525E+03</rscale>
<asrwt>0</asrwt>
<pdfrwt beam="1">  1       21 0.13144201E-01 0.24309525E+03</pdfrwt>
<pdfrwt beam="2">  1       21 0.15730448E+00 0.24309525E+03</pdfrwt>
<totfact> 0.12687062E+04</totfact>
</mgrwt>
</event>
<event>
 5    0  0.2483412E+000  0.1905975E+03  0.7546771E-02  0.1157924E+00
         21   -1    0    0  502  501  0.00000000000E+00  0.00000000000E+00  0.18263254098E+03  0.18263254098E+03  0.00000000000E+00 0.  1.
         21   -1    0    0  503  502 -0.00000000000E+00 -0.00000000000E+00 -0.37450028133E+03  0.37450028133E+03  0.00000000000E+00 0.  1.
         25    1    1    2    0    0  0.72610721937E+02 -0.18699238251E+03 -0.22607767608E+03  0.32706969239E+03  0.12500000000E+03 0.  0.
         21    1    1    2  503  504 -0.60962338820E+02  0.12114359866E+03  0.71694746587E+02  0.15340246066E+03  0.00000000000E+00 0.  1.
         21    1    1    2  504  501 -0.11648383118E+02  0.65848783857E+02 -0.37484810868E+02  0.76660669254E+02  0.00000000000E+00 0.  1.
<mgrwt>
<rscale>  4 0.19059749E+03</rscale>
<asrwt>0</asrwt>
<pdfrwt beam="1">  1       21 0.28097314E-01 0.19059749E+03</pdfrwt>
<pdfrwt beam="2">  1       21 0.57615427E-01 0.19059749E+03</pdfrwt>
<totfact> 0.34239729E+04</totfact>
</mgrwt>
</event>
<event>
 5    0  0.1856407E+000  0.2636432E+03  0.7546771E-02  0.1104974E+00
         21   -1    0    0  502  501  0.00000000000E+00  0.00000000000E+00  0.28227732214E+03  0.28227732214E+03  0.00000000000E+00 0.  1.
         21   -1    0    0  503  502 -0.00000000000E+00 -0.00000000000E+00 -0.55981160703E+03  0.55981160703E+03  0.00000000000E+00 0.  1.
         25    1    1    2    0    0  0.20673814473E+03 -0.10555596379E+03  0.18490122884E+03  0.32201892243E+03  0.12500000000E+03 0.  0.
         21    1    1    2  503  504 -0.19268674503E+03  0.80578968000E+02 -0.39556701737E+03  0.44731914449E+03  0.00000000000E+00 0.  1.
         21    1    1    2  504  501 -0.14051399704E+02  0.24976995788E+02 -0.66868496357E+02  0.72750862245E+02  0.00000000000E+00 0. -1.
<mgrwt>
<rscale>  4 0.26364317E+03</rscale>
<asrwt>0</asrwt>
<pdfrwt beam="1">  1       21 0.43427281E-01 0.26364317E+03</pdfrwt>
<pdfrwt beam="2">  1       21 0.86124861E-01 0.26364317E+03</pdfrwt>
<totfact> 0.56498075E+03</totfact>
</mgrwt>
</event>
<event>
 5    0  0.5116969E+000  0.2944722E+03  0.7546771E-02  0.1088037E+00
         21   -1    0    0  502  501  0.00000000000E+00  0.00000000000E+00  0.70510644986E+03  0.70510644986E+03  0.00000000000E+00 0. -1.
         21   -1    0    0  503  502 -0.00000000000E+00 -0.00000000000E+00 -0.18794320431E+03  0.18794320431E+03  0.00000000000E+00 0. -1.
         25    1    1    2    0    0  0.31603252689E+02 -0.25832501991E+03  0.46910979171E+03  0.55083534579E+03  0.12500000000E+03 0.  0.
         21    1    1    2  503  504  0.10692835362E+02  0.26871789972E+03 -0.10622311579E+02  0.26914026058E+03  0.00000000000E+00 0. -1.
         21    1    1    2  504  501 -0.42296088050E+02 -0.10392879818E+02  0.58675765419E+02  0.73074047806E+02  0.00000000000E+00 0.  1.
<mgrwt>
<rscale>  4 0.29447217E+03</rscale>
<asrwt>0</asrwt>
<pdfrwt beam="1">  1       21 0.10847791E+00 0.29447217E+03</pdfrwt>
<pdfrwt beam="2">  1       21 0.28914339E-01 0.29447217E+03</pdfrwt>
<totfact> 0.72608409E+03</totfact>
</mgrwt>
</event>
