<event>
 5    0  0.1943430E+001  0.2029072E+03  0.7546771E-02  0.1147309E+00
         21   -1    0    0  502  501  0.00000000000E+00  0.00000000000E+00  0.18471805893E+03  0.18471805893E+03  0.00000000000E+00 0.  1.
         21   -1    0    0  503  502 -0.00000000000E+00 -0.00000000000E+00 -0.36190913138E+03  0.36190913138E+03  0.00000000000E+00 0.  1.
         25    1    1    2    0    0 -0.14346447686E+03  0.14380167041E+03 -0.52534018719E+01  0.23856566132E+03  0.12500000000E+03 0.  0.
         21    1    1    2  503  504  0.10016941019E+03 -0.15562423925E+02 -0.13298810209E+03  0.16721822590E+03  0.00000000000E+00 0.  1.
         21    1    1    2  504  501  0.43295066663E+02 -0.12823924648E+03 -0.38949568488E+02  0.14084330307E+03  0.00000000000E+00 0.  1.
<mgrwt>
<rscale>  4 0.20290719E+03</rscale>
<asrwt>0</asrwt>
<pdfrwt beam="1">  1       21 0.28418163E-01 0.20290719E+03</pdfrwt>
<pdfrwt beam="2">  1       21 0.55678328E-01 0.20290719E+03</pdfrwt>
<totfact> 0.35786259E+04</totfact>
</mgrwt>
</event>
<event>
 5    0  0.1943430E+001  0.2896354E+03  0.7546771E-02  0.1090540E+00
         21   -1    0    0  504  501  0.00000000000E+00  0.00000000000E+00  0.22517438482E+04  0.22517438482E+04  0.00000000000E+00 0.  1.
         21   -1    0    0  501  502 -0.00000000000E+00 -0.00000000000E+00 -0.42739138379E+02  0.42739138379E+02  0.00000000000E+00 0.  1.
         25    1    1    2    0    0 -0.10923696539E+03  0.22077007042E+03  0.84786528739E+03  0.89172455621E+03  0.12500000000E+03 0.  0.
         21    1    1    2  503  502 -0.31070464019E+02  0.11008749312E+02  0.30812605320E+02  0.45121867674E+02  0.00000000000E+00 0.  1.
         21    1    1    2  504  503  0.14030742941E+03 -0.23177881973E+03  0.13303268171E+04  0.13576365627E+04  0.00000000000E+00 0.  1.
<mgrwt>
<rscale>  4 0.28963538E+03</rscale>
<asrwt>0</asrwt>
<pdfrwt beam="1">  1       21 0.34642204E+00 0.28963538E+03</pdfrwt>
<pdfrwt beam="2">  1       21 0.65752538E-02 0.28963538E+03</pdfrwt>
<totfact> 0.27872284E+03</totfact>
</mgrwt>
</event>
<event>
 5    0  0.1943430E+001  0.3870267E+03  0.7546771E-02  0.1048367E+00
         21   -1    0    0  503  501  0.00000000000E+00  0.00000000000E+00  0.67236087959E+03  0.67236087959E+03  0.00000000000E+00 0.  1.
         21   -1    0    0  504  502 -0.00000000000E+00 -0.00000000000E+00 -0.13117615420E+04  0.13117615420E+04  0.00000000000E+00 0. -1.
         25    1    1    2    0    0  0.65584149480E+02  0.40742067038E+03  0.44329334693E+03  0.61840672276E+03  0.12500000000E+03 0.  0.
         21    1    1    2  503  502  0.75882849277E+02 -0.28738896292E+03 -0.32214700274E+02  0.29897894530E+03  0.00000000000E+00 0.  1.
         21    1    1    2  504  501 -0.14146699876E+03 -0.12003170746E+03 -0.10504793091E+04  0.10667367535E+04  0.00000000000E+00 0. -1.
<mgrwt>
<rscale>  4 0.38702666E+03</rscale>
<asrwt>0</asrwt>
<pdfrwt beam="1">  1       21 0.10344013E+00 0.38702666E+03</pdfrwt>
<pdfrwt beam="2">  1       21 0.20180947E+00 0.38702666E+03</pdfrwt>
<totfact> 0.81552273E+01</totfact>
</mgrwt>
</event>
<event>
 5    0  0.1943430E+001  0.2414413E+03  0.7546771E-02  0.1118836E+00
         21   -1    0    0  503  501  0.00000000000E+00  0.00000000000E+00  0.49119779216E+03  0.49119779216E+03  0.00000000000E+00 0. -1.
         21   -1    0    0  504  502 -0.00000000000E+00 -0.00000000000E+00 -0.47294049279E+03  0.47294049279E+03  0.00000000000E+00 0. -1.
         25    1    1    2    0    0 -0.55982850302E+01  0.20874737810E+03  0.40657787877E+03  0.47385375399E+03  0.12500000000E+03 0.  0.
         21    1    1    2  503  502 -0.89992425684E+02 -0.27369357573E+02 -0.11348074317E+03  0.14739605654E+03  0.00000000000E+00 0.  1.
         21    1    1    2  504  501  0.95590710714E+02 -0.18137802053E+03 -0.27483983624E+03  0.34288847442E+03  0.00000000000E+00 0. -1.
<mgrwt>
<rscale>  4 0.24144126E+03</rscale>
<asrwt>0</asrwt>
<pdfrwt beam="1">  1       21 0.75568890E-01 0.24144126E+03</pdfrwt>
<pdfrwt beam="2">  1       21 0.72760076E-01 0.24144126E+03</pdfrwt>
<totfact> 0.25577227E+03</totfact>
</mgrwt>
</event>
<event>
 5    0  0.1943430E+001  0.2713137E+03  0.7546771E-02  0.1100530E+00
         21   -1    0    0  504  501  0.00000000000E+00  0.00000000000E+00  0.20051593223E+03  0.20051593223E+03  0.00000000000E+00 0.  1.
         21   -1    0    0  501  502 -0.00000000000E+00 -0.00000000000E+00 -0.16873013715E+04  0.16873013715E+04  0.00000000000E+00 0.  1.
         25    1    1    2    0    0 -0.10899021208E+03 -0.22332340167E+03  0.56517589430E+02  0.28385109825E+03  0.12500000000E+03 0.  0.
         21    1    1    2  503  502  0.17950298930E+03  0.79844311803E+02 -0.12868745063E+04  0.13017843264E+04  0.00000000000E+00 0.  1.
         21    1    1    2  504  503 -0.70512777215E+02  0.14347908987E+03 -0.25642852233E+03  0.30218187908E+03  0.00000000000E+00 0.  1.
<mgrwt>
<rscale>  4 0.27131369E+03</rscale>
<asrwt>0</asrwt>
<pdfrwt beam="1">  1       21 0.30848605E-01 0.27131369E+03</pdfrwt>
<pdfrwt beam="2">  1       21 0.25958483E+00 0.27131369E+03</pdfrwt>
<totfact> 0.53985431E+02</totfact>
</mgrwt>
</event>
<event>
 5    0  0.1943430E+001  0.2587530E+03  0.7546771E-02  0.1107895E+00
         21   -1    0    0  503  501  0.00000000000E+00  0.00000000000E+00  0.44607807148E+03  0.44607807148E+03  0.00000000000E+00 0.  1.
         21   -1    0    0  504  502 -0.00000000000E+00 -0.00000000000E+00 -0.46400955021E+03  0.46400955021E+03  0.00000000000E+00 0.  1.
         25    1    1    2    0    0 -0.81620487851E+02  0.21210784711E+03  0.27682336959E+03  0.37935184301E+03  0.12500000000E+03 0.  0.
         21    1    1    2  503  502 -0.18896277470E+02 -0.90515945139E+01  0.85536622918E+02  0.88065399140E+02  0.00000000000E+00 0. -1.
         21    1    1    2  504  501  0.10051676532E+03 -0.20305625260E+03 -0.38029147124E+03  0.44267037954E+03  0.00000000000E+00 0.  1.
<mgrwt>
<rscale>  4 0.25875299E+03</rscale>
<asrwt>0</asrwt>
<pdfrwt beam="1">  1       21 0.68627395E-01 0.25875299E+03</pdfrwt>
<pdfrwt beam="2">  1       21 0.71386085E-01 0.25875299E+03</pdfrwt>
<totfact> 0.32709179E+03</totfact>
</mgrwt>
</event>
<event>
 5    0  0.1943430E+001  0.2447890E+03  0.7546771E-02  0.1116643E+00
         21   -1    0    0  503  501  0.00000000000E+00  0.00000000000E+00  0.36864464977E+03  0.36864464977E+03  0.00000000000E+00 0. -1.
         21   -1    0    0  504  502 -0.00000000000E+00 -0.00000000000E+00 -0.19869594187E+03  0.19869594187E+03  0.00000000000E+00 0. -1.
         25    1    1    2    0    0 -0.18656132553E+03 -0.10488036468E+03  0.19158257654E+03  0.31326331211E+03  0.12500000000E+03 0.  0.
         21    1    1    2  503  502 -0.12731108142E+01  0.21299616931E+02 -0.42374006753E+02  0.47443133759E+02  0.00000000000E+00 0. -1.
         21    1    1    2  504  501  0.18783443634E+03  0.83580747750E+02  0.20740138116E+02  0.20663414578E+03  0.00000000000E+00 0. -1.
<mgrwt>
<rscale>  4 0.24478904E+03</rscale>
<asrwt>0</asrwt>
<pdfrwt beam="1">  1       21 0.56714561E-01 0.24478904E+03</pdfrwt>
<pdfrwt beam="2">  1       21 0.30568607E-01 0.24478904E+03</pdfrwt>
<totfact> 0.29235612E+04</totfact>
</mgrwt>
</event>
<event>
 5    0  0.1943430E+001  0.2670345E+03  0.7546771E-02  0.1102989E+00
         21   -1    0    0  503  501  0.00000000000E+00  0.00000000000E+00  0.69753435792E+03  0.69753435792E+03  0.00000000000E+00 0. -1.
         21   -1    0    0  504  502 -0.00000000000E+00 -0.00000000000E+00 -0.13610244771E+03  0.13610244771E+03  0.00000000000E+00 0. -1.
         25    1    1    2    0    0 -0.16453982355E+03 -0.16286574177E+03  0.70823189184E+02  0.27246931479E+03  0.12500000000E+03 0.  0.
         21    1    1    2  503  502  0.18393202040E+03  0.16810690520E+03  0.47223203086E+03  0.53394195441E+03  0.00000000000E+00 0. -1.
         21    1    1    2  504  501 -0.19392196847E+02 -0.52411634339E+01  0.18376690158E+02  0.27225536429E+02  0.00000000000E+00 0. -1.
<mgrwt>
<rscale>  4 0.26703452E+03</rscale>
<asrwt>0</asrwt>
<pdfrwt beam="1">  1       21 0.10731298E+00 0.26703452E+03</pdfrwt>
<pdfrwt beam="2">  1       21 0.20938839E-01 0.26703452E+03</pdfrwt>
<totfact> 0.14061173E+04</totfact>
</mgrwt>
</event>
<event>
 5    0  0.1943430E+001  0.3573655E+03  0.7546771E-02  0.1059632E+00
         21   -1    0    0  504  501  0.00000000000E+00  0.00000000000E+00  0.21404015973E+03  0.21404015973E+03  0.00000000000E+00 0.  1.
         21   -1    0    0  501  502 -0.00000000000E+00 -0.00000000000E+00 -0.12505278433E+04  0.12505278433E+04  0.00000000000E+00 0.  1.
         25    1    1    2    0    0  0.32768680167E+03  0.63151696019E+02  0.72284704770E+01  0.35643236032E+03  0.12500000000E+03 0.  0.
         21    1    1    2  503  502  0.34414683329E+01  0.21462130455E+02 -0.22661743789E+02  0.31400977366E+02  0.00000000000E+00 0.  1.
         21    1    1    2  504  503 -0.33112827001E+03 -0.84613826474E+02 -0.10210544102E+04  0.10767346653E+04  0.00000000000E+00 0.  1.
<mgrwt>
<rscale>  4 0.35736551E+03</rscale>
<asrwt>0</asrwt>
<pdfrwt beam="1">  1       21 0.32929255E-01 0.35736551E+03</pdfrwt>
<pdfrwt beam="2">  1       21 0.19238890E+00 0.35736551E+03</pdfrwt>
<totfact> 0.11731346E+03</totfact>
</mgrwt>
</event>
<event>
 5    0  0.1943430E+001  0.2505582E+03  0.7546771E-02  0.1112953E+00
         21   -1    0    0  504  501  0.00000000000E+00  0.00000000000E+00  0.12210312386E+04  0.12210312386E+04  0.00000000000E+00 0.  1.
         21   -1    0    0  503  502 -0.00000000000E+00 -0.00000000000E+00 -0.77265805332E+02  0.77265805332E+02  0.00000000000E+00 0.  1.
         25    1    1    2    0    0  0.16990994311E+03  0.14977530001E+03  0.90350671588E+03  0.93981456410E+03  0.12500000000E+03 0.  0.
         21    1    1    2  503  501 -0.13285537379E+03 -0.14962256071E+03  0.24995537687E+03  0.32017987358E+03  0.00000000000E+00 0.  1.
         21    1    1    2  504  502 -0.37054569325E+02 -0.15273930495E+00 -0.96966595163E+01  0.38302606216E+02  0.00000000000E+00 0.  1.
<mgrwt>
<rscale>  4 0.25055822E+03</rscale>
<asrwt>0</asrwt>
<pdfrwt beam="1">  1       21 0.18785095E+00 0.25055822E+03</pdfrwt>
<pdfrwt beam="2">  1       21 0.11887048E-01 0.25055822E+03</pdfrwt>
<totfact> 0.92125757E+03</totfact>
</mgrwt>
</event>
<event>
 5    0  0.1943430E+001  0.3223923E+03  0.7546771E-02  0.1074554E+00
         21   -1    0    0  503  501  0.00000000000E+00  0.00000000000E+00  0.16320092370E+03  0.16320092370E+03  0.00000000000E+00 0. -1.
         21   -1    0    0  504  502 -0.00000000000E+00 -0.00000000000E+00 -0.84720526408E+03  0.84720526408E+03  0.00000000000E+00 0. -1.
         25    1    1    2    0    0  0.17482208778E+03 -0.24967436146E+03 -0.10510503808E+03  0.34579201577E+03  0.12500000000E+03 0.  0.
         21    1    1    2  503  502 -0.36490751483E+02  0.45434427714E+01 -0.12707995247E+03  0.13229335635E+03  0.00000000000E+00 0. -1.
         21    1    1    2  504  501 -0.13833133630E+03  0.24513091868E+03 -0.45181934983E+03  0.53232081566E+03  0.00000000000E+00 0. -1.
<mgrwt>
<rscale>  4 0.32239232E+03</rscale>
<asrwt>0</asrwt>
<pdfrwt beam="1">  1       21 0.25107834E-01 0.32239232E+03</pdfrwt>
<pdfrwt beam="2">  1       21 0.13033927E+00 0.32239232E+03</pdfrwt>
<totfact> 0.59518680E+03</totfact>
</mgrwt>
</event>
