<event>
 5    0  0.1911311E+001  0.2267608E+03  0.7546771E-02  0.1128941E+00
         21   -1    0    0  503  501  0.00000000000E+00  0.00000000000E+00  0.49642812663E+03  0.49642812663E+03  0.00000000000E+00 0.  1.
         21   -1    0    0  504  502 -0.00000000000E+00 -0.00000000000E+00 -0.10816101361E+03  0.10816101361E+03  0.00000000000E+00 0.  1.
         25    1    1    2    0    0  0.16298479270E+03  0.11701832311E+03  0.16765066847E+03  0.28980869075E+03  0.12500000000E+03 0.  0.
         21    1    1    2  503  502 -0.14347803179E+03 -0.10928378839E+03  0.13144727834E+03  0.22317544443E+03  0.00000000000E+00 0.  1.
         21    1    1    2  504  501 -0.19506760913E+02 -0.77345347215E+01  0.89169166209E+02  0.91605005055E+02  0.00000000000E+00 0.  1.
<mgrwt>
<rscale>  4 0.22676078E+03</rscale>
<asrwt>0</asrwt>
<pdfrwt beam="1">  1       21 0.76373557E-01 0.22676078E+03</pdfrwt>
<pdfrwt beam="2">  1       21 0.16640156E-01 0.22676078E+03</pdfrwt>
<totfact> 0.48734236E+04</totfact>
</mgrwt>
</event>
<event>
 5    0  0.1911311E+001  0.2889171E+03  0.7546771E-02  0.1090916E+00
         21   -1    0    0  503  501  0.00000000000E+00  0.00000000000E+00  0.26602807709E+03  0.26602807709E+03  0.00000000000E+00 0. -1.
         21   -1    0    0  501  502 -0.00000000000E+00 -0.00000000000E+00 -0.30687706490E+03  0.30687706490E+03  0.00000000000E+00 0. -1.
         25    1    1    2    0    0  0.24205097792E+03 -0.96225845639E+02 -0.19529554157E+02  0.28957640230E+03  0.12500000000E+03 0.  0.
         21    1    1    2  503  504 -0.91658206463E+02  0.48743051981E+02 -0.61391581294E+02  0.12060695744E+03  0.00000000000E+00 0. -1.
         21    1    1    2  504  502 -0.15039277146E+03  0.47482793658E+02  0.40072147643E+02  0.16272178225E+03  0.00000000000E+00 0. -1.
<mgrwt>
<rscale>  4 0.28891710E+03</rscale>
<asrwt>0</asrwt>
<pdfrwt beam="1">  1       21 0.40927397E-01 0.28891710E+03</pdfrwt>
<pdfrwt beam="2">  1       21 0.47211856E-01 0.28891710E+03</pdfrwt>
<totfact> 0.23554638E+04</totfact>
</mgrwt>
</event>
<event>
 5    0  0.1911311E+001  0.2854067E+03  0.7546771E-02  0.1092772E+00
         21   -1    0    0  504  501  0.00000000000E+00  0.00000000000E+00  0.12926786863E+03  0.12926786863E+03  0.00000000000E+00 0.  1.
         21   -1    0    0  503  502 -0.00000000000E+00 -0.00000000000E+00 -0.84062752337E+03  0.84062752337E+03  0.00000000000E+00 0.  1.
         25    1    1    2    0    0 -0.25781364115E+03 -0.99246559013E+02 -0.40326226356E+03  0.50454257130E+03  0.12500000000E+03 0.  0.
         21    1    1    2  503  501  0.24131278344E+03  0.32739357244E+02 -0.31309031697E+03  0.39664754070E+03  0.00000000000E+00 0.  1.
         21    1    1    2  504  502  0.16500857703E+02  0.66507201769E+02  0.49929257968E+01  0.68705280002E+02  0.00000000000E+00 0. -1.
<mgrwt>
<rscale>  4 0.28540667E+03</rscale>
<asrwt>0</asrwt>
<pdfrwt beam="1">  1       21 0.19887364E-01 0.28540667E+03</pdfrwt>
<pdfrwt beam="2">  1       21 0.12932731E+00 0.28540667E+03</pdfrwt>
<totfact> 0.96470143E+03</totfact>
</mgrwt>
</event>
