<event>
 5    0  0.2917107E+000  0.2552476E+03  0.7546771E-02  0.1110033E+00
          1   -1    0    0  501    0 -0.00000000000E+00  0.00000000000E+00  0.32090798988E+03  0.32090798988E+03  0.00000000000E+00 0.  1.
          2   -1    0    0  502    0  0.00000000000E+00 -0.00000000000E+00 -0.27251952032E+04  0.27251952032E+04  0.00000000000E+00 0. -1.
         25    1    1    2    0    0 -0.15020031145E+03 -0.19454527997E+03 -0.44374834496E+01  0.27577652325E+03  0.12500000000E+03 0.  0.
          2    1    1    2  501    0  0.58667679905E+01  0.38324013176E+02 -0.25238374741E+04  0.25241352469E+04  0.00000000000E+00 0. -1.
          1    1    1    2  502    0  0.14433354346E+03  0.15622126679E+03  0.12398774428E+03  0.24619142288E+03  0.00000000000E+00 0.  1.
<mgrwt>
<rscale>  4 0.25524765E+03</rscale>
<asrwt>0</asrwt>
<pdfrwt beam="1">  1        2 0.41926082E+00 0.25524765E+03</pdfrwt>
<pdfrwt beam="2">  1        1 0.49370458E-01 0.25524765E+03</pdfrwt>
<totfact> 0.33383994E+01</totfact>
</mgrwt>
</event>
<event>
 5    0  0.2917107E+000  0.1991737E+03  0.7546771E-02  0.1150438E+00
          3   -1    0    0  502    0  0.00000000000E+00  0.00000000000E+00  0.90664009448E+03  0.90664009448E+03  0.00000000000E+00 0. -1.
         -3   -1    0    0    0  501 -0.00000000000E+00 -0.00000000000E+00 -0.99889998415E+02  0.99889998415E+02  0.00000000000E+00 0. -1.
         25    1    1    2    0    0  0.82295127189E+02  0.22053418173E+03  0.23444402577E+03  0.35496029987E+03  0.12500000000E+03 0.  0.
          3    1    1    2  502    0 -0.66722446364E+02 -0.12609233385E+03  0.52644793971E+03  0.54543431752E+03  0.00000000000E+00 0. -1.
         -3    1    1    2    0  501 -0.15572680824E+02 -0.94441847877E+02  0.45858130590E+02  0.10613547550E+03  0.00000000000E+00 0. -1.
<mgrwt>
<rscale>  4 0.19917373E+03</rscale>
<asrwt>0</asrwt>
<pdfrwt beam="1">  1        3 0.13948309E+00 0.19917373E+03</pdfrwt>
<pdfrwt beam="2">  1       -3 0.15367693E-01 0.19917373E+03</pdfrwt>
<totfact> 0.35820552E+01</totfact>
</mgrwt>
</event>
<event>
 5    0  0.2917107E+000  0.2639016E+03  0.7546771E-02  0.1104821E+00
          4   -1    0    0  501    0 -0.00000000000E+00  0.00000000000E+00  0.31973518251E+03  0.31973518251E+03  0.00000000000E+00 0. -1.
          2   -1    0    0  502    0  0.00000000000E+00 -0.00000000000E+00 -0.22361217062E+04  0.22361217062E+04  0.00000000000E+00 0. -1.
         25    1    1    2    0    0 -0.32229263413E+03 -0.93821823835E+02 -0.91066047030E+03  0.97857169835E+03  0.12500000000E+03 0.  0.
          2    1    1    2  501    0  0.10210375083E+03  0.36852381445E+02 -0.12435113995E+04  0.12482403113E+04  0.00000000000E+00 0. -1.
          4    1    1    2  502    0  0.22018888331E+03  0.56969442390E+02  0.23778534606E+03  0.32904487916E+03  0.00000000000E+00 0. -1.
<mgrwt>
<rscale>  4 0.26390165E+03</rscale>
<asrwt>0</asrwt>
<pdfrwt beam="1">  1        2 0.34401870E+00 0.26390165E+03</pdfrwt>
<pdfrwt beam="2">  1        4 0.49190031E-01 0.26390165E+03</pdfrwt>
<totfact> 0.12007816E+01</totfact>
</mgrwt>
</event>
<event>
 5    0  0.2917107E+000  0.3316312E+03  0.7546771E-02  0.1070417E+00
          2   -1    0    0  502    0  0.00000000000E+00  0.00000000000E+00  0.25100878270E+03  0.25100878270E+03  0.00000000000E+00 0.  1.
          2   -1    0    0  501    0 -0.00000000000E+00 -0.00000000000E+00 -0.20991510153E+04  0.20991510153E+04  0.00000000000E+00 0.  1.
         25    1    1    2    0    0  0.25209919298E+03 -0.14918799743E+03 -0.14315847938E+04  0.14665848368E+04  0.12500000000E+03 0.  0.
          2    1    1    2  501    0  0.21374095591E+02  0.70612625863E+01 -0.54803840152E+03  0.54850050404E+03  0.00000000000E+00 0.  1.
          2    1    1    2  502    0 -0.27347328857E+03  0.14212673484E+03  0.13148096269E+03  0.33507445720E+03  0.00000000000E+00 0.  1.
<mgrwt>
<rscale>  4 0.33163118E+03</rscale>
<asrwt>0</asrwt>
<pdfrwt beam="1">  1        2 0.38616736E-01 0.33163118E+03</pdfrwt>
<pdfrwt beam="2">  1        2 0.32294631E+00 0.33163118E+03</pdfrwt>
<totfact> 0.13336977E+02</totfact>
</mgrwt>
</event>
<event>
 5    0  0.2917107E+000  0.8995292E+03  0.7546771E-02  0.9426170E-01
          2   -1    0    0  502    0  0.00000000000E+00  0.00000000000E+00  0.10992203198E+04  0.10992203198E+04  0.00000000000E+00 0. -1.
          1   -1    0    0  501    0 -0.00000000000E+00 -0.00000000000E+00 -0.39058110686E+04  0.39058110686E+04  0.00000000000E+00 0.  1.
         25    1    1    2    0    0 -0.43774829951E+03 -0.72483589620E+03 -0.62242874042E+03  0.10583256526E+04  0.12500000000E+03 0.  0.
          2    1    1    2  501    0 -0.10055924010E+02 -0.60859024635E+02  0.81337966531E+03  0.81571528270E+03  0.00000000000E+00 0. -1.
          1    1    1    2  502    0  0.44780422352E+03  0.78569492084E+03 -0.29975416738E+04  0.31309904531E+04  0.00000000000E+00 0.  1.
<mgrwt>
<rscale>  4 0.89952919E+03</rscale>
<asrwt>0</asrwt>
<pdfrwt beam="1">  1        2 0.16911082E+00 0.89952919E+03</pdfrwt>
<pdfrwt beam="2">  1        1 0.60089400E+00 0.89952919E+03</pdfrwt>
<totfact> 0.35992587E-01</totfact>
</mgrwt>
</event>
<event>
 5    0  0.2917107E+000  0.2141780E+03  0.7546771E-02  0.1138300E+00
          2   -1    0    0  502    0  0.00000000000E+00  0.00000000000E+00  0.30985778809E+04  0.30985778809E+04  0.00000000000E+00 0.  1.
          2   -1    0    0  501    0 -0.00000000000E+00 -0.00000000000E+00 -0.64729839996E+03  0.64729839996E+03  0.00000000000E+00 0. -1.
         25    1    1    2    0    0  0.45363687575E+02  0.29613084138E+03  0.13435032543E+04  0.13821640039E+04  0.12500000000E+03 0.  0.
          2    1    1    2  501    0 -0.69947062239E+01 -0.17269085779E+03 -0.61360664600E+03  0.63748268548E+03  0.00000000000E+00 0. -1.
          2    1    1    2  502    0 -0.38368981351E+02 -0.12343998359E+03  0.17213828726E+04  0.17262295915E+04  0.00000000000E+00 0.  1.
<mgrwt>
<rscale>  4 0.21417796E+03</rscale>
<asrwt>0</asrwt>
<pdfrwt beam="1">  1        2 0.47670428E+00 0.21417796E+03</pdfrwt>
<pdfrwt beam="2">  1        2 0.99584371E-01 0.21417796E+03</pdfrwt>
<totfact> 0.13684773E+01</totfact>
</mgrwt>
</event>
<event>
 5    0  0.2917107E+000  0.2425550E+03  0.7546771E-02  0.1118102E+00
          1   -1    0    0  502    0  0.00000000000E+00  0.00000000000E+00  0.33754969415E+03  0.33754969415E+03  0.00000000000E+00 0.  1.
          1   -1    0    0  501    0 -0.00000000000E+00 -0.00000000000E+00 -0.95844871910E+03  0.95844871910E+03  0.00000000000E+00 0.  1.
         25    1    1    2    0    0  0.22492706717E+03  0.14957426340E+03 -0.40704450598E+03  0.50425675570E+03  0.12500000000E+03 0.  0.
          1    1    1    2  501    0 -0.17543599841E+03 -0.64631754606E+02 -0.47619689989E+03  0.51158434369E+03  0.00000000000E+00 0.  1.
          1    1    1    2  502    0 -0.49491068760E+02 -0.84942508795E+02  0.26234238092E+03  0.28015731386E+03  0.00000000000E+00 0.  1.
<mgrwt>
<rscale>  4 0.24255501E+03</rscale>
<asrwt>0</asrwt>
<pdfrwt beam="1">  1        1 0.51930722E-01 0.24255501E+03</pdfrwt>
<pdfrwt beam="2">  1        1 0.14745365E+00 0.24255501E+03</pdfrwt>
<totfact> 0.15712916E+02</totfact>
</mgrwt>
</event>
<event>
 5    0  0.2917107E+000  0.3110679E+03  0.7546771E-02  0.1079835E+00
         -4   -1    0    0    0  501 -0.00000000000E+00  0.00000000000E+00  0.12687583843E+04  0.12687583843E+04  0.00000000000E+00 0.  1.
          2   -1    0    0  501    0  0.00000000000E+00 -0.00000000000E+00 -0.13925397564E+03  0.13925397564E+03  0.00000000000E+00 0.  1.
         25    1    1    2    0    0  0.18712230788E+03 -0.15840984168E+03  0.24027423621E+03  0.36532881715E+03  0.12500000000E+03 0.  0.
          2    1    1    2  502    0 -0.47697030700E+01 -0.82480359811E+02 -0.19633150513E+02  0.84918904968E+02  0.00000000000E+00 0.  1.
         -4    1    1    2    0  502 -0.18235260481E+03  0.24089020149E+03  0.90886332299E+03  0.95776463786E+03  0.00000000000E+00 0.  1.
<mgrwt>
<rscale>  4 0.31106793E+03</rscale>
<asrwt>0</asrwt>
<pdfrwt beam="1">  1        2 0.21423689E-01 0.31106793E+03</pdfrwt>
<pdfrwt beam="2">  1       -4 0.19519359E+00 0.31106793E+03</pdfrwt>
<totfact> 0.20543953E+01</totfact>
</mgrwt>
</event>
<event>
 5    0  0.2917107E+000  0.2708478E+03  0.7546771E-02  0.1100795E+00
          3   -1    0    0  501    0 -0.00000000000E+00  0.00000000000E+00  0.74730231933E+03  0.74730231933E+03  0.00000000000E+00 0. -1.
          2   -1    0    0  502    0  0.00000000000E+00 -0.00000000000E+00 -0.25808919756E+04  0.25808919756E+04  0.00000000000E+00 0. -1.
         25    1    1    2    0    0 -0.29204011176E+01  0.29709657227E+03  0.29098092790E+03  0.43424624627E+03  0.12500000000E+03 0.  0.
          2    1    1    2  501    0  0.11027437405E+02 -0.81028846549E+02 -0.24781491686E+04  0.24794980500E+04  0.00000000000E+00 0. -1.
          3    1    1    2  502    0 -0.81070362871E+01 -0.21606772572E+03  0.35357858434E+03  0.41444999872E+03  0.00000000000E+00 0. -1.
<mgrwt>
<rscale>  4 0.27084777E+03</rscale>
<asrwt>0</asrwt>
<pdfrwt beam="1">  1        2 0.39706030E+00 0.27084777E+03</pdfrwt>
<pdfrwt beam="2">  1        3 0.11496959E+00 0.27084777E+03</pdfrwt>
<totfact> 0.14699502E+00</totfact>
</mgrwt>
</event>
<event>
 5    0  0.2917107E+000  0.2531292E+03  0.7546771E-02  0.1111343E+00
          2   -1    0    0  502    0  0.00000000000E+00  0.00000000000E+00  0.27317552458E+03  0.27317552458E+03  0.00000000000E+00 0. -1.
          2   -1    0    0  501    0 -0.00000000000E+00 -0.00000000000E+00 -0.77827597078E+03  0.77827597078E+03  0.00000000000E+00 0. -1.
         25    1    1    2    0    0 -0.19083635608E+03  0.14133965915E+03 -0.20679200355E+03  0.33879691082E+03  0.12500000000E+03 0.  0.
          2    1    1    2  501    0  0.17855096335E+02 -0.11134668161E+02 -0.44860141461E+03  0.44909466095E+03  0.00000000000E+00 0. -1.
          2    1    1    2  502    0  0.17298125974E+03 -0.13020499099E+03  0.15029297196E+03  0.26355992359E+03  0.00000000000E+00 0. -1.
<mgrwt>
<rscale>  4 0.25312916E+03</rscale>
<asrwt>0</asrwt>
<pdfrwt beam="1">  1        2 0.42027004E-01 0.25312916E+03</pdfrwt>
<pdfrwt beam="2">  1        2 0.11973476E+00 0.25312916E+03</pdfrwt>
<totfact> 0.69084203E+02</totfact>
</mgrwt>
</event>
<event>
 5    0  0.2917107E+000  0.3144962E+03  0.7546771E-02  0.1078211E+00
          2   -1    0    0  502    0  0.00000000000E+00  0.00000000000E+00  0.18380138076E+04  0.18380138076E+04  0.00000000000E+00 0.  1.
         -2   -1    0    0    0  501 -0.00000000000E+00 -0.00000000000E+00 -0.27718569107E+03  0.27718569107E+03  0.00000000000E+00 0.  1.
         25    1    1    2    0    0  0.27143879476E+03 -0.11317600990E+03  0.63343091216E+02  0.32576859229E+03  0.12500000000E+03 0.  0.
          2    1    1    2  502    0 -0.28132927346E+03  0.63652457922E+02  0.16259811953E+04  0.16513669014E+04  0.00000000000E+00 0.  1.
         -2    1    1    2    0  501  0.98904786994E+01  0.49523551980E+02 -0.12849617000E+03  0.13806400499E+03  0.00000000000E+00 0.  1.
<mgrwt>
<rscale>  4 0.31449622E+03</rscale>
<asrwt>0</asrwt>
<pdfrwt beam="1">  1        2 0.28277135E+00 0.31449622E+03</pdfrwt>
<pdfrwt beam="2">  1       -2 0.42643954E-01 0.31449622E+03</pdfrwt>
<totfact> 0.47588969E+01</totfact>
</mgrwt>
</event>
<event>
 5    0  0.2917107E+000  0.2523939E+03  0.7546771E-02  0.1111801E+00
          1   -1    0    0  501    0 -0.00000000000E+00  0.00000000000E+00  0.11890192642E+03  0.11890192642E+03  0.00000000000E+00 0.  1.
          2   -1    0    0  502    0  0.00000000000E+00 -0.00000000000E+00 -0.25747548942E+04  0.25747548942E+04  0.00000000000E+00 0.  1.
         25    1    1    2    0    0 -0.20285952158E+03  0.19464340702E+02 -0.92275997509E+03  0.95322705463E+03  0.12500000000E+03 0.  0.
          2    1    1    2  501    0 -0.18365180746E+02 -0.14592237414E+02 -0.15184888544E+04  0.15186700150E+04  0.00000000000E+00 0.  1.
          1    1    1    2  502    0  0.22122470233E+03 -0.48721032875E+01 -0.14604138216E+02  0.22175975100E+03  0.00000000000E+00 0.  1.
<mgrwt>
<rscale>  4 0.25239389E+03</rscale>
<asrwt>0</asrwt>
<pdfrwt beam="1">  1        2 0.39611613E+00 0.25239389E+03</pdfrwt>
<pdfrwt beam="2">  1        1 0.18292604E-01 0.25239389E+03</pdfrwt>
<totfact> 0.14334487E+02</totfact>
</mgrwt>
</event>
<event>
 5    0  0.2917107E+000  0.2889483E+03  0.7546771E-02  0.1090900E+00
          1   -1    0    0  502    0  0.00000000000E+00  0.00000000000E+00  0.21635342360E+03  0.21635342360E+03  0.00000000000E+00 0.  1.
         -1   -1    0    0    0  501 -0.00000000000E+00 -0.00000000000E+00 -0.16061604819E+04  0.16061604819E+04  0.00000000000E+00 0.  1.
         25    1    1    2    0    0 -0.23790032517E+03  0.66263763766E+02 -0.28006741715E+03  0.39376415436E+03  0.12500000000E+03 0.  0.
          1    1    1    2  502    0 -0.20536937765E+02 -0.12863390757E+02  0.14476999090E+03  0.14678413709E+03  0.00000000000E+00 0.  1.
         -1    1    1    2    0  501  0.25843726294E+03 -0.53400373008E+02 -0.12545096321E+04  0.12819656141E+04  0.00000000000E+00 0.  1.
<mgrwt>
<rscale>  4 0.28894828E+03</rscale>
<asrwt>0</asrwt>
<pdfrwt beam="1">  1        1 0.33285144E-01 0.28894828E+03</pdfrwt>
<pdfrwt beam="2">  1       -1 0.24710160E+00 0.28894828E+03</pdfrwt>
<totfact> 0.11020483E+01</totfact>
</mgrwt>
</event>
<event>
 5    0  0.2917107E+000  0.2734841E+03  0.7546771E-02  0.1099302E+00
         -2   -1    0    0    0  501 -0.00000000000E+00  0.00000000000E+00  0.43665169472E+03  0.43665169472E+03  0.00000000000E+00 0. -1.
          1   -1    0    0  501    0  0.00000000000E+00 -0.00000000000E+00 -0.10194089820E+04  0.10194089820E+04  0.00000000000E+00 0. -1.
         25    1    1    2    0    0 -0.24871187800E+03  0.81872670770E+02 -0.52938360578E+03  0.60368264390E+03  0.12500000000E+03 0.  0.
          1    1    1    2  502    0  0.19779014185E+02 -0.32940255246E+01 -0.41595100582E+03  0.41643402748E+03  0.00000000000E+00 0. -1.
         -2    1    1    2    0  502  0.22893286382E+03 -0.78578645245E+02  0.36257732435E+03  0.43594400530E+03  0.00000000000E+00 0. -1.
<mgrwt>
<rscale>  4 0.27348411E+03</rscale>
<asrwt>0</asrwt>
<pdfrwt beam="1">  1        1 0.15683215E+00 0.27348411E+03</pdfrwt>
<pdfrwt beam="2">  1       -2 0.67177185E-01 0.27348411E+03</pdfrwt>
<totfact> 0.28771076E+01</totfact>
</mgrwt>
</event>
<event>
 5    0  0.2917107E+000  0.2709504E+03  0.7546771E-02  0.1100737E+00
          2   -1    0    0  501    0  0.00000000000E+00  0.00000000000E+00  0.20890453030E+04  0.20890453030E+04  0.00000000000E+00 0. -1.
         -1   -1    0    0    0  501 -0.00000000000E+00 -0.00000000000E+00 -0.71584534749E+03  0.71584534749E+03  0.00000000000E+00 0. -1.
         25    1    1    2    0    0 -0.28347013076E+03  0.10953904693E+03 -0.29634107308E+03  0.44248971675E+03  0.12500000000E+03 0.  0.
          2    1    1    2  502    0  0.21387004689E+03 -0.10712248878E+03  0.20052897789E+04  0.20195055637E+04  0.00000000000E+00 0. -1.
         -1    1    1    2    0  502  0.69600083877E+02 -0.24165581432E+01 -0.33574875032E+03  0.34289537001E+03  0.00000000000E+00 0. -1.
<mgrwt>
<rscale>  4 0.27095042E+03</rscale>
<asrwt>0</asrwt>
<pdfrwt beam="1">  1        2 0.32139158E+00 0.27095042E+03</pdfrwt>
<pdfrwt beam="2">  1       -1 0.11013005E+00 0.27095042E+03</pdfrwt>
<totfact> 0.62619450E+00</totfact>
</mgrwt>
</event>
<event>
 5    0  0.2917107E+000  0.1760942E+03  0.7546771E-02  0.1171638E+00
          3   -1    0    0  501    0 -0.00000000000E+00  0.00000000000E+00  0.19587610355E+03  0.19587610355E+03  0.00000000000E+00 0. -1.
          2   -1    0    0  502    0  0.00000000000E+00 -0.00000000000E+00 -0.21718765372E+04  0.21718765372E+04  0.00000000000E+00 0. -1.
         25    1    1    2    0    0 -0.22322657297E+03 -0.35181391144E+02 -0.19327951276E+03  0.32256751730E+03  0.12500000000E+03 0.  0.
          2    1    1    2  501    0  0.12039258586E+03 -0.13996137042E+02 -0.18868839684E+04  0.18907726931E+04  0.00000000000E+00 0. -1.
          3    1    1    2  502    0  0.10283398711E+03  0.49177528186E+02  0.10416304754E+03  0.15441243038E+03  0.00000000000E+00 0. -1.
<mgrwt>
<rscale>  4 0.17609418E+03</rscale>
<asrwt>0</asrwt>
<pdfrwt beam="1">  1        2 0.33413487E+00 0.17609418E+03</pdfrwt>
<pdfrwt beam="2">  1        3 0.30134784E-01 0.17609418E+03</pdfrwt>
<totfact> 0.41355442E+01</totfact>
</mgrwt>
</event>
<event>
 5    0  0.2917107E+000  0.2813594E+03  0.7546771E-02  0.1094949E+00
          2   -1    0    0  502    0  0.00000000000E+00  0.00000000000E+00  0.22976002459E+04  0.22976002459E+04  0.00000000000E+00 0. -1.
          1   -1    0    0  501    0 -0.00000000000E+00 -0.00000000000E+00 -0.62769742754E+03  0.62769742754E+03  0.00000000000E+00 0. -1.
         25    1    1    2    0    0  0.15335679024E+02 -0.31031077549E+03  0.40687268558E+03  0.52697091258E+03  0.12500000000E+03 0.  0.
          2    1    1    2  501    0 -0.24177657927E+02  0.24295605922E+03  0.18204664984E+04  0.18367663100E+04  0.00000000000E+00 0. -1.
          1    1    1    2  502    0  0.88419789022E+01  0.67354716272E+02 -0.55743636555E+03  0.56156045091E+03  0.00000000000E+00 0. -1.
<mgrwt>
<rscale>  4 0.28135943E+03</rscale>
<asrwt>0</asrwt>
<pdfrwt beam="1">  1        2 0.35347696E+00 0.28135943E+03</pdfrwt>
<pdfrwt beam="2">  1        1 0.96568836E-01 0.28135943E+03</pdfrwt>
<totfact> 0.23333787E+01</totfact>
</mgrwt>
</event>
<event>
 5    0  0.2917107E+000  0.2325284E+03  0.7546771E-02  0.1124873E+00
          2   -1    0    0  502    0  0.00000000000E+00  0.00000000000E+00  0.13335006680E+04  0.13335006680E+04  0.00000000000E+00 0.  1.
          2   -1    0    0  501    0 -0.00000000000E+00 -0.00000000000E+00 -0.15059736337E+04  0.15059736337E+04  0.00000000000E+00 0.  1.
         25    1    1    2    0    0 -0.59278896076E+02  0.21405633224E+03  0.85008913989E+03  0.88747430760E+03  0.12500000000E+03 0.  0.
          2    1    1    2  501    0  0.28876043561E+02 -0.42919872931E+02 -0.14705575045E+04  0.14714670623E+04  0.00000000000E+00 0.  1.
          2    1    1    2  502    0  0.30402852515E+02 -0.17113645931E+03  0.44799539892E+03  0.48053293186E+03  0.00000000000E+00 0.  1.
<mgrwt>
<rscale>  4 0.23252836E+03</rscale>
<asrwt>0</asrwt>
<pdfrwt beam="1">  1        2 0.20515395E+00 0.23252836E+03</pdfrwt>
<pdfrwt beam="2">  1        2 0.23168825E+00 0.23252836E+03</pdfrwt>
<totfact> 0.36554757E+01</totfact>
</mgrwt>
</event>
<event>
 5    0  0.2917107E+000  0.4424676E+03  0.7546771E-02  0.1029992E+00
         -2   -1    0    0    0  501 -0.00000000000E+00  0.00000000000E+00  0.40648040043E+03  0.40648040043E+03  0.00000000000E+00 0.  1.
          1   -1    0    0  501    0  0.00000000000E+00 -0.00000000000E+00 -0.14427720677E+04  0.14427720677E+04  0.00000000000E+00 0.  1.
         25    1    1    2    0    0  0.13113551579E+03  0.42145685651E+03 -0.18146674293E+03  0.49333313713E+03  0.12500000000E+03 0.  0.
          1    1    1    2  502    0 -0.11694276502E+03 -0.40351708965E+03 -0.10648094779E+04  0.11446924810E+04  0.00000000000E+00 0.  1.
         -2    1    1    2    0  502 -0.14192750769E+02 -0.17939766861E+02  0.20998455356E+03  0.21122684996E+03  0.00000000000E+00 0.  1.
<mgrwt>
<rscale>  4 0.44246758E+03</rscale>
<asrwt>0</asrwt>
<pdfrwt beam="1">  1        1 0.22196493E+00 0.44246758E+03</pdfrwt>
<pdfrwt beam="2">  1       -2 0.62535447E-01 0.44246758E+03</pdfrwt>
<totfact> 0.16161134E+01</totfact>
</mgrwt>
</event>
<event>
 5    0  0.2917107E+000  0.2103339E+03  0.7546771E-02  0.1141302E+00
          2   -1    0    0  502    0  0.00000000000E+00  0.00000000000E+00  0.72682274151E+03  0.72682274151E+03  0.00000000000E+00 0.  1.
          2   -1    0    0  501    0 -0.00000000000E+00 -0.00000000000E+00 -0.67056535898E+03  0.67056535898E+03  0.00000000000E+00 0. -1.
         25    1    1    2    0    0 -0.21868482793E+03 -0.17666204851E+03  0.49294848872E+02  0.31158869600E+03  0.12500000000E+03 0.  0.
          2    1    1    2  501    0  0.10658395509E+03  0.60158008553E+02  0.52709532409E+03  0.54111792260E+03  0.00000000000E+00 0.  1.
          2    1    1    2  502    0  0.11210087284E+03  0.11650403996E+03 -0.52013279044E+03  0.54468148188E+03  0.00000000000E+00 0. -1.
<mgrwt>
<rscale>  4 0.21033385E+03</rscale>
<asrwt>0</asrwt>
<pdfrwt beam="1">  1        2 0.11181888E+00 0.21033385E+03</pdfrwt>
<pdfrwt beam="2">  1        2 0.10316390E+00 0.21033385E+03</pdfrwt>
<totfact> 0.27997352E+02</totfact>
</mgrwt>
</event>
<event>
 5    0  0.2917107E+000  0.3091101E+03  0.7546771E-02  0.1080773E+00
          1   -1    0    0  501    0  0.00000000000E+00  0.00000000000E+00  0.73646965903E+03  0.73646965903E+03  0.00000000000E+00 0.  1.
         -2   -1    0    0    0  501 -0.00000000000E+00 -0.00000000000E+00 -0.19685986165E+03  0.19685986165E+03  0.00000000000E+00 0. -1.
         25    1    1    2    0    0  0.74287621388E+01  0.27294348746E+03  0.10992135967E+03  0.31978279998E+03  0.12500000000E+03 0.  0.
          1    1    1    2  502    0  0.12796891157E+02  0.19783628646E+02  0.28574822190E+03  0.28671797764E+03  0.00000000000E+00 0.  1.
         -2    1    1    2    0  502 -0.20225653296E+02 -0.29272711611E+03  0.14394021581E+03  0.32682874305E+03  0.00000000000E+00 0. -1.
<mgrwt>
<rscale>  4 0.30911008E+03</rscale>
<asrwt>0</asrwt>
<pdfrwt beam="1">  1        1 0.11330302E+00 0.30911008E+03</pdfrwt>
<pdfrwt beam="2">  1       -2 0.30286133E-01 0.30911008E+03</pdfrwt>
<totfact> 0.23188296E+02</totfact>
</mgrwt>
</event>
<event>
 5    0  0.2917107E+000  0.2101324E+03  0.7546771E-02  0.1141461E+00
         -3   -1    0    0    0  501 -0.00000000000E+00  0.00000000000E+00  0.73823468431E+02  0.73823468431E+02  0.00000000000E+00 0.  1.
          2   -1    0    0  501    0  0.00000000000E+00 -0.00000000000E+00 -0.16952664208E+04  0.16952664208E+04  0.00000000000E+00 0.  1.
         25    1    1    2    0    0  0.18638529136E+03 -0.10184127618E+03 -0.12657082504E+04  0.12894779942E+04  0.12500000000E+03 0.  0.
          2    1    1    2  502    0 -0.10410807992E+03  0.76932218819E+02 -0.37043245836E+03  0.39239936902E+03  0.00000000000E+00 0.  1.
         -3    1    1    2    0  502 -0.82277211443E+02  0.24909057365E+02  0.14697756347E+02  0.87212526068E+02  0.00000000000E+00 0.  1.
<mgrwt>
<rscale>  4 0.21013242E+03</rscale>
<asrwt>0</asrwt>
<pdfrwt beam="1">  1        2 0.26081021E+00 0.21013242E+03</pdfrwt>
<pdfrwt beam="2">  1       -3 0.11357457E-01 0.21013242E+03</pdfrwt>
<totfact> 0.40724389E+02</totfact>
</mgrwt>
</event>
<event>
 5    0  0.2917107E+000  0.1847532E+03  0.7546771E-02  0.1163281E+00
          2   -1    0    0  502    0  0.00000000000E+00  0.00000000000E+00  0.14291580812E+03  0.14291580812E+03  0.00000000000E+00 0.  1.
          2   -1    0    0  501    0 -0.00000000000E+00 -0.00000000000E+00 -0.10900839064E+04  0.10900839064E+04  0.00000000000E+00 0.  1.
         25    1    1    2    0    0 -0.10544096363E+03  0.21316940419E+03 -0.57387956223E+03  0.63365743398E+03  0.12500000000E+03 0.  0.
          2    1    1    2  501    0  0.51366186789E+02 -0.11880150602E+03  0.67052487901E+02  0.14576803186E+03  0.00000000000E+00 0.  1.
          2    1    1    2  502    0  0.54074776839E+02 -0.94367898161E+02 -0.44034102396E+03  0.45357424869E+03  0.00000000000E+00 0.  1.
<mgrwt>
<rscale>  4 0.18475316E+03</rscale>
<asrwt>0</asrwt>
<pdfrwt beam="1">  1        2 0.21987047E-01 0.18475316E+03</pdfrwt>
<pdfrwt beam="2">  1        2 0.16770522E+00 0.18475316E+03</pdfrwt>
<totfact> 0.90131613E+02</totfact>
</mgrwt>
</event>
<event>
 5    0  0.2917107E+000  0.3508858E+03  0.7546771E-02  0.1062252E+00
          2   -1    0    0  502    0  0.00000000000E+00  0.00000000000E+00  0.24262489094E+04  0.24262489094E+04  0.00000000000E+00 0.  1.
          1   -1    0    0  501    0 -0.00000000000E+00 -0.00000000000E+00 -0.50285276971E+03  0.50285276971E+03  0.00000000000E+00 0.  1.
         25    1    1    2    0    0  0.33045542779E+01  0.36965921956E+03 -0.32625190571E+03  0.50864935335E+03  0.12500000000E+03 0.  0.
          2    1    1    2  501    0  0.50526460136E+02 -0.12803052998E+03  0.21487074402E+04  0.21531113309E+04  0.00000000000E+00 0.  1.
          1    1    1    2  502    0 -0.53831014414E+02 -0.24162868958E+03  0.10094060519E+03  0.26734099483E+03  0.00000000000E+00 0.  1.
<mgrwt>
<rscale>  4 0.35088583E+03</rscale>
<asrwt>0</asrwt>
<pdfrwt beam="1">  1        2 0.37326906E+00 0.35088583E+03</pdfrwt>
<pdfrwt beam="2">  1        1 0.77361966E-01 0.35088583E+03</pdfrwt>
<totfact> 0.26140103E+01</totfact>
</mgrwt>
</event>
<event>
 5    0  0.2917107E+000  0.2228623E+03  0.7546771E-02  0.1131767E+00
          2   -1    0    0  502    0  0.00000000000E+00  0.00000000000E+00  0.10390139757E+04  0.10390139757E+04  0.00000000000E+00 0.  1.
          2   -1    0    0  501    0 -0.00000000000E+00 -0.00000000000E+00 -0.41123090073E+03  0.41123090073E+03  0.00000000000E+00 0. -1.
         25    1    1    2    0    0  0.27196664797E+02 -0.21437348746E+03 -0.71498089365E+02  0.25967793030E+03  0.12500000000E+03 0.  0.
          2    1    1    2  501    0 -0.19784846175E+02  0.18174557801E+03  0.93488825835E+03  0.95259590114E+03  0.00000000000E+00 0.  1.
          2    1    1    2  502    0 -0.74118186216E+01  0.32627909444E+02 -0.23560709399E+03  0.23797104502E+03  0.00000000000E+00 0. -1.
<mgrwt>
<rscale>  4 0.22286233E+03</rscale>
<asrwt>0</asrwt>
<pdfrwt beam="1">  1        2 0.15984830E+00 0.22286233E+03</pdfrwt>
<pdfrwt beam="2">  1        2 0.63266293E-01 0.22286233E+03</pdfrwt>
<totfact> 0.30297731E+02</totfact>
</mgrwt>
</event>
<event>
 5    0  0.2917107E+000  0.2583740E+03  0.7546771E-02  0.1108124E+00
          1   -1    0    0  502    0  0.00000000000E+00  0.00000000000E+00  0.48496061725E+03  0.48496061725E+03  0.00000000000E+00 0.  1.
          1   -1    0    0  501    0 -0.00000000000E+00 -0.00000000000E+00 -0.54096987826E+03  0.54096987826E+03  0.00000000000E+00 0. -1.
         25    1    1    2    0    0  0.22169923933E+03  0.16124183039E+03  0.43420647777E+02  0.30440077734E+03  0.12500000000E+03 0.  0.
          1    1    1    2  501    0 -0.29447564921E+02 -0.57664376869E+02  0.27801956155E+03  0.28545965747E+03  0.00000000000E+00 0.  1.
          1    1    1    2  502    0 -0.19225167441E+03 -0.10357745352E+03 -0.37744947033E+03  0.43607006070E+03  0.00000000000E+00 0. -1.
<mgrwt>
<rscale>  4 0.25837403E+03</rscale>
<asrwt>0</asrwt>
<pdfrwt beam="1">  1        1 0.74609326E-01 0.25837403E+03</pdfrwt>
<pdfrwt beam="2">  1        1 0.83226134E-01 0.25837403E+03</pdfrwt>
<totfact> 0.23005264E+02</totfact>
</mgrwt>
</event>
<event>
 5    0  0.2917107E+000  0.2049389E+03  0.7546771E-02  0.1145638E+00
         -2   -1    0    0    0  501 -0.00000000000E+00  0.00000000000E+00  0.46792079344E+03  0.46792079344E+03  0.00000000000E+00 0. -1.
          1   -1    0    0  501    0  0.00000000000E+00 -0.00000000000E+00 -0.70611510135E+03  0.70611510135E+03  0.00000000000E+00 0.  1.
         25    1    1    2    0    0 -0.16828281525E+03  0.14125839805E+03 -0.44590242702E+03  0.51256903471E+03  0.12500000000E+03 0.  0.
          1    1    1    2  502    0  0.19144646335E+02 -0.80834994316E+02 -0.20355015067E+03  0.21984876081E+03  0.00000000000E+00 0.  1.
         -2    1    1    2    0  502  0.14913816891E+03 -0.60423403731E+02  0.41125826978E+03  0.44161809927E+03  0.00000000000E+00 0. -1.
<mgrwt>
<rscale>  4 0.20493886E+03</rscale>
<asrwt>0</asrwt>
<pdfrwt beam="1">  1        1 0.10863309E+00 0.20493886E+03</pdfrwt>
<pdfrwt beam="2">  1       -2 0.71987815E-01 0.20493886E+03</pdfrwt>
<totfact> 0.45292949E+01</totfact>
</mgrwt>
</event>
<event>
 5    0  0.2917107E+000  0.7288680E+03  0.7546771E-02  0.9669099E-01
          2   -1    0    0  502    0  0.00000000000E+00  0.00000000000E+00  0.14755726734E+04  0.14755726734E+04  0.00000000000E+00 0.  1.
          2   -1    0    0  501    0 -0.00000000000E+00 -0.00000000000E+00 -0.72114774956E+03  0.72114774956E+03  0.00000000000E+00 0.  1.
         25    1    1    2    0    0  0.21568716562E+03 -0.73240732057E+03  0.26115126173E+03  0.81655766369E+03  0.12500000000E+03 0.  0.
          2    1    1    2  501    0 -0.68883698981E+02  0.52476442904E+02  0.65935101901E+03  0.66501316326E+03  0.00000000000E+00 0.  1.
          2    1    1    2  502    0 -0.14680346663E+03  0.67993087767E+03 -0.16607735688E+03  0.71514959602E+03  0.00000000000E+00 0.  1.
<mgrwt>
<rscale>  4 0.72886795E+03</rscale>
<asrwt>0</asrwt>
<pdfrwt beam="1">  1        2 0.22701118E+00 0.72886795E+03</pdfrwt>
<pdfrwt beam="2">  1        2 0.11094581E+00 0.72886795E+03</pdfrwt>
<totfact> 0.80544409E+01</totfact>
</mgrwt>
</event>
<event>
 5    0  0.2917107E+000  0.3230034E+03  0.7546771E-02  0.1074275E+00
          2   -1    0    0  501    0  0.00000000000E+00  0.00000000000E+00  0.31055019443E+03  0.31055019443E+03  0.00000000000E+00 0. -1.
         -4   -1    0    0    0  501 -0.00000000000E+00 -0.00000000000E+00 -0.86104472594E+03  0.86104472594E+03  0.00000000000E+00 0.  1.
         25    1    1    2    0    0  0.34897970887E+03  0.49393657502E+02 -0.14422859223E+03  0.40081598948E+03  0.12500000000E+03 0.  0.
          2    1    1    2  502    0 -0.78875041006E+02  0.38347437601E+02  0.13415515525E+03  0.16027914320E+03  0.00000000000E+00 0. -1.
         -4    1    1    2    0  502 -0.27010466786E+03 -0.87741095103E+02 -0.54042109453E+03  0.61049978770E+03  0.00000000000E+00 0.  1.
<mgrwt>
<rscale>  4 0.32300340E+03</rscale>
<asrwt>0</asrwt>
<pdfrwt beam="1">  1        2 0.47776953E-01 0.32300340E+03</pdfrwt>
<pdfrwt beam="2">  1       -4 0.13246842E+00 0.32300340E+03</pdfrwt>
<totfact> 0.23935947E+01</totfact>
</mgrwt>
</event>
<event>
 5    0  0.2917107E+000  0.2734477E+03  0.7546771E-02  0.1099322E+00
          2   -1    0    0  502    0  0.00000000000E+00  0.00000000000E+00  0.19128934963E+03  0.19128934963E+03  0.00000000000E+00 0. -1.
          2   -1    0    0  501    0 -0.00000000000E+00 -0.00000000000E+00 -0.14758414630E+04  0.14758414630E+04  0.00000000000E+00 0. -1.
         25    1    1    2    0    0 -0.23085498182E+03  0.12141535042E+03 -0.86247261721E+03  0.90968111192E+03  0.12500000000E+03 0.  0.
          2    1    1    2  501    0  0.19921392933E+03 -0.10854382124E+03 -0.56587234305E+03  0.60965519714E+03  0.00000000000E+00 0. -1.
          2    1    1    2  502    0  0.31641052487E+02 -0.12871529173E+02  0.14379284689E+03  0.14779450356E+03  0.00000000000E+00 0. -1.
<mgrwt>
<rscale>  4 0.27344774E+03</rscale>
<asrwt>0</asrwt>
<pdfrwt beam="1">  1        2 0.29429132E-01 0.27344774E+03</pdfrwt>
<pdfrwt beam="2">  1        2 0.22705252E+00 0.27344774E+03</pdfrwt>
<totfact> 0.39066047E+02</totfact>
</mgrwt>
</event>
<event>
 5    0  0.2917107E+000  0.2101646E+03  0.7546771E-02  0.1141436E+00
         -4   -1    0    0    0  501  0.00000000000E+00  0.00000000000E+00  0.16095459304E+03  0.16095459304E+03  0.00000000000E+00 0. -1.
         -1   -1    0    0    0  502 -0.00000000000E+00 -0.00000000000E+00 -0.36274271547E+03  0.36274271547E+03  0.00000000000E+00 0. -1.
         25    1    1    2    0    0 -0.20091609925E+03  0.27389311076E+01 -0.30180697676E+02  0.23855954224E+03  0.12500000000E+03 0.  0.
         -4    1    1    2    0  502  0.41403105398E+02 -0.11734214003E+02  0.90434972041E+01  0.43973784878E+02  0.00000000000E+00 0. -1.
         -1    1    1    2    0  501  0.15951299385E+03  0.89952828951E+01 -0.18065092195E+03  0.24116398140E+03  0.00000000000E+00 0. -1.
<mgrwt>
<rscale>  4 0.21016458E+03</rscale>
<asrwt>0</asrwt>
<pdfrwt beam="1">  1       -4 0.24762245E-01 0.21016458E+03</pdfrwt>
<pdfrwt beam="2">  1       -1 0.55806571E-01 0.21016458E+03</pdfrwt>
<totfact> 0.19970123E+02</totfact>
</mgrwt>
</event>
<event>
 5    0  0.2917107E+000  0.2638227E+03  0.7546771E-02  0.1104868E+00
         -1   -1    0    0    0  501 -0.00000000000E+00  0.00000000000E+00  0.84386986586E+02  0.84386986586E+02  0.00000000000E+00 0. -1.
          1   -1    0    0  502    0  0.00000000000E+00 -0.00000000000E+00 -0.10759187158E+04  0.10759187158E+04  0.00000000000E+00 0. -1.
         25    1    1    2    0    0  0.68307459676E+02  0.19470269743E+03 -0.30247849472E+03  0.38690217007E+03  0.12500000000E+03 0.  0.
          1    1    1    2  502    0 -0.16186251962E+03 -0.19766353551E+03 -0.54019329646E+03  0.59756099778E+03  0.00000000000E+00 0. -1.
         -1    1    1    2    0  501  0.93555059943E+02  0.29608380811E+01 -0.14885993805E+03  0.17584253455E+03  0.00000000000E+00 0. -1.
<mgrwt>
<rscale>  4 0.26382272E+03</rscale>
<asrwt>0</asrwt>
<pdfrwt beam="1">  1        1 0.16552595E+00 0.26382272E+03</pdfrwt>
<pdfrwt beam="2">  1       -1 0.12982614E-01 0.26382272E+03</pdfrwt>
<totfact> 0.57074679E+02</totfact>
</mgrwt>
</event>
<event>
 5    0  0.2917107E+000  0.7291796E+03  0.7546771E-02  0.9668593E-01
          2   -1    0    0  502    0  0.00000000000E+00  0.00000000000E+00  0.28560184044E+04  0.28560184044E+04  0.00000000000E+00 0.  1.
          2   -1    0    0  501    0 -0.00000000000E+00 -0.00000000000E+00 -0.27566960771E+04  0.27566960771E+04  0.00000000000E+00 0. -1.
         25    1    1    2    0    0  0.63273958991E+03  0.19195784990E+03 -0.22781949656E+04  0.23755008959E+04  0.12500000000E+03 0.  0.
          2    1    1    2  501    0 -0.67293535636E+03 -0.25477216761E+03  0.27575757158E+04  0.28499078370E+04  0.00000000000E+00 0.  1.
          2    1    1    2  502    0  0.40195766442E+02  0.62814317705E+02 -0.38005842283E+03  0.38730574862E+03  0.00000000000E+00 0. -1.
<mgrwt>
<rscale>  4 0.72917955E+03</rscale>
<asrwt>0</asrwt>
<pdfrwt beam="1">  1        2 0.43938745E+00 0.72917955E+03</pdfrwt>
<pdfrwt beam="2">  1        2 0.42410709E+00 0.72917955E+03</pdfrwt>
<totfact> 0.89026781E-01</totfact>
</mgrwt>
</event>
<event>
 5    0  0.2917107E+000  0.3220758E+03  0.7546771E-02  0.1074698E+00
          2   -1    0    0  502    0  0.00000000000E+00  0.00000000000E+00  0.31396641091E+03  0.31396641091E+03  0.00000000000E+00 0.  1.
          1   -1    0    0  501    0 -0.00000000000E+00 -0.00000000000E+00 -0.16399880332E+04  0.16399880332E+04  0.00000000000E+00 0. -1.
         25    1    1    2    0    0  0.96131387664E+02  0.27228399916E+03  0.11230898128E+03  0.33409299179E+03  0.12500000000E+03 0.  0.
          2    1    1    2  501    0 -0.72886714914E+02 -0.31012951706E+03 -0.19039859655E+03  0.37113934867E+03  0.00000000000E+00 0.  1.
          1    1    1    2  502    0 -0.23244672749E+02  0.37845517901E+02 -0.12479320070E+04  0.12487221036E+04  0.00000000000E+00 0. -1.
<mgrwt>
<rscale>  4 0.32207579E+03</rscale>
<asrwt>0</asrwt>
<pdfrwt beam="1">  1        2 0.48302525E-01 0.32207579E+03</pdfrwt>
<pdfrwt beam="2">  1        1 0.25230585E+00 0.32207579E+03</pdfrwt>
<totfact> 0.81102439E+01</totfact>
</mgrwt>
</event>
<event>
 5    0  0.2917107E+000  0.2032047E+03  0.7546771E-02  0.1147063E+00
         -3   -1    0    0    0  501 -0.00000000000E+00  0.00000000000E+00  0.25404769483E+02  0.25404769483E+02  0.00000000000E+00 0.  1.
          2   -1    0    0  501    0  0.00000000000E+00 -0.00000000000E+00 -0.26985704746E+04  0.26985704746E+04  0.00000000000E+00 0.  1.
         25    1    1    2    0    0  0.17870019676E+03  0.15115050126E+03 -0.10429869222E+04  0.10762095309E+04  0.12500000000E+03 0.  0.
          2    1    1    2  502    0 -0.12108142616E+03 -0.69088514093E+02 -0.99612545175E+03  0.10058329136E+04  0.00000000000E+00 0.  1.
         -3    1    1    2    0  502 -0.57618770598E+02 -0.82061987169E+02 -0.63405333113E+03  0.64193279958E+03  0.00000000000E+00 0.  1.
<mgrwt>
<rscale>  4 0.20320472E+03</rscale>
<asrwt>0</asrwt>
<pdfrwt beam="1">  1        2 0.41516477E+00 0.20320472E+03</pdfrwt>
<pdfrwt beam="2">  1       -3 0.39084253E-02 0.20320472E+03</pdfrwt>
<totfact> 0.67612067E+02</totfact>
</mgrwt>
</event>
<event>
 5    0  0.2917107E+000  0.2748410E+03  0.7546771E-02  0.1098541E+00
          1   -1    0    0  501    0 -0.00000000000E+00  0.00000000000E+00  0.80738850819E+03  0.80738850819E+03  0.00000000000E+00 0. -1.
          2   -1    0    0  502    0  0.00000000000E+00 -0.00000000000E+00 -0.43258380407E+03  0.43258380407E+03  0.00000000000E+00 0.  1.
         25    1    1    2    0    0 -0.10657325185E+03  0.24271556500E+03  0.27960443202E+03  0.40505844258E+03  0.12500000000E+03 0.  0.
          2    1    1    2  501    0  0.63170819092E+01 -0.29998610060E+02 -0.33939427029E+03  0.34077601564E+03  0.00000000000E+00 0.  1.
          1    1    1    2  502    0  0.10025616994E+03 -0.21271695494E+03  0.43459454238E+03  0.49413785404E+03  0.00000000000E+00 0. -1.
<mgrwt>
<rscale>  4 0.27484099E+03</rscale>
<asrwt>0</asrwt>
<pdfrwt beam="1">  1        2 0.66551354E-01 0.27484099E+03</pdfrwt>
<pdfrwt beam="2">  1        1 0.12421362E+00 0.27484099E+03</pdfrwt>
<totfact> 0.22743646E+02</totfact>
</mgrwt>
</event>
<event>
 5    0  0.2917107E+000  0.2054166E+03  0.7546771E-02  0.1145248E+00
          2   -1    0    0  502    0  0.00000000000E+00  0.00000000000E+00  0.71892835790E+03  0.71892835790E+03  0.00000000000E+00 0.  1.
          4   -1    0    0  501    0 -0.00000000000E+00 -0.00000000000E+00 -0.32430556459E+03  0.32430556459E+03  0.00000000000E+00 0.  1.
         25    1    1    2    0    0 -0.57569011021E+01  0.22169053019E+03 -0.19486227133E+03  0.32058717672E+03  0.12500000000E+03 0.  0.
          2    1    1    2  501    0  0.81408271694E+02 -0.13962022088E+03  0.58926587609E+03  0.61102813806E+03  0.00000000000E+00 0.  1.
          4    1    1    2  502    0 -0.75651370592E+02 -0.82070309317E+02  0.21918854733E+00  0.11161860771E+03  0.00000000000E+00 0.  1.
<mgrwt>
<rscale>  4 0.20541656E+03</rscale>
<asrwt>0</asrwt>
<pdfrwt beam="1">  1        2 0.11060436E+00 0.20541656E+03</pdfrwt>
<pdfrwt beam="2">  1        4 0.49893164E-01 0.20541656E+03</pdfrwt>
<totfact> 0.84018898E+01</totfact>
</mgrwt>
</event>
