<event>
 5    0  0.2468512E+000  0.2300764E+03  0.7546771E-02  0.1126586E+00
         21   -1    0    0  502  501  0.00000000000E+00  0.00000000000E+00  0.23603217873E+03  0.23603217873E+03  0.00000000000E+00 0.  1.
         21   -1    0    0  503  502 -0.00000000000E+00 -0.00000000000E+00 -0.47469191614E+03  0.47469191614E+03  0.00000000000E+00 0. -1.
         25    1    1    2    0    0  0.90590215124E+02 -0.17868172824E+03  0.13369442384E+03  0.27135391291E+03  0.12500000000E+03 0.  0.
         21    1    1    2  503  504  0.12274655315E+02  0.56052781883E+02 -0.38412907174E+02  0.69051668753E+02  0.00000000000E+00 0. -1.
         21    1    1    2  504  501 -0.10286487044E+03  0.12262894636E+03 -0.33394125408E+03  0.37031851321E+03  0.00000000000E+00 0. -1.
<mgrwt>
<rscale>  4 0.23007642E+03</rscale>
<asrwt>0</asrwt>
<pdfrwt beam="1">  1       21 0.36312643E-01 0.23007642E+03</pdfrwt>
<pdfrwt beam="2">  1       21 0.73029524E-01 0.23007642E+03</pdfrwt>
<totfact> 0.12049371E+04</totfact>
</mgrwt>
</event>
<event>
 5    0  0.1856407E+000  0.2490663E+03  0.7546771E-02  0.1113896E+00
         21   -1    0    0  502  501  0.00000000000E+00  0.00000000000E+00  0.97117725351E+03  0.97117725351E+03  0.00000000000E+00 0. -1.
         21   -1    0    0  503  502 -0.00000000000E+00 -0.00000000000E+00 -0.10816651716E+04  0.10816651716E+04  0.00000000000E+00 0. -1.
         25    1    1    2    0    0  0.20339819074E+03 -0.69084477215E+02  0.93200687683E+03  0.96457519533E+03  0.12500000000E+03 0.  0.
         21    1    1    2  503  504 -0.24427839296E+03  0.68994154262E+02 -0.98833554977E+03  0.10204113315E+04  0.00000000000E+00 0. -1.
         21    1    1    2  504  501  0.40880202219E+02  0.90322952359E-01 -0.54159245153E+02  0.67855898249E+02  0.00000000000E+00 0. -1.
<mgrwt>
<rscale>  4 0.24906633E+03</rscale>
<asrwt>0</asrwt>
<pdfrwt beam="1">  1       21 0.14941189E+00 0.24906633E+03</pdfrwt>
<pdfrwt beam="2">  1       21 0.16641003E+00 0.24906633E+03</pdfrwt>
<totfact> 0.63435463E+01</totfact>
</mgrwt>
</event>
<event>
 5    0  0.1856407E+000  0.2768590E+03  0.7546771E-02  0.1097417E+00
         21   -1    0    0  502  501  0.00000000000E+00  0.00000000000E+00  0.79591247958E+02  0.79591247958E+02  0.00000000000E+00 0.  1.
         21   -1    0    0  503  502 -0.00000000000E+00 -0.00000000000E+00 -0.16107404835E+04  0.16107404835E+04  0.00000000000E+00 0.  1.
         25    1    1    2    0    0  0.16095755992E+03  0.18739949599E+03 -0.22278749027E+03  0.35536625194E+03  0.12500000000E+03 0.  0.
         21    1    1    2  503  504 -0.57841389655E+00 -0.45571268314E+02 -0.14255544781E+03  0.14966339151E+03  0.00000000000E+00 0.  1.
         21    1    1    2  504  501 -0.16037914603E+03 -0.14182822768E+03 -0.11658062975E+04  0.11853020880E+04  0.00000000000E+00 0.  1.
<mgrwt>
<rscale>  4 0.27685900E+03</rscale>
<asrwt>0</asrwt>
<pdfrwt beam="1">  1       21 0.12244807E-01 0.27685900E+03</pdfrwt>
<pdfrwt beam="2">  1       21 0.24780624E+00 0.27685900E+03</pdfrwt>
<totfact> 0.35943112E+03</totfact>
</mgrwt>
</event>
<event>
 5    0  0.2437196E+000  0.2506174E+03  0.7546771E-02  0.1112915E+00
         21   -1    0    0  502  501  0.00000000000E+00  0.00000000000E+00  0.28893677636E+03  0.28893677636E+03  0.00000000000E+00 0. -1.
         21   -1    0    0  503  502 -0.00000000000E+00 -0.00000000000E+00 -0.21825783595E+03  0.21825783595E+03  0.00000000000E+00 0. -1.
         25    1    1    2    0    0 -0.21282520415E+03 -0.43468749870E+02  0.94298086837E+02  0.26777085151E+03  0.12500000000E+03 0.  0.
         21    1    1    2  503  504  0.77263778918E+02 -0.23166927222E+02  0.18196157807E+02  0.82689166210E+02  0.00000000000E+00 0.  1.
         21    1    1    2  504  501  0.13556142524E+03  0.66635677092E+02 -0.41815304226E+02  0.15673459459E+03  0.00000000000E+00 0. -1.
<mgrwt>
<rscale>  4 0.25061744E+03</rscale>
<asrwt>0</asrwt>
<pdfrwt beam="1">  1       21 0.44451811E-01 0.25061744E+03</pdfrwt>
<pdfrwt beam="2">  1       21 0.33578129E-01 0.25061744E+03</pdfrwt>
<totfact> 0.40404608E+04</totfact>
</mgrwt>
</event>
<event>
 5    0  0.1856407E+000  0.2542683E+03  0.7546771E-02  0.1110637E+00
         21   -1    0    0  502  501  0.00000000000E+00  0.00000000000E+00  0.47270477775E+03  0.47270477775E+03  0.00000000000E+00 0. -1.
         21   -1    0    0  503  502 -0.00000000000E+00 -0.00000000000E+00 -0.47488644226E+03  0.47488644226E+03  0.00000000000E+00 0.  1.
         25    1    1    2    0    0 -0.13270737237E+03  0.17724588502E+03  0.40613039828E+03  0.47915994286E+03  0.12500000000E+03 0.  0.
         21    1    1    2  503  504  0.34501110872E+02 -0.15932946466E+02 -0.98736381983E+02  0.10579725215E+03  0.00000000000E+00 0.  1.
         21    1    1    2  504  501  0.98206261500E+02 -0.16131293855E+03 -0.30957568080E+03  0.36263402500E+03  0.00000000000E+00 0.  1.
<mgrwt>
<rscale>  4 0.25426826E+03</rscale>
<asrwt>0</asrwt>
<pdfrwt beam="1">  1       21 0.72723812E-01 0.25426826E+03</pdfrwt>
<pdfrwt beam="2">  1       21 0.73059453E-01 0.25426826E+03</pdfrwt>
<totfact> 0.27379857E+03</totfact>
</mgrwt>
</event>
<event>
 5    0  0.2613037E+000  0.2448307E+03  0.7546771E-02  0.1116616E+00
         21   -1    0    0  502  501  0.00000000000E+00  0.00000000000E+00  0.74851640910E+02  0.74851640910E+02  0.00000000000E+00 0.  1.
         21   -1    0    0  503  502 -0.00000000000E+00 -0.00000000000E+00 -0.80473892937E+03  0.80473892937E+03  0.00000000000E+00 0.  1.
         25    1    1    2    0    0  0.16792017888E+02  0.21895082974E+03 -0.33220078768E+03  0.41737728860E+03  0.12500000000E+03 0.  0.
         21    1    1    2  503  504 -0.39810558836E+02 -0.19882541898E+03 -0.32129720230E+03  0.37993199395E+03  0.00000000000E+00 0.  1.
         21    1    1    2  504  501  0.23018540948E+02 -0.20125410765E+02 -0.76389298484E+02  0.82281287719E+02  0.00000000000E+00 0.  1.
<mgrwt>
<rscale>  4 0.24483072E+03</rscale>
<asrwt>0</asrwt>
<pdfrwt beam="1">  1       21 0.11515637E-01 0.24483072E+03</pdfrwt>
<pdfrwt beam="2">  1       21 0.12380599E+00 0.24483072E+03</pdfrwt>
<totfact> 0.29994702E+04</totfact>
</mgrwt>
</event>
<event>
 5    0  0.3915797E+000  0.2805915E+03  0.7546771E-02  0.1095366E+00
         21   -1    0    0  502  501  0.00000000000E+00  0.00000000000E+00  0.13337911154E+04  0.13337911154E+04  0.00000000000E+00 0.  1.
         21   -1    0    0  503  502 -0.00000000000E+00 -0.00000000000E+00 -0.10108617036E+03  0.10108617036E+03  0.00000000000E+00 0.  1.
         25    1    1    2    0    0 -0.12558344213E+03  0.22388101529E+03  0.10756842530E+04  0.11129310500E+04  0.12500000000E+03 0.  0.
         21    1    1    2  503  504  0.44156338445E+02 -0.41401438430E+01  0.10525598816E+02  0.45581917976E+02  0.00000000000E+00 0. -1.
         21    1    1    2  504  501  0.81427103681E+02 -0.21974087145E+03  0.14649509323E+03  0.27636431777E+03  0.00000000000E+00 0.  1.
<mgrwt>
<rscale>  4 0.28059146E+03</rscale>
<asrwt>0</asrwt>
<pdfrwt beam="1">  1       21 0.20519862E+00 0.28059146E+03</pdfrwt>
<pdfrwt beam="2">  1       21 0.15551720E-01 0.28059146E+03</pdfrwt>
<totfact> 0.42579351E+03</totfact>
</mgrwt>
</event>
<event>
 5    0  0.1856407E+000  0.3160372E+03  0.7546771E-02  0.1077488E+00
         21   -1    0    0  502  501  0.00000000000E+00  0.00000000000E+00  0.16512698201E+04  0.16512698201E+04  0.00000000000E+00 0.  1.
         21   -1    0    0  503  502 -0.00000000000E+00 -0.00000000000E+00 -0.24208067240E+03  0.24208067240E+03  0.00000000000E+00 0.  1.
         25    1    1    2    0    0  0.30531119722E+03 -0.30884973304E+02  0.15054411875E+04  0.15414755846E+04  0.12500000000E+03 0.  0.
         21    1    1    2  503  504 -0.28885391311E+03  0.15163579074E+02 -0.12508685788E+03  0.31514003120E+03  0.00000000000E+00 0.  1.
         21    1    1    2  504  501 -0.16457284114E+02  0.15721394230E+02  0.28834818100E+02  0.36734876777E+02  0.00000000000E+00 0. -1.
<mgrwt>
<rscale>  4 0.31603720E+03</rscale>
<asrwt>0</asrwt>
<pdfrwt beam="1">  1       21 0.25404150E+00 0.31603720E+03</pdfrwt>
<pdfrwt beam="2">  1       21 0.37243181E-01 0.31603720E+03</pdfrwt>
<totfact> 0.38473993E+02</totfact>
</mgrwt>
</event>
<event>
 5    0  0.1856407E+000  0.2349998E+03  0.7546771E-02  0.1123169E+00
         21   -1    0    0  502  501  0.00000000000E+00  0.00000000000E+00  0.17015032769E+04  0.17015032769E+04  0.00000000000E+00 0. -1.
         21   -1    0    0  503  502 -0.00000000000E+00 -0.00000000000E+00 -0.34484327772E+03  0.34484327772E+03  0.00000000000E+00 0. -1.
         25    1    1    2    0    0  0.23801446499E+03  0.40416884779E+02  0.15883535295E+04  0.16114516266E+04  0.12500000000E+03 0.  0.
         21    1    1    2  503  504 -0.19288832112E+03 -0.45611065496E+02 -0.29595741571E+03  0.35619807079E+03  0.00000000000E+00 0. -1.
         21    1    1    2  504  501 -0.45126143862E+02  0.51941807170E+01  0.64263885306E+02  0.78696857166E+02  0.00000000000E+00 0.  1.
<mgrwt>
<rscale>  4 0.23499980E+03</rscale>
<asrwt>0</asrwt>
<pdfrwt beam="1">  1       21 0.26176973E+00 0.23499980E+03</pdfrwt>
<pdfrwt beam="2">  1       21 0.53052813E-01 0.23499980E+03</pdfrwt>
<totfact> 0.18034695E+02</totfact>
</mgrwt>
</event>
<event>
 5    0  0.1856407E+000  0.3389176E+03  0.7546771E-02  0.1067258E+00
         21   -1    0    0  502  501  0.00000000000E+00  0.00000000000E+00  0.77464095254E+03  0.77464095254E+03  0.00000000000E+00 0.  1.
         21   -1    0    0  503  502 -0.00000000000E+00 -0.00000000000E+00 -0.31038405291E+03  0.31038405291E+03  0.00000000000E+00 0.  1.
         25    1    1    2    0    0  0.67905846315E+02  0.38706830090E+03  0.44959764436E+03  0.61007877798E+03  0.12500000000E+03 0.  0.
         21    1    1    2  503  504  0.63766388691E+02 -0.11678242123E+03  0.95301460027E+02  0.16366629011E+03  0.00000000000E+00 0.  1.
         21    1    1    2  504  501 -0.13167223501E+03 -0.27028587967E+03 -0.80642204760E+02  0.31127993737E+03  0.00000000000E+00 0.  1.
<mgrwt>
<rscale>  4 0.33891764E+03</rscale>
<asrwt>0</asrwt>
<pdfrwt beam="1">  1       21 0.11917553E+00 0.33891764E+03</pdfrwt>
<pdfrwt beam="2">  1       21 0.47751393E-01 0.33891764E+03</pdfrwt>
<totfact> 0.20354814E+03</totfact>
</mgrwt>
</event>
<event>
 5    0  0.1856407E+000  0.2429475E+03  0.7546771E-02  0.1117845E+00
         21   -1    0    0  502  501  0.00000000000E+00  0.00000000000E+00  0.37618969256E+03  0.37618969256E+03  0.00000000000E+00 0. -1.
         21   -1    0    0  503  502 -0.00000000000E+00 -0.00000000000E+00 -0.15258793174E+04  0.15258793174E+04  0.00000000000E+00 0. -1.
         25    1    1    2    0    0  0.16146253012E+03 -0.13641440325E+03  0.31499451491E+03  0.39940653784E+03  0.12500000000E+03 0.  0.
         21    1    1    2  503  504  0.33722408853E+02  0.13019089395E+03 -0.74031360948E+03  0.75243013637E+03  0.00000000000E+00 0.  1.
         21    1    1    2  504  501 -0.19518493898E+03  0.62235092959E+01 -0.72437053028E+03  0.75023233575E+03  0.00000000000E+00 0. -1.
<mgrwt>
<rscale>  4 0.24294749E+03</rscale>
<asrwt>0</asrwt>
<pdfrwt beam="1">  1       21 0.57875337E-01 0.24294749E+03</pdfrwt>
<pdfrwt beam="2">  1       21 0.23475066E+00 0.24294749E+03</pdfrwt>
<totfact> 0.21521416E+02</totfact>
</mgrwt>
</event>
<event>
 5    0  0.1856407E+000  0.3188565E+03  0.7546771E-02  0.1076177E+00
         21   -1    0    0  502  501  0.00000000000E+00  0.00000000000E+00  0.33284067059E+03  0.33284067059E+03  0.00000000000E+00 0.  1.
         21   -1    0    0  503  502 -0.00000000000E+00 -0.00000000000E+00 -0.85583793196E+03  0.85583793196E+03  0.00000000000E+00 0. -1.
         25    1    1    2    0    0  0.29673047228E+03  0.82724890889E+02  0.19063233159E+03  0.38322065002E+03  0.12500000000E+03 0.  0.
         21    1    1    2  503  504 -0.87734105038E+01 -0.34225765271E+02 -0.10294977855E+01  0.35347356421E+02  0.00000000000E+00 0.  1.
         21    1    1    2  504  501 -0.28795706178E+03 -0.48499125618E+02 -0.71260009517E+03  0.77011059612E+03  0.00000000000E+00 0. -1.
<mgrwt>
<rscale>  4 0.31885646E+03</rscale>
<asrwt>0</asrwt>
<pdfrwt beam="1">  1       21 0.51206258E-01 0.31885646E+03</pdfrwt>
<pdfrwt beam="2">  1       21 0.13166737E+00 0.31885646E+03</pdfrwt>
<totfact> 0.13780354E+03</totfact>
</mgrwt>
</event>
