<LesHouchesEvents version="3.0">
  <!--
  <scalesfunctionalform>
    muR  H_T/2 := sum_i mT(i)/2, i=final state
    muF1 H_T/2 := sum_i mT(i)/2, i=final state
    muF2 H_T/2 := sum_i mT(i)/2, i=final state
    QES  H_T/2 := sum_i mT(i)/2, i=final state
  </scalesfunctionalform>
HERWIG6   
  -->
  <header>
       23
  </header>
  <init>
   2212   2212 0.65000000D+04 0.65000000D+04 -1 -1   244800   244800 -4   1
 0.42302308D-04 0.11900950D-05 0.22111854D-05     66
  </init>
  <event>
  7     66 0.22111854E-05 0.59567104E+02 0.75467711E-02 0.95334356E-01
        1 -1    0    0  503    0 0.00000000E+00 0.00000000E+00 0.28913098E+03 0.28913116E+03 0.32000000E+00 0.0000E+00 0.9000E+01
       -1 -1    0    0    0  501 0.00000000E+00 0.00000000E+00 -.10878407E+04 0.10878407E+04 0.32000000E+00 0.0000E+00 0.9000E+01
       23  2    1    2    0    0 -.17841936E+03 -.41757315E+03 -.75212354E+03 0.88300570E+03 0.88365335E+02 0.0000E+00 0.0000E+00
       25  1    1    2    0    0 0.16247469E+03 0.41976915E+03 -.62508556E+02 0.47131358E+03 0.12500000E+03 0.0000E+00 0.9000E+01
        3  1    3    3  502    0 -.44565686E+02 -.16322438E+03 -.34967833E+03 0.38846297E+03 0.50000000E+00 0.0000E+00 0.9000E+01
       -3  1    3    3    0  502 -.13385368E+03 -.25434878E+03 -.40244521E+03 0.49454272E+03 0.50000000E+00 0.0000E+00 0.9000E+01
       21  1    1    2  503  501 0.15944676E+02 -.21960002E+01 0.15922409E+02 0.22652609E+02 0.75000000E+00 0.0000E+00 0.9000E+01
#aMCatNLO 2  0  0  0  0 0.00000000D+00 0.00000000D+00  -5  6  0 0.00000000D+00 0.00000000D+00 0.00000000D+00 0.00000000D+00 0.00000000D+00
  <mgrwgt>
 0.3320428077D-03    1    2    0
 0.540901142060308D+03 0.000000000000000D+00 0.000000000000000D+00 0.540901142060308D+03
 0.540901142060308D+03 0.000000000000000D+00 0.000000000000000D+00 -.540901142060308D+03
 0.544513894466888D+03 0.170488018299623D+03 0.418665508231808D+03 0.276628648373169D+03
 0.222673194341689D+03 -.412788131356482D+02 -.163673752253931D+03 -.145225045662112D+03
 0.314615195312039D+03 -.129209205163975D+03 -.254991755977877D+03 -.131403602711057D+03
 0.000000000000000D+00 0.000000000000000D+00 -.000000000000000D+00 0.000000000000000D+00
 0.579623359251646D+03 0.000000000000000D+00 0.000000000000000D+00 0.579623359251646D+03
 0.542636117422460D+03 0.000000000000000D+00 0.000000000000000D+00 -.542636117422460D+03
 0.542911204234866D+03 0.162474686403334D+03 0.419769154251624D+03 0.276628648373169D+03
 0.222973997545944D+03 -.445628267762278D+02 -.163221457424470D+03 -.145225045662112D+03
 0.316036808827649D+03 -.133856535657142D+03 -.254351696653250D+03 -.131403602711057D+03
 0.403374660656479D+02 0.159446760300363D+02 -.219600017390453D+01 0.369872418291861D+02
0.931118276266D-04 0.000000000000D+00 0.000000000000D+00 0.494102503824D-05 0.122167420202D-06  6 1 -1 25 3 -3 21 2 0.44481422D-01 0.16735905D+00 0.22083623D+06 0.22083623D+06 0.22083623D+06 0.10945350D+01  1  2  1  1  6  1        1 0.332042807721D-03 0.100000000000D+01
  </mgrwgt>
  </event>
  <event>
  7     66 0.22111854E-05 0.35641085E+02 0.75467711E-02 0.91529737E-01
        1 -1    0    0  501    0 0.00000000E+00 0.00000000E+00 0.77817229E+03 0.77817235E+03 0.32000000E+00 0.0000E+00 0.9000E+01
       -1 -1    0    0    0  503 0.00000000E+00 0.00000000E+00 -.11141898E+04 0.11141898E+04 0.32000000E+00 0.0000E+00 0.9000E+01
       23  2    1    2    0    0 -.60736324E+03 0.91429281E+02 -.55079023E+03 0.83031022E+03 0.93785781E+02 0.0000E+00 0.0000E+00
       25  1    1    2    0    0 0.61675530E+03 -.15417697E+03 0.46911971E+03 0.79990996E+03 0.12500000E+03 0.0000E+00 0.9000E+01
        3  1    3    3  502    0 -.15658231E+03 0.37074262E+02 -.19906567E+03 0.25596857E+03 0.50000000E+00 0.0000E+00 0.9000E+01
       -3  1    3    3    0  502 -.45078092E+03 0.54355019E+02 -.35172456E+03 0.57434164E+03 0.50000000E+00 0.0000E+00 0.9000E+01
       21  1    1    2  501  503 -.93920607E+01 0.62747690E+02 -.25434695E+03 0.26214198E+03 0.75000000E+00 0.0000E+00 0.9000E+01
#aMCatNLO 2  0  0  2  1 0.48505396D+00 0.00000000D+00  -5  6  0 0.00000000D+00 0.00000000D+00 0.00000000D+00 0.00000000D+00 0.00000000D+00
  <mgrwgt>
 0.1074422458D-03    1    2    0
 0.813468232482974D+03 0.000000000000000D+00 0.000000000000000D+00 0.813468232482974D+03
 0.813468232482974D+03 0.000000000000000D+00 0.000000000000000D+00 -.813468232482974D+03
 0.815567032146137D+03 0.612023316468707D+03 -.122562951347627D+03 0.509833665992413D+03
 0.248817205975062D+03 -.158002515542597D+03 0.466179121817067D+02 -.186472457310098D+03
 0.562552226844750D+03 -.454020800926109D+03 0.759450391659199D+02 -.323361208682315D+03
 0.000000000000000D+00 -.000000000000000D+00 0.000000000000000D+00 -.000000000000000D+00
 0.818183921970047D+03 0.000000000000000D+00 0.000000000000000D+00 0.818183921970047D+03
 0.105970123046042D+04 0.000000000000000D+00 0.000000000000000D+00 -.105970123046042D+04
 0.824447087716247D+03 0.616755296076394D+03 -.154176970479566D+03 0.509833665992413D+03
 0.246296252133855D+03 -.156573950532767D+03 0.370737709773314D+02 -.186472457310098D+03
 0.557429791115821D+03 -.450789284803303D+03 0.543555098354013D+02 -.323361208682315D+03
 0.249712021464546D+03 -.939206074032342D+01 0.627476896668333D+02 -.241517308490374D+03
0.142402242628D-03 0.000000000000D+00 0.000000000000D+00 0.377253848821D-05 0.590805126794D-08  6 1 -1 25 3 -3 21 2 0.11971874D+00 0.17141370D+00 0.43977511D+06 0.43977511D+06 0.43977511D+06 0.10724722D+01  1  2  1  2  6  2       -1 0.107442245777D-03 0.100000000000D+01
  </mgrwgt>
  </event>
  <event>
  7     66 0.22111854E-05 0.80464287E+02 0.75467711E-02 0.92583762E-01
        1 -1    0    0  501    0 0.00000000E+00 0.00000000E+00 0.40595420E+03 0.40595433E+03 0.32000000E+00 0.0000E+00 0.9000E+01
       21 -1    0    0  503  501 0.00000000E+00 0.00000000E+00 -.17779560E+04 0.17779561E+04 0.75000000E+00 0.0000E+00 0.9000E+01
       23  2    1    2    0    0 -.58813699E+03 0.44834547E+02 -.40976871E+02 0.59823883E+03 0.91078762E+02 0.0000E+00 0.0000E+00
       25  1    1    2    0    0 0.57967992E+03 -.34122292E+02 -.56582899E+03 0.82035394E+03 0.12500000E+03 0.0000E+00 0.9000E+01
        3  1    3    3  502    0 -.27816994E+03 0.58404521E+02 0.68035323E+01 0.28431698E+03 0.50000000E+00 0.0000E+00 0.9000E+01
        1  1    1    2  503    0 0.84570716E+01 -.10712255E+02 -.76519590E+03 0.76531768E+03 0.32000000E+00 0.0000E+00 0.9000E+01
       -3  1    3    3    0  502 -.30996705E+03 -.13569974E+02 -.47780404E+02 0.31392186E+03 0.50000000E+00 0.0000E+00 0.9000E+01
#aMCatNLO 2  0  0  2  1 0.48505396D+00 0.00000000D+00  -5  6  0 0.00000000D+00 0.00000000D+00 0.00000000D+00 0.00000000D+00 0.00000000D+00
  <mgrwgt>
 0.3295925559D-03    1    2    0
 0.641093952963127D+03 0.000000000000000D+00 0.000000000000000D+00 0.641093952963127D+03
 0.641093952963127D+03 0.000000000000000D+00 0.000000000000000D+00 -.641093952963127D+03
 0.643952215443361D+03 0.583913518679754D+03 -.394848330709493D+02 -.237771752810969D+03
 0.315460784965316D+03 -.276080723911842D+03 0.557615668529074D+02 0.142075995148215D+03
 0.000000000000000D+00 0.000000000000000D+00 -.000000000000000D+00 -.000000000000000D+00
 0.322774905517577D+03 -.307832794767912D+03 -.162767337819581D+02 0.956957576627543D+02
 0.641226393066690D+03 0.000000000000000D+00 0.000000000000000D+00 0.641226393066690D+03
 0.112560694764382D+04 0.000000000000000D+00 0.000000000000000D+00 -.112560694764382D+04
 0.639807428942755D+03 0.579679919347009D+03 -.341222918541843D+02 -.237771752810969D+03
 0.317765502360147D+03 -.278168985837835D+03 0.584066897777253D+02 0.142075995148215D+03
 0.484572797541442D+03 0.845707161026989D+01 -.107122548731612D+02 -.484380554577133D+03
 0.324687611866170D+03 -.309968005119444D+03 -.135721430503799D+02 0.956957576627543D+02
0.145802362339D-03 0.000000000000D+00 0.000000000000D+00 0.602429335746D-04 0.144611135991D-06  6 1 21 25 3 1 -3 2 0.62454509D-01 0.27353169D+00 0.36128084D+06 0.36128084D+06 0.36128084D+06 0.10786296D+01  1  2  1  6  5  2       -1 0.329592555859D-03 0.100000000000D+01
  </mgrwgt>
  </event>
  <event>
  7     66 0.22111854E-05 0.74007830E+02 0.75467711E-02 0.92437208E-01
        1 -1    0    0  501    0 0.00000000E+00 0.00000000E+00 0.19485403E+04 0.19485403E+04 0.32000000E+00 0.0000E+00 0.9000E+01
       -1 -1    0    0    0  503 0.00000000E+00 0.00000000E+00 -.20901727E+03 0.20901752E+03 0.32000000E+00 0.0000E+00 0.9000E+01
       23  2    1    2    0    0 0.27442665E+03 -.53228573E+03 0.99414741E+03 0.11652336E+04 0.10393340E+03 0.0000E+00 0.0000E+00
       25  1    1    2    0    0 -.26188379E+03 0.53241861E+03 0.76051027E+03 0.97265285E+03 0.12500000E+03 0.0000E+00 0.9000E+01
        3  1    3    3  502    0 0.15858911E+03 -.33904348E+03 0.52474024E+03 0.64455687E+03 0.50000000E+00 0.0000E+00 0.9000E+01
       -3  1    3    3    0  502 0.11583754E+03 -.19324225E+03 0.46940717E+03 0.52067672E+03 0.50000000E+00 0.0000E+00 0.9000E+01
       21  1    1    2  501  503 -.12542862E+02 -.13288811E+00 -.15134698E+02 0.19671365E+02 0.75000000E+00 0.0000E+00 0.9000E+01
#aMCatNLO 2  0  0  2  1 0.48505396D+00 0.00000000D+00  -5  6  0 0.00000000D+00 0.00000000D+00 0.00000000D+00 0.00000000D+00 0.00000000D+00
  <mgrwgt>
 0.1598758343D-03    1    2    0
 0.610650777893214D+03 0.000000000000000D+00 0.000000000000000D+00 0.610650777893214D+03
 0.610650777893214D+03 0.000000000000000D+00 0.000000000000000D+00 -.610650777893214D+03
 0.612625252674697D+03 -.268161652538300D+03 0.532352104898819D+03 -.661457839356457D+02
 0.372806901120794D+03 0.154753372924578D+03 -.339087495971356D+03 -.748659920338257D+01
 0.235869401990937D+03 0.113408279613722D+03 -.193264608927464D+03 0.736323831390282D+02
 0.000000000000000D+00 -.000000000000000D+00 -.000000000000000D+00 -.000000000000000D+00
 0.611392220605159D+03 0.000000000000000D+00 0.000000000000000D+00 0.611392220605159D+03
 0.666144445601838D+03 0.000000000000000D+00 0.000000000000000D+00 -.666144445601838D+03
 0.609961447143141D+03 -.261883787996415D+03 0.532418617117341D+03 -.661457839356457D+02
 0.374378997120739D+03 0.158590100297340D+03 -.339046846918206D+03 -.748659920338257D+01
 0.237025525134416D+03 0.115836549359728D+03 -.193238882088839D+03 0.736323831390282D+02
 0.561706968087022D+02 -.125428616606534D+02 -.132888110296652D+00 -.547522249966794D+02
0.392956284803D-04 0.000000000000D+00 0.000000000000D+00 0.326550441179D-06 0.129035004558D-07  6 1 -1 25 3 -3 21 2 0.29977422D+00 0.32156393D-01 0.37119192D+06 0.37119192D+06 0.37119192D+06 0.10777756D+01  1  2  1  2  6  2       -1 0.159875834314D-03 0.100000000000D+01
  </mgrwgt>
  </event>
  <event>
  7     66 0.22111854E-05 0.51509363E+02 0.75467711E-02 0.93844317E-01
        1 -1    0    0  503    0 0.00000000E+00 0.00000000E+00 0.12131068E+04 0.12131068E+04 0.32000000E+00 0.0000E+00 0.9000E+01
       -1 -1    0    0    0  501 0.00000000E+00 0.00000000E+00 -.62839698E+03 0.62839707E+03 0.32000000E+00 0.0000E+00 0.9000E+01
       23  2    1    2    0    0 -.13473234E+03 0.50782748E+03 -.31480374E+03 0.61896191E+03 0.89279913E+02 0.0000E+00 0.0000E+00
       25  1    1    2    0    0 0.14043590E+03 -.49859542E+03 0.27816703E+03 0.60110027E+03 0.12500000E+03 0.0000E+00 0.9000E+01
        3  1    3    3  502    0 -.62679939E+02 0.13960502E+03 -.12960070E+03 0.20053660E+03 0.50000000E+00 0.0000E+00 0.9000E+01
       -3  1    3    3    0  502 -.72052399E+02 0.36822245E+03 -.18520304E+03 0.41842531E+03 0.50000000E+00 0.0000E+00 0.9000E+01
       21  1    1    2  503  501 -.57035668E+01 -.92320608E+01 0.62134652E+03 0.62144172E+03 0.75000000E+00 0.0000E+00 0.9000E+01
#aMCatNLO 2  0  0  1  1 0.49058082D+02 0.00000000D+00  -5  6  0 0.00000000D+00 0.00000000D+00 0.00000000D+00 0.00000000D+00 0.00000000D+00
  <mgrwgt>
 0.2200729648D-02    1    2    0
 0.609731847277104D+03 0.000000000000000D+00 0.000000000000000D+00 0.609731847277104D+03
 0.609731847277104D+03 0.000000000000000D+00 0.000000000000000D+00 -.609731847277104D+03
 0.612870151966820D+03 0.137576847548156D+03 -.503223219894248D+03 0.296350848066627D+03
 0.195970920447323D+03 -.635979720787066D+02 0.138111404014715D+03 -.123633084930900D+03
 0.410622622140066D+03 -.739788754694496D+02 0.365111815879533D+03 -.172717763135727D+03
 0.000000000000000D+00 -.000000000000000D+00 -.000000000000000D+00 0.000000000000000D+00
 0.125009799610214D+04 0.000000000000000D+00 0.000000000000000D+00 0.125009799610214D+04
 0.609801964956180D+03 0.000000000000000D+00 0.000000000000000D+00 -.609801964956180D+03
 0.609728182828741D+03 0.140435904874894D+03 -.498595415550323D+03 0.296350848066627D+03
 0.196726809873108D+03 -.626796448643533D+02 0.139597851534318D+03 -.123633084930900D+03
 0.413056985081625D+03 -.720526932157291D+02 0.368229624857197D+03 -.172717763135727D+03
 0.640387983274852D+03 -.570356679481115D+01 -.923206084119246D+01 0.640296031145965D+03
0.134383174271D-02 0.000000000000D+00 0.000000000000D+00 0.856079805333D-05 0.577953190312D-06  6 1 -1 25 3 -3 21 2 0.18663176D+00 0.96676434D-01 0.28727081D+06 0.28727081D+06 0.28727081D+06 0.10859477D+01  1  2  1  1  6  1        1 0.220072964786D-02 0.100000000000D+01
  </mgrwgt>
  </event>
  <event>
  7     66 0.22111854E-05 0.88495625E+02 0.75467711E-02 0.94558787E-01
        1 -1    0    0  503    0 0.00000000E+00 0.00000000E+00 0.12728594E+04 0.12728595E+04 0.32000000E+00 0.0000E+00 0.9000E+01
       -1 -1    0    0    0  501 0.00000000E+00 0.00000000E+00 -.21278484E+03 0.21278508E+03 0.32000000E+00 0.0000E+00 0.9000E+01
       23  2    1    2    0    0 -.33767298E+03 -.35281408E+03 0.38217647E+03 0.62829561E+03 0.10097380E+03 0.0000E+00 0.0000E+00
       25  1    1    2    0    0 0.33375647E+03 0.33088424E+03 0.57979871E+03 0.75674917E+03 0.12500000E+03 0.0000E+00 0.9000E+01
        3  1    3    3  502    0 -.20600875E+03 -.14730156E+03 0.17134087E+03 0.30577001E+03 0.50000000E+00 0.0000E+00 0.9000E+01
       -3  1    3    3    0  502 -.13166423E+03 -.20551253E+03 0.21083559E+03 0.32252560E+03 0.50000000E+00 0.0000E+00 0.9000E+01
       21  1    1    2  503  501 0.39165029E+01 0.21929846E+02 0.98099397E+02 0.10059976E+03 0.75000000E+00 0.0000E+00 0.9000E+01
#aMCatNLO 2  0  0  1  2 0.36516717D+02 0.00000000D+00  -5  6  0 0.00000000D+00 0.00000000D+00 0.00000000D+00 0.00000000D+00 0.00000000D+00
  <mgrwgt>
 0.3798807779D-03    1    2    0
 0.498110565990415D+03 0.000000000000000D+00 0.000000000000000D+00 0.498110565990415D+03
 0.498110565990415D+03 0.000000000000000D+00 0.000000000000000D+00 -.498110565990415D+03
 0.500835514464986D+03 0.335708058330940D+03 0.341811816100407D+03 0.753391962740480D+02
 0.255608648755920D+03 -.204997956834144D+03 -.141630247931429D+03 -.570306223316521D+02
 0.239776968759924D+03 -.130710101496795D+03 -.200181568168977D+03 -.183085739423959D+02
 0.000000000000000D+00 0.000000000000000D+00 0.000000000000000D+00 0.000000000000000D+00
 0.540412418696737D+03 0.000000000000000D+00 0.000000000000000D+00 0.540412418696737D+03
 0.501176577348188D+03 0.000000000000000D+00 0.000000000000000D+00 -.501176577348188D+03
 0.492116612067878D+03 0.333756476640050D+03 0.330884239090904D+03 0.753391962740480D+02
 0.259596178214948D+03 -.206010557825176D+03 -.147300149099827D+03 -.570306223316521D+02
 0.244757380352108D+03 -.131662421693375D+03 -.205513936439499D+03 -.183085739423959D+02
 0.451188254099903D+02 0.391650287850068D+01 0.219298464484214D+02 0.392358413485494D+02
0.325332351940D-04 0.000000000000D+00 0.000000000000D+00 0.716602709282D-06 0.917802728315D-08  6 1 -1 25 3 -3 21 2 0.19582334D+00 0.32735949D-01 0.25296784D+06 0.25296784D+06 0.25296784D+06 0.10900737D+01  1  2  1  1  6  1        1 0.379880777859D-03 0.100000000000D+01
  </mgrwgt>
  </event>
  <event>
  7     66 0.22111854E-05 0.74557344E+02 0.75467711E-02 0.90580893E-01
        1 -1    0    0  503    0 0.00000000E+00 0.00000000E+00 0.25935641E+04 0.25935641E+04 0.32000000E+00 0.0000E+00 0.9000E+01
       -1 -1    0    0    0  501 0.00000000E+00 0.00000000E+00 -.34208329E+03 0.34208344E+03 0.32000000E+00 0.0000E+00 0.9000E+01
       23  2    1    2    0    0 -.59195913E+03 0.19608837E+03 0.76990998E+03 0.99426901E+03 0.83325987E+02 0.0000E+00 0.0000E+00
       25  1    1    2    0    0 0.67573792E+03 -.24037724E+03 0.35346532E+03 0.80929950E+03 0.12500000E+03 0.0000E+00 0.9000E+01
        3  1    3    3  502    0 -.49355746E+03 0.12935062E+03 0.62639607E+03 0.80790026E+03 0.50000000E+00 0.0000E+00 0.9000E+01
       -3  1    3    3    0  502 -.98401666E+02 0.66737750E+02 0.14351391E+03 0.18636874E+03 0.50000000E+00 0.0000E+00 0.9000E+01
       21  1    1    2  503  501 -.83778790E+02 0.44288869E+02 0.11281055E+04 0.11320790E+04 0.75000000E+00 0.0000E+00 0.9000E+01
#aMCatNLO 2  0  0  1  2 0.36516717D+02 0.00000000D+00  -5  6  0 0.00000000D+00 0.00000000D+00 0.00000000D+00 0.00000000D+00 0.00000000D+00
  <mgrwgt>
 0.1696330779D-03    1    2    0
 0.703901079208987D+03 0.000000000000000D+00 0.000000000000000D+00 0.703901079208987D+03
 0.703901079208987D+03 0.000000000000000D+00 0.000000000000000D+00 -.703901079208987D+03
 0.706984530950454D+03 0.632343268129261D+03 -.217437062269870D+03 -.192523354963206D+03
 0.568635418793406D+03 -.526343271862314D+03 0.146677258704011D+03 0.157463587697928D+03
 0.132182208674114D+03 -.105999996266946D+03 0.707598035658585D+02 0.350597672652776D+02
 0.000000000000000D+00 -.000000000000000D+00 0.000000000000000D+00 0.000000000000000D+00
 0.125027570885021D+04 0.000000000000000D+00 0.000000000000000D+00 0.125027570885021D+04
 0.709615125923067D+03 0.000000000000000D+00 0.000000000000000D+00 -.709615125923067D+03
 0.753055904580086D+03 0.675737920479307D+03 -.240377236948394D+03 -.192523354963206D+03
 0.533984984769190D+03 -.493571693814012D+03 0.129352872306015D+03 0.157463587697928D+03
 0.123947171162597D+03 -.983874362828742D+02 0.667354953544074D+02 0.350597672652776D+02
 0.548902774261403D+03 -.837787903824211D+02 0.442888692879717D+02 0.540660582927141D+03
0.286791605797D-03 0.000000000000D+00 0.000000000000D+00 0.889615396804D-06 0.687066405647D-09  6 1 -1 25 3 -3 21 2 0.39900973D+00 0.52628193D-01 0.52701844D+06 0.52701844D+06 0.52701844D+06 0.10668988D+01  1  2  1  1  6  1        1 0.169633077881D-03 0.100000000000D+01
  </mgrwgt>
  </event>
  <event>
  6     66 -.22111854E-05 0.12949247E+02 0.75467711E-02 0.91708404E-01
        1 -1    0    0  501    0 0.00000000E+00 0.00000000E+00 0.20909784E+04 0.20909785E+04 0.32000000E+00 0.0000E+00 0.9000E+01
       -1 -1    0    0    0  501 0.00000000E+00 0.00000000E+00 -.30985664E+03 0.30985680E+03 0.32000000E+00 0.0000E+00 0.9000E+01
       23  2    1    2    0    0 -.52312803E+03 -.37901649E+03 0.19059935E+03 0.67958482E+03 0.90504018E+02 0.0000E+00 0.0000E+00
       25  1    1    2    0    0 0.52312803E+03 0.37901649E+03 0.15905224E+04 0.17212504E+04 0.12500000E+03 0.0000E+00 0.9000E+01
        3  1    3    3  502    0 -.12430575E+02 -.61496897E+01 -.89518351E+01 0.16514334E+02 0.50000000E+00 0.0000E+00 0.9000E+01
       -3  1    3    3    0  502 -.51069745E+03 -.37286680E+03 0.19955119E+03 0.66307048E+03 0.50000000E+00 0.0000E+00 0.9000E+01
#aMCatNLO 1  0  0  4  5 0.46847543D+01 0.00000000D+00  -5  6  0 0.00000000D+00 0.00000000D+00 0.00000000D+00 0.00000000D+00 0.00000000D+00
  <mgrwgt>
 -.1260016219D-02    7    2    0
 0.804924698333161D+03 0.000000000000000D+00 0.000000000000000D+00 0.804924698333161D+03
 0.804924698333161D+03 -.000000000000000D+00 -.000000000000000D+00 -.804924698333161D+03
 0.807233617029672D+03 0.523128028821700D+03 0.379016488514543D+03 0.467637337429376D+03
 0.345103450888320D+02 -.124153661102296D+02 -.613849594160749D+01 -.316091991368668D+02
 0.768105434547818D+03 -.510712662711470D+03 -.372877992572935D+03 -.436028138292509D+03
 0.000000000000000D+00 0.000000000000000D+00 -.000000000000000D+00 0.000000000000000D+00
 0.804924698333161D+03 0.000000000000000D+00 0.000000000000000D+00 0.804924698333161D+03
 0.804924698333161D+03 -.000000000000000D+00 -.000000000000000D+00 -.804924698333161D+03
 0.806647813358423D+03 0.522879255066279D+03 0.378893487978395D+03 0.467003965919804D+03
 0.213187164974394D+02 -.375907870348049D+01 -.156337742557936D+01 -.209263673728726D+02
 0.768662243190916D+03 -.510949549671814D+03 -.372995115953090D+03 -.436631246331045D+03
 0.132206236195439D+02 -.817062669098395D+01 -.433499459972524D+01 -.944635221588607D+01
0.512030818471D-05 0.000000000000D+00 0.000000000000D+00 0.130265840779D-05 0.000000000000D+00  6 1 -1 25 3 -3 21 0 0.32168900D+00 0.47670266D-01 0.42522266D+06 0.42522266D+06 0.42522266D+06 0.10735184D+01  1  2  2  3  6  4        3 0.715877320381D-05 0.100000000000D+01
0.180453758012D-05 0.000000000000D+00 -.196633316374D-07 0.130265840779D-05 0.000000000000D+00  6 1 -1 25 3 -3 21 2 0.32168900D+00 0.47670266D-01 0.42522266D+06 0.42522266D+06 0.42522266D+06 0.10735184D+01  1  2  3  3  6  4        3 0.290755160053D-05 0.100000000000D+01
-.136467534281D-05 0.000000000000D+00 0.000000000000D+00 0.130265840779D-05 0.000000000000D+00  6 1 -1 25 3 -3 21 2 0.32168900D+00 0.47670266D-01 0.42522266D+06 0.42522266D+06 0.42522266D+06 0.10735184D+01  1  2 15  3  6  4        3 -.219882590472D-05 0.100000000000D+01
0.346588096164D-06 0.000000000000D+00 0.000000000000D+00 0.130265840779D-05 0.000000000000D+00  6 1 -1 25 3 -3 21 2 0.32168900D+00 0.47670266D-01 0.42487215D+06 0.42487215D+06 0.42487215D+06 0.10735441D+01  1  2 12  3  6  4        3 0.558492365047D-06 0.100000000000D+01
-.845516721582D-03 0.000000000000D+00 0.000000000000D+00 0.130265840779D-05 0.000000000000D+00  6 1 -1 25 3 -3 21 2 0.32168900D+00 0.47670266D-01 0.42522266D+06 0.42522266D+06 0.42522266D+06 0.10735184D+01  1  2  4  3  6  4        3 -.136233433108D-02 0.100000000000D+01
-.321617142284D-04 0.000000000000D+00 0.000000000000D+00 0.130265840779D-05 0.000000000000D+00  6 1 -1 25 3 -3 21 2 0.32168900D+00 0.47670266D-01 0.42522266D+06 0.42522266D+06 0.42522266D+06 0.10735184D+01  1  2  5  3  6  4        3 -.518203913906D-04 0.100000000000D+01
0.904347504160D-04 0.000000000000D+00 -.000000000000D+00 0.130265840779D-05 0.000000000000D+00  6 1 -1 25 3 -3 21 2 0.32168900D+00 0.47670266D-01 0.42522266D+06 0.42522266D+06 0.42522266D+06 0.10735184D+01  1  2  6  3  6  4        3 0.145712511733D-03 0.100000000000D+01
  </mgrwgt>
  </event>
  <event>
  7     66 0.22111854E-05 0.62517866E+03 0.75467711E-02 0.84410151E-01
        1 -1    0    0  501    0 0.00000000E+00 0.00000000E+00 0.31506530E+04 0.31506531E+04 0.32000000E+00 0.0000E+00 0.9000E+01
       -1 -1    0    0    0  503 0.00000000E+00 0.00000000E+00 -.94546886E+03 0.94546891E+03 0.32000000E+00 0.0000E+00 0.9000E+01
       23  2    1    2    0    0 -.64839839E+03 0.55230080E+03 0.12437180E+04 0.15105277E+04 0.96967944E+02 0.0000E+00 0.0000E+00
       25  1    1    2    0    0 0.42049611E+03 -.11652455E+04 0.13406746E+04 0.18296577E+04 0.12500000E+03 0.0000E+00 0.9000E+01
        3  1    3    3  502    0 -.48093837E+03 0.40555825E+03 0.98983764E+03 0.11728419E+04 0.50000000E+00 0.0000E+00 0.9000E+01
       -3  1    3    3    0  502 -.16746001E+03 0.14674255E+03 0.25388035E+03 0.33768582E+03 0.50000000E+00 0.0000E+00 0.9000E+01
       21  1    1    2  501  503 0.22790228E+03 0.61294466E+03 -.37920837E+03 0.75593661E+03 0.75000000E+00 0.0000E+00 0.9000E+01
#aMCatNLO 2  0  0  2  2 0.70904861D+02 0.00000000D+00  -5  6  0 0.00000000D+00 0.00000000D+00 0.00000000D+00 0.00000000D+00 0.00000000D+00
  <mgrwgt>
 0.2456971011D-05    1    2    0
 0.100624460013297D+04 0.000000000000000D+00 0.000000000000000D+00 0.100624460013297D+04
 0.100624460013297D+04 0.000000000000000D+00 0.000000000000000D+00 -.100624460013297D+04
 0.100779050112084D+04 0.545167889222788D+03 -.829939902499528D+03 -.118357192214273D+03
 0.744542580967872D+03 -.404384483895361D+03 0.611479739029100D+03 0.130036044294987D+03
 0.260156118177214D+03 -.140783405327428D+03 0.218460163470428D+03 -.116788520807140D+02
 0.000000000000000D+00 0.000000000000000D+00 0.000000000000000D+00 -.000000000000000D+00
 0.112531270838250D+04 0.000000000000000D+00 0.000000000000000D+00 0.112531270838250D+04
 0.264712557478802D+04 0.000000000000000D+00 0.000000000000000D+00 -.264712557478802D+04
 0.125069875734273D+04 0.420496112752391D+03 -.116524545733074D+04 -.118357192214273D+03
 0.642419012573942D+03 -.480946710222133D+03 0.405565132657011D+03 0.130036044294987D+03
 0.222952498533434D+03 -.167451678930131D+03 0.146735667919760D+03 -.116788520807140D+02
 0.165636801472042D+04 0.227902276399872D+03 0.612944656753966D+03 -.152181286640552D+04
0.122243259110D-03 0.000000000000D+00 0.000000000000D+00 0.224756357450D-05 0.447381296592D-10  6 1 -1 25 3 -3 21 2 0.48471582D+00 0.14545674D+00 0.18917188D+07 0.18917188D+07 0.18917188D+07 0.10299171D+01  1  2  1  2  6  2       -1 0.245697101131D-05 0.100000000000D+01
  </mgrwgt>
  </event>
  <event>
  7     66 0.22111854E-05 0.52759116E+02 0.75467711E-02 0.93094090E-01
        1 -1    0    0  501    0 0.00000000E+00 0.00000000E+00 0.13083609E+04 0.13083609E+04 0.32000000E+00 0.0000E+00 0.9000E+01
       21 -1    0    0  503  501 0.00000000E+00 0.00000000E+00 -.28123966E+03 0.28124066E+03 0.75000000E+00 0.0000E+00 0.9000E+01
       23  2    1    2    0    0 0.42795688E+03 0.34336135E+03 0.45499636E+03 0.71896191E+03 0.94023555E+02 0.0000E+00 0.0000E+00
       25  1    1    2    0    0 -.40631123E+03 -.36779507E+03 0.60393460E+03 0.82506001E+03 0.12500000E+03 0.0000E+00 0.9000E+01
        3  1    3    3  502    0 0.16838400E+03 0.95839679E+02 0.20296948E+03 0.28059807E+03 0.50000000E+00 0.0000E+00 0.9000E+01
        1  1    1    2  503    0 -.21645646E+02 0.24433714E+02 -.31809751E+02 0.45579634E+02 0.32000000E+00 0.0000E+00 0.9000E+01
       -3  1    3    3    0  502 0.25957287E+03 0.24752168E+03 0.25202688E+03 0.43836384E+03 0.50000000E+00 0.0000E+00 0.9000E+01
#aMCatNLO 2  0  0  2  2 0.56576496D+02 0.00000000D+00  -5  6  0 0.00000000D+00 0.00000000D+00 0.00000000D+00 0.00000000D+00 0.00000000D+00
  <mgrwgt>
 0.1461272941D-04    1    2    0
 0.561605596358117D+03 0.000000000000000D+00 0.000000000000000D+00 0.561605596358117D+03
 0.561605596358117D+03 0.000000000000000D+00 0.000000000000000D+00 -.561605596358117D+03
 0.564625763741303D+03 -.417189308504581D+03 -.355515840901399D+03 0.523337445449000D+02
 0.193205317549478D+03 0.164648522717391D+03 0.100049108832120D+03 0.144683972254684D+02
 0.000000000000000D+00 -.000000000000000D+00 0.000000000000000D+00 -.000000000000000D+00
 0.365380111425453D+03 0.252540785787190D+03 0.255466732069280D+03 -.668021417703684D+02
 0.564814639564365D+03 0.000000000000000D+00 0.000000000000000D+00 0.564814639564365D+03
 0.651476431559146D+03 0.000000000000000D+00 0.000000000000000D+00 -.651476431559146D+03
 0.564558101550171D+03 -.406311231336227D+03 -.367795068615502D+03 0.523337445449000D+02
 0.194283454719041D+03 0.168381424768307D+03 0.958353903956496D+02 0.144683972254684D+02
 0.926056508149035D+02 -.216456464682906D+02 0.244337135956648D+02 -.866617919947807D+02
 0.364843864039395D+03 0.259575453036211D+03 0.247525964624187D+03 -.668021417703684D+02
0.234251152548D-06 0.000000000000D+00 0.000000000000D+00 0.103820256138D-04 0.139230378873D-08  6 1 21 25 3 1 -3 2 0.20128627D+00 0.43267698D-01 0.32901116D+06 0.32901116D+06 0.32901116D+06 0.10815983D+01  1  2  1  6  5  2       -1 0.146127294113D-04 0.100000000000D+01
  </mgrwgt>
  </event>
  <event>
  7     66 0.22111854E-05 0.43052810E+02 0.75467711E-02 0.93778674E-01
        1 -1    0    0  503    0 0.00000000E+00 0.00000000E+00 0.58630608E+03 0.58630617E+03 0.32000000E+00 0.0000E+00 0.9000E+01
       -1 -1    0    0    0  501 0.00000000E+00 0.00000000E+00 -.79133987E+03 0.79133994E+03 0.32000000E+00 0.0000E+00 0.9000E+01
       23  2    1    2    0    0 0.39302873E+03 -.23487712E+03 -.17144480E+03 0.49722843E+03 0.90575662E+02 0.0000E+00 0.0000E+00
       25  1    1    2    0    0 -.45412447E+03 0.27001536E+03 -.28928749E+03 0.61518256E+03 0.12500000E+03 0.0000E+00 0.9000E+01
        3  1    3    3  502    0 0.27295024E+03 -.20439888E+03 -.10586873E+03 0.35705626E+03 0.50000000E+00 0.0000E+00 0.9000E+01
       -3  1    3    3    0  502 0.12007849E+03 -.30478242E+02 -.65576070E+02 0.14017217E+03 0.50000000E+00 0.0000E+00 0.9000E+01
       21  1    1    2  503  501 0.61095741E+02 -.35138234E+02 0.25569849E+03 0.26523512E+03 0.75000000E+00 0.0000E+00 0.9000E+01
#aMCatNLO 2  0  0  1  2 0.16791244D+02 0.00000000D+00  -5  6  0 0.00000000D+00 0.00000000D+00 0.00000000D+00 0.00000000D+00 0.00000000D+00
  <mgrwgt>
 0.4839965648D-03    1    2    0
 0.505028855466546D+03 0.000000000000000D+00 0.000000000000000D+00 0.505028855466546D+03
 0.505028855466546D+03 0.000000000000000D+00 0.000000000000000D+00 -.505028855466546D+03
 0.508702432465957D+03 -.422318236227596D+03 0.251722513089541D+03 -.378978699966018D+02
 0.368574720804307D+03 0.294483147451414D+03 -.216785806319410D+03 0.461618333856492D+02
 0.132780557662829D+03 0.127835088776182D+03 -.349367067701308D+02 -.826396338904742D+01
 0.000000000000000D+00 0.000000000000000D+00 -.000000000000000D+00 0.000000000000000D+00
 0.910943701715636D+03 0.000000000000000D+00 0.000000000000000D+00 0.910943701715636D+03
 0.509325502743050D+03 0.000000000000000D+00 0.000000000000000D+00 -.509325502743050D+03
 0.544241283585651D+03 -.454124468833710D+03 0.270015356998781D+03 -.378978699966018D+02
 0.344116785530499D+03 0.272954900992156D+03 -.204404181089040D+03 0.461618333856492D+02
 0.124155616942155D+03 0.120073827077355D+03 -.304729417416343D+02 -.826396338904742D+01
 0.407755518400380D+03 0.610957407641981D+02 -.351382341681067D+02 0.401618198972586D+03
0.151951949743D-03 0.000000000000D+00 0.000000000000D+00 0.443212472980D-04 0.657765330927D-07  6 1 -1 25 3 -3 21 2 0.90200886D-01 0.12174453D+00 0.29067553D+06 0.29067553D+06 0.29067553D+06 0.10855679D+01  1  2  1  1  6  1        1 0.483996564801D-03 0.100000000000D+01
  </mgrwgt>
  </event>
  <event>
  7     66 0.22111854E-05 0.15922991E+03 0.75467711E-02 0.92514105E-01
        1 -1    0    0  501    0 0.00000000E+00 0.00000000E+00 0.73988284E+03 0.73988291E+03 0.32000000E+00 0.0000E+00 0.9000E+01
       -1 -1    0    0    0  503 0.00000000E+00 0.00000000E+00 -.95455428E+03 0.95455433E+03 0.32000000E+00 0.0000E+00 0.9000E+01
       23  2    1    2    0    0 -.39291819E+03 0.11014313E+03 0.47066661E+03 0.62990832E+03 0.93494528E+02 0.0000E+00 0.0000E+00
       25  1    1    2    0    0 0.57105907E+03 -.17469981E+03 -.42938574E+03 0.74607345E+03 0.12500000E+03 0.0000E+00 0.9000E+01
        3  1    3    3  502    0 -.11081607E+03 0.51259399E+02 0.86356488E+02 0.14955073E+03 0.50000000E+00 0.0000E+00 0.9000E+01
       -3  1    3    3    0  502 -.28210211E+03 0.58883736E+02 0.38431012E+03 0.48035759E+03 0.50000000E+00 0.0000E+00 0.9000E+01
       21  1    1    2  501  503 -.17814088E+03 0.64556671E+02 -.25595232E+03 0.31845547E+03 0.75000000E+00 0.0000E+00 0.9000E+01
#aMCatNLO 2  0  0  2  2 0.59832635D+03 0.00000000D+00  -5  6  0 0.00000000D+00 0.00000000D+00 0.00000000D+00 0.00000000D+00 0.00000000D+00
  <mgrwgt>
 0.8428904627D-04    1    2    0
 0.681124069077947D+03 0.000000000000000D+00 0.000000000000000D+00 0.681124069077947D+03
 0.681124069077947D+03 0.000000000000000D+00 0.000000000000000D+00 -.681124069077947D+03
 0.683650691530946D+03 0.477164039102925D+03 -.140673082470964D+03 -.451972158087023D+03
 0.165352154402696D+03 -.131137551478396D+03 0.586252785292341D+02 0.818984387838603D+02
 0.513245292222252D+03 -.346026487624529D+03 0.820478039417304D+02 0.370073719303163D+03
 0.000000000000000D+00 -.000000000000000D+00 0.000000000000000D+00 -.000000000000000D+00
 0.718008431831375D+03 0.000000000000000D+00 0.000000000000000D+00 0.718008431831375D+03
 0.983634154451652D+03 0.000000000000000D+00 0.000000000000000D+00 -.983634154451652D+03
 0.759297247704065D+03 0.571059065849543D+03 -.174699805369598D+03 -.451972158087023D+03
 0.147016918944339D+03 -.110811175384546D+03 0.512591805489302D+02 0.818984387838603D+02
 0.469048231594113D+03 -.282107011263750D+03 0.588839539987157D+02 0.370073719303163D+03
 0.326280188040511D+03 -.178140879201246D+03 0.645566708219525D+02 -.265625722620277D+03
0.632567227782D-04 0.000000000000D+00 0.000000000000D+00 0.424317006619D-05 0.839023815276D-09  6 1 -1 25 3 -3 21 2 0.11382807D+00 0.14685443D+00 0.36595415D+06 0.36595415D+06 0.36595415D+06 0.10782238D+01  1  2  1  2  6  2       -1 0.842890462670D-04 0.100000000000D+01
  </mgrwgt>
  </event>
  <event>
  7     66 0.22111854E-05 0.62873358E+02 0.75467711E-02 0.91063985E-01
        1 -1    0    0  501    0 0.00000000E+00 0.00000000E+00 0.41061191E+03 0.41061204E+03 0.32000000E+00 0.0000E+00 0.9000E+01
       -1 -1    0    0    0  503 0.00000000E+00 0.00000000E+00 -.22762389E+04 0.22762389E+04 0.32000000E+00 0.0000E+00 0.9000E+01
       23  2    1    2    0    0 0.52525556E+03 0.28586286E+03 -.42472490E+03 0.73807781E+03 0.82198752E+02 0.0000E+00 0.0000E+00
       25  1    1    2    0    0 -.60426746E+03 -.32205171E+03 -.22752890E+03 0.73229152E+03 0.12500000E+03 0.0000E+00 0.9000E+01
        3  1    3    3  502    0 0.11436084E+03 0.10148210E+03 -.96609692E+02 0.18086100E+03 0.50000000E+00 0.0000E+00 0.9000E+01
       -3  1    3    3    0  502 0.41089472E+03 0.18438076E+03 -.32811521E+03 0.55721681E+03 0.50000000E+00 0.0000E+00 0.9000E+01
       21  1    1    2  501  503 0.79011895E+02 0.36188852E+02 -.12133732E+04 0.12164816E+04 0.75000000E+00 0.0000E+00 0.9000E+01
#aMCatNLO 2  0  0  2  4 0.36780337D+02 0.00000000D+00  -5  6  0 0.00000000D+00 0.00000000D+00 0.00000000D+00 0.00000000D+00 0.00000000D+00
  <mgrwgt>
 0.1459826047D-04    1    2    0
 0.657456922873224D+03 0.000000000000000D+00 0.000000000000000D+00 0.657456922873224D+03
 0.657456922873224D+03 0.000000000000000D+00 0.000000000000000D+00 -.657456922873224D+03
 0.660829145790936D+03 -.563292538179037D+03 -.303284471735796D+03 0.108582713000440D+03
 0.163973437373021D+03 0.123892018010081D+03 0.105849503707177D+03 -.182739870378097D+02
 0.490111262582492D+03 0.439400520168956D+03 0.197434968028619D+03 -.903087259626304D+02
 0.000000000000000D+00 0.000000000000000D+00 0.000000000000000D+00 -.000000000000000D+00
 0.661394577282630D+03 0.000000000000000D+00 0.000000000000000D+00 0.661394577282630D+03
 0.141315111023949D+04 0.000000000000000D+00 0.000000000000000D+00 -.141315111023949D+04
 0.704465519835710D+03 -.604267455643019D+03 -.322051711881140D+03 0.108582713000440D+03
 0.153973452540366D+03 0.114349867220126D+03 0.101479029122680D+03 -.182739870378097D+02
 0.459343609949127D+03 0.410905693361805D+03 0.184383831121269D+03 -.903087259626304D+02
 0.756763105196916D+03 0.790118950610883D+02 0.361888516371911D+02 -.751756532956858D+03
0.272597924596D-03 0.000000000000D+00 0.000000000000D+00 0.948096482787D-06 0.987585539384D-09  6 1 -1 25 3 -3 21 2 0.63171057D-01 0.35019051D+00 0.48039872D+06 0.48039872D+06 0.48039872D+06 0.10697401D+01  1  2  1  2  6  2       -1 0.145982604651D-04 0.100000000000D+01
  </mgrwgt>
  </event>
  <event>
  7     66 0.22111854E-05 0.72105461E+02 0.75467711E-02 0.94280106E-01
        1 -1    0    0  501    0 0.00000000E+00 0.00000000E+00 0.21544784E+03 0.21544808E+03 0.32000000E+00 0.0000E+00 0.9000E+01
       21 -1    0    0  503  501 0.00000000E+00 0.00000000E+00 -.20179694E+04 0.20179696E+04 0.75000000E+00 0.0000E+00 0.9000E+01
       23  2    1    2    0    0 0.49667808E+03 0.75723263E+02 -.90422298E+03 0.10385247E+04 0.92147800E+02 0.0000E+00 0.0000E+00
       25  1    1    2    0    0 -.47838395E+03 -.88215414E+02 -.27772599E+03 0.57392499E+03 0.12500000E+03 0.0000E+00 0.9000E+01
        3  1    3    3  502    0 0.26921530E+03 0.73925899E+02 -.43182316E+03 0.51421144E+03 0.50000000E+00 0.0000E+00 0.9000E+01
        1  1    1    2  503    0 -.18294131E+02 0.12492151E+02 -.62057261E+03 0.62096795E+03 0.32000000E+00 0.0000E+00 0.9000E+01
       -3  1    3    3    0  502 0.22746279E+03 0.17973646E+01 -.47239983E+03 0.52431326E+03 0.50000000E+00 0.0000E+00 0.9000E+01
#aMCatNLO 2  0  0  2  1 0.67973626D+02 0.00000000D+00  -5  6  0 0.00000000D+00 0.00000000D+00 0.00000000D+00 0.00000000D+00 0.00000000D+00
  <mgrwgt>
 0.5434071006D-04    1    2    0
 0.548292780664566D+03 0.000000000000000D+00 0.000000000000000D+00 0.548292780664566D+03
 0.548292780664566D+03 0.000000000000000D+00 0.000000000000000D+00 -.548292780664566D+03
 0.551545505905756D+03 -.487525236014415D+03 -.819732873547090D+02 0.210183180807094D+03
 0.287024120799182D+03 0.264398704187493D+03 0.772178728344859D+02 -.807066989749637D+02
 0.000000000000000D+00 -.000000000000000D+00 0.000000000000000D+00 -.000000000000000D+00
 0.258015934624193D+03 0.223126531826923D+03 0.475541452022313D+01 -.129476481832131D+03
 0.548908156168787D+03 0.000000000000000D+00 0.000000000000000D+00 0.548908156168787D+03
 0.792058567262411D+03 0.000000000000000D+00 0.000000000000000D+00 -.792058567262411D+03
 0.544458571162962D+03 -.478383953513372D+03 -.882154138432838D+02 0.210183180807094D+03
 0.290613939356311D+03 0.269216526312168D+03 0.739280220834293D+02 -.807066989749637D+02
 0.244157431727228D+03 -.182941308407676D+02 0.124921507122854D+02 -.243150411093624D+03
 0.261736781184697D+03 0.227461558041972D+03 0.179524104756918D+01 -.129476481832131D+03
0.173117301868D-04 0.000000000000D+00 0.000000000000D+00 0.392203997288D-04 0.241969686751D-07  6 1 21 25 3 1 -3 2 0.33145844D-01 0.31045680D+00 0.26576947D+06 0.26576947D+06 0.26576947D+06 0.10884662D+01  1  2  1  6  5  2       -1 0.543407100588D-04 0.100000000000D+01
  </mgrwgt>
  </event>
  <event>
  7     66 0.22111854E-05 0.40854015E+02 0.75467711E-02 0.92060994E-01
        1 -1    0    0  501    0 0.00000000E+00 0.00000000E+00 0.10580401E+04 0.10580402E+04 0.32000000E+00 0.0000E+00 0.9000E+01
       -1 -1    0    0    0  503 0.00000000E+00 0.00000000E+00 -.48275223E+03 0.48275234E+03 0.32000000E+00 0.0000E+00 0.9000E+01
       23  2    1    2    0    0 -.56553118E+03 -.21874911E+03 0.62406056E+03 0.87501912E+03 0.92358996E+02 0.0000E+00 0.0000E+00
       25  1    1    2    0    0 0.58015643E+03 0.19490095E+03 -.19043721E+02 0.62494442E+03 0.12500000E+03 0.0000E+00 0.9000E+01
        3  1    3    3  502    0 -.13706066E+03 -.80652787E+02 0.12019479E+03 0.19934275E+03 0.50000000E+00 0.0000E+00 0.9000E+01
       -3  1    3    3    0  502 -.42847053E+03 -.13809632E+03 0.50386578E+03 0.67567637E+03 0.50000000E+00 0.0000E+00 0.9000E+01
       21  1    1    2  501  503 -.14625250E+02 0.23848154E+02 -.29728946E+02 0.40828974E+02 0.75000000E+00 0.0000E+00 0.9000E+01
#aMCatNLO 2  0  0  2  1 0.67973626D+02 0.00000000D+00  -5  6  0 0.00000000D+00 0.00000000D+00 0.00000000D+00 0.00000000D+00 0.00000000D+00
  <mgrwgt>
 0.2908758826D-03    1    2    0
 0.686123645620669D+03 0.000000000000000D+00 0.000000000000000D+00 0.686123645620669D+03
 0.686123645620669D+03 0.000000000000000D+00 0.000000000000000D+00 -.686123645620669D+03
 0.688708753991031D+03 0.572802887395574D+03 0.206891757644941D+03 -.296289386637048D+03
 0.164951241283531D+03 -.138809467265342D+03 -.777855400327072D+02 0.434770463613841D+02
 0.518587295966776D+03 -.433993420130233D+03 -.129106217612234D+03 0.252812340275664D+03
 0.000000000000000D+00 -.000000000000000D+00 0.000000000000000D+00 -.000000000000000D+00
 0.689882621567411D+03 0.000000000000000D+00 0.000000000000000D+00 0.689882621567411D+03
 0.740369085478003D+03 0.000000000000000D+00 0.000000000000000D+00 -.740369085478003D+03
 0.691361172222345D+03 0.580156434626942D+03 0.194900952239467D+03 -.296289386637048D+03
 0.164857928457266D+03 -.137052116234817D+03 -.806511032191709D+02 0.434770463613841D+02
 0.516313325412662D+03 -.428479068679965D+03 -.138098002542301D+03 0.252812340275664D+03
 0.577192809531411D+02 -.146252497121605D+02 0.238481535220050D+02 -.504864639105916D+02
0.816716311194D-04 0.000000000000D+00 0.000000000000D+00 0.154530279145D-04 0.122260890987D-06  6 1 -1 25 3 -3 21 2 0.16277484D+00 0.74269325D-01 0.39805697D+06 0.39805697D+06 0.39805697D+06 0.10755801D+01  1  2  1  2  6  2       -1 0.290875882574D-03 0.100000000000D+01
  </mgrwgt>
  </event>
  <event>
  7     66 0.22111854E-05 0.52647477E+02 0.75467711E-02 0.86079731E-01
       21 -1    0    0  501  503 0.00000000E+00 0.00000000E+00 0.12471187E+04 0.12471189E+04 0.75000000E+00 0.0000E+00 0.9000E+01
       -3 -1    0    0    0  501 0.00000000E+00 0.00000000E+00 -.13866688E+04 0.13866689E+04 0.50000000E+00 0.0000E+00 0.9000E+01
       23  2    1    2    0    0 -.49308576E+03 -.10073608E+04 -.50986059E+03 0.12353465E+04 0.90630912E+02 0.0000E+00 0.0000E+00
       25  1    1    2    0    0 0.40632413E+03 0.99478123E+03 0.68301195E+02 0.10839645E+04 0.12500000E+03 0.0000E+00 0.9000E+01
        1  1    3    3  502    0 -.15636702E+03 -.38989030E+03 -.15677939E+03 0.44838039E+03 0.32000000E+00 0.0000E+00 0.9000E+01
       -1  1    3    3    0  502 -.33671874E+03 -.61747048E+03 -.35308120E+03 0.78696616E+03 0.32000000E+00 0.0000E+00 0.9000E+01
       -3  1    1    2    0  503 0.86761633E+02 0.12579552E+02 0.30200927E+03 0.31447683E+03 0.50000000E+00 0.0000E+00 0.9000E+01
#aMCatNLO 2  0  0  1  5 0.20736370D+02 0.00000000D+00  -5  6  0 0.00000000D+00 0.00000000D+00 0.00000000D+00 0.00000000D+00 0.00000000D+00
  <mgrwgt>
 0.5716343044D-06    1    2    0
 0.113760089982298D+04 0.000000000000000D+00 0.000000000000000D+00 0.113760089982298D+04
 0.113760089982298D+04 0.000000000000000D+00 0.000000000000000D+00 -.113760089982298D+04
 0.113922955487731D+04 0.449334977491746D+03 0.100101736438567D+04 0.279787942747387D+03
 0.418523925495754D+03 -.140262166337865D+03 -.387552746324072D+03 -.727438638185637D+02
 0.717448319272902D+03 -.309072811153880D+03 -.613464618061600D+03 -.207044078928823D+03
 0.000000000000000D+00 0.000000000000000D+00 0.000000000000000D+00 0.000000000000000D+00
 0.151220868160422D+04 0.000000000000000D+00 0.000000000000000D+00 0.151220868160422D+04
 0.114358594209155D+04 0.000000000000000D+00 0.000000000000000D+00 -.114358594209155D+04
 0.111740560392979D+04 0.406324126250226D+03 0.994781229825872D+03 0.279787942747387D+03
 0.426325983767208D+03 -.156364775404689D+03 -.389887460332421D+03 -.727438638185637D+02
 0.733158628205325D+03 -.336720984313108D+03 -.617473321055769D+03 -.207044078928823D+03
 0.378904407793442D+03 0.867616334675713D+02 0.125795515623175D+02 0.368622739512674D+03
0.151311011168D-04 0.000000000000D+00 0.000000000000D+00 0.490654694840D-04 0.143604991187D-08  6 21 -3 25 1 -1 -3 2 0.19186441D+00 0.21333366D+00 0.13143132D+07 0.13143132D+07 0.13143132D+07 0.10400528D+01  1  2  1  5  6  1        3 0.571634304392D-06 0.100000000000D+01
  </mgrwgt>
  </event>
  <event>
  7     66 0.22111854E-05 0.22474061E+02 0.75467711E-02 0.95431467E-01
        1 -1    0    0  501    0 0.00000000E+00 0.00000000E+00 0.25611640E+04 0.25611640E+04 0.32000000E+00 0.0000E+00 0.9000E+01
       -1 -1    0    0    0  501 0.00000000E+00 0.00000000E+00 -.19614568E+03 0.19614594E+03 0.32000000E+00 0.0000E+00 0.9000E+01
       23  2    1    2    0    0 -.25350038E+03 0.37583238E+03 0.22165982E+04 0.22641913E+04 0.87990216E+02 0.0000E+00 0.0000E+00
       25  1    1    2    0    0 0.25350038E+03 -.37583238E+03 0.14842004E+03 0.49311857E+03 0.12500000E+03 0.0000E+00 0.9000E+01
        3  1    3    3  503    0 0.44811541E+01 0.28822101E+02 0.13912777E+03 0.14215337E+03 0.50000000E+00 0.0000E+00 0.9000E+01
       -3  1    3    3    0  502 -.25534766E+03 0.34159075E+03 0.20435661E+04 0.20875941E+04 0.50000000E+00 0.0000E+00 0.9000E+01
       21  1    3    3  502  503 -.26338705E+01 0.54195246E+01 0.33904401E+02 0.34443859E+02 0.75000000E+00 0.0000E+00 0.9000E+01
#aMCatNLO 2  0  0  4  5 0.64182565D+01 0.00000000D+00  -5  6  0 0.00000000D+00 0.00000000D+00 0.00000000D+00 0.00000000D+00 0.00000000D+00
  <mgrwgt>
 0.2883855233D-01    1    2    0
 0.708774736987957D+03 0.000000000000000D+00 0.000000000000000D+00 0.708774736987957D+03
 0.708774736987957D+03 -.000000000000000D+00 -.000000000000000D+00 -.708774736987957D+03
 0.711842113723723D+03 0.253489537934378D+03 -.376033313000892D+03 -.534262291896075D+03
 0.546500948257755D+02 0.192571050120594D+01 0.345506063494797D+02 0.422987009778680D+02
 0.651057265426416D+03 -.255415248435584D+03 0.341482706651412D+03 0.491963590918207D+03
 0.000000000000000D+00 0.000000000000000D+00 0.000000000000000D+00 0.000000000000000D+00
 0.708774736987957D+03 0.000000000000000D+00 0.000000000000000D+00 0.708774736987957D+03
 0.708774736987957D+03 -.000000000000000D+00 -.000000000000000D+00 -.708774736987957D+03
 0.711552591318632D+03 0.253500844672464D+03 -.375830450391760D+03 -.534013936635491D+03
 0.442209379315284D+02 0.458216810689484D+01 0.287311801384209D+02 0.333018674376956D+02
 0.651322286799005D+03 -.255404902981556D+03 0.341668322147317D+03 0.492190831339944D+03
 0.104536579267488D+02 -.267810979780357D+01 0.543094810602233D+01 0.852123785785133D+01
0.155756792466D-01 0.000000000000D+00 0.000000000000D+00 0.187340781207D-06 0.407222808529D-05  6 1 -1 25 3 -3 21 2 0.39402525D+00 0.30176280D-01 0.21714621D+06 0.21714621D+06 0.21714621D+06 0.10950923D+01  1  2  1  3  6  4        3 0.288385523342D-01 0.100000000000D+01
  </mgrwgt>
  </event>
  <event>
  7     66 0.22111854E-05 0.63875214E+02 0.75467711E-02 0.93200242E-01
        1 -1    0    0  503    0 0.00000000E+00 0.00000000E+00 0.72805902E+03 0.72805909E+03 0.32000000E+00 0.0000E+00 0.9000E+01
       -1 -1    0    0    0  501 0.00000000E+00 0.00000000E+00 -.47020764E+03 0.47020775E+03 0.32000000E+00 0.0000E+00 0.9000E+01
       23  2    1    2    0    0 0.30137124E+03 0.44905826E+03 0.26054348E+02 0.54883757E+03 0.89810357E+02 0.0000E+00 0.0000E+00
       25  1    1    2    0    0 -.32081773E+03 -.45211084E+03 0.18335759E+03 0.59713753E+03 0.12500000E+03 0.0000E+00 0.9000E+01
        3  1    3    3  502    0 0.15623542E+03 0.15408762E+03 0.13590745E+02 0.21985782E+03 0.50000000E+00 0.0000E+00 0.9000E+01
       -3  1    3    3    0  502 0.14513582E+03 0.29497064E+03 0.12463604E+02 0.32897975E+03 0.50000000E+00 0.0000E+00 0.9000E+01
       21  1    1    2  503  501 0.19446488E+02 0.30525781E+01 0.48439437E+02 0.52291736E+02 0.75000000E+00 0.0000E+00 0.9000E+01
#aMCatNLO 2  0  0  1  5 0.20736370D+02 0.00000000D+00  -5  6  0 0.00000000D+00 0.00000000D+00 0.00000000D+00 0.00000000D+00 0.00000000D+00
  <mgrwgt>
 0.1947394693D-03    1    2    0
 0.563253512945842D+03 0.000000000000000D+00 0.000000000000000D+00 0.563253512945842D+03
 0.563253512945842D+03 0.000000000000000D+00 0.000000000000000D+00 -.563253512945842D+03
 0.566608618474536D+03 -.310979695802063D+03 -.450566530711182D+03 0.755099776941310D+02
 0.224242034653165D+03 0.160079308120103D+03 0.154686590338690D+03 -.270400441303389D+02
 0.335656372763982D+03 0.150900387681960D+03 0.295879940372492D+03 -.484699335637921D+02
 0.000000000000000D+00 0.000000000000000D+00 0.000000000000000D+00 0.000000000000000D+00
 0.605203002261674D+03 0.000000000000000D+00 0.000000000000000D+00 0.605203002261674D+03
 0.565653472059764D+03 0.000000000000000D+00 0.000000000000000D+00 -.565653472059764D+03
 0.573284380637855D+03 -.320817727330254D+03 -.452110838382151D+03 0.755099776941310D+02
 0.221093709928168D+03 0.156235765700566D+03 0.154083257037188D+03 -.270400441303389D+02
 0.332300906974476D+03 0.145135473972806D+03 0.294975003196999D+03 -.484699335637921D+02
 0.441774767809397D+02 0.194464876568819D+02 0.305257814796409D+01 0.395495302019099D+02
0.272075218437D-04 0.000000000000D+00 0.000000000000D+00 0.258940463430D-04 0.418633929528D-06  6 1 -1 25 3 -3 21 2 0.11200847D+00 0.72339245D-01 0.32271220D+06 0.32271220D+06 0.32271220D+06 0.10822148D+01  1  2  1  1  6  1        1 0.194739469301D-03 0.100000000000D+01
  </mgrwgt>
  </event>
  <event>
  7     66 0.22111854E-05 0.70342382E+02 0.75467711E-02 0.94491212E-01
        1 -1    0    0  501    0 0.00000000E+00 0.00000000E+00 0.11989515E+04 0.11989515E+04 0.32000000E+00 0.0000E+00 0.9000E+01
       21 -1    0    0  503  501 0.00000000E+00 0.00000000E+00 -.24167979E+03 0.24168095E+03 0.75000000E+00 0.0000E+00 0.9000E+01
       23  2    1    2    0    0 0.35121154E+03 0.33679033E+03 0.25038539E+03 0.55461645E+03 0.90162602E+02 0.0000E+00 0.0000E+00
       25  1    1    2    0    0 -.33997008E+03 -.34737965E+03 0.71076051E+03 0.87009067E+03 0.12500000E+03 0.0000E+00 0.9000E+01
        3  1    3    3  502    0 0.17904999E+03 0.11092075E+03 0.11543399E+03 0.24018236E+03 0.50000000E+00 0.0000E+00 0.9000E+01
        1  1    1    2  503    0 -.11241467E+02 0.10589319E+02 -.38742299E+01 0.15925335E+02 0.32000000E+00 0.0000E+00 0.9000E+01
       -3  1    3    3    0  502 0.17216155E+03 0.22586958E+03 0.13495141E+03 0.31443410E+03 0.50000000E+00 0.0000E+00 0.9000E+01
#aMCatNLO 2  0  0  2  1 0.90826791D+01 0.00000000D+00  -5  6  0 0.00000000D+00 0.00000000D+00 0.00000000D+00 0.00000000D+00 0.00000000D+00
  <mgrwgt>
 0.6819310139D-04    1    2    0
 0.525773343640643D+03 0.000000000000000D+00 0.000000000000000D+00 0.525773343640643D+03
 0.525773343640643D+03 0.000000000000000D+00 0.000000000000000D+00 -.525773343640643D+03
 0.529337477025406D+03 -.345627572552745D+03 -.342050355201446D+03 0.167679158458897D+03
 0.219105523650755D+03 0.176703864203310D+03 0.113127428465067D+03 -.631281220912774D+02
 0.000000000000000D+00 -.000000000000000D+00 0.000000000000000D+00 -.000000000000000D+00
 0.303103686605126D+03 0.168923708349435D+03 0.228922926736379D+03 -.104551036367620D+03
 0.528485031715666D+03 0.000000000000000D+00 0.000000000000000D+00 0.528485031715666D+03
 0.548288173362329D+03 0.000000000000000D+00 0.000000000000000D+00 -.548288173362329D+03
 0.529144186897758D+03 -.339970075298714D+03 -.347379645701345D+03 0.167679158458897D+03
 0.219878969906446D+03 0.179050200140445D+03 0.110917209836955D+03 -.631281220912774D+02
 0.251131175096655D+02 -.112414668661046D+02 0.105893188956958D+02 -.198031416466630D+02
 0.302636930764125D+03 0.172161342024373D+03 0.225873116968694D+03 -.104551036367620D+03
0.648098946748D-06 0.000000000000D+00 0.000000000000D+00 0.330551314921D-04 0.648223867455D-08  6 1 21 25 3 1 -3 2 0.18445381D+00 0.37181528D-01 0.25600723D+06 0.25600723D+06 0.25600723D+06 0.10896842D+01  1  2  1  6  5  2       -1 0.681931013935D-04 0.100000000000D+01
  </mgrwgt>
  </event>
  <event>
  7     66 0.22111854E-05 0.40934061E+02 0.75467711E-02 0.92956120E-01
        1 -1    0    0  503    0 0.00000000E+00 0.00000000E+00 0.19176154E+04 0.19176154E+04 0.32000000E+00 0.0000E+00 0.9000E+01
       -1 -1    0    0    0  501 0.00000000E+00 0.00000000E+00 -.23224605E+03 0.23224627E+03 0.32000000E+00 0.0000E+00 0.9000E+01
       23  2    1    2    0    0 0.12378490E+02 -.56236999E+03 0.10586082E+04 0.12024746E+04 0.94237647E+02 0.0000E+00 0.0000E+00
       25  1    1    2    0    0 -.59868474E+00 0.56701355E+03 0.36608438E+03 0.68640184E+03 0.12500000E+03 0.0000E+00 0.9000E+01
        3  1    3    3  502    0 0.34946214E+02 -.10807355E+03 0.25297932E+03 0.27730834E+03 0.50000000E+00 0.0000E+00 0.9000E+01
       -3  1    3    3    0  502 -.22567724E+02 -.45429644E+03 0.80562884E+03 0.92516627E+03 0.50000000E+00 0.0000E+00 0.9000E+01
       21  1    1    2  503  501 -.11779806E+02 -.46435524E+01 0.26067683E+03 0.26098525E+03 0.75000000E+00 0.0000E+00 0.9000E+01
#aMCatNLO 2  0  0  1  2 0.11043041D+02 0.00000000D+00  -5  6  0 0.00000000D+00 0.00000000D+00 0.00000000D+00 0.00000000D+00 0.00000000D+00
  <mgrwgt>
 0.6610393988D-03    1    2    0
 0.620069580487654D+03 0.000000000000000D+00 0.000000000000000D+00 0.620069580487654D+03
 0.620069580487654D+03 0.000000000000000D+00 0.000000000000000D+00 -.620069580487654D+03
 0.622788737542743D+03 -.652416362759455D+01 0.564677746404186D+03 -.230948673117930D+03
 0.131808825398051D+03 0.336962202400344D+02 -.108557182973117D+03 0.667343181525830D+02
 0.485541598034515D+03 -.271720566124398D+02 -.456120563431069D+03 0.164214354965347D+03
 0.000000000000000D+00 -.000000000000000D+00 -.000000000000000D+00 0.000000000000000D+00
 0.717724176725857D+03 0.000000000000000D+00 0.000000000000000D+00 0.717724176725857D+03
 0.620512478309640D+03 0.000000000000000D+00 0.000000000000000D+00 -.620512478309640D+03
 0.624873595213120D+03 -.598684743049796D+00 0.567013546536779D+03 -.230948673117930D+03
 0.131729289101738D+03 0.349478325487045D+02 -.108063802395191D+03 0.667343181525830D+02
 0.483600915463787D+03 -.225693421206395D+02 -.454306191744036D+03 0.164214354965347D+03
 0.980328552568524D+02 -.117798056850152D+02 -.464355239755160D+01 0.972116984162166D+02
0.183797661604D-03 0.000000000000D+00 0.000000000000D+00 0.534160197579D-05 0.209626594391D-06  6 1 -1 25 3 -3 21 2 0.29501709D+00 0.35730098D-01 0.33740505D+06 0.33740505D+06 0.33740505D+06 0.10807965D+01  1  2  1  1  6  1        1 0.661039398799D-03 0.100000000000D+01
  </mgrwgt>
  </event>
  <event>
  7     66 0.22111854E-05 0.60669501E+02 0.75467711E-02 0.95321825E-01
        1 -1    0    0  503    0 0.00000000E+00 0.00000000E+00 0.10310951E+04 0.10310951E+04 0.32000000E+00 0.0000E+00 0.9000E+01
       -1 -1    0    0    0  501 0.00000000E+00 0.00000000E+00 -.39026835E+03 0.39026848E+03 0.32000000E+00 0.0000E+00 0.9000E+01
       23  2    1    2    0    0 0.35542950E+03 -.22930407E+03 -.14866875E+03 0.45810083E+03 0.94039823E+02 0.0000E+00 0.0000E+00
       25  1    1    2    0    0 -.36596999E+03 0.27262437E+03 0.57728839E+03 0.74642144E+03 0.12500000E+03 0.0000E+00 0.9000E+01
        3  1    3    3  502    0 0.15377337E+03 -.10613997E+03 -.17053770E+02 0.18762469E+03 0.50000000E+00 0.0000E+00 0.9000E+01
       -3  1    3    3    0  502 0.20165613E+03 -.12316410E+03 -.13161498E+03 0.27047614E+03 0.50000000E+00 0.0000E+00 0.9000E+01
       21  1    1    2  503  501 0.10540493E+02 -.43320297E+02 0.21220708E+03 0.21684132E+03 0.75000000E+00 0.0000E+00 0.9000E+01
#aMCatNLO 2  0  0  1  2 0.11043041D+02 0.00000000D+00  -5  6  0 0.00000000D+00 0.00000000D+00 0.00000000D+00 0.00000000D+00 0.00000000D+00
  <mgrwgt>
 0.8298077686D-03    1    2    0
 0.562399183077648D+03 0.000000000000000D+00 0.000000000000000D+00 0.562399183077648D+03
 0.562399183077648D+03 0.000000000000000D+00 0.000000000000000D+00 -.562399183077648D+03
 0.565413728816281D+03 -.360610466165162D+03 0.250597283458527D+03 0.333509786886805D+03
 0.212946892412669D+03 0.155740102204272D+03 -.114228114745445D+03 -.896846550716288D+02
 0.346437744926347D+03 0.204870363960891D+03 -.136369168713081D+03 -.243825131815176D+03
 0.000000000000000D+00 0.000000000000000D+00 -.000000000000000D+00 0.000000000000000D+00
 0.710705519028895D+03 0.000000000000000D+00 0.000000000000000D+00 0.710705519028895D+03
 0.566201569336922D+03 0.000000000000000D+00 0.000000000000000D+00 -.566201569336922D+03
 0.578888469150979D+03 -.365969993534082D+03 0.272624367214939D+03 0.333509786886805D+03
 0.207255306389943D+03 0.153772016161124D+03 -.106139491788943D+03 -.896846550716288D+02
 0.339537846693258D+03 0.201657484562225D+03 -.123164578318777D+03 -.243825131815176D+03
 0.151225466131637D+03 0.105404928107330D+02 -.433202971072185D+02 0.144503949691972D+03
0.138553648814D-03 0.000000000000D+00 0.000000000000D+00 0.822835179290D-05 0.273826085908D-07  6 1 -1 25 3 -3 21 2 0.15862976D+00 0.60041200D-01 0.22131750D+06 0.22131750D+06 0.22131750D+06 0.10944631D+01  1  2  1  1  6  1        1 0.829807768634D-03 0.100000000000D+01
  </mgrwgt>
  </event>
  <event>
  6     66 -.22111854E-05 0.17990784E+02 0.75467711E-02 0.94360160E-01
        1 -1    0    0  501    0 0.00000000E+00 0.00000000E+00 0.11156797E+04 0.11156797E+04 0.32000000E+00 0.0000E+00 0.9000E+01
       -1 -1    0    0    0  501 0.00000000E+00 0.00000000E+00 -.28679102E+03 0.28679120E+03 0.32000000E+00 0.0000E+00 0.9000E+01
       23  2    1    2    0    0 0.15361895E+03 -.48287359E+03 0.13135370E+03 0.53129603E+03 0.90862456E+02 0.0000E+00 0.0000E+00
       25  1    1    2    0    0 -.15361895E+03 0.48287359E+03 0.69753495E+03 0.87117489E+03 0.12500000E+03 0.0000E+00 0.9000E+01
        3  1    3    3  502    0 0.37148453E+01 -.19973588E+02 0.26779936E+02 0.33617841E+02 0.50000000E+00 0.0000E+00 0.9000E+01
       -3  1    3    3    0  502 0.14990411E+03 -.46290000E+03 0.10457376E+03 0.49767818E+03 0.50000000E+00 0.0000E+00 0.9000E+01
#aMCatNLO 1  0  0  4  1 0.35719754D+01 0.00000000D+00  -5  6  0 0.00000000D+00 0.00000000D+00 0.00000000D+00 0.00000000D+00 0.00000000D+00
  <mgrwgt>
 -.3518331507D-02    5    2    0
 0.565656318618702D+03 0.000000000000000D+00 0.000000000000000D+00 0.565656318618702D+03
 0.565656318618702D+03 -.000000000000000D+00 -.000000000000000D+00 -.565656318618702D+03
 0.568913161076887D+03 -.153618953913243D+03 0.482873589846212D+03 0.226432104777854D+03
 0.220387384234907D+02 0.371041814892461D+01 -.199601747855857D+02 0.857497585932729D+01
 0.540360737737027D+03 0.149908535764318D+03 -.462913415060626D+03 -.235007080637181D+03
 0.000000000000000D+00 0.000000000000000D+00 0.000000000000000D+00 -.000000000000000D+00
 0.565656318618702D+03 0.000000000000000D+00 0.000000000000000D+00 0.565656318618702D+03
 0.565656318618702D+03 -.000000000000000D+00 -.000000000000000D+00 -.565656318618702D+03
 0.567085640480709D+03 -.153151307011403D+03 0.480357885813942D+03 0.227512861914385D+03
 0.183150228789674D+02 0.272894951651073D+01 -.149105126948333D+02 0.102795675381141D+02
 0.542093746157225D+03 0.150354140535275D+03 -.465310543566525D+03 -.233977264050373D+03
 0.381822772050295D+01 0.682169596173954D-01 -.136829552584252D+00 -.381516540212575D+01
0.123990769271D-04 0.000000000000D+00 0.000000000000D+00 0.161812334638D-04 0.000000000000D+00  6 1 -1 25 3 -3 21 0 0.17164304D+00 0.44121713D-01 0.26460431D+06 0.26460431D+06 0.26460431D+06 0.10886090D+01  1  2  2  3  6  4        3 0.936326910373D-04 0.100000000000D+01
0.439757633960D-05 0.000000000000D+00 -.476157201519D-07 0.161812334638D-04 0.000000000000D+00  6 1 -1 25 3 -3 21 2 0.17164304D+00 0.44121713D-01 0.26460431D+06 0.26460431D+06 0.26460431D+06 0.10886090D+01  1  2  3  3  6  4        3 0.393545897619D-04 0.100000000000D+01
-.318702195529D-05 0.000000000000D+00 0.000000000000D+00 0.161812334638D-04 0.000000000000D+00  6 1 -1 25 3 -3 21 2 0.17164304D+00 0.44121713D-01 0.26460431D+06 0.26460431D+06 0.26460431D+06 0.10886090D+01  1  2 15  3  6  4        3 -.285211516360D-04 0.100000000000D+01
-.406324073901D-03 0.000000000000D+00 0.000000000000D+00 0.161812334638D-04 0.000000000000D+00  6 1 -1 25 3 -3 21 2 0.17164304D+00 0.44121713D-01 0.26460431D+06 0.26460431D+06 0.26460431D+06 0.10886090D+01  1  2  4  3  6  4        3 -.363625688422D-02 0.100000000000D+01
0.150255237381D-05 0.000000000000D+00 0.000000000000D+00 0.161812334638D-04 0.781269484658D-04  6 1 -1 25 3 -3 21 2 0.17164304D+00 0.44121713D-01 0.26201919D+06 0.26201919D+06 0.26201919D+06 0.10889283D+01  1  2 11  3  6  4        3 0.134592483887D-04 0.100000000000D+01
  </mgrwgt>
  </event>
  <event>
  7     66 0.22111854E-05 0.60150468E+02 0.75467711E-02 0.93762528E-01
        1 -1    0    0  501    0 0.00000000E+00 0.00000000E+00 0.11371743E+04 0.11371744E+04 0.32000000E+00 0.0000E+00 0.9000E+01
       -1 -1    0    0    0  503 0.00000000E+00 0.00000000E+00 -.27450576E+03 0.27450594E+03 0.32000000E+00 0.0000E+00 0.9000E+01
       23  2    1    2    0    0 -.47495999E+03 0.21562713E+03 0.34278684E+03 0.63054268E+03 0.89438279E+02 0.0000E+00 0.0000E+00
       25  1    1    2    0    0 0.45041314E+03 -.16701166E+03 0.52955115E+03 0.72581975E+03 0.12500000E+03 0.0000E+00 0.9000E+01
        3  1    3    3  502    0 -.26248762E+03 0.70774807E+02 0.18509998E+03 0.32889371E+03 0.50000000E+00 0.0000E+00 0.9000E+01
       -3  1    3    3    0  502 -.21247237E+03 0.14485232E+03 0.15768686E+03 0.30164897E+03 0.50000000E+00 0.0000E+00 0.9000E+01
       21  1    1    2  501  503 0.24546850E+02 -.48615467E+02 -.96693927E+01 0.55317910E+02 0.75000000E+00 0.0000E+00 0.9000E+01
#aMCatNLO 2  0  0  2  1 0.10668816D+02 0.00000000D+00  -5  6  0 0.00000000D+00 0.00000000D+00 0.00000000D+00 0.00000000D+00 0.00000000D+00
  <mgrwgt>
 0.1621427651D-03    1    2    0
 0.518598944516259D+03 0.000000000000000D+00 0.000000000000000D+00 0.518598944516259D+03
 0.518598944516259D+03 0.000000000000000D+00 0.000000000000000D+00 -.518598944516259D+03
 0.522275096584792D+03 0.462538239465779D+03 -.191025638128261D+03 0.819381420477747D+02
 0.264892384612342D+03 -.256116197573038D+03 0.581506844700001D+02 -.345103848429997D+02
 0.250030407835385D+03 -.206422041892742D+03 0.132874953658261D+03 -.474277572047750D+02
 0.000000000000000D+00 0.000000000000000D+00 -.000000000000000D+00 -.000000000000000D+00
 0.529948278122813D+03 0.000000000000000D+00 0.000000000000000D+00 0.529948278122813D+03
 0.589036797521329D+03 0.000000000000000D+00 0.000000000000000D+00 -.589036797521329D+03
 0.503094173985077D+03 0.450413137095582D+03 -.167011660392927D+03 0.819381420477747D+02
 0.274044308589280D+03 -.262489182178373D+03 0.707724921667584D+02 -.345103848429997D+02
 0.261488241765591D+03 -.212470805171195D+03 0.144854635335184D+03 -.474277572047750D+02
 0.803583513041936D+02 0.245468502539855D+02 -.486154671090151D+02 -.590885193985167D+02
0.175395352778D-04 0.000000000000D+00 0.000000000000D+00 0.206300083501D-04 0.440201078080D-07  6 1 -1 25 3 -3 21 2 0.17494935D+00 0.42231535D-01 0.29151991D+06 0.29151991D+06 0.29151991D+06 0.10854744D+01  1  2  1  2  6  2       -1 0.162142765100D-03 0.100000000000D+01
  </mgrwgt>
  </event>
</LesHouchesEvents>
