<event>
 5    0  0.1911311E+001  0.2640815E+03  0.7546771E-02  0.1104715E+00
         21   -1    0    0  504  501  0.00000000000E+00  0.00000000000E+00  0.33388013436E+03  0.33388013436E+03  0.00000000000E+00 0. -1.
         21   -1    0    0  501  502 -0.00000000000E+00 -0.00000000000E+00 -0.33194698249E+03  0.33194698249E+03  0.00000000000E+00 0.  1.
         25    1    1    2    0    0 -0.10270384437E+03  0.23156292617E+03  0.56406701408E+02  0.28805587026E+03  0.12500000000E+03 0.  0.
         21    1    1    2  503  502  0.79830722144E+02 -0.45409591717E+01  0.79846061796E+02  0.11299981457E+03  0.00000000000E+00 0. -1.
         21    1    1    2  504  503  0.22873122225E+02 -0.22702196700E+03 -0.13431961134E+03  0.26477143202E+03  0.00000000000E+00 0.  1.
<mgrwt>
<rscale>  4 0.26408150E+03</rscale>
<asrwt>0</asrwt>
<pdfrwt beam="1">  1       21 0.51366175E-01 0.26408150E+03</pdfrwt>
<pdfrwt beam="2">  1       21 0.51068767E-01 0.26408150E+03</pdfrwt>
<totfact> 0.12599376E+04</totfact>
</mgrwt>
</event>
<event>
 5    0  0.1911311E+001  0.2849170E+03  0.7546771E-02  0.1093033E+00
         21   -1    0    0  504  501  0.00000000000E+00  0.00000000000E+00  0.24253040056E+04  0.24253040056E+04  0.00000000000E+00 0.  1.
         21   -1    0    0  503  502 -0.00000000000E+00 -0.00000000000E+00 -0.26058309962E+03  0.26058309962E+03  0.00000000000E+00 0.  1.
         25    1    1    2    0    0  0.13787032044E+03  0.18497072138E+03 -0.16350455001E+03  0.30916198166E+03  0.12500000000E+03 0.  0.
         21    1    1    2  503  501  0.34899648806E+02  0.50499197924E+01  0.90231863003E+00  0.35274655995E+02  0.00000000000E+00 0.  1.
         21    1    1    2  504  502 -0.17276996925E+03 -0.19002064117E+03  0.23273231374E+04  0.23414504676E+04  0.00000000000E+00 0.  1.
<mgrwt>
<rscale>  4 0.28491698E+03</rscale>
<asrwt>0</asrwt>
<pdfrwt beam="1">  1       21 0.37312368E+00 0.28491698E+03</pdfrwt>
<pdfrwt beam="2">  1       21 0.40089709E-01 0.28491698E+03</pdfrwt>
<totfact> 0.66538056E+01</totfact>
</mgrwt>
</event>
<event>
 5    0  0.1911311E+001  0.3346331E+03  0.7546771E-02  0.1069105E+00
         21   -1    0    0  503  501  0.00000000000E+00  0.00000000000E+00  0.66767907961E+03  0.66767907961E+03  0.00000000000E+00 0.  1.
         21   -1    0    0  504  502 -0.00000000000E+00 -0.00000000000E+00 -0.31213161035E+03  0.31213161035E+03  0.00000000000E+00 0.  1.
         25    1    1    2    0    0  0.50904187854E+02 -0.29768416715E+03 -0.15166079951E+03  0.36032360153E+03  0.12500000000E+03 0.  0.
         21    1    1    2  503  502  0.23288764999E+02 -0.53352580431E+01 -0.14517872370E+00  0.23892522479E+02  0.00000000000E+00 0. -1.
         21    1    1    2  504  501 -0.74192952853E+02  0.30301942519E+03  0.50735344750E+03  0.59559456595E+03  0.00000000000E+00 0.  1.
<mgrwt>
<rscale>  4 0.33463311E+03</rscale>
<asrwt>0</asrwt>
<pdfrwt beam="1">  1       21 0.10271986E+00 0.33463311E+03</pdfrwt>
<pdfrwt beam="2">  1       21 0.48020248E-01 0.33463311E+03</pdfrwt>
<totfact> 0.29078867E+03</totfact>
</mgrwt>
</event>
<event>
 5    0  0.1911311E+001  0.2868143E+03  0.7546771E-02  0.1092024E+00
         21   -1    0    0  504  501  0.00000000000E+00  0.00000000000E+00  0.51861819401E+03  0.51861819401E+03  0.00000000000E+00 0.  1.
         21   -1    0    0  503  502 -0.00000000000E+00 -0.00000000000E+00 -0.14126399907E+04  0.14126399907E+04  0.00000000000E+00 0.  1.
         25    1    1    2    0    0  0.32325706455E+02 -0.27521449419E+03 -0.12949160823E+04  0.13301205319E+04  0.12500000000E+03 0.  0.
         21    1    1    2  503  501 -0.30522171553E+02  0.16990131183E+03 -0.13899378893E+02  0.17317982403E+03  0.00000000000E+00 0.  1.
         21    1    1    2  504  502 -0.18035349013E+01  0.10531318236E+03  0.41479366451E+03  0.42795782881E+03  0.00000000000E+00 0.  1.
<mgrwt>
<rscale>  4 0.28681434E+03</rscale>
<asrwt>0</asrwt>
<pdfrwt beam="1">  1       21 0.79787416E-01 0.28681434E+03</pdfrwt>
<pdfrwt beam="2">  1       21 0.21732923E+00 0.28681434E+03</pdfrwt>
<totfact> 0.12953517E+02</totfact>
</mgrwt>
</event>
<event>
 5    0  0.1911311E+001  0.4276038E+03  0.7546771E-02  0.1034620E+00
         21   -1    0    0  503  501  0.00000000000E+00  0.00000000000E+00  0.12682747944E+03  0.12682747944E+03  0.00000000000E+00 0. -1.
         21   -1    0    0  504  502 -0.00000000000E+00 -0.00000000000E+00 -0.16560852728E+04  0.16560852728E+04  0.00000000000E+00 0. -1.
         25    1    1    2    0    0 -0.12811561642E+02  0.42112039159E+03 -0.67189965186E+03  0.80285780963E+03  0.12500000000E+03 0.  0.
         21    1    1    2  503  502  0.10228907537E+02 -0.40047697354E+03 -0.86851033783E+03  0.95645002160E+03  0.00000000000E+00 0. -1.
         21    1    1    2  504  501  0.25826541048E+01 -0.20643418041E+02  0.11152196361E+02  0.23604920977E+02  0.00000000000E+00 0. -1.
<mgrwt>
<rscale>  4 0.42760383E+03</rscale>
<asrwt>0</asrwt>
<pdfrwt beam="1">  1       21 0.19511921E-01 0.42760383E+03</pdfrwt>
<pdfrwt beam="2">  1       21 0.25478234E+00 0.42760383E+03</pdfrwt>
<totfact> 0.12546239E+03</totfact>
</mgrwt>
</event>
