<event>
 5    0  0.1911311E+001  0.2097224E+03  0.7546771E-02  0.1141786E+00
         21   -1    0    0  502  501  0.00000000000E+00  0.00000000000E+00  0.76706616253E+03  0.76706616253E+03  0.00000000000E+00 0.  1.
         21   -1    0    0  504  502 -0.00000000000E+00 -0.00000000000E+00 -0.35438563899E+03  0.35438563899E+03  0.00000000000E+00 0.  1.
         25    1    1    2    0    0 -0.16087347833E+03  0.21309263209E+03  0.25122429894E+03  0.38733369884E+03  0.12500000000E+03 0.  0.
         21    1    1    2  503  501  0.59019159740E+02 -0.13853010892E+03  0.42012402060E+03  0.44629367571E+03  0.00000000000E+00 0.  1.
         21    1    1    2  504  503  0.10185431859E+03 -0.74562523177E+02 -0.25866779600E+03  0.28782442698E+03  0.00000000000E+00 0.  1.
<mgrwt>
<rscale>  4 0.20972238E+03</rscale>
<asrwt>0</asrwt>
<pdfrwt beam="1">  1       21 0.11801018E+00 0.20972238E+03</pdfrwt>
<pdfrwt beam="2">  1       21 0.54520868E-01 0.20972238E+03</pdfrwt>
<totfact> 0.17214415E+03</totfact>
</mgrwt>
</event>
<event>
 5    0  0.1911311E+001  0.2259399E+03  0.7546771E-02  0.1129530E+00
         21   -1    0    0  504  501  0.00000000000E+00  0.00000000000E+00  0.16737056631E+03  0.16737056631E+03  0.00000000000E+00 0. -1.
         21   -1    0    0  503  502 -0.00000000000E+00 -0.00000000000E+00 -0.15901805958E+04  0.15901805958E+04  0.00000000000E+00 0.  1.
         25    1    1    2    0    0  0.59111922821E+02  0.20302188953E+03 -0.14475043782E+04  0.14681982264E+04  0.12500000000E+03 0.  0.
         21    1    1    2  503  501 -0.28085136318E+02 -0.18254855556E+02 -0.71345513332E+02  0.78817491117E+02  0.00000000000E+00 0.  1.
         21    1    1    2  504  502 -0.31026786503E+02 -0.18476703397E+03  0.96039862060E+02  0.21053544459E+03  0.00000000000E+00 0. -1.
<mgrwt>
<rscale>  4 0.22593995E+03</rscale>
<asrwt>0</asrwt>
<pdfrwt beam="1">  1       21 0.25749318E-01 0.22593995E+03</pdfrwt>
<pdfrwt beam="2">  1       21 0.24464317E+00 0.22593995E+03</pdfrwt>
<totfact> 0.98531993E+02</totfact>
</mgrwt>
</event>
<event>
 5    0  0.1911311E+001  0.2386168E+03  0.7546771E-02  0.1120718E+00
         21   -1    0    0  504  501  0.00000000000E+00  0.00000000000E+00  0.32662288703E+02  0.32662288703E+02  0.00000000000E+00 0. -1.
         21   -1    0    0  503  502 -0.00000000000E+00 -0.00000000000E+00 -0.25136075721E+04  0.25136075721E+04  0.00000000000E+00 0. -1.
         25    1    1    2    0    0 -0.21772323281E+03  0.11027173796E+02 -0.99949347198E+03  0.10306004101E+04  0.12500000000E+03 0.  0.
         21    1    1    2  503  501  0.25321763514E+02 -0.55424406229E+02 -0.89089131717E+03  0.89297278543E+03  0.00000000000E+00 0. -1.
         21    1    1    2  504  502  0.19240146929E+03  0.44397232433E+02 -0.59056049423E+03  0.62269666530E+03  0.00000000000E+00 0. -1.
<mgrwt>
<rscale>  4 0.23861684E+03</rscale>
<asrwt>0</asrwt>
<pdfrwt beam="1">  1       21 0.50249664E-02 0.23861684E+03</pdfrwt>
<pdfrwt beam="2">  1       21 0.38670894E+00 0.23861684E+03</pdfrwt>
<totfact> 0.26471501E+03</totfact>
</mgrwt>
</event>
<event>
 5    0  0.1911311E+001  0.2310735E+03  0.7546771E-02  0.1125886E+00
         21   -1    0    0  503  501  0.00000000000E+00  0.00000000000E+00  0.21847506051E+03  0.21847506051E+03  0.00000000000E+00 0.  1.
         21   -1    0    0  504  502 -0.00000000000E+00 -0.00000000000E+00 -0.33613515938E+03  0.33613515938E+03  0.00000000000E+00 0.  1.
         25    1    1    2    0    0 -0.17752281536E+03  0.12336415377E+03  0.64192444728E+02  0.25783470358E+03  0.12500000000E+03 0.  0.
         21    1    1    2  503  502  0.16303713583E+03 -0.95791110986E+02 -0.18613472467E+03  0.26533597633E+03  0.00000000000E+00 0.  1.
         21    1    1    2  504  501  0.14485679533E+02 -0.27573042784E+02  0.42821810698E+01  0.31439539988E+02  0.00000000000E+00 0.  1.
<mgrwt>
<rscale>  4 0.23107354E+03</rscale>
<asrwt>0</asrwt>
<pdfrwt beam="1">  1       21 0.33611548E-01 0.23107354E+03</pdfrwt>
<pdfrwt beam="2">  1       21 0.51713101E-01 0.23107354E+03</pdfrwt>
<totfact> 0.29675870E+04</totfact>
</mgrwt>
</event>
