<event>
 5    0  0.5993533E-001  0.2533931E+03  0.7546771E-02  0.1111179E+00
         21   -1    0    0  503  502  0.00000000000E+00  0.00000000000E+00  0.45212928776E+03  0.45212928776E+03  0.00000000000E+00 0. -1.
          2   -1    0    0  502    0 -0.00000000000E+00 -0.00000000000E+00 -0.92408405307E+03  0.92408405307E+03  0.00000000000E+00 0.  1.
         25    1    1    2    0    0  0.19180959174E+03  0.10745289033E+03  0.39181551656E+03  0.46634905611E+03  0.12500000000E+03 0.  0.
         21    1    1    2  503  501 -0.11060584843E+02  0.44640951910E+02 -0.93736174487E+02  0.10441083053E+03  0.00000000000E+00 0.  1.
          2    1    1    2  501    0 -0.18074900689E+03 -0.15209384224E+03 -0.77003410738E+03  0.80545345419E+03  0.00000000000E+00 0.  1.
<mgrwt>
<rscale>  4 0.25339307E+03</rscale>
<asrwt>0</asrwt>
<pdfrwt beam="1">  1       21 0.69558352E-01 0.25339307E+03</pdfrwt>
<pdfrwt beam="2">  1        2 0.14216678E+00 0.25339307E+03</pdfrwt>
<totfact> 0.67524222E+02</totfact>
</mgrwt>
</event>
<event>
 5    0  0.5993533E-001  0.2470074E+03  0.7546771E-02  0.1115211E+00
         21   -1    0    0  501  502  0.00000000000E+00  0.00000000000E+00  0.38459227169E+03  0.38459227169E+03  0.00000000000E+00 0.  1.
         -2   -1    0    0    0  501 -0.00000000000E+00 -0.00000000000E+00 -0.13992757927E+03  0.13992757927E+03  0.00000000000E+00 0.  1.
         25    1    1    2    0    0  0.16262504939E+03  0.13762547451E+03  0.11523032031E+03  0.27256321220E+03  0.12500000000E+03 0.  0.
         21    1    1    2  501  501 -0.35650942303E+02 -0.14392450293E+02  0.31608757731E+02  0.49771938658E+02  0.00000000000E+00 0.  1.
         -2    1    1    2    0  502 -0.12697410709E+03 -0.12323302422E+03  0.97825614373E+02  0.20218470010E+03  0.00000000000E+00 0.  1.
<mgrwt>
<rscale>  4 0.24700745E+03</rscale>
<asrwt>0</asrwt>
<pdfrwt beam="1">  1       21 0.59168041E-01 0.24700745E+03</pdfrwt>
<pdfrwt beam="2">  1       -2 0.21527320E-01 0.24700745E+03</pdfrwt>
<totfact> 0.38894127E+03</totfact>
</mgrwt>
</event>
<event>
 5    0  0.5993533E-001  0.2903543E+03  0.7546771E-02  0.1090164E+00
          1   -1    0    0  502    0 -0.00000000000E+00  0.00000000000E+00  0.39711121910E+03  0.39711121910E+03  0.00000000000E+00 0.  1.
         21   -1    0    0  503  502  0.00000000000E+00 -0.00000000000E+00 -0.20208837179E+03  0.20208837179E+03  0.00000000000E+00 0.  1.
         25    1    1    2    0    0  0.24548402404E+03 -0.91750795828E+02  0.10185097047E+03  0.30769991027E+03  0.12500000000E+03 0.  0.
         21    1    1    2  503  501 -0.11426705856E+03  0.33501414201E+02 -0.22807584220E+01  0.11909872914E+03  0.00000000000E+00 0.  1.
          1    1    1    2  501    0 -0.13121696548E+03  0.58249381627E+02  0.95452635266E+02  0.17240095148E+03  0.00000000000E+00 0.  1.
<mgrwt>
<rscale>  4 0.29035429E+03</rscale>
<asrwt>0</asrwt>
<pdfrwt beam="1">  1       21 0.31090519E-01 0.29035429E+03</pdfrwt>
<pdfrwt beam="2">  1        1 0.61094034E-01 0.29035429E+03</pdfrwt>
<totfact> 0.65329489E+03</totfact>
</mgrwt>
</event>
<event>
 5    0  0.5993533E-001  0.2267945E+03  0.7546771E-02  0.1128917E+00
         21   -1    0    0  503  502  0.00000000000E+00  0.00000000000E+00  0.10144118830E+03  0.10144118830E+03  0.00000000000E+00 0.  1.
          1   -1    0    0  502    0 -0.00000000000E+00 -0.00000000000E+00 -0.12026562540E+04  0.12026562540E+04  0.00000000000E+00 0.  1.
         25    1    1    2    0    0 -0.78988180540E+02 -0.22583168385E+03 -0.23758386884E+03  0.35959724252E+03  0.12500000000E+03 0.  0.
         21    1    1    2  503  501 -0.62591988543E+02  0.16027552223E+03 -0.20499090282E+03  0.26763271530E+03  0.00000000000E+00 0.  1.
          1    1    1    2  501    0  0.14158016908E+03  0.65556161618E+02 -0.65864029403E+03  0.67686748446E+03  0.00000000000E+00 0.  1.
<mgrwt>
<rscale>  4 0.22679448E+03</rscale>
<asrwt>0</asrwt>
<pdfrwt beam="1">  1       21 0.15606336E-01 0.22679448E+03</pdfrwt>
<pdfrwt beam="2">  1        1 0.18502404E+00 0.22679448E+03</pdfrwt>
<totfact> 0.46367850E+03</totfact>
</mgrwt>
</event>
<event>
 5    0  0.5993533E-001  0.3530453E+03  0.7546771E-02  0.1061372E+00
         21   -1    0    0  503  502  0.00000000000E+00  0.00000000000E+00  0.13444380720E+03  0.13444380720E+03  0.00000000000E+00 0. -1.
          2   -1    0    0  502    0 -0.00000000000E+00 -0.00000000000E+00 -0.24382045811E+04  0.24382045811E+04  0.00000000000E+00 0. -1.
         25    1    1    2    0    0  0.27928760984E+03 -0.13951916087E+03 -0.18548578384E+03  0.38405356562E+03  0.12500000000E+03 0.  0.
         21    1    1    2  503  501  0.89667038105E+02 -0.69616278435E+02 -0.66815384119E+03  0.67772867687E+03  0.00000000000E+00 0.  1.
          2    1    1    2  501    0 -0.36895464794E+03  0.20913543930E+03 -0.14501211489E+04  0.15108661458E+04  0.00000000000E+00 0. -1.
<mgrwt>
<rscale>  4 0.35304532E+03</rscale>
<asrwt>0</asrwt>
<pdfrwt beam="1">  1       21 0.20683664E-01 0.35304532E+03</pdfrwt>
<pdfrwt beam="2">  1        2 0.37510838E+00 0.35304532E+03</pdfrwt>
<totfact> 0.11266281E+03</totfact>
</mgrwt>
</event>
<event>
 5    0  0.5993533E-001  0.2629965E+03  0.7546771E-02  0.1105356E+00
         21   -1    0    0  503  502  0.00000000000E+00  0.00000000000E+00  0.29783308656E+03  0.29783308656E+03  0.00000000000E+00 0. -1.
          1   -1    0    0  502    0 -0.00000000000E+00 -0.00000000000E+00 -0.21279960248E+03  0.21279960248E+03  0.00000000000E+00 0. -1.
         25    1    1    2    0    0  0.13569798596E+03 -0.18742515935E+03  0.24953324646E+02  0.26417759588E+03  0.12500000000E+03 0.  0.
         21    1    1    2  503  501 -0.21805640926E+02  0.69721172826E+01  0.17606003399E+02  0.28880231150E+02  0.00000000000E+00 0.  1.
          1    1    1    2  501    0 -0.11389234504E+03  0.18045304207E+03  0.42474156033E+02  0.21757486201E+03  0.00000000000E+00 0. -1.
<mgrwt>
<rscale>  4 0.26299645E+03</rscale>
<asrwt>0</asrwt>
<pdfrwt beam="1">  1       21 0.45820475E-01 0.26299645E+03</pdfrwt>
<pdfrwt beam="2">  1        1 0.32738400E-01 0.26299645E+03</pdfrwt>
<totfact> 0.66123745E+03</totfact>
</mgrwt>
</event>
<event>
 5    0  0.5993533E-001  0.2547705E+03  0.7546771E-02  0.1110327E+00
          2   -1    0    0  502    0 -0.00000000000E+00  0.00000000000E+00  0.21833028247E+04  0.21833028247E+04  0.00000000000E+00 0. -1.
         21   -1    0    0  503  502  0.00000000000E+00 -0.00000000000E+00 -0.28945091940E+02  0.28945091940E+02  0.00000000000E+00 0. -1.
         25    1    1    2    0    0 -0.20639755053E+03 -0.81749947072E+02  0.13873785494E+04  0.14105769182E+04  0.12500000000E+03 0.  0.
         21    1    1    2  503  501  0.16720392515E+03  0.83357472237E+02  0.54198578922E+03  0.57328371377E+03  0.00000000000E+00 0. -1.
          2    1    1    2  501    0  0.39193625382E+02 -0.16075251658E+01  0.22499339410E+03  0.22838728467E+03  0.00000000000E+00 0. -1.
<mgrwt>
<rscale>  4 0.25477049E+03</rscale>
<asrwt>0</asrwt>
<pdfrwt beam="1">  1       21 0.44530928E-02 0.25477049E+03</pdfrwt>
<pdfrwt beam="2">  1        2 0.33589261E+00 0.25477049E+03</pdfrwt>
<totfact> 0.24811788E+04</totfact>
</mgrwt>
</event>
<event>
 5    0  0.5993533E-001  0.2787387E+03  0.7546771E-02  0.1096380E+00
         21   -1    0    0  503  502  0.00000000000E+00  0.00000000000E+00  0.10475263443E+04  0.10475263443E+04  0.00000000000E+00 0.  1.
          1   -1    0    0  502    0 -0.00000000000E+00 -0.00000000000E+00 -0.12096901797E+04  0.12096901797E+04  0.00000000000E+00 0.  1.
         25    1    1    2    0    0  0.64231967864E+02 -0.24197563897E+03  0.10125837521E+04  0.10505373913E+04  0.12500000000E+03 0.  0.
         21    1    1    2  503  501 -0.59324392182E+01  0.68729367538E+02 -0.14188806582E+03  0.15776927147E+03  0.00000000000E+00 0. -1.
          1    1    1    2  501    0 -0.58299528646E+02  0.17324627143E+03 -0.10328595216E+04  0.10489098612E+04  0.00000000000E+00 0.  1.
<mgrwt>
<rscale>  4 0.27873874E+03</rscale>
<asrwt>0</asrwt>
<pdfrwt beam="1">  1       21 0.16115790E+00 0.27873874E+03</pdfrwt>
<pdfrwt beam="2">  1        1 0.18610618E+00 0.27873874E+03</pdfrwt>
<totfact> 0.28994204E+01</totfact>
</mgrwt>
</event>
<event>
 5    0  0.5993533E-001  0.3229964E+03  0.7546771E-02  0.1074278E+00
          2   -1    0    0  502    0 -0.00000000000E+00  0.00000000000E+00  0.11729331588E+04  0.11729331588E+04  0.00000000000E+00 0.  1.
         21   -1    0    0  503  502  0.00000000000E+00 -0.00000000000E+00 -0.10163891837E+03  0.10163891837E+03  0.00000000000E+00 0.  1.
         25    1    1    2    0    0  0.51858707951E+02  0.30027427650E+03  0.41286994408E+03  0.52814823434E+03  0.12500000000E+03 0.  0.
         21    1    1    2  503  501  0.26746176479E+02 -0.19738576322E+02  0.20356311420E+03  0.20625932903E+03  0.00000000000E+00 0. -1.
          2    1    1    2  501    0 -0.78604884430E+02 -0.28053570017E+03  0.45486118217E+03  0.54016451380E+03  0.00000000000E+00 0.  1.
<mgrwt>
<rscale>  4 0.32299643E+03</rscale>
<asrwt>0</asrwt>
<pdfrwt beam="1">  1       21 0.15636757E-01 0.32299643E+03</pdfrwt>
<pdfrwt beam="2">  1        2 0.18045125E+00 0.32299643E+03</pdfrwt>
<totfact> 0.92835515E+03</totfact>
</mgrwt>
</event>
<event>
 5    0  0.5993533E-001  0.3446529E+03  0.7546771E-02  0.1064831E+00
         21   -1    0    0  503  502  0.00000000000E+00  0.00000000000E+00  0.45574647980E+03  0.45574647980E+03  0.00000000000E+00 0.  1.
          1   -1    0    0  502    0 -0.00000000000E+00 -0.00000000000E+00 -0.57536368406E+03  0.57536368406E+03  0.00000000000E+00 0.  1.
         25    1    1    2    0    0 -0.18337260131E+03  0.36646203088E+03  0.10875498270E+03  0.44200970266E+03  0.12500000000E+03 0.  0.
         21    1    1    2  503  501  0.15263242658E+02 -0.26757185845E+03  0.25207900882E+02  0.26918971800E+03  0.00000000000E+00 0.  1.
          1    1    1    2  501    0  0.16810935865E+03 -0.98890172431E+02 -0.25358008784E+03  0.31991074320E+03  0.00000000000E+00 0.  1.
<mgrwt>
<rscale>  4 0.34465294E+03</rscale>
<asrwt>0</asrwt>
<pdfrwt beam="1">  1       21 0.70114843E-01 0.34465294E+03</pdfrwt>
<pdfrwt beam="2">  1        1 0.88517490E-01 0.34465294E+03</pdfrwt>
<totfact> 0.71492901E+02</totfact>
</mgrwt>
</event>
<event>
 5    0  0.5993533E-001  0.3586993E+03  0.7546771E-02  0.1059100E+00
         21   -1    0    0  503  502  0.00000000000E+00  0.00000000000E+00  0.16375727750E+03  0.16375727750E+03  0.00000000000E+00 0. -1.
          2   -1    0    0  502    0 -0.00000000000E+00 -0.00000000000E+00 -0.79692927757E+03  0.79692927757E+03  0.00000000000E+00 0. -1.
         25    1    1    2    0    0  0.32316218450E+03 -0.92770817688E+02 -0.42642147643E+03  0.55722571519E+03  0.12500000000E+03 0.  0.
         21    1    1    2  503  501 -0.22679766225E+02 -0.37494278791E+01 -0.40937948009E+02  0.46950458918E+02  0.00000000000E+00 0.  1.
          2    1    1    2  501    0 -0.30048241827E+03  0.96520245567E+02 -0.16581257563E+03  0.35651038096E+03  0.00000000000E+00 0. -1.
<mgrwt>
<rscale>  4 0.35869935E+03</rscale>
<asrwt>0</asrwt>
<pdfrwt beam="1">  1       21 0.25193427E-01 0.35869935E+03</pdfrwt>
<pdfrwt beam="2">  1        2 0.12260450E+00 0.35869935E+03</pdfrwt>
<totfact> 0.64521927E+03</totfact>
</mgrwt>
</event>
<event>
 5    0  0.5993533E-001  0.4522169E+03  0.7546771E-02  0.1027063E+00
          2   -1    0    0  502    0 -0.00000000000E+00  0.00000000000E+00  0.44771301466E+03  0.44771301466E+03  0.00000000000E+00 0. -1.
         21   -1    0    0  503  502  0.00000000000E+00 -0.00000000000E+00 -0.20634742479E+04  0.20634742479E+04  0.00000000000E+00 0. -1.
         25    1    1    2    0    0  0.11586556066E+03  0.42664893223E+03 -0.18975051994E+04  0.19523332506E+04  0.12500000000E+03 0.  0.
         21    1    1    2  503  501 -0.45074076153E+02 -0.10119933879E+03 -0.16218301790E+02  0.11196433282E+03  0.00000000000E+00 0. -1.
          2    1    1    2  501    0 -0.70791484508E+02 -0.32544959344E+03  0.29796226799E+03  0.44688967912E+03  0.00000000000E+00 0. -1.
<mgrwt>
<rscale>  4 0.45221688E+03</rscale>
<asrwt>0</asrwt>
<pdfrwt beam="1">  1       21 0.31745758E+00 0.45221688E+03</pdfrwt>
<pdfrwt beam="2">  1        2 0.68878924E-01 0.45221688E+03</pdfrwt>
<totfact> 0.19035418E+01</totfact>
</mgrwt>
</event>
<event>
 5    0  0.5993533E-001  0.3421772E+03  0.7546771E-02  0.1065872E+00
         21   -1    0    0  501  502  0.00000000000E+00  0.00000000000E+00  0.17285427142E+04  0.17285427142E+04  0.00000000000E+00 0.  1.
         -2   -1    0    0    0  501 -0.00000000000E+00 -0.00000000000E+00 -0.49309539405E+03  0.49309539405E+03  0.00000000000E+00 0. -1.
         25    1    1    2    0    0  0.21432012584E+03 -0.24194820807E+03  0.16007863727E+04  0.16378687563E+04  0.12500000000E+03 0.  0.
         21    1    1    2  501  501 -0.95086426862E+02  0.68670779240E+02  0.42607555412E+02  0.12478985645E+03  0.00000000000E+00 0.  1.
         -2    1    1    2    0  502 -0.11923369898E+03  0.17327742883E+03 -0.40794660800E+03  0.45897949550E+03  0.00000000000E+00 0. -1.
<mgrwt>
<rscale>  4 0.34217721E+03</rscale>
<asrwt>0</asrwt>
<pdfrwt beam="1">  1       21 0.26592964E+00 0.34217721E+03</pdfrwt>
<pdfrwt beam="2">  1       -2 0.75860831E-01 0.34217721E+03</pdfrwt>
<totfact> 0.61227651E+00</totfact>
</mgrwt>
</event>
<event>
 5    0  0.5993533E-001  0.3885128E+03  0.7546771E-02  0.1047832E+00
          2   -1    0    0  502    0 -0.00000000000E+00  0.00000000000E+00  0.20578958495E+03  0.20578958495E+03  0.00000000000E+00 0. -1.
         21   -1    0    0  503  502  0.00000000000E+00 -0.00000000000E+00 -0.90812420910E+03  0.90812420910E+03  0.00000000000E+00 0. -1.
         25    1    1    2    0    0 -0.11363461519E+03  0.34986332494E+03 -0.61358998749E+03  0.72624709614E+03  0.12500000000E+03 0.  0.
         21    1    1    2  503  501  0.56858736090E+02 -0.83545868465E+02 -0.49569519635E+02  0.11256094031E+03  0.00000000000E+00 0. -1.
          2    1    1    2  501    0  0.56775879098E+02 -0.26631745647E+03 -0.39175117023E+02  0.27510575759E+03  0.00000000000E+00 0. -1.
<mgrwt>
<rscale>  4 0.38851277E+03</rscale>
<asrwt>0</asrwt>
<pdfrwt beam="1">  1       21 0.13971141E+00 0.38851277E+03</pdfrwt>
<pdfrwt beam="2">  1        2 0.31659937E-01 0.38851277E+03</pdfrwt>
<totfact> 0.67461715E+02</totfact>
</mgrwt>
</event>
<event>
 5    0  0.5993533E-001  0.2628679E+03  0.7546771E-02  0.1105432E+00
          2   -1    0    0  502    0 -0.00000000000E+00  0.00000000000E+00  0.76636561826E+03  0.76636561826E+03  0.00000000000E+00 0. -1.
         21   -1    0    0  503  502  0.00000000000E+00 -0.00000000000E+00 -0.83205107095E+02  0.83205107095E+02  0.00000000000E+00 0.  1.
         25    1    1    2    0    0  0.16638704322E+03  0.16059236342E+03  0.29091931524E+03  0.39208876969E+03  0.12500000000E+03 0.  0.
         21    1    1    2  503  501 -0.41516725199E+02 -0.30077513170E+02  0.56910958535E+02  0.76597339843E+02  0.00000000000E+00 0. -1.
          2    1    1    2  501    0 -0.12487031803E+03 -0.13051485025E+03  0.33533023739E+03  0.38088461582E+03  0.00000000000E+00 0. -1.
<mgrwt>
<rscale>  4 0.26286794E+03</rscale>
<asrwt>0</asrwt>
<pdfrwt beam="1">  1       21 0.12800786E-01 0.26286794E+03</pdfrwt>
<pdfrwt beam="2">  1        2 0.11790240E+00 0.26286794E+03</pdfrwt>
<totfact> 0.24470641E+04</totfact>
</mgrwt>
</event>
<event>
 5    0  0.5993533E-001  0.2368109E+03  0.7546771E-02  0.1121936E+00
         21   -1    0    0  503  502  0.00000000000E+00  0.00000000000E+00  0.36519437646E+02  0.36519437646E+02  0.00000000000E+00 0. -1.
          2   -1    0    0  502    0 -0.00000000000E+00 -0.00000000000E+00 -0.14173869173E+04  0.14173869173E+04  0.00000000000E+00 0. -1.
         25    1    1    2    0    0  0.19122133803E+03  0.62360213157E+02 -0.82871799997E+03  0.86188915747E+03  0.12500000000E+03 0.  0.
         21    1    1    2  503  501 -0.60585611838E+02 -0.29582483240E+02 -0.10296738791E+03  0.12307730355E+03  0.00000000000E+00 0. -1.
          2    1    1    2  501    0 -0.13063572619E+03 -0.32777729917E+02 -0.44918209173E+03  0.46893989387E+03  0.00000000000E+00 0. -1.
<mgrwt>
<rscale>  4 0.23681089E+03</rscale>
<asrwt>0</asrwt>
<pdfrwt beam="1">  1       21 0.56183748E-02 0.23681089E+03</pdfrwt>
<pdfrwt beam="2">  1        2 0.21805953E+00 0.23681089E+03</pdfrwt>
<totfact> 0.42488945E+04</totfact>
</mgrwt>
</event>
<event>
 5    0  0.5993533E-001  0.2441011E+03  0.7546771E-02  0.1117091E+00
          2   -1    0    0  502    0 -0.00000000000E+00  0.00000000000E+00  0.63432712128E+02  0.63432712128E+02  0.00000000000E+00 0.  1.
         21   -1    0    0  503  502  0.00000000000E+00 -0.00000000000E+00 -0.11601265469E+04  0.11601265469E+04  0.00000000000E+00 0. -1.
         25    1    1    2    0    0  0.21375499734E+03 -0.64800503713E+02 -0.74412997318E+03  0.78692103870E+03  0.12500000000E+03 0.  0.
         21    1    1    2  503  501 -0.32593179565E+02 -0.32741861146E+02 -0.10513894367E+03  0.11484137887E+03  0.00000000000E+00 0.  1.
          2    1    1    2  501    0 -0.18116181777E+03  0.97542364858E+02 -0.24742491793E+03  0.32179684146E+03  0.00000000000E+00 0.  1.
<mgrwt>
<rscale>  4 0.24410107E+03</rscale>
<asrwt>0</asrwt>
<pdfrwt beam="1">  1       21 0.17848100E+00 0.24410107E+03</pdfrwt>
<pdfrwt beam="2">  1        2 0.97588791E-02 0.24410107E+03</pdfrwt>
<totfact> 0.14514412E+03</totfact>
</mgrwt>
</event>
<event>
 5    0  0.5993533E-001  0.1964384E+03  0.7546771E-02  0.1152779E+00
         21   -1    0    0  501  502  0.00000000000E+00  0.00000000000E+00  0.47073794809E+03  0.47073794809E+03  0.00000000000E+00 0.  1.
         -2   -1    0    0    0  501 -0.00000000000E+00 -0.00000000000E+00 -0.16923798939E+03  0.16923798939E+03  0.00000000000E+00 0.  1.
         25    1    1    2    0    0 -0.21815353388E+03  0.73871496088E+02  0.18069582043E+03  0.31831421865E+03  0.12500000000E+03 0.  0.
         21    1    1    2  501  501  0.85716044376E+02 -0.47126525321E+02  0.15408589547E+03  0.18251195258E+03  0.00000000000E+00 0.  1.
         -2    1    1    2    0  502  0.13243748950E+03 -0.26744970767E+02 -0.33281757190E+02  0.13914976625E+03  0.00000000000E+00 0.  1.
<mgrwt>
<rscale>  4 0.19643836E+03</rscale>
<asrwt>0</asrwt>
<pdfrwt beam="1">  1       21 0.72421222E-01 0.19643836E+03</pdfrwt>
<pdfrwt beam="2">  1       -2 0.26036614E-01 0.19643836E+03</pdfrwt>
<totfact> 0.18155003E+03</totfact>
</mgrwt>
</event>
<event>
 5    0  0.5993533E-001  0.2778768E+03  0.7546771E-02  0.1096854E+00
          2   -1    0    0  502    0 -0.00000000000E+00  0.00000000000E+00  0.63207943611E+03  0.63207943611E+03  0.00000000000E+00 0.  1.
         21   -1    0    0  503  502  0.00000000000E+00 -0.00000000000E+00 -0.14440365016E+03  0.14440365016E+03  0.00000000000E+00 0.  1.
         25    1    1    2    0    0 -0.21880637563E+03 -0.11710812318E+03  0.43204119865E+03  0.51368778442E+03  0.12500000000E+03 0.  0.
         21    1    1    2  503  501  0.21209303294E+02  0.21288755176E+02  0.28685233830E+02  0.41543811610E+02  0.00000000000E+00 0. -1.
          2    1    1    2  501    0  0.19759707234E+03  0.95819368004E+02  0.26949353479E+02  0.22125149024E+03  0.00000000000E+00 0.  1.
<mgrwt>
<rscale>  4 0.27787685E+03</rscale>
<asrwt>0</asrwt>
<pdfrwt beam="1">  1       21 0.22215946E-01 0.27787685E+03</pdfrwt>
<pdfrwt beam="2">  1        2 0.97242989E-01 0.27787685E+03</pdfrwt>
<totfact> 0.11104134E+04</totfact>
</mgrwt>
</event>
<event>
 5    0  0.5993533E-001  0.2526996E+03  0.7546771E-02  0.1111611E+00
         21   -1    0    0  501  502  0.00000000000E+00  0.00000000000E+00  0.73880108654E+03  0.73880108654E+03  0.00000000000E+00 0.  1.
         -1   -1    0    0    0  501 -0.00000000000E+00 -0.00000000000E+00 -0.13620323571E+03  0.13620323571E+03  0.00000000000E+00 0. -1.
         25    1    1    2    0    0  0.28335136497E+02 -0.21202511413E+03  0.54893848824E+03  0.60225907453E+03  0.12500000000E+03 0.  0.
         21    1    1    2  501  501  0.66839758628E+01 -0.25535116227E+02 -0.12306585781E+01  0.26424083988E+02  0.00000000000E+00 0.  1.
         -1    1    1    2    0  502 -0.35019112360E+02  0.23756023036E+03  0.54890021158E+02  0.24632116373E+03  0.00000000000E+00 0. -1.
<mgrwt>
<rscale>  4 0.25269962E+03</rscale>
<asrwt>0</asrwt>
<pdfrwt beam="1">  1       21 0.11366170E+00 0.25269962E+03</pdfrwt>
<pdfrwt beam="2">  1       -1 0.20954344E-01 0.25269962E+03</pdfrwt>
<totfact> 0.99729396E+02</totfact>
</mgrwt>
</event>
<event>
 5    0  0.5993533E-001  0.2712048E+03  0.7546771E-02  0.1100592E+00
          2   -1    0    0  502    0 -0.00000000000E+00  0.00000000000E+00  0.19624802679E+04  0.19624802679E+04  0.00000000000E+00 0.  1.
         21   -1    0    0  503  502  0.00000000000E+00 -0.00000000000E+00 -0.41509328439E+02  0.41509328439E+02  0.00000000000E+00 0.  1.
         25    1    1    2    0    0 -0.22882106089E+03 -0.91563261560E+02  0.13027110199E+04  0.13316996321E+04  0.12500000000E+03 0.  0.
         21    1    1    2  503  501  0.15630448468E+02 -0.15378306440E+02  0.90817253477E+02  0.93426852443E+02  0.00000000000E+00 0.  1.
          2    1    1    2  501    0  0.21319061242E+03  0.10694156800E+03  0.52744266610E+03  0.57886311181E+03  0.00000000000E+00 0.  1.
<mgrwt>
<rscale>  4 0.27120480E+03</rscale>
<asrwt>0</asrwt>
<pdfrwt beam="1">  1       21 0.63860521E-02 0.27120480E+03</pdfrwt>
<pdfrwt beam="2">  1        2 0.30191997E+00 0.27120480E+03</pdfrwt>
<totfact> 0.17420480E+04</totfact>
</mgrwt>
</event>
<event>
 5    0  0.5993533E-001  0.2710455E+03  0.7546771E-02  0.1100683E+00
         21   -1    0    0  503  502  0.00000000000E+00  0.00000000000E+00  0.33517021043E+03  0.33517021043E+03  0.00000000000E+00 0. -1.
          4   -1    0    0  502    0 -0.00000000000E+00 -0.00000000000E+00 -0.12918699468E+04  0.12918699468E+04  0.00000000000E+00 0.  1.
         25    1    1    2    0    0  0.17242726521E+01 -0.24164165587E+03  0.26428898711E+03  0.37929847307E+03  0.12500000000E+03 0.  0.
         21    1    1    2  503  501 -0.26724042706E+02  0.21485501229E+02 -0.20763548342E+03  0.21044784436E+03  0.00000000000E+00 0. -1.
          4    1    1    2  501    0  0.24999770054E+02  0.22015615464E+03 -0.10133532401E+04  0.10372938398E+04  0.00000000000E+00 0.  1.
<mgrwt>
<rscale>  4 0.27104548E+03</rscale>
<asrwt>0</asrwt>
<pdfrwt beam="1">  1       21 0.51564648E-01 0.27104548E+03</pdfrwt>
<pdfrwt beam="2">  1        4 0.19874922E+00 0.27104548E+03</pdfrwt>
<totfact> 0.21509460E+01</totfact>
</mgrwt>
</event>
<event>
 5    0  0.5993533E-001  0.2517517E+03  0.7546771E-02  0.1112203E+00
         21   -1    0    0  503  502  0.00000000000E+00  0.00000000000E+00  0.21132877796E+03  0.21132877796E+03  0.00000000000E+00 0. -1.
          2   -1    0    0  502    0 -0.00000000000E+00 -0.00000000000E+00 -0.11810064142E+04  0.11810064142E+04  0.00000000000E+00 0. -1.
         25    1    1    2    0    0  0.21108383259E+03  0.92836863458E+02  0.95652028760E+02  0.27919415861E+03  0.12500000000E+03 0.  0.
         21    1    1    2  503  501 -0.41827628477E+02 -0.14071797961E+03 -0.47706573674E+03  0.49914208144E+03  0.00000000000E+00 0. -1.
          2    1    1    2  501    0 -0.16925620411E+03  0.47881116149E+02 -0.58826392823E+03  0.61399895209E+03  0.00000000000E+00 0. -1.
<mgrwt>
<rscale>  4 0.25175168E+03</rscale>
<asrwt>0</asrwt>
<pdfrwt beam="1">  1       21 0.32512120E-01 0.25175168E+03</pdfrwt>
<pdfrwt beam="2">  1        2 0.18169329E+00 0.25175168E+03</pdfrwt>
<totfact> 0.23191213E+03</totfact>
</mgrwt>
</event>
<event>
 5    0  0.5993533E-001  0.2810227E+03  0.7546771E-02  0.1095132E+00
         21   -1    0    0  503  502  0.00000000000E+00  0.00000000000E+00  0.16526093569E+04  0.16526093569E+04  0.00000000000E+00 0.  1.
          1   -1    0    0  502    0 -0.00000000000E+00 -0.00000000000E+00 -0.80362021992E+02  0.80362021992E+02  0.00000000000E+00 0.  1.
         25    1    1    2    0    0 -0.25833094972E+03  0.41688229625E+02  0.12496681474E+04  0.12828750004E+04  0.12500000000E+03 0.  0.
         21    1    1    2  503  501  0.26341810989E+02 -0.59976412953E+02  0.20223553645E+02  0.68556934287E+02  0.00000000000E+00 0.  1.
          1    1    1    2  501    0  0.23198913873E+03  0.18288183328E+02  0.30235563384E+03  0.38153944417E+03  0.00000000000E+00 0.  1.
<mgrwt>
<rscale>  4 0.28102270E+03</rscale>
<asrwt>0</asrwt>
<pdfrwt beam="1">  1       21 0.25424757E+00 0.28102270E+03</pdfrwt>
<pdfrwt beam="2">  1        1 0.12363389E-01 0.28102270E+03</pdfrwt>
<totfact> 0.30258204E+02</totfact>
</mgrwt>
</event>
<event>
 5    0  0.5993533E-001  0.3956658E+03  0.7546771E-02  0.1045291E+00
          2   -1    0    0  502    0 -0.00000000000E+00  0.00000000000E+00  0.71821005854E+03  0.71821005854E+03  0.00000000000E+00 0.  1.
         21   -1    0    0  503  502  0.00000000000E+00 -0.00000000000E+00 -0.58025086548E+03  0.58025086548E+03  0.00000000000E+00 0. -1.
         25    1    1    2    0    0  0.36802192045E+03  0.74069661288E+02 -0.44497743959E+03  0.59544636232E+03  0.12500000000E+03 0.  0.
         21    1    1    2  503  501 -0.18517173420E+03 -0.63048020405E+02  0.20688149445E+03  0.28471666051E+03  0.00000000000E+00 0. -1.
          2    1    1    2  501    0 -0.18285018625E+03 -0.11021640884E+02  0.37605513820E+03  0.41829790120E+03  0.00000000000E+00 0.  1.
<mgrwt>
<rscale>  4 0.39566583E+03</rscale>
<asrwt>0</asrwt>
<pdfrwt beam="1">  1       21 0.89269364E-01 0.39566583E+03</pdfrwt>
<pdfrwt beam="2">  1        2 0.11049385E+00 0.39566583E+03</pdfrwt>
<totfact> 0.50090230E+02</totfact>
</mgrwt>
</event>
<event>
 5    0  0.5993533E-001  0.2561090E+03  0.7546771E-02  0.1109504E+00
          1   -1    0    0  502    0 -0.00000000000E+00  0.00000000000E+00  0.20477992881E+04  0.20477992881E+04  0.00000000000E+00 0. -1.
         21   -1    0    0  503  502  0.00000000000E+00 -0.00000000000E+00 -0.31296562034E+02  0.31296562034E+02  0.00000000000E+00 0.  1.
         25    1    1    2    0    0  0.26636189719E+01  0.22351670382E+03  0.76448240402E+03  0.80624137689E+03  0.12500000000E+03 0.  0.
         21    1    1    2  503  501  0.19286748841E+02 -0.62870706743E+02  0.29970721266E+03  0.30683728223E+03  0.00000000000E+00 0. -1.
          1    1    1    2  501    0 -0.21950367813E+02 -0.16064599708E+03  0.95231310942E+03  0.96601719105E+03  0.00000000000E+00 0. -1.
<mgrwt>
<rscale>  4 0.25610898E+03</rscale>
<asrwt>0</asrwt>
<pdfrwt beam="1">  1       21 0.48148573E-02 0.25610898E+03</pdfrwt>
<pdfrwt beam="2">  1        1 0.31504594E+00 0.25610898E+03</pdfrwt>
<totfact> 0.10091993E+04</totfact>
</mgrwt>
</event>
<event>
 5    0  0.5993533E-001  0.2538599E+03  0.7546771E-02  0.1110889E+00
         -2   -1    0    0    0  501 -0.00000000000E+00  0.00000000000E+00  0.10856553013E+03  0.10856553013E+03  0.00000000000E+00 0.  1.
         21   -1    0    0  501  502  0.00000000000E+00 -0.00000000000E+00 -0.58616550119E+03  0.58616550119E+03  0.00000000000E+00 0.  1.
         25    1    1    2    0    0  0.21582082259E+03 -0.47341423545E+02 -0.36515279147E+03  0.44472620675E+03  0.12500000000E+03 0.  0.
         21    1    1    2  501  501 -0.24703127630E+02  0.76207496593E+00 -0.23550099974E+02  0.34138431155E+02  0.00000000000E+00 0.  1.
         -2    1    1    2    0  502 -0.19111769496E+03  0.46579348579E+02 -0.88897079610E+02  0.21586639341E+03  0.00000000000E+00 0.  1.
<mgrwt>
<rscale>  4 0.25385988E+03</rscale>
<asrwt>0</asrwt>
<pdfrwt beam="1">  1       21 0.90179307E-01 0.25385988E+03</pdfrwt>
<pdfrwt beam="2">  1       -2 0.16702389E-01 0.25385988E+03</pdfrwt>
<totfact> 0.23280942E+03</totfact>
</mgrwt>
</event>
<event>
 5    0  0.5993533E-001  0.3791042E+03  0.7546771E-02  0.1051265E+00
          1   -1    0    0  502    0 -0.00000000000E+00  0.00000000000E+00  0.86588030190E+03  0.86588030190E+03  0.00000000000E+00 0. -1.
         21   -1    0    0  503  502  0.00000000000E+00 -0.00000000000E+00 -0.19199495144E+03  0.19199495144E+03  0.00000000000E+00 0. -1.
         25    1    1    2    0    0 -0.35352627220E+03  0.55805018863E+02  0.12309291754E+03  0.39858737011E+03  0.12500000000E+03 0.  0.
         21    1    1    2  503  501  0.39077621620E+02 -0.14472275820E+01  0.33533266257E+02  0.51513444119E+02  0.00000000000E+00 0. -1.
          1    1    1    2  501    0  0.31444865058E+03 -0.54357791281E+02  0.51725916667E+03  0.60777443911E+03  0.00000000000E+00 0. -1.
<mgrwt>
<rscale>  4 0.37910424E+03</rscale>
<asrwt>0</asrwt>
<pdfrwt beam="1">  1       21 0.29537685E-01 0.37910424E+03</pdfrwt>
<pdfrwt beam="2">  1        1 0.13321235E+00 0.37910424E+03</pdfrwt>
<totfact> 0.23536550E+03</totfact>
</mgrwt>
</event>
<event>
 5    0  0.5993533E-001  0.3781693E+03  0.7546771E-02  0.1051612E+00
          1   -1    0    0  502    0 -0.00000000000E+00  0.00000000000E+00  0.48979762880E+03  0.48979762880E+03  0.00000000000E+00 0.  1.
         21   -1    0    0  503  502  0.00000000000E+00 -0.00000000000E+00 -0.48012375505E+03  0.48012375505E+03  0.00000000000E+00 0.  1.
         25    1    1    2    0    0 -0.16065683544E+03  0.34416511997E+03 -0.21303884061E+03  0.45306820257E+03  0.12500000000E+03 0.  0.
         21    1    1    2  503  501  0.22561531004E+03 -0.23591599536E+03  0.10152603349E+03  0.34185692982E+03  0.00000000000E+00 0.  1.
          1    1    1    2  501    0 -0.64958474606E+02 -0.10824912462E+03  0.12118668087E+03  0.17499625146E+03  0.00000000000E+00 0.  1.
<mgrwt>
<rscale>  4 0.37816930E+03</rscale>
<asrwt>0</asrwt>
<pdfrwt beam="1">  1       21 0.73865194E-01 0.37816930E+03</pdfrwt>
<pdfrwt beam="2">  1        1 0.75353481E-01 0.37816930E+03</pdfrwt>
<totfact> 0.78410097E+02</totfact>
</mgrwt>
</event>
<event>
 5    0  0.5993533E-001  0.2018261E+03  0.7546771E-02  0.1148207E+00
          2   -1    0    0  502    0 -0.00000000000E+00  0.00000000000E+00  0.28111114597E+04  0.28111114597E+04  0.00000000000E+00 0. -1.
         21   -1    0    0  503  502  0.00000000000E+00 -0.00000000000E+00 -0.23634958524E+02  0.23634958524E+02  0.00000000000E+00 0. -1.
         25    1    1    2    0    0 -0.67746467803E+01  0.20949411154E+03  0.10922147377E+04  0.11191477614E+04  0.12500000000E+03 0.  0.
         21    1    1    2  503  501 -0.68226342675E+02 -0.82828262450E+02  0.50547757971E+03  0.51674262306E+03  0.00000000000E+00 0.  1.
          2    1    1    2  501    0  0.75000989456E+02 -0.12666584909E+03  0.11897841838E+04  0.11988560337E+04  0.00000000000E+00 0. -1.
<mgrwt>
<rscale>  4 0.20182605E+03</rscale>
<asrwt>0</asrwt>
<pdfrwt beam="1">  1       21 0.36361497E-02 0.20182605E+03</pdfrwt>
<pdfrwt beam="2">  1        2 0.43247842E+00 0.20182605E+03</pdfrwt>
<totfact> 0.16151674E+04</totfact>
</mgrwt>
</event>
<event>
 5    0  0.5993533E-001  0.2903020E+03  0.7546771E-02  0.1090192E+00
         21   -1    0    0  503  502  0.00000000000E+00  0.00000000000E+00  0.71123069963E+03  0.71123069963E+03  0.00000000000E+00 0. -1.
          2   -1    0    0  502    0 -0.00000000000E+00 -0.00000000000E+00 -0.29824020809E+04  0.29824020809E+04  0.00000000000E+00 0.  1.
         25    1    1    2    0    0 -0.15000936149E+03 -0.21481956950E+03  0.67525315343E+03  0.73501161705E+03  0.12500000000E+03 0.  0.
         21    1    1    2  503  501  0.28745203310E+02  0.14207483817E+02 -0.25512982571E+03  0.25713686487E+03  0.00000000000E+00 0.  1.
          2    1    1    2  501    0  0.12126415818E+03  0.20061208568E+03 -0.26912947090E+04  0.27014842986E+04  0.00000000000E+00 0.  1.
<mgrwt>
<rscale>  4 0.29030201E+03</rscale>
<asrwt>0</asrwt>
<pdfrwt beam="1">  1       21 0.10942011E+00 0.29030201E+03</pdfrwt>
<pdfrwt beam="2">  1        2 0.45883108E+00 0.29030201E+03</pdfrwt>
<totfact> 0.16752953E+01</totfact>
</mgrwt>
</event>
<event>
 5    0  0.5993533E-001  0.2743667E+03  0.7546771E-02  0.1098806E+00
         21   -1    0    0  503  502  0.00000000000E+00  0.00000000000E+00  0.23744677585E+02  0.23744677585E+02  0.00000000000E+00 0.  1.
          2   -1    0    0  502    0 -0.00000000000E+00 -0.00000000000E+00 -0.32698183072E+04  0.32698183072E+04  0.00000000000E+00 0. -1.
         25    1    1    2    0    0  0.14150627514E+02  0.24382745764E+03 -0.11202394257E+04  0.11533487938E+04  0.12500000000E+03 0.  0.
         21    1    1    2  503  501 -0.16045977746E+02 -0.37217521670E+02 -0.29963699546E+03  0.30236558397E+03  0.00000000000E+00 0. -1.
          2    1    1    2  501    0  0.18953502324E+01 -0.20660993597E+03 -0.18261972085E+04  0.18378486070E+04  0.00000000000E+00 0. -1.
<mgrwt>
<rscale>  4 0.27436667E+03</rscale>
<asrwt>0</asrwt>
<pdfrwt beam="1">  1       21 0.36530281E-02 0.27436667E+03</pdfrwt>
<pdfrwt beam="2">  1        2 0.50304886E+00 0.27436667E+03</pdfrwt>
<totfact> 0.82812023E+03</totfact>
</mgrwt>
</event>
<event>
 5    0  0.5993533E-001  0.2487465E+03  0.7546771E-02  0.1114100E+00
          1   -1    0    0  502    0 -0.00000000000E+00  0.00000000000E+00  0.67904543485E+03  0.67904543485E+03  0.00000000000E+00 0. -1.
         21   -1    0    0  503  502  0.00000000000E+00 -0.00000000000E+00 -0.42410152281E+03  0.42410152281E+03  0.00000000000E+00 0.  1.
         25    1    1    2    0    0 -0.13425122559E+02  0.21788577388E+03 -0.35894256357E+03  0.43831405216E+03  0.12500000000E+03 0.  0.
         21    1    1    2  503  501  0.58493767330E+01 -0.51234887659E+02  0.34838205668E+02  0.62232865077E+02  0.00000000000E+00 0.  1.
          1    1    1    2  501    0  0.75757458261E+01 -0.16665088622E+03  0.57904826994E+03  0.60260004043E+03  0.00000000000E+00 0. -1.
<mgrwt>
<rscale>  4 0.24874646E+03</rscale>
<asrwt>0</asrwt>
<pdfrwt beam="1">  1       21 0.65246388E-01 0.24874646E+03</pdfrwt>
<pdfrwt beam="2">  1        1 0.10446853E+00 0.24874646E+03</pdfrwt>
<totfact> 0.68826200E+02</totfact>
</mgrwt>
</event>
<event>
 5    0  0.5993533E-001  0.2911588E+03  0.7546771E-02  0.1089746E+00
         21   -1    0    0  501  502  0.00000000000E+00  0.00000000000E+00  0.99583137012E+02  0.99583137012E+02  0.00000000000E+00 0. -1.
         -2   -1    0    0    0  501 -0.00000000000E+00 -0.00000000000E+00 -0.16835442238E+04  0.16835442238E+04  0.00000000000E+00 0.  1.
         25    1    1    2    0    0  0.20172113652E+03  0.16869215500E+03 -0.15605697019E+03  0.33034412061E+03  0.12500000000E+03 0.  0.
         21    1    1    2  501  501 -0.15636123520E+03 -0.14733111093E+03 -0.10670545952E+04  0.10884671797E+04  0.00000000000E+00 0. -1.
         -2    1    1    2    0  502 -0.45359901329E+02 -0.21361044071E+02 -0.36084952143E+03  0.36431606054E+03  0.00000000000E+00 0.  1.
<mgrwt>
<rscale>  4 0.29115882E+03</rscale>
<asrwt>0</asrwt>
<pdfrwt beam="1">  1       21 0.15320484E-01 0.29115882E+03</pdfrwt>
<pdfrwt beam="2">  1       -2 0.25900678E+00 0.29115882E+03</pdfrwt>
<totfact> 0.19263690E+02</totfact>
</mgrwt>
</event>
<event>
 5    0  0.5993533E-001  0.2674521E+03  0.7546771E-02  0.1102747E+00
         21   -1    0    0  503  502  0.00000000000E+00  0.00000000000E+00  0.14911812425E+03  0.14911812425E+03  0.00000000000E+00 0. -1.
          2   -1    0    0  502    0 -0.00000000000E+00 -0.00000000000E+00 -0.10286137137E+04  0.10286137137E+04  0.00000000000E+00 0.  1.
         25    1    1    2    0    0  0.18847357291E+03  0.14277025534E+03 -0.20749181329E+01  0.26746016298E+03  0.12500000000E+03 0.  0.
         21    1    1    2  503  501 -0.21634393661E+02 -0.46866530489E+01 -0.45141499411E+02  0.50276900013E+02  0.00000000000E+00 0.  1.
          2    1    1    2  501    0 -0.16683917925E+03 -0.13808360229E+03 -0.83227917195E+03  0.85999477499E+03  0.00000000000E+00 0.  1.
<mgrwt>
<rscale>  4 0.26745211E+03</rscale>
<asrwt>0</asrwt>
<pdfrwt beam="1">  1       21 0.22941250E-01 0.26745211E+03</pdfrwt>
<pdfrwt beam="2">  1        2 0.15824826E+00 0.26745211E+03</pdfrwt>
<totfact> 0.55805706E+03</totfact>
</mgrwt>
</event>
<event>
 5    0  0.5993533E-001  0.2856676E+03  0.7546771E-02  0.1092633E+00
          2   -1    0    0  502    0 -0.00000000000E+00  0.00000000000E+00  0.41180443736E+03  0.41180443736E+03  0.00000000000E+00 0. -1.
         21   -1    0    0  503  502  0.00000000000E+00 -0.00000000000E+00 -0.22501100868E+03  0.22501100868E+03  0.00000000000E+00 0. -1.
         25    1    1    2    0    0 -0.40251205119E+02  0.26591060431E+03  0.12920272616E+02  0.29685104420E+03  0.12500000000E+03 0.  0.
         21    1    1    2  503  501  0.17071090951E+02 -0.15354973313E+02 -0.13138398071E+02  0.26454013979E+02  0.00000000000E+00 0.  1.
          2    1    1    2  501    0  0.23180114168E+02 -0.25055563099E+03  0.18701155414E+03  0.31351038786E+03  0.00000000000E+00 0. -1.
<mgrwt>
<rscale>  4 0.28566762E+03</rscale>
<asrwt>0</asrwt>
<pdfrwt beam="1">  1       21 0.34617078E-01 0.28566762E+03</pdfrwt>
<pdfrwt beam="2">  1        2 0.63354529E-01 0.28566762E+03</pdfrwt>
<totfact> 0.75919303E+03</totfact>
</mgrwt>
</event>
<event>
 5    0  0.5993533E-001  0.2409550E+03  0.7546771E-02  0.1119158E+00
          2   -1    0    0  502    0 -0.00000000000E+00  0.00000000000E+00  0.30764477063E+03  0.30764477063E+03  0.00000000000E+00 0.  1.
         21   -1    0    0  503  502  0.00000000000E+00 -0.00000000000E+00 -0.10561433770E+04  0.10561433770E+04  0.00000000000E+00 0.  1.
         25    1    1    2    0    0 -0.21948779898E+02 -0.20612750008E+03 -0.99068861672E+03  0.10198329425E+04  0.12500000000E+03 0.  0.
         21    1    1    2  503  501  0.46711167636E+02  0.15693963544E+02  0.72663014089E+02  0.87796055094E+02  0.00000000000E+00 0. -1.
          2    1    1    2  501    0 -0.24762387738E+02  0.19043353654E+03  0.16952699629E+03  0.25615915005E+03  0.00000000000E+00 0.  1.
<mgrwt>
<rscale>  4 0.24095497E+03</rscale>
<asrwt>0</asrwt>
<pdfrwt beam="1">  1       21 0.16248360E+00 0.24095497E+03</pdfrwt>
<pdfrwt beam="2">  1        2 0.47329965E-01 0.24095497E+03</pdfrwt>
<totfact> 0.30842272E+02</totfact>
</mgrwt>
</event>
<event>
 5    0  0.5993533E-001  0.5124993E+03  0.7546771E-02  0.1010567E+00
         21   -1    0    0  503  502  0.00000000000E+00  0.00000000000E+00  0.43652695972E+03  0.43652695972E+03  0.00000000000E+00 0. -1.
          1   -1    0    0  502    0 -0.00000000000E+00 -0.00000000000E+00 -0.62145241220E+03  0.62145241220E+03  0.00000000000E+00 0.  1.
         25    1    1    2    0    0 -0.26229102231E+03 -0.42217766132E+03  0.16973074693E+02  0.51278030712E+03  0.12500000000E+03 0.  0.
         21    1    1    2  503  501 -0.32314894980E+01  0.40349886038E+02 -0.25234551223E+02  0.47700507367E+02  0.00000000000E+00 0. -1.
          1    1    1    2  501    0  0.26552251180E+03  0.38182777528E+03 -0.17666397595E+03  0.49749855743E+03  0.00000000000E+00 0.  1.
<mgrwt>
<rscale>  4 0.51249932E+03</rscale>
<asrwt>0</asrwt>
<pdfrwt beam="1">  1       21 0.67157994E-01 0.51249932E+03</pdfrwt>
<pdfrwt beam="2">  1        1 0.95608064E-01 0.51249932E+03</pdfrwt>
<totfact> 0.67578999E+02</totfact>
</mgrwt>
</event>
<event>
 5    0  0.5993533E-001  0.2854414E+03  0.7546771E-02  0.1092754E+00
         21   -1    0    0  503  502  0.00000000000E+00  0.00000000000E+00  0.47399177997E+02  0.47399177997E+02  0.00000000000E+00 0. -1.
          3   -1    0    0  502    0 -0.00000000000E+00 -0.00000000000E+00 -0.29604166449E+04  0.29604166449E+04  0.00000000000E+00 0.  1.
         25    1    1    2    0    0  0.21280690552E+03  0.14340505389E+03 -0.46127333700E+03  0.54244804355E+03  0.12500000000E+03 0.  0.
         21    1    1    2  503  501 -0.18928838516E+02 -0.10691039837E+02 -0.13482710652E+03  0.13656847335E+03  0.00000000000E+00 0. -1.
          3    1    1    2  501    0 -0.19387806701E+03 -0.13271401405E+03 -0.23169170234E+04  0.23287993060E+04  0.00000000000E+00 0.  1.
<mgrwt>
<rscale>  4 0.28544139E+03</rscale>
<asrwt>0</asrwt>
<pdfrwt beam="1">  1       21 0.72921774E-02 0.28544139E+03</pdfrwt>
<pdfrwt beam="2">  1        3 0.45544895E+00 0.28544139E+03</pdfrwt>
<totfact> 0.48435874E+01</totfact>
</mgrwt>
</event>
<event>
 5    0  0.5993533E-001  0.2424225E+03  0.7546771E-02  0.1118189E+00
          2   -1    0    0  502    0 -0.00000000000E+00  0.00000000000E+00  0.13027221389E+04  0.13027221389E+04  0.00000000000E+00 0. -1.
         21   -1    0    0  503  502  0.00000000000E+00 -0.00000000000E+00 -0.83481188485E+02  0.83481188485E+02  0.00000000000E+00 0. -1.
         25    1    1    2    0    0 -0.18457672946E+02  0.20688880563E+03  0.13270757476E+03  0.27636925296E+03  0.12500000000E+03 0.  0.
         21    1    1    2  503  501  0.47577938646E+02 -0.17218067867E+03  0.79667607838E+03  0.81645735970E+03  0.00000000000E+00 0. -1.
          2    1    1    2  501    0 -0.29120265700E+02 -0.34708126963E+02  0.28985729725E+03  0.29337671468E+03  0.00000000000E+00 0. -1.
<mgrwt>
<rscale>  4 0.24242249E+03</rscale>
<asrwt>0</asrwt>
<pdfrwt beam="1">  1       21 0.12843261E-01 0.24242249E+03</pdfrwt>
<pdfrwt beam="2">  1        2 0.20041878E+00 0.24242249E+03</pdfrwt>
<totfact> 0.11460180E+04</totfact>
</mgrwt>
</event>
<event>
 5    0  0.5993533E-001  0.2584817E+03  0.7546771E-02  0.1108059E+00
         -2   -1    0    0    0  501 -0.00000000000E+00  0.00000000000E+00  0.13427588992E+04  0.13427588992E+04  0.00000000000E+00 0. -1.
         21   -1    0    0  501  502  0.00000000000E+00 -0.00000000000E+00 -0.57334542903E+02  0.57334542903E+02  0.00000000000E+00 0. -1.
         25    1    1    2    0    0 -0.16773171354E+03  0.15183500350E+03  0.34985040396E+03  0.43498057562E+03  0.12500000000E+03 0.  0.
         21    1    1    2  501  501  0.15459609659E+03 -0.12907544838E+03  0.70992600521E+03  0.73793994154E+03  0.00000000000E+00 0. -1.
         -2    1    1    2    0  502  0.13135616953E+02 -0.22759555122E+02  0.22564794709E+03  0.22717292490E+03  0.00000000000E+00 0. -1.
<mgrwt>
<rscale>  4 0.25848171E+03</rscale>
<asrwt>0</asrwt>
<pdfrwt beam="1">  1       21 0.88206999E-02 0.25848171E+03</pdfrwt>
<pdfrwt beam="2">  1       -2 0.20657827E+00 0.25848171E+03</pdfrwt>
<totfact> 0.10859534E+03</totfact>
</mgrwt>
</event>
<event>
 5    0  0.5993533E-001  0.3278659E+03  0.7546771E-02  0.1072085E+00
         -1   -1    0    0    0  501 -0.00000000000E+00  0.00000000000E+00  0.36927624844E+03  0.36927624844E+03  0.00000000000E+00 0. -1.
         21   -1    0    0  501  502  0.00000000000E+00 -0.00000000000E+00 -0.30744557675E+03  0.30744557675E+03  0.00000000000E+00 0. -1.
         25    1    1    2    0    0 -0.24712095278E+03  0.17550579542E+03 -0.48139042971E+02  0.33138107518E+03  0.12500000000E+03 0.  0.
         21    1    1    2  501  501  0.76426967031E+02  0.11515912248E+01  0.58747830193E+00  0.76437900172E+02  0.00000000000E+00 0. -1.
         -1    1    1    2    0  502  0.17069398574E+03 -0.17665738665E+03  0.10938223636E+03  0.26890284985E+03  0.00000000000E+00 0. -1.
<mgrwt>
<rscale>  4 0.32786590E+03</rscale>
<asrwt>0</asrwt>
<pdfrwt beam="1">  1       21 0.47299320E-01 0.32786590E+03</pdfrwt>
<pdfrwt beam="2">  1       -1 0.56811730E-01 0.32786590E+03</pdfrwt>
<totfact> 0.12286322E+03</totfact>
</mgrwt>
</event>
<event>
 5    0  0.5993533E-001  0.2404455E+03  0.7546771E-02  0.1119496E+00
         21   -1    0    0  503  502  0.00000000000E+00  0.00000000000E+00  0.46932601246E+02  0.46932601246E+02  0.00000000000E+00 0.  1.
          2   -1    0    0  502    0 -0.00000000000E+00 -0.00000000000E+00 -0.32487754317E+04  0.32487754317E+04  0.00000000000E+00 0. -1.
         25    1    1    2    0    0  0.24999563652E+02  0.20289500270E+03 -0.30639178473E+03  0.38896309086E+03  0.12500000000E+03 0.  0.
         21    1    1    2  503  501  0.29030080812E+02  0.49219183161E+01 -0.14706414952E+03  0.14998278217E+03  0.00000000000E+00 0. -1.
          2    1    1    2  501    0 -0.54029644464E+02 -0.20781692101E+03 -0.27483868962E+04  0.27567621600E+04  0.00000000000E+00 0. -1.
<mgrwt>
<rscale>  4 0.24044547E+03</rscale>
<asrwt>0</asrwt>
<pdfrwt beam="1">  1       21 0.72203998E-02 0.24044547E+03</pdfrwt>
<pdfrwt beam="2">  1        2 0.49981163E+00 0.24044547E+03</pdfrwt>
<totfact> 0.27080039E+03</totfact>
</mgrwt>
</event>
<event>
 5    0  0.5993533E-001  0.2788234E+03  0.7546771E-02  0.1096333E+00
         21   -1    0    0  503  502  0.00000000000E+00  0.00000000000E+00  0.23311403158E+02  0.23311403158E+02  0.00000000000E+00 0. -1.
          2   -1    0    0  502    0 -0.00000000000E+00 -0.00000000000E+00 -0.33163581387E+04  0.33163581387E+04  0.00000000000E+00 0. -1.
         25    1    1    2    0    0  0.10541960038E+03 -0.22584113100E+03 -0.12641148398E+04  0.12944994542E+04  0.12500000000E+03 0.  0.
         21    1    1    2  503  501  0.30668604845E+01  0.36396924706E+02 -0.20604073666E+03  0.20925326024E+03  0.00000000000E+00 0. -1.
          2    1    1    2  501    0 -0.10848646087E+03  0.18944420629E+03 -0.18228911591E+04  0.18359168275E+04  0.00000000000E+00 0. -1.
<mgrwt>
<rscale>  4 0.27882344E+03</rscale>
<asrwt>0</asrwt>
<pdfrwt beam="1">  1       21 0.35863712E-02 0.27882344E+03</pdfrwt>
<pdfrwt beam="2">  1        2 0.51020874E+00 0.27882344E+03</pdfrwt>
<totfact> 0.79687275E+03</totfact>
</mgrwt>
</event>
<event>
 5    0  0.5993533E-001  0.3366877E+03  0.7546771E-02  0.1068216E+00
         21   -1    0    0  503  502  0.00000000000E+00  0.00000000000E+00  0.33696566632E+03  0.33696566632E+03  0.00000000000E+00 0. -1.
          1   -1    0    0  502    0 -0.00000000000E+00 -0.00000000000E+00 -0.81411001064E+03  0.81411001064E+03  0.00000000000E+00 0. -1.
         25    1    1    2    0    0  0.31605584381E+03  0.26259347423E+02  0.19871565296E+03  0.39458048667E+03  0.12500000000E+03 0.  0.
         21    1    1    2  503  501 -0.37648675140E+02  0.28472325108E+02 -0.47111234833E+02  0.66690062860E+02  0.00000000000E+00 0. -1.
          1    1    1    2  501    0 -0.27840716867E+03 -0.54731672532E+02 -0.62874876245E+03  0.68980512743E+03  0.00000000000E+00 0. -1.
<mgrwt>
<rscale>  4 0.33668772E+03</rscale>
<asrwt>0</asrwt>
<pdfrwt beam="1">  1       21 0.51840872E-01 0.33668772E+03</pdfrwt>
<pdfrwt beam="2">  1        1 0.12524769E+00 0.33668772E+03</pdfrwt>
<totfact> 0.83133658E+02</totfact>
</mgrwt>
</event>
<event>
 5    0  0.5993533E-001  0.2649316E+03  0.7546771E-02  0.1104216E+00
         21   -1    0    0  503  502  0.00000000000E+00  0.00000000000E+00  0.90059802474E+03  0.90059802474E+03  0.00000000000E+00 0.  1.
          1   -1    0    0  502    0 -0.00000000000E+00 -0.00000000000E+00 -0.12226082860E+04  0.12226082860E+04  0.00000000000E+00 0. -1.
         25    1    1    2    0    0 -0.15830652227E+03 -0.17347472144E+03  0.85094262916E+03  0.89156199565E+03  0.12500000000E+03 0.  0.
         21    1    1    2  503  501  0.51097204347E+02  0.51452769516E+02 -0.32125554680E+02  0.79311808997E+02  0.00000000000E+00 0. -1.
          1    1    1    2  501    0  0.10720931793E+03  0.12202195192E+03 -0.11408273357E+04  0.11523325061E+04  0.00000000000E+00 0. -1.
<mgrwt>
<rscale>  4 0.26493158E+03</rscale>
<asrwt>0</asrwt>
<pdfrwt beam="1">  1       21 0.13855354E+00 0.26493158E+03</pdfrwt>
<pdfrwt beam="2">  1        1 0.18809358E+00 0.26493158E+03</pdfrwt>
<totfact> 0.42966094E+01</totfact>
</mgrwt>
</event>
<event>
 5    0  0.5993533E-001  0.2941813E+03  0.7546771E-02  0.1088186E+00
          2   -1    0    0  502    0 -0.00000000000E+00  0.00000000000E+00  0.41137305020E+03  0.41137305020E+03  0.00000000000E+00 0.  1.
         21   -1    0    0  503  502  0.00000000000E+00 -0.00000000000E+00 -0.76845202956E+03  0.76845202956E+03  0.00000000000E+00 0.  1.
         25    1    1    2    0    0  0.43500101550E+02 -0.26272678843E+03 -0.68589291638E+03  0.74631877702E+03  0.12500000000E+03 0.  0.
         21    1    1    2  503  501  0.97139559269E+01  0.86362895877E+02  0.52883252966E+02  0.10173273401E+03  0.00000000000E+00 0. -1.
          2    1    1    2  501    0 -0.53214057477E+02  0.17636389255E+03  0.27593068405E+03  0.33177356873E+03  0.00000000000E+00 0.  1.
<mgrwt>
<rscale>  4 0.29418128E+03</rscale>
<asrwt>0</asrwt>
<pdfrwt beam="1">  1       21 0.11822339E+00 0.29418128E+03</pdfrwt>
<pdfrwt beam="2">  1        2 0.63288161E-01 0.29418128E+03</pdfrwt>
<totfact> 0.50166191E+02</totfact>
</mgrwt>
</event>
<event>
 5    0  0.5993533E-001  0.2562180E+03  0.7546771E-02  0.1109437E+00
         21   -1    0    0  503  502  0.00000000000E+00  0.00000000000E+00  0.10892483939E+03  0.10892483939E+03  0.00000000000E+00 0. -1.
          2   -1    0    0  502    0 -0.00000000000E+00 -0.00000000000E+00 -0.16820367455E+04  0.16820367455E+04  0.00000000000E+00 0. -1.
         25    1    1    2    0    0  0.12731944236E+03 -0.19747268805E+03 -0.85088172994E+02  0.27941134571E+03  0.12500000000E+03 0.  0.
         21    1    1    2  503  501 -0.74394215113E+02  0.16158056133E+03 -0.75195594757E+03  0.77270985766E+03  0.00000000000E+00 0. -1.
          2    1    1    2  501    0 -0.52925227246E+02  0.35892126726E+02 -0.73606778550E+03  0.73884038147E+03  0.00000000000E+00 0. -1.
<mgrwt>
<rscale>  4 0.25621798E+03</rscale>
<asrwt>0</asrwt>
<pdfrwt beam="1">  1       21 0.16757667E-01 0.25621798E+03</pdfrwt>
<pdfrwt beam="2">  1        2 0.25877489E+00 0.25621798E+03</pdfrwt>
<totfact> 0.43892624E+03</totfact>
</mgrwt>
</event>
<event>
 5    0  0.5993533E-001  0.4272607E+03  0.7546771E-02  0.1034729E+00
         -3   -1    0    0    0  501 -0.00000000000E+00  0.00000000000E+00  0.38534732314E+03  0.38534732314E+03  0.00000000000E+00 0.  1.
         21   -1    0    0  501  502  0.00000000000E+00 -0.00000000000E+00 -0.81903461871E+03  0.81903461871E+03  0.00000000000E+00 0. -1.
         25    1    1    2    0    0 -0.38682369714E+03  0.13150718762E+03 -0.61480173232E+03  0.74868744021E+03  0.12500000000E+03 0.  0.
         21    1    1    2  501  501  0.15607279914E+02 -0.14927656215E+02  0.32846119425E+02  0.39310172573E+02  0.00000000000E+00 0.  1.
         -3    1    1    2    0  502  0.37121641723E+03 -0.11657953141E+03  0.14826831733E+03  0.41638432906E+03  0.00000000000E+00 0.  1.
<mgrwt>
<rscale>  4 0.42726071E+03</rscale>
<asrwt>0</asrwt>
<pdfrwt beam="1">  1       21 0.12600533E+00 0.42726071E+03</pdfrwt>
<pdfrwt beam="2">  1       -3 0.59284204E-01 0.42726071E+03</pdfrwt>
<totfact> 0.60229680E+01</totfact>
</mgrwt>
</event>
<event>
 5    0  0.5993533E-001  0.2905224E+03  0.7546771E-02  0.1090077E+00
          2   -1    0    0  502    0 -0.00000000000E+00  0.00000000000E+00  0.15419557266E+04  0.15419557266E+04  0.00000000000E+00 0.  1.
         21   -1    0    0  503  502  0.00000000000E+00 -0.00000000000E+00 -0.18273932497E+03  0.18273932497E+03  0.00000000000E+00 0.  1.
         25    1    1    2    0    0 -0.20441079087E+03 -0.16430009263E+03 -0.46067818768E+02  0.29415223233E+03  0.12500000000E+03 0.  0.
         21    1    1    2  503  501  0.25369047315E+02  0.54327629306E+01  0.90404230787E+02  0.94053327528E+02  0.00000000000E+00 0. -1.
          2    1    1    2  501    0  0.17904174355E+03  0.15886732969E+03  0.13148799896E+04  0.13364894917E+04  0.00000000000E+00 0.  1.
<mgrwt>
<rscale>  4 0.29052245E+03</rscale>
<asrwt>0</asrwt>
<pdfrwt beam="1">  1       21 0.28113743E-01 0.29052245E+03</pdfrwt>
<pdfrwt beam="2">  1        2 0.23722395E+00 0.29052245E+03</pdfrwt>
<totfact> 0.19244856E+03</totfact>
</mgrwt>
</event>
<event>
 5    0  0.5993533E-001  0.2462321E+03  0.7546771E-02  0.1115709E+00
          2   -1    0    0  502    0 -0.00000000000E+00  0.00000000000E+00  0.73518926207E+03  0.73518926207E+03  0.00000000000E+00 0.  1.
         21   -1    0    0  503  502  0.00000000000E+00 -0.00000000000E+00 -0.12988243171E+03  0.12988243171E+03  0.00000000000E+00 0.  1.
         25    1    1    2    0    0  0.10783511981E+03  0.21428576269E+03  0.12772084574E+03  0.29913945844E+03  0.12500000000E+03 0.  0.
         21    1    1    2  503  501  0.25137902009E+02 -0.56619436040E+02  0.21837711324E+02  0.65685312596E+02  0.00000000000E+00 0. -1.
          2    1    1    2  501    0 -0.13297302182E+03 -0.15766632665E+03  0.45574827331E+03  0.50024692274E+03  0.00000000000E+00 0.  1.
<mgrwt>
<rscale>  4 0.24623211E+03</rscale>
<asrwt>0</asrwt>
<pdfrwt beam="1">  1       21 0.19981913E-01 0.24623211E+03</pdfrwt>
<pdfrwt beam="2">  1        2 0.11310604E+00 0.24623211E+03</pdfrwt>
<totfact> 0.11375074E+04</totfact>
</mgrwt>
</event>
<event>
 5    0  0.5993533E-001  0.3558417E+03  0.7546771E-02  0.1060243E+00
         21   -1    0    0  503  502  0.00000000000E+00  0.00000000000E+00  0.20371142712E+03  0.20371142712E+03  0.00000000000E+00 0.  1.
          2   -1    0    0  502    0 -0.00000000000E+00 -0.00000000000E+00 -0.12296345494E+04  0.12296345494E+04  0.00000000000E+00 0.  1.
         25    1    1    2    0    0  0.17493727812E+03  0.28354056192E+03 -0.23084300343E+01  0.35584916802E+03  0.12500000000E+03 0.  0.
         21    1    1    2  503  501 -0.15217880221E+03 -0.26355657567E+03 -0.89366807986E+03  0.94406731401E+03  0.00000000000E+00 0.  1.
          2    1    1    2  501    0 -0.22758475917E+02 -0.19983986245E+02 -0.12994661238E+03  0.13342949450E+03  0.00000000000E+00 0.  1.
<mgrwt>
<rscale>  4 0.35584168E+03</rscale>
<asrwt>0</asrwt>
<pdfrwt beam="1">  1       21 0.31340219E-01 0.35584168E+03</pdfrwt>
<pdfrwt beam="2">  1        2 0.18917455E+00 0.35584168E+03</pdfrwt>
<totfact> 0.22590518E+03</totfact>
</mgrwt>
</event>
<event>
 5    0  0.5993533E-001  0.3404142E+03  0.7546771E-02  0.1066620E+00
         21   -1    0    0  503  502  0.00000000000E+00  0.00000000000E+00  0.30803908551E+03  0.30803908551E+03  0.00000000000E+00 0. -1.
          1   -1    0    0  502    0 -0.00000000000E+00 -0.00000000000E+00 -0.75707205316E+03  0.75707205316E+03  0.00000000000E+00 0. -1.
         25    1    1    2    0    0  0.22593596337E+03 -0.23711277168E+03  0.13895832992E+03  0.37709938145E+03  0.12500000000E+03 0.  0.
         21    1    1    2  503  501 -0.43338939043E+02  0.47913267602E+02 -0.30125426250E+02  0.71284543601E+02  0.00000000000E+00 0. -1.
          1    1    1    2  501    0 -0.18259702432E+03  0.18919950407E+03 -0.55786587133E+03  0.61672721362E+03  0.00000000000E+00 0. -1.
<mgrwt>
<rscale>  4 0.34041419E+03</rscale>
<asrwt>0</asrwt>
<pdfrwt beam="1">  1       21 0.47390629E-01 0.34041419E+03</pdfrwt>
<pdfrwt beam="2">  1        1 0.11647262E+00 0.34041419E+03</pdfrwt>
<totfact> 0.11227110E+03</totfact>
</mgrwt>
</event>
<event>
 5    0  0.5993533E-001  0.3319504E+03  0.7546771E-02  0.1070277E+00
         21   -1    0    0  503  502  0.00000000000E+00  0.00000000000E+00  0.32684449025E+03  0.32684449025E+03  0.00000000000E+00 0.  1.
          3   -1    0    0  502    0 -0.00000000000E+00 -0.00000000000E+00 -0.17803206897E+04  0.17803206897E+04  0.00000000000E+00 0. -1.
         25    1    1    2    0    0 -0.31104496170E+02 -0.30661109335E+03  0.22300861998E+03  0.40041940117E+03  0.12500000000E+03 0.  0.
         21    1    1    2  503  501 -0.18472708371E+02  0.14358396507E+02 -0.13662439018E+03  0.13861323349E+03  0.00000000000E+00 0.  1.
          3    1    1    2  501    0  0.49577204541E+02  0.29225269684E+03 -0.15398604292E+04  0.15681325452E+04  0.00000000000E+00 0. -1.
<mgrwt>
<rscale>  4 0.33195036E+03</rscale>
<asrwt>0</asrwt>
<pdfrwt beam="1">  1       21 0.50283768E-01 0.33195036E+03</pdfrwt>
<pdfrwt beam="2">  1        3 0.27389549E+00 0.33195036E+03</pdfrwt>
<totfact> 0.10739898E+01</totfact>
</mgrwt>
</event>
<event>
 5    0  0.5993533E-001  0.3301357E+03  0.7546771E-02  0.1071077E+00
         21   -1    0    0  503  502  0.00000000000E+00  0.00000000000E+00  0.31946056946E+03  0.31946056946E+03  0.00000000000E+00 0. -1.
          1   -1    0    0  502    0 -0.00000000000E+00 -0.00000000000E+00 -0.42899028087E+03  0.42899028087E+03  0.00000000000E+00 0. -1.
         25    1    1    2    0    0 -0.10650333434E+03 -0.29165954605E+03  0.10886715004E+03  0.35197344699E+03  0.12500000000E+03 0.  0.
         21    1    1    2  503  501  0.21624282740E+02 -0.31692998432E+00  0.80011131854E+00  0.21641400758E+02  0.00000000000E+00 0.  1.
          1    1    1    2  501    0  0.84879051600E+02  0.29197647603E+03 -0.21919697277E+03  0.37483600258E+03  0.00000000000E+00 0. -1.
<mgrwt>
<rscale>  4 0.33013569E+03</rscale>
<asrwt>0</asrwt>
<pdfrwt beam="1">  1       21 0.49147780E-01 0.33013569E+03</pdfrwt>
<pdfrwt beam="2">  1        1 0.65998504E-01 0.33013569E+03</pdfrwt>
<totfact> 0.23031524E+03</totfact>
</mgrwt>
</event>
<event>
 5    0  0.5993533E-001  0.2913084E+03  0.7546771E-02  0.1089668E+00
          1   -1    0    0  502    0 -0.00000000000E+00  0.00000000000E+00  0.18617807010E+03  0.18617807010E+03  0.00000000000E+00 0. -1.
         21   -1    0    0  503  502  0.00000000000E+00 -0.00000000000E+00 -0.15729691855E+04  0.15729691855E+04  0.00000000000E+00 0. -1.
         25    1    1    2    0    0  0.46752812402E+02 -0.27894529092E+03 -0.13897672381E+04  0.14237535872E+04  0.12500000000E+03 0.  0.
         21    1    1    2  503  501 -0.10490593207E+03  0.12520252697E+03 -0.34161775121E+02  0.16687706320E+03  0.00000000000E+00 0. -1.
          1    1    1    2  501    0  0.58153119672E+02  0.15374276395E+03  0.37137897819E+02  0.16851660527E+03  0.00000000000E+00 0. -1.
<mgrwt>
<rscale>  4 0.29130843E+03</rscale>
<asrwt>0</asrwt>
<pdfrwt beam="1">  1       21 0.24199525E+00 0.29130843E+03</pdfrwt>
<pdfrwt beam="2">  1        1 0.28642782E-01 0.29130843E+03</pdfrwt>
<totfact> 0.11925717E+02</totfact>
</mgrwt>
</event>
<event>
 5    0  0.5993533E-001  0.7509076E+03  0.7546771E-02  0.9879155E-01
         21   -1    0    0  503  502  0.00000000000E+00  0.00000000000E+00  0.10780880390E+04  0.10780880390E+04  0.00000000000E+00 0.  1.
          1   -1    0    0  502    0 -0.00000000000E+00 -0.00000000000E+00 -0.27795798255E+03  0.27795798255E+03  0.00000000000E+00 0. -1.
         25    1    1    2    0    0 -0.47047705681E+02  0.30515425058E+03  0.16101367566E+03  0.36997703579E+03  0.12500000000E+03 0.  0.
         21    1    1    2  503  501  0.93743102649E+02 -0.39468618444E+03  0.74445369698E+02  0.41244037939E+03  0.00000000000E+00 0. -1.
          1    1    1    2  501    0 -0.46695396968E+02  0.89531933859E+02  0.56467101110E+03  0.57362860638E+03  0.00000000000E+00 0. -1.
<mgrwt>
<rscale>  4 0.61282233E+03</rscale>
<asrwt>0</asrwt>
<pdfrwt beam="1">  1       21 0.16585970E+00 0.75090765E+03</pdfrwt>
<pdfrwt beam="2">  1        1 0.42762767E-01 0.75090765E+03</pdfrwt>
<totfact> 0.19718484E+02</totfact>
</mgrwt>
</event>
<event>
 5    0  0.5993533E-001  0.3318126E+03  0.7546771E-02  0.1070338E+00
         21   -1    0    0  503  502  0.00000000000E+00  0.00000000000E+00  0.15465958273E+03  0.15465958273E+03  0.00000000000E+00 0. -1.
          1   -1    0    0  502    0 -0.00000000000E+00 -0.00000000000E+00 -0.79549213825E+03  0.79549213825E+03  0.00000000000E+00 0. -1.
         25    1    1    2    0    0 -0.27153313510E+03 -0.14402898856E+03 -0.15517617138E+03  0.36630484186E+03  0.12500000000E+03 0.  0.
         21    1    1    2  503  501  0.24749546705E+03  0.10307137688E+03 -0.35524864930E+03  0.44506102702E+03  0.00000000000E+00 0. -1.
          1    1    1    2  501    0  0.24037668047E+02  0.40957611681E+02 -0.13040773484E+03  0.13878585211E+03  0.00000000000E+00 0. -1.
<mgrwt>
<rscale>  4 0.33181259E+03</rscale>
<asrwt>0</asrwt>
<pdfrwt beam="1">  1       21 0.23793782E-01 0.33181259E+03</pdfrwt>
<pdfrwt beam="2">  1        1 0.12238341E+00 0.33181259E+03</pdfrwt>
<totfact> 0.41489572E+03</totfact>
</mgrwt>
</event>
<event>
 5    0  0.5993533E-001  0.2980874E+03  0.7546771E-02  0.1086201E+00
          2   -1    0    0  502    0 -0.00000000000E+00  0.00000000000E+00  0.59342621555E+03  0.59342621555E+03  0.00000000000E+00 0. -1.
         21   -1    0    0  503  502  0.00000000000E+00 -0.00000000000E+00 -0.12128007554E+04  0.12128007554E+04  0.00000000000E+00 0.  1.
         25    1    1    2    0    0 -0.16415711985E+03  0.21396387177E+03 -0.11481808891E+04  0.11860322308E+04  0.12500000000E+03 0.  0.
         21    1    1    2  503  501 -0.21783937611E+02  0.16909780477E+02  0.47336998170E+02  0.54783866324E+02  0.00000000000E+00 0. -1.
          2    1    1    2  501    0  0.18594105746E+03 -0.23087365225E+03  0.48146935110E+03  0.56541087379E+03  0.00000000000E+00 0. -1.
<mgrwt>
<rscale>  4 0.29808739E+03</rscale>
<asrwt>0</asrwt>
<pdfrwt beam="1">  1       21 0.18658473E+00 0.29808739E+03</pdfrwt>
<pdfrwt beam="2">  1        2 0.91296342E-01 0.29808739E+03</pdfrwt>
<totfact> 0.97314614E+01</totfact>
</mgrwt>
</event>
<event>
 5    0  0.5993533E-001  0.2392272E+03  0.7546771E-02  0.1120309E+00
          2   -1    0    0  502    0 -0.00000000000E+00  0.00000000000E+00  0.25603466590E+04  0.25603466590E+04  0.00000000000E+00 0.  1.
         21   -1    0    0  503  502  0.00000000000E+00 -0.00000000000E+00 -0.85150151096E+02  0.85150151096E+02  0.00000000000E+00 0. -1.
         25    1    1    2    0    0  0.16023587070E+03 -0.12721045411E+03  0.10290677516E+03  0.26090771983E+03  0.12500000000E+03 0.  0.
         21    1    1    2  503  501  0.56460707497E+01  0.20936427315E+02  0.57859624540E+02  0.61789548109E+02  0.00000000000E+00 0.  1.
          2    1    1    2  501    0 -0.16588194145E+03  0.10627402679E+03  0.23144301082E+04  0.23227995421E+04  0.00000000000E+00 0.  1.
<mgrwt>
<rscale>  4 0.23922719E+03</rscale>
<asrwt>0</asrwt>
<pdfrwt beam="1">  1       21 0.13100025E-01 0.23922719E+03</pdfrwt>
<pdfrwt beam="2">  1        2 0.39389943E+00 0.23922719E+03</pdfrwt>
<totfact> 0.23710740E+03</totfact>
</mgrwt>
</event>
<event>
 5    0  0.5993533E-001  0.2833183E+03  0.7546771E-02  0.1093890E+00
          4   -1    0    0  502    0 -0.00000000000E+00  0.00000000000E+00  0.91761880070E+02  0.91761880070E+02  0.00000000000E+00 0.  1.
         21   -1    0    0  503  502  0.00000000000E+00 -0.00000000000E+00 -0.87297415069E+03  0.87297415069E+03  0.00000000000E+00 0.  1.
         25    1    1    2    0    0 -0.25330078152E+03  0.24567201956E+02 -0.38197161476E+03  0.47570174250E+03  0.12500000000E+03 0.  0.
         21    1    1    2  503  501  0.32483473747E+01  0.23025270653E+02 -0.64112898581E+02  0.68199549953E+02  0.00000000000E+00 0. -1.
          4    1    1    2  501    0  0.25005243415E+03 -0.47592472608E+02 -0.33512775728E+03  0.42083473831E+03  0.00000000000E+00 0.  1.
<mgrwt>
<rscale>  4 0.28331827E+03</rscale>
<asrwt>0</asrwt>
<pdfrwt beam="1">  1       21 0.13430371E+00 0.28331827E+03</pdfrwt>
<pdfrwt beam="2">  1        4 0.14117213E-01 0.28331827E+03</pdfrwt>
<totfact> 0.69311292E+02</totfact>
</mgrwt>
</event>
<event>
 5    0  0.5993533E-001  0.2753045E+03  0.7546771E-02  0.1098282E+00
         21   -1    0    0  503  502  0.00000000000E+00  0.00000000000E+00  0.78249144961E+02  0.78249144961E+02  0.00000000000E+00 0.  1.
          2   -1    0    0  502    0 -0.00000000000E+00 -0.00000000000E+00 -0.18143667412E+04  0.18143667412E+04  0.00000000000E+00 0. -1.
         25    1    1    2    0    0  0.15521400254E+03  0.20228753980E+03 -0.24998170917E+03  0.37832193997E+03  0.12500000000E+03 0.  0.
         21    1    1    2  503  501 -0.69098536578E+02 -0.98307738907E+01 -0.22254129385E+03  0.23322924204E+03  0.00000000000E+00 0. -1.
          2    1    1    2  501    0 -0.86115465959E+02 -0.19245676591E+03 -0.12635945933E+04  0.12810647042E+04  0.00000000000E+00 0. -1.
<mgrwt>
<rscale>  4 0.27530448E+03</rscale>
<asrwt>0</asrwt>
<pdfrwt beam="1">  1       21 0.12038331E-01 0.27530448E+03</pdfrwt>
<pdfrwt beam="2">  1        2 0.27913332E+00 0.27530448E+03</pdfrwt>
<totfact> 0.67953957E+03</totfact>
</mgrwt>
</event>
<event>
 5    0  0.5993533E-001  0.8069620E+03  0.7546771E-02  0.9549994E-01
          2   -1    0    0  502    0 -0.00000000000E+00  0.00000000000E+00  0.69302102836E+03  0.69302102836E+03  0.00000000000E+00 0. -1.
         21   -1    0    0  503  502  0.00000000000E+00 -0.00000000000E+00 -0.10979310840E+04  0.10979310840E+04  0.00000000000E+00 0.  1.
         25    1    1    2    0    0 -0.75256312247E+03 -0.26308058709E+03 -0.55096273966E+03  0.97711186110E+03  0.12500000000E+03 0.  0.
         21    1    1    2  503  501  0.29226684520E+02  0.13211533022E+02 -0.83466960126E+01  0.33142284579E+02  0.00000000000E+00 0. -1.
          2    1    1    2  501    0  0.72333643795E+03  0.24986905407E+03  0.15439938003E+03  0.78069796669E+03  0.00000000000E+00 0. -1.
<mgrwt>
<rscale>  4 0.80696199E+03</rscale>
<asrwt>0</asrwt>
<pdfrwt beam="1">  1       21 0.16891247E+00 0.80696199E+03</pdfrwt>
<pdfrwt beam="2">  1        2 0.10661862E+00 0.80696199E+03</pdfrwt>
<totfact> 0.90622583E+01</totfact>
</mgrwt>
</event>
<event>
 5    0  0.5993533E-001  0.3835483E+03  0.7546771E-02  0.1050004E+00
         21   -1    0    0  503  502  0.00000000000E+00  0.00000000000E+00  0.85368907366E+03  0.85368907366E+03  0.00000000000E+00 0.  1.
          2   -1    0    0  502    0 -0.00000000000E+00 -0.00000000000E+00 -0.96116615729E+03  0.96116615729E+03  0.00000000000E+00 0. -1.
         25    1    1    2    0    0  0.18589129426E+02  0.35781174714E+03  0.76933046082E+03  0.85782816465E+03  0.12500000000E+03 0.  0.
         21    1    1    2  503  501  0.39248740532E+02 -0.61042206663E+02 -0.10087493919E+03  0.12426732469E+03  0.00000000000E+00 0. -1.
          2    1    1    2  501    0 -0.57837869958E+02 -0.29676954047E+03 -0.77593260525E+03  0.83275974161E+03  0.00000000000E+00 0. -1.
<mgrwt>
<rscale>  4 0.38252544E+03</rscale>
<asrwt>0</asrwt>
<pdfrwt beam="1">  1       21 0.13133678E+00 0.38354835E+03</pdfrwt>
<pdfrwt beam="2">  1        2 0.14787171E+00 0.38354835E+03</pdfrwt>
<totfact> 0.13212819E+02</totfact>
</mgrwt>
</event>
<event>
 5    0  0.5993533E-001  0.2422576E+03  0.7546771E-02  0.1118298E+00
         21   -1    0    0  501  502  0.00000000000E+00  0.00000000000E+00  0.21280383731E+03  0.21280383731E+03  0.00000000000E+00 0. -1.
         -2   -1    0    0    0  501 -0.00000000000E+00 -0.00000000000E+00 -0.33573507659E+03  0.33573507659E+03  0.00000000000E+00 0. -1.
         25    1    1    2    0    0  0.11862600263E+03  0.17026923502E+03  0.75576782409E+02  0.25377271511E+03  0.12500000000E+03 0.  0.
         21    1    1    2  501  501 -0.20499208212E+02 -0.13860794052E+02 -0.15498162139E+01  0.24793972642E+02  0.00000000000E+00 0. -1.
         -2    1    1    2    0  502 -0.98126794416E+02 -0.15640844097E+03 -0.19695820548E+03  0.26997222615E+03  0.00000000000E+00 0. -1.
<mgrwt>
<rscale>  4 0.24225759E+03</rscale>
<asrwt>0</asrwt>
<pdfrwt beam="1">  1       21 0.32739052E-01 0.24225759E+03</pdfrwt>
<pdfrwt beam="2">  1       -2 0.51651550E-01 0.24225759E+03</pdfrwt>
<totfact> 0.25923433E+03</totfact>
</mgrwt>
</event>
<event>
 5    0  0.5993533E-001  0.2876976E+03  0.7546771E-02  0.1091557E+00
         21   -1    0    0  503  502  0.00000000000E+00  0.00000000000E+00  0.19133837083E+03  0.19133837083E+03  0.00000000000E+00 0.  1.
          1   -1    0    0  502    0 -0.00000000000E+00 -0.00000000000E+00 -0.80453881131E+03  0.80453881131E+03  0.00000000000E+00 0.  1.
         25    1    1    2    0    0 -0.37008420407E+01 -0.25909689000E+03  0.38383742644E+02  0.29024680246E+03  0.12500000000E+03 0.  0.
         21    1    1    2  503  501  0.24443055173E+02  0.41875476506E+02 -0.76864827541E+02  0.90880251935E+02  0.00000000000E+00 0.  1.
          1    1    1    2  501    0 -0.20742213132E+02  0.21722141349E+03 -0.57471935558E+03  0.61475012774E+03  0.00000000000E+00 0.  1.
<mgrwt>
<rscale>  4 0.28769757E+03</rscale>
<asrwt>0</asrwt>
<pdfrwt beam="1">  1       21 0.29436673E-01 0.28769757E+03</pdfrwt>
<pdfrwt beam="2">  1        1 0.12377520E+00 0.28769757E+03</pdfrwt>
<totfact> 0.27275091E+03</totfact>
</mgrwt>
</event>
<event>
 5    0  0.5993533E-001  0.2612749E+03  0.7546771E-02  0.1106380E+00
         21   -1    0    0  503  502  0.00000000000E+00  0.00000000000E+00  0.35167098141E+02  0.35167098141E+02  0.00000000000E+00 0. -1.
          2   -1    0    0  502    0 -0.00000000000E+00 -0.00000000000E+00 -0.19650613571E+04  0.19650613571E+04  0.00000000000E+00 0. -1.
         25    1    1    2    0    0  0.22596768472E+03 -0.39726099763E+02 -0.68948620623E+03  0.73733017443E+03  0.12500000000E+03 0.  0.
         21    1    1    2  503  501 -0.19564841507E+02  0.17087959559E+02 -0.81623338808E+02  0.85657170297E+02  0.00000000000E+00 0. -1.
          2    1    1    2  501    0 -0.20640284321E+03  0.22638140205E+02 -0.11587847139E+04  0.11772411105E+04  0.00000000000E+00 0. -1.
<mgrwt>
<rscale>  4 0.26127487E+03</rscale>
<asrwt>0</asrwt>
<pdfrwt beam="1">  1       21 0.54103233E-02 0.26127487E+03</pdfrwt>
<pdfrwt beam="2">  1        2 0.30231710E+00 0.26127487E+03</pdfrwt>
<totfact> 0.23165665E+04</totfact>
</mgrwt>
</event>
<event>
 5    0  0.5993533E-001  0.2576659E+03  0.7546771E-02  0.1108554E+00
          2   -1    0    0  502    0 -0.00000000000E+00  0.00000000000E+00  0.15302184371E+04  0.15302184371E+04  0.00000000000E+00 0.  1.
         21   -1    0    0  503  502  0.00000000000E+00 -0.00000000000E+00 -0.46192736340E+02  0.46192736340E+02  0.00000000000E+00 0.  1.
         25    1    1    2    0    0  0.13380880506E+03 -0.18127858429E+03  0.46379783721E+03  0.53056588208E+03  0.12500000000E+03 0.  0.
         21    1    1    2  503  501 -0.81196997861E+01  0.40097078887E+02  0.19507231310E+03  0.19931611224E+03  0.00000000000E+00 0.  1.
          2    1    1    2  501    0 -0.12568910528E+03  0.14118150540E+03  0.82515555044E+03  0.84652917910E+03  0.00000000000E+00 0.  1.
<mgrwt>
<rscale>  4 0.25766591E+03</rscale>
<asrwt>0</asrwt>
<pdfrwt beam="1">  1       21 0.71065760E-02 0.25766591E+03</pdfrwt>
<pdfrwt beam="2">  1        2 0.23541818E+00 0.25766591E+03</pdfrwt>
<totfact> 0.24535196E+04</totfact>
</mgrwt>
</event>
<event>
 5    0  0.5993533E-001  0.2562536E+03  0.7546771E-02  0.1109415E+00
         21   -1    0    0  501  502  0.00000000000E+00  0.00000000000E+00  0.25830875078E+03  0.25830875078E+03  0.00000000000E+00 0.  1.
         -3   -1    0    0    0  501 -0.00000000000E+00 -0.00000000000E+00 -0.51157026922E+03  0.51157026922E+03  0.00000000000E+00 0. -1.
         25    1    1    2    0    0 -0.40034468649E+02 -0.24580765611E+03  0.11592785970E+03  0.30180860017E+03  0.12500000000E+03 0.  0.
         21    1    1    2  501  501 -0.39830188839E+02  0.89573044997E+02 -0.20739970200E+03  0.22940011055E+03  0.00000000000E+00 0.  1.
         -3    1    1    2    0  502  0.79864657488E+02  0.15623461111E+03 -0.16178967615E+03  0.23867030928E+03  0.00000000000E+00 0. -1.
<mgrwt>
<rscale>  4 0.25625362E+03</rscale>
<asrwt>0</asrwt>
<pdfrwt beam="1">  1       21 0.39739808E-01 0.25625362E+03</pdfrwt>
<pdfrwt beam="2">  1       -3 0.78703118E-01 0.25625362E+03</pdfrwt>
<totfact> 0.46076582E+02</totfact>
</mgrwt>
</event>
<event>
 5    0  0.5993533E-001  0.2543874E+03  0.7546771E-02  0.1110563E+00
          2   -1    0    0  502    0 -0.00000000000E+00  0.00000000000E+00  0.56842051803E+03  0.56842051803E+03  0.00000000000E+00 0.  1.
         21   -1    0    0  503  502  0.00000000000E+00 -0.00000000000E+00 -0.22648742002E+03  0.22648742002E+03  0.00000000000E+00 0.  1.
         25    1    1    2    0    0  0.31542066411E+02 -0.21930128787E+03 -0.11515604464E+03  0.27923801932E+03  0.12500000000E+03 0.  0.
         21    1    1    2  503  501 -0.75677972769E+01  0.57480722075E+02  0.48633812791E+02  0.75673989669E+02  0.00000000000E+00 0.  1.
          2    1    1    2  501    0 -0.23974269134E+02  0.16182056580E+03  0.40845532987E+03  0.43999592906E+03  0.00000000000E+00 0.  1.
<mgrwt>
<rscale>  4 0.25438741E+03</rscale>
<asrwt>0</asrwt>
<pdfrwt beam="1">  1       21 0.34844219E-01 0.25438741E+03</pdfrwt>
<pdfrwt beam="2">  1        2 0.87449310E-01 0.25438741E+03</pdfrwt>
<totfact> 0.52583287E+03</totfact>
</mgrwt>
</event>
<event>
 5    0  0.5993533E-001  0.2878406E+03  0.7546771E-02  0.1091482E+00
         21   -1    0    0  503  502  0.00000000000E+00  0.00000000000E+00  0.53601801147E+02  0.53601801147E+02  0.00000000000E+00 0. -1.
          2   -1    0    0  502    0 -0.00000000000E+00 -0.00000000000E+00 -0.14252110686E+04  0.14252110686E+04  0.00000000000E+00 0. -1.
         25    1    1    2    0    0  0.21550897668E+03 -0.14416333115E+03 -0.67420919647E+03  0.73308268680E+03  0.12500000000E+03 0.  0.
         21    1    1    2  503  501 -0.15610514924E+03  0.10881250127E+03 -0.44372445152E+03  0.48280468818E+03  0.00000000000E+00 0. -1.
          2    1    1    2  501    0 -0.59403827441E+02  0.35350829881E+02 -0.25367561943E+03  0.26292549474E+03  0.00000000000E+00 0. -1.
<mgrwt>
<rscale>  4 0.28784055E+03</rscale>
<asrwt>0</asrwt>
<pdfrwt beam="1">  1       21 0.82464307E-02 0.28784055E+03</pdfrwt>
<pdfrwt beam="2">  1        2 0.21926325E+00 0.28784055E+03</pdfrwt>
<totfact> 0.21406409E+04</totfact>
</mgrwt>
</event>
<event>
 5    0  0.5993533E-001  0.2887689E+03  0.7546771E-02  0.1090994E+00
          2   -1    0    0  502    0 -0.00000000000E+00  0.00000000000E+00  0.18153909945E+04  0.18153909945E+04  0.00000000000E+00 0. -1.
         21   -1    0    0  503  502  0.00000000000E+00 -0.00000000000E+00 -0.44737270032E+02  0.44737270032E+02  0.00000000000E+00 0. -1.
         25    1    1    2    0    0 -0.33889176369E+02 -0.25809692726E+03  0.11587553406E+04  0.11941948917E+04  0.12500000000E+03 0.  0.
         21    1    1    2  503  501  0.75013782963E+01  0.29176649168E+02  0.46806581315E+02  0.55663305573E+02  0.00000000000E+00 0. -1.
          2    1    1    2  501    0  0.26387798072E+02  0.22892027809E+03  0.56509180258E+03  0.61027006722E+03  0.00000000000E+00 0. -1.
<mgrwt>
<rscale>  4 0.28876894E+03</rscale>
<asrwt>0</asrwt>
<pdfrwt beam="1">  1       21 0.68826583E-02 0.28876894E+03</pdfrwt>
<pdfrwt beam="2">  1        2 0.27929087E+00 0.28876894E+03</pdfrwt>
<totfact> 0.18199168E+04</totfact>
</mgrwt>
</event>
<event>
 5    0  0.5993533E-001  0.2470398E+03  0.7546771E-02  0.1115190E+00
         21   -1    0    0  503  502  0.00000000000E+00  0.00000000000E+00  0.64231037645E+02  0.64231037645E+02  0.00000000000E+00 0. -1.
          2   -1    0    0  502    0 -0.00000000000E+00 -0.00000000000E+00 -0.83793632197E+03  0.83793632197E+03  0.00000000000E+00 0. -1.
         25    1    1    2    0    0 -0.13565435676E+03 -0.16432153797E+03 -0.40744722152E+03  0.47648915064E+03  0.12500000000E+03 0.  0.
         21    1    1    2  503  501  0.28119782251E+02  0.19639016636E+02 -0.38086144256E+02  0.51253951190E+02  0.00000000000E+00 0. -1.
          2    1    1    2  501    0  0.10753457451E+03  0.14468252134E+03 -0.32817191855E+03  0.37442425779E+03  0.00000000000E+00 0. -1.
<mgrwt>
<rscale>  4 0.24703982E+03</rscale>
<asrwt>0</asrwt>
<pdfrwt beam="1">  1       21 0.98816972E-02 0.24703982E+03</pdfrwt>
<pdfrwt beam="2">  1        2 0.12891329E+00 0.24703982E+03</pdfrwt>
<totfact> 0.34795963E+04</totfact>
</mgrwt>
</event>
<event>
 5    0  0.5993533E-001  0.3396366E+03  0.7546771E-02  0.1066951E+00
          2   -1    0    0  502    0 -0.00000000000E+00  0.00000000000E+00  0.51353114463E+03  0.51353114463E+03  0.00000000000E+00 0. -1.
         21   -1    0    0  503  502  0.00000000000E+00 -0.00000000000E+00 -0.22850934380E+03  0.22850934380E+03  0.00000000000E+00 0.  1.
         25    1    1    2    0    0  0.16920711047E+03  0.26664019475E+03  0.22375570272E+03  0.40671815080E+03  0.12500000000E+03 0.  0.
         21    1    1    2  503  501 -0.11431610215E+03 -0.99035735394E+02  0.46995397624E+02  0.15838186605E+03  0.00000000000E+00 0. -1.
          2    1    1    2  501    0 -0.54891008329E+02 -0.16760445935E+03  0.14270700483E+02  0.17694047158E+03  0.00000000000E+00 0. -1.
<mgrwt>
<rscale>  4 0.33963663E+03</rscale>
<asrwt>0</asrwt>
<pdfrwt beam="1">  1       21 0.35155284E-01 0.33963663E+03</pdfrwt>
<pdfrwt beam="2">  1        2 0.79004791E-01 0.33963663E+03</pdfrwt>
<totfact> 0.56922161E+03</totfact>
</mgrwt>
</event>
<event>
 5    0  0.5993533E-001  0.3543417E+03  0.7546771E-02  0.1060847E+00
          1   -1    0    0  502    0 -0.00000000000E+00  0.00000000000E+00  0.97588676489E+03  0.97588676489E+03  0.00000000000E+00 0. -1.
         21   -1    0    0  503  502  0.00000000000E+00 -0.00000000000E+00 -0.24395670049E+03  0.24395670049E+03  0.00000000000E+00 0. -1.
         25    1    1    2    0    0  0.31754401768E+03 -0.95387927471E+02 -0.61023368214E+02  0.35955793878E+03  0.12500000000E+03 0.  0.
         21    1    1    2  503  501 -0.18053662110E+02  0.92838165300E+01  0.30824398386E+02  0.36908908150E+02  0.00000000000E+00 0. -1.
          1    1    1    2  501    0 -0.29949035557E+03  0.86104110941E+02  0.76212903423E+03  0.82337661845E+03  0.00000000000E+00 0. -1.
<mgrwt>
<rscale>  4 0.35434173E+03</rscale>
<asrwt>0</asrwt>
<pdfrwt beam="1">  1       21 0.37531801E-01 0.35434173E+03</pdfrwt>
<pdfrwt beam="2">  1        1 0.15013642E+00 0.35434173E+03</pdfrwt>
<totfact> 0.12011155E+03</totfact>
</mgrwt>
</event>
<event>
 5    0  0.5993533E-001  0.2657558E+03  0.7546771E-02  0.1103734E+00
          2   -1    0    0  502    0 -0.00000000000E+00  0.00000000000E+00  0.22838793035E+04  0.22838793035E+04  0.00000000000E+00 0. -1.
         21   -1    0    0  503  502  0.00000000000E+00 -0.00000000000E+00 -0.15782663193E+03  0.15782663193E+03  0.00000000000E+00 0. -1.
         25    1    1    2    0    0 -0.14825049716E+03  0.18373783085E+03 -0.29881426731E+02  0.26880420395E+03  0.12500000000E+03 0.  0.
         21    1    1    2  503  501 -0.32164707629E+01 -0.39077571618E+02  0.12047870555E+03  0.12669854292E+03  0.00000000000E+00 0. -1.
          2    1    1    2  501    0  0.15146696792E+03 -0.14466025924E+03  0.20354553927E+04  0.20462031886E+04  0.00000000000E+00 0. -1.
<mgrwt>
<rscale>  4 0.26575580E+03</rscale>
<asrwt>0</asrwt>
<pdfrwt beam="1">  1       21 0.24281022E-01 0.26575580E+03</pdfrwt>
<pdfrwt beam="2">  1        2 0.35136602E+00 0.26575580E+03</pdfrwt>
<totfact> 0.10468338E+03</totfact>
</mgrwt>
</event>
<event>
 5    0  0.5993533E-001  0.2951971E+03  0.7546771E-02  0.1087666E+00
          1   -1    0    0  502    0 -0.00000000000E+00  0.00000000000E+00  0.17444984996E+04  0.17444984996E+04  0.00000000000E+00 0.  1.
         21   -1    0    0  503  502  0.00000000000E+00 -0.00000000000E+00 -0.43488751686E+03  0.43488751686E+03  0.00000000000E+00 0.  1.
         25    1    1    2    0    0  0.23433185900E+03  0.12886001574E+03 -0.37240010509E+03  0.47520854587E+03  0.12500000000E+03 0.  0.
         21    1    1    2  503  501 -0.16071204592E+02 -0.26923963239E+02  0.14037198687E+03  0.14383142255E+03  0.00000000000E+00 0.  1.
          1    1    1    2  501    0 -0.21826065440E+03 -0.10193605250E+03  0.15416391009E+04  0.15603460480E+04  0.00000000000E+00 0.  1.
<mgrwt>
<rscale>  4 0.29519709E+03</rscale>
<asrwt>0</asrwt>
<pdfrwt beam="1">  1       21 0.66905772E-01 0.29519709E+03</pdfrwt>
<pdfrwt beam="2">  1        1 0.26838438E+00 0.29519709E+03</pdfrwt>
<totfact> 0.10690366E+02</totfact>
</mgrwt>
</event>
<event>
 5    0  0.5993533E-001  0.2892865E+03  0.7546771E-02  0.1090722E+00
         21   -1    0    0  503  502  0.00000000000E+00  0.00000000000E+00  0.16441004888E+03  0.16441004888E+03  0.00000000000E+00 0. -1.
          1   -1    0    0  502    0 -0.00000000000E+00 -0.00000000000E+00 -0.58925083350E+03  0.58925083350E+03  0.00000000000E+00 0.  1.
         25    1    1    2    0    0 -0.11979039962E+03 -0.23175841815E+03 -0.53710643356E+02  0.29423041555E+03  0.12500000000E+03 0.  0.
         21    1    1    2  503  501  0.19818226146E+02  0.28741552503E+02 -0.16179228528E+02  0.38478648152E+02  0.00000000000E+00 0. -1.
          1    1    1    2  501    0  0.99972173470E+02  0.20301686564E+03 -0.35495091273E+03  0.42095181868E+03  0.00000000000E+00 0.  1.
<mgrwt>
<rscale>  4 0.28928654E+03</rscale>
<asrwt>0</asrwt>
<pdfrwt beam="1">  1       21 0.25293854E-01 0.28928654E+03</pdfrwt>
<pdfrwt beam="2">  1        1 0.90653974E-01 0.28928654E+03</pdfrwt>
<totfact> 0.57773959E+03</totfact>
</mgrwt>
</event>
<event>
 5    0  0.5993533E-001  0.2300623E+03  0.7546771E-02  0.1126596E+00
          3   -1    0    0  502    0 -0.00000000000E+00  0.00000000000E+00  0.57390470974E+02  0.57390470974E+02  0.00000000000E+00 0. -1.
         21   -1    0    0  503  502  0.00000000000E+00 -0.00000000000E+00 -0.11079635698E+04  0.11079635698E+04  0.00000000000E+00 0. -1.
         25    1    1    2    0    0  0.21120394587E+03  0.17332840350E+02 -0.37489872962E+03  0.44842122114E+03  0.12500000000E+03 0.  0.
         21    1    1    2  503  501 -0.26598951255E+02  0.10000021088E+02 -0.18821429516E+02  0.34084466237E+02  0.00000000000E+00 0. -1.
          3    1    1    2  501    0 -0.18460499461E+03 -0.27332861437E+02 -0.65685293973E+03  0.68284835343E+03  0.00000000000E+00 0. -1.
<mgrwt>
<rscale>  4 0.23006231E+03</rscale>
<asrwt>0</asrwt>
<pdfrwt beam="1">  1       21 0.17045593E+00 0.23006231E+03</pdfrwt>
<pdfrwt beam="2">  1        3 0.88293033E-02 0.23006231E+03</pdfrwt>
<totfact> 0.93624430E+02</totfact>
</mgrwt>
</event>
<event>
 5    0  0.5993533E-001  0.5315883E+03  0.7546771E-02  0.1005848E+00
          2   -1    0    0  502    0 -0.00000000000E+00  0.00000000000E+00  0.11856400040E+04  0.11856400040E+04  0.00000000000E+00 0.  1.
         21   -1    0    0  503  502  0.00000000000E+00 -0.00000000000E+00 -0.23456593936E+03  0.23456593936E+03  0.00000000000E+00 0. -1.
         25    1    1    2    0    0 -0.43581162848E+03 -0.27754168481E+03  0.43065013190E+03  0.68413865439E+03  0.12500000000E+03 0.  0.
         21    1    1    2  503  501  0.26185582725E+02  0.18437396710E+02  0.13630102842E+02  0.34805201387E+02  0.00000000000E+00 0. -1.
          2    1    1    2  501    0  0.40962604576E+03  0.25910428810E+03  0.50679382993E+03  0.70126208761E+03  0.00000000000E+00 0.  1.
<mgrwt>
<rscale>  4 0.53158834E+03</rscale>
<asrwt>0</asrwt>
<pdfrwt beam="1">  1       21 0.36087068E-01 0.53158834E+03</pdfrwt>
<pdfrwt beam="2">  1        2 0.18240615E+00 0.53158834E+03</pdfrwt>
<totfact> 0.17308321E+03</totfact>
</mgrwt>
</event>
<event>
 5    0  0.5993533E-001  0.2679794E+03  0.7546771E-02  0.1102442E+00
         21   -1    0    0  503  502  0.00000000000E+00  0.00000000000E+00  0.63931208919E+03  0.63931208919E+03  0.00000000000E+00 0. -1.
          2   -1    0    0  502    0 -0.00000000000E+00 -0.00000000000E+00 -0.81236313649E+03  0.81236313649E+03  0.00000000000E+00 0.  1.
         25    1    1    2    0    0  0.20142194279E+03 -0.13425457047E+03  0.58454410785E+03  0.64491232176E+03  0.12500000000E+03 0.  0.
         21    1    1    2  503  501 -0.42897814965E+02  0.53798273946E+02 -0.41626044947E+03  0.42190904067E+03  0.00000000000E+00 0.  1.
          2    1    1    2  501    0 -0.15852412782E+03  0.80456296523E+02 -0.34133470568E+03  0.38485386325E+03  0.00000000000E+00 0.  1.
<mgrwt>
<rscale>  4 0.26797943E+03</rscale>
<asrwt>0</asrwt>
<pdfrwt beam="1">  1       21 0.98355707E-01 0.26797943E+03</pdfrwt>
<pdfrwt beam="2">  1        2 0.12497894E+00 0.26797943E+03</pdfrwt>
<totfact> 0.35867228E+02</totfact>
</mgrwt>
</event>
<event>
 5    0  0.5993533E-001  0.2269047E+03  0.7546771E-02  0.1128838E+00
         21   -1    0    0  501  502  0.00000000000E+00  0.00000000000E+00  0.24742143111E+03  0.24742143111E+03  0.00000000000E+00 0.  1.
         -2   -1    0    0    0  501 -0.00000000000E+00 -0.00000000000E+00 -0.24366197357E+03  0.24366197357E+03  0.00000000000E+00 0. -1.
         25    1    1    2    0    0 -0.18355503339E+03 -0.94499016915E+02  0.78640615312E+02  0.25383431773E+03  0.12500000000E+03 0.  0.
         21    1    1    2  501  501  0.13339662527E+02  0.25422107062E+02  0.15384683551E+02  0.32571745605E+02  0.00000000000E+00 0.  1.
         -2    1    1    2    0  502  0.17021537086E+03  0.69076909854E+02 -0.90265841322E+02  0.20467734135E+03  0.00000000000E+00 0. -1.
<mgrwt>
<rscale>  4 0.22690469E+03</rscale>
<asrwt>0</asrwt>
<pdfrwt beam="1">  1       21 0.38064835E-01 0.22690469E+03</pdfrwt>
<pdfrwt beam="2">  1       -2 0.37486458E-01 0.22690469E+03</pdfrwt>
<totfact> 0.35940737E+03</totfact>
</mgrwt>
</event>
