<event>
 5    0  0.1856407E+000  0.3923442E+03  0.7546771E-02  0.1046463E+00
         21   -1    0    0  502  501  0.00000000000E+00  0.00000000000E+00  0.11623422523E+04  0.11623422523E+04  0.00000000000E+00 0.  1.
         21   -1    0    0  503  502 -0.00000000000E+00 -0.00000000000E+00 -0.16491096369E+03  0.16491096369E+03  0.00000000000E+00 0.  1.
         25    1    1    2    0    0  0.28256231655E+03  0.24180061489E+03  0.81131595562E+03  0.90120340653E+03  0.12500000000E+03 0.  0.
         21    1    1    2  503  504 -0.16057910431E+03 -0.14369195943E+03  0.56382140298E+02  0.22273745462E+03  0.00000000000E+00 0.  1.
         21    1    1    2  504  501 -0.12198321224E+03 -0.98108655459E+02  0.12973319268E+03  0.20331235483E+03  0.00000000000E+00 0.  1.
<mgrwt>
<rscale>  4 0.39234424E+03</rscale>
<asrwt>0</asrwt>
<pdfrwt beam="1">  1       21 0.17882188E+00 0.39234424E+03</pdfrwt>
<pdfrwt beam="2">  1       21 0.25370918E-01 0.39234424E+03</pdfrwt>
<totfact> 0.23874122E+03</totfact>
</mgrwt>
</event>
<event>
 5    0  0.1856407E+000  0.4053855E+03  0.7546771E-02  0.1041931E+00
         21   -1    0    0  502  501  0.00000000000E+00  0.00000000000E+00  0.44446430341E+03  0.44446430341E+03  0.00000000000E+00 0.  1.
         21   -1    0    0  503  502 -0.00000000000E+00 -0.00000000000E+00 -0.39077504114E+03  0.39077504114E+03  0.00000000000E+00 0. -1.
         25    1    1    2    0    0 -0.17280784053E+03 -0.34474608969E+03  0.13614777621E+03  0.42763726811E+03  0.12500000000E+03 0.  0.
         21    1    1    2  503  504  0.35372467134E+02  0.10736387307E+02  0.69958041995E+00  0.36972568971E+02  0.00000000000E+00 0. -1.
         21    1    1    2  504  501  0.13743537340E+03  0.33400970239E+03 -0.83158094357E+02  0.37062950747E+03  0.00000000000E+00 0. -1.
<mgrwt>
<rscale>  4 0.40538552E+03</rscale>
<asrwt>0</asrwt>
<pdfrwt beam="1">  1       21 0.68379124E-01 0.40538552E+03</pdfrwt>
<pdfrwt beam="2">  1       21 0.60119237E-01 0.40538552E+03</pdfrwt>
<totfact> 0.44888911E+03</totfact>
</mgrwt>
</event>
<event>
 5    0  0.1856407E+000  0.2796104E+03  0.7546771E-02  0.1095902E+00
         21   -1    0    0  502  501  0.00000000000E+00  0.00000000000E+00  0.16297662635E+03  0.16297662635E+03  0.00000000000E+00 0.  1.
         21   -1    0    0  503  502 -0.00000000000E+00 -0.00000000000E+00 -0.18264918959E+04  0.18264918959E+04  0.00000000000E+00 0. -1.
         25    1    1    2    0    0 -0.24088831825E+03 -0.67303823487E+02  0.23751054502E+02  0.28061735356E+03  0.12500000000E+03 0.  0.
         21    1    1    2  503  504  0.12263928090E+03  0.83606569381E+02 -0.10583387354E+04  0.10686960889E+04  0.00000000000E+00 0. -1.
         21    1    1    2  504  501  0.11824903735E+03 -0.16302745895E+02 -0.62892758865E+03  0.64015507974E+03  0.00000000000E+00 0. -1.
<mgrwt>
<rscale>  4 0.27961042E+03</rscale>
<asrwt>0</asrwt>
<pdfrwt beam="1">  1       21 0.25073328E-01 0.27961042E+03</pdfrwt>
<pdfrwt beam="2">  1       21 0.28099874E+00 0.27961042E+03</pdfrwt>
<totfact> 0.59942083E+02</totfact>
</mgrwt>
</event>
<event>
 5    0  0.1856407E+000  0.2406468E+03  0.7546771E-02  0.1119363E+00
         21   -1    0    0  502  501  0.00000000000E+00  0.00000000000E+00  0.46894767409E+03  0.46894767409E+03  0.00000000000E+00 0. -1.
         21   -1    0    0  503  502 -0.00000000000E+00 -0.00000000000E+00 -0.55795966890E+03  0.55795966890E+03  0.00000000000E+00 0.  1.
         25    1    1    2    0    0 -0.14599179110E+03  0.14629635221E+03  0.40766562970E+03  0.47384859541E+03  0.12500000000E+03 0.  0.
         21    1    1    2  503  504 -0.49539212645E+01 -0.28969121547E+02 -0.11476530445E+02  0.31550944362E+02  0.00000000000E+00 0. -1.
         21    1    1    2  504  501  0.15094571236E+03 -0.11732723066E+03 -0.48520109406E+03  0.52150780321E+03  0.00000000000E+00 0.  1.
<mgrwt>
<rscale>  4 0.24064679E+03</rscale>
<asrwt>0</asrwt>
<pdfrwt beam="1">  1       21 0.72145796E-01 0.24064679E+03</pdfrwt>
<pdfrwt beam="2">  1       21 0.85839949E-01 0.24064679E+03</pdfrwt>
<totfact> 0.19510928E+03</totfact>
</mgrwt>
</event>
<event>
 5    0  0.1856407E+000  0.2447824E+03  0.7546771E-02  0.1116647E+00
         21   -1    0    0  502  501  0.00000000000E+00  0.00000000000E+00  0.28656433231E+04  0.28656433231E+04  0.00000000000E+00 0. -1.
         21   -1    0    0  503  502 -0.00000000000E+00 -0.00000000000E+00 -0.11660323323E+03  0.11660323323E+03  0.00000000000E+00 0. -1.
         25    1    1    2    0    0  0.90486487638E+02  0.19001484646E+03  0.27541246511E+04  0.27649812007E+04  0.12500000000E+03 0.  0.
         21    1    1    2  503  504 -0.85687288619E+02 -0.16508137676E+03  0.12444930088E+02  0.18641096714E+03  0.00000000000E+00 0. -1.
         21    1    1    2  504  501 -0.47991990193E+01 -0.24933469693E+02 -0.17529491348E+02  0.30854388489E+02  0.00000000000E+00 0. -1.
<mgrwt>
<rscale>  4 0.24478245E+03</rscale>
<asrwt>0</asrwt>
<pdfrwt beam="1">  1       21 0.44086815E+00 0.24478245E+03</pdfrwt>
<pdfrwt beam="2">  1       21 0.17938961E-01 0.24478245E+03</pdfrwt>
<totfact> 0.12407661E+02</totfact>
</mgrwt>
</event>
