<event>
 5    0  0.1781295E-001  0.2554917E+03  0.7546771E-02  0.1109883E+00
         21   -1    0    0  501  502  0.00000000000E+00  0.00000000000E+00  0.91494507364E+03  0.91494507364E+03  0.00000000000E+00 0.  1.
         21   -1    0    0  502  503 -0.00000000000E+00 -0.00000000000E+00 -0.88648761351E+02  0.88648761351E+02  0.00000000000E+00 0.  1.
         25    1    1    2    0    0 -0.22483025870E+03  0.78297783295E+02  0.24227717460E+03  0.36194256095E+03  0.12500000000E+03 0.  0.
          1    1    1    2  501    0  0.30887072969E+02 -0.15603644981E+02  0.23452490191E+03  0.23706415720E+03  0.00000000000E+00 0. -1.
         -1    1    1    2    0  503  0.19394318573E+03 -0.62694138313E+02  0.34949423578E+03  0.40458711684E+03  0.00000000000E+00 0.  1.
<mgrwt>
<rscale>  4 0.25549174E+03</rscale>
<asrwt>0</asrwt>
<pdfrwt beam="1">  1       21 0.14076077E+00 0.25549174E+03</pdfrwt>
<pdfrwt beam="2">  1       21 0.13638272E-01 0.25549174E+03</pdfrwt>
<totfact> 0.15824354E+04</totfact>
</mgrwt>
</event>
<event>
 5    0  0.1781295E-001  0.2017837E+03  0.7546771E-02  0.1148243E+00
         21   -1    0    0  501  502  0.00000000000E+00  0.00000000000E+00  0.60082811070E+03  0.60082811070E+03  0.00000000000E+00 0. -1.
         21   -1    0    0  502  503 -0.00000000000E+00 -0.00000000000E+00 -0.13286515595E+03  0.13286515595E+03  0.00000000000E+00 0. -1.
         25    1    1    2    0    0  0.60612173101E+02 -0.19612136312E+03  0.44052465265E+03  0.50182107787E+03  0.12500000000E+03 0.  0.
          2    1    1    2  501    0 -0.44319761738E+02  0.10134128545E+03  0.65381508684E+02  0.12848750560E+03  0.00000000000E+00 0.  1.
         -2    1    1    2    0  503 -0.16292411362E+02  0.94780077671E+02 -0.37943206591E+02  0.10338468319E+03  0.00000000000E+00 0. -1.
<mgrwt>
<rscale>  4 0.20178370E+03</rscale>
<asrwt>0</asrwt>
<pdfrwt beam="1">  1       21 0.92435093E-01 0.20178370E+03</pdfrwt>
<pdfrwt beam="2">  1       21 0.20440794E-01 0.20178370E+03</pdfrwt>
<totfact> 0.21762285E+04</totfact>
</mgrwt>
</event>
<event>
 5    0  0.1781295E-001  0.4655889E+03  0.7546771E-02  0.1023173E+00
         21   -1    0    0  501  502  0.00000000000E+00  0.00000000000E+00  0.53334706423E+03  0.53334706423E+03  0.00000000000E+00 0. -1.
         21   -1    0    0  502  503 -0.00000000000E+00 -0.00000000000E+00 -0.70578223712E+03  0.70578223712E+03  0.00000000000E+00 0. -1.
         25    1    1    2    0    0 -0.27616473318E+03  0.35338511485E+03 -0.49616551944E+03  0.68040665924E+03  0.12500000000E+03 0.  0.
          1    1    1    2  501    0  0.21079031081E+03 -0.31639674365E+03  0.26634315434E+03  0.46419621970E+03  0.00000000000E+00 0. -1.
         -1    1    1    2    0  503  0.65374422376E+02 -0.36988371202E+02  0.57387192204E+02  0.94526422413E+02  0.00000000000E+00 0.  1.
<mgrwt>
<rscale>  4 0.46558887E+03</rscale>
<asrwt>0</asrwt>
<pdfrwt beam="1">  1       21 0.82053394E-01 0.46558887E+03</pdfrwt>
<pdfrwt beam="2">  1       21 0.10858188E+00 0.46558887E+03</pdfrwt>
<totfact> 0.73387895E+02</totfact>
</mgrwt>
</event>
<event>
 5    0  0.1781295E-001  0.2419188E+03  0.7546771E-02  0.1118521E+00
         21   -1    0    0  501  502  0.00000000000E+00  0.00000000000E+00  0.93764491304E+02  0.93764491304E+02  0.00000000000E+00 0.  1.
         21   -1    0    0  502  503 -0.00000000000E+00 -0.00000000000E+00 -0.78721262069E+03  0.78721262069E+03  0.00000000000E+00 0.  1.
         25    1    1    2    0    0 -0.10113280146E+03 -0.19267817316E+03 -0.17625870710E+03  0.30666733405E+03  0.12500000000E+03 0.  0.
          4    1    1    2  501    0 -0.24796430354E+02  0.49222964474E+02 -0.78777669725E+02  0.96144081655E+02  0.00000000000E+00 0. -1.
         -4    1    1    2    0  503  0.12592923181E+03  0.14345520869E+03 -0.43841175256E+03  0.47816569629E+03  0.00000000000E+00 0.  1.
<mgrwt>
<rscale>  4 0.24191881E+03</rscale>
<asrwt>0</asrwt>
<pdfrwt beam="1">  1       21 0.14425306E-01 0.24191881E+03</pdfrwt>
<pdfrwt beam="2">  1       21 0.12110963E+00 0.24191881E+03</pdfrwt>
<totfact> 0.21121259E+04</totfact>
</mgrwt>
</event>
<event>
 5    0  0.1781295E-001  0.2273061E+03  0.7546771E-02  0.1128550E+00
         21   -1    0    0  501  502  0.00000000000E+00  0.00000000000E+00  0.45511494032E+02  0.45511494032E+02  0.00000000000E+00 0.  1.
         21   -1    0    0  502  503 -0.00000000000E+00 -0.00000000000E+00 -0.15638902992E+04  0.15638902992E+04  0.00000000000E+00 0. -1.
         25    1    1    2    0    0  0.29990970308E+02  0.21601066387E+03 -0.49766512266E+03  0.55754429377E+03  0.12500000000E+03 0.  0.
          4    1    1    2  501    0 -0.43274324001E+01 -0.16460327317E+03 -0.46715534162E+03  0.49532522388E+03  0.00000000000E+00 0. -1.
         -4    1    1    2    0  503 -0.25663537908E+02 -0.51407390702E+02 -0.55355834086E+03  0.55653227555E+03  0.00000000000E+00 0.  1.
<mgrwt>
<rscale>  4 0.22730612E+03</rscale>
<asrwt>0</asrwt>
<pdfrwt beam="1">  1       21 0.70017684E-02 0.22730612E+03</pdfrwt>
<pdfrwt beam="2">  1       21 0.24059851E+00 0.22730612E+03</pdfrwt>
<totfact> 0.11087180E+04</totfact>
</mgrwt>
</event>
<event>
 5    0  0.1781295E-001  0.2747221E+03  0.7546771E-02  0.1098607E+00
         21   -1    0    0  501  502  0.00000000000E+00  0.00000000000E+00  0.55995510227E+03  0.55995510227E+03  0.00000000000E+00 0. -1.
         21   -1    0    0  502  503 -0.00000000000E+00 -0.00000000000E+00 -0.12298690228E+03  0.12298690228E+03  0.00000000000E+00 0. -1.
         25    1    1    2    0    0  0.12267923748E+03  0.21165311458E+03  0.24466389336E+03  0.36787587164E+03  0.12500000000E+03 0.  0.
          2    1    1    2  501    0 -0.55516627313E+02 -0.93645046476E+02  0.55027640358E+02  0.12198168650E+03  0.00000000000E+00 0. -1.
         -2    1    1    2    0  503 -0.67162610172E+02 -0.11800806811E+03  0.13727666627E+03  0.19308444641E+03  0.00000000000E+00 0.  1.
<mgrwt>
<rscale>  4 0.27472211E+03</rscale>
<asrwt>0</asrwt>
<pdfrwt beam="1">  1       21 0.86146938E-01 0.27472211E+03</pdfrwt>
<pdfrwt beam="2">  1       21 0.18921062E-01 0.27472211E+03</pdfrwt>
<totfact> 0.28565406E+04</totfact>
</mgrwt>
</event>
<event>
 5    0  0.1781295E-001  0.2498461E+03  0.7546771E-02  0.1113402E+00
         21   -1    0    0  501  502  0.00000000000E+00  0.00000000000E+00  0.38904312546E+03  0.38904312546E+03  0.00000000000E+00 0.  1.
         21   -1    0    0  502  503 -0.00000000000E+00 -0.00000000000E+00 -0.27772291462E+03  0.27772291462E+03  0.00000000000E+00 0.  1.
         25    1    1    2    0    0  0.25137328536E+03  0.26265751517E+02  0.18988046949E+03  0.33993824585E+03  0.12500000000E+03 0.  0.
          1    1    1    2  501    0 -0.20688633011E+03 -0.27362228959E+02 -0.13975644447E+03  0.25116231590E+03  0.00000000000E+00 0.  1.
         -1    1    1    2    0  503 -0.44486955253E+02  0.10964774422E+01  0.61196185823E+02  0.75665478322E+02  0.00000000000E+00 0. -1.
<mgrwt>
<rscale>  4 0.24984615E+03</rscale>
<asrwt>0</asrwt>
<pdfrwt beam="1">  1       21 0.59852789E-01 0.24984615E+03</pdfrwt>
<pdfrwt beam="2">  1       21 0.42726602E-01 0.24984615E+03</pdfrwt>
<totfact> 0.13268550E+04</totfact>
</mgrwt>
</event>
<event>
 5    0  0.1781295E-001  0.2496435E+03  0.7546771E-02  0.1113530E+00
         21   -1    0    0  501  502  0.00000000000E+00  0.00000000000E+00  0.12659406878E+04  0.12659406878E+04  0.00000000000E+00 0. -1.
         21   -1    0    0  502  503 -0.00000000000E+00 -0.00000000000E+00 -0.63953328109E+02  0.63953328109E+02  0.00000000000E+00 0. -1.
         25    1    1    2    0    0  0.18848114437E+03 -0.10569651343E+03  0.25330900178E+03  0.35565059414E+03  0.12500000000E+03 0.  0.
          4    1    1    2  501    0 -0.46027710861E+02  0.13427069123E+02  0.14113342226E+03  0.14905528917E+03  0.00000000000E+00 0.  1.
         -4    1    1    2    0  503 -0.14245343350E+03  0.92269444306E+02  0.80754493563E+03  0.82518813257E+03  0.00000000000E+00 0. -1.
<mgrwt>
<rscale>  4 0.24964354E+03</rscale>
<asrwt>0</asrwt>
<pdfrwt beam="1">  1       21 0.19476009E+00 0.24964354E+03</pdfrwt>
<pdfrwt beam="2">  1       21 0.98389745E-02 0.24964354E+03</pdfrwt>
<totfact> 0.11625904E+04</totfact>
</mgrwt>
</event>
<event>
 5    0  0.1781295E-001  0.4459174E+03  0.7546771E-02  0.1029863E+00
         21   -1    0    0  501  502  0.00000000000E+00  0.00000000000E+00  0.76108595481E+03  0.76108595481E+03  0.00000000000E+00 0. -1.
         21   -1    0    0  502  503 -0.00000000000E+00 -0.00000000000E+00 -0.26971014796E+03  0.26971014796E+03  0.00000000000E+00 0. -1.
         25    1    1    2    0    0 -0.24908439633E+03  0.33262012278E+03  0.11931362303E+03  0.45004435694E+03  0.12500000000E+03 0.  0.
          4    1    1    2  501    0  0.44456001872E+02 -0.18965465532E+03  0.18683952921E+03  0.26991523496E+03  0.00000000000E+00 0.  1.
         -4    1    1    2    0  503  0.20462839446E+03 -0.14296546746E+03  0.18522265461E+03  0.31083651086E+03  0.00000000000E+00 0. -1.
<mgrwt>
<rscale>  4 0.44289248E+03</rscale>
<asrwt>0</asrwt>
<pdfrwt beam="1">  1       21 0.11709015E+00 0.44591739E+03</pdfrwt>
<pdfrwt beam="2">  1       21 0.41493869E-01 0.44591739E+03</pdfrwt>
<totfact> 0.27214847E+03</totfact>
</mgrwt>
</event>
<event>
 5    0  0.1781295E-001  0.4633990E+03  0.7546771E-02  0.1025211E+00
         21   -1    0    0  501  502  0.00000000000E+00  0.00000000000E+00  0.72870828018E+03  0.72870828018E+03  0.00000000000E+00 0.  1.
         21   -1    0    0  502  503 -0.00000000000E+00 -0.00000000000E+00 -0.28268694735E+03  0.28268694735E+03  0.00000000000E+00 0.  1.
         25    1    1    2    0    0  0.15960620756E+03 -0.39522728473E+03  0.22743762880E+03  0.49903068351E+03  0.12500000000E+03 0.  0.
          3    1    1    2  501    0 -0.19084994678E+03  0.25062189767E+03  0.13823799351E+03  0.34401276230E+03  0.00000000000E+00 0. -1.
         -3    1    1    2    0  503  0.31243739212E+02  0.14460538706E+03  0.80345710516E+02  0.16835178171E+03  0.00000000000E+00 0.  1.
<mgrwt>
<rscale>  4 0.45851992E+03</rscale>
<asrwt>0</asrwt>
<pdfrwt beam="1">  1       21 0.11210897E+00 0.46339895E+03</pdfrwt>
<pdfrwt beam="2">  1       21 0.43490300E-01 0.46339895E+03</pdfrwt>
<totfact> 0.27341983E+03</totfact>
</mgrwt>
</event>
<event>
 5    0  0.1781295E-001  0.2737967E+03  0.7546771E-02  0.1099126E+00
         21   -1    0    0  501  502  0.00000000000E+00  0.00000000000E+00  0.26900126868E+03  0.26900126868E+03  0.00000000000E+00 0. -1.
         21   -1    0    0  502  503 -0.00000000000E+00 -0.00000000000E+00 -0.72291210351E+03  0.72291210351E+03  0.00000000000E+00 0. -1.
         25    1    1    2    0    0  0.24204069100E+03 -0.78358900248E+02  0.14930952448E+03  0.32037813198E+03  0.12500000000E+03 0.  0.
          1    1    1    2  501    0 -0.18767900592E+03  0.12440674983E+01 -0.48651888059E+03  0.52146483883E+03  0.00000000000E+00 0. -1.
         -1    1    1    2    0  503 -0.54361685086E+02  0.77114832750E+02 -0.11670147872E+03  0.15007040138E+03  0.00000000000E+00 0.  1.
<mgrwt>
<rscale>  4 0.27379672E+03</rscale>
<asrwt>0</asrwt>
<pdfrwt beam="1">  1       21 0.41384811E-01 0.27379672E+03</pdfrwt>
<pdfrwt beam="2">  1       21 0.11121725E+00 0.27379672E+03</pdfrwt>
<totfact> 0.33707585E+03</totfact>
</mgrwt>
</event>
<event>
 5    0  0.1781295E-001  0.2841756E+03  0.7546771E-02  0.1093430E+00
         21   -1    0    0  501  502  0.00000000000E+00  0.00000000000E+00  0.20692822156E+03  0.20692822156E+03  0.00000000000E+00 0. -1.
         21   -1    0    0  502  503 -0.00000000000E+00 -0.00000000000E+00 -0.35817391941E+03  0.35817391941E+03  0.00000000000E+00 0.  1.
         25    1    1    2    0    0  0.25424948088E+03  0.22090400750E+02 -0.73248129661E+02  0.29346392083E+03  0.12500000000E+03 0.  0.
          1    1    1    2  501    0 -0.17493545758E+03  0.19670673453E+00 -0.33889521425E+02  0.17818797006E+03  0.00000000000E+00 0. -1.
         -1    1    1    2    0  503 -0.79314023301E+02 -0.22287107485E+02 -0.44108046765E+02  0.93450250089E+02  0.00000000000E+00 0.  1.
<mgrwt>
<rscale>  4 0.28417562E+03</rscale>
<asrwt>0</asrwt>
<pdfrwt beam="1">  1       21 0.31835111E-01 0.28417562E+03</pdfrwt>
<pdfrwt beam="2">  1       21 0.55103680E-01 0.28417562E+03</pdfrwt>
<totfact> 0.28226019E+04</totfact>
</mgrwt>
</event>
<event>
 5    0  0.1781295E-001  0.2574230E+03  0.7546771E-02  0.1108701E+00
         21   -1    0    0  501  502  0.00000000000E+00  0.00000000000E+00  0.23893893732E+03  0.23893893732E+03  0.00000000000E+00 0.  1.
         21   -1    0    0  502  503 -0.00000000000E+00 -0.00000000000E+00 -0.42994297499E+03  0.42994297499E+03  0.00000000000E+00 0.  1.
         25    1    1    2    0    0  0.30692518578E+02 -0.22293404330E+03 -0.30891693399E+03  0.40211477275E+03  0.12500000000E+03 0.  0.
          2    1    1    2  501    0  0.46715247440E+01  0.11443748433E+03  0.19712711170E+02  0.11621683159E+03  0.00000000000E+00 0.  1.
         -2    1    1    2    0  503 -0.35364043322E+02  0.10849655897E+03  0.98200185146E+02  0.15055030797E+03  0.00000000000E+00 0. -1.
<mgrwt>
<rscale>  4 0.25742303E+03</rscale>
<asrwt>0</asrwt>
<pdfrwt beam="1">  1       21 0.36759837E-01 0.25742303E+03</pdfrwt>
<pdfrwt beam="2">  1       21 0.66145072E-01 0.25742303E+03</pdfrwt>
<totfact> 0.14427815E+04</totfact>
</mgrwt>
</event>
<event>
 5    0  0.1781295E-001  0.5611920E+03  0.7546771E-02  0.9989361E-01
         21   -1    0    0  501  502  0.00000000000E+00  0.00000000000E+00  0.14764940958E+04  0.14764940958E+04  0.00000000000E+00 0.  1.
         21   -1    0    0  502  503 -0.00000000000E+00 -0.00000000000E+00 -0.31103409319E+03  0.31103409319E+03  0.00000000000E+00 0.  1.
         25    1    1    2    0    0 -0.60846442494E+03  0.15426695371E+03  0.54999356910E+03  0.84388694472E+03  0.12500000000E+03 0.  0.
          4    1    1    2  501    0  0.44934051316E+03 -0.22126698368E+03  0.29950185318E+03  0.58358147237E+03  0.00000000000E+00 0.  1.
         -4    1    1    2    0  503  0.15912391178E+03  0.67000029974E+02  0.31596458036E+03  0.36005977192E+03  0.00000000000E+00 0. -1.
<mgrwt>
<rscale>  4 0.56119197E+03</rscale>
<asrwt>0</asrwt>
<pdfrwt beam="1">  1       21 0.22715293E+00 0.56119197E+03</pdfrwt>
<pdfrwt beam="2">  1       21 0.47851400E-01 0.56119197E+03</pdfrwt>
<totfact> 0.29149924E+02</totfact>
</mgrwt>
</event>
<event>
 5    0  0.1781295E-001  0.2692151E+03  0.7546771E-02  0.1101730E+00
         21   -1    0    0  501  502  0.00000000000E+00  0.00000000000E+00  0.29620034894E+03  0.29620034894E+03  0.00000000000E+00 0. -1.
         21   -1    0    0  502  503 -0.00000000000E+00 -0.00000000000E+00 -0.27563849131E+03  0.27563849131E+03  0.00000000000E+00 0. -1.
         25    1    1    2    0    0  0.89966232402E+02  0.24108487680E+03  0.10260123876E+02  0.28626231141E+03  0.12500000000E+03 0.  0.
          4    1    1    2  501    0 -0.22513515935E+02 -0.25139633653E+02  0.45469588221E+02  0.56624579759E+02  0.00000000000E+00 0.  1.
         -4    1    1    2    0  503 -0.67452716468E+02 -0.21594524315E+03 -0.35167854470E+02  0.22895194907E+03  0.00000000000E+00 0. -1.
<mgrwt>
<rscale>  4 0.26921506E+03</rscale>
<asrwt>0</asrwt>
<pdfrwt beam="1">  1       21 0.45569285E-01 0.26921506E+03</pdfrwt>
<pdfrwt beam="2">  1       21 0.42405922E-01 0.26921506E+03</pdfrwt>
<totfact> 0.23770269E+04</totfact>
</mgrwt>
</event>
<event>
 5    0  0.1781295E-001  0.2997535E+03  0.7546771E-02  0.1085364E+00
         21   -1    0    0  501  502  0.00000000000E+00  0.00000000000E+00  0.27992191084E+03  0.27992191084E+03  0.00000000000E+00 0. -1.
         21   -1    0    0  502  503 -0.00000000000E+00 -0.00000000000E+00 -0.30778169987E+03  0.30778169987E+03  0.00000000000E+00 0. -1.
         25    1    1    2    0    0  0.25488500514E+03 -0.96232946338E+02 -0.70395931662E+02  0.30790864392E+03  0.12500000000E+03 0.  0.
          1    1    1    2  501    0 -0.20693156019E+03  0.88145790643E+02  0.50484604233E+02  0.23051908007E+03  0.00000000000E+00 0. -1.
         -1    1    1    2    0  503 -0.47953444954E+02  0.80871556952E+01 -0.79484615933E+01  0.49275886719E+02  0.00000000000E+00 0.  1.
<mgrwt>
<rscale>  4 0.29975348E+03</rscale>
<asrwt>0</asrwt>
<pdfrwt beam="1">  1       21 0.43064909E-01 0.29975348E+03</pdfrwt>
<pdfrwt beam="2">  1       21 0.47351031E-01 0.29975348E+03</pdfrwt>
<totfact> 0.20994826E+04</totfact>
</mgrwt>
</event>
<event>
 5    0  0.1781295E-001  0.2284273E+03  0.7546771E-02  0.1127752E+00
         21   -1    0    0  501  502  0.00000000000E+00  0.00000000000E+00  0.50863558026E+03  0.50863558026E+03  0.00000000000E+00 0.  1.
         21   -1    0    0  502  503 -0.00000000000E+00 -0.00000000000E+00 -0.22290082243E+03  0.22290082243E+03  0.00000000000E+00 0.  1.
         25    1    1    2    0    0  0.81816557156E+02  0.18994752987E+03 -0.11624813334E+03  0.26816532519E+03  0.12500000000E+03 0.  0.
          4    1    1    2  501    0 -0.40150531551E+02 -0.46995868039E+02  0.21848591509E+03  0.22706116332E+03  0.00000000000E+00 0. -1.
         -4    1    1    2    0  503 -0.41666025604E+02 -0.14295166183E+03  0.18349697609E+03  0.23630991418E+03  0.00000000000E+00 0.  1.
<mgrwt>
<rscale>  4 0.22842730E+03</rscale>
<asrwt>0</asrwt>
<pdfrwt beam="1">  1       21 0.78251628E-01 0.22842730E+03</pdfrwt>
<pdfrwt beam="2">  1       21 0.34292434E-01 0.22842730E+03</pdfrwt>
<totfact> 0.11577273E+04</totfact>
</mgrwt>
</event>
<event>
 5    0  0.1781295E-001  0.2580155E+03  0.7546771E-02  0.1108341E+00
         21   -1    0    0  501  502  0.00000000000E+00  0.00000000000E+00  0.15785568751E+03  0.15785568751E+03  0.00000000000E+00 0.  1.
         21   -1    0    0  502  503 -0.00000000000E+00 -0.00000000000E+00 -0.38394768925E+03  0.38394768925E+03  0.00000000000E+00 0.  1.
         25    1    1    2    0    0 -0.22468093863E+03 -0.21575254745E+02 -0.16236775378E+03  0.30485292071E+03  0.12500000000E+03 0.  0.
          4    1    1    2  501    0  0.20212214009E+03  0.20154841876E+02 -0.67473882818E+02  0.21403808546E+03  0.00000000000E+00 0.  1.
         -4    1    1    2    0  503  0.22558798544E+02  0.14204128695E+01  0.37496348558E+01  0.22912370589E+02  0.00000000000E+00 0. -1.
<mgrwt>
<rscale>  4 0.25801553E+03</rscale>
<asrwt>0</asrwt>
<pdfrwt beam="1">  1       21 0.24285490E-01 0.25801553E+03</pdfrwt>
<pdfrwt beam="2">  1       21 0.59068876E-01 0.25801553E+03</pdfrwt>
<totfact> 0.41625956E+04</totfact>
</mgrwt>
</event>
<event>
 5    0  0.1781295E-001  0.4237305E+03  0.7546771E-02  0.1035859E+00
         21   -1    0    0  501  502  0.00000000000E+00  0.00000000000E+00  0.37615657901E+03  0.37615657901E+03  0.00000000000E+00 0. -1.
         21   -1    0    0  502  503 -0.00000000000E+00 -0.00000000000E+00 -0.59929020488E+03  0.59929020488E+03  0.00000000000E+00 0. -1.
         25    1    1    2    0    0 -0.10987985794E+03 -0.38004697074E+03  0.10087521118E+03  0.42697785819E+03  0.12500000000E+03 0.  0.
          3    1    1    2  501    0 -0.20362588261E+02 -0.70160236783E+01  0.71430187517E+01  0.22691018175E+02  0.00000000000E+00 0.  1.
         -3    1    1    2    0  503  0.13024244620E+03  0.38706299442E+03 -0.33115185580E+03  0.52577790753E+03  0.00000000000E+00 0. -1.
<mgrwt>
<rscale>  4 0.42373050E+03</rscale>
<asrwt>0</asrwt>
<pdfrwt beam="1">  1       21 0.57870243E-01 0.42373050E+03</pdfrwt>
<pdfrwt beam="2">  1       21 0.92198492E-01 0.42373050E+03</pdfrwt>
<totfact> 0.24331860E+03</totfact>
</mgrwt>
</event>
<event>
 5    0  0.1781295E-001  0.2422706E+03  0.7546771E-02  0.1118289E+00
         21   -1    0    0  501  502  0.00000000000E+00  0.00000000000E+00  0.70204307307E+02  0.70204307307E+02  0.00000000000E+00 0. -1.
         21   -1    0    0  502  503 -0.00000000000E+00 -0.00000000000E+00 -0.10246945878E+04  0.10246945878E+04  0.00000000000E+00 0.  1.
         25    1    1    2    0    0  0.15431456206E+03 -0.15975573953E+03 -0.31459904002E+03  0.40488570777E+03  0.12500000000E+03 0.  0.
          2    1    1    2  501    0 -0.16320223994E+03  0.12063595094E+03 -0.60018427273E+03  0.63356859535E+03  0.00000000000E+00 0.  1.
         -2    1    1    2    0  503  0.88876778779E+01  0.39119788596E+02 -0.39706967777E+02  0.56444592016E+02  0.00000000000E+00 0. -1.
<mgrwt>
<rscale>  4 0.24227061E+03</rscale>
<asrwt>0</asrwt>
<pdfrwt beam="1">  1       21 0.10800664E-01 0.24227061E+03</pdfrwt>
<pdfrwt beam="2">  1       21 0.15764531E+00 0.24227061E+03</pdfrwt>
<totfact> 0.17961829E+04</totfact>
</mgrwt>
</event>
<event>
 5    0  0.1781295E-001  0.2586386E+03  0.7546771E-02  0.1107964E+00
         21   -1    0    0  501  502  0.00000000000E+00  0.00000000000E+00  0.52295532799E+03  0.52295532799E+03  0.00000000000E+00 0. -1.
         21   -1    0    0  502  503 -0.00000000000E+00 -0.00000000000E+00 -0.14023078998E+03  0.14023078998E+03  0.00000000000E+00 0.  1.
         25    1    1    2    0    0  0.33404125158E+02 -0.22394885240E+03  0.34132239968E+03  0.42824631299E+03  0.12500000000E+03 0.  0.
          1    1    1    2  501    0 -0.76258947057E+01  0.20553022109E+02  0.18418776003E+02  0.28632713761E+02  0.00000000000E+00 0. -1.
         -1    1    1    2    0  503 -0.25778230453E+02  0.20339583029E+03  0.22983362331E+02  0.20630709122E+03  0.00000000000E+00 0.  1.
<mgrwt>
<rscale>  4 0.25863860E+03</rscale>
<asrwt>0</asrwt>
<pdfrwt beam="1">  1       21 0.80454665E-01 0.25863860E+03</pdfrwt>
<pdfrwt beam="2">  1       21 0.21573968E-01 0.25863860E+03</pdfrwt>
<totfact> 0.26286810E+04</totfact>
</mgrwt>
</event>
<event>
 5    0  0.1781295E-001  0.2541658E+03  0.7546771E-02  0.1110700E+00
         21   -1    0    0  501  502  0.00000000000E+00  0.00000000000E+00  0.11643639062E+03  0.11643639062E+03  0.00000000000E+00 0. -1.
         21   -1    0    0  502  503 -0.00000000000E+00 -0.00000000000E+00 -0.75766096193E+03  0.75766096193E+03  0.00000000000E+00 0. -1.
         25    1    1    2    0    0  0.14796140773E+03 -0.21334062711E+03 -0.30142567584E+03  0.41700028706E+03  0.12500000000E+03 0.  0.
          4    1    1    2  501    0  0.37593629575E+01  0.77497352175E+02 -0.23792084601E+02  0.81154394174E+02  0.00000000000E+00 0.  1.
         -4    1    1    2    0  503 -0.15172077069E+03  0.13584327494E+03 -0.31600681087E+03  0.37594267132E+03  0.00000000000E+00 0. -1.
<mgrwt>
<rscale>  4 0.25416576E+03</rscale>
<asrwt>0</asrwt>
<pdfrwt beam="1">  1       21 0.17913291E-01 0.25416576E+03</pdfrwt>
<pdfrwt beam="2">  1       21 0.11656322E+00 0.25416576E+03</pdfrwt>
<totfact> 0.15488794E+04</totfact>
</mgrwt>
</event>
<event>
 5    0  0.1781295E-001  0.2799822E+03  0.7546771E-02  0.1095699E+00
         21   -1    0    0  501  502  0.00000000000E+00  0.00000000000E+00  0.14498131167E+04  0.14498131167E+04  0.00000000000E+00 0.  1.
         21   -1    0    0  502  503 -0.00000000000E+00 -0.00000000000E+00 -0.79375424769E+02  0.79375424769E+02  0.00000000000E+00 0.  1.
         25    1    1    2    0    0  0.90732633349E+01  0.25036514047E+03  0.11566126664E+04  0.11900180199E+04  0.12500000000E+03 0.  0.
          1    1    1    2  501    0 -0.37413389080E+02 -0.13282600168E+03  0.83008862549E+02  0.16103719964E+03  0.00000000000E+00 0.  1.
         -1    1    1    2    0  503  0.28340125745E+02 -0.11753913878E+03  0.13081616294E+03  0.17813332187E+03  0.00000000000E+00 0. -1.
<mgrwt>
<rscale>  4 0.27998219E+03</rscale>
<asrwt>0</asrwt>
<pdfrwt beam="1">  1       21 0.22304815E+00 0.27998219E+03</pdfrwt>
<pdfrwt beam="2">  1       21 0.12211605E-01 0.27998219E+03</pdfrwt>
<totfact> 0.51042397E+03</totfact>
</mgrwt>
</event>
<event>
 5    0  0.1781295E-001  0.2237856E+03  0.7546771E-02  0.1131092E+00
         21   -1    0    0  501  502  0.00000000000E+00  0.00000000000E+00  0.13072656174E+03  0.13072656174E+03  0.00000000000E+00 0.  1.
         21   -1    0    0  502  503 -0.00000000000E+00 -0.00000000000E+00 -0.82509540549E+03  0.82509540549E+03  0.00000000000E+00 0.  1.
         25    1    1    2    0    0  0.18613130221E+03  0.97598273032E+02 -0.66485897237E+03  0.70840153705E+03  0.12500000000E+03 0.  0.
          2    1    1    2  501    0 -0.11118212753E+03 -0.84950443139E+02 -0.75085325202E+02  0.15879499152E+03  0.00000000000E+00 0.  1.
         -2    1    1    2    0  503 -0.74949174677E+02 -0.12647829892E+02  0.45575453815E+02  0.88625438651E+02  0.00000000000E+00 0. -1.
<mgrwt>
<rscale>  4 0.22378561E+03</rscale>
<asrwt>0</asrwt>
<pdfrwt beam="1">  1       21 0.20111779E-01 0.22378561E+03</pdfrwt>
<pdfrwt beam="2">  1       21 0.12693775E+00 0.22378561E+03</pdfrwt>
<totfact> 0.10260128E+04</totfact>
</mgrwt>
</event>
<event>
 5    0  0.1781295E-001  0.2234562E+03  0.7546771E-02  0.1131332E+00
         21   -1    0    0  501  502  0.00000000000E+00  0.00000000000E+00  0.10900301921E+04  0.10900301921E+04  0.00000000000E+00 0.  1.
         21   -1    0    0  502  503 -0.00000000000E+00 -0.00000000000E+00 -0.67303879141E+02  0.67303879141E+02  0.00000000000E+00 0.  1.
         25    1    1    2    0    0  0.19216995855E+03 -0.10474075595E+03  0.64575334596E+03  0.69319716009E+03  0.12500000000E+03 0.  0.
          2    1    1    2  501    0 -0.12786344884E+03  0.99288146176E+02  0.36390638953E+03  0.39829016791E+03  0.00000000000E+00 0. -1.
         -2    1    1    2    0  503 -0.64306509714E+02  0.54526097789E+01  0.13066577435E+02  0.65846743206E+02  0.00000000000E+00 0.  1.
<mgrwt>
<rscale>  4 0.22345624E+03</rscale>
<asrwt>0</asrwt>
<pdfrwt beam="1">  1       21 0.16769694E+00 0.22345624E+03</pdfrwt>
<pdfrwt beam="2">  1       21 0.10354444E-01 0.22345624E+03</pdfrwt>
<totfact> 0.16543574E+04</totfact>
</mgrwt>
</event>
<event>
 5    0  0.1781295E-001  0.2496107E+03  0.7546771E-02  0.1113551E+00
         21   -1    0    0  501  502  0.00000000000E+00  0.00000000000E+00  0.26662917580E+03  0.26662917580E+03  0.00000000000E+00 0.  1.
         21   -1    0    0  502  503 -0.00000000000E+00 -0.00000000000E+00 -0.32044200662E+03  0.32044200662E+03  0.00000000000E+00 0. -1.
         25    1    1    2    0    0 -0.64560400506E+01  0.21596021408E+03  0.13855041768E+03  0.28548504822E+03  0.12500000000E+03 0.  0.
          4    1    1    2  501    0  0.38679160896E+02 -0.53574641596E+02 -0.44974861227E+02  0.79931582319E+02  0.00000000000E+00 0. -1.
         -4    1    1    2    0  503 -0.32223120845E+02 -0.16238557248E+03 -0.14738838727E+03  0.22165455188E+03  0.00000000000E+00 0.  1.
<mgrwt>
<rscale>  4 0.24961069E+03</rscale>
<asrwt>0</asrwt>
<pdfrwt beam="1">  1       21 0.41019873E-01 0.24961069E+03</pdfrwt>
<pdfrwt beam="2">  1       21 0.49298770E-01 0.24961069E+03</pdfrwt>
<totfact> 0.21787886E+04</totfact>
</mgrwt>
</event>
<event>
 5    0  0.1781295E-001  0.2418930E+03  0.7546771E-02  0.1118538E+00
         21   -1    0    0  501  502  0.00000000000E+00  0.00000000000E+00  0.74635021266E+02  0.74635021266E+02  0.00000000000E+00 0.  1.
         21   -1    0    0  502  503 -0.00000000000E+00 -0.00000000000E+00 -0.12180795908E+04  0.12180795908E+04  0.00000000000E+00 0. -1.
         25    1    1    2    0    0  0.37441709513E+01  0.20705845402E+03 -0.17590629997E+03  0.29909070291E+03  0.12500000000E+03 0.  0.
          2    1    1    2  501    0  0.41873334280E+02 -0.75355204243E+02 -0.33536087781E+03  0.34626391856E+03  0.00000000000E+00 0.  1.
         -2    1    1    2    0  503 -0.45617505231E+02 -0.13170324978E+03 -0.63217739177E+03  0.64735999061E+03  0.00000000000E+00 0. -1.
<mgrwt>
<rscale>  4 0.24189300E+03</rscale>
<asrwt>0</asrwt>
<pdfrwt beam="1">  1       21 0.11482312E-01 0.24189300E+03</pdfrwt>
<pdfrwt beam="2">  1       21 0.18739684E+00 0.24189300E+03</pdfrwt>
<totfact> 0.99292434E+03</totfact>
</mgrwt>
</event>
<event>
 5    0  0.1781295E-001  0.4401151E+03  0.7546771E-02  0.1030712E+00
         21   -1    0    0  501  502  0.00000000000E+00  0.00000000000E+00  0.10981871344E+04  0.10981871344E+04  0.00000000000E+00 0.  1.
         21   -1    0    0  502  503 -0.00000000000E+00 -0.00000000000E+00 -0.17403030796E+03  0.17403030796E+03  0.00000000000E+00 0.  1.
         25    1    1    2    0    0 -0.13271235699E+03 -0.40057923444E+03  0.46349398135E+03  0.63916192276E+03  0.12500000000E+03 0.  0.
          3    1    1    2  501    0  0.13772598652E+03  0.26642788851E+03  0.32293805615E+03  0.44072809673E+03  0.00000000000E+00 0.  1.
         -3    1    1    2    0  503 -0.50136295276E+01  0.13415134593E+03  0.13772478891E+03  0.19232742284E+03  0.00000000000E+00 0. -1.
<mgrwt>
<rscale>  4 0.44011509E+03</rscale>
<asrwt>0</asrwt>
<pdfrwt beam="1">  1       21 0.16895186E+00 0.44011509E+03</pdfrwt>
<pdfrwt beam="2">  1       21 0.26773894E-01 0.44011509E+03</pdfrwt>
<totfact> 0.24773728E+03</totfact>
</mgrwt>
</event>
<event>
 5    0  0.1781295E-001  0.2785274E+03  0.7546771E-02  0.1096496E+00
         21   -1    0    0  501  502  0.00000000000E+00  0.00000000000E+00  0.36517519379E+03  0.36517519379E+03  0.00000000000E+00 0. -1.
         21   -1    0    0  502  503 -0.00000000000E+00 -0.00000000000E+00 -0.19746793453E+03  0.19746793453E+03  0.00000000000E+00 0. -1.
         25    1    1    2    0    0 -0.89200506421E+02  0.23236992343E+03  0.65920381197E+02  0.28622195639E+03  0.12500000000E+03 0.  0.
          4    1    1    2  501    0  0.38008408666E+02 -0.13818170535E+03  0.27321551529E+02  0.14589479086E+03  0.00000000000E+00 0. -1.
         -4    1    1    2    0  503  0.51192097755E+02 -0.94188218081E+02  0.74465326536E+02  0.13052638107E+03  0.00000000000E+00 0.  1.
<mgrwt>
<rscale>  4 0.27852740E+03</rscale>
<asrwt>0</asrwt>
<pdfrwt beam="1">  1       21 0.56180799E-01 0.27852740E+03</pdfrwt>
<pdfrwt beam="2">  1       21 0.30379682E-01 0.27852740E+03</pdfrwt>
<totfact> 0.29769053E+04</totfact>
</mgrwt>
</event>
<event>
 5    0  0.1781295E-001  0.2983377E+03  0.7546771E-02  0.1086075E+00
         21   -1    0    0  501  502  0.00000000000E+00  0.00000000000E+00  0.26182467519E+03  0.26182467519E+03  0.00000000000E+00 0.  1.
         21   -1    0    0  502  503 -0.00000000000E+00 -0.00000000000E+00 -0.40722103232E+03  0.40722103232E+03  0.00000000000E+00 0.  1.
         25    1    1    2    0    0 -0.26491802497E+03 -0.56558311719E+02 -0.22893260731E+03  0.37605257780E+03  0.12500000000E+03 0.  0.
          4    1    1    2  501    0  0.13564291215E+03  0.33418933398E+02  0.46172567371E+01  0.13977533326E+03  0.00000000000E+00 0. -1.
         -4    1    1    2    0  503  0.12927511282E+03  0.23139378321E+02  0.78918993440E+02  0.15321779645E+03  0.00000000000E+00 0.  1.
<mgrwt>
<rscale>  4 0.29833773E+03</rscale>
<asrwt>0</asrwt>
<pdfrwt beam="1">  1       21 0.40280720E-01 0.29833773E+03</pdfrwt>
<pdfrwt beam="2">  1       21 0.62649389E-01 0.29833773E+03</pdfrwt>
<totfact> 0.13248166E+04</totfact>
</mgrwt>
</event>
<event>
 5    0  0.1781295E-001  0.1904458E+03  0.7546771E-02  0.1158060E+00
         21   -1    0    0  501  502  0.00000000000E+00  0.00000000000E+00  0.15536985525E+03  0.15536985525E+03  0.00000000000E+00 0. -1.
         21   -1    0    0  502  503 -0.00000000000E+00 -0.00000000000E+00 -0.62650527250E+03  0.62650527250E+03  0.00000000000E+00 0.  1.
         25    1    1    2    0    0 -0.51229270953E+01 -0.24069187378E+03 -0.67865325090E+02  0.27962389890E+03  0.12500000000E+03 0.  0.
          1    1    1    2  501    0 -0.17332903328E+01  0.13290077565E+03 -0.36369474164E+03  0.38722020294E+03  0.00000000000E+00 0.  1.
         -1    1    1    2    0  503  0.68562174281E+01  0.10779109813E+03 -0.39575350524E+02  0.11503102591E+03  0.00000000000E+00 0. -1.
<mgrwt>
<rscale>  4 0.19044585E+03</rscale>
<asrwt>0</asrwt>
<pdfrwt beam="1">  1       21 0.23903055E-01 0.19044585E+03</pdfrwt>
<pdfrwt beam="2">  1       21 0.96385425E-01 0.19044585E+03</pdfrwt>
<totfact> 0.14794537E+04</totfact>
</mgrwt>
</event>
<event>
 5    0  0.1781295E-001  0.2447461E+03  0.7546771E-02  0.1116671E+00
         21   -1    0    0  501  502  0.00000000000E+00  0.00000000000E+00  0.77693052154E+03  0.77693052154E+03  0.00000000000E+00 0.  1.
         21   -1    0    0  502  503 -0.00000000000E+00 -0.00000000000E+00 -0.94647438074E+02  0.94647438074E+02  0.00000000000E+00 0.  1.
         25    1    1    2    0    0 -0.20601717609E+03  0.87312933887E+02  0.52111882647E+03  0.58073785529E+03  0.12500000000E+03 0.  0.
          1    1    1    2  501    0  0.26003465285E+02 -0.22504222596E+02 -0.81652465808E+01  0.35345317840E+02  0.00000000000E+00 0. -1.
         -1    1    1    2    0  503  0.18001371081E+03 -0.64808711291E+02  0.16932950358E+03  0.25549478649E+03  0.00000000000E+00 0.  1.
<mgrwt>
<rscale>  4 0.24474606E+03</rscale>
<asrwt>0</asrwt>
<pdfrwt beam="1">  1       21 0.11952777E+00 0.24474606E+03</pdfrwt>
<pdfrwt beam="2">  1       21 0.14561145E-01 0.24474606E+03</pdfrwt>
<totfact> 0.21425686E+04</totfact>
</mgrwt>
</event>
