<event>
 5    0  0.2349231E+000  0.4760835E+03  0.7546771E-02  0.1020217E+00
         21   -1    0    0  504  501  0.00000000000E+00  0.00000000000E+00  0.25748408302E+03  0.25748408302E+03  0.00000000000E+00 0. -1.
         21   -1    0    0  501  502 -0.00000000000E+00 -0.00000000000E+00 -0.27283172837E+03  0.27283172837E+03  0.00000000000E+00 0. -1.
         25    1    1    2    0    0 -0.82777932080E+02 -0.21225622499E+03 -0.11443805308E+02  0.26011699630E+03  0.12500000000E+03 0.  0.
         21    1    1    2  503  502  0.63970178877E+02  0.20439049345E+03 -0.49885571767E+02  0.21990049538E+03  0.00000000000E+00 0. -1.
         21    1    1    2  504  503  0.18807753203E+02  0.78657315364E+01  0.45981731725E+02  0.50298319709E+02  0.00000000000E+00 0. -1.
<mgrwt>
<rscale>  4 0.47608350E+03</rscale>
<asrwt>0</asrwt>
<pdfrwt beam="1">  1       21 0.39612936E-01 0.47608350E+03</pdfrwt>
<pdfrwt beam="2">  1       21 0.41974112E-01 0.47608350E+03</pdfrwt>
<totfact> 0.30435506E+04</totfact>
</mgrwt>
</event>
<event>
 5    0  0.2349231E+000  0.4783913E+03  0.7546771E-02  0.1019578E+00
         21   -1    0    0  503  501  0.00000000000E+00  0.00000000000E+00  0.11262447730E+04  0.11262447730E+04  0.00000000000E+00 0.  1.
         21   -1    0    0  504  502 -0.00000000000E+00 -0.00000000000E+00 -0.10413666105E+04  0.10413666105E+04  0.00000000000E+00 0.  1.
         25    1    1    2    0    0  0.26688027356E+03  0.16399946622E+02 -0.49357808149E+03  0.57509856650E+03  0.12500000000E+03 0.  0.
         21    1    1    2  503  502 -0.98253454378E+02  0.45703599753E+01  0.10689256629E+04  0.10734415225E+04  0.00000000000E+00 0.  1.
         21    1    1    2  504  501 -0.16862681918E+03 -0.20970306598E+02 -0.49046941887E+03  0.51907129448E+03  0.00000000000E+00 0.  1.
<mgrwt>
<rscale>  4 0.47839126E+03</rscale>
<asrwt>0</asrwt>
<pdfrwt beam="1">  1       21 0.17326843E+00 0.47839126E+03</pdfrwt>
<pdfrwt beam="2">  1       21 0.16021025E+00 0.47839126E+03</pdfrwt>
<totfact> 0.38885421E+01</totfact>
</mgrwt>
</event>
<event>
 5    0  0.2349231E+000  0.5853103E+03  0.7546771E-02  0.9936360E-01
         21   -1    0    0  502  501  0.00000000000E+00  0.00000000000E+00  0.59669439930E+03  0.59669439930E+03  0.00000000000E+00 0. -1.
         21   -1    0    0  504  502 -0.00000000000E+00 -0.00000000000E+00 -0.16705676257E+03  0.16705676257E+03  0.00000000000E+00 0. -1.
         25    1    1    2    0    0  0.14845121902E+03  0.18052459965E+03 -0.10282117410E+01  0.26505273575E+03  0.12500000000E+03 0.  0.
         21    1    1    2  503  501 -0.24606283256E+02  0.44042582623E+01  0.75764170284E+02  0.79781427446E+02  0.00000000000E+00 0.  1.
         21    1    1    2  504  503 -0.12384493577E+03 -0.18492885791E+03  0.35490167818E+03  0.41891699868E+03  0.00000000000E+00 0. -1.
<mgrwt>
<rscale>  4 0.58531032E+03</rscale>
<asrwt>0</asrwt>
<pdfrwt beam="1">  1       21 0.91799137E-01 0.58531032E+03</pdfrwt>
<pdfrwt beam="2">  1       21 0.25701041E-01 0.58531032E+03</pdfrwt>
<totfact> 0.12473769E+04</totfact>
</mgrwt>
</event>
<event>
 5    0  0.2349231E+000  0.9454685E+03  0.7546771E-02  0.9370463E-01
         21   -1    0    0  502  501  0.00000000000E+00  0.00000000000E+00  0.10170631204E+04  0.10170631204E+04  0.00000000000E+00 0.  1.
         21   -1    0    0  504  502 -0.00000000000E+00 -0.00000000000E+00 -0.62911269902E+03  0.62911269902E+03  0.00000000000E+00 0. -1.
         25    1    1    2    0    0  0.30179456568E+03  0.26450226949E+03 -0.38999626953E+03  0.57337902010E+03  0.12500000000E+03 0.  0.
         21    1    1    2  503  501  0.39551061844E+02 -0.72060133419E+02  0.65782813674E+03  0.66294404501E+03  0.00000000000E+00 0.  1.
         21    1    1    2  504  503 -0.34134562753E+03 -0.19244213607E+03  0.12011855418E+03  0.40985275432E+03  0.00000000000E+00 0.  1.
<mgrwt>
<rscale>  4 0.94546853E+03</rscale>
<asrwt>0</asrwt>
<pdfrwt beam="1">  1       21 0.15647125E+00 0.94546853E+03</pdfrwt>
<pdfrwt beam="2">  1       21 0.96786569E-01 0.94546853E+03</pdfrwt>
<totfact> 0.16323453E+02</totfact>
</mgrwt>
</event>
<event>
 5    0  0.2349231E+000  0.3574579E+03  0.7546771E-02  0.1059595E+00
         21   -1    0    0  503  501  0.00000000000E+00  0.00000000000E+00  0.90152078045E+02  0.90152078045E+02  0.00000000000E+00 0. -1.
         21   -1    0    0  504  502 -0.00000000000E+00 -0.00000000000E+00 -0.13511426385E+04  0.13511426385E+04  0.00000000000E+00 0.  1.
         25    1    1    2    0    0  0.16333712267E+03 -0.12818566777E+03 -0.91308465694E+03  0.94470057257E+03  0.12500000000E+03 0.  0.
         21    1    1    2  503  502 -0.50649593530E+02  0.13570659865E+03 -0.15680117794E+02  0.14569669981E+03  0.00000000000E+00 0. -1.
         21    1    1    2  504  501 -0.11268752914E+03 -0.75209308784E+01 -0.33222578577E+03  0.35089744421E+03  0.00000000000E+00 0. -1.
<mgrwt>
<rscale>  4 0.35745786E+03</rscale>
<asrwt>0</asrwt>
<pdfrwt beam="1">  1       21 0.13869551E-01 0.35745786E+03</pdfrwt>
<pdfrwt beam="2">  1       21 0.20786808E+00 0.35745786E+03</pdfrwt>
<totfact> 0.48323848E+03</totfact>
</mgrwt>
</event>
