<event>
 5    0  0.4144186E+000  0.2853599E+03  0.7546771E-02  0.1092797E+00
         21   -1    0    0  502  501  0.00000000000E+00  0.00000000000E+00  0.57309836193E+02  0.57309836193E+02  0.00000000000E+00 0. -1.
         21   -1    0    0  503  502 -0.00000000000E+00 -0.00000000000E+00 -0.16167082501E+04  0.16167082501E+04  0.00000000000E+00 0. -1.
         25    1    1    2    0    0 -0.12115293055E+03 -0.24892244609E+03 -0.65605653267E+03  0.72296306324E+03  0.12500000000E+03 0.  0.
         21    1    1    2  503  504  0.10628229882E+03  0.21301825919E+03 -0.60433519855E+03  0.64953347720E+03  0.00000000000E+00 0. -1.
         21    1    1    2  504  501  0.14870631736E+02  0.35904186899E+02 -0.29900668270E+03  0.30152154587E+03  0.00000000000E+00 0. -1.
<mgrwt>
<rscale>  4 0.28535992E+03</rscale>
<asrwt>0</asrwt>
<pdfrwt beam="1">  1       21 0.88168979E-02 0.28535992E+03</pdfrwt>
<pdfrwt beam="2">  1       21 0.24872435E+00 0.28535992E+03</pdfrwt>
<totfact> 0.63427710E+03</totfact>
</mgrwt>
</event>
<event>
 5    0  0.2159162E+000  0.2600969E+03  0.7546771E-02  0.1107085E+00
         21   -1    0    0  502  501  0.00000000000E+00  0.00000000000E+00  0.44376122888E+03  0.44376122888E+03  0.00000000000E+00 0.  1.
         21   -1    0    0  503  502 -0.00000000000E+00 -0.00000000000E+00 -0.16188461761E+03  0.16188461761E+03  0.00000000000E+00 0.  1.
         25    1    1    2    0    0 -0.10573620423E+03  0.20210208945E+03  0.47191348935E+02  0.26434338058E+03  0.12500000000E+03 0.  0.
         21    1    1    2  503  504  0.99534501755E+02 -0.86172039926E+02  0.12092444316E+03  0.17876089746E+03  0.00000000000E+00 0.  1.
         21    1    1    2  504  501  0.62017024711E+01 -0.11593004953E+03  0.11376081917E+03  0.16254156845E+03  0.00000000000E+00 0.  1.
<mgrwt>
<rscale>  4 0.26009690E+03</rscale>
<asrwt>0</asrwt>
<pdfrwt beam="1">  1       21 0.68270958E-01 0.26009690E+03</pdfrwt>
<pdfrwt beam="2">  1       21 0.24905326E-01 0.26009690E+03</pdfrwt>
<totfact> 0.28882017E+04</totfact>
</mgrwt>
</event>
<event>
 5    0  0.2540310E+000  0.2843506E+03  0.7546771E-02  0.1093336E+00
         21   -1    0    0  502  501  0.00000000000E+00  0.00000000000E+00  0.98688521980E+02  0.98688521980E+02  0.00000000000E+00 0. -1.
         21   -1    0    0  503  502 -0.00000000000E+00 -0.00000000000E+00 -0.74771798185E+03  0.74771798185E+03  0.00000000000E+00 0. -1.
         25    1    1    2    0    0 -0.19006573325E+03  0.17060265859E+03 -0.33607536154E+03  0.44022937056E+03  0.12500000000E+03 0.  0.
         21    1    1    2  503  504  0.17088934586E+03 -0.14513597822E+03 -0.29150558658E+03  0.36775416749E+03  0.00000000000E+00 0. -1.
         21    1    1    2  504  501  0.19176387387E+02 -0.25466680372E+02 -0.21448511749E+02  0.38422965770E+02  0.00000000000E+00 0. -1.
<mgrwt>
<rscale>  4 0.28435058E+03</rscale>
<asrwt>0</asrwt>
<pdfrwt beam="1">  1       21 0.15182850E-01 0.28435058E+03</pdfrwt>
<pdfrwt beam="2">  1       21 0.11503353E+00 0.28435058E+03</pdfrwt>
<totfact> 0.21413889E+04</totfact>
</mgrwt>
</event>
<event>
 5    0  0.5349221E+000  0.2271921E+03  0.7546771E-02  0.1128632E+00
         21   -1    0    0  502  501  0.00000000000E+00  0.00000000000E+00  0.35004409263E+03  0.35004409263E+03  0.00000000000E+00 0.  1.
         21   -1    0    0  503  502 -0.00000000000E+00 -0.00000000000E+00 -0.16440492878E+03  0.16440492878E+03  0.00000000000E+00 0.  1.
         25    1    1    2    0    0  0.15410614520E+03 -0.13996893027E+03  0.52279934238E+02  0.24839121754E+03  0.12500000000E+03 0.  0.
         21    1    1    2  503  504 -0.14758460593E+03  0.93933540961E+02  0.72256767247E+02  0.18927695696E+03  0.00000000000E+00 0.  1.
         21    1    1    2  504  501 -0.65215392738E+01  0.46035389305E+02  0.61102462369E+02  0.76780846899E+02  0.00000000000E+00 0. -1.
<mgrwt>
<rscale>  4 0.22719212E+03</rscale>
<asrwt>0</asrwt>
<pdfrwt beam="1">  1       21 0.53852937E-01 0.22719212E+03</pdfrwt>
<pdfrwt beam="2">  1       21 0.25293066E-01 0.22719212E+03</pdfrwt>
<totfact> 0.47524110E+04</totfact>
</mgrwt>
</event>
<event>
 5    0  0.2159162E+000  0.3373569E+03  0.7546771E-02  0.1067927E+00
         21   -1    0    0  502  501  0.00000000000E+00  0.00000000000E+00  0.23496092221E+03  0.23496092221E+03  0.00000000000E+00 0. -1.
         21   -1    0    0  503  502 -0.00000000000E+00 -0.00000000000E+00 -0.78231271787E+03  0.78231271787E+03  0.00000000000E+00 0. -1.
         25    1    1    2    0    0  0.54528167818E+02  0.30337570048E+03 -0.15126197103E+02  0.33296236809E+03  0.12500000000E+03 0.  0.
         21    1    1    2  503  504  0.87603771514E+02 -0.14357714227E+01 -0.17344667589E+03  0.19431992075E+03  0.00000000000E+00 0. -1.
         21    1    1    2  504  501 -0.14213193933E+03 -0.30193992905E+03 -0.35877892267E+03  0.48999135124E+03  0.00000000000E+00 0. -1.
<mgrwt>
<rscale>  4 0.33735687E+03</rscale>
<asrwt>0</asrwt>
<pdfrwt beam="1">  1       21 0.36147834E-01 0.33735687E+03</pdfrwt>
<pdfrwt beam="2">  1       21 0.12035580E+00 0.33735687E+03</pdfrwt>
<totfact> 0.35244398E+03</totfact>
</mgrwt>
</event>
<event>
 5    0  0.4651861E+000  0.2367970E+03  0.7546771E-02  0.1121945E+00
         21   -1    0    0  502  501  0.00000000000E+00  0.00000000000E+00  0.31864096753E+03  0.31864096753E+03  0.00000000000E+00 0.  1.
         21   -1    0    0  503  502 -0.00000000000E+00 -0.00000000000E+00 -0.28832781784E+03  0.28832781784E+03  0.00000000000E+00 0.  1.
         25    1    1    2    0    0 -0.64057807106E+02 -0.19064208059E+03  0.22284365925E+03  0.32516473058E+03  0.12500000000E+03 0.  0.
         21    1    1    2  503  504  0.47144238182E+02  0.17559920153E+03 -0.16012573865E+03  0.24227651754E+03  0.00000000000E+00 0.  1.
         21    1    1    2  504  501  0.16913568924E+02  0.15042879060E+02 -0.32404770906E+02  0.39527537258E+02  0.00000000000E+00 0. -1.
<mgrwt>
<rscale>  4 0.23679697E+03</rscale>
<asrwt>0</asrwt>
<pdfrwt beam="1">  1       21 0.49021688E-01 0.23679697E+03</pdfrwt>
<pdfrwt beam="2">  1       21 0.44358126E-01 0.23679697E+03</pdfrwt>
<totfact> 0.18897683E+04</totfact>
</mgrwt>
</event>
<event>
 5    0  0.2159162E+000  0.2382386E+03  0.7546771E-02  0.1120972E+00
         21   -1    0    0  502  501  0.00000000000E+00  0.00000000000E+00  0.19445755543E+03  0.19445755543E+03  0.00000000000E+00 0.  1.
         21   -1    0    0  503  502 -0.00000000000E+00 -0.00000000000E+00 -0.31773105891E+03  0.31773105891E+03  0.00000000000E+00 0.  1.
         25    1    1    2    0    0  0.13413745824E+03 -0.16743951983E+03 -0.10176122575E+03  0.26834529541E+03  0.12500000000E+03 0.  0.
         21    1    1    2  503  504 -0.84647533271E+02  0.17291041127E+03 -0.10230059958E+02  0.19278970237E+03  0.00000000000E+00 0.  1.
         21    1    1    2  504  501 -0.49489924968E+02 -0.54708914380E+01 -0.11282217778E+02  0.51053616566E+02  0.00000000000E+00 0.  1.
<mgrwt>
<rscale>  4 0.23823865E+03</rscale>
<asrwt>0</asrwt>
<pdfrwt beam="1">  1       21 0.29916547E-01 0.23823865E+03</pdfrwt>
<pdfrwt beam="2">  1       21 0.48881701E-01 0.23823865E+03</pdfrwt>
<totfact> 0.41875467E+04</totfact>
</mgrwt>
</event>
<event>
 5    0  0.3520365E+000  0.2425067E+03  0.7546771E-02  0.1118134E+00
         21   -1    0    0  502  501  0.00000000000E+00  0.00000000000E+00  0.27185987914E+03  0.27185987914E+03  0.00000000000E+00 0. -1.
         21   -1    0    0  503  502 -0.00000000000E+00 -0.00000000000E+00 -0.43526367204E+03  0.43526367204E+03  0.00000000000E+00 0. -1.
         25    1    1    2    0    0  0.26012020599E+03  0.11824879747E+02  0.78671782869E+02  0.29936031595E+03  0.12500000000E+03 0.  0.
         21    1    1    2  503  504 -0.10288747313E+03  0.36953791883E+02 -0.21462681866E+03  0.24086528631E+03  0.00000000000E+00 0. -1.
         21    1    1    2  504  501 -0.15723273286E+03 -0.48778671630E+02 -0.27448757111E+02  0.16689794893E+03  0.00000000000E+00 0. -1.
<mgrwt>
<rscale>  4 0.24250667E+03</rscale>
<asrwt>0</asrwt>
<pdfrwt beam="1">  1       21 0.41824597E-01 0.24250667E+03</pdfrwt>
<pdfrwt beam="2">  1       21 0.66963641E-01 0.24250667E+03</pdfrwt>
<totfact> 0.10894537E+04</totfact>
</mgrwt>
</event>
<event>
 5    0  0.2159162E+000  0.3400440E+03  0.7546771E-02  0.1066777E+00
         21   -1    0    0  502  501  0.00000000000E+00  0.00000000000E+00  0.21105469413E+04  0.21105469413E+04  0.00000000000E+00 0. -1.
         21   -1    0    0  503  502 -0.00000000000E+00 -0.00000000000E+00 -0.63377799223E+02  0.63377799223E+02  0.00000000000E+00 0. -1.
         25    1    1    2    0    0  0.31441576961E+03 -0.33876646386E+02  0.14860806843E+04  0.15244886695E+04  0.12500000000E+03 0.  0.
         21    1    1    2  503  504 -0.21152106500E+03  0.46907909387E+02  0.43660990451E+03  0.48741124486E+03  0.00000000000E+00 0. -1.
         21    1    1    2  504  501 -0.10289470461E+03 -0.13031263000E+02  0.12447855328E+03  0.16202482612E+03  0.00000000000E+00 0. -1.
<mgrwt>
<rscale>  4 0.34004397E+03</rscale>
<asrwt>0</asrwt>
<pdfrwt beam="1">  1       21 0.32469948E+00 0.34004397E+03</pdfrwt>
<pdfrwt beam="2">  1       21 0.97504323E-02 0.34004397E+03</pdfrwt>
<totfact> 0.18053594E+03</totfact>
</mgrwt>
</event>
<event>
 5    0  0.2159162E+000  0.2908943E+03  0.7546771E-02  0.1089883E+00
         21   -1    0    0  502  501  0.00000000000E+00  0.00000000000E+00  0.30925917002E+03  0.30925917002E+03  0.00000000000E+00 0. -1.
         21   -1    0    0  503  502 -0.00000000000E+00 -0.00000000000E+00 -0.54255331646E+03  0.54255331646E+03  0.00000000000E+00 0.  1.
         25    1    1    2    0    0  0.70085233845E+02  0.27189191458E+03  0.17212186239E+03  0.35226139262E+03  0.12500000000E+03 0.  0.
         21    1    1    2  503  504 -0.10719092193E+02 -0.18743561476E+02 -0.50727504997E+01  0.22180009735E+02  0.00000000000E+00 0. -1.
         21    1    1    2  504  501 -0.59366141653E+02 -0.25314835311E+03 -0.40034325833E+03  0.47737108411E+03  0.00000000000E+00 0.  1.
<mgrwt>
<rscale>  4 0.29089435E+03</rscale>
<asrwt>0</asrwt>
<pdfrwt beam="1">  1       21 0.47578334E-01 0.29089435E+03</pdfrwt>
<pdfrwt beam="2">  1       21 0.83469741E-01 0.29089435E+03</pdfrwt>
<totfact> 0.49505179E+03</totfact>
</mgrwt>
</event>
<event>
 5    0  0.2159162E+000  0.2564369E+03  0.7546771E-02  0.1109303E+00
         21   -1    0    0  502  501  0.00000000000E+00  0.00000000000E+00  0.15722691180E+04  0.15722691180E+04  0.00000000000E+00 0.  1.
         21   -1    0    0  503  502 -0.00000000000E+00 -0.00000000000E+00 -0.38834833398E+02  0.38834833398E+02  0.00000000000E+00 0.  1.
         25    1    1    2    0    0  0.13240001428E+03 -0.18056888305E+03  0.66020246712E+03  0.70825643865E+03  0.12500000000E+03 0.  0.
         21    1    1    2  503  504 -0.11918838234E+03  0.14444609155E+03  0.77617098124E+03  0.79844344569E+03  0.00000000000E+00 0.  1.
         21    1    1    2  504  501 -0.13211631942E+02  0.36122791500E+02  0.97060836191E+02  0.10440406700E+03  0.00000000000E+00 0.  1.
<mgrwt>
<rscale>  4 0.25643690E+03</rscale>
<asrwt>0</asrwt>
<pdfrwt beam="1">  1       21 0.24188751E+00 0.25643690E+03</pdfrwt>
<pdfrwt beam="2">  1       21 0.59745910E-02 0.25643690E+03</pdfrwt>
<totfact> 0.14022485E+04</totfact>
</mgrwt>
</event>
