<event>
 5    0  0.1467858E+000  0.2594303E+03  0.7546771E-02  0.1107486E+00
         21   -1    0    0  504  501  0.00000000000E+00  0.00000000000E+00  0.31073137426E+03  0.31073137426E+03  0.00000000000E+00 0. -1.
         21   -1    0    0  501  502 -0.00000000000E+00 -0.00000000000E+00 -0.29690936284E+03  0.29690936284E+03  0.00000000000E+00 0. -1.
         25    1    1    2    0    0 -0.92084200284E+02  0.21758442921E+03 -0.14397088766E+03  0.30360352480E+03  0.12500000000E+03 0.  0.
         21    1    1    2  503  502 -0.24719528714E+02 -0.43517688868E+02  0.35336243416E+02  0.61265768934E+02  0.00000000000E+00 0. -1.
         21    1    1    2  504  503  0.11680372900E+03 -0.17406674034E+03  0.12245665566E+03  0.24277144337E+03  0.00000000000E+00 0. -1.
<mgrwt>
<rscale>  4 0.25943033E+03</rscale>
<asrwt>0</asrwt>
<pdfrwt beam="1">  1       21 0.47804827E-01 0.25943033E+03</pdfrwt>
<pdfrwt beam="2">  1       21 0.45678363E-01 0.25943033E+03</pdfrwt>
<totfact> 0.18538225E+04</totfact>
</mgrwt>
</event>
<event>
 5    0  0.1467858E+000  0.3379849E+03  0.7546771E-02  0.1067657E+00
         21   -1    0    0  504  501  0.00000000000E+00  0.00000000000E+00  0.13412774529E+04  0.13412774529E+04  0.00000000000E+00 0.  1.
         21   -1    0    0  501  502 -0.00000000000E+00 -0.00000000000E+00 -0.13895002037E+04  0.13895002037E+04  0.00000000000E+00 0.  1.
         25    1    1    2    0    0 -0.31146016577E+03  0.50719453784E+02 -0.13434596743E+04  0.13856726866E+04  0.12500000000E+03 0.  0.
         21    1    1    2  503  502  0.22250860711E+03 -0.52043759430E+02  0.11661765776E+04  0.11883545108E+04  0.00000000000E+00 0.  1.
         21    1    1    2  504  503  0.88951558659E+02  0.13243056455E+01  0.12906034590E+03  0.15675045920E+03  0.00000000000E+00 0. -1.
<mgrwt>
<rscale>  4 0.33798492E+03</rscale>
<asrwt>0</asrwt>
<pdfrwt beam="1">  1       21 0.20635038E+00 0.33798492E+03</pdfrwt>
<pdfrwt beam="2">  1       21 0.21376926E+00 0.33798492E+03</pdfrwt>
<totfact> 0.10996280E+01</totfact>
</mgrwt>
</event>
<event>
 5    0  0.1467858E+000  0.2382510E+03  0.7546771E-02  0.1120963E+00
         21   -1    0    0  504  501  0.00000000000E+00  0.00000000000E+00  0.52084836180E+03  0.52084836180E+03  0.00000000000E+00 0.  1.
         21   -1    0    0  501  502 -0.00000000000E+00 -0.00000000000E+00 -0.14614450969E+03  0.14614450969E+03  0.00000000000E+00 0.  1.
         25    1    1    2    0    0 -0.97886580814E+02 -0.17764219158E+03  0.11498656845E+00  0.23825101081E+03  0.12500000000E+03 0.  0.
         21    1    1    2  503  502  0.10104743773E+02  0.54020730514E+02  0.12755643691E+03  0.13889200758E+03  0.00000000000E+00 0.  1.
         21    1    1    2  504  503  0.87781837042E+02  0.12362146106E+03  0.24703242864E+03  0.28984985311E+03  0.00000000000E+00 0.  1.
<mgrwt>
<rscale>  4 0.23825098E+03</rscale>
<asrwt>0</asrwt>
<pdfrwt beam="1">  1       21 0.80130516E-01 0.23825098E+03</pdfrwt>
<pdfrwt beam="2">  1       21 0.22483771E-01 0.23825098E+03</pdfrwt>
<totfact> 0.24765492E+04</totfact>
</mgrwt>
</event>
<event>
 5    0  0.1467858E+000  0.2478047E+03  0.7546771E-02  0.1114700E+00
         21   -1    0    0  504  501  0.00000000000E+00  0.00000000000E+00  0.18758999560E+03  0.18758999560E+03  0.00000000000E+00 0.  1.
         21   -1    0    0  501  502 -0.00000000000E+00 -0.00000000000E+00 -0.29403766514E+03  0.29403766514E+03  0.00000000000E+00 0.  1.
         25    1    1    2    0    0 -0.19741669321E+03  0.82515416317E+02 -0.52123408048E+02  0.25322715959E+03  0.12500000000E+03 0.  0.
         21    1    1    2  503  502  0.33546497313E+02 -0.29448688033E+02 -0.31528620266E+02  0.54650220537E+02  0.00000000000E+00 0.  1.
         21    1    1    2  504  503  0.16387019590E+03 -0.53066728284E+02 -0.22795641219E+02  0.17375028061E+03  0.00000000000E+00 0.  1.
<mgrwt>
<rscale>  4 0.24780465E+03</rscale>
<asrwt>0</asrwt>
<pdfrwt beam="1">  1       21 0.28860000E-01 0.24780465E+03</pdfrwt>
<pdfrwt beam="2">  1       21 0.45236563E-01 0.24780465E+03</pdfrwt>
<totfact> 0.52570314E+04</totfact>
</mgrwt>
</event>
<event>
 5    0  0.1467858E+000  0.4483088E+03  0.7546771E-02  0.1028228E+00
         21   -1    0    0  504  501  0.00000000000E+00  0.00000000000E+00  0.94998326886E+03  0.94998326886E+03  0.00000000000E+00 0.  1.
         21   -1    0    0  501  502 -0.00000000000E+00 -0.00000000000E+00 -0.21984489197E+03  0.21984489197E+03  0.00000000000E+00 0.  1.
         25    1    1    2    0    0 -0.42937929851E+03  0.31451433707E+02  0.51413173760E+03  0.68213797599E+03  0.12500000000E+03 0.  0.
         21    1    1    2  503  502  0.49465095400E+02 -0.28736264870E+02  0.32072360580E+02  0.65583571836E+02  0.00000000000E+00 0. -1.
         21    1    1    2  504  503  0.37991420311E+03 -0.27151688367E+01  0.18393427870E+03  0.42210661301E+03  0.00000000000E+00 0.  1.
<mgrwt>
<rscale>  4 0.44830879E+03</rscale>
<asrwt>0</asrwt>
<pdfrwt beam="1">  1       21 0.14615127E+00 0.44830879E+03</pdfrwt>
<pdfrwt beam="2">  1       21 0.33822292E-01 0.44830879E+03</pdfrwt>
<totfact> 0.23169474E+03</totfact>
</mgrwt>
</event>
<event>
 5    0  0.1467858E+000  0.2482723E+03  0.7546771E-02  0.1114402E+00
         21   -1    0    0  504  501  0.00000000000E+00  0.00000000000E+00  0.24005450643E+04  0.24005450643E+04  0.00000000000E+00 0.  1.
         21   -1    0    0  501  502 -0.00000000000E+00 -0.00000000000E+00 -0.26111602158E+02  0.26111602158E+02  0.00000000000E+00 0.  1.
         25    1    1    2    0    0 -0.17319777397E+03 -0.12655691382E+03  0.87933295874E+03  0.91370978635E+03  0.12500000000E+03 0.  0.
         21    1    1    2  503  502  0.40789633865E+02  0.78446490320E+02  0.68582794839E+03  0.69150388348E+03  0.00000000000E+00 0.  1.
         21    1    1    2  504  503  0.13240814011E+03  0.48110423500E+02  0.80927255502E+03  0.82144299664E+03  0.00000000000E+00 0.  1.
<mgrwt>
<rscale>  4 0.24827227E+03</rscale>
<asrwt>0</asrwt>
<pdfrwt beam="1">  1       21 0.36931445E+00 0.24827227E+03</pdfrwt>
<pdfrwt beam="2">  1       21 0.40171715E-02 0.24827227E+03</pdfrwt>
<totfact> 0.48954130E+03</totfact>
</mgrwt>
</event>
<event>
 5    0  0.1467858E+000  0.2175509E+03  0.7546771E-02  0.1135722E+00
         21   -1    0    0  504  501  0.00000000000E+00  0.00000000000E+00  0.54404404071E+02  0.54404404071E+02  0.00000000000E+00 0.  1.
         21   -1    0    0  501  502 -0.00000000000E+00 -0.00000000000E+00 -0.11893937118E+04  0.11893937118E+04  0.00000000000E+00 0.  1.
         25    1    1    2    0    0  0.17418195071E+03 -0.13061167304E+03 -0.41833900116E+03  0.48788449553E+03  0.12500000000E+03 0.  0.
         21    1    1    2  503  502 -0.61408045985E+02  0.33263553849E+02 -0.39896011021E+03  0.40502664315E+03  0.00000000000E+00 0.  1.
         21    1    1    2  504  503 -0.11277390472E+03  0.97348119191E+02 -0.31769019636E+03  0.35088697719E+03  0.00000000000E+00 0.  1.
<mgrwt>
<rscale>  4 0.21755086E+03</rscale>
<asrwt>0</asrwt>
<pdfrwt beam="1">  1       21 0.83699092E-02 0.21755086E+03</pdfrwt>
<pdfrwt beam="2">  1       21 0.18298363E+00 0.21755086E+03</pdfrwt>
<totfact> 0.18925186E+04</totfact>
</mgrwt>
</event>
<event>
 5    0  0.1467858E+000  0.3106374E+03  0.7546771E-02  0.1080041E+00
         21   -1    0    0  504  501  0.00000000000E+00  0.00000000000E+00  0.66418950399E+03  0.66418950399E+03  0.00000000000E+00 0. -1.
         21   -1    0    0  501  502 -0.00000000000E+00 -0.00000000000E+00 -0.44010979202E+03  0.44010979202E+03  0.00000000000E+00 0. -1.
         25    1    1    2    0    0 -0.31776842958E+02 -0.28478446147E+03 -0.33167949727E+03  0.45579408306E+03  0.12500000000E+03 0.  0.
         21    1    1    2  503  502  0.69492464660E+02  0.25814293904E+03  0.53459210260E+03  0.59770870480E+03  0.00000000000E+00 0. -1.
         21    1    1    2  504  503 -0.37715621701E+02  0.26641522430E+02  0.21167106638E+02  0.50796508159E+02  0.00000000000E+00 0. -1.
<mgrwt>
<rscale>  4 0.31063736E+03</rscale>
<asrwt>0</asrwt>
<pdfrwt beam="1">  1       21 0.10218300E+00 0.31063736E+03</pdfrwt>
<pdfrwt beam="2">  1       21 0.67709198E-01 0.31063736E+03</pdfrwt>
<totfact> 0.14219829E+03</totfact>
</mgrwt>
</event>
<event>
 5    0  0.1467858E+000  0.2555852E+03  0.7546771E-02  0.1109825E+00
         21   -1    0    0  504  501  0.00000000000E+00  0.00000000000E+00  0.11999195878E+03  0.11999195878E+03  0.00000000000E+00 0. -1.
         21   -1    0    0  501  502 -0.00000000000E+00 -0.00000000000E+00 -0.56933372189E+03  0.56933372189E+03  0.00000000000E+00 0. -1.
         25    1    1    2    0    0  0.70807428485E+02  0.21138845557E+03 -0.35757903970E+03  0.43952990877E+03  0.12500000000E+03 0.  0.
         21    1    1    2  503  502 -0.66104906637E+02 -0.15294600282E+03 -0.39467290911E+02  0.17123085444E+03  0.00000000000E+00 0. -1.
         21    1    1    2  504  503 -0.47025218482E+01 -0.58442452747E+02 -0.52295432508E+02  0.78564917463E+02  0.00000000000E+00 0. -1.
<mgrwt>
<rscale>  4 0.25558515E+03</rscale>
<asrwt>0</asrwt>
<pdfrwt beam="1">  1       21 0.18460301E-01 0.25558515E+03</pdfrwt>
<pdfrwt beam="2">  1       21 0.87589803E-01 0.25558515E+03</pdfrwt>
<totfact> 0.29021416E+04</totfact>
</mgrwt>
</event>
<event>
 5    0  0.1467858E+000  0.3126768E+03  0.7546771E-02  0.1079070E+00
         21   -1    0    0  504  501  0.00000000000E+00  0.00000000000E+00  0.82613280810E+03  0.82613280810E+03  0.00000000000E+00 0. -1.
         21   -1    0    0  501  502 -0.00000000000E+00 -0.00000000000E+00 -0.19324063318E+03  0.19324063318E+03  0.00000000000E+00 0. -1.
         25    1    1    2    0    0  0.86599074590E+02 -0.27320762156E+03 -0.10315284978E+02  0.31284694230E+03  0.12500000000E+03 0.  0.
         21    1    1    2  503  502 -0.51638546909E+01  0.59968043058E+02  0.18617768351E+03  0.19566543236E+03  0.00000000000E+00 0. -1.
         21    1    1    2  504  503 -0.81435219899E+02  0.21323957850E+03  0.45702977639E+03  0.51086106662E+03  0.00000000000E+00 0. -1.
<mgrwt>
<rscale>  4 0.31267684E+03</rscale>
<asrwt>0</asrwt>
<pdfrwt beam="1">  1       21 0.12709735E+00 0.31267684E+03</pdfrwt>
<pdfrwt beam="2">  1       21 0.29729329E-01 0.31267684E+03</pdfrwt>
<totfact> 0.45880554E+03</totfact>
</mgrwt>
</event>
<event>
 5    0  0.1467858E+000  0.3028235E+03  0.7546771E-02  0.1083838E+00
         21   -1    0    0  504  501  0.00000000000E+00  0.00000000000E+00  0.10468899195E+04  0.10468899195E+04  0.00000000000E+00 0. -1.
         21   -1    0    0  501  502 -0.00000000000E+00 -0.00000000000E+00 -0.81620661437E+02  0.81620661437E+02  0.00000000000E+00 0. -1.
         25    1    1    2    0    0  0.90858411963E+01  0.27567104763E+03  0.46895718930E+03  0.55823196290E+03  0.12500000000E+03 0.  0.
         21    1    1    2  503  502 -0.50320205625E+01 -0.25302088428E+03  0.41784427171E+03  0.48850662689E+03  0.00000000000E+00 0. -1.
         21    1    1    2  504  503 -0.40538206338E+01 -0.22650163348E+02  0.78467797082E+02  0.81771991173E+02  0.00000000000E+00 0. -1.
<mgrwt>
<rscale>  4 0.30282351E+03</rscale>
<asrwt>0</asrwt>
<pdfrwt beam="1">  1       21 0.16105998E+00 0.30282351E+03</pdfrwt>
<pdfrwt beam="2">  1       21 0.12557026E-01 0.30282351E+03</pdfrwt>
<totfact> 0.12512462E+04</totfact>
</mgrwt>
</event>
<event>
 5    0  0.1467858E+000  0.2643620E+03  0.7546771E-02  0.1104550E+00
         21   -1    0    0  504  501  0.00000000000E+00  0.00000000000E+00  0.31106476506E+03  0.31106476506E+03  0.00000000000E+00 0.  1.
         21   -1    0    0  501  502 -0.00000000000E+00 -0.00000000000E+00 -0.41190756948E+03  0.41190756948E+03  0.00000000000E+00 0.  1.
         25    1    1    2    0    0 -0.25221221035E+03 -0.18713705005E+03  0.27256008325E+02  0.33911526734E+03  0.12500000000E+03 0.  0.
         21    1    1    2  503  502  0.14532108343E+03  0.31732825002E+02 -0.12645509415E+03  0.19523339957E+03  0.00000000000E+00 0.  1.
         21    1    1    2  504  503  0.10689112692E+03  0.15540422505E+03 -0.16437185911E+01  0.18862366763E+03  0.00000000000E+00 0.  1.
<mgrwt>
<rscale>  4 0.26436200E+03</rscale>
<asrwt>0</asrwt>
<pdfrwt beam="1">  1       21 0.47856118E-01 0.26436200E+03</pdfrwt>
<pdfrwt beam="2">  1       21 0.63370395E-01 0.26436200E+03</pdfrwt>
<totfact> 0.91988033E+03</totfact>
</mgrwt>
</event>
<event>
 5    0  0.1467858E+000  0.3044636E+03  0.7546771E-02  0.1083030E+00
         21   -1    0    0  504  501  0.00000000000E+00  0.00000000000E+00  0.36644036643E+03  0.36644036643E+03  0.00000000000E+00 0. -1.
         21   -1    0    0  501  502 -0.00000000000E+00 -0.00000000000E+00 -0.34780747437E+03  0.34780747437E+03  0.00000000000E+00 0. -1.
         25    1    1    2    0    0  0.24771759694E+03 -0.92321211841E+02 -0.11451723878E+03  0.31404842296E+03  0.12500000000E+03 0.  0.
         21    1    1    2  503  502  0.28812632946E+02  0.31583192153E+02 -0.47849152540E+02  0.64165467681E+02  0.00000000000E+00 0. -1.
         21    1    1    2  504  503 -0.27653022988E+03  0.60738019688E+02  0.18099928339E+03  0.33603395016E+03  0.00000000000E+00 0. -1.
<mgrwt>
<rscale>  4 0.30446355E+03</rscale>
<asrwt>0</asrwt>
<pdfrwt beam="1">  1       21 0.56375441E-01 0.30446355E+03</pdfrwt>
<pdfrwt beam="2">  1       21 0.53508843E-01 0.30446355E+03</pdfrwt>
<totfact> 0.91850131E+03</totfact>
</mgrwt>
</event>
<event>
 5    0  0.1467858E+000  0.2701326E+03  0.7546771E-02  0.1101204E+00
         21   -1    0    0  504  501  0.00000000000E+00  0.00000000000E+00  0.18898622710E+03  0.18898622710E+03  0.00000000000E+00 0.  1.
         21   -1    0    0  501  502 -0.00000000000E+00 -0.00000000000E+00 -0.41844285608E+03  0.41844285608E+03  0.00000000000E+00 0.  1.
         25    1    1    2    0    0 -0.43333748995E+02 -0.23551815849E+03 -0.23726657483E+03  0.35953726416E+03  0.12500000000E+03 0.  0.
         21    1    1    2  503  502 -0.97101196735E+01  0.27272195250E+02 -0.13500256309E+02  0.31942385294E+02  0.00000000000E+00 0.  1.
         21    1    1    2  504  503  0.53043868668E+02  0.20824596324E+03  0.21310202169E+02  0.21594943373E+03  0.00000000000E+00 0.  1.
<mgrwt>
<rscale>  4 0.27013259E+03</rscale>
<asrwt>0</asrwt>
<pdfrwt beam="1">  1       21 0.29074805E-01 0.27013259E+03</pdfrwt>
<pdfrwt beam="2">  1       21 0.64375823E-01 0.27013259E+03</pdfrwt>
<totfact> 0.24240925E+04</totfact>
</mgrwt>
</event>
<event>
 5    0  0.1467858E+000  0.2368502E+03  0.7546771E-02  0.1121909E+00
         21   -1    0    0  504  501  0.00000000000E+00  0.00000000000E+00  0.11957215508E+03  0.11957215508E+03  0.00000000000E+00 0. -1.
         21   -1    0    0  501  502 -0.00000000000E+00 -0.00000000000E+00 -0.68170500981E+03  0.68170500981E+03  0.00000000000E+00 0. -1.
         25    1    1    2    0    0  0.20321745039E+03  0.16653279533E+01 -0.54044002162E+02  0.24463413423E+03  0.12500000000E+03 0.  0.
         21    1    1    2  503  502 -0.93351930080E+01  0.28087693550E+02 -0.46701506372E+02  0.55291003381E+02  0.00000000000E+00 0. -1.
         21    1    1    2  504  503 -0.19388225739E+03 -0.29753021504E+02 -0.46138734620E+03  0.50135202728E+03  0.00000000000E+00 0. -1.
<mgrwt>
<rscale>  4 0.23685015E+03</rscale>
<asrwt>0</asrwt>
<pdfrwt beam="1">  1       21 0.18395717E-01 0.23685015E+03</pdfrwt>
<pdfrwt beam="2">  1       21 0.10487769E+00 0.23685015E+03</pdfrwt>
<totfact> 0.19251022E+04</totfact>
</mgrwt>
</event>
<event>
 5    0  0.1467858E+000  0.2679418E+03  0.7546771E-02  0.1102463E+00
         21   -1    0    0  504  501  0.00000000000E+00  0.00000000000E+00  0.21681243160E+03  0.21681243160E+03  0.00000000000E+00 0. -1.
         21   -1    0    0  501  502 -0.00000000000E+00 -0.00000000000E+00 -0.30369332705E+03  0.30369332705E+03  0.00000000000E+00 0. -1.
         25    1    1    2    0    0  0.21985809215E+03 -0.88488551684E+02 -0.11352127449E+02  0.26818216805E+03  0.12500000000E+03 0.  0.
         21    1    1    2  503  502 -0.46126258839E+02  0.29448526253E+02 -0.33221453268E+02  0.64019625196E+02  0.00000000000E+00 0.  1.
         21    1    1    2  504  503 -0.17373183331E+03  0.59040025431E+02 -0.42307314728E+02  0.18830396540E+03  0.00000000000E+00 0. -1.
<mgrwt>
<rscale>  4 0.26794179E+03</rscale>
<asrwt>0</asrwt>
<pdfrwt beam="1">  1       21 0.33355759E-01 0.26794179E+03</pdfrwt>
<pdfrwt beam="2">  1       21 0.46722050E-01 0.26794179E+03</pdfrwt>
<totfact> 0.36669439E+04</totfact>
</mgrwt>
</event>
<event>
 5    0  0.1467858E+000  0.2806955E+03  0.7546771E-02  0.1095310E+00
         21   -1    0    0  504  501  0.00000000000E+00  0.00000000000E+00  0.29342701979E+03  0.29342701979E+03  0.00000000000E+00 0. -1.
         21   -1    0    0  501  502 -0.00000000000E+00 -0.00000000000E+00 -0.37539716269E+03  0.37539716269E+03  0.00000000000E+00 0. -1.
         25    1    1    2    0    0 -0.23706929691E+03  0.83445235243E+02 -0.23319629693E+03  0.36492529609E+03  0.12500000000E+03 0.  0.
         21    1    1    2  503  502  0.66228836493E+02 -0.10399961224E+02  0.45770769782E+01  0.67196485105E+02  0.00000000000E+00 0. -1.
         21    1    1    2  504  503  0.17084046042E+03 -0.73045274020E+02  0.14664907705E+03  0.23670240128E+03  0.00000000000E+00 0. -1.
<mgrwt>
<rscale>  4 0.28069549E+03</rscale>
<asrwt>0</asrwt>
<pdfrwt beam="1">  1       21 0.45142618E-01 0.28069549E+03</pdfrwt>
<pdfrwt beam="2">  1       21 0.57753410E-01 0.28069549E+03</pdfrwt>
<totfact> 0.12600580E+04</totfact>
</mgrwt>
</event>
<event>
 5    0  0.1467858E+000  0.3003905E+03  0.7546771E-02  0.1085046E+00
         21   -1    0    0  504  501  0.00000000000E+00  0.00000000000E+00  0.63253568293E+03  0.63253568293E+03  0.00000000000E+00 0.  1.
         21   -1    0    0  501  502 -0.00000000000E+00 -0.00000000000E+00 -0.19311674564E+03  0.19311674564E+03  0.00000000000E+00 0. -1.
         25    1    1    2    0    0 -0.27201665574E+03 -0.95242414792E+02  0.70313095408E+02  0.32192096850E+03  0.12500000000E+03 0.  0.
         21    1    1    2  503  502  0.20513473578E+03  0.14802984900E+03  0.30959386852E+03  0.39980177518E+03  0.00000000000E+00 0.  1.
         21    1    1    2  504  503  0.66881919959E+02 -0.52787434205E+02  0.59511973357E+02  0.10392968488E+03  0.00000000000E+00 0.  1.
<mgrwt>
<rscale>  4 0.30039049E+03</rscale>
<asrwt>0</asrwt>
<pdfrwt beam="1">  1       21 0.97313181E-01 0.30039049E+03</pdfrwt>
<pdfrwt beam="2">  1       21 0.29710269E-01 0.30039049E+03</pdfrwt>
<totfact> 0.89266570E+03</totfact>
</mgrwt>
</event>
<event>
 5    0  0.1467858E+000  0.4331840E+03  0.7546771E-02  0.1032859E+00
         21   -1    0    0  504  501  0.00000000000E+00  0.00000000000E+00  0.26251617317E+03  0.26251617317E+03  0.00000000000E+00 0. -1.
         21   -1    0    0  501  502 -0.00000000000E+00 -0.00000000000E+00 -0.69041856708E+03  0.69041856708E+03  0.00000000000E+00 0. -1.
         25    1    1    2    0    0  0.11994652550E+03  0.39703426784E+03 -0.19375576073E+03  0.47454154047E+03  0.12500000000E+03 0.  0.
         21    1    1    2  503  502 -0.43499768572E+01 -0.21388303119E+02 -0.24975142492E+02  0.33168351654E+02  0.00000000000E+00 0. -1.
         21    1    1    2  504  503 -0.11559654865E+03 -0.37564596472E+03 -0.20917149068E+03  0.44522484812E+03  0.00000000000E+00 0. -1.
<mgrwt>
<rscale>  4 0.43318400E+03</rscale>
<asrwt>0</asrwt>
<pdfrwt beam="1">  1       21 0.40387104E-01 0.43318400E+03</pdfrwt>
<pdfrwt beam="2">  1       21 0.10621824E+00 0.43318400E+03</pdfrwt>
<totfact> 0.36838387E+03</totfact>
</mgrwt>
</event>
<event>
 5    0  0.1467858E+000  0.2968259E+03  0.7546771E-02  0.1086838E+00
         21   -1    0    0  504  501  0.00000000000E+00  0.00000000000E+00  0.30838774507E+04  0.30838774507E+04  0.00000000000E+00 0.  1.
         21   -1    0    0  501  502 -0.00000000000E+00 -0.00000000000E+00 -0.14270118450E+03  0.14270118450E+03  0.00000000000E+00 0.  1.
         25    1    1    2    0    0  0.26606444915E+03 -0.73953627125E+02  0.42133866227E+02  0.30603871119E+03  0.12500000000E+03 0.  0.
         21    1    1    2  503  502 -0.11646681311E+03 -0.61021123537E+02  0.69660684444E+03  0.70890704030E+03  0.00000000000E+00 0.  1.
         21    1    1    2  504  503 -0.14959763604E+03  0.13497475066E+03  0.22024355555E+04  0.22116328837E+04  0.00000000000E+00 0.  1.
<mgrwt>
<rscale>  4 0.29682590E+03</rscale>
<asrwt>0</asrwt>
<pdfrwt beam="1">  1       21 0.47444263E+00 0.29682590E+03</pdfrwt>
<pdfrwt beam="2">  1       21 0.21954031E-01 0.29682590E+03</pdfrwt>
<totfact> 0.47029794E+01</totfact>
</mgrwt>
</event>
<event>
 5    0  0.1467858E+000  0.3478285E+03  0.7546771E-02  0.1063510E+00
         21   -1    0    0  504  501  0.00000000000E+00  0.00000000000E+00  0.26466228566E+03  0.26466228566E+03  0.00000000000E+00 0. -1.
         21   -1    0    0  501  502 -0.00000000000E+00 -0.00000000000E+00 -0.19237438214E+04  0.19237438214E+04  0.00000000000E+00 0.  1.
         25    1    1    2    0    0 -0.45335737690E+02  0.32140990158E+03 -0.17976120628E+04  0.18309543364E+04  0.12500000000E+03 0.  0.
         21    1    1    2  503  502  0.57561582873E+02 -0.27667307041E+03  0.12597944243E+03  0.30940611440E+03  0.00000000000E+00 0. -1.
         21    1    1    2  504  503 -0.12225845182E+02 -0.44736831169E+02  0.12551084631E+02  0.48045656192E+02  0.00000000000E+00 0.  1.
<mgrwt>
<rscale>  4 0.34782848E+03</rscale>
<asrwt>0</asrwt>
<pdfrwt beam="1">  1       21 0.40717275E-01 0.34782848E+03</pdfrwt>
<pdfrwt beam="2">  1       21 0.29596059E+00 0.34782848E+03</pdfrwt>
<totfact> 0.17581368E+02</totfact>
</mgrwt>
</event>
<event>
 5    0  0.1467858E+000  0.2440036E+03  0.7546771E-02  0.1117154E+00
         21   -1    0    0  504  501  0.00000000000E+00  0.00000000000E+00  0.10246153726E+04  0.10246153726E+04  0.00000000000E+00 0. -1.
         21   -1    0    0  501  502 -0.00000000000E+00 -0.00000000000E+00 -0.74092858092E+02  0.74092858092E+02  0.00000000000E+00 0.  1.
         25    1    1    2    0    0 -0.14680186408E+03 -0.14953926659E+03  0.19747789573E+03  0.31390332724E+03  0.12500000000E+03 0.  0.
         21    1    1    2  503  502  0.10674340151E+03  0.14134368675E+03  0.65616026747E+03  0.67964585496E+03  0.00000000000E+00 0. -1.
         21    1    1    2  504  503  0.40058462571E+02  0.81955798399E+01  0.96884351272E+02  0.10515904846E+03  0.00000000000E+00 0.  1.
<mgrwt>
<rscale>  4 0.24400365E+03</rscale>
<asrwt>0</asrwt>
<pdfrwt beam="1">  1       21 0.15763312E+00 0.24400365E+03</pdfrwt>
<pdfrwt beam="2">  1       21 0.11398902E-01 0.24400365E+03</pdfrwt>
<totfact> 0.16297958E+04</totfact>
</mgrwt>
</event>
<event>
 5    0  0.1467858E+000  0.2192501E+03  0.7546771E-02  0.1134443E+00
         21   -1    0    0  504  501  0.00000000000E+00  0.00000000000E+00  0.16804022973E+03  0.16804022973E+03  0.00000000000E+00 0.  1.
         21   -1    0    0  501  502 -0.00000000000E+00 -0.00000000000E+00 -0.65900512926E+03  0.65900512926E+03  0.00000000000E+00 0.  1.
         25    1    1    2    0    0  0.17754886227E+03  0.13874586143E+03 -0.45920711215E+02  0.26173980262E+03  0.12500000000E+03 0.  0.
         21    1    1    2  503  502 -0.13746223972E+03 -0.10616034084E+03 -0.47488261390E+03  0.50564748817E+03  0.00000000000E+00 0.  1.
         21    1    1    2  504  503 -0.40086622547E+02 -0.32585520592E+02  0.29838425576E+02  0.59658068192E+02  0.00000000000E+00 0. -1.
<mgrwt>
<rscale>  4 0.21925013E+03</rscale>
<asrwt>0</asrwt>
<pdfrwt beam="1">  1       21 0.25852343E-01 0.21925013E+03</pdfrwt>
<pdfrwt beam="2">  1       21 0.10138541E+00 0.21925013E+03</pdfrwt>
<totfact> 0.11086744E+04</totfact>
</mgrwt>
</event>
<event>
 5    0  0.1467858E+000  0.3466586E+03  0.7546771E-02  0.1063995E+00
         21   -1    0    0  504  501  0.00000000000E+00  0.00000000000E+00  0.10445532636E+03  0.10445532636E+03  0.00000000000E+00 0. -1.
         21   -1    0    0  501  502 -0.00000000000E+00 -0.00000000000E+00 -0.11897181303E+04  0.11897181303E+04  0.00000000000E+00 0. -1.
         25    1    1    2    0    0 -0.30989922613E+03 -0.92247856335E+02 -0.72744550302E+03  0.80582203818E+03  0.12500000000E+03 0.  0.
         21    1    1    2  503  502  0.25798035541E+03  0.59764262368E+02 -0.32379365625E+03  0.41829171957E+03  0.00000000000E+00 0. -1.
         21    1    1    2  504  503  0.51918870722E+02  0.32483593967E+02 -0.34023644682E+02  0.70059698911E+02  0.00000000000E+00 0. -1.
<mgrwt>
<rscale>  4 0.34665862E+03</rscale>
<asrwt>0</asrwt>
<pdfrwt beam="1">  1       21 0.16070050E-01 0.34665862E+03</pdfrwt>
<pdfrwt beam="2">  1       21 0.18303357E+00 0.34665862E+03</pdfrwt>
<totfact> 0.54251925E+03</totfact>
</mgrwt>
</event>
<event>
 5    0  0.1467858E+000  0.2732929E+03  0.7546771E-02  0.1099410E+00
         21   -1    0    0  504  501  0.00000000000E+00  0.00000000000E+00  0.17986671566E+04  0.17986671566E+04  0.00000000000E+00 0. -1.
         21   -1    0    0  501  502 -0.00000000000E+00 -0.00000000000E+00 -0.46905816938E+02  0.46905816938E+02  0.00000000000E+00 0. -1.
         25    1    1    2    0    0  0.16936342809E+02  0.25732914409E+03  0.75768994741E+03  0.81007665347E+03  0.12500000000E+03 0.  0.
         21    1    1    2  503  502  0.34646613231E+02 -0.22800163383E+03  0.79105356505E+03  0.82398475448E+03  0.00000000000E+00 0. -1.
         21    1    1    2  504  503 -0.51582956041E+02 -0.29327510253E+02  0.20301782717E+03  0.21151156554E+03  0.00000000000E+00 0. -1.
<mgrwt>
<rscale>  4 0.27329291E+03</rscale>
<asrwt>0</asrwt>
<pdfrwt beam="1">  1       21 0.27671797E+00 0.27329291E+03</pdfrwt>
<pdfrwt beam="2">  1       21 0.72162809E-02 0.27329291E+03</pdfrwt>
<totfact> 0.62002647E+03</totfact>
</mgrwt>
</event>
<event>
 5    0  0.1467858E+000  0.2429095E+03  0.7546771E-02  0.1117870E+00
         21   -1    0    0  504  501  0.00000000000E+00  0.00000000000E+00  0.38199556344E+03  0.38199556344E+03  0.00000000000E+00 0.  1.
         21   -1    0    0  501  502 -0.00000000000E+00 -0.00000000000E+00 -0.18512876575E+03  0.18512876575E+03  0.00000000000E+00 0. -1.
         25    1    1    2    0    0  0.93607196043E+02  0.18605834611E+03 -0.42611978497E+02  0.24661872601E+03  0.12500000000E+03 0.  0.
         21    1    1    2  503  502 -0.68866765025E+02 -0.16776459401E+03  0.21439497478E+03  0.28080739937E+03  0.00000000000E+00 0.  1.
         21    1    1    2  504  503 -0.24740431018E+02 -0.18293752097E+02  0.25083801400E+02  0.39698203806E+02  0.00000000000E+00 0. -1.
<mgrwt>
<rscale>  4 0.24290948E+03</rscale>
<asrwt>0</asrwt>
<pdfrwt beam="1">  1       21 0.58768548E-01 0.24290948E+03</pdfrwt>
<pdfrwt beam="2">  1       21 0.28481349E-01 0.24290948E+03</pdfrwt>
<totfact> 0.31132526E+04</totfact>
</mgrwt>
</event>
<event>
 5    0  0.1467858E+000  0.2815797E+03  0.7546771E-02  0.1094829E+00
         21   -1    0    0  504  501  0.00000000000E+00  0.00000000000E+00  0.65548423008E+03  0.65548423008E+03  0.00000000000E+00 0. -1.
         21   -1    0    0  501  502 -0.00000000000E+00 -0.00000000000E+00 -0.12295957831E+03  0.12295957831E+03  0.00000000000E+00 0.  1.
         25    1    1    2    0    0 -0.19230254049E+03 -0.16334591002E+03  0.15614108479E+03  0.32197389919E+03  0.12500000000E+03 0.  0.
         21    1    1    2  503  502  0.47113068085E+02  0.53461870652E+02  0.14902753106E+03  0.16518782586E+03  0.00000000000E+00 0. -1.
         21    1    1    2  504  503  0.14518947240E+03  0.10988403937E+03  0.22735603592E+03  0.29128208333E+03  0.00000000000E+00 0. -1.
<mgrwt>
<rscale>  4 0.28157975E+03</rscale>
<asrwt>0</asrwt>
<pdfrwt beam="1">  1       21 0.10084373E+00 0.28157975E+03</pdfrwt>
<pdfrwt beam="2">  1       21 0.18916859E-01 0.28157975E+03</pdfrwt>
<totfact> 0.19655079E+04</totfact>
</mgrwt>
</event>
<event>
 5    0  0.1467858E+000  0.3492796E+03  0.7546771E-02  0.1062911E+00
         21   -1    0    0  504  501  0.00000000000E+00  0.00000000000E+00  0.37297895353E+03  0.37297895353E+03  0.00000000000E+00 0. -1.
         21   -1    0    0  501  502 -0.00000000000E+00 -0.00000000000E+00 -0.53431177984E+03  0.53431177984E+03  0.00000000000E+00 0.  1.
         25    1    1    2    0    0  0.29994137088E+03 -0.12808745890E+03 -0.37194840567E+03  0.51023704253E+03  0.12500000000E+03 0.  0.
         21    1    1    2  503  502 -0.25547574449E+03  0.13878575853E+03  0.17836154848E+03  0.34108970194E+03  0.00000000000E+00 0. -1.
         21    1    1    2  504  503 -0.44465626391E+02 -0.10698299621E+02  0.32254030878E+02  0.55963988894E+02  0.00000000000E+00 0.  1.
<mgrwt>
<rscale>  4 0.34927958E+03</rscale>
<asrwt>0</asrwt>
<pdfrwt beam="1">  1       21 0.57381377E-01 0.34927958E+03</pdfrwt>
<pdfrwt beam="2">  1       21 0.82201812E-01 0.34927958E+03</pdfrwt>
<totfact> 0.33466120E+03</totfact>
</mgrwt>
</event>
<event>
 5    0  0.1467858E+000  0.2436438E+03  0.7546771E-02  0.1117389E+00
         21   -1    0    0  504  501  0.00000000000E+00  0.00000000000E+00  0.23242476437E+03  0.23242476437E+03  0.00000000000E+00 0.  1.
         21   -1    0    0  501  502 -0.00000000000E+00 -0.00000000000E+00 -0.11764162593E+04  0.11764162593E+04  0.00000000000E+00 0. -1.
         25    1    1    2    0    0 -0.16567457278E+03  0.12762925831E+03 -0.11087230161E+04  0.11351779676E+04  0.12500000000E+03 0.  0.
         21    1    1    2  503  502  0.40549948693E+02 -0.58393397993E+02  0.29914318087E+02  0.77129460615E+02  0.00000000000E+00 0.  1.
         21    1    1    2  504  503  0.12512462409E+03 -0.69235860314E+02  0.13481720308E+03  0.19653359548E+03  0.00000000000E+00 0.  1.
<mgrwt>
<rscale>  4 0.24364378E+03</rscale>
<asrwt>0</asrwt>
<pdfrwt beam="1">  1       21 0.35757656E-01 0.24364378E+03</pdfrwt>
<pdfrwt beam="2">  1       21 0.18098712E+00 0.24364378E+03</pdfrwt>
<totfact> 0.12867439E+03</totfact>
</mgrwt>
</event>
<event>
 5    0  0.1467858E+000  0.3176852E+03  0.7546771E-02  0.1076720E+00
         21   -1    0    0  504  501  0.00000000000E+00  0.00000000000E+00  0.18918724987E+04  0.18918724987E+04  0.00000000000E+00 0. -1.
         21   -1    0    0  501  502 -0.00000000000E+00 -0.00000000000E+00 -0.24384109723E+03  0.24384109723E+03  0.00000000000E+00 0.  1.
         25    1    1    2    0    0  0.15886346693E+03 -0.24507400212E+03 -0.12207834403E+03  0.34033364471E+03  0.12500000000E+03 0.  0.
         21    1    1    2  503  502 -0.51766752785E+02  0.35224611847E+02  0.29473135658E+03  0.30130904819E+03  0.00000000000E+00 0.  1.
         21    1    1    2  504  503 -0.10709671415E+03  0.20984939027E+03  0.14753783890E+04  0.14940709031E+04  0.00000000000E+00 0. -1.
<mgrwt>
<rscale>  4 0.31768517E+03</rscale>
<asrwt>0</asrwt>
<pdfrwt beam="1">  1       21 0.29105730E+00 0.31768517E+03</pdfrwt>
<pdfrwt beam="2">  1       21 0.37514016E-01 0.31768517E+03</pdfrwt>
<totfact> 0.22800774E+02</totfact>
</mgrwt>
</event>
<event>
 5    0  0.1467858E+000  0.2160315E+03  0.7546771E-02  0.1136877E+00
         21   -1    0    0  504  501  0.00000000000E+00  0.00000000000E+00  0.29970544131E+03  0.29970544131E+03  0.00000000000E+00 0. -1.
         21   -1    0    0  501  502 -0.00000000000E+00 -0.00000000000E+00 -0.29691613382E+03  0.29691613382E+03  0.00000000000E+00 0.  1.
         25    1    1    2    0    0 -0.19391345469E+03 -0.10165883300E+03 -0.13803200505E+03  0.28742787035E+03  0.12500000000E+03 0.  0.
         21    1    1    2  503  502  0.15102735208E+03  0.76774571838E+02  0.17911302170E+03  0.24654628470E+03  0.00000000000E+00 0. -1.
         21    1    1    2  504  503  0.42886102615E+02  0.24884261159E+02 -0.38291709166E+02  0.62647420073E+02  0.00000000000E+00 0. -1.
<mgrwt>
<rscale>  4 0.21603149E+03</rscale>
<asrwt>0</asrwt>
<pdfrwt beam="1">  1       21 0.46108529E-01 0.21603149E+03</pdfrwt>
<pdfrwt beam="2">  1       21 0.45679405E-01 0.21603149E+03</pdfrwt>
<totfact> 0.20429330E+04</totfact>
</mgrwt>
</event>
<event>
 5    0  0.1467858E+000  0.2751518E+03  0.7546771E-02  0.1098367E+00
         21   -1    0    0  504  501  0.00000000000E+00  0.00000000000E+00  0.91818439394E+03  0.91818439394E+03  0.00000000000E+00 0. -1.
         21   -1    0    0  501  502 -0.00000000000E+00 -0.00000000000E+00 -0.90893074386E+02  0.90893074386E+02  0.00000000000E+00 0. -1.
         25    1    1    2    0    0  0.23634382837E+03 -0.46225735901E+02  0.28515137044E+03  0.39361342448E+03  0.12500000000E+03 0.  0.
         21    1    1    2  503  502  0.16296331224E+02  0.34348021082E+02  0.82353626101E+02  0.90705439173E+02  0.00000000000E+00 0. -1.
         21    1    1    2  504  503 -0.25264015959E+03  0.11877714819E+02  0.45978632302E+03  0.52475860468E+03  0.00000000000E+00 0. -1.
<mgrwt>
<rscale>  4 0.27515182E+03</rscale>
<asrwt>0</asrwt>
<pdfrwt beam="1">  1       21 0.14125913E+00 0.27515182E+03</pdfrwt>
<pdfrwt beam="2">  1       21 0.13983551E-01 0.27515182E+03</pdfrwt>
<totfact> 0.14826852E+04</totfact>
</mgrwt>
</event>
<event>
 5    0  0.1467858E+000  0.2499010E+03  0.7546771E-02  0.1113367E+00
         21   -1    0    0  504  501  0.00000000000E+00  0.00000000000E+00  0.21851626349E+03  0.21851626349E+03  0.00000000000E+00 0.  1.
         21   -1    0    0  501  502 -0.00000000000E+00 -0.00000000000E+00 -0.25131045085E+03  0.25131045085E+03  0.00000000000E+00 0.  1.
         25    1    1    2    0    0 -0.21638519708E+03  0.17234997958E+01 -0.12599896166E+02  0.25021846724E+03  0.12500000000E+03 0.  0.
         21    1    1    2  503  502  0.18592683361E+03  0.91540477947E+01 -0.13997967111E+02  0.18667760211E+03  0.00000000000E+00 0.  1.
         21    1    1    2  504  503  0.30458363472E+02 -0.10877547591E+02 -0.61963240793E+01  0.32930644984E+02  0.00000000000E+00 0.  1.
<mgrwt>
<rscale>  4 0.24990103E+03</rscale>
<asrwt>0</asrwt>
<pdfrwt beam="1">  1       21 0.33617887E-01 0.24990103E+03</pdfrwt>
<pdfrwt beam="2">  1       21 0.38663146E-01 0.24990103E+03</pdfrwt>
<totfact> 0.53622329E+04</totfact>
</mgrwt>
</event>
<event>
 5    0  0.1467858E+000  0.2713416E+03  0.7546771E-02  0.1100514E+00
         21   -1    0    0  504  501  0.00000000000E+00  0.00000000000E+00  0.80970813436E+03  0.80970813436E+03  0.00000000000E+00 0. -1.
         21   -1    0    0  501  502 -0.00000000000E+00 -0.00000000000E+00 -0.83894789452E+02  0.83894789452E+02  0.00000000000E+00 0. -1.
         25    1    1    2    0    0 -0.82057903423E+02  0.22642389540E+03  0.31907514955E+03  0.41884989075E+03  0.12500000000E+03 0.  0.
         21    1    1    2  503  502  0.13630148455E+02 -0.58149488389E+02  0.68976907153E+02  0.91241205971E+02  0.00000000000E+00 0. -1.
         21    1    1    2  504  503  0.68427754968E+02 -0.16827440701E+03  0.33776128821E+03  0.38351182709E+03  0.00000000000E+00 0. -1.
<mgrwt>
<rscale>  4 0.27134163E+03</rscale>
<asrwt>0</asrwt>
<pdfrwt beam="1">  1       21 0.12457048E+00 0.27134163E+03</pdfrwt>
<pdfrwt beam="2">  1       21 0.12906891E-01 0.27134163E+03</pdfrwt>
<totfact> 0.23742852E+04</totfact>
</mgrwt>
</event>
<event>
 5    0  0.1467858E+000  0.3166171E+03  0.7546771E-02  0.1077217E+00
         21   -1    0    0  504  501  0.00000000000E+00  0.00000000000E+00  0.46558604003E+03  0.46558604003E+03  0.00000000000E+00 0.  1.
         21   -1    0    0  501  502 -0.00000000000E+00 -0.00000000000E+00 -0.50829474845E+03  0.50829474845E+03  0.00000000000E+00 0.  1.
         25    1    1    2    0    0 -0.31193056981E+03 -0.14889712139E+03 -0.19918141760E+03  0.41805414752E+03  0.12500000000E+03 0.  0.
         21    1    1    2  503  502  0.10809121026E+03  0.21133364787E+01  0.26195568536E+03  0.28338835019E+03  0.00000000000E+00 0.  1.
         21    1    1    2  504  503  0.20383935955E+03  0.14678378491E+03 -0.10548297618E+03  0.27243829077E+03  0.00000000000E+00 0.  1.
<mgrwt>
<rscale>  4 0.31661715E+03</rscale>
<asrwt>0</asrwt>
<pdfrwt beam="1">  1       21 0.71628622E-01 0.31661715E+03</pdfrwt>
<pdfrwt beam="2">  1       21 0.78199192E-01 0.31661715E+03</pdfrwt>
<totfact> 0.23406190E+03</totfact>
</mgrwt>
</event>
<event>
 5    0  0.1467858E+000  0.2301299E+03  0.7546771E-02  0.1126548E+00
         21   -1    0    0  504  501  0.00000000000E+00  0.00000000000E+00  0.24611671090E+03  0.24611671090E+03  0.00000000000E+00 0. -1.
         21   -1    0    0  501  502 -0.00000000000E+00 -0.00000000000E+00 -0.40032582050E+03  0.40032582050E+03  0.00000000000E+00 0.  1.
         25    1    1    2    0    0 -0.46741193535E+02  0.19906496851E+03 -0.26982077899E+03  0.36088759141E+03  0.12500000000E+03 0.  0.
         21    1    1    2  503  502  0.36541125397E+02 -0.74116358694E+01 -0.27346823145E+02  0.46238889776E+02  0.00000000000E+00 0.  1.
         21    1    1    2  504  503  0.10200068138E+02 -0.19165333264E+03  0.14295849253E+03  0.23931605021E+03  0.00000000000E+00 0. -1.
<mgrwt>
<rscale>  4 0.23012987E+03</rscale>
<asrwt>0</asrwt>
<pdfrwt beam="1">  1       21 0.37864110E-01 0.23012987E+03</pdfrwt>
<pdfrwt beam="2">  1       21 0.61588587E-01 0.23012987E+03</pdfrwt>
<totfact> 0.16112840E+04</totfact>
</mgrwt>
</event>
<event>
 5    0  0.1467858E+000  0.2832514E+03  0.7546771E-02  0.1093926E+00
         21   -1    0    0  504  501  0.00000000000E+00  0.00000000000E+00  0.45207264254E+03  0.45207264254E+03  0.00000000000E+00 0. -1.
         21   -1    0    0  501  502 -0.00000000000E+00 -0.00000000000E+00 -0.22691621443E+03  0.22691621443E+03  0.00000000000E+00 0.  1.
         25    1    1    2    0    0  0.13466743630E+03 -0.21557145739E+03 -0.59449633567E+02  0.28942292683E+03  0.12500000000E+03 0.  0.
         21    1    1    2  503  502 -0.11450598116E+03  0.11798086923E+03  0.19950664607E+03  0.25852273992E+03  0.00000000000E+00 0. -1.
         21    1    1    2  504  503 -0.20161455139E+02  0.97590588154E+02  0.85099415612E+02  0.13104319024E+03  0.00000000000E+00 0. -1.
<mgrwt>
<rscale>  4 0.28325143E+03</rscale>
<asrwt>0</asrwt>
<pdfrwt beam="1">  1       21 0.69549637E-01 0.28325143E+03</pdfrwt>
<pdfrwt beam="2">  1       21 0.34910187E-01 0.28325143E+03</pdfrwt>
<totfact> 0.14146071E+04</totfact>
</mgrwt>
</event>
<event>
 5    0  0.1467858E+000  0.2690119E+03  0.7546771E-02  0.1101846E+00
         21   -1    0    0  504  501  0.00000000000E+00  0.00000000000E+00  0.77560551717E+02  0.77560551717E+02  0.00000000000E+00 0.  1.
         21   -1    0    0  501  502 -0.00000000000E+00 -0.00000000000E+00 -0.10970009365E+04  0.10970009365E+04  0.00000000000E+00 0.  1.
         25    1    1    2    0    0 -0.21332725366E+03 -0.10599013280E+03 -0.79543586825E+03  0.83969378103E+03  0.12500000000E+03 0.  0.
         21    1    1    2  503  502  0.34969679592E+02  0.26109711515E+02 -0.94546360309E+01  0.44654066652E+02  0.00000000000E+00 0.  1.
         21    1    1    2  504  503  0.17835757407E+03  0.79880421287E+02 -0.21454988053E+03  0.29021364056E+03  0.00000000000E+00 0.  1.
<mgrwt>
<rscale>  4 0.26901194E+03</rscale>
<asrwt>0</asrwt>
<pdfrwt beam="1">  1       21 0.11932392E-01 0.26901194E+03</pdfrwt>
<pdfrwt beam="2">  1       21 0.16876938E+00 0.26901194E+03</pdfrwt>
<totfact> 0.12269659E+04</totfact>
</mgrwt>
</event>
<event>
 5    0  0.1467858E+000  0.4343563E+03  0.7546771E-02  0.1032493E+00
         21   -1    0    0  504  501  0.00000000000E+00  0.00000000000E+00  0.11627095693E+04  0.11627095693E+04  0.00000000000E+00 0. -1.
         21   -1    0    0  501  502 -0.00000000000E+00 -0.00000000000E+00 -0.38675374684E+03  0.38675374684E+03  0.00000000000E+00 0.  1.
         25    1    1    2    0    0  0.35193219874E+03  0.22177503003E+03 -0.20490170871E+03  0.48026049878E+03  0.12500000000E+03 0.  0.
         21    1    1    2  503  502 -0.21129660685E+03 -0.87196801054E+02  0.47351101360E+03  0.52579674607E+03  0.00000000000E+00 0. -1.
         21    1    1    2  504  503 -0.14063559189E+03 -0.13457822898E+03  0.50734651762E+03  0.54340607134E+03  0.00000000000E+00 0. -1.
<mgrwt>
<rscale>  4 0.43435635E+03</rscale>
<asrwt>0</asrwt>
<pdfrwt beam="1">  1       21 0.17887839E+00 0.43435635E+03</pdfrwt>
<pdfrwt beam="2">  1       21 0.59500577E-01 0.43435635E+03</pdfrwt>
<totfact> 0.40585394E+02</totfact>
</mgrwt>
</event>
<event>
 5    0  0.1467858E+000  0.2528369E+03  0.7546771E-02  0.1111525E+00
         21   -1    0    0  504  501  0.00000000000E+00  0.00000000000E+00  0.22889238784E+03  0.22889238784E+03  0.00000000000E+00 0.  1.
         21   -1    0    0  501  502 -0.00000000000E+00 -0.00000000000E+00 -0.53523742860E+03  0.53523742860E+03  0.00000000000E+00 0.  1.
         25    1    1    2    0    0 -0.14352961414E+03 -0.16643536615E+03 -0.43312272083E+03  0.50151946377E+03  0.12500000000E+03 0.  0.
         21    1    1    2  503  502  0.98917848932E+02  0.15459307741E+03  0.95884824488E+02  0.20706921545E+03  0.00000000000E+00 0.  1.
         21    1    1    2  504  503  0.44611765203E+02  0.11842288740E+02  0.30892855586E+02  0.55541137217E+02  0.00000000000E+00 0.  1.
<mgrwt>
<rscale>  4 0.25283687E+03</rscale>
<asrwt>0</asrwt>
<pdfrwt beam="1">  1       21 0.35214214E-01 0.25283687E+03</pdfrwt>
<pdfrwt beam="2">  1       21 0.82344219E-01 0.25283687E+03</pdfrwt>
<totfact> 0.96435226E+03</totfact>
</mgrwt>
</event>
<event>
 5    0  0.1467858E+000  0.3759458E+03  0.7546771E-02  0.1052442E+00
         21   -1    0    0  504  501  0.00000000000E+00  0.00000000000E+00  0.54713316003E+03  0.54713316003E+03  0.00000000000E+00 0. -1.
         21   -1    0    0  501  502 -0.00000000000E+00 -0.00000000000E+00 -0.28839172192E+03  0.28839172192E+03  0.00000000000E+00 0. -1.
         25    1    1    2    0    0  0.20056709419E+03 -0.29237490921E+03 -0.27436270093E+02  0.37694561375E+03  0.12500000000E+03 0.  0.
         21    1    1    2  503  502 -0.33947819923E+02  0.27002622915E+02  0.21515691119E+02  0.48420254916E+02  0.00000000000E+00 0. -1.
         21    1    1    2  504  503 -0.16661927427E+03  0.26537228629E+03  0.26466201708E+03  0.41015901328E+03  0.00000000000E+00 0. -1.
<mgrwt>
<rscale>  4 0.37594580E+03</rscale>
<asrwt>0</asrwt>
<pdfrwt beam="1">  1       21 0.84174332E-01 0.37594580E+03</pdfrwt>
<pdfrwt beam="2">  1       21 0.44367958E-01 0.37594580E+03</pdfrwt>
<totfact> 0.54037851E+03</totfact>
</mgrwt>
</event>
<event>
 5    0  0.1467858E+000  0.2690999E+03  0.7546771E-02  0.1101796E+00
         21   -1    0    0  504  501  0.00000000000E+00  0.00000000000E+00  0.59969752182E+03  0.59969752182E+03  0.00000000000E+00 0.  1.
         21   -1    0    0  501  502 -0.00000000000E+00 -0.00000000000E+00 -0.20569644530E+03  0.20569644530E+03  0.00000000000E+00 0.  1.
         25    1    1    2    0    0 -0.23693552645E+03  0.80757513731E+02 -0.34973671278E+02  0.28197229900E+03  0.12500000000E+03 0.  0.
         21    1    1    2  503  502  0.16858224065E+03 -0.11676584245E+03  0.38041939587E+03  0.43217259351E+03  0.00000000000E+00 0.  1.
         21    1    1    2  504  503  0.68353285803E+02  0.36008328720E+02  0.48555351933E+02  0.91249074618E+02  0.00000000000E+00 0. -1.
<mgrwt>
<rscale>  4 0.26909994E+03</rscale>
<asrwt>0</asrwt>
<pdfrwt beam="1">  1       21 0.92261157E-01 0.26909994E+03</pdfrwt>
<pdfrwt beam="2">  1       21 0.31645607E-01 0.26909994E+03</pdfrwt>
<totfact> 0.90814819E+03</totfact>
</mgrwt>
</event>
<event>
 5    0  0.1467858E+000  0.2390434E+03  0.7546771E-02  0.1120432E+00
         21   -1    0    0  504  501  0.00000000000E+00  0.00000000000E+00  0.75777257664E+03  0.75777257664E+03  0.00000000000E+00 0. -1.
         21   -1    0    0  501  502 -0.00000000000E+00 -0.00000000000E+00 -0.60321265469E+03  0.60321265469E+03  0.00000000000E+00 0. -1.
         25    1    1    2    0    0 -0.20367708258E+03  0.56896279655E+01 -0.56435004772E+03  0.61288881715E+03  0.12500000000E+03 0.  0.
         21    1    1    2  503  502  0.17532653148E+03 -0.28374392460E+01  0.56548211123E+03  0.59204515185E+03  0.00000000000E+00 0. -1.
         21    1    1    2  504  503  0.28350551092E+02 -0.28521887195E+01  0.15342785844E+03  0.15605126232E+03  0.00000000000E+00 0. -1.
<mgrwt>
<rscale>  4 0.23904336E+03</rscale>
<asrwt>0</asrwt>
<pdfrwt beam="1">  1       21 0.11658040E+00 0.23904336E+03</pdfrwt>
<pdfrwt beam="2">  1       21 0.92801947E-01 0.23904336E+03</pdfrwt>
<totfact> 0.52938838E+02</totfact>
</mgrwt>
</event>
<event>
 5    0  0.1467858E+000  0.2606578E+03  0.7546771E-02  0.1106749E+00
         21   -1    0    0  504  501  0.00000000000E+00  0.00000000000E+00  0.71925575510E+03  0.71925575510E+03  0.00000000000E+00 0.  1.
         21   -1    0    0  501  502 -0.00000000000E+00 -0.00000000000E+00 -0.32681323217E+03  0.32681323217E+03  0.00000000000E+00 0.  1.
         25    1    1    2    0    0 -0.13971201459E+03  0.21468939970E+03 -0.18396105292E+03  0.33923097494E+03  0.12500000000E+03 0.  0.
         21    1    1    2  503  502  0.63971367797E+02 -0.48446364378E+02  0.50396932520E+03  0.51031800562E+03  0.00000000000E+00 0.  1.
         21    1    1    2  504  503  0.75740646789E+02 -0.16624303532E+03  0.72434250652E+02  0.19652000671E+03  0.00000000000E+00 0.  1.
<mgrwt>
<rscale>  4 0.26065781E+03</rscale>
<asrwt>0</asrwt>
<pdfrwt beam="1">  1       21 0.11065473E+00 0.26065781E+03</pdfrwt>
<pdfrwt beam="2">  1       21 0.50278959E-01 0.26065781E+03</pdfrwt>
<totfact> 0.22983693E+03</totfact>
</mgrwt>
</event>
<event>
 5    0  0.1467858E+000  0.2825566E+03  0.7546771E-02  0.1094301E+00
         21   -1    0    0  504  501  0.00000000000E+00  0.00000000000E+00  0.55529055430E+02  0.55529055430E+02  0.00000000000E+00 0.  1.
         21   -1    0    0  501  502 -0.00000000000E+00 -0.00000000000E+00 -0.19820527847E+04  0.19820527847E+04  0.00000000000E+00 0.  1.
         25    1    1    2    0    0 -0.45063840074E+02 -0.24936411046E+03 -0.41000868887E+03  0.49794109513E+03  0.12500000000E+03 0.  0.
         21    1    1    2  503  502  0.29418312748E+02  0.27077594026E+02 -0.32678911762E+03  0.32922600234E+03  0.00000000000E+00 0.  1.
         21    1    1    2  504  503  0.15645527326E+02  0.22228651644E+03 -0.11897259228E+04  0.12104147427E+04  0.00000000000E+00 0.  1.
<mgrwt>
<rscale>  4 0.28255656E+03</rscale>
<asrwt>0</asrwt>
<pdfrwt beam="1">  1       21 0.85429318E-02 0.28255656E+03</pdfrwt>
<pdfrwt beam="2">  1       21 0.30493119E+00 0.28255656E+03</pdfrwt>
<totfact> 0.31251662E+03</totfact>
</mgrwt>
</event>
<event>
 5    0  0.1467858E+000  0.2840002E+03  0.7546771E-02  0.1093524E+00
         21   -1    0    0  504  501  0.00000000000E+00  0.00000000000E+00  0.18663321379E+03  0.18663321379E+03  0.00000000000E+00 0.  1.
         21   -1    0    0  501  502 -0.00000000000E+00 -0.00000000000E+00 -0.82476950486E+03  0.82476950486E+03  0.00000000000E+00 0. -1.
         25    1    1    2    0    0 -0.24265552637E+03 -0.78418217330E+02 -0.68510169951E+03  0.74163364269E+03  0.12500000000E+03 0.  0.
         21    1    1    2  503  502  0.29977430095E+02  0.11007057983E+02 -0.18945090585E+02  0.37131093410E+02  0.00000000000E+00 0.  1.
         21    1    1    2  504  503  0.21267809628E+03  0.67411159347E+02  0.65910499033E+02  0.23263798255E+03  0.00000000000E+00 0.  1.
<mgrwt>
<rscale>  4 0.28400021E+03</rscale>
<asrwt>0</asrwt>
<pdfrwt beam="1">  1       21 0.28712801E-01 0.28400021E+03</pdfrwt>
<pdfrwt beam="2">  1       21 0.12688762E+00 0.28400021E+03</pdfrwt>
<totfact> 0.50091783E+03</totfact>
</mgrwt>
</event>
<event>
 5    0  0.1467858E+000  0.3584878E+03  0.7546771E-02  0.1059184E+00
         21   -1    0    0  504  501  0.00000000000E+00  0.00000000000E+00  0.53257606361E+02  0.53257606361E+02  0.00000000000E+00 0. -1.
         21   -1    0    0  501  502 -0.00000000000E+00 -0.00000000000E+00 -0.23267690480E+04  0.23267690480E+04  0.00000000000E+00 0. -1.
         25    1    1    2    0    0  0.30944287725E+03  0.13089530587E+03 -0.11868830568E+04  0.12398406615E+04  0.12500000000E+03 0.  0.
         21    1    1    2  503  502 -0.43623266665E+02 -0.55846355398E+01 -0.77187051173E+02  0.88837032917E+02  0.00000000000E+00 0. -1.
         21    1    1    2  504  503 -0.26581961059E+03 -0.12531067033E+03 -0.10094413336E+04  0.10513489599E+04  0.00000000000E+00 0. -1.
<mgrwt>
<rscale>  4 0.35848776E+03</rscale>
<asrwt>0</asrwt>
<pdfrwt beam="1">  1       21 0.81934795E-02 0.35848776E+03</pdfrwt>
<pdfrwt beam="2">  1       21 0.35796440E+00 0.35848776E+03</pdfrwt>
<totfact> 0.15284588E+03</totfact>
</mgrwt>
</event>
<event>
 5    0  0.1467858E+000  0.2924706E+03  0.7546771E-02  0.1089066E+00
         21   -1    0    0  504  501  0.00000000000E+00  0.00000000000E+00  0.25814183681E+03  0.25814183681E+03  0.00000000000E+00 0.  1.
         21   -1    0    0  501  502 -0.00000000000E+00 -0.00000000000E+00 -0.29102734620E+04  0.29102734620E+04  0.00000000000E+00 0.  1.
         25    1    1    2    0    0  0.23453333913E+03  0.12209890746E+03 -0.28262492321E+04  0.28413418929E+04  0.12500000000E+03 0.  0.
         21    1    1    2  503  502 -0.13582112772E+03 -0.11062733264E+03  0.90349003830E+02  0.19710080658E+03  0.00000000000E+00 0.  1.
         21    1    1    2  504  503 -0.98712211410E+02 -0.11471574819E+02  0.83768603098E+02  0.12997259932E+03  0.00000000000E+00 0.  1.
<mgrwt>
<rscale>  4 0.29247056E+03</rscale>
<asrwt>0</asrwt>
<pdfrwt beam="1">  1       21 0.39714126E-01 0.29247056E+03</pdfrwt>
<pdfrwt beam="2">  1       21 0.44773441E+00 0.29247056E+03</pdfrwt>
<totfact> 0.22379756E+01</totfact>
</mgrwt>
</event>
<event>
 5    0  0.1467858E+000  0.2633470E+03  0.7546771E-02  0.1105149E+00
         21   -1    0    0  504  501  0.00000000000E+00  0.00000000000E+00  0.14078743876E+04  0.14078743876E+04  0.00000000000E+00 0.  1.
         21   -1    0    0  501  502 -0.00000000000E+00 -0.00000000000E+00 -0.55721998465E+02  0.55721998465E+02  0.00000000000E+00 0.  1.
         25    1    1    2    0    0  0.20255303185E+03 -0.11268940004E+03  0.38240701451E+03  0.46431320931E+03  0.12500000000E+03 0.  0.
         21    1    1    2  503  502 -0.92659239157E+02  0.34863829427E+02  0.53771565966E+03  0.54675346532E+03  0.00000000000E+00 0.  1.
         21    1    1    2  504  503 -0.10989379269E+03  0.77825570610E+02  0.43202971501E+03  0.45252971147E+03  0.00000000000E+00 0.  1.
<mgrwt>
<rscale>  4 0.26334698E+03</rscale>
<asrwt>0</asrwt>
<pdfrwt beam="1">  1       21 0.21659603E+00 0.26334698E+03</pdfrwt>
<pdfrwt beam="2">  1       21 0.85726162E-02 0.26334698E+03</pdfrwt>
<totfact> 0.10644117E+04</totfact>
</mgrwt>
</event>
<event>
 5    0  0.1467858E+000  0.2380680E+03  0.7546771E-02  0.1121087E+00
         21   -1    0    0  504  501  0.00000000000E+00  0.00000000000E+00  0.25659555099E+04  0.25659555099E+04  0.00000000000E+00 0. -1.
         21   -1    0    0  501  502 -0.00000000000E+00 -0.00000000000E+00 -0.47503244558E+02  0.47503244558E+02  0.00000000000E+00 0. -1.
         25    1    1    2    0    0 -0.10951990393E+03  0.17046038379E+03  0.29031958828E+03  0.37544881827E+03  0.12500000000E+03 0.  0.
         21    1    1    2  503  502  0.16771470239E+02 -0.30073927604E+02  0.20303098021E+03  0.20593033351E+03  0.00000000000E+00 0.  1.
         21    1    1    2  504  503  0.92748433692E+02 -0.14038645618E+03  0.20251016968E+04  0.20320796027E+04  0.00000000000E+00 0. -1.
<mgrwt>
<rscale>  4 0.23806796E+03</rscale>
<asrwt>0</asrwt>
<pdfrwt beam="1">  1       21 0.39476228E+00 0.23806796E+03</pdfrwt>
<pdfrwt beam="2">  1       21 0.73081935E-02 0.23806796E+03</pdfrwt>
<totfact> 0.12389330E+03</totfact>
</mgrwt>
</event>
<event>
 5    0  0.1467858E+000  0.2400433E+03  0.7546771E-02  0.1119764E+00
         21   -1    0    0  504  501  0.00000000000E+00  0.00000000000E+00  0.12691531837E+03  0.12691531837E+03  0.00000000000E+00 0. -1.
         21   -1    0    0  501  502 -0.00000000000E+00 -0.00000000000E+00 -0.10125009068E+04  0.10125009068E+04  0.00000000000E+00 0. -1.
         25    1    1    2    0    0 -0.91431242972E+02  0.18311622517E+03 -0.75580944418E+03  0.79294649253E+03  0.12500000000E+03 0.  0.
         21    1    1    2  503  502 -0.32376293896E+02 -0.19278370371E+02 -0.13589499334E+03  0.14102244214E+03  0.00000000000E+00 0. -1.
         21    1    1    2  504  503  0.12380753687E+03 -0.16383785479E+03  0.61188491141E+01  0.20544729047E+03  0.00000000000E+00 0. -1.
<mgrwt>
<rscale>  4 0.24004330E+03</rscale>
<asrwt>0</asrwt>
<pdfrwt beam="1">  1       21 0.19525433E-01 0.24004330E+03</pdfrwt>
<pdfrwt beam="2">  1       21 0.15576938E+00 0.24004330E+03</pdfrwt>
<totfact> 0.62994729E+03</totfact>
</mgrwt>
</event>
<event>
 5    0  0.1467858E+000  0.2609634E+03  0.7546771E-02  0.1106566E+00
         21   -1    0    0  504  501  0.00000000000E+00  0.00000000000E+00  0.10825365348E+03  0.10825365348E+03  0.00000000000E+00 0.  1.
         21   -1    0    0  501  502 -0.00000000000E+00 -0.00000000000E+00 -0.82778443091E+03  0.82778443091E+03  0.00000000000E+00 0. -1.
         25    1    1    2    0    0 -0.15980600681E+03  0.16413086024E+03 -0.62449834286E+03  0.67683090897E+03  0.12500000000E+03 0.  0.
         21    1    1    2  503  502  0.14600358042E+03 -0.10419432140E+03 -0.65235603061E+02  0.19086431310E+03  0.00000000000E+00 0.  1.
         21    1    1    2  504  503  0.13802426393E+02 -0.59936538839E+02 -0.29796831514E+02  0.68342862324E+02  0.00000000000E+00 0.  1.
<mgrwt>
<rscale>  4 0.26096341E+03</rscale>
<asrwt>0</asrwt>
<pdfrwt beam="1">  1       21 0.16654408E-01 0.26096341E+03</pdfrwt>
<pdfrwt beam="2">  1       21 0.12735145E+00 0.26096341E+03</pdfrwt>
<totfact> 0.14148765E+04</totfact>
</mgrwt>
</event>
<event>
 5    0  0.1467858E+000  0.3799623E+03  0.7546771E-02  0.1050948E+00
         21   -1    0    0  504  501  0.00000000000E+00  0.00000000000E+00  0.47175691460E+03  0.47175691460E+03  0.00000000000E+00 0.  1.
         21   -1    0    0  501  502 -0.00000000000E+00 -0.00000000000E+00 -0.29160026295E+03  0.29160026295E+03  0.00000000000E+00 0.  1.
         25    1    1    2    0    0  0.14398123604E+03  0.32865745789E+03  0.82032237732E+02  0.38871661784E+03  0.12500000000E+03 0.  0.
         21    1    1    2  503  502 -0.13338299681E+03 -0.30472706683E+03  0.10256636116E+03  0.34809404985E+03  0.00000000000E+00 0.  1.
         21    1    1    2  504  503 -0.10598239231E+02 -0.23930391053E+02 -0.44419472423E+01  0.26546509866E+02  0.00000000000E+00 0.  1.
<mgrwt>
<rscale>  4 0.37996226E+03</rscale>
<asrwt>0</asrwt>
<pdfrwt beam="1">  1       21 0.72577987E-01 0.37996226E+03</pdfrwt>
<pdfrwt beam="2">  1       21 0.44861579E-01 0.37996226E+03</pdfrwt>
<totfact> 0.74037145E+03</totfact>
</mgrwt>
</event>
<event>
 5    0  0.1467858E+000  0.2556530E+03  0.7546771E-02  0.1109783E+00
         21   -1    0    0  504  501  0.00000000000E+00  0.00000000000E+00  0.15164913135E+04  0.15164913135E+04  0.00000000000E+00 0.  1.
         21   -1    0    0  501  502 -0.00000000000E+00 -0.00000000000E+00 -0.44670521049E+03  0.44670521049E+03  0.00000000000E+00 0. -1.
         25    1    1    2    0    0 -0.14638491697E+03 -0.18507574992E+03 -0.36721761750E+03  0.45404334125E+03  0.12500000000E+03 0.  0.
         21    1    1    2  503  502 -0.36800666422E+02  0.15866356404E+03  0.11868597493E+04  0.11979835058E+04  0.00000000000E+00 0.  1.
         21    1    1    2  504  503  0.18318558339E+03  0.26412185880E+02  0.25014397120E+03  0.31116967695E+03  0.00000000000E+00 0. -1.
<mgrwt>
<rscale>  4 0.25565302E+03</rscale>
<asrwt>0</asrwt>
<pdfrwt beam="1">  1       21 0.23330635E+00 0.25565302E+03</pdfrwt>
<pdfrwt beam="2">  1       21 0.68723879E-01 0.25565302E+03</pdfrwt>
<totfact> 0.14893419E+02</totfact>
</mgrwt>
</event>
<event>
 5    0  0.1467858E+000  0.4198547E+03  0.7546771E-02  0.1037114E+00
         21   -1    0    0  504  501  0.00000000000E+00  0.00000000000E+00  0.29883788856E+03  0.29883788856E+03  0.00000000000E+00 0.  1.
         21   -1    0    0  501  502 -0.00000000000E+00 -0.00000000000E+00 -0.21705388323E+04  0.21705388323E+04  0.00000000000E+00 0.  1.
         25    1    1    2    0    0  0.20915178438E+03  0.34289759390E+03 -0.19865216123E+04  0.20305704481E+04  0.12500000000E+03 0.  0.
         21    1    1    2  503  502 -0.22858008360E+03 -0.31846781398E+03  0.11057802346E+03  0.40730590769E+03  0.00000000000E+00 0.  1.
         21    1    1    2  504  503  0.19428299224E+02 -0.24429779915E+02  0.42426451092E+01  0.31500364997E+02  0.00000000000E+00 0. -1.
<mgrwt>
<rscale>  4 0.41985470E+03</rscale>
<asrwt>0</asrwt>
<pdfrwt beam="1">  1       21 0.45975059E-01 0.41985470E+03</pdfrwt>
<pdfrwt beam="2">  1       21 0.33392906E+00 0.41985470E+03</pdfrwt>
<totfact> 0.76530117E+01</totfact>
</mgrwt>
</event>
<event>
 5    0  0.1467858E+000  0.2404256E+03  0.7546771E-02  0.1119510E+00
         21   -1    0    0  504  501  0.00000000000E+00  0.00000000000E+00  0.17151452094E+03  0.17151452094E+03  0.00000000000E+00 0. -1.
         21   -1    0    0  501  502 -0.00000000000E+00 -0.00000000000E+00 -0.64876643109E+03  0.64876643109E+03  0.00000000000E+00 0. -1.
         25    1    1    2    0    0  0.19415626416E+03 -0.66953719403E+02 -0.54890601615E+03  0.59925142471E+03  0.12500000000E+03 0.  0.
         21    1    1    2  503  502 -0.17572480167E+03  0.56865803646E+02  0.75741883057E+02  0.19962404263E+03  0.00000000000E+00 0. -1.
         21    1    1    2  504  503 -0.18431462492E+02  0.10087915756E+02 -0.40877770564E+01  0.21405484699E+02  0.00000000000E+00 0. -1.
<mgrwt>
<rscale>  4 0.24042557E+03</rscale>
<asrwt>0</asrwt>
<pdfrwt beam="1">  1       21 0.26386850E-01 0.24042557E+03</pdfrwt>
<pdfrwt beam="2">  1       21 0.99810220E-01 0.24042557E+03</pdfrwt>
<totfact> 0.10924117E+04</totfact>
</mgrwt>
</event>
<event>
 5    0  0.1467858E+000  0.2408851E+03  0.7546771E-02  0.1119205E+00
         21   -1    0    0  504  501  0.00000000000E+00  0.00000000000E+00  0.46475780682E+03  0.46475780682E+03  0.00000000000E+00 0.  1.
         21   -1    0    0  501  502 -0.00000000000E+00 -0.00000000000E+00 -0.12831415726E+03  0.12831415726E+03  0.00000000000E+00 0.  1.
         25    1    1    2    0    0 -0.53253031793E+02 -0.19890894396E+03  0.67337244170E+02  0.25011988693E+03  0.12500000000E+03 0.  0.
         21    1    1    2  503  502  0.55033548503E+02  0.11765226056E+03  0.18446976467E+03  0.22560992876E+03  0.00000000000E+00 0.  1.
         21    1    1    2  504  503 -0.17805167103E+01  0.81256683403E+02  0.84636640718E+02  0.11734214839E+03  0.00000000000E+00 0.  1.
<mgrwt>
<rscale>  4 0.24088515E+03</rscale>
<asrwt>0</asrwt>
<pdfrwt beam="1">  1       21 0.71501200E-01 0.24088515E+03</pdfrwt>
<pdfrwt beam="2">  1       21 0.19740640E-01 0.24088515E+03</pdfrwt>
<totfact> 0.40857444E+04</totfact>
</mgrwt>
</event>
<event>
 5    0  0.1467858E+000  0.2515234E+03  0.7546771E-02  0.1112346E+00
         21   -1    0    0  504  501  0.00000000000E+00  0.00000000000E+00  0.56921461364E+03  0.56921461364E+03  0.00000000000E+00 0. -1.
         21   -1    0    0  501  502 -0.00000000000E+00 -0.00000000000E+00 -0.11045173672E+03  0.11045173672E+03  0.00000000000E+00 0. -1.
         25    1    1    2    0    0  0.21268636018E+03 -0.49025685335E+02  0.33579214859E+03  0.41954781931E+03  0.12500000000E+03 0.  0.
         21    1    1    2  503  502 -0.67865442960E+02  0.22201176875E+02  0.53008979911E+01  0.71601048332E+02  0.00000000000E+00 0. -1.
         21    1    1    2  504  503 -0.14482091722E+03  0.26824508460E+02  0.11766983034E+03  0.18851748272E+03  0.00000000000E+00 0. -1.
<mgrwt>
<rscale>  4 0.25152337E+03</rscale>
<asrwt>0</asrwt>
<pdfrwt beam="1">  1       21 0.87571478E-01 0.25152337E+03</pdfrwt>
<pdfrwt beam="2">  1       21 0.16992575E-01 0.25152337E+03</pdfrwt>
<totfact> 0.33928503E+04</totfact>
</mgrwt>
</event>
<event>
 5    0  0.1467858E+000  0.2547526E+03  0.7546771E-02  0.1110338E+00
         21   -1    0    0  504  501  0.00000000000E+00  0.00000000000E+00  0.11829592572E+03  0.11829592572E+03  0.00000000000E+00 0. -1.
         21   -1    0    0  501  502 -0.00000000000E+00 -0.00000000000E+00 -0.58970381222E+03  0.58970381222E+03  0.00000000000E+00 0.  1.
         25    1    1    2    0    0 -0.16582725674E+03  0.14756423616E+03 -0.39335105522E+03  0.46864051843E+03  0.12500000000E+03 0.  0.
         21    1    1    2  503  502  0.15902204258E+03 -0.12788750077E+03 -0.62679425993E+02  0.21347583780E+03  0.00000000000E+00 0. -1.
         21    1    1    2  504  503  0.68052141599E+01 -0.19676735383E+02 -0.15377405293E+02  0.25883381709E+02  0.00000000000E+00 0.  1.
<mgrwt>
<rscale>  4 0.25475259E+03</rscale>
<asrwt>0</asrwt>
<pdfrwt beam="1">  1       21 0.18199373E-01 0.25475259E+03</pdfrwt>
<pdfrwt beam="2">  1       21 0.90723663E-01 0.25475259E+03</pdfrwt>
<totfact> 0.27469969E+04</totfact>
</mgrwt>
</event>
<event>
 5    0  0.1467858E+000  0.3383525E+03  0.7546771E-02  0.1067500E+00
         21   -1    0    0  504  501  0.00000000000E+00  0.00000000000E+00  0.17897999465E+03  0.17897999465E+03  0.00000000000E+00 0.  1.
         21   -1    0    0  501  502 -0.00000000000E+00 -0.00000000000E+00 -0.12481969395E+04  0.12481969395E+04  0.00000000000E+00 0.  1.
         25    1    1    2    0    0  0.47455770180E+02 -0.31081403835E+03 -0.10413985071E+04  0.10949855101E+04  0.12500000000E+03 0.  0.
         21    1    1    2  503  502 -0.42430450388E+02  0.42353194143E+02  0.10813931037E+02  0.60918611924E+02  0.00000000000E+00 0.  1.
         21    1    1    2  504  503 -0.50253197921E+01  0.26846084421E+03 -0.38632368750E+02  0.27127281218E+03  0.00000000000E+00 0.  1.
<mgrwt>
<rscale>  4 0.33835250E+03</rscale>
<asrwt>0</asrwt>
<pdfrwt beam="1">  1       21 0.27535383E-01 0.33835250E+03</pdfrwt>
<pdfrwt beam="2">  1       21 0.19203031E+00 0.33835250E+03</pdfrwt>
<totfact> 0.16986135E+03</totfact>
</mgrwt>
</event>
<event>
 5    0  0.1467858E+000  0.2509671E+03  0.7546771E-02  0.1112695E+00
         21   -1    0    0  504  501  0.00000000000E+00  0.00000000000E+00  0.29887364479E+02  0.29887364479E+02  0.00000000000E+00 0. -1.
         21   -1    0    0  501  502 -0.00000000000E+00 -0.00000000000E+00 -0.19794163061E+04  0.19794163061E+04  0.00000000000E+00 0. -1.
         25    1    1    2    0    0 -0.18640533777E+03  0.11230562133E+03 -0.12574241655E+04  0.12822246428E+04  0.12500000000E+03 0.  0.
         21    1    1    2  503  502  0.46861280316E+02 -0.47218846023E+02 -0.25939633945E+03  0.26779107516E+03  0.00000000000E+00 0. -1.
         21    1    1    2  504  503  0.13954405745E+03 -0.65086775310E+02 -0.43270843666E+03  0.45928795265E+03  0.00000000000E+00 0. -1.
<mgrwt>
<rscale>  4 0.25096713E+03</rscale>
<asrwt>0</asrwt>
<pdfrwt beam="1">  1       21 0.45980553E-02 0.25096713E+03</pdfrwt>
<pdfrwt beam="2">  1       21 0.30452564E+00 0.25096713E+03</pdfrwt>
<totfact> 0.94189356E+03</totfact>
</mgrwt>
</event>
<event>
 5    0  0.1467858E+000  0.3742677E+03  0.7546771E-02  0.1053073E+00
         21   -1    0    0  504  501  0.00000000000E+00  0.00000000000E+00  0.53778413961E+03  0.53778413961E+03  0.00000000000E+00 0.  1.
         21   -1    0    0  501  502 -0.00000000000E+00 -0.00000000000E+00 -0.94215979014E+03  0.94215979014E+03  0.00000000000E+00 0.  1.
         25    1    1    2    0    0 -0.33163437232E+03 -0.12234075999E+03 -0.80741506072E+03  0.89022058994E+03  0.12500000000E+03 0.  0.
         21    1    1    2  503  502 -0.18620554000E+02  0.74744208898E+02  0.72335791961E+02  0.10566876830E+03  0.00000000000E+00 0. -1.
         21    1    1    2  504  503  0.35025492632E+03  0.47596551094E+02  0.33070361824E+03  0.48405457151E+03  0.00000000000E+00 0.  1.
<mgrwt>
<rscale>  4 0.37426768E+03</rscale>
<asrwt>0</asrwt>
<pdfrwt beam="1">  1       21 0.82736021E-01 0.37426768E+03</pdfrwt>
<pdfrwt beam="2">  1       21 0.14494766E+00 0.37426768E+03</pdfrwt>
<totfact> 0.35876719E+02</totfact>
</mgrwt>
</event>
<event>
 5    0  0.1467858E+000  0.2451965E+03  0.7546771E-02  0.1116379E+00
         21   -1    0    0  504  501  0.00000000000E+00  0.00000000000E+00  0.47208296287E+03  0.47208296287E+03  0.00000000000E+00 0. -1.
         21   -1    0    0  501  502 -0.00000000000E+00 -0.00000000000E+00 -0.15731657194E+03  0.15731657194E+03  0.00000000000E+00 0.  1.
         25    1    1    2    0    0 -0.15205663831E+02  0.21039274814E+03 -0.27808329324E+01  0.24521226257E+03  0.12500000000E+03 0.  0.
         21    1    1    2  503  502  0.16960923272E+02 -0.16347232455E+03  0.27730179338E+03  0.32234633304E+03  0.00000000000E+00 0. -1.
         21    1    1    2  504  503 -0.17552594410E+01 -0.46920423593E+02  0.40245430489E+02  0.61840939200E+02  0.00000000000E+00 0. -1.
<mgrwt>
<rscale>  4 0.24519649E+03</rscale>
<asrwt>0</asrwt>
<pdfrwt beam="1">  1       21 0.72628147E-01 0.24519649E+03</pdfrwt>
<pdfrwt beam="2">  1       21 0.24202550E-01 0.24519649E+03</pdfrwt>
<totfact> 0.26769673E+04</totfact>
</mgrwt>
</event>
<event>
 5    0  0.1467858E+000  0.2606306E+03  0.7546771E-02  0.1106765E+00
         21   -1    0    0  504  501  0.00000000000E+00  0.00000000000E+00  0.15157350073E+03  0.15157350073E+03  0.00000000000E+00 0.  1.
         21   -1    0    0  501  502 -0.00000000000E+00 -0.00000000000E+00 -0.41668308211E+03  0.41668308211E+03  0.00000000000E+00 0.  1.
         25    1    1    2    0    0 -0.22801645852E+03  0.17657520915E+02 -0.17234182115E+03  0.31245799193E+03  0.12500000000E+03 0.  0.
         21    1    1    2  503  502  0.70430152178E+02  0.18076452350E+02 -0.75126908944E+01  0.73099965731E+02  0.00000000000E+00 0.  1.
         21    1    1    2  504  503  0.15758630635E+03 -0.35733973265E+02 -0.85255069330E+02  0.18269862517E+03  0.00000000000E+00 0.  1.
<mgrwt>
<rscale>  4 0.26063057E+03</rscale>
<asrwt>0</asrwt>
<pdfrwt beam="1">  1       21 0.23319001E-01 0.26063057E+03</pdfrwt>
<pdfrwt beam="2">  1       21 0.64105088E-01 0.26063057E+03</pdfrwt>
<totfact> 0.37621705E+04</totfact>
</mgrwt>
</event>
<event>
 5    0  0.1467858E+000  0.3279947E+03  0.7546771E-02  0.1072028E+00
         21   -1    0    0  504  501  0.00000000000E+00  0.00000000000E+00  0.28425725396E+03  0.28425725396E+03  0.00000000000E+00 0.  1.
         21   -1    0    0  501  502 -0.00000000000E+00 -0.00000000000E+00 -0.60509021372E+03  0.60509021372E+03  0.00000000000E+00 0.  1.
         25    1    1    2    0    0  0.62761083610E+02 -0.29667584005E+03 -0.44024248895E+03  0.54899358535E+03  0.12500000000E+03 0.  0.
         21    1    1    2  503  502 -0.78963742132E+02  0.22136276361E+03  0.58629656039E+02  0.24222754231E+03  0.00000000000E+00 0.  1.
         21    1    1    2  504  503  0.16202658522E+02  0.75313076434E+02  0.60779873151E+02  0.98126340019E+02  0.00000000000E+00 0.  1.
<mgrwt>
<rscale>  4 0.32799468E+03</rscale>
<asrwt>0</asrwt>
<pdfrwt beam="1">  1       21 0.43731886E-01 0.32799468E+03</pdfrwt>
<pdfrwt beam="2">  1       21 0.93090801E-01 0.32799468E+03</pdfrwt>
<totfact> 0.44891309E+03</totfact>
</mgrwt>
</event>
<event>
 5    0  0.1467858E+000  0.2949515E+03  0.7546771E-02  0.1087792E+00
         21   -1    0    0  504  501  0.00000000000E+00  0.00000000000E+00  0.76226960548E+03  0.76226960548E+03  0.00000000000E+00 0.  1.
         21   -1    0    0  501  502 -0.00000000000E+00 -0.00000000000E+00 -0.22285860978E+03  0.22285860978E+03  0.00000000000E+00 0.  1.
         25    1    1    2    0    0 -0.35385924739E+02  0.26597958232E+03 -0.77008142605E+02  0.30586362305E+03  0.12500000000E+03 0.  0.
         21    1    1    2  503  502  0.12978886494E+02 -0.26138297587E+03  0.57917302616E+03  0.63555558828E+03  0.00000000000E+00 0.  1.
         21    1    1    2  504  503  0.22407038245E+02 -0.45966064420E+01  0.37246112153E+02  0.43709003926E+02  0.00000000000E+00 0. -1.
<mgrwt>
<rscale>  4 0.29495153E+03</rscale>
<asrwt>0</asrwt>
<pdfrwt beam="1">  1       21 0.11727225E+00 0.29495153E+03</pdfrwt>
<pdfrwt beam="2">  1       21 0.34285940E-01 0.29495153E+03</pdfrwt>
<totfact> 0.42756803E+03</totfact>
</mgrwt>
</event>
<event>
 5    0  0.1467858E+000  0.2504568E+03  0.7546771E-02  0.1113016E+00
         21   -1    0    0  504  501  0.00000000000E+00  0.00000000000E+00  0.28659062096E+03  0.28659062096E+03  0.00000000000E+00 0. -1.
         21   -1    0    0  501  502 -0.00000000000E+00 -0.00000000000E+00 -0.35494714654E+03  0.35494714654E+03  0.00000000000E+00 0. -1.
         25    1    1    2    0    0 -0.11914379110E+03 -0.18018636738E+03 -0.23674375691E+03  0.34399851218E+03  0.12500000000E+03 0.  0.
         21    1    1    2  503  502  0.14079745046E+03  0.17162779219E+03  0.15379178727E+03  0.27005913231E+03  0.00000000000E+00 0. -1.
         21    1    1    2  504  503 -0.21653659367E+02  0.85585751889E+01  0.14595444058E+02  0.27480123008E+02  0.00000000000E+00 0. -1.
<mgrwt>
<rscale>  4 0.25045683E+03</rscale>
<asrwt>0</asrwt>
<pdfrwt beam="1">  1       21 0.44090865E-01 0.25045683E+03</pdfrwt>
<pdfrwt beam="2">  1       21 0.54607253E-01 0.25045683E+03</pdfrwt>
<totfact> 0.15135816E+04</totfact>
</mgrwt>
</event>
<event>
 5    0  0.1475531E+000  0.2285259E+03  0.7546771E-02  0.1127682E+00
         21   -1    0    0  504  501  0.00000000000E+00  0.00000000000E+00  0.61097588835E+03  0.61097588835E+03  0.00000000000E+00 0.  1.
         21   -1    0    0  501  502 -0.00000000000E+00 -0.00000000000E+00 -0.60368390529E+03  0.60368390529E+03  0.00000000000E+00 0. -1.
         25    1    1    2    0    0 -0.94482704981E+02  0.27493645192E+03 -0.47931962187E+03  0.57435993423E+03  0.12500000000E+03 0.  0.
         21    1    1    2  503  502 -0.62376665076E+01 -0.11588677171E+03 -0.26331830732E+01  0.11608439169E+03  0.00000000000E+00 0. -1.
         21    1    1    2  504  503  0.10072037149E+03 -0.15904968021E+03  0.48924478801E+03  0.52421546772E+03  0.00000000000E+00 0.  1.
<mgrwt>
<rscale>  4 0.22852592E+03</rscale>
<asrwt>0</asrwt>
<pdfrwt beam="1">  1       21 0.93996290E-01 0.22852592E+03</pdfrwt>
<pdfrwt beam="2">  1       21 0.92874447E-01 0.22852592E+03</pdfrwt>
<totfact> 0.89602234E+02</totfact>
</mgrwt>
</event>
<event>
 5    0  0.1467858E+000  0.2393600E+03  0.7546771E-02  0.1120220E+00
         21   -1    0    0  504  501  0.00000000000E+00  0.00000000000E+00  0.90213165920E+03  0.90213165920E+03  0.00000000000E+00 0.  1.
         21   -1    0    0  501  502 -0.00000000000E+00 -0.00000000000E+00 -0.24433364023E+03  0.24433364023E+03  0.00000000000E+00 0.  1.
         25    1    1    2    0    0 -0.75468391229E+02  0.19114548689E+03 -0.16763704890E+03  0.29318808877E+03  0.12500000000E+03 0.  0.
         21    1    1    2  503  502  0.61491304746E+02 -0.17617907328E+03  0.79491801589E+03  0.81652611618E+03  0.00000000000E+00 0.  1.
         21    1    1    2  504  503  0.13977086482E+02 -0.14966413615E+02  0.30517051987E+02  0.36751094474E+02  0.00000000000E+00 0.  1.
<mgrwt>
<rscale>  4 0.23936003E+03</rscale>
<asrwt>0</asrwt>
<pdfrwt beam="1">  1       21 0.13878948E+00 0.23936003E+03</pdfrwt>
<pdfrwt beam="2">  1       21 0.37589791E-01 0.23936003E+03</pdfrwt>
<totfact> 0.24010299E+03</totfact>
</mgrwt>
</event>
<event>
 5    0  0.1467858E+000  0.2495147E+03  0.7546771E-02  0.1113612E+00
         21   -1    0    0  504  501  0.00000000000E+00  0.00000000000E+00  0.74003235456E+02  0.74003235456E+02  0.00000000000E+00 0.  1.
         21   -1    0    0  501  502 -0.00000000000E+00 -0.00000000000E+00 -0.74410784053E+03  0.74410784053E+03  0.00000000000E+00 0.  1.
         25    1    1    2    0    0 -0.13788768236E+03  0.16619139760E+03 -0.35081415005E+03  0.43049757428E+03  0.12500000000E+03 0.  0.
         21    1    1    2  503  502  0.11748125920E+03 -0.15309556859E+03 -0.29963492846E+03  0.35640032230E+03  0.00000000000E+00 0.  1.
         21    1    1    2  504  503  0.20406423164E+02 -0.13095829016E+02 -0.19655526568E+02  0.31213179406E+02  0.00000000000E+00 0.  1.
<mgrwt>
<rscale>  4 0.24951472E+03</rscale>
<asrwt>0</asrwt>
<pdfrwt beam="1">  1       21 0.11385113E-01 0.24951472E+03</pdfrwt>
<pdfrwt beam="2">  1       21 0.11447813E+00 0.24951472E+03</pdfrwt>
<totfact> 0.37118652E+04</totfact>
</mgrwt>
</event>
<event>
 5    0  0.1467858E+000  0.2374269E+03  0.7546771E-02  0.1121519E+00
         21   -1    0    0  504  501  0.00000000000E+00  0.00000000000E+00  0.10912333350E+04  0.10912333350E+04  0.00000000000E+00 0. -1.
         21   -1    0    0  501  502 -0.00000000000E+00 -0.00000000000E+00 -0.48006272141E+02  0.48006272141E+02  0.00000000000E+00 0. -1.
         25    1    1    2    0    0 -0.16495505453E+03  0.11634595991E+03  0.69440923635E+03  0.73387719677E+03  0.12500000000E+03 0.  0.
         21    1    1    2  503  502  0.43640057936E+02 -0.51875409504E+02  0.94357637221E+02  0.11618466538E+03  0.00000000000E+00 0. -1.
         21    1    1    2  504  503  0.12131499659E+03 -0.64470550405E+02  0.25446018926E+03  0.28917774497E+03  0.00000000000E+00 0. -1.
<mgrwt>
<rscale>  4 0.23742694E+03</rscale>
<asrwt>0</asrwt>
<pdfrwt beam="1">  1       21 0.16788203E+00 0.23742694E+03</pdfrwt>
<pdfrwt beam="2">  1       21 0.73855812E-02 0.23742694E+03</pdfrwt>
<totfact> 0.29623878E+04</totfact>
</mgrwt>
</event>
<event>
 5    0  0.1467858E+000  0.2972431E+03  0.7546771E-02  0.1086727E+00
         21   -1    0    0  504  501  0.00000000000E+00  0.00000000000E+00  0.28108024702E+03  0.28108024702E+03  0.00000000000E+00 0. -1.
         21   -1    0    0  501  502 -0.00000000000E+00 -0.00000000000E+00 -0.38587339613E+03  0.38587339613E+03  0.00000000000E+00 0. -1.
         25    1    1    2    0    0 -0.26836365227E+03  0.15450580075E+02 -0.19676388081E+03  0.35580724428E+03  0.12500000000E+03 0.  0.
         21    1    1    2  503  502  0.14091678495E+03  0.27152764264E+02  0.10250070025E+03  0.17635534139E+03  0.00000000000E+00 0. -1.
         21    1    1    2  504  503  0.12744686733E+03 -0.42603344340E+02 -0.10529968542E+02  0.13479105749E+03  0.00000000000E+00 0. -1.
<mgrwt>
<rscale>  4 0.29704470E+03</rscale>
<asrwt>0</asrwt>
<pdfrwt beam="1">  1       21 0.43243115E-01 0.29724311E+03</pdfrwt>
<pdfrwt beam="2">  1       21 0.59365137E-01 0.29724311E+03</pdfrwt>
<totfact> 0.12881575E+04</totfact>
</mgrwt>
</event>
<event>
 5    0  0.1467858E+000  0.2791105E+03  0.7546771E-02  0.1096176E+00
         21   -1    0    0  504  501  0.00000000000E+00  0.00000000000E+00  0.84771493887E+03  0.84771493887E+03  0.00000000000E+00 0.  1.
         21   -1    0    0  501  502 -0.00000000000E+00 -0.00000000000E+00 -0.99551492264E+02  0.99551492264E+02  0.00000000000E+00 0.  1.
         25    1    1    2    0    0  0.21545799029E+03  0.12591877640E+03  0.20225229037E+03  0.34468633972E+03  0.12500000000E+03 0.  0.
         21    1    1    2  503  502 -0.25780172415E+02 -0.17551294458E+02  0.11906156560E+03  0.12307851815E+03  0.00000000000E+00 0.  1.
         21    1    1    2  504  503 -0.18967781788E+03 -0.10836748194E+03  0.42684959064E+03  0.47950157326E+03  0.00000000000E+00 0.  1.
<mgrwt>
<rscale>  4 0.27911052E+03</rscale>
<asrwt>0</asrwt>
<pdfrwt beam="1">  1       21 0.13041768E+00 0.27911052E+03</pdfrwt>
<pdfrwt beam="2">  1       21 0.15315615E-01 0.27911052E+03</pdfrwt>
<totfact> 0.15400139E+04</totfact>
</mgrwt>
</event>
<event>
 5    0  0.1467858E+000  0.3907786E+03  0.7546771E-02  0.1047020E+00
         21   -1    0    0  504  501  0.00000000000E+00  0.00000000000E+00  0.14896145333E+03  0.14896145333E+03  0.00000000000E+00 0. -1.
         21   -1    0    0  501  502 -0.00000000000E+00 -0.00000000000E+00 -0.25859417309E+04  0.25859417309E+04  0.00000000000E+00 0. -1.
         25    1    1    2    0    0  0.25890723318E+03 -0.26612129018E+03 -0.20584870066E+04  0.20954348601E+04  0.12500000000E+03 0.  0.
         21    1    1    2  503  502 -0.97738708006E+02 -0.81429018171E+02 -0.57243451855E+02  0.13950036854E+03  0.00000000000E+00 0. -1.
         21    1    1    2  504  503 -0.16116852517E+03  0.34755030835E+03 -0.32124981907E+03  0.49996795556E+03  0.00000000000E+00 0. -1.
<mgrwt>
<rscale>  4 0.39077859E+03</rscale>
<asrwt>0</asrwt>
<pdfrwt beam="1">  1       21 0.22917148E-01 0.39077859E+03</pdfrwt>
<pdfrwt beam="2">  1       21 0.39783717E+00 0.39077859E+03</pdfrwt>
<totfact> 0.12694036E+02</totfact>
</mgrwt>
</event>
<event>
 5    0  0.1467858E+000  0.3318412E+03  0.7546771E-02  0.1070325E+00
         21   -1    0    0  504  501  0.00000000000E+00  0.00000000000E+00  0.84699047850E+03  0.84699047850E+03  0.00000000000E+00 0.  1.
         21   -1    0    0  501  502 -0.00000000000E+00 -0.00000000000E+00 -0.19506029146E+03  0.19506029146E+03  0.00000000000E+00 0. -1.
         25    1    1    2    0    0  0.17096268302E+03  0.25547086838E+03  0.17532218733E+02  0.33230405094E+03  0.12500000000E+03 0.  0.
         21    1    1    2  503  502 -0.52317119710E+02 -0.71973872250E+02  0.10890654146E+03  0.14063411419E+03  0.00000000000E+00 0.  1.
         21    1    1    2  504  503 -0.11864556331E+03 -0.18349699613E+03  0.52549142686E+03  0.56911260483E+03  0.00000000000E+00 0.  1.
<mgrwt>
<rscale>  4 0.33184123E+03</rscale>
<asrwt>0</asrwt>
<pdfrwt beam="1">  1       21 0.13030623E+00 0.33184123E+03</pdfrwt>
<pdfrwt beam="2">  1       21 0.30009276E-01 0.33184123E+03</pdfrwt>
<totfact> 0.41847296E+03</totfact>
</mgrwt>
</event>
<event>
 5    0  0.1467858E+000  0.2397823E+03  0.7546771E-02  0.1119938E+00
         21   -1    0    0  504  501  0.00000000000E+00  0.00000000000E+00  0.80046278941E+03  0.80046278941E+03  0.00000000000E+00 0. -1.
         21   -1    0    0  501  502 -0.00000000000E+00 -0.00000000000E+00 -0.12287762639E+03  0.12287762639E+03  0.00000000000E+00 0. -1.
         25    1    1    2    0    0  0.19847825869E+03  0.49768674555E+02  0.28574859167E+02  0.24147890740E+03  0.12500000000E+03 0.  0.
         21    1    1    2  503  502 -0.15079492438E+03 -0.43984229542E+02  0.43400381368E+03  0.46155501509E+03  0.00000000000E+00 0. -1.
         21    1    1    2  504  503 -0.47683334309E+02 -0.57844450133E+01  0.21500649018E+03  0.22030649331E+03  0.00000000000E+00 0. -1.
<mgrwt>
<rscale>  4 0.23978228E+03</rscale>
<asrwt>0</asrwt>
<pdfrwt beam="1">  1       21 0.12314812E+00 0.23978228E+03</pdfrwt>
<pdfrwt beam="2">  1       21 0.18904251E-01 0.23978228E+03</pdfrwt>
<totfact> 0.12312750E+04</totfact>
</mgrwt>
</event>
<event>
 5    0  0.1467858E+000  0.2905762E+03  0.7546771E-02  0.1090049E+00
         21   -1    0    0  504  501  0.00000000000E+00  0.00000000000E+00  0.12028474722E+04  0.12028474722E+04  0.00000000000E+00 0. -1.
         21   -1    0    0  501  502 -0.00000000000E+00 -0.00000000000E+00 -0.72402796444E+02  0.72402796444E+02  0.00000000000E+00 0. -1.
         25    1    1    2    0    0 -0.21098318136E+03  0.15587060373E+03  0.37508284683E+03  0.47446990411E+03  0.12500000000E+03 0.  0.
         21    1    1    2  503  502  0.17500572201E+03 -0.12984225534E+03  0.57159346684E+03  0.61172306263E+03  0.00000000000E+00 0. -1.
         21    1    1    2  504  503  0.35977459345E+02 -0.26028348387E+02  0.18376836203E+03  0.18905730186E+03  0.00000000000E+00 0.  1.
<mgrwt>
<rscale>  4 0.29057623E+03</rscale>
<asrwt>0</asrwt>
<pdfrwt beam="1">  1       21 0.18505344E+00 0.29057623E+03</pdfrwt>
<pdfrwt beam="2">  1       21 0.11138893E-01 0.29057623E+03</pdfrwt>
<totfact> 0.10559753E+04</totfact>
</mgrwt>
</event>
<event>
 5    0  0.1467858E+000  0.2885397E+03  0.7546771E-02  0.1091114E+00
         21   -1    0    0  504  501  0.00000000000E+00  0.00000000000E+00  0.19346194998E+04  0.19346194998E+04  0.00000000000E+00 0. -1.
         21   -1    0    0  501  502 -0.00000000000E+00 -0.00000000000E+00 -0.31646846081E+03  0.31646846081E+03  0.00000000000E+00 0.  1.
         25    1    1    2    0    0 -0.23642905073E+03  0.10831180012E+03 -0.23867660942E+03  0.37446183512E+03  0.12500000000E+03 0.  0.
         21    1    1    2  503  502  0.11464023021E+03 -0.80095323525E+02  0.76633641126E+03  0.77899238665E+03  0.00000000000E+00 0. -1.
         21    1    1    2  504  503  0.12178882052E+03 -0.28216476597E+02  0.10904912372E+04  0.10976337389E+04  0.00000000000E+00 0. -1.
<mgrwt>
<rscale>  4 0.28853967E+03</rscale>
<asrwt>0</asrwt>
<pdfrwt beam="1">  1       21 0.29763376E+00 0.28853967E+03</pdfrwt>
<pdfrwt beam="2">  1       21 0.48687457E-01 0.28853967E+03</pdfrwt>
<totfact> 0.12527694E+02</totfact>
</mgrwt>
</event>
<event>
 5    0  0.1467858E+000  0.2896644E+03  0.7546771E-02  0.1090525E+00
         21   -1    0    0  504  501  0.00000000000E+00  0.00000000000E+00  0.11970541485E+03  0.11970541485E+03  0.00000000000E+00 0. -1.
         21   -1    0    0  501  502 -0.00000000000E+00 -0.00000000000E+00 -0.95983534921E+03  0.95983534921E+03  0.00000000000E+00 0. -1.
         25    1    1    2    0    0  0.24865920405E+03  0.80305930929E+02 -0.72870345213E+03  0.78416462777E+03  0.12500000000E+03 0.  0.
         21    1    1    2  503  502 -0.10099556039E+03 -0.63700813277E+02 -0.79324625597E+02  0.14335373401E+03  0.00000000000E+00 0. -1.
         21    1    1    2  504  503 -0.14766364367E+03 -0.16605117652E+02 -0.32101856633E+02  0.15202240227E+03  0.00000000000E+00 0. -1.
<mgrwt>
<rscale>  4 0.28966436E+03</rscale>
<asrwt>0</asrwt>
<pdfrwt beam="1">  1       21 0.18416218E-01 0.28966436E+03</pdfrwt>
<pdfrwt beam="2">  1       21 0.14766698E+00 0.28966436E+03</pdfrwt>
<totfact> 0.78697078E+03</totfact>
</mgrwt>
</event>
<event>
 5    0  0.1467858E+000  0.2630256E+03  0.7546771E-02  0.1105339E+00
         21   -1    0    0  504  501  0.00000000000E+00  0.00000000000E+00  0.50392288688E+03  0.50392288688E+03  0.00000000000E+00 0. -1.
         21   -1    0    0  501  502 -0.00000000000E+00 -0.00000000000E+00 -0.19785048029E+03  0.19785048029E+03  0.00000000000E+00 0. -1.
         25    1    1    2    0    0 -0.20609750663E+03  0.14502034223E+03  0.52752626508E+01  0.28135371029E+03  0.12500000000E+03 0.  0.
         21    1    1    2  503  502  0.11724865343E+03 -0.16264365478E+03  0.23227353888E+03  0.30684067858E+03  0.00000000000E+00 0. -1.
         21    1    1    2  504  503  0.88848853198E+02  0.17623312550E+02  0.68523605064E+02  0.11357897830E+03  0.00000000000E+00 0. -1.
<mgrwt>
<rscale>  4 0.26302563E+03</rscale>
<asrwt>0</asrwt>
<pdfrwt beam="1">  1       21 0.77526598E-01 0.26302563E+03</pdfrwt>
<pdfrwt beam="2">  1       21 0.30438535E-01 0.26302563E+03</pdfrwt>
<totfact> 0.14691684E+04</totfact>
</mgrwt>
</event>
<event>
 5    0  0.1467858E+000  0.2250152E+03  0.7546771E-02  0.1130198E+00
         21   -1    0    0  504  501  0.00000000000E+00  0.00000000000E+00  0.20706389927E+03  0.20706389927E+03  0.00000000000E+00 0. -1.
         21   -1    0    0  501  502 -0.00000000000E+00 -0.00000000000E+00 -0.43091390531E+03  0.43091390531E+03  0.00000000000E+00 0. -1.
         25    1    1    2    0    0 -0.16348968865E+03 -0.12481239029E+03 -0.29854064035E+03  0.38348210520E+03  0.12500000000E+03 0.  0.
         21    1    1    2  503  502  0.90900661088E+02 -0.86860003699E+01  0.26591000307E+02  0.95107613186E+02  0.00000000000E+00 0. -1.
         21    1    1    2  504  503  0.72589027562E+02  0.13349839066E+03  0.48099634008E+02  0.15938808620E+03  0.00000000000E+00 0. -1.
<mgrwt>
<rscale>  4 0.22501522E+03</rscale>
<asrwt>0</asrwt>
<pdfrwt beam="1">  1       21 0.31855985E-01 0.22501522E+03</pdfrwt>
<pdfrwt beam="2">  1       21 0.66294447E-01 0.22501522E+03</pdfrwt>
<totfact> 0.19413865E+04</totfact>
</mgrwt>
</event>
<event>
 5    0  0.1467858E+000  0.2399711E+03  0.7546771E-02  0.1119812E+00
         21   -1    0    0  504  501  0.00000000000E+00  0.00000000000E+00  0.59237391976E+03  0.59237391976E+03  0.00000000000E+00 0. -1.
         21   -1    0    0  501  502 -0.00000000000E+00 -0.00000000000E+00 -0.44011214579E+03  0.44011214579E+03  0.00000000000E+00 0. -1.
         25    1    1    2    0    0  0.98794698600E+02  0.17944558131E+03 -0.38664836078E+03  0.45506380214E+03  0.12500000000E+03 0.  0.
         21    1    1    2  503  502 -0.10813869835E+02 -0.32991876749E+02  0.65605823568E+02  0.74226193478E+02  0.00000000000E+00 0. -1.
         21    1    1    2  504  503 -0.87980828765E+02 -0.14645370456E+03  0.47330431118E+03  0.50319606993E+03  0.00000000000E+00 0. -1.
<mgrwt>
<rscale>  4 0.23997106E+03</rscale>
<asrwt>0</asrwt>
<pdfrwt beam="1">  1       21 0.91134449E-01 0.23997106E+03</pdfrwt>
<pdfrwt beam="2">  1       21 0.67709561E-01 0.23997106E+03</pdfrwt>
<totfact> 0.19555851E+03</totfact>
</mgrwt>
</event>
<event>
 5    0  0.1467858E+000  0.2546275E+03  0.7546771E-02  0.1110415E+00
         21   -1    0    0  504  501  0.00000000000E+00  0.00000000000E+00  0.22623171908E+03  0.22623171908E+03  0.00000000000E+00 0.  1.
         21   -1    0    0  501  502 -0.00000000000E+00 -0.00000000000E+00 -0.27594076135E+03  0.27594076135E+03  0.00000000000E+00 0.  1.
         25    1    1    2    0    0 -0.46022059691E+02  0.21700719872E+03 -0.41417281887E+02  0.25797392410E+03  0.12500000000E+03 0.  0.
         21    1    1    2  503  502 -0.55780283822E+01 -0.13065515936E+03 -0.43191422261E+02  0.13772212612E+03  0.00000000000E+00 0.  1.
         21    1    1    2  504  503  0.51600088074E+02 -0.86352039366E+02  0.34899661869E+02  0.10647643021E+03  0.00000000000E+00 0.  1.
<mgrwt>
<rscale>  4 0.25462748E+03</rscale>
<asrwt>0</asrwt>
<pdfrwt beam="1">  1       21 0.34804880E-01 0.25462748E+03</pdfrwt>
<pdfrwt beam="2">  1       21 0.42452424E-01 0.25462748E+03</pdfrwt>
<totfact> 0.41285052E+04</totfact>
</mgrwt>
</event>
<event>
 5    0  0.1467858E+000  0.2873027E+03  0.7546771E-02  0.1091766E+00
         21   -1    0    0  504  501  0.00000000000E+00  0.00000000000E+00  0.84976943429E+03  0.84976943429E+03  0.00000000000E+00 0. -1.
         21   -1    0    0  501  502 -0.00000000000E+00 -0.00000000000E+00 -0.12540897696E+03  0.12540897696E+03  0.00000000000E+00 0.  1.
         25    1    1    2    0    0  0.21206774850E+03 -0.14813876927E+03  0.11358991155E+03  0.30894253984E+03  0.12500000000E+03 0.  0.
         21    1    1    2  503  502 -0.39278648206E+02  0.24686549251E+02  0.18115537930E+03  0.18700136195E+03  0.00000000000E+00 0.  1.
         21    1    1    2  504  503 -0.17278910029E+03  0.12345222001E+03  0.42961516647E+03  0.47923450947E+03  0.00000000000E+00 0. -1.
<mgrwt>
<rscale>  4 0.28730267E+03</rscale>
<asrwt>0</asrwt>
<pdfrwt beam="1">  1       21 0.13073376E+00 0.28730267E+03</pdfrwt>
<pdfrwt beam="2">  1       21 0.19293689E-01 0.28730267E+03</pdfrwt>
<totfact> 0.99250140E+03</totfact>
</mgrwt>
</event>
<event>
 5    0  0.1467858E+000  0.3051578E+03  0.7546771E-02  0.1082690E+00
         21   -1    0    0  504  501  0.00000000000E+00  0.00000000000E+00  0.16467416445E+03  0.16467416445E+03  0.00000000000E+00 0. -1.
         21   -1    0    0  501  502 -0.00000000000E+00 -0.00000000000E+00 -0.74934176533E+03  0.74934176533E+03  0.00000000000E+00 0. -1.
         25    1    1    2    0    0 -0.28593895478E+03  0.10562702683E+03 -0.27801105939E+03  0.43108387095E+03  0.12500000000E+03 0.  0.
         21    1    1    2  503  502  0.48860025013E+02  0.85525186578E+01  0.28196225862E+02  0.57056767982E+02  0.00000000000E+00 0. -1.
         21    1    1    2  504  503  0.23707892976E+03 -0.11417954549E+03 -0.33485276736E+03  0.42587529085E+03  0.00000000000E+00 0. -1.
<mgrwt>
<rscale>  4 0.30515780E+03</rscale>
<asrwt>0</asrwt>
<pdfrwt beam="1">  1       21 0.25334487E-01 0.30515780E+03</pdfrwt>
<pdfrwt beam="2">  1       21 0.11528335E+00 0.30515780E+03</pdfrwt>
<totfact> 0.80432244E+03</totfact>
</mgrwt>
</event>
<event>
 5    0  0.1467858E+000  0.2805021E+03  0.7546771E-02  0.1095415E+00
         21   -1    0    0  504  501  0.00000000000E+00  0.00000000000E+00  0.14048299544E+04  0.14048299544E+04  0.00000000000E+00 0.  1.
         21   -1    0    0  501  502 -0.00000000000E+00 -0.00000000000E+00 -0.74701318707E+02  0.74701318707E+02  0.00000000000E+00 0.  1.
         25    1    1    2    0    0 -0.71713372789E+02 -0.27634339111E+03  0.58352980703E+03  0.66154403734E+03  0.12500000000E+03 0.  0.
         21    1    1    2  503  502  0.47693773746E+01  0.56768597692E+02  0.38832825336E+03  0.39248471690E+03  0.00000000000E+00 0.  1.
         21    1    1    2  504  503  0.66943995414E+02  0.21957479342E+03  0.35827057528E+03  0.42550251884E+03  0.00000000000E+00 0.  1.
<mgrwt>
<rscale>  4 0.28050206E+03</rscale>
<asrwt>0</asrwt>
<pdfrwt beam="1">  1       21 0.21612767E+00 0.28050206E+03</pdfrwt>
<pdfrwt beam="2">  1       21 0.11492512E-01 0.28050206E+03</pdfrwt>
<totfact> 0.62896394E+03</totfact>
</mgrwt>
</event>
<event>
 5    0  0.1467858E+000  0.2854596E+03  0.7546771E-02  0.1092744E+00
         21   -1    0    0  504  501  0.00000000000E+00  0.00000000000E+00  0.53406647621E+03  0.53406647621E+03  0.00000000000E+00 0.  1.
         21   -1    0    0  501  502 -0.00000000000E+00 -0.00000000000E+00 -0.21198605877E+03  0.21198605877E+03  0.00000000000E+00 0.  1.
         25    1    1    2    0    0  0.17757625200E+03 -0.18528041024E+03 -0.51679099137E+02  0.29009978452E+03  0.12500000000E+03 0.  0.
         21    1    1    2  503  502 -0.42875059291E+02  0.50051376909E+02  0.13541964950E+03  0.15060508793E+03  0.00000000000E+00 0.  1.
         21    1    1    2  504  503 -0.13470119270E+03  0.13522903334E+03  0.23833986708E+03  0.30534766253E+03  0.00000000000E+00 0.  1.
<mgrwt>
<rscale>  4 0.28545955E+03</rscale>
<asrwt>0</asrwt>
<pdfrwt beam="1">  1       21 0.82164073E-01 0.28545955E+03</pdfrwt>
<pdfrwt beam="2">  1       21 0.32613240E-01 0.28545955E+03</pdfrwt>
<totfact> 0.11106890E+04</totfact>
</mgrwt>
</event>
<event>
 5    0  0.1467858E+000  0.2336327E+03  0.7546771E-02  0.1124109E+00
         21   -1    0    0  504  501  0.00000000000E+00  0.00000000000E+00  0.19771856869E+03  0.19771856869E+03  0.00000000000E+00 0.  1.
         21   -1    0    0  501  502 -0.00000000000E+00 -0.00000000000E+00 -0.39117409847E+03  0.39117409847E+03  0.00000000000E+00 0.  1.
         25    1    1    2    0    0  0.18280823243E+03 -0.13880143466E+03 -0.19332336318E+03  0.32509015805E+03  0.12500000000E+03 0.  0.
         21    1    1    2  503  502 -0.12378602481E+03  0.11418514010E+03 -0.57437622360E+02  0.17793343312E+03  0.00000000000E+00 0.  1.
         21    1    1    2  504  503 -0.59022207620E+02  0.24616294560E+02  0.57305455764E+02  0.85869075985E+02  0.00000000000E+00 0.  1.
<mgrwt>
<rscale>  4 0.23363266E+03</rscale>
<asrwt>0</asrwt>
<pdfrwt beam="1">  1       21 0.30418242E-01 0.23363266E+03</pdfrwt>
<pdfrwt beam="2">  1       21 0.60180630E-01 0.23363266E+03</pdfrwt>
<totfact> 0.26122757E+04</totfact>
</mgrwt>
</event>
<event>
 5    0  0.1467858E+000  0.3899177E+03  0.7546771E-02  0.1047328E+00
         21   -1    0    0  504  501  0.00000000000E+00  0.00000000000E+00  0.40259970546E+03  0.40259970546E+03  0.00000000000E+00 0.  1.
         21   -1    0    0  501  502 -0.00000000000E+00 -0.00000000000E+00 -0.12594566218E+04  0.12594566218E+04  0.00000000000E+00 0.  1.
         25    1    1    2    0    0  0.54599319839E+02 -0.36528035523E+03 -0.11304497827E+04  0.11958062280E+04  0.12500000000E+03 0.  0.
         21    1    1    2  503  502 -0.66411506147E+02  0.27768196905E+03  0.23505778087E+03  0.36982418043E+03  0.00000000000E+00 0.  1.
         21    1    1    2  504  503  0.11812186308E+02  0.87598386181E+02  0.38535085517E+02  0.96425918833E+02  0.00000000000E+00 0. -1.
<mgrwt>
<rscale>  4 0.38991771E+03</rscale>
<asrwt>0</asrwt>
<pdfrwt beam="1">  1       21 0.61938417E-01 0.38991771E+03</pdfrwt>
<pdfrwt beam="2">  1       21 0.19376256E+00 0.38991771E+03</pdfrwt>
<totfact> 0.30077562E+02</totfact>
</mgrwt>
</event>
<event>
 5    0  0.1467858E+000  0.2590104E+03  0.7546771E-02  0.1107739E+00
         21   -1    0    0  504  501  0.00000000000E+00  0.00000000000E+00  0.13535663513E+04  0.13535663513E+04  0.00000000000E+00 0. -1.
         21   -1    0    0  501  502 -0.00000000000E+00 -0.00000000000E+00 -0.49513622397E+02  0.49513622397E+02  0.00000000000E+00 0. -1.
         25    1    1    2    0    0  0.13986233701E+03  0.17860553834E+03  0.48249229019E+03  0.54761776974E+03  0.12500000000E+03 0.  0.
         21    1    1    2  503  502 -0.61875970039E+02 -0.26160524838E+02  0.22573347608E+03  0.23551775082E+03  0.00000000000E+00 0. -1.
         21    1    1    2  504  503 -0.77986366973E+02 -0.15244501351E+03  0.59582696264E+03  0.61994445315E+03  0.00000000000E+00 0. -1.
<mgrwt>
<rscale>  4 0.25901045E+03</rscale>
<asrwt>0</asrwt>
<pdfrwt beam="1">  1       21 0.20824095E+00 0.25901045E+03</pdfrwt>
<pdfrwt beam="2">  1       21 0.76174814E-02 0.25901045E+03</pdfrwt>
<totfact> 0.14830980E+04</totfact>
</mgrwt>
</event>
<event>
 5    0  0.1467858E+000  0.2850127E+03  0.7546771E-02  0.1092982E+00
         21   -1    0    0  504  501  0.00000000000E+00  0.00000000000E+00  0.36100235666E+03  0.36100235666E+03  0.00000000000E+00 0.  1.
         21   -1    0    0  501  502 -0.00000000000E+00 -0.00000000000E+00 -0.14566731373E+04  0.14566731373E+04  0.00000000000E+00 0. -1.
         25    1    1    2    0    0 -0.26957247401E+03  0.16247375737E+03 -0.12202175226E+04  0.12663423088E+04  0.12500000000E+03 0.  0.
         21    1    1    2  503  502  0.19543703711E+03 -0.16218200460E+03  0.28066154666E+03  0.37850963246E+03  0.00000000000E+00 0.  1.
         21    1    1    2  504  503  0.74135436903E+02 -0.29175277908E+00 -0.15611480471E+03  0.17282355272E+03  0.00000000000E+00 0.  1.
<mgrwt>
<rscale>  4 0.28501266E+03</rscale>
<asrwt>0</asrwt>
<pdfrwt beam="1">  1       21 0.55538824E-01 0.28501266E+03</pdfrwt>
<pdfrwt beam="2">  1       21 0.22410356E+00 0.28501266E+03</pdfrwt>
<totfact> 0.26199330E+02</totfact>
</mgrwt>
</event>
<event>
 5    0  0.1467858E+000  0.2479507E+03  0.7546771E-02  0.1114607E+00
         21   -1    0    0  504  501  0.00000000000E+00  0.00000000000E+00  0.21651695019E+03  0.21651695019E+03  0.00000000000E+00 0.  1.
         21   -1    0    0  501  502 -0.00000000000E+00 -0.00000000000E+00 -0.26481486808E+04  0.26481486808E+04  0.00000000000E+00 0.  1.
         25    1    1    2    0    0 -0.13008568441E+03  0.17905491120E+03 -0.25628867689E+04  0.25754604514E+04  0.12500000000E+03 0.  0.
         21    1    1    2  503  502  0.79589229849E+02 -0.10901701954E+03  0.35186956486E+01  0.13502420997E+03  0.00000000000E+00 0.  1.
         21    1    1    2  504  503  0.50496454565E+02 -0.70037891655E+02  0.12773634260E+03  0.15418096968E+03  0.00000000000E+00 0.  1.
<mgrwt>
<rscale>  4 0.24795068E+03</rscale>
<asrwt>0</asrwt>
<pdfrwt beam="1">  1       21 0.33310301E-01 0.24795068E+03</pdfrwt>
<pdfrwt beam="2">  1       21 0.40740748E+00 0.24795068E+03</pdfrwt>
<totfact> 0.62012242E+01</totfact>
</mgrwt>
</event>
<event>
 5    0  0.1467858E+000  0.4115640E+03  0.7546771E-02  0.1039847E+00
         21   -1    0    0  504  501  0.00000000000E+00  0.00000000000E+00  0.73361030653E+03  0.73361030653E+03  0.00000000000E+00 0.  1.
         21   -1    0    0  501  502 -0.00000000000E+00 -0.00000000000E+00 -0.32350716193E+03  0.32350716193E+03  0.00000000000E+00 0. -1.
         25    1    1    2    0    0  0.35173188884E+03  0.17333374721E+03 -0.87519589122E+02  0.42076666697E+03  0.12500000000E+03 0.  0.
         21    1    1    2  503  502 -0.30804417726E+03 -0.17205844410E+03  0.43861760344E+03  0.56292159790E+03  0.00000000000E+00 0.  1.
         21    1    1    2  504  503 -0.43687711585E+02 -0.12753031142E+01  0.59005130280E+02  0.73429203597E+02  0.00000000000E+00 0.  1.
<mgrwt>
<rscale>  4 0.41156398E+03</rscale>
<asrwt>0</asrwt>
<pdfrwt beam="1">  1       21 0.11286312E+00 0.41156398E+03</pdfrwt>
<pdfrwt beam="2">  1       21 0.49770333E-01 0.41156398E+03</pdfrwt>
<totfact> 0.20653078E+03</totfact>
</mgrwt>
</event>
<event>
 5    0  0.1467858E+000  0.3502009E+03  0.7546771E-02  0.1062533E+00
         21   -1    0    0  504  501  0.00000000000E+00  0.00000000000E+00  0.11719816252E+04  0.11719816252E+04  0.00000000000E+00 0. -1.
         21   -1    0    0  501  502 -0.00000000000E+00 -0.00000000000E+00 -0.10519488489E+04  0.10519488489E+04  0.00000000000E+00 0. -1.
         25    1    1    2    0    0 -0.22761043292E+03 -0.23496629275E+03 -0.99718806497E+03  0.10568938948E+04  0.12500000000E+03 0.  0.
         21    1    1    2  503  502  0.48757661112E+01  0.23559074273E+02  0.38001863144E+02  0.44977157294E+02  0.00000000000E+00 0.  1.
         21    1    1    2  504  503  0.22273466681E+03  0.21140721847E+03  0.10792189781E+04  0.11220594220E+04  0.00000000000E+00 0. -1.
<mgrwt>
<rscale>  4 0.35020090E+03</rscale>
<asrwt>0</asrwt>
<pdfrwt beam="1">  1       21 0.18030487E+00 0.35020090E+03</pdfrwt>
<pdfrwt beam="2">  1       21 0.16183828E+00 0.35020090E+03</pdfrwt>
<totfact> 0.36868182E+01</totfact>
</mgrwt>
</event>
<event>
 5    0  0.1467858E+000  0.2439659E+03  0.7546771E-02  0.1117179E+00
         21   -1    0    0  504  501  0.00000000000E+00  0.00000000000E+00  0.25893803467E+03  0.25893803467E+03  0.00000000000E+00 0.  1.
         21   -1    0    0  501  502 -0.00000000000E+00 -0.00000000000E+00 -0.23314353845E+03  0.23314353845E+03  0.00000000000E+00 0. -1.
         25    1    1    2    0    0 -0.20911100529E+03  0.68488710514E+02 -0.29942297681E+02  0.25483260622E+03  0.12500000000E+03 0.  0.
         21    1    1    2  503  502  0.18963735743E+03 -0.75586813461E+02  0.65419182625E+02  0.21437202046E+03  0.00000000000E+00 0.  1.
         21    1    1    2  504  503  0.19473647866E+02  0.70981029466E+01 -0.96823887240E+01  0.22876946432E+02  0.00000000000E+00 0.  1.
<mgrwt>
<rscale>  4 0.24396586E+03</rscale>
<asrwt>0</asrwt>
<pdfrwt beam="1">  1       21 0.39836621E-01 0.24396586E+03</pdfrwt>
<pdfrwt beam="2">  1       21 0.35868237E-01 0.24396586E+03</pdfrwt>
<totfact> 0.44455371E+04</totfact>
</mgrwt>
</event>
