<event>
 5    0  0.4930573E+000  0.1915727E+03  0.7546771E-02  0.1157051E+00
          2   -1    0    0  502    0 -0.00000000000E+00  0.00000000000E+00  0.61680910216E+02  0.61680910216E+02  0.00000000000E+00 0.  1.
         21   -1    0    0  503  502  0.00000000000E+00 -0.00000000000E+00 -0.13402223906E+04  0.13402223906E+04  0.00000000000E+00 0.  1.
         25    1    1    2    0    0 -0.11873424505E+02  0.21678570383E+03 -0.97594425245E+03  0.10075858293E+04  0.12500000000E+03 0.  0.
         21    1    1    2  503  501 -0.40746911154E+00 -0.80880315316E+02 -0.22097096507E+03  0.23530822094E+03  0.00000000000E+00 0.  1.
          2    1    1    2  501    0  0.12280893617E+02 -0.13590538851E+03 -0.81626262908E+02  0.15900925058E+03  0.00000000000E+00 0.  1.
<mgrwt>
<rscale>  4 0.19157265E+03</rscale>
<asrwt>0</asrwt>
<pdfrwt beam="1">  1       21 0.20618803E+00 0.19157265E+03</pdfrwt>
<pdfrwt beam="2">  1        2 0.94893720E-02 0.19157265E+03</pdfrwt>
<totfact> 0.10153076E+03</totfact>
</mgrwt>
</event>
<event>
 5    0  0.4930573E+000  0.2460238E+03  0.7546771E-02  0.1115844E+00
         21   -1    0    0  503  502  0.00000000000E+00  0.00000000000E+00  0.13117669080E+03  0.13117669080E+03  0.00000000000E+00 0.  1.
          2   -1    0    0  502    0 -0.00000000000E+00 -0.00000000000E+00 -0.12046616059E+04  0.12046616059E+04  0.00000000000E+00 0.  1.
         25    1    1    2    0    0 -0.22067660645E+03  0.10607976958E+03 -0.43217310267E+03  0.51220081298E+03  0.12500000000E+03 0.  0.
         21    1    1    2  503  501  0.38502714535E+02 -0.22305722040E+02  0.70917348406E+02  0.83721410447E+02  0.00000000000E+00 0.  1.
          2    1    1    2  501    0  0.18217389191E+03 -0.83774047537E+02 -0.71222916083E+03  0.73991607326E+03  0.00000000000E+00 0.  1.
<mgrwt>
<rscale>  4 0.24602380E+03</rscale>
<asrwt>0</asrwt>
<pdfrwt beam="1">  1       21 0.20181029E-01 0.24602380E+03</pdfrwt>
<pdfrwt beam="2">  1        2 0.18533256E+00 0.24602380E+03</pdfrwt>
<totfact> 0.56487424E+03</totfact>
</mgrwt>
</event>
<event>
 5    0  0.4930573E+000  0.5623000E+03  0.7546771E-02  0.9986864E-01
         21   -1    0    0  503  502  0.00000000000E+00  0.00000000000E+00  0.47542508874E+03  0.47542508874E+03  0.00000000000E+00 0. -1.
          1   -1    0    0  502    0 -0.00000000000E+00 -0.00000000000E+00 -0.18731790610E+04  0.18731790610E+04  0.00000000000E+00 0. -1.
         25    1    1    2    0    0  0.32018433885E+03 -0.42728681756E+03 -0.76116396796E+03  0.93812985318E+03  0.12500000000E+03 0.  0.
         21    1    1    2  503  501  0.99161046947E+02  0.47547018429E+02  0.29819567014E+03  0.31782745300E+03  0.00000000000E+00 0. -1.
          1    1    1    2  501    0 -0.41934538580E+03  0.37973979913E+03 -0.93478567448E+03  0.10926468436E+04  0.00000000000E+00 0. -1.
<mgrwt>
<rscale>  4 0.56230000E+03</rscale>
<asrwt>0</asrwt>
<pdfrwt beam="1">  1       21 0.73142321E-01 0.56230000E+03</pdfrwt>
<pdfrwt beam="2">  1        1 0.28818139E+00 0.56230000E+03</pdfrwt>
<totfact> 0.64224769E+01</totfact>
</mgrwt>
</event>
<event>
 5    0  0.4930573E+000  0.6512421E+03  0.7546771E-02  0.9804451E-01
          2   -1    0    0  502    0 -0.00000000000E+00  0.00000000000E+00  0.76320367759E+03  0.76320367759E+03  0.00000000000E+00 0.  1.
         21   -1    0    0  503  502  0.00000000000E+00 -0.00000000000E+00 -0.88113603649E+03  0.88113603649E+03  0.00000000000E+00 0.  1.
         25    1    1    2    0    0 -0.56152580512E+03 -0.30887079343E+03 -0.15395476700E+03  0.67084980967E+03  0.12500000000E+03 0.  0.
         21    1    1    2  503  501 -0.22638191474E+02  0.49765507149E+02 -0.26251491865E+03  0.26814767559E+03  0.00000000000E+00 0.  1.
          2    1    1    2  501    0  0.58416399659E+03  0.25910528628E+03  0.29853732675E+03  0.70534222882E+03  0.00000000000E+00 0.  1.
<mgrwt>
<rscale>  4 0.65124212E+03</rscale>
<asrwt>0</asrwt>
<pdfrwt beam="1">  1       21 0.13555939E+00 0.65124212E+03</pdfrwt>
<pdfrwt beam="2">  1        2 0.11741595E+00 0.65124212E+03</pdfrwt>
<totfact> 0.15255735E+02</totfact>
</mgrwt>
</event>
<event>
 5    0  0.4930573E+000  0.2510051E+03  0.7546771E-02  0.1112671E+00
          2   -1    0    0  502    0 -0.00000000000E+00  0.00000000000E+00  0.20714394386E+03  0.20714394386E+03  0.00000000000E+00 0. -1.
         21   -1    0    0  503  502  0.00000000000E+00 -0.00000000000E+00 -0.58942365537E+03  0.58942365537E+03  0.00000000000E+00 0. -1.
         25    1    1    2    0    0 -0.36157948458E+01 -0.26964826881E+03 -0.16117360400E+03  0.33812008735E+03  0.12500000000E+03 0.  0.
         21    1    1    2  503  501 -0.43448664118E+01  0.70335635486E+02 -0.24740897242E+03  0.25724925485E+03  0.00000000000E+00 0. -1.
          2    1    1    2  501    0  0.79606612576E+01  0.19931263333E+03  0.26302864914E+02  0.20119825703E+03  0.00000000000E+00 0. -1.
<mgrwt>
<rscale>  4 0.25100505E+03</rscale>
<asrwt>0</asrwt>
<pdfrwt beam="1">  1       21 0.90680561E-01 0.25100505E+03</pdfrwt>
<pdfrwt beam="2">  1        2 0.31868299E-01 0.25100505E+03</pdfrwt>
<totfact> 0.20408539E+03</totfact>
</mgrwt>
</event>
<event>
 5    0  0.4930573E+000  0.2622847E+03  0.7546771E-02  0.1105778E+00
         -3   -1    0    0    0  501 -0.00000000000E+00  0.00000000000E+00  0.10178591541E+04  0.10178591541E+04  0.00000000000E+00 0. -1.
         21   -1    0    0  501  502  0.00000000000E+00 -0.00000000000E+00 -0.41580433166E+03  0.41580433166E+03  0.00000000000E+00 0. -1.
         25    1    1    2    0    0 -0.64632299980E+02  0.23722602435E+03  0.68864425143E+03  0.74182843425E+03  0.12500000000E+03 0.  0.
         21    1    1    2  503  502  0.21782040257E+02 -0.31817599045E+02 -0.35165864679E+03  0.35376633637E+03  0.00000000000E+00 0. -1.
         -3    1    1    2    0  503  0.42850259723E+02 -0.20540842530E+03  0.26506921779E+03  0.33806871515E+03  0.00000000000E+00 0. -1.
<mgrwt>
<rscale>  4 0.26228465E+03</rscale>
<asrwt>0</asrwt>
<pdfrwt beam="1">  1       21 0.63969897E-01 0.26228465E+03</pdfrwt>
<pdfrwt beam="2">  1       -3 0.15659372E+00 0.26228465E+03</pdfrwt>
<totfact> 0.33247469E+01</totfact>
</mgrwt>
</event>
<event>
 5    0  0.4930573E+000  0.2749227E+03  0.7546771E-02  0.1098495E+00
         -2   -1    0    0    0  501 -0.00000000000E+00  0.00000000000E+00  0.95420746232E+03  0.95420746232E+03  0.00000000000E+00 0. -1.
         21   -1    0    0  501  502  0.00000000000E+00 -0.00000000000E+00 -0.27157000110E+03  0.27157000110E+03  0.00000000000E+00 0. -1.
         25    1    1    2    0    0  0.28175269443E+03 -0.86033092290E+01 -0.14301840724E+03  0.33990860912E+03  0.12500000000E+03 0.  0.
         21    1    1    2  503  502 -0.39657151220E+02  0.13536453722E+02  0.23675466292E+02  0.48129543177E+02  0.00000000000E+00 0. -1.
         -2    1    1    2    0  503 -0.24209554321E+03 -0.49331444933E+01  0.80198040216E+03  0.83773931112E+03  0.00000000000E+00 0. -1.
<mgrwt>
<rscale>  4 0.27492274E+03</rscale>
<asrwt>0</asrwt>
<pdfrwt beam="1">  1       21 0.41780000E-01 0.27492274E+03</pdfrwt>
<pdfrwt beam="2">  1       -2 0.14680115E+00 0.27492274E+03</pdfrwt>
<totfact> 0.14735847E+02</totfact>
</mgrwt>
</event>
<event>
 5    0  0.4930573E+000  0.2516337E+03  0.7546771E-02  0.1112277E+00
         21   -1    0    0  503  502  0.00000000000E+00  0.00000000000E+00  0.82796189250E+02  0.82796189250E+02  0.00000000000E+00 0.  1.
          2   -1    0    0  502    0 -0.00000000000E+00 -0.00000000000E+00 -0.10206403477E+04  0.10206403477E+04  0.00000000000E+00 0. -1.
         25    1    1    2    0    0  0.20816647629E+03  0.96464559690E+02 -0.28835433491E+03  0.38911684054E+03  0.12500000000E+03 0.  0.
         21    1    1    2  503  501  0.51685799346E+01 -0.60222195803E+02 -0.55187796112E+02  0.81848151632E+02  0.00000000000E+00 0.  1.
          2    1    1    2  501    0 -0.21333505623E+03 -0.36242363887E+02 -0.59430202746E+03  0.63247154482E+03  0.00000000000E+00 0. -1.
<mgrwt>
<rscale>  4 0.25163370E+03</rscale>
<asrwt>0</asrwt>
<pdfrwt beam="1">  1       21 0.12737876E-01 0.25163370E+03</pdfrwt>
<pdfrwt beam="2">  1        2 0.15702159E+00 0.25163370E+03</pdfrwt>
<totfact> 0.16876117E+04</totfact>
</mgrwt>
</event>
<event>
 5    0  0.4930573E+000  0.2360825E+03  0.7546771E-02  0.1122430E+00
          2   -1    0    0  502    0 -0.00000000000E+00  0.00000000000E+00  0.19356368007E+04  0.19356368007E+04  0.00000000000E+00 0.  1.
         21   -1    0    0  503  502  0.00000000000E+00 -0.00000000000E+00 -0.93367971099E+02  0.93367971099E+02  0.00000000000E+00 0. -1.
         25    1    1    2    0    0  0.21627985377E+03 -0.35047795153E+02  0.34118470256E+03  0.42430805360E+03  0.12500000000E+03 0.  0.
         21    1    1    2  503  501 -0.21996185319E+02 -0.69764989781E-01 -0.42862980266E+02  0.48177506297E+02  0.00000000000E+00 0. -1.
          2    1    1    2  501    0 -0.19428366845E+03  0.35117560142E+02  0.15439471073E+04  0.15565192119E+04  0.00000000000E+00 0.  1.
<mgrwt>
<rscale>  4 0.23608254E+03</rscale>
<asrwt>0</asrwt>
<pdfrwt beam="1">  1       21 0.14364305E-01 0.23608254E+03</pdfrwt>
<pdfrwt beam="2">  1        2 0.29779025E+00 0.23608254E+03</pdfrwt>
<totfact> 0.43248524E+03</totfact>
</mgrwt>
</event>
<event>
 5    0  0.4930573E+000  0.6692980E+03  0.7546771E-02  0.9771227E-01
          2   -1    0    0  502    0 -0.00000000000E+00  0.00000000000E+00  0.17221071102E+04  0.17221071102E+04  0.00000000000E+00 0. -1.
         21   -1    0    0  503  502  0.00000000000E+00 -0.00000000000E+00 -0.59932167879E+03  0.59932167879E+03  0.00000000000E+00 0. -1.
         25    1    1    2    0    0 -0.52546441731E+03 -0.37797835765E+03 -0.23243186821E+03  0.69902079087E+03  0.12500000000E+03 0.  0.
         21    1    1    2  503  501 -0.25052412874E+02  0.15375664766E+02 -0.56877353372E+02  0.64023962580E+02  0.00000000000E+00 0. -1.
          2    1    1    2  501    0  0.55051683019E+03  0.36260269288E+03  0.14120946530E+04  0.15583840356E+04  0.00000000000E+00 0. -1.
<mgrwt>
<rscale>  4 0.66929802E+03</rscale>
<asrwt>0</asrwt>
<pdfrwt beam="1">  1       21 0.92203336E-01 0.66929802E+03</pdfrwt>
<pdfrwt beam="2">  1        2 0.26493955E+00 0.66929802E+03</pdfrwt>
<totfact> 0.10667560E+02</totfact>
</mgrwt>
</event>
<event>
 5    0  0.4930573E+000  0.2771240E+03  0.7546771E-02  0.1097270E+00
         21   -1    0    0  501  502  0.00000000000E+00  0.00000000000E+00  0.43589191160E+03  0.43589191160E+03  0.00000000000E+00 0. -1.
         -1   -1    0    0    0  501 -0.00000000000E+00 -0.00000000000E+00 -0.29188328076E+03  0.29188328076E+03  0.00000000000E+00 0. -1.
         25    1    1    2    0    0 -0.23131992005E+03  0.16954258066E+02  0.18930241638E+02  0.26415848714E+03  0.12500000000E+03 0.  0.
         21    1    1    2  503  502 -0.24184362936E+02  0.21949256421E+02  0.19352190091E+03  0.19625845052E+03  0.00000000000E+00 0. -1.
         -1    1    1    2    0  503  0.25550428299E+03 -0.38903514487E+02 -0.68443511711E+02  0.26735825470E+03  0.00000000000E+00 0. -1.
<mgrwt>
<rscale>  4 0.27712396E+03</rscale>
<asrwt>0</asrwt>
<pdfrwt beam="1">  1       21 0.67060294E-01 0.27712396E+03</pdfrwt>
<pdfrwt beam="2">  1       -1 0.44905120E-01 0.27712396E+03</pdfrwt>
<totfact> 0.91193160E+02</totfact>
</mgrwt>
</event>
<event>
 5    0  0.4930573E+000  0.2446770E+03  0.7546771E-02  0.1116716E+00
          2   -1    0    0  502    0 -0.00000000000E+00  0.00000000000E+00  0.22045517688E+04  0.22045517688E+04  0.00000000000E+00 0.  1.
         21   -1    0    0  503  502  0.00000000000E+00 -0.00000000000E+00 -0.27739865180E+02  0.27739865180E+02  0.00000000000E+00 0. -1.
         25    1    1    2    0    0  0.20027639498E+03  0.38724863913E+02  0.11288605166E+04  0.11539329770E+04  0.12500000000E+03 0.  0.
         21    1    1    2  503  501  0.75093777102E+01  0.22351936080E+02  0.33007789554E+02  0.40564935244E+02  0.00000000000E+00 0.  1.
          2    1    1    2  501    0 -0.20778577269E+03 -0.61076799994E+02  0.10149435975E+04  0.10377937217E+04  0.00000000000E+00 0.  1.
<mgrwt>
<rscale>  4 0.24467703E+03</rscale>
<asrwt>0</asrwt>
<pdfrwt beam="1">  1       21 0.42676733E-02 0.24467703E+03</pdfrwt>
<pdfrwt beam="2">  1        2 0.33916167E+00 0.24467703E+03</pdfrwt>
<totfact> 0.26054780E+04</totfact>
</mgrwt>
</event>
<event>
 5    0  0.4930573E+000  0.2552426E+03  0.7546771E-02  0.1110036E+00
         21   -1    0    0  503  502  0.00000000000E+00  0.00000000000E+00  0.96905708198E+02  0.96905708198E+02  0.00000000000E+00 0.  1.
          2   -1    0    0  502    0 -0.00000000000E+00 -0.00000000000E+00 -0.15793410956E+04  0.15793410956E+04  0.00000000000E+00 0.  1.
         25    1    1    2    0    0  0.24548985043E+03 -0.53560833634E+01 -0.14252926921E+03  0.31021532340E+03  0.12500000000E+03 0.  0.
         21    1    1    2  503  501 -0.25535698450E+02  0.10499088708E+02 -0.46763615266E+02  0.54305970866E+02  0.00000000000E+00 0. -1.
          2    1    1    2  501    0 -0.21995415198E+03 -0.51430053443E+01 -0.12931425030E+04  0.13117255096E+04  0.00000000000E+00 0.  1.
<mgrwt>
<rscale>  4 0.25524259E+03</rscale>
<asrwt>0</asrwt>
<pdfrwt beam="1">  1       21 0.14908572E-01 0.25524259E+03</pdfrwt>
<pdfrwt beam="2">  1        2 0.24297553E+00 0.25524259E+03</pdfrwt>
<totfact> 0.61699496E+03</totfact>
</mgrwt>
</event>
<event>
 5    0  0.4930573E+000  0.2297627E+03  0.7546771E-02  0.1126807E+00
         21   -1    0    0  503  502  0.00000000000E+00  0.00000000000E+00  0.28305602654E+03  0.28305602654E+03  0.00000000000E+00 0.  1.
          2   -1    0    0  502    0 -0.00000000000E+00 -0.00000000000E+00 -0.21697693514E+04  0.21697693514E+04  0.00000000000E+00 0.  1.
         25    1    1    2    0    0  0.16262604319E+03 -0.16036453040E+03 -0.17506072735E+04  0.17698629434E+04  0.12500000000E+03 0.  0.
         21    1    1    2  503  501 -0.65956149950E+02  0.52536164922E+02  0.25358276588E+03  0.26723488076E+03  0.00000000000E+00 0.  1.
          2    1    1    2  501    0 -0.96669893238E+02  0.10782836548E+03 -0.38968881727E+03  0.41572755377E+03  0.00000000000E+00 0.  1.
<mgrwt>
<rscale>  4 0.22976270E+03</rscale>
<asrwt>0</asrwt>
<pdfrwt beam="1">  1       21 0.43547081E-01 0.22976270E+03</pdfrwt>
<pdfrwt beam="2">  1        2 0.33381067E+00 0.22976270E+03</pdfrwt>
<totfact> 0.38685832E+02</totfact>
</mgrwt>
</event>
<event>
 5    0  0.4930573E+000  0.2520605E+03  0.7546771E-02  0.1112010E+00
          2   -1    0    0  502    0 -0.00000000000E+00  0.00000000000E+00  0.27920912548E+04  0.27920912548E+04  0.00000000000E+00 0. -1.
         21   -1    0    0  503  502  0.00000000000E+00 -0.00000000000E+00 -0.38168460146E+03  0.38168460146E+03  0.00000000000E+00 0.  1.
         25    1    1    2    0    0 -0.80780730614E+02 -0.24351478577E+03  0.56868746274E+03  0.63628249042E+03  0.12500000000E+03 0.  0.
         21    1    1    2  503  501  0.25710936465E+02  0.37598904825E+02 -0.34118249831E+03  0.34420956850E+03  0.00000000000E+00 0.  1.
          2    1    1    2  501    0  0.55069794149E+02  0.20591588095E+03  0.21829016889E+04  0.21932837973E+04  0.00000000000E+00 0. -1.
<mgrwt>
<rscale>  4 0.25206048E+03</rscale>
<asrwt>0</asrwt>
<pdfrwt beam="1">  1       21 0.58720710E-01 0.25206048E+03</pdfrwt>
<pdfrwt beam="2">  1        2 0.42955249E+00 0.25206048E+03</pdfrwt>
<totfact> 0.92793084E+01</totfact>
</mgrwt>
</event>
<event>
 5    0  0.4930573E+000  0.2500653E+03  0.7546771E-02  0.1113264E+00
         21   -1    0    0  503  502  0.00000000000E+00  0.00000000000E+00  0.29891783272E+02  0.29891783272E+02  0.00000000000E+00 0. -1.
          2   -1    0    0  502    0 -0.00000000000E+00 -0.00000000000E+00 -0.38670953152E+04  0.38670953152E+04  0.00000000000E+00 0.  1.
         25    1    1    2    0    0  0.13419286081E+03 -0.18046699497E+03 -0.82720888951E+03  0.86629995212E+03  0.12500000000E+03 0.  0.
         21    1    1    2  503  501  0.54412237707E+02  0.71000053929E+02 -0.33236314497E+03  0.34419029534E+03  0.00000000000E+00 0. -1.
          2    1    1    2  501    0 -0.18860509852E+03  0.10946694104E+03 -0.26776314974E+04  0.26864968510E+04  0.00000000000E+00 0.  1.
<mgrwt>
<rscale>  4 0.25006525E+03</rscale>
<asrwt>0</asrwt>
<pdfrwt beam="1">  1       21 0.45987353E-02 0.25006525E+03</pdfrwt>
<pdfrwt beam="2">  1        2 0.59493782E+00 0.25006525E+03</pdfrwt>
<totfact> 0.22436068E+03</totfact>
</mgrwt>
</event>
<event>
 5    0  0.4930573E+000  0.2982508E+03  0.7546771E-02  0.1086118E+00
         21   -1    0    0  501  502  0.00000000000E+00  0.00000000000E+00  0.23081799567E+03  0.23081799567E+03  0.00000000000E+00 0. -1.
         -4   -1    0    0    0  501 -0.00000000000E+00 -0.00000000000E+00 -0.50670350092E+03  0.50670350092E+03  0.00000000000E+00 0. -1.
         25    1    1    2    0    0  0.28035058070E+03 -0.73452136833E+02  0.60673475109E+01  0.31567938991E+03  0.12500000000E+03 0.  0.
         21    1    1    2  503  502 -0.27474206469E+02 -0.50836387456E+01  0.81105857072E+01  0.29093934154E+02  0.00000000000E+00 0. -1.
         -4    1    1    2    0  503 -0.25287637423E+03  0.78535775579E+02 -0.29006343846E+03  0.39274817253E+03  0.00000000000E+00 0. -1.
<mgrwt>
<rscale>  4 0.29825084E+03</rscale>
<asrwt>0</asrwt>
<pdfrwt beam="1">  1       21 0.35510461E-01 0.29825084E+03</pdfrwt>
<pdfrwt beam="2">  1       -4 0.77954385E-01 0.29825084E+03</pdfrwt>
<totfact> 0.48056268E+02</totfact>
</mgrwt>
</event>
<event>
 5    0  0.4930573E+000  0.2521999E+03  0.7546771E-02  0.1111922E+00
         21   -1    0    0  503  502  0.00000000000E+00  0.00000000000E+00  0.45621140399E+03  0.45621140399E+03  0.00000000000E+00 0.  1.
          2   -1    0    0  502    0 -0.00000000000E+00 -0.00000000000E+00 -0.26689453664E+03  0.26689453664E+03  0.00000000000E+00 0. -1.
         25    1    1    2    0    0 -0.86151645934E+02 -0.21626519930E+03 -0.10177835868E+03  0.28315468709E+03  0.12500000000E+03 0.  0.
         21    1    1    2  503  501 -0.38671796415E+00  0.37271449743E+02  0.22849206664E+03  0.23151227837E+03  0.00000000000E+00 0.  1.
          2    1    1    2  501    0  0.86538363898E+02  0.17899374955E+03  0.62603159387E+02  0.20843897517E+03  0.00000000000E+00 0. -1.
<mgrwt>
<rscale>  4 0.25219985E+03</rscale>
<asrwt>0</asrwt>
<pdfrwt beam="1">  1       21 0.70186370E-01 0.25219985E+03</pdfrwt>
<pdfrwt beam="2">  1        2 0.41060698E-01 0.25219985E+03</pdfrwt>
<totfact> 0.27737108E+03</totfact>
</mgrwt>
</event>
<event>
 5    0  0.4930573E+000  0.1692803E+03  0.7546771E-02  0.1178600E+00
         21   -1    0    0  503  502  0.00000000000E+00  0.00000000000E+00  0.29229850062E+03  0.29229850062E+03  0.00000000000E+00 0.  1.
          2   -1    0    0  502    0 -0.00000000000E+00 -0.00000000000E+00 -0.21424429806E+04  0.21424429806E+04  0.00000000000E+00 0. -1.
         25    1    1    2    0    0 -0.40691887183E+02 -0.20258766638E+03 -0.65051529394E+03  0.69389677900E+03  0.12500000000E+03 0.  0.
         21    1    1    2  503  501  0.16059211638E+02  0.11138729757E+03  0.25731096614E+03  0.28084508476E+03  0.00000000000E+00 0.  1.
          2    1    1    2  501    0  0.24632675545E+02  0.91200368812E+02 -0.14569401522E+04  0.14599996175E+04  0.00000000000E+00 0. -1.
<mgrwt>
<rscale>  4 0.16928029E+03</rscale>
<asrwt>0</asrwt>
<pdfrwt beam="1">  1       21 0.44968999E-01 0.16928029E+03</pdfrwt>
<pdfrwt beam="2">  1        2 0.32960662E+00 0.16928029E+03</pdfrwt>
<totfact> 0.39361056E+02</totfact>
</mgrwt>
</event>
<event>
 5    0  0.4930573E+000  0.2535627E+03  0.7546771E-02  0.1111074E+00
         21   -1    0    0  503  502  0.00000000000E+00  0.00000000000E+00  0.49219692764E+03  0.49219692764E+03  0.00000000000E+00 0.  1.
          2   -1    0    0  502    0 -0.00000000000E+00 -0.00000000000E+00 -0.70365476701E+03  0.70365476701E+03  0.00000000000E+00 0.  1.
         25    1    1    2    0    0 -0.21553719032E+03  0.73622389153E+02  0.33262851968E+03  0.42207021773E+03  0.12500000000E+03 0.  0.
         21    1    1    2  503  501  0.20236097288E+03 -0.42359570435E+02  0.20878889355E+02  0.20779851918E+03  0.00000000000E+00 0.  1.
          2    1    1    2  501    0  0.13176217441E+02 -0.31262818718E+02 -0.56496524840E+03  0.56598295773E+03  0.00000000000E+00 0.  1.
<mgrwt>
<rscale>  4 0.25356267E+03</rscale>
<asrwt>0</asrwt>
<pdfrwt beam="1">  1       21 0.75722604E-01 0.25356267E+03</pdfrwt>
<pdfrwt beam="2">  1        2 0.10825458E+00 0.25356267E+03</pdfrwt>
<totfact> 0.79207318E+02</totfact>
</mgrwt>
</event>
<event>
 5    0  0.4930573E+000  0.2061414E+03  0.7546771E-02  0.1144659E+00
         -1   -1    0    0    0  501 -0.00000000000E+00  0.00000000000E+00  0.36185765186E+03  0.36185765186E+03  0.00000000000E+00 0. -1.
         21   -1    0    0  501  502  0.00000000000E+00 -0.00000000000E+00 -0.82401842184E+03  0.82401842184E+03  0.00000000000E+00 0.  1.
         25    1    1    2    0    0 -0.23506762004E+03  0.96717141606E+02 -0.76865747912E+02  0.29350355138E+03  0.12500000000E+03 0.  0.
         21    1    1    2  503  502  0.86399493439E+02 -0.61358400357E+02 -0.61082326796E+03  0.61994740941E+03  0.00000000000E+00 0.  1.
         -1    1    1    2    0  503  0.14866812660E+03 -0.35358741249E+02  0.22552824589E+03  0.27242511291E+03  0.00000000000E+00 0. -1.
<mgrwt>
<rscale>  4 0.20614137E+03</rscale>
<asrwt>0</asrwt>
<pdfrwt beam="1">  1       21 0.12677206E+00 0.20614137E+03</pdfrwt>
<pdfrwt beam="2">  1       -1 0.55670409E-01 0.20614137E+03</pdfrwt>
<totfact> 0.14192045E+02</totfact>
</mgrwt>
</event>
<event>
 5    0  0.4930573E+000  0.2643097E+03  0.7546771E-02  0.1104581E+00
          2   -1    0    0  502    0 -0.00000000000E+00  0.00000000000E+00  0.59824200888E+03  0.59824200888E+03  0.00000000000E+00 0.  1.
         21   -1    0    0  503  502  0.00000000000E+00 -0.00000000000E+00 -0.43547901042E+03  0.43547901042E+03  0.00000000000E+00 0.  1.
         25    1    1    2    0    0 -0.35941347074E+01 -0.21619945560E+03 -0.19277851068E+03  0.31550543036E+03  0.12500000000E+03 0.  0.
         21    1    1    2  503  501  0.11170397603E+02 -0.18266856745E+02 -0.15493977819E+03  0.15641224602E+03  0.00000000000E+00 0.  1.
          2    1    1    2  501    0 -0.75762628960E+01  0.23446631235E+03  0.51048128734E+03  0.56180334292E+03  0.00000000000E+00 0.  1.
<mgrwt>
<rscale>  4 0.26430966E+03</rscale>
<asrwt>0</asrwt>
<pdfrwt beam="1">  1       21 0.66996771E-01 0.26430966E+03</pdfrwt>
<pdfrwt beam="2">  1        2 0.92037232E-01 0.26430966E+03</pdfrwt>
<totfact> 0.12567610E+03</totfact>
</mgrwt>
</event>
<event>
 5    0  0.4930573E+000  0.3295369E+03  0.7546771E-02  0.1071342E+00
          2   -1    0    0  502    0 -0.00000000000E+00  0.00000000000E+00  0.23053181278E+04  0.23053181278E+04  0.00000000000E+00 0. -1.
         21   -1    0    0  503  502  0.00000000000E+00 -0.00000000000E+00 -0.15685866593E+03  0.15685866593E+03  0.00000000000E+00 0.  1.
         25    1    1    2    0    0  0.30849118967E+03 -0.98692265060E+02  0.54585198683E+03  0.64690522398E+03  0.12500000000E+03 0.  0.
         21    1    1    2  503  501 -0.22966079729E+02  0.67633212639E+01 -0.91619503780E+02  0.94695917576E+02  0.00000000000E+00 0.  1.
          2    1    1    2  501    0 -0.28552510994E+03  0.91928943796E+02  0.16942269788E+04  0.17205756521E+04  0.00000000000E+00 0. -1.
<mgrwt>
<rscale>  4 0.32953687E+03</rscale>
<asrwt>0</asrwt>
<pdfrwt beam="1">  1       21 0.24132104E-01 0.32953687E+03</pdfrwt>
<pdfrwt beam="2">  1        2 0.35466430E+00 0.32953687E+03</pdfrwt>
<totfact> 0.10006520E+03</totfact>
</mgrwt>
</event>
<event>
 5    0  0.4930573E+000  0.2413368E+03  0.7546771E-02  0.1118906E+00
         21   -1    0    0  503  502  0.00000000000E+00  0.00000000000E+00  0.29791285745E+03  0.29791285745E+03  0.00000000000E+00 0. -1.
          1   -1    0    0  502    0 -0.00000000000E+00 -0.00000000000E+00 -0.69947490183E+03  0.69947490183E+03  0.00000000000E+00 0.  1.
         25    1    1    2    0    0 -0.21892879445E+03 -0.40850275761E+02  0.13322928414E+03  0.28805139164E+03  0.12500000000E+03 0.  0.
         21    1    1    2  503  501  0.26218493722E+02 -0.30100779410E+02  0.64490968381E+02  0.75845575592E+02  0.00000000000E+00 0.  1.
          1    1    1    2  501    0  0.19271030073E+03  0.70951055171E+02 -0.59928229690E+03  0.63349079206E+03  0.00000000000E+00 0.  1.
<mgrwt>
<rscale>  4 0.24133676E+03</rscale>
<asrwt>0</asrwt>
<pdfrwt beam="1">  1       21 0.45832747E-01 0.24133676E+03</pdfrwt>
<pdfrwt beam="2">  1        1 0.10761152E+00 0.24133676E+03</pdfrwt>
<totfact> 0.14026248E+03</totfact>
</mgrwt>
</event>
<event>
 5    0  0.4930573E+000  0.2767776E+03  0.7546771E-02  0.1097462E+00
         21   -1    0    0  503  502  0.00000000000E+00  0.00000000000E+00  0.20867850770E+03  0.20867850770E+03  0.00000000000E+00 0.  1.
          2   -1    0    0  502    0 -0.00000000000E+00 -0.00000000000E+00 -0.16387821025E+04  0.16387821025E+04  0.00000000000E+00 0. -1.
         25    1    1    2    0    0  0.23014640912E+03  0.19841004158E+01 -0.19513956801E+03  0.32661254919E+03  0.12500000000E+03 0.  0.
         21    1    1    2  503  501  0.19572924065E+02  0.59808834853E+01  0.13081407245E+03  0.13240540727E+03  0.00000000000E+00 0.  1.
          2    1    1    2  501    0 -0.24971933318E+03 -0.79649839011E+01 -0.13657780993E+04  0.13884426538E+04  0.00000000000E+00 0. -1.
<mgrwt>
<rscale>  4 0.27677759E+03</rscale>
<asrwt>0</asrwt>
<pdfrwt beam="1">  1       21 0.32104385E-01 0.27677759E+03</pdfrwt>
<pdfrwt beam="2">  1        2 0.25212033E+00 0.27677759E+03</pdfrwt>
<totfact> 0.13238499E+03</totfact>
</mgrwt>
</event>
<event>
 5    0  0.4930573E+000  0.2479862E+03  0.7546771E-02  0.1114584E+00
         21   -1    0    0  503  502  0.00000000000E+00  0.00000000000E+00  0.34901795992E+03  0.34901795992E+03  0.00000000000E+00 0.  1.
          1   -1    0    0  502    0 -0.00000000000E+00 -0.00000000000E+00 -0.40416785187E+03  0.40416785187E+03  0.00000000000E+00 0.  1.
         25    1    1    2    0    0  0.27654235213E+03  0.11337782451E+03  0.48288301821E+02  0.32754688780E+03  0.12500000000E+03 0.  0.
         21    1    1    2  503  501 -0.10132833060E+03 -0.24692416980E+02  0.98858057146E+02  0.14370129262E+03  0.00000000000E+00 0.  1.
          1    1    1    2  501    0 -0.17521402153E+03 -0.88685407529E+02 -0.20229625092E+03  0.28193763137E+03  0.00000000000E+00 0.  1.
<mgrwt>
<rscale>  4 0.24798617E+03</rscale>
<asrwt>0</asrwt>
<pdfrwt beam="1">  1       21 0.53695071E-01 0.24798617E+03</pdfrwt>
<pdfrwt beam="2">  1        1 0.62179670E-01 0.24798617E+03</pdfrwt>
<totfact> 0.21130034E+03</totfact>
</mgrwt>
</event>
<event>
 5    0  0.4930573E+000  0.3044702E+03  0.7546771E-02  0.1083027E+00
         21   -1    0    0  503  502  0.00000000000E+00  0.00000000000E+00  0.29775813991E+03  0.29775813991E+03  0.00000000000E+00 0. -1.
          2   -1    0    0  502    0 -0.00000000000E+00 -0.00000000000E+00 -0.55581969016E+03  0.55581969016E+03  0.00000000000E+00 0. -1.
         25    1    1    2    0    0  0.13782729480E+03 -0.27283579327E+03  0.71199291315E+02  0.33783142595E+03  0.12500000000E+03 0.  0.
         21    1    1    2  503  501 -0.17257933157E+02  0.29509254861E+02  0.43017804579E+02  0.54946918841E+02  0.00000000000E+00 0. -1.
          2    1    1    2  501    0 -0.12056936164E+03  0.24332653840E+03 -0.37227864615E+03  0.46079948528E+03  0.00000000000E+00 0. -1.
<mgrwt>
<rscale>  4 0.30447024E+03</rscale>
<asrwt>0</asrwt>
<pdfrwt beam="1">  1       21 0.45808945E-01 0.30447024E+03</pdfrwt>
<pdfrwt beam="2">  1        2 0.85510721E-01 0.30447024E+03</pdfrwt>
<totfact> 0.30486852E+03</totfact>
</mgrwt>
</event>
<event>
 5    0  0.4930573E+000  0.3638919E+03  0.7546771E-02  0.1057053E+00
         21   -1    0    0  503  502  0.00000000000E+00  0.00000000000E+00  0.11598464682E+04  0.11598464682E+04  0.00000000000E+00 0.  1.
          2   -1    0    0  502    0 -0.00000000000E+00 -0.00000000000E+00 -0.76300018516E+03  0.76300018516E+03  0.00000000000E+00 0. -1.
         25    1    1    2    0    0  0.89912619792E+02  0.24932300744E+03  0.21798046020E+03  0.36522147016E+03  0.12500000000E+03 0.  0.
         21    1    1    2  503  501  0.14532385910E+03  0.18715648544E+02  0.81515068400E+03  0.82821491000E+03  0.00000000000E+00 0.  1.
          2    1    1    2  501    0 -0.23523647890E+03 -0.26803865599E+03 -0.63628486116E+03  0.72941027320E+03  0.00000000000E+00 0. -1.
<mgrwt>
<rscale>  4 0.36389188E+03</rscale>
<asrwt>0</asrwt>
<pdfrwt beam="1">  1       21 0.17843792E+00 0.36389188E+03</pdfrwt>
<pdfrwt beam="2">  1        2 0.11738464E+00 0.36389188E+03</pdfrwt>
<totfact> 0.78675297E+01</totfact>
</mgrwt>
</event>
<event>
 5    0  0.4930573E+000  0.3802936E+03  0.7546771E-02  0.1050825E+00
         21   -1    0    0  503  502  0.00000000000E+00  0.00000000000E+00  0.58802310443E+03  0.58802310443E+03  0.00000000000E+00 0. -1.
          2   -1    0    0  502    0 -0.00000000000E+00 -0.00000000000E+00 -0.62333569624E+03  0.62333569624E+03  0.00000000000E+00 0. -1.
         25    1    1    2    0    0 -0.44918473182E+03  0.10722972736E+03  0.39879208665E+02  0.48008383540E+03  0.12500000000E+03 0.  0.
         21    1    1    2  503  501  0.16554283163E+03  0.69943179379E+02  0.22078667950E+03  0.28468093594E+03  0.00000000000E+00 0. -1.
          2    1    1    2  501    0  0.28364190019E+03 -0.17717290674E+03 -0.29597847996E+03  0.44659402932E+03  0.00000000000E+00 0. -1.
<mgrwt>
<rscale>  4 0.38029363E+03</rscale>
<asrwt>0</asrwt>
<pdfrwt beam="1">  1       21 0.90465093E-01 0.38029363E+03</pdfrwt>
<pdfrwt beam="2">  1        2 0.95897799E-01 0.38029363E+03</pdfrwt>
<totfact> 0.57975094E+02</totfact>
</mgrwt>
</event>
<event>
 5    0  0.4930573E+000  0.2748196E+03  0.7546771E-02  0.1098553E+00
         21   -1    0    0  503  502  0.00000000000E+00  0.00000000000E+00  0.27830127638E+03  0.27830127638E+03  0.00000000000E+00 0. -1.
          1   -1    0    0  502    0 -0.00000000000E+00 -0.00000000000E+00 -0.51343362987E+03  0.51343362987E+03  0.00000000000E+00 0.  1.
         25    1    1    2    0    0 -0.18633725004E+03  0.17886965185E+03  0.31925984822E+02  0.28872165075E+03  0.12500000000E+03 0.  0.
         21    1    1    2  503  501  0.16660359068E+03 -0.16230050853E+03  0.21245279531E+01  0.23259992501E+03  0.00000000000E+00 0. -1.
          1    1    1    2  501    0  0.19733659358E+02 -0.16569143322E+02 -0.26918286626E+03  0.27041333049E+03  0.00000000000E+00 0.  1.
<mgrwt>
<rscale>  4 0.27481955E+03</rscale>
<asrwt>0</asrwt>
<pdfrwt beam="1">  1       21 0.42815581E-01 0.27481955E+03</pdfrwt>
<pdfrwt beam="2">  1        1 0.78989789E-01 0.27481955E+03</pdfrwt>
<totfact> 0.24557808E+03</totfact>
</mgrwt>
</event>
<event>
 5    0  0.4930573E+000  0.3743815E+03  0.7546771E-02  0.1053030E+00
          2   -1    0    0  502    0 -0.00000000000E+00  0.00000000000E+00  0.72543349685E+03  0.72543349685E+03  0.00000000000E+00 0.  1.
         21   -1    0    0  503  502  0.00000000000E+00 -0.00000000000E+00 -0.28021796598E+03  0.28021796598E+03  0.00000000000E+00 0.  1.
         25    1    1    2    0    0  0.36747640588E+03 -0.29961161339E+02 -0.35715954436E+02  0.39094399787E+03  0.12500000000E+03 0.  0.
         21    1    1    2  503  501 -0.20409964456E+02 -0.39291088908E+01  0.16145917077E+00  0.20785346156E+02  0.00000000000E+00 0.  1.
          2    1    1    2  501    0 -0.34706644142E+03  0.33890270230E+02  0.48077002613E+03  0.59392211881E+03  0.00000000000E+00 0.  1.
<mgrwt>
<rscale>  4 0.37438145E+03</rscale>
<asrwt>0</asrwt>
<pdfrwt beam="1">  1       21 0.43110457E-01 0.37438145E+03</pdfrwt>
<pdfrwt beam="2">  1        2 0.11160515E+00 0.37438145E+03</pdfrwt>
<totfact> 0.24716479E+03</totfact>
</mgrwt>
</event>
<event>
 5    0  0.4930573E+000  0.3440396E+03  0.7546771E-02  0.1065088E+00
         21   -1    0    0  503  502  0.00000000000E+00  0.00000000000E+00  0.18791396143E+03  0.18791396143E+03  0.00000000000E+00 0.  1.
          2   -1    0    0  502    0 -0.00000000000E+00 -0.00000000000E+00 -0.11010808230E+04  0.11010808230E+04  0.00000000000E+00 0. -1.
         25    1    1    2    0    0 -0.30893576684E+03 -0.16520157385E+03 -0.34481508099E+03  0.50720341887E+03  0.12500000000E+03 0.  0.
         21    1    1    2  503  501  0.18231849898E+02  0.62038158157E+02  0.55906946697E+02  0.85479354859E+02  0.00000000000E+00 0.  1.
          2    1    1    2  501    0  0.29070391694E+03  0.10316341570E+03 -0.62425872731E+03  0.69631201073E+03  0.00000000000E+00 0. -1.
<mgrwt>
<rscale>  4 0.34403959E+03</rscale>
<asrwt>0</asrwt>
<pdfrwt beam="1">  1       21 0.28909840E-01 0.34403959E+03</pdfrwt>
<pdfrwt beam="2">  1        2 0.16939705E+00 0.34403959E+03</pdfrwt>
<totfact> 0.31585846E+03</totfact>
</mgrwt>
</event>
<event>
 5    0  0.4930573E+000  0.1927320E+03  0.7546771E-02  0.1156020E+00
          2   -1    0    0  502    0 -0.00000000000E+00  0.00000000000E+00  0.87869038216E+03  0.87869038216E+03  0.00000000000E+00 0.  1.
         21   -1    0    0  503  502  0.00000000000E+00 -0.00000000000E+00 -0.13252937368E+03  0.13252937368E+03  0.00000000000E+00 0. -1.
         25    1    1    2    0    0  0.17088550162E+02 -0.21357725959E+03  0.64033288789E+02  0.25618845882E+03  0.12500000000E+03 0.  0.
         21    1    1    2  503  501  0.20535190739E+02  0.77013147844E+02  0.26075630564E+02  0.83860941498E+02  0.00000000000E+00 0. -1.
          2    1    1    2  501    0 -0.37623740901E+02  0.13656411174E+03  0.65605208912E+03  0.67117035552E+03  0.00000000000E+00 0.  1.
<mgrwt>
<rscale>  4 0.19273199E+03</rscale>
<asrwt>0</asrwt>
<pdfrwt beam="1">  1       21 0.20389135E-01 0.19273199E+03</pdfrwt>
<pdfrwt beam="2">  1        2 0.13518313E+00 0.19273199E+03</pdfrwt>
<totfact> 0.88559826E+03</totfact>
</mgrwt>
</event>
<event>
 5    0  0.4930573E+000  0.2892575E+03  0.7546771E-02  0.1090737E+00
         21   -1    0    0  503  502  0.00000000000E+00  0.00000000000E+00  0.54897435888E+03  0.54897435888E+03  0.00000000000E+00 0. -1.
          2   -1    0    0  502    0 -0.00000000000E+00 -0.00000000000E+00 -0.12799239066E+04  0.12799239066E+04  0.00000000000E+00 0.  1.
         25    1    1    2    0    0 -0.16581230388E+03  0.18840312824E+03  0.23461211427E+03  0.36559171628E+03  0.12500000000E+03 0.  0.
         21    1    1    2  503  501  0.22717054653E+02  0.30390214509E+02  0.23325206222E+03  0.23631790927E+03  0.00000000000E+00 0. -1.
          2    1    1    2  501    0  0.14309524923E+03 -0.21879334275E+03 -0.11988137242E+04  0.12269886399E+04  0.00000000000E+00 0.  1.
<mgrwt>
<rscale>  4 0.28925752E+03</rscale>
<asrwt>0</asrwt>
<pdfrwt beam="1">  1       21 0.84457595E-01 0.28925752E+03</pdfrwt>
<pdfrwt beam="2">  1        2 0.19691137E+00 0.28925752E+03</pdfrwt>
<totfact> 0.26298295E+02</totfact>
</mgrwt>
</event>
<event>
 5    0  0.4930573E+000  0.2841636E+03  0.7546771E-02  0.1093436E+00
         21   -1    0    0  503  502  0.00000000000E+00  0.00000000000E+00  0.39596331879E+02  0.39596331879E+02  0.00000000000E+00 0. -1.
          2   -1    0    0  502    0 -0.00000000000E+00 -0.00000000000E+00 -0.26940753724E+04  0.26940753724E+04  0.00000000000E+00 0. -1.
         25    1    1    2    0    0  0.22025599763E+03 -0.12698978711E+03 -0.13162864825E+04  0.13464301744E+04  0.12500000000E+03 0.  0.
         21    1    1    2  503  501 -0.26091109213E+03  0.36714596064E+02 -0.88657889223E+03  0.92490253092E+03  0.00000000000E+00 0. -1.
          2    1    1    2  501    0  0.40655094507E+02  0.90275191043E+02 -0.45161366583E+03  0.46233899900E+03  0.00000000000E+00 0. -1.
<mgrwt>
<rscale>  4 0.28416362E+03</rscale>
<asrwt>0</asrwt>
<pdfrwt beam="1">  1       21 0.60917431E-02 0.28416362E+03</pdfrwt>
<pdfrwt beam="2">  1        2 0.41447315E+00 0.28416362E+03</pdfrwt>
<totfact> 0.75717277E+03</totfact>
</mgrwt>
</event>
<event>
 5    0  0.4930573E+000  0.2355981E+03  0.7546771E-02  0.1122760E+00
          2   -1    0    0  502    0 -0.00000000000E+00  0.00000000000E+00  0.22613729581E+04  0.22613729581E+04  0.00000000000E+00 0.  1.
         21   -1    0    0  503  502  0.00000000000E+00 -0.00000000000E+00 -0.10998607275E+03  0.10998607275E+03  0.00000000000E+00 0.  1.
         25    1    1    2    0    0  0.22077015482E+03  0.90307277152E+02  0.48300526976E+03  0.55300448116E+03  0.12500000000E+03 0.  0.
         21    1    1    2  503  501 -0.47531350867E+02 -0.34528252301E+01 -0.61414952664E+02  0.77736398991E+02  0.00000000000E+00 0.  1.
          2    1    1    2  501    0 -0.17323880395E+03 -0.86854451922E+02  0.17297965682E+04  0.17406181507E+04  0.00000000000E+00 0.  1.
<mgrwt>
<rscale>  4 0.23559813E+03</rscale>
<asrwt>0</asrwt>
<pdfrwt beam="1">  1       21 0.16920936E-01 0.23559813E+03</pdfrwt>
<pdfrwt beam="2">  1        2 0.34790350E+00 0.23559813E+03</pdfrwt>
<totfact> 0.21578552E+03</totfact>
</mgrwt>
</event>
<event>
 5    0  0.4930573E+000  0.4931890E+03  0.7546771E-02  0.1015572E+00
         21   -1    0    0  503  502  0.00000000000E+00  0.00000000000E+00  0.54898878438E+03  0.54898878438E+03  0.00000000000E+00 0.  1.
          1   -1    0    0  502    0 -0.00000000000E+00 -0.00000000000E+00 -0.13950767386E+04  0.13950767386E+04  0.00000000000E+00 0.  1.
         25    1    1    2    0    0 -0.30260299457E+03  0.45784613256E+03 -0.55092525669E+03  0.78761366918E+03  0.12500000000E+03 0.  0.
         21    1    1    2  503  501  0.12749090845E+03 -0.55416168591E+02  0.34975378746E+03  0.37636763320E+03  0.00000000000E+00 0.  1.
          1    1    1    2  501    0  0.17511208612E+03 -0.40242996397E+03 -0.64491648496E+03  0.78008422057E+03  0.00000000000E+00 0.  1.
<mgrwt>
<rscale>  4 0.49318896E+03</rscale>
<asrwt>0</asrwt>
<pdfrwt beam="1">  1       21 0.84459814E-01 0.49318896E+03</pdfrwt>
<pdfrwt beam="2">  1        1 0.21462719E+00 0.49318896E+03</pdfrwt>
<totfact> 0.98621874E+01</totfact>
</mgrwt>
</event>
<event>
 5    0  0.4930573E+000  0.3277830E+03  0.7546771E-02  0.1072122E+00
          2   -1    0    0  502    0 -0.00000000000E+00  0.00000000000E+00  0.13107790709E+04  0.13107790709E+04  0.00000000000E+00 0. -1.
         21   -1    0    0  503  502  0.00000000000E+00 -0.00000000000E+00 -0.45394496703E+03  0.45394496703E+03  0.00000000000E+00 0.  1.
         25    1    1    2    0    0  0.27417967772E+03  0.16976676716E+01 -0.33564415747E+03  0.45106471620E+03  0.12500000000E+03 0.  0.
         21    1    1    2  503  501  0.29169100991E+02  0.23748544238E+02 -0.33550967632E+02  0.50403345475E+02  0.00000000000E+00 0. -1.
          2    1    1    2  501    0 -0.30334877872E+03 -0.25446211910E+02  0.12260292290E+04  0.12632559763E+04  0.00000000000E+00 0. -1.
<mgrwt>
<rscale>  4 0.32778301E+03</rscale>
<asrwt>0</asrwt>
<pdfrwt beam="1">  1       21 0.69837688E-01 0.32778301E+03</pdfrwt>
<pdfrwt beam="2">  1        2 0.20165832E+00 0.32778301E+03</pdfrwt>
<totfact> 0.38197175E+02</totfact>
</mgrwt>
</event>
<event>
 5    0  0.4930573E+000  0.2690467E+03  0.7546771E-02  0.1101826E+00
         21   -1    0    0  503  502  0.00000000000E+00  0.00000000000E+00  0.10607014901E+04  0.10607014901E+04  0.00000000000E+00 0.  1.
          1   -1    0    0  502    0 -0.00000000000E+00 -0.00000000000E+00 -0.40102939940E+03  0.40102939940E+03  0.00000000000E+00 0. -1.
         25    1    1    2    0    0  0.26338498184E+03 -0.46770937178E+01  0.95398147470E+03  0.99754657933E+03  0.12500000000E+03 0.  0.
         21    1    1    2  503  501 -0.26235923711E+02  0.12849760250E+02  0.42870357866E+02  0.51877814285E+02  0.00000000000E+00 0. -1.
          1    1    1    2  501    0 -0.23714905813E+03 -0.81726665324E+01 -0.33717974185E+03  0.41230649590E+03  0.00000000000E+00 0. -1.
<mgrwt>
<rscale>  4 0.26904671E+03</rscale>
<asrwt>0</asrwt>
<pdfrwt beam="1">  1       21 0.16318484E+00 0.26904671E+03</pdfrwt>
<pdfrwt beam="2">  1        1 0.61696831E-01 0.26904671E+03</pdfrwt>
<totfact> 0.15010002E+02</totfact>
</mgrwt>
</event>
<event>
 5    0  0.4930573E+000  0.2571456E+03  0.7546771E-02  0.1108870E+00
         21   -1    0    0  503  502  0.00000000000E+00  0.00000000000E+00  0.52974714281E+03  0.52974714281E+03  0.00000000000E+00 0.  1.
          2   -1    0    0  502    0 -0.00000000000E+00 -0.00000000000E+00 -0.56155592047E+03  0.56155592047E+03  0.00000000000E+00 0. -1.
         25    1    1    2    0    0 -0.12540419786E+03 -0.15756423725E+03  0.17956571733E+03  0.29735761053E+03  0.12500000000E+03 0.  0.
         21    1    1    2  503  501 -0.83465153511E+01 -0.26163513068E+02  0.26485323032E+03  0.26627321936E+03  0.00000000000E+00 0. -1.
          2    1    1    2  501    0  0.13375071321E+03  0.18372775032E+03 -0.47622772532E+03  0.52767223339E+03  0.00000000000E+00 0. -1.
<mgrwt>
<rscale>  4 0.25714557E+03</rscale>
<asrwt>0</asrwt>
<pdfrwt beam="1">  1       21 0.81499561E-01 0.25714557E+03</pdfrwt>
<pdfrwt beam="2">  1        2 0.86393218E-01 0.25714557E+03</pdfrwt>
<totfact> 0.87354240E+02</totfact>
</mgrwt>
</event>
<event>
 5    0  0.4930573E+000  0.2322334E+03  0.7546771E-02  0.1125078E+00
          2   -1    0    0  502    0 -0.00000000000E+00  0.00000000000E+00  0.16013525181E+04  0.16013525181E+04  0.00000000000E+00 0. -1.
         21   -1    0    0  503  502  0.00000000000E+00 -0.00000000000E+00 -0.40757383253E+03  0.40757383253E+03  0.00000000000E+00 0.  1.
         25    1    1    2    0    0 -0.31284370729E+03 -0.50820551021E+02 -0.26618538827E+03  0.43235815538E+03  0.12500000000E+03 0.  0.
         21    1    1    2  503  501  0.12615687435E+03 -0.75800449402E-01  0.24992074299E+02  0.12860857852E+03  0.00000000000E+00 0. -1.
          2    1    1    2  501    0  0.18668683294E+03  0.50896351470E+02  0.14349719995E+04  0.14479596167E+04  0.00000000000E+00 0. -1.
<mgrwt>
<rscale>  4 0.23223342E+03</rscale>
<asrwt>0</asrwt>
<pdfrwt beam="1">  1       21 0.62703667E-01 0.23223342E+03</pdfrwt>
<pdfrwt beam="2">  1        2 0.24636192E+00 0.23223342E+03</pdfrwt>
<totfact> 0.35519801E+02</totfact>
</mgrwt>
</event>
<event>
 5    0  0.4930573E+000  0.3590732E+03  0.7546771E-02  0.1058951E+00
         21   -1    0    0  503  502  0.00000000000E+00  0.00000000000E+00  0.14662591321E+04  0.14662591321E+04  0.00000000000E+00 0. -1.
          1   -1    0    0  502    0 -0.00000000000E+00 -0.00000000000E+00 -0.25062256058E+03  0.25062256058E+03  0.00000000000E+00 0. -1.
         25    1    1    2    0    0  0.93670558696E+02 -0.30757317541E+03  0.12571153718E+04  0.13035871623E+04  0.12500000000E+03 0.  0.
         21    1    1    2  503  501 -0.98905699683E+01 -0.20022347575E+02  0.56907881687E+02  0.61132845303E+02  0.00000000000E+00 0. -1.
          1    1    1    2  501    0 -0.83779988728E+02  0.32759552299E+03 -0.98386681994E+02  0.35216168501E+03  0.00000000000E+00 0. -1.
<mgrwt>
<rscale>  4 0.35907316E+03</rscale>
<asrwt>0</asrwt>
<pdfrwt beam="1">  1       21 0.22557832E+00 0.35907316E+03</pdfrwt>
<pdfrwt beam="2">  1        1 0.38557318E-01 0.35907316E+03</pdfrwt>
<totfact> 0.99265941E+01</totfact>
</mgrwt>
</event>
<event>
 5    0  0.4930573E+000  0.1787876E+03  0.7546771E-02  0.1168982E+00
          1   -1    0    0  502    0 -0.00000000000E+00  0.00000000000E+00  0.70136226582E+03  0.70136226582E+03  0.00000000000E+00 0.  1.
         21   -1    0    0  503  502  0.00000000000E+00 -0.00000000000E+00 -0.32271631683E+03  0.32271631683E+03  0.00000000000E+00 0.  1.
         25    1    1    2    0    0  0.17200305100E+03 -0.10349125285E+03 -0.52621226884E+02  0.24225912261E+03  0.12500000000E+03 0.  0.
         21    1    1    2  503  501 -0.10505728455E+03 -0.25887350480E+01 -0.15223620739E+03  0.18498539788E+03  0.00000000000E+00 0.  1.
          1    1    1    2  501    0 -0.66945766448E+02  0.10607998790E+03  0.58350338327E+03  0.59683406217E+03  0.00000000000E+00 0.  1.
<mgrwt>
<rscale>  4 0.17878757E+03</rscale>
<asrwt>0</asrwt>
<pdfrwt beam="1">  1       21 0.49648664E-01 0.17878757E+03</pdfrwt>
<pdfrwt beam="2">  1        1 0.10790189E+00 0.17878757E+03</pdfrwt>
<totfact> 0.12198545E+03</totfact>
</mgrwt>
</event>
<event>
 5    0  0.4930573E+000  0.4947662E+03  0.7546771E-02  0.1015154E+00
         21   -1    0    0  503  502  0.00000000000E+00  0.00000000000E+00  0.87826151334E+03  0.87826151334E+03  0.00000000000E+00 0. -1.
          1   -1    0    0  502    0 -0.00000000000E+00 -0.00000000000E+00 -0.11303194091E+04  0.11303194091E+04  0.00000000000E+00 0.  1.
         25    1    1    2    0    0  0.21669520264E+03 -0.37553601608E+03 -0.23257965129E+03  0.50764397407E+03  0.12500000000E+03 0.  0.
         21    1    1    2  503  501 -0.26217442228E+03  0.41234502108E+03  0.65874855686E+03  0.82019113948E+03  0.00000000000E+00 0. -1.
          1    1    1    2  501    0  0.45479219647E+02 -0.36809005004E+02 -0.67822680129E+03  0.68074580884E+03  0.00000000000E+00 0.  1.
<mgrwt>
<rscale>  4 0.49476620E+03</rscale>
<asrwt>0</asrwt>
<pdfrwt beam="1">  1       21 0.13511716E+00 0.49476620E+03</pdfrwt>
<pdfrwt beam="2">  1        1 0.17389529E+00 0.49476620E+03</pdfrwt>
<totfact> 0.47322349E+01</totfact>
</mgrwt>
</event>
<event>
 5    0  0.4930573E+000  0.2204536E+03  0.7546771E-02  0.1133545E+00
         21   -1    0    0  503  502  0.00000000000E+00  0.00000000000E+00  0.14035976806E+03  0.14035976806E+03  0.00000000000E+00 0.  1.
          2   -1    0    0  502    0 -0.00000000000E+00 -0.00000000000E+00 -0.16384549114E+04  0.16384549114E+04  0.00000000000E+00 0.  1.
         25    1    1    2    0    0 -0.76163896505E+02  0.19327957586E+03 -0.36037610842E+03  0.43434303620E+03  0.12500000000E+03 0.  0.
         21    1    1    2  503  501  0.14453601355E+02 -0.27260259495E+02  0.94592109474E+02  0.99497213602E+02  0.00000000000E+00 0.  1.
          2    1    1    2  501    0  0.61710295149E+02 -0.16601931636E+03 -0.12323111444E+04  0.12449744297E+04  0.00000000000E+00 0.  1.
<mgrwt>
<rscale>  4 0.22045359E+03</rscale>
<asrwt>0</asrwt>
<pdfrwt beam="1">  1       21 0.21593811E-01 0.22045359E+03</pdfrwt>
<pdfrwt beam="2">  1        2 0.25206998E+00 0.22045359E+03</pdfrwt>
<totfact> 0.29257835E+03</totfact>
</mgrwt>
</event>
<event>
 5    0  0.4930573E+000  0.3927306E+03  0.7546771E-02  0.1046326E+00
          1   -1    0    0  502    0 -0.00000000000E+00  0.00000000000E+00  0.19041221535E+04  0.19041221535E+04  0.00000000000E+00 0.  1.
         21   -1    0    0  503  502  0.00000000000E+00 -0.00000000000E+00 -0.12178603074E+03  0.12178603074E+03  0.00000000000E+00 0.  1.
         25    1    1    2    0    0 -0.22743260874E+03  0.23765119906E+03  0.56409770945E+03  0.66485705963E+03  0.12500000000E+03 0.  0.
         21    1    1    2  503  501 -0.38192532252E+02  0.61095555309E+02 -0.68633942856E+01  0.72377086011E+02  0.00000000000E+00 0.  1.
          1    1    1    2  501    0  0.26562514099E+03 -0.29874675437E+03  0.12251018076E+04  0.12886740386E+04  0.00000000000E+00 0.  1.
<mgrwt>
<rscale>  4 0.39273057E+03</rscale>
<asrwt>0</asrwt>
<pdfrwt beam="1">  1       21 0.18736314E-01 0.39273057E+03</pdfrwt>
<pdfrwt beam="2">  1        1 0.29294185E+00 0.39273057E+03</pdfrwt>
<totfact> 0.10617808E+03</totfact>
</mgrwt>
</event>
<event>
 5    0  0.4930573E+000  0.2479116E+03  0.7546771E-02  0.1114632E+00
         21   -1    0    0  503  502  0.00000000000E+00  0.00000000000E+00  0.21020503295E+03  0.21020503295E+03  0.00000000000E+00 0. -1.
          3   -1    0    0  502    0 -0.00000000000E+00 -0.00000000000E+00 -0.31363361965E+03  0.31363361965E+03  0.00000000000E+00 0.  1.
         25    1    1    2    0    0 -0.20820828502E+03 -0.80771864150E+02 -0.36754081875E+02  0.25855491974E+03  0.12500000000E+03 0.  0.
         21    1    1    2  503  501  0.19538177887E+02 -0.84911243010E+01  0.28751062337E+02  0.35783560088E+02  0.00000000000E+00 0. -1.
          3    1    1    2  501    0  0.18867010713E+03  0.89262988451E+02 -0.95425567164E+02  0.22950017277E+03  0.00000000000E+00 0.  1.
<mgrwt>
<rscale>  4 0.24791163E+03</rscale>
<asrwt>0</asrwt>
<pdfrwt beam="1">  1       21 0.32339236E-01 0.24791163E+03</pdfrwt>
<pdfrwt beam="2">  1        3 0.48251326E-01 0.24791163E+03</pdfrwt>
<totfact> 0.19452929E+03</totfact>
</mgrwt>
</event>
<event>
 5    0  0.4930573E+000  0.7109991E+03  0.7546771E-02  0.9698605E-01
         21   -1    0    0  501  502  0.00000000000E+00  0.00000000000E+00  0.12309783024E+04  0.12309783024E+04  0.00000000000E+00 0. -1.
         -2   -1    0    0    0  501 -0.00000000000E+00 -0.00000000000E+00 -0.47535205837E+03  0.47535205837E+03  0.00000000000E+00 0. -1.
         25    1    1    2    0    0 -0.11021729021E+03 -0.70619372795E+03  0.58027341443E+03  0.92908539325E+03  0.12500000000E+03 0.  0.
         21    1    1    2  503  502  0.11476128879E+02  0.21194895556E+02  0.73947600481E+02  0.77776427975E+02  0.00000000000E+00 0.  1.
         -2    1    1    2    0  503  0.98741161332E+02  0.68499883240E+03  0.10140522913E+03  0.69946853955E+03  0.00000000000E+00 0. -1.
<mgrwt>
<rscale>  4 0.71099912E+03</rscale>
<asrwt>0</asrwt>
<pdfrwt beam="1">  1       21 0.18938128E+00 0.71099912E+03</pdfrwt>
<pdfrwt beam="2">  1       -2 0.73131086E-01 0.71099912E+03</pdfrwt>
<totfact> 0.17667398E+01</totfact>
</mgrwt>
</event>
<event>
 5    0  0.4930573E+000  0.2787168E+03  0.7546771E-02  0.1096392E+00
         -1   -1    0    0    0  501 -0.00000000000E+00  0.00000000000E+00  0.17983692489E+03  0.17983692489E+03  0.00000000000E+00 0.  1.
         21   -1    0    0  501  502  0.00000000000E+00 -0.00000000000E+00 -0.47271490349E+03  0.47271490349E+03  0.00000000000E+00 0.  1.
         25    1    1    2    0    0 -0.10633678529E+03  0.22527881029E+03 -0.38701443013E+02  0.28139093085E+03  0.12500000000E+03 0.  0.
         21    1    1    2  503  502  0.38783813790E+02 -0.10265239234E+03 -0.18476861264E+03  0.21489797133E+03  0.00000000000E+00 0.  1.
         -1    1    1    2    0  503  0.67552971500E+02 -0.12262641795E+03 -0.69407922941E+02  0.15626292620E+03  0.00000000000E+00 0.  1.
<mgrwt>
<rscale>  4 0.27871680E+03</rscale>
<asrwt>0</asrwt>
<pdfrwt beam="1">  1       21 0.72725368E-01 0.27871680E+03</pdfrwt>
<pdfrwt beam="2">  1       -1 0.27667220E-01 0.27871680E+03</pdfrwt>
<totfact> 0.17761478E+03</totfact>
</mgrwt>
</event>
<event>
 5    0  0.4930573E+000  0.2007078E+03  0.7546771E-02  0.1149143E+00
          1   -1    0    0  502    0 -0.00000000000E+00  0.00000000000E+00  0.23162884522E+03  0.23162884522E+03  0.00000000000E+00 0. -1.
         21   -1    0    0  503  502  0.00000000000E+00 -0.00000000000E+00 -0.80299028628E+03  0.80299028628E+03  0.00000000000E+00 0.  1.
         25    1    1    2    0    0  0.19762343358E+02 -0.22109875184E+03 -0.62922664556E+03  0.67884194020E+03  0.12500000000E+03 0.  0.
         21    1    1    2  503  501 -0.39072751810E+02  0.68104374203E+02 -0.10524789045E+03  0.13130881221E+03  0.00000000000E+00 0.  1.
          1    1    1    2  501    0  0.19310408451E+02  0.15299437764E+03  0.16311309496E+03  0.22446837909E+03  0.00000000000E+00 0. -1.
<mgrwt>
<rscale>  4 0.20070777E+03</rscale>
<asrwt>0</asrwt>
<pdfrwt beam="1">  1       21 0.12353697E+00 0.20070777E+03</pdfrwt>
<pdfrwt beam="2">  1        1 0.35635207E-01 0.20070777E+03</pdfrwt>
<totfact> 0.64710758E+02</totfact>
</mgrwt>
</event>
<event>
 5    0  0.4930573E+000  0.3082033E+03  0.7546771E-02  0.1081210E+00
          1   -1    0    0  502    0 -0.00000000000E+00  0.00000000000E+00  0.12428796103E+04  0.12428796103E+04  0.00000000000E+00 0. -1.
         21   -1    0    0  503  502  0.00000000000E+00 -0.00000000000E+00 -0.18579953281E+03  0.18579953281E+03  0.00000000000E+00 0. -1.
         25    1    1    2    0    0 -0.15282857501E+03 -0.14263045024E+03  0.32470117390E+03  0.40590130698E+03  0.12500000000E+03 0.  0.
         21    1    1    2  503  501  0.16025151891E+03  0.28024368339E+03  0.50065490732E+02  0.32668581965E+03  0.00000000000E+00 0. -1.
          1    1    1    2  501    0 -0.74229439045E+01 -0.13761323315E+03  0.68231341289E+03  0.69609201651E+03  0.00000000000E+00 0. -1.
<mgrwt>
<rscale>  4 0.30820328E+03</rscale>
<asrwt>0</asrwt>
<pdfrwt beam="1">  1       21 0.28584544E-01 0.30820328E+03</pdfrwt>
<pdfrwt beam="2">  1        1 0.19121224E+00 0.30820328E+03</pdfrwt>
<totfact> 0.13424633E+03</totfact>
</mgrwt>
</event>
<event>
 5    0  0.4930573E+000  0.3169241E+03  0.7546771E-02  0.1077074E+00
         -4   -1    0    0    0  501 -0.00000000000E+00  0.00000000000E+00  0.30878015207E+03  0.30878015207E+03  0.00000000000E+00 0. -1.
         21   -1    0    0  501  502  0.00000000000E+00 -0.00000000000E+00 -0.15712865832E+04  0.15712865832E+04  0.00000000000E+00 0.  1.
         25    1    1    2    0    0 -0.40493174882E+02  0.27764788662E+03 -0.13801705767E+04  0.14139391313E+04  0.12500000000E+03 0.  0.
         21    1    1    2  503  502 -0.31605319865E+02  0.51767130059E+01 -0.98080046946E+02  0.10317650028E+03  0.00000000000E+00 0.  1.
         -4    1    1    2    0  503  0.72098494747E+02 -0.28282459962E+03  0.21574419251E+03  0.36295110373E+03  0.00000000000E+00 0. -1.
<mgrwt>
<rscale>  4 0.31692409E+03</rscale>
<asrwt>0</asrwt>
<pdfrwt beam="1">  1       21 0.24173639E+00 0.31692409E+03</pdfrwt>
<pdfrwt beam="2">  1       -4 0.47504640E-01 0.31692409E+03</pdfrwt>
<totfact> 0.12497477E+01</totfact>
</mgrwt>
</event>
<event>
 5    0  0.4930573E+000  0.3824893E+03  0.7546771E-02  0.1050018E+00
          2   -1    0    0  502    0 -0.00000000000E+00  0.00000000000E+00  0.13293829347E+04  0.13293829347E+04  0.00000000000E+00 0.  1.
         21   -1    0    0  503  502  0.00000000000E+00 -0.00000000000E+00 -0.31164790852E+03  0.31164790852E+03  0.00000000000E+00 0.  1.
         25    1    1    2    0    0  0.78572501019E+01 -0.36748554313E+03  0.10069787734E+04  0.10792305643E+04  0.12500000000E+03 0.  0.
         21    1    1    2  503  501  0.41640049900E+02  0.35873355194E+03 -0.15172664092E+03  0.39172008961E+03  0.00000000000E+00 0.  1.
          2    1    1    2  501    0 -0.49497300002E+02  0.87519911951E+01  0.16248289371E+03  0.17008018934E+03  0.00000000000E+00 0.  1.
<mgrwt>
<rscale>  4 0.38248934E+03</rscale>
<asrwt>0</asrwt>
<pdfrwt beam="1">  1       21 0.47945833E-01 0.38248934E+03</pdfrwt>
<pdfrwt beam="2">  1        2 0.20452045E+00 0.38248934E+03</pdfrwt>
<totfact> 0.82534714E+02</totfact>
</mgrwt>
</event>
<event>
 5    0  0.4930573E+000  0.4662550E+03  0.7546771E-02  0.1022983E+00
         21   -1    0    0  503  502  0.00000000000E+00  0.00000000000E+00  0.95044763895E+03  0.95044763895E+03  0.00000000000E+00 0.  1.
          1   -1    0    0  502    0 -0.00000000000E+00 -0.00000000000E+00 -0.28666098821E+03  0.28666098821E+03  0.00000000000E+00 0.  1.
         25    1    1    2    0    0 -0.57652001879E+02  0.47005164934E+03  0.49602954827E+03  0.69709584644E+03  0.12500000000E+03 0.  0.
         21    1    1    2  503  501  0.37843153387E+01 -0.34937546732E+02  0.87498129242E+02  0.94291440943E+02  0.00000000000E+00 0. -1.
          1    1    1    2  501    0  0.53867686541E+02 -0.43511410261E+03  0.80258973237E+02  0.44572133977E+03  0.00000000000E+00 0.  1.
<mgrwt>
<rscale>  4 0.46625498E+03</rscale>
<asrwt>0</asrwt>
<pdfrwt beam="1">  1       21 0.14622271E+00 0.46625498E+03</pdfrwt>
<pdfrwt beam="2">  1        1 0.44101691E-01 0.46625498E+03</pdfrwt>
<totfact> 0.28718175E+02</totfact>
</mgrwt>
</event>
<event>
 5    0  0.4930573E+000  0.3567045E+03  0.7546771E-02  0.1059896E+00
         21   -1    0    0  503  502  0.00000000000E+00  0.00000000000E+00  0.24384294159E+03  0.24384294159E+03  0.00000000000E+00 0. -1.
          2   -1    0    0  502    0 -0.00000000000E+00 -0.00000000000E+00 -0.31192446653E+04  0.31192446653E+04  0.00000000000E+00 0. -1.
         25    1    1    2    0    0 -0.35108463532E+03  0.82012732140E+02 -0.13523374634E+03  0.40484524888E+03  0.12500000000E+03 0.  0.
         21    1    1    2  503  501  0.32046721595E+02  0.10632575737E+02  0.96474344189E+02  0.10221224544E+03  0.00000000000E+00 0. -1.
          2    1    1    2  501    0  0.31903791373E+03 -0.92645307877E+02 -0.28366423216E+04  0.28560301126E+04  0.00000000000E+00 0. -1.
<mgrwt>
<rscale>  4 0.35670449E+03</rscale>
<asrwt>0</asrwt>
<pdfrwt beam="1">  1       21 0.37514300E-01 0.35670449E+03</pdfrwt>
<pdfrwt beam="2">  1        2 0.47988378E+00 0.35670449E+03</pdfrwt>
<totfact> 0.14148193E+02</totfact>
</mgrwt>
</event>
<event>
 5    0  0.4930573E+000  0.4145206E+03  0.7546771E-02  0.1038865E+00
          3   -1    0    0  502    0 -0.00000000000E+00  0.00000000000E+00  0.39634342461E+04  0.39634342461E+04  0.00000000000E+00 0.  1.
         21   -1    0    0  503  502  0.00000000000E+00 -0.00000000000E+00 -0.24206892767E+03  0.24206892767E+03  0.00000000000E+00 0. -1.
         25    1    1    2    0    0  0.11820796063E+03 -0.39290349059E+03  0.12556841442E+04  0.13269189669E+04  0.12500000000E+03 0.  0.
         21    1    1    2  503  501 -0.71045882229E+01  0.19873295072E+02 -0.19169564540E+03  0.19285394343E+03  0.00000000000E+00 0. -1.
          3    1    1    2  501    0 -0.11110337241E+03  0.37303019552E+03  0.26573768197E+04  0.26857302634E+04  0.00000000000E+00 0.  1.
<mgrwt>
<rscale>  4 0.41452058E+03</rscale>
<asrwt>0</asrwt>
<pdfrwt beam="1">  1       21 0.37241376E-01 0.41452058E+03</pdfrwt>
<pdfrwt beam="2">  1        3 0.60975907E+00 0.41452058E+03</pdfrwt>
<totfact> 0.40099002E-01</totfact>
</mgrwt>
</event>
<event>
 5    0  0.4930573E+000  0.3447455E+03  0.7546771E-02  0.1064793E+00
          2   -1    0    0  502    0 -0.00000000000E+00  0.00000000000E+00  0.24243866266E+04  0.24243866266E+04  0.00000000000E+00 0.  1.
         21   -1    0    0  503  502  0.00000000000E+00 -0.00000000000E+00 -0.57114879115E+02  0.57114879115E+02  0.00000000000E+00 0.  1.
         25    1    1    2    0    0 -0.21680638231E+03  0.25704993374E+03  0.93748387880E+03  0.10037831932E+04  0.12500000000E+03 0.  0.
         21    1    1    2  503  501  0.19093867159E+03 -0.23901351004E+03  0.97563345760E+03  0.10224703799E+04  0.00000000000E+00 0.  1.
          2    1    1    2  501    0  0.25867710713E+02 -0.18036423699E+02  0.45415441111E+03  0.45524793263E+03  0.00000000000E+00 0.  1.
<mgrwt>
<rscale>  4 0.34474545E+03</rscale>
<asrwt>0</asrwt>
<pdfrwt beam="1">  1       21 0.87869063E-02 0.34474545E+03</pdfrwt>
<pdfrwt beam="2">  1        2 0.37298248E+00 0.34474545E+03</pdfrwt>
<totfact> 0.55165942E+03</totfact>
</mgrwt>
</event>
<event>
 5    0  0.4930573E+000  0.5996606E+03  0.7546771E-02  0.9906111E-01
          1   -1    0    0  502    0 -0.00000000000E+00  0.00000000000E+00  0.21767412496E+04  0.21767412496E+04  0.00000000000E+00 0.  1.
         21   -1    0    0  503  502  0.00000000000E+00 -0.00000000000E+00 -0.29254800467E+03  0.29254800467E+03  0.00000000000E+00 0. -1.
         25    1    1    2    0    0 -0.30235350976E+03  0.52858476059E+03  0.25988166021E+03  0.67378258460E+03  0.12500000000E+03 0.  0.
         21    1    1    2  503  501  0.68013535490E+02  0.37848061167E+01 -0.21624702364E+01  0.68153078028E+02  0.00000000000E+00 0. -1.
          1    1    1    2  501    0  0.23433997427E+03 -0.53236956671E+03  0.16264740550E+04  0.17273535917E+04  0.00000000000E+00 0.  1.
<mgrwt>
<rscale>  4 0.59966057E+03</rscale>
<asrwt>0</asrwt>
<pdfrwt beam="1">  1       21 0.45007387E-01 0.59966057E+03</pdfrwt>
<pdfrwt beam="2">  1        1 0.33488326E+00 0.59966057E+03</pdfrwt>
<totfact> 0.11557453E+02</totfact>
</mgrwt>
</event>
<event>
 5    0  0.4930573E+000  0.2507284E+03  0.7546771E-02  0.1112845E+00
          2   -1    0    0  502    0 -0.00000000000E+00  0.00000000000E+00  0.16931914305E+04  0.16931914305E+04  0.00000000000E+00 0.  1.
         21   -1    0    0  503  502  0.00000000000E+00 -0.00000000000E+00 -0.76963048420E+02  0.76963048420E+02  0.00000000000E+00 0.  1.
         25    1    1    2    0    0  0.27655910448E+03  0.59838207227E+02  0.53494438285E+03  0.61794501540E+03  0.12500000000E+03 0.  0.
         21    1    1    2  503  501 -0.75452936739E+02 -0.38792481774E+02  0.44329465887E+02  0.95724102767E+02  0.00000000000E+00 0.  1.
          2    1    1    2  501    0 -0.20110616774E+03 -0.21045725454E+02  0.10369545333E+04  0.10564853607E+04  0.00000000000E+00 0.  1.
<mgrwt>
<rscale>  4 0.25072838E+03</rscale>
<asrwt>0</asrwt>
<pdfrwt beam="1">  1       21 0.11840470E-01 0.25072838E+03</pdfrwt>
<pdfrwt beam="2">  1        2 0.26049096E+00 0.25072838E+03</pdfrwt>
<totfact> 0.81738481E+03</totfact>
</mgrwt>
</event>
<event>
 5    0  0.4930573E+000  0.2509514E+03  0.7546771E-02  0.1112705E+00
         -1   -1    0    0    0  501 -0.00000000000E+00  0.00000000000E+00  0.94218625938E+03  0.94218625938E+03  0.00000000000E+00 0.  1.
         21   -1    0    0  501  502  0.00000000000E+00 -0.00000000000E+00 -0.18125278059E+04  0.18125278059E+04  0.00000000000E+00 0. -1.
         25    1    1    2    0    0  0.18647011465E+03  0.87725995251E+02 -0.15939852717E+04  0.16121045252E+04  0.12500000000E+03 0.  0.
         21    1    1    2  503  502 -0.50113336967E+02  0.82190248432E+02 -0.18482036795E+03  0.20838702428E+03  0.00000000000E+00 0. -1.
         -1    1    1    2    0  503 -0.13635677768E+03 -0.16991624368E+03  0.90846409306E+03  0.93422251582E+03  0.00000000000E+00 0.  1.
<mgrwt>
<rscale>  4 0.25095139E+03</rscale>
<asrwt>0</asrwt>
<pdfrwt beam="1">  1       21 0.27885043E+00 0.25095139E+03</pdfrwt>
<pdfrwt beam="2">  1       -1 0.14495173E+00 0.25095139E+03</pdfrwt>
<totfact> 0.16353377E+00</totfact>
</mgrwt>
</event>
<event>
 5    0  0.4930573E+000  0.3377289E+03  0.7546771E-02  0.1067767E+00
         21   -1    0    0  503  502  0.00000000000E+00  0.00000000000E+00  0.23119218039E+03  0.23119218039E+03  0.00000000000E+00 0.  1.
          1   -1    0    0  502    0 -0.00000000000E+00 -0.00000000000E+00 -0.13282523945E+04  0.13282523945E+04  0.00000000000E+00 0. -1.
         25    1    1    2    0    0 -0.19813450040E+03  0.29312806144E+03 -0.49259322379E+02  0.37846112283E+03  0.12500000000E+03 0.  0.
         21    1    1    2  503  501  0.60259543590E+02 -0.16832421454E+02  0.22915315428E+02  0.66630733801E+02  0.00000000000E+00 0.  1.
          1    1    1    2  501    0  0.13787495681E+03 -0.27629563999E+03 -0.10707162072E+04  0.11143527182E+04  0.00000000000E+00 0. -1.
<mgrwt>
<rscale>  4 0.33772891E+03</rscale>
<asrwt>0</asrwt>
<pdfrwt beam="1">  1       21 0.35568028E-01 0.33772891E+03</pdfrwt>
<pdfrwt beam="2">  1        1 0.20434652E+00 0.33772891E+03</pdfrwt>
<totfact> 0.75092759E+02</totfact>
</mgrwt>
</event>
<event>
 5    0  0.4930573E+000  0.2483610E+03  0.7546771E-02  0.1114345E+00
          4   -1    0    0  502    0 -0.00000000000E+00  0.00000000000E+00  0.14858145048E+04  0.14858145048E+04  0.00000000000E+00 0. -1.
         21   -1    0    0  503  502  0.00000000000E+00 -0.00000000000E+00 -0.13887986363E+03  0.13887986363E+03  0.00000000000E+00 0.  1.
         25    1    1    2    0    0 -0.59159180590E+02  0.22233649237E+03  0.93498866362E+02  0.27802942740E+03  0.12500000000E+03 0.  0.
         21    1    1    2  503  501  0.16313403866E+02 -0.13509637008E+02 -0.34892832264E+02  0.40818466178E+02  0.00000000000E+00 0.  1.
          4    1    1    2  501    0  0.42845776723E+02 -0.20882685536E+03  0.12883286071E+04  0.13058464749E+04  0.00000000000E+00 0. -1.
<mgrwt>
<rscale>  4 0.24836101E+03</rscale>
<asrwt>0</asrwt>
<pdfrwt beam="1">  1       21 0.21366134E-01 0.24836101E+03</pdfrwt>
<pdfrwt beam="2">  1        4 0.22858684E+00 0.24836101E+03</pdfrwt>
<totfact> 0.81873464E+01</totfact>
</mgrwt>
</event>
<event>
 5    0  0.4930573E+000  0.2390336E+03  0.7546771E-02  0.1120438E+00
         -1   -1    0    0    0  501 -0.00000000000E+00  0.00000000000E+00  0.21374925385E+04  0.21374925385E+04  0.00000000000E+00 0. -1.
         21   -1    0    0  501  502  0.00000000000E+00 -0.00000000000E+00 -0.24275576222E+03  0.24275576222E+03  0.00000000000E+00 0. -1.
         25    1    1    2    0    0  0.24088508141E+03  0.69331011448E+02  0.39643251940E+03  0.48540308408E+03  0.12500000000E+03 0.  0.
         21    1    1    2  503  502 -0.48136257921E+02 -0.25360906535E+02 -0.18865337558E+03  0.19634248400E+03  0.00000000000E+00 0. -1.
         -1    1    1    2    0  503 -0.19274882349E+03 -0.43970104913E+02  0.16869576325E+04  0.16985027326E+04  0.00000000000E+00 0. -1.
<mgrwt>
<rscale>  4 0.23903360E+03</rscale>
<asrwt>0</asrwt>
<pdfrwt beam="1">  1       21 0.37347042E-01 0.23903360E+03</pdfrwt>
<pdfrwt beam="2">  1       -1 0.32884499E+00 0.23903360E+03</pdfrwt>
<totfact> 0.16384638E+01</totfact>
</mgrwt>
</event>
<event>
 5    0  0.4930573E+000  0.2421133E+03  0.7546771E-02  0.1118393E+00
          1   -1    0    0  502    0 -0.00000000000E+00  0.00000000000E+00  0.13302864006E+04  0.13302864006E+04  0.00000000000E+00 0.  1.
         21   -1    0    0  503  502  0.00000000000E+00 -0.00000000000E+00 -0.42687481797E+02  0.42687481797E+02  0.00000000000E+00 0. -1.
         25    1    1    2    0    0  0.14101004030E+03  0.15201973597E+03  0.47282454203E+03  0.53120794340E+03  0.12500000000E+03 0.  0.
         21    1    1    2  503  501 -0.14808845400E+02 -0.21739027862E+02  0.60168994331E+02  0.65667306274E+02  0.00000000000E+00 0. -1.
          1    1    1    2  501    0 -0.12620119490E+03 -0.13028070811E+03  0.75460538247E+03  0.77609863275E+03  0.00000000000E+00 0.  1.
<mgrwt>
<rscale>  4 0.24211326E+03</rscale>
<asrwt>0</asrwt>
<pdfrwt beam="1">  1       21 0.65673059E-02 0.24211326E+03</pdfrwt>
<pdfrwt beam="2">  1        1 0.20465941E+00 0.24211326E+03</pdfrwt>
<totfact> 0.17574799E+04</totfact>
</mgrwt>
</event>
<event>
 5    0  0.4930573E+000  0.2650364E+03  0.7546771E-02  0.1104154E+00
         21   -1    0    0  503  502  0.00000000000E+00  0.00000000000E+00  0.36348593800E+03  0.36348593800E+03  0.00000000000E+00 0. -1.
          2   -1    0    0  502    0 -0.00000000000E+00 -0.00000000000E+00 -0.93567887300E+03  0.93567887300E+03  0.00000000000E+00 0. -1.
         25    1    1    2    0    0 -0.23315773498E+03 -0.21858116308E+03  0.11758550302E+03  0.36275557164E+03  0.12500000000E+03 0.  0.
         21    1    1    2  503  501  0.73107420946E+02  0.17308779037E+03  0.36421344896E+02  0.19139120287E+03  0.00000000000E+00 0. -1.
          2    1    1    2  501    0  0.16005031403E+03  0.45493372710E+02 -0.72619978291E+03  0.74501803648E+03  0.00000000000E+00 0. -1.
<mgrwt>
<rscale>  4 0.26503637E+03</rscale>
<asrwt>0</asrwt>
<pdfrwt beam="1">  1       21 0.55920912E-01 0.26503637E+03</pdfrwt>
<pdfrwt beam="2">  1        2 0.14395060E+00 0.26503637E+03</pdfrwt>
<totfact> 0.10620493E+03</totfact>
</mgrwt>
</event>
<event>
 5    0  0.4930573E+000  0.3488557E+03  0.7546771E-02  0.1063086E+00
         21   -1    0    0  503  502  0.00000000000E+00  0.00000000000E+00  0.71634106456E+03  0.71634106456E+03  0.00000000000E+00 0. -1.
          2   -1    0    0  502    0 -0.00000000000E+00 -0.00000000000E+00 -0.19235443678E+04  0.19235443678E+04  0.00000000000E+00 0.  1.
         25    1    1    2    0    0 -0.58075257414E+02  0.29205008794E+03  0.33579864484E+03  0.46588809736E+03  0.12500000000E+03 0.  0.
         21    1    1    2  503  501 -0.94241636557E+01  0.27593982436E+02  0.30042956474E+03  0.30184129289E+03  0.00000000000E+00 0. -1.
          2    1    1    2  501    0  0.67499421070E+02 -0.31964407037E+03 -0.18434315128E+04  0.18721560421E+04  0.00000000000E+00 0.  1.
<mgrwt>
<rscale>  4 0.34885572E+03</rscale>
<asrwt>0</asrwt>
<pdfrwt beam="1">  1       21 0.11020632E+00 0.34885572E+03</pdfrwt>
<pdfrwt beam="2">  1        2 0.29592990E+00 0.34885572E+03</pdfrwt>
<totfact> 0.60741800E+01</totfact>
</mgrwt>
</event>
