<event>
 5    0  0.3696258E+000  0.2374045E+03  0.7546771E-02  0.1121534E+00
         21   -1    0    0  501  502  0.00000000000E+00  0.00000000000E+00  0.97251390471E+03  0.97251390471E+03  0.00000000000E+00 0. -1.
          2   -1    0    0  503    0 -0.00000000000E+00 -0.00000000000E+00 -0.32442022915E+03  0.32442022915E+03  0.00000000000E+00 0. -1.
         25    1    1    2    0    0 -0.23705086273E+03  0.82379252012E+01  0.79795252020E+03  0.84179225431E+03  0.12500000000E+03 0.  0.
         21    1    1    2  503  502  0.11706940463E+03 -0.10069557924E+03  0.84551207249E+02  0.17605042410E+03  0.00000000000E+00 0. -1.
          2    1    1    2  501    0  0.11998145810E+03  0.92457654038E+02 -0.23441005188E+03  0.27909145544E+03  0.00000000000E+00 0. -1.
<mgrwt>
<rscale>  4 0.23740448E+03</rscale>
<asrwt>0</asrwt>
<pdfrwt beam="1">  1       21 0.14961752E+00 0.23740448E+03</pdfrwt>
<pdfrwt beam="2">  1        2 0.49910805E-01 0.23740448E+03</pdfrwt>
<totfact> 0.36446878E+02</totfact>
</mgrwt>
</event>
<event>
 5    0  0.3696258E+000  0.2434775E+03  0.7546771E-02  0.1117498E+00
         -4   -1    0    0    0  501 -0.00000000000E+00  0.00000000000E+00  0.90579111113E+03  0.90579111113E+03  0.00000000000E+00 0. -1.
         21   -1    0    0  503  502  0.00000000000E+00 -0.00000000000E+00 -0.68540936745E+03  0.68540936745E+03  0.00000000000E+00 0. -1.
         25    1    1    2    0    0  0.11020440201E+03 -0.16732864550E+03 -0.52399928482E+03  0.57475571882E+03  0.12500000000E+03 0.  0.
         21    1    1    2  503  501 -0.15813869991E+03  0.19204775219E+03 -0.20540819908E+02  0.24962394279E+03  0.00000000000E+00 0. -1.
         -4    1    1    2    0  502  0.47934297900E+02 -0.24719106689E+02  0.76492184841E+03  0.76682081696E+03  0.00000000000E+00 0. -1.
<mgrwt>
<rscale>  4 0.24347747E+03</rscale>
<asrwt>0</asrwt>
<pdfrwt beam="1">  1       21 0.10544759E+00 0.24347747E+03</pdfrwt>
<pdfrwt beam="2">  1       -4 0.13935248E+00 0.24347747E+03</pdfrwt>
<totfact> 0.11361176E+01</totfact>
</mgrwt>
</event>
<event>
 5    0  0.3696258E+000  0.3510770E+03  0.7546771E-02  0.1062174E+00
         21   -1    0    0  501  502  0.00000000000E+00  0.00000000000E+00  0.27470483343E+03  0.27470483343E+03  0.00000000000E+00 0.  1.
          2   -1    0    0  503    0 -0.00000000000E+00 -0.00000000000E+00 -0.24194614894E+04  0.24194614894E+04  0.00000000000E+00 0.  1.
         25    1    1    2    0    0 -0.21633968246E+03  0.25953350069E+03  0.12005282794E+03  0.37973435147E+03  0.12500000000E+03 0.  0.
         21    1    1    2  503  502  0.13778675591E+03 -0.90522852050E+02 -0.31317138828E+03  0.35391509615E+03  0.00000000000E+00 0.  1.
          2    1    1    2  501    0  0.78552926553E+02 -0.16901064864E+03 -0.19516380956E+04  0.19605168752E+04  0.00000000000E+00 0.  1.
<mgrwt>
<rscale>  4 0.35107697E+03</rscale>
<asrwt>0</asrwt>
<pdfrwt beam="1">  1       21 0.42262281E-01 0.35107697E+03</pdfrwt>
<pdfrwt beam="2">  1        2 0.37222486E+00 0.35107697E+03</pdfrwt>
<totfact> 0.28139836E+02</totfact>
</mgrwt>
</event>
<event>
 5    0  0.3696258E+000  0.2687212E+03  0.7546771E-02  0.1102014E+00
         21   -1    0    0  501  502  0.00000000000E+00  0.00000000000E+00  0.37948509915E+03  0.37948509915E+03  0.00000000000E+00 0. -1.
          2   -1    0    0  503    0 -0.00000000000E+00 -0.00000000000E+00 -0.15407012270E+04  0.15407012270E+04  0.00000000000E+00 0. -1.
         25    1    1    2    0    0 -0.16403828008E+03  0.17940911284E+03  0.27538678545E+03  0.38801941794E+03  0.12500000000E+03 0.  0.
         21    1    1    2  503  502  0.12785883479E+03 -0.17426570188E+03 -0.19829898484E+03  0.29332388903E+03  0.00000000000E+00 0. -1.
          2    1    1    2  501    0  0.36179445292E+02 -0.51434109546E+01 -0.12383039284E+04  0.12388430191E+04  0.00000000000E+00 0. -1.
<mgrwt>
<rscale>  4 0.26872121E+03</rscale>
<asrwt>0</asrwt>
<pdfrwt beam="1">  1       21 0.58382324E-01 0.26872121E+03</pdfrwt>
<pdfrwt beam="2">  1        2 0.23703095E+00 0.26872121E+03</pdfrwt>
<totfact> 0.43666955E+02</totfact>
</mgrwt>
</event>
<event>
 5    0  0.3696258E+000  0.2639081E+03  0.7546771E-02  0.1104818E+00
          2   -1    0    0  503    0 -0.00000000000E+00  0.00000000000E+00  0.13839517525E+04  0.13839517525E+04  0.00000000000E+00 0.  1.
         21   -1    0    0  501  502  0.00000000000E+00 -0.00000000000E+00 -0.38625987191E+03  0.38625987191E+03  0.00000000000E+00 0.  1.
         25    1    1    2    0    0 -0.21289597771E+03  0.11980307149E+03 -0.28818973848E+03  0.39793944091E+03  0.12500000000E+03 0.  0.
         21    1    1    2  503  502  0.20066765748E+03  0.23527967239E+01  0.21397056426E+03  0.29335379115E+03  0.00000000000E+00 0.  1.
          2    1    1    2  501    0  0.12228320228E+02 -0.12215586821E+03  0.10719110548E+04  0.10789183924E+04  0.00000000000E+00 0.  1.
<mgrwt>
<rscale>  4 0.26390811E+03</rscale>
<asrwt>0</asrwt>
<pdfrwt beam="1">  1       21 0.59424596E-01 0.26390811E+03</pdfrwt>
<pdfrwt beam="2">  1        2 0.21291565E+00 0.26390811E+03</pdfrwt>
<totfact> 0.51190699E+02</totfact>
</mgrwt>
</event>
<event>
 5    0  0.3696258E+000  0.3565039E+03  0.7546771E-02  0.1059977E+00
          2   -1    0    0  503    0 -0.00000000000E+00  0.00000000000E+00  0.11516041232E+04  0.11516041232E+04  0.00000000000E+00 0.  1.
         21   -1    0    0  501  502  0.00000000000E+00 -0.00000000000E+00 -0.65533245337E+03  0.65533245337E+03  0.00000000000E+00 0.  1.
         25    1    1    2    0    0 -0.28138779854E+03 -0.21949900087E+03 -0.20960243817E+02  0.37871260392E+03  0.12500000000E+03 0.  0.
         21    1    1    2  503  502  0.24436240827E+03  0.21655391314E+03 -0.39655789892E+03  0.51367961909E+03  0.00000000000E+00 0.  1.
          2    1    1    2  501    0  0.37025390267E+02  0.29450877314E+01  0.91378981255E+03  0.91454435353E+03  0.00000000000E+00 0.  1.
<mgrwt>
<rscale>  4 0.35650394E+03</rscale>
<asrwt>0</asrwt>
<pdfrwt beam="1">  1       21 0.10082038E+00 0.35650394E+03</pdfrwt>
<pdfrwt beam="2">  1        2 0.17716987E+00 0.35650394E+03</pdfrwt>
<totfact> 0.19836250E+02</totfact>
</mgrwt>
</event>
<event>
 5    0  0.3696258E+000  0.2823186E+03  0.7546771E-02  0.1094429E+00
          2   -1    0    0  503    0 -0.00000000000E+00  0.00000000000E+00  0.17030601507E+04  0.17030601507E+04  0.00000000000E+00 0.  1.
         21   -1    0    0  501  502  0.00000000000E+00 -0.00000000000E+00 -0.24591906409E+03  0.24591906409E+03  0.00000000000E+00 0. -1.
         25    1    1    2    0    0  0.10032669449E+03  0.23636199984E+03 -0.31060318928E+01  0.28559952386E+03  0.12500000000E+03 0.  0.
         21    1    1    2  503  502 -0.74958141306E+02 -0.23828453273E+03  0.52312563175E+02  0.25521529295E+03  0.00000000000E+00 0. -1.
          2    1    1    2  501    0 -0.25368553180E+02  0.19225328890E+01  0.14079345553E+04  0.14081643980E+04  0.00000000000E+00 0.  1.
<mgrwt>
<rscale>  4 0.28231861E+03</rscale>
<asrwt>0</asrwt>
<pdfrwt beam="1">  1       21 0.37833703E-01 0.28231861E+03</pdfrwt>
<pdfrwt beam="2">  1        2 0.26200925E+00 0.28231861E+03</pdfrwt>
<totfact> 0.87896644E+02</totfact>
</mgrwt>
</event>
<event>
 5    0  0.3696258E+000  0.2953235E+03  0.7546771E-02  0.1087602E+00
         21   -1    0    0  501  502  0.00000000000E+00  0.00000000000E+00  0.15450196692E+04  0.15450196692E+04  0.00000000000E+00 0.  1.
          4   -1    0    0  503    0 -0.00000000000E+00 -0.00000000000E+00 -0.27311548869E+04  0.27311548869E+04  0.00000000000E+00 0.  1.
         25    1    1    2    0    0  0.13716957779E+03  0.22682614737E+03  0.13774315319E+04  0.14082642576E+04  0.12500000000E+03 0.  0.
         21    1    1    2  503  502 -0.10577328574E+03 -0.27513057424E+03  0.88047125724E+01  0.29489378397E+03  0.00000000000E+00 0.  1.
          4    1    1    2  501    0 -0.31396292049E+02  0.48304426872E+02 -0.25723714621E+04  0.25730165145E+04  0.00000000000E+00 0.  1.
<mgrwt>
<rscale>  4 0.29532348E+03</rscale>
<asrwt>0</asrwt>
<pdfrwt beam="1">  1       21 0.23769534E+00 0.29532348E+03</pdfrwt>
<pdfrwt beam="2">  1        4 0.42017767E+00 0.29532348E+03</pdfrwt>
<totfact> 0.18637586E-02</totfact>
</mgrwt>
</event>
<event>
 5    0  0.3696258E+000  0.2028046E+03  0.7546771E-02  0.1147394E+00
         21   -1    0    0  501  502  0.00000000000E+00  0.00000000000E+00  0.95795659056E+03  0.95795659056E+03  0.00000000000E+00 0.  1.
          2   -1    0    0  503    0 -0.00000000000E+00 -0.00000000000E+00 -0.24614465792E+04  0.24614465792E+04  0.00000000000E+00 0.  1.
         25    1    1    2    0    0  0.19535426759E+03 -0.65714387869E+02 -0.96827536499E+02  0.25977344449E+03  0.12500000000E+03 0.  0.
         21    1    1    2  503  502 -0.14457042093E+03  0.63450924573E+02  0.86908765494E+03  0.88331193721E+03  0.00000000000E+00 0.  1.
          2    1    1    2  501    0 -0.50783846663E+02  0.22634632956E+01 -0.22757501070E+04  0.22763177880E+04  0.00000000000E+00 0.  1.
<mgrwt>
<rscale>  4 0.20280456E+03</rscale>
<asrwt>0</asrwt>
<pdfrwt beam="1">  1       21 0.14737794E+00 0.20280456E+03</pdfrwt>
<pdfrwt beam="2">  1        2 0.37868408E+00 0.20280456E+03</pdfrwt>
<totfact> 0.16998584E+01</totfact>
</mgrwt>
</event>
<event>
 5    0  0.3696258E+000  0.2465051E+03  0.7546771E-02  0.1115534E+00
          1   -1    0    0  503    0 -0.00000000000E+00  0.00000000000E+00  0.20930348924E+04  0.20930348924E+04  0.00000000000E+00 0.  1.
         21   -1    0    0  501  502  0.00000000000E+00 -0.00000000000E+00 -0.61094013736E+02  0.61094013736E+02  0.00000000000E+00 0.  1.
         25    1    1    2    0    0 -0.17037906219E+03 -0.12883785591E+03  0.23524342328E+03  0.34145671196E+03  0.12500000000E+03 0.  0.
         21    1    1    2  503  502 -0.11220966740E+02  0.28078864925E+02  0.15804115654E+03  0.16090786155E+03  0.00000000000E+00 0.  1.
          1    1    1    2  501    0  0.18160002893E+03  0.10075899098E+03  0.16386562988E+04  0.16517643326E+04  0.00000000000E+00 0.  1.
<mgrwt>
<rscale>  4 0.24650514E+03</rscale>
<asrwt>0</asrwt>
<pdfrwt beam="1">  1       21 0.93990806E-02 0.24650514E+03</pdfrwt>
<pdfrwt beam="2">  1        1 0.32200531E+00 0.24650514E+03</pdfrwt>
<totfact> 0.29675533E+03</totfact>
</mgrwt>
</event>
<event>
 5    0  0.3696258E+000  0.2730508E+03  0.7546771E-02  0.1099546E+00
         21   -1    0    0  501  502  0.00000000000E+00  0.00000000000E+00  0.22765803178E+03  0.22765803178E+03  0.00000000000E+00 0. -1.
          2   -1    0    0  503    0 -0.00000000000E+00 -0.00000000000E+00 -0.80015188408E+03  0.80015188408E+03  0.00000000000E+00 0. -1.
         25    1    1    2    0    0  0.92793020655E+02 -0.24554795569E+03  0.79701205054E+02  0.30146579460E+03  0.12500000000E+03 0.  0.
         21    1    1    2  503  502 -0.24508320410E+01  0.12430215579E+03 -0.11890491315E+03  0.17203316797E+03  0.00000000000E+00 0. -1.
          2    1    1    2  501    0 -0.90342188615E+02  0.12124579990E+03 -0.53329014420E+03  0.55431095329E+03  0.00000000000E+00 0. -1.
<mgrwt>
<rscale>  4 0.27305083E+03</rscale>
<asrwt>0</asrwt>
<pdfrwt beam="1">  1       21 0.35024313E-01 0.27305083E+03</pdfrwt>
<pdfrwt beam="2">  1        2 0.12310029E+00 0.27305083E+03</pdfrwt>
<totfact> 0.34250249E+03</totfact>
</mgrwt>
</event>
<event>
 5    0  0.3696258E+000  0.3031127E+03  0.7546771E-02  0.1083695E+00
         21   -1    0    0  501  502  0.00000000000E+00  0.00000000000E+00  0.25520334632E+03  0.25520334632E+03  0.00000000000E+00 0.  1.
          2   -1    0    0  503    0 -0.00000000000E+00 -0.00000000000E+00 -0.57612437603E+03  0.57612437603E+03  0.00000000000E+00 0. -1.
         25    1    1    2    0    0  0.24238621829E+03  0.11814219295E+03  0.53456370907E+02  0.30197887370E+03  0.12500000000E+03 0.  0.
         21    1    1    2  503  502 -0.26097479087E+03 -0.12754787669E+03 -0.19752250601E+03  0.35127118113E+03  0.00000000000E+00 0.  1.
          2    1    1    2  501    0  0.18588572576E+02  0.94056837363E+01 -0.17685489462E+03  0.17807766751E+03  0.00000000000E+00 0. -1.
<mgrwt>
<rscale>  4 0.30311274E+03</rscale>
<asrwt>0</asrwt>
<pdfrwt beam="1">  1       21 0.39262054E-01 0.30311274E+03</pdfrwt>
<pdfrwt beam="2">  1        2 0.88634518E-01 0.30311274E+03</pdfrwt>
<totfact> 0.40194600E+03</totfact>
</mgrwt>
</event>
<event>
 5    0  0.3696258E+000  0.3588485E+03  0.7546771E-02  0.1059041E+00
         21   -1    0    0  501  502  0.00000000000E+00  0.00000000000E+00  0.34066290378E+03  0.34066290378E+03  0.00000000000E+00 0. -1.
          1   -1    0    0  503    0 -0.00000000000E+00 -0.00000000000E+00 -0.86500152126E+03  0.86500152126E+03  0.00000000000E+00 0. -1.
         25    1    1    2    0    0 -0.18412178325E+03 -0.27453873563E+03  0.13885765555E+03  0.37970883178E+03  0.12500000000E+03 0.  0.
         21    1    1    2  503  502  0.11377768935E+03  0.35342480313E+03 -0.41881213347E+03  0.55969461066E+03  0.00000000000E+00 0. -1.
          1    1    1    2  501    0  0.70344093898E+02 -0.78886067497E+02 -0.24438413955E+03  0.26626098260E+03  0.00000000000E+00 0. -1.
<mgrwt>
<rscale>  4 0.35884848E+03</rscale>
<asrwt>0</asrwt>
<pdfrwt beam="1">  1       21 0.52409678E-01 0.35884848E+03</pdfrwt>
<pdfrwt beam="2">  1        1 0.13307716E+00 0.35884848E+03</pdfrwt>
<totfact> 0.73218711E+02</totfact>
</mgrwt>
</event>
<event>
 5    0  0.3696258E+000  0.2970025E+03  0.7546771E-02  0.1086749E+00
         21   -1    0    0  501  502  0.00000000000E+00  0.00000000000E+00  0.33621873203E+03  0.33621873203E+03  0.00000000000E+00 0.  1.
          2   -1    0    0  503    0 -0.00000000000E+00 -0.00000000000E+00 -0.10131548793E+04  0.10131548793E+04  0.00000000000E+00 0.  1.
         25    1    1    2    0    0 -0.18842946336E+03  0.17653738454E+03 -0.15505157173E+03  0.32609369926E+03  0.12500000000E+03 0.  0.
         21    1    1    2  503  502  0.21325688952E+03 -0.17056066342E+03  0.17603289904E+03  0.32489540221E+03  0.00000000000E+00 0.  1.
          2    1    1    2  501    0 -0.24827426163E+02 -0.59767211172E+01 -0.69791747454E+03  0.69838450982E+03  0.00000000000E+00 0.  1.
<mgrwt>
<rscale>  4 0.29700251E+03</rscale>
<asrwt>0</asrwt>
<pdfrwt beam="1">  1       21 0.51725959E-01 0.29700251E+03</pdfrwt>
<pdfrwt beam="2">  1        2 0.15586998E+00 0.29700251E+03</pdfrwt>
<totfact> 0.11072421E+03</totfact>
</mgrwt>
</event>
<event>
 5    0  0.3696258E+000  0.1856578E+03  0.7546771E-02  0.1162437E+00
          1   -1    0    0  503    0 -0.00000000000E+00  0.00000000000E+00  0.15962544083E+04  0.15962544083E+04  0.00000000000E+00 0. -1.
         21   -1    0    0  501  502  0.00000000000E+00 -0.00000000000E+00 -0.13570037525E+04  0.13570037525E+04  0.00000000000E+00 0. -1.
         25    1    1    2    0    0  0.19508271587E+03 -0.15976065548E+03  0.13008362273E+02  0.28173560400E+03  0.12500000000E+03 0.  0.
         21    1    1    2  503  502 -0.12588199772E+03  0.47901577727E+02 -0.12159287251E+04  0.12233656456E+04  0.00000000000E+00 0. -1.
          1    1    1    2  501    0 -0.69200718150E+02  0.11185907775E+03  0.14421710186E+04  0.14481569112E+04  0.00000000000E+00 0. -1.
<mgrwt>
<rscale>  4 0.18565784E+03</rscale>
<asrwt>0</asrwt>
<pdfrwt beam="1">  1       21 0.20876981E+00 0.18565784E+03</pdfrwt>
<pdfrwt beam="2">  1        1 0.24557760E+00 0.18565784E+03</pdfrwt>
<totfact> 0.83928837E+00</totfact>
</mgrwt>
</event>
<event>
 5    0  0.3696258E+000  0.2920138E+03  0.7546771E-02  0.1089302E+00
          2   -1    0    0  503    0 -0.00000000000E+00  0.00000000000E+00  0.18554784481E+04  0.18554784481E+04  0.00000000000E+00 0.  1.
         21   -1    0    0  501  502  0.00000000000E+00 -0.00000000000E+00 -0.17262137658E+03  0.17262137658E+03  0.00000000000E+00 0.  1.
         25    1    1    2    0    0 -0.63190817308E+02  0.34770333804E+03  0.25427920465E+03  0.45296093053E+03  0.12500000000E+03 0.  0.
         21    1    1    2  503  502 -0.13843999586E+03 -0.18116867394E+03  0.15672177184E+03  0.27667568494E+03  0.00000000000E+00 0.  1.
          2    1    1    2  501    0  0.20163081317E+03 -0.16653466410E+03  0.12718560951E+04  0.12984632092E+04  0.00000000000E+00 0.  1.
<mgrwt>
<rscale>  4 0.29201378E+03</rscale>
<asrwt>0</asrwt>
<pdfrwt beam="1">  1       21 0.26557136E-01 0.29201378E+03</pdfrwt>
<pdfrwt beam="2">  1        2 0.28545821E+00 0.29201378E+03</pdfrwt>
<totfact> 0.14660734E+03</totfact>
</mgrwt>
</event>
<event>
 5    0  0.3696258E+000  0.3672642E+03  0.7546771E-02  0.1055744E+00
          2   -1    0    0  503    0 -0.00000000000E+00  0.00000000000E+00  0.16415447686E+04  0.16415447686E+04  0.00000000000E+00 0.  1.
         21   -1    0    0  501  502  0.00000000000E+00 -0.00000000000E+00 -0.52626033765E+03  0.52626033765E+03  0.00000000000E+00 0. -1.
         25    1    1    2    0    0  0.25971449794E+03 -0.27466252294E+03 -0.30788835540E+03  0.50330046824E+03  0.12500000000E+03 0.  0.
         21    1    1    2  503  502 -0.26993001995E+03  0.12445332307E+03  0.73143051631E+02  0.30610578448E+03  0.00000000000E+00 0. -1.
          2    1    1    2  501    0  0.10215522010E+02  0.15020919986E+03  0.13500297347E+04  0.13583988535E+04  0.00000000000E+00 0.  1.
<mgrwt>
<rscale>  4 0.36726417E+03</rscale>
<asrwt>0</asrwt>
<pdfrwt beam="1">  1       21 0.80963129E-01 0.36726417E+03</pdfrwt>
<pdfrwt beam="2">  1        2 0.25254535E+00 0.36726417E+03</pdfrwt>
<totfact> 0.17726357E+02</totfact>
</mgrwt>
</event>
<event>
 5    0  0.3696258E+000  0.2228890E+03  0.7546771E-02  0.1131747E+00
         -4   -1    0    0    0  501 -0.00000000000E+00  0.00000000000E+00  0.40481674865E+03  0.40481674865E+03  0.00000000000E+00 0.  1.
         21   -1    0    0  503  502  0.00000000000E+00 -0.00000000000E+00 -0.22303154725E+03  0.22303154725E+03  0.00000000000E+00 0.  1.
         25    1    1    2    0    0  0.10976010429E+03 -0.16766221973E+03 -0.98014547756E+02  0.25571419982E+03  0.12500000000E+03 0.  0.
         21    1    1    2  503  501 -0.13187502692E+03  0.79184451542E+02  0.18484282903E+03  0.24047467961E+03  0.00000000000E+00 0.  1.
         -4    1    1    2    0  502  0.22114922626E+02  0.88477768188E+02  0.94956920124E+02  0.13165941647E+03  0.00000000000E+00 0.  1.
<mgrwt>
<rscale>  4 0.22288899E+03</rscale>
<asrwt>0</asrwt>
<pdfrwt beam="1">  1       21 0.34312546E-01 0.22288899E+03</pdfrwt>
<pdfrwt beam="2">  1       -4 0.62279500E-01 0.22288899E+03</pdfrwt>
<totfact> 0.84349187E+02</totfact>
</mgrwt>
</event>
<event>
 5    0  0.3696258E+000  0.2451373E+03  0.7546771E-02  0.1116417E+00
          2   -1    0    0  503    0 -0.00000000000E+00  0.00000000000E+00  0.16562169570E+03  0.16562169570E+03  0.00000000000E+00 0. -1.
         21   -1    0    0  501  502  0.00000000000E+00 -0.00000000000E+00 -0.46304119956E+03  0.46304119956E+03  0.00000000000E+00 0.  1.
         25    1    1    2    0    0  0.88622047655E+02 -0.19134630566E+03 -0.30811553138E+03  0.39373526220E+03  0.12500000000E+03 0.  0.
         21    1    1    2  503  502 -0.23478845578E+02  0.12895478735E+03 -0.32310174854E+02  0.13499829913E+03  0.00000000000E+00 0.  1.
          2    1    1    2  501    0 -0.65143202077E+02  0.62391518310E+02  0.43006202378E+02  0.99929333916E+02  0.00000000000E+00 0. -1.
<mgrwt>
<rscale>  4 0.24513726E+03</rscale>
<asrwt>0</asrwt>
<pdfrwt beam="1">  1       21 0.71237108E-01 0.24513726E+03</pdfrwt>
<pdfrwt beam="2">  1        2 0.25480261E-01 0.24513726E+03</pdfrwt>
<totfact> 0.45395317E+03</totfact>
</mgrwt>
</event>
<event>
 5    0  0.3696258E+000  0.3162413E+03  0.7546771E-02  0.1077392E+00
         21   -1    0    0  501  502  0.00000000000E+00  0.00000000000E+00  0.30061983063E+03  0.30061983063E+03  0.00000000000E+00 0.  1.
          2   -1    0    0  503    0 -0.00000000000E+00 -0.00000000000E+00 -0.11581785516E+04  0.11581785516E+04  0.00000000000E+00 0. -1.
         25    1    1    2    0    0  0.18824238888E+03 -0.19481511474E+03 -0.25828990219E+03  0.39462235045E+03  0.12500000000E+03 0.  0.
         21    1    1    2  503  502 -0.20163093759E+03  0.21693069572E+03  0.13780001350E+03  0.32665395369E+03  0.00000000000E+00 0.  1.
          2    1    1    2  501    0  0.13388548706E+02 -0.22115580983E+02 -0.73706883229E+03  0.73752207810E+03  0.00000000000E+00 0. -1.
<mgrwt>
<rscale>  4 0.31624135E+03</rscale>
<asrwt>0</asrwt>
<pdfrwt beam="1">  1       21 0.46249205E-01 0.31624135E+03</pdfrwt>
<pdfrwt beam="2">  1        2 0.17818132E+00 0.31624135E+03</pdfrwt>
<totfact> 0.11398260E+03</totfact>
</mgrwt>
</event>
<event>
 5    0  0.3696258E+000  0.2424035E+03  0.7546771E-02  0.1118202E+00
          1   -1    0    0  503    0 -0.00000000000E+00  0.00000000000E+00  0.59773755884E+03  0.59773755884E+03  0.00000000000E+00 0. -1.
         21   -1    0    0  501  502  0.00000000000E+00 -0.00000000000E+00 -0.57450163318E+03  0.57450163318E+03  0.00000000000E+00 0.  1.
         25    1    1    2    0    0  0.29309799062E+03 -0.13910914133E+03 -0.12019702974E+03  0.36787241166E+03  0.12500000000E+03 0.  0.
         21    1    1    2  503  502 -0.11797957635E+03  0.47624561721E+02 -0.29620505181E+03  0.32237355976E+03  0.00000000000E+00 0.  1.
          1    1    1    2  501    0 -0.17511841426E+03  0.91484579612E+02  0.43963800721E+03  0.48199322060E+03  0.00000000000E+00 0. -1.
<mgrwt>
<rscale>  4 0.24240347E+03</rscale>
<asrwt>0</asrwt>
<pdfrwt beam="1">  1       21 0.88384867E-01 0.24240347E+03</pdfrwt>
<pdfrwt beam="2">  1        1 0.91959624E-01 0.24240347E+03</pdfrwt>
<totfact> 0.41728121E+02</totfact>
</mgrwt>
</event>
<event>
 5    0  0.3696258E+000  0.2779255E+03  0.7546771E-02  0.1096827E+00
          2   -1    0    0  503    0 -0.00000000000E+00  0.00000000000E+00  0.95032959892E+03  0.95032959892E+03  0.00000000000E+00 0. -1.
         21   -1    0    0  501  502  0.00000000000E+00 -0.00000000000E+00 -0.21790808967E+03  0.21790808967E+03  0.00000000000E+00 0. -1.
         25    1    1    2    0    0 -0.18997831131E+03  0.16808719691E+03 -0.74149558108E+02  0.29234948521E+03  0.12500000000E+03 0.  0.
         21    1    1    2  503  502  0.19821807256E+03 -0.11919590645E+03  0.36887377517E+03  0.43539169769E+03  0.00000000000E+00 0. -1.
          2    1    1    2  501    0 -0.82397612511E+01 -0.48891290453E+02  0.43769729218E+03  0.44049650570E+03  0.00000000000E+00 0. -1.
<mgrwt>
<rscale>  4 0.27792553E+03</rscale>
<asrwt>0</asrwt>
<pdfrwt beam="1">  1       21 0.33524322E-01 0.27792553E+03</pdfrwt>
<pdfrwt beam="2">  1        2 0.14620455E+00 0.27792553E+03</pdfrwt>
<totfact> 0.29701409E+03</totfact>
</mgrwt>
</event>
<event>
 5    0  0.3696258E+000  0.2359954E+03  0.7546771E-02  0.1122490E+00
          1   -1    0    0  503    0 -0.00000000000E+00  0.00000000000E+00  0.68325835074E+03  0.68325835074E+03  0.00000000000E+00 0. -1.
         21   -1    0    0  501  502  0.00000000000E+00 -0.00000000000E+00 -0.22354167068E+03  0.22354167068E+03  0.00000000000E+00 0. -1.
         25    1    1    2    0    0  0.15584740616E+03 -0.14955405259E+03 -0.11914420823E+02  0.24984351518E+03  0.12500000000E+03 0.  0.
         21    1    1    2  503  502 -0.15071521417E+03  0.11248982729E+03  0.42855230106E+01  0.18811539738E+03  0.00000000000E+00 0. -1.
          1    1    1    2  501    0 -0.51321919930E+01  0.37064225295E+02  0.46734557788E+03  0.46884110886E+03  0.00000000000E+00 0. -1.
<mgrwt>
<rscale>  4 0.23599538E+03</rscale>
<asrwt>0</asrwt>
<pdfrwt beam="1">  1       21 0.34391027E-01 0.23599538E+03</pdfrwt>
<pdfrwt beam="2">  1        1 0.10511667E+00 0.23599538E+03</pdfrwt>
<totfact> 0.26045264E+03</totfact>
</mgrwt>
</event>
<event>
 5    0  0.3696258E+000  0.2804326E+03  0.7546771E-02  0.1095453E+00
          1   -1    0    0  503    0 -0.00000000000E+00  0.00000000000E+00  0.20621375634E+04  0.20621375634E+04  0.00000000000E+00 0. -1.
         21   -1    0    0  501  502  0.00000000000E+00 -0.00000000000E+00 -0.10669096791E+03  0.10669096791E+03  0.00000000000E+00 0. -1.
         25    1    1    2    0    0  0.20571506632E+03 -0.18434855900E+03  0.27526529773E+03  0.40951076158E+03  0.12500000000E+03 0.  0.
         21    1    1    2  503  502 -0.15894206048E+03  0.16210682838E+03  0.29058109461E+03  0.36875272872E+03  0.00000000000E+00 0. -1.
          1    1    1    2  501    0 -0.46773005840E+02  0.22241730617E+02  0.13896002031E+04  0.13905650410E+04  0.00000000000E+00 0. -1.
<mgrwt>
<rscale>  4 0.28043257E+03</rscale>
<asrwt>0</asrwt>
<pdfrwt beam="1">  1       21 0.16413997E-01 0.28043257E+03</pdfrwt>
<pdfrwt beam="2">  1        1 0.31725190E+00 0.28043257E+03</pdfrwt>
<totfact> 0.11175280E+03</totfact>
</mgrwt>
</event>
<event>
 5    0  0.3696258E+000  0.4801936E+03  0.7546771E-02  0.1019082E+00
          2   -1    0    0  503    0 -0.00000000000E+00  0.00000000000E+00  0.77259954428E+03  0.77259954428E+03  0.00000000000E+00 0. -1.
         21   -1    0    0  501  502  0.00000000000E+00 -0.00000000000E+00 -0.35473380209E+03  0.35473380209E+03  0.00000000000E+00 0. -1.
         25    1    1    2    0    0  0.86692668711E+02  0.46269877552E+03  0.28506618914E+02  0.48789691842E+03  0.12500000000E+03 0.  0.
         21    1    1    2  503  502 -0.11008160721E+03 -0.43901763030E+03  0.29723086388E+03  0.54148003325E+03  0.00000000000E+00 0. -1.
          2    1    1    2  501    0  0.23388938502E+02 -0.23681145220E+02  0.92128259395E+02  0.97956394699E+02  0.00000000000E+00 0. -1.
<mgrwt>
<rscale>  4 0.48019364E+03</rscale>
<asrwt>0</asrwt>
<pdfrwt beam="1">  1       21 0.54574431E-01 0.48019364E+03</pdfrwt>
<pdfrwt beam="2">  1        2 0.11886147E+00 0.48019364E+03</pdfrwt>
<totfact> 0.13534625E+03</totfact>
</mgrwt>
</event>
<event>
 5    0  0.3696258E+000  0.2393192E+03  0.7546771E-02  0.1120247E+00
          2   -1    0    0  503    0 -0.00000000000E+00  0.00000000000E+00  0.10573698252E+04  0.10573698252E+04  0.00000000000E+00 0. -1.
         21   -1    0    0  501  502  0.00000000000E+00 -0.00000000000E+00 -0.19514448293E+03  0.19514448293E+03  0.00000000000E+00 0. -1.
         25    1    1    2    0    0 -0.22937573435E+03 -0.10181606962E+02  0.13313613948E+02  0.26176161855E+03  0.12500000000E+03 0.  0.
         21    1    1    2  503  502  0.14717815304E+03  0.14027707295E+03  0.10072136533E+03  0.22690054950E+03  0.00000000000E+00 0. -1.
          2    1    1    2  501    0  0.82197581304E+02 -0.13009546599E+03  0.74819036301E+03  0.76385214010E+03  0.00000000000E+00 0. -1.
<mgrwt>
<rscale>  4 0.23931915E+03</rscale>
<asrwt>0</asrwt>
<pdfrwt beam="1">  1       21 0.30022229E-01 0.23931915E+03</pdfrwt>
<pdfrwt beam="2">  1        2 0.16267228E+00 0.23931915E+03</pdfrwt>
<totfact> 0.32188400E+03</totfact>
</mgrwt>
</event>
<event>
 5    0  0.3696258E+000  0.2717165E+03  0.7546771E-02  0.1100301E+00
          2   -1    0    0  503    0 -0.00000000000E+00  0.00000000000E+00  0.73217281569E+03  0.73217281569E+03  0.00000000000E+00 0.  1.
         21   -1    0    0  501  502  0.00000000000E+00 -0.00000000000E+00 -0.61834998483E+03  0.61834998483E+03  0.00000000000E+00 0.  1.
         25    1    1    2    0    0 -0.76446777941E+02  0.23529973075E+03 -0.51381775217E+03  0.58381825561E+03  0.12500000000E+03 0.  0.
         21    1    1    2  503  502  0.78022812013E+02 -0.19790809649E+03  0.95390889416E+02  0.23314072067E+03  0.00000000000E+00 0.  1.
          2    1    1    2  501    0 -0.15760340719E+01 -0.37391634259E+02  0.53224969361E+03  0.53356382424E+03  0.00000000000E+00 0.  1.
<mgrwt>
<rscale>  4 0.27171651E+03</rscale>
<asrwt>0</asrwt>
<pdfrwt beam="1">  1       21 0.95130767E-01 0.27171651E+03</pdfrwt>
<pdfrwt beam="2">  1        2 0.11264197E+00 0.27171651E+03</pdfrwt>
<totfact> 0.44174012E+02</totfact>
</mgrwt>
</event>
<event>
 5    0  0.3696258E+000  0.2864242E+03  0.7546771E-02  0.1092231E+00
         21   -1    0    0  501  502  0.00000000000E+00  0.00000000000E+00  0.61150318845E+02  0.61150318845E+02  0.00000000000E+00 0.  1.
          1   -1    0    0  503    0 -0.00000000000E+00 -0.00000000000E+00 -0.20996229092E+04  0.20996229092E+04  0.00000000000E+00 0.  1.
         25    1    1    2    0    0  0.18590187732E+03  0.15446972113E+03 -0.96624991921E+03  0.10038348017E+04  0.12500000000E+03 0.  0.
         21    1    1    2  503  502 -0.20406244163E+03 -0.16819590021E+03 -0.37237950157E+03  0.45672511878E+03  0.00000000000E+00 0.  1.
          1    1    1    2  501    0  0.18160564318E+02  0.13726179078E+02 -0.69984316957E+03  0.70021330756E+03  0.00000000000E+00 0.  1.
<mgrwt>
<rscale>  4 0.28642422E+03</rscale>
<asrwt>0</asrwt>
<pdfrwt beam="1">  1       21 0.94077433E-02 0.28642422E+03</pdfrwt>
<pdfrwt beam="2">  1        1 0.32301884E+00 0.28642422E+03</pdfrwt>
<totfact> 0.28873743E+03</totfact>
</mgrwt>
</event>
<event>
 5    0  0.3696258E+000  0.2155872E+03  0.7546771E-02  0.1137216E+00
         21   -1    0    0  501  502  0.00000000000E+00  0.00000000000E+00  0.23105765139E+03  0.23105765139E+03  0.00000000000E+00 0. -1.
          2   -1    0    0  503    0 -0.00000000000E+00 -0.00000000000E+00 -0.20549542891E+04  0.20549542891E+04  0.00000000000E+00 0.  1.
         25    1    1    2    0    0  0.14751180768E+02  0.23029598535E+03 -0.84715754896E+01  0.26258447363E+03  0.12500000000E+03 0.  0.
         21    1    1    2  503  502  0.79188212682E+01 -0.15276951275E+03  0.46395596750E+02  0.15985550712E+03  0.00000000000E+00 0. -1.
          2    1    1    2  501    0 -0.22670002037E+02 -0.77526472594E+02 -0.18618206590E+04  0.18635719597E+04  0.00000000000E+00 0.  1.
<mgrwt>
<rscale>  4 0.21558715E+03</rscale>
<asrwt>0</asrwt>
<pdfrwt beam="1">  1       21 0.35547331E-01 0.21558715E+03</pdfrwt>
<pdfrwt beam="2">  1        2 0.31614681E+00 0.21558715E+03</pdfrwt>
<totfact> 0.67696670E+02</totfact>
</mgrwt>
</event>
<event>
 5    0  0.3696258E+000  0.4473892E+03  0.7546771E-02  0.1028503E+00
         21   -1    0    0  501  502  0.00000000000E+00  0.00000000000E+00  0.42038364648E+03  0.42038364648E+03  0.00000000000E+00 0.  1.
          2   -1    0    0  503    0 -0.00000000000E+00 -0.00000000000E+00 -0.12783466786E+04  0.12783466786E+04  0.00000000000E+00 0.  1.
         25    1    1    2    0    0  0.42177833954E+03 -0.13555732626E+02  0.14921668265E+03  0.46472717154E+03  0.12500000000E+03 0.  0.
         21    1    1    2  503  502 -0.45145677354E+03 -0.25446376829E+01 -0.33799797484E+03  0.56397014509E+03  0.00000000000E+00 0.  1.
          2    1    1    2  501    0  0.29678434000E+02  0.16100370309E+02 -0.66918173993E+03  0.67003300846E+03  0.00000000000E+00 0.  1.
<mgrwt>
<rscale>  4 0.44738923E+03</rscale>
<asrwt>0</asrwt>
<pdfrwt beam="1">  1       21 0.64674407E-01 0.44738923E+03</pdfrwt>
<pdfrwt beam="2">  1        2 0.19666872E+00 0.44738923E+03</pdfrwt>
<totfact> 0.45254325E+02</totfact>
</mgrwt>
</event>
<event>
 5    0  0.3696258E+000  0.4717407E+03  0.7546771E-02  0.1021430E+00
         21   -1    0    0  501  502  0.00000000000E+00  0.00000000000E+00  0.23756586514E+03  0.23756586514E+03  0.00000000000E+00 0. -1.
          2   -1    0    0  503    0 -0.00000000000E+00 -0.00000000000E+00 -0.25108873520E+04  0.25108873520E+04  0.00000000000E+00 0. -1.
         25    1    1    2    0    0  0.26823010280E+03 -0.38168423589E+03 -0.17009118152E+03  0.51204126201E+03  0.12500000000E+03 0.  0.
         21    1    1    2  503  502 -0.80276203628E+02  0.44884279438E+03 -0.82434081940E+03  0.94204135231E+03  0.00000000000E+00 0. -1.
          2    1    1    2  501    0 -0.18795389917E+03 -0.67158558491E+02 -0.12788894859E+04  0.12943706028E+04  0.00000000000E+00 0. -1.
<mgrwt>
<rscale>  4 0.47174072E+03</rscale>
<asrwt>0</asrwt>
<pdfrwt beam="1">  1       21 0.36548595E-01 0.47174072E+03</pdfrwt>
<pdfrwt beam="2">  1        2 0.38629036E+00 0.47174072E+03</pdfrwt>
<totfact> 0.32111214E+02</totfact>
</mgrwt>
</event>
<event>
 5    0  0.3696258E+000  0.2564780E+03  0.7546771E-02  0.1109278E+00
         21   -1    0    0  501  502  0.00000000000E+00  0.00000000000E+00  0.64151694665E+02  0.64151694665E+02  0.00000000000E+00 0. -1.
          2   -1    0    0  503    0 -0.00000000000E+00 -0.00000000000E+00 -0.15310500035E+04  0.15310500035E+04  0.00000000000E+00 0. -1.
         25    1    1    2    0    0  0.85840594819E+02 -0.19001813688E+03 -0.66938500700E+03  0.71216345572E+03  0.12500000000E+03 0.  0.
         21    1    1    2  503  502 -0.11041026614E+03  0.20311718413E+03 -0.27279166723E+03  0.35757839849E+03  0.00000000000E+00 0. -1.
          2    1    1    2  501    0  0.24569671319E+02 -0.13099047245E+02 -0.52472163457E+03  0.52545984392E+03  0.00000000000E+00 0. -1.
<mgrwt>
<rscale>  4 0.25647800E+03</rscale>
<asrwt>0</asrwt>
<pdfrwt beam="1">  1       21 0.98694914E-02 0.25647800E+03</pdfrwt>
<pdfrwt beam="2">  1        2 0.23554616E+00 0.25647800E+03</pdfrwt>
<totfact> 0.13765500E+04</totfact>
</mgrwt>
</event>
<event>
 5    0  0.3696258E+000  0.2496720E+03  0.7546771E-02  0.1113512E+00
         21   -1    0    0  501  502  0.00000000000E+00  0.00000000000E+00  0.12006080627E+04  0.12006080627E+04  0.00000000000E+00 0.  1.
          2   -1    0    0  503    0 -0.00000000000E+00 -0.00000000000E+00 -0.16288572321E+04  0.16288572321E+04  0.00000000000E+00 0. -1.
         25    1    1    2    0    0 -0.20735397234E+03 -0.48163657099E+02  0.10642953485E+04  0.10925497685E+04  0.12500000000E+03 0.  0.
         21    1    1    2  503  502  0.22173017936E+03  0.13750189449E+03 -0.20082812746E+02  0.26167606462E+03  0.00000000000E+00 0.  1.
          2    1    1    2  501    0 -0.14376207015E+02 -0.89338237391E+02 -0.14724617052E+04  0.14752394617E+04  0.00000000000E+00 0. -1.
<mgrwt>
<rscale>  4 0.24967200E+03</rscale>
<asrwt>0</asrwt>
<pdfrwt beam="1">  1       21 0.18470893E+00 0.24967200E+03</pdfrwt>
<pdfrwt beam="2">  1        2 0.25059342E+00 0.24967200E+03</pdfrwt>
<totfact> 0.23836955E+01</totfact>
</mgrwt>
</event>
<event>
 5    0  0.3696258E+000  0.2818513E+03  0.7546771E-02  0.1094682E+00
         21   -1    0    0  501  502  0.00000000000E+00  0.00000000000E+00  0.44990945491E+03  0.44990945491E+03  0.00000000000E+00 0. -1.
          2   -1    0    0  503    0 -0.00000000000E+00 -0.00000000000E+00 -0.13513004462E+04  0.13513004462E+04  0.00000000000E+00 0. -1.
         25    1    1    2    0    0  0.24441949146E+03 -0.64952641826E+02  0.38243309478E+03  0.47522605723E+03  0.12500000000E+03 0.  0.
         21    1    1    2  503  502 -0.23428571618E+03  0.83970939911E+02 -0.72098040741E+03  0.76272777806E+03  0.00000000000E+00 0. -1.
          2    1    1    2  501    0 -0.10133775280E+02 -0.19018298085E+02 -0.56284367871E+03  0.56325606586E+03  0.00000000000E+00 0. -1.
<mgrwt>
<rscale>  4 0.28185134E+03</rscale>
<asrwt>0</asrwt>
<pdfrwt beam="1">  1       21 0.69216841E-01 0.28185134E+03</pdfrwt>
<pdfrwt beam="2">  1        2 0.20789237E+00 0.28185134E+03</pdfrwt>
<totfact> 0.37824102E+02</totfact>
</mgrwt>
</event>
<event>
 5    0  0.3696258E+000  0.3252016E+03  0.7546771E-02  0.1073280E+00
          1   -1    0    0  503    0 -0.00000000000E+00  0.00000000000E+00  0.13448494686E+04  0.13448494686E+04  0.00000000000E+00 0.  1.
         21   -1    0    0  501  502  0.00000000000E+00 -0.00000000000E+00 -0.77572556362E+03  0.77572556362E+03  0.00000000000E+00 0. -1.
         25    1    1    2    0    0  0.19914889901E+03  0.27235766720E+03 -0.29034850713E+03  0.46234861139E+03  0.12500000000E+03 0.  0.
         21    1    1    2  503  502 -0.13606528592E+03 -0.24453753318E+03 -0.34925217984E+03  0.44753709600E+03  0.00000000000E+00 0. -1.
          1    1    1    2  501    0 -0.63083613088E+02 -0.27820134020E+02  0.12087245919E+04  0.12106893248E+04  0.00000000000E+00 0.  1.
<mgrwt>
<rscale>  4 0.32520160E+03</rscale>
<asrwt>0</asrwt>
<pdfrwt beam="1">  1       21 0.11934239E+00 0.32520160E+03</pdfrwt>
<pdfrwt beam="2">  1        1 0.20689992E+00 0.32520160E+03</pdfrwt>
<totfact> 0.49767986E+01</totfact>
</mgrwt>
</event>
<event>
 5    0  0.3696258E+000  0.2440833E+03  0.7546771E-02  0.1117102E+00
         21   -1    0    0  501  502  0.00000000000E+00  0.00000000000E+00  0.13387101700E+03  0.13387101700E+03  0.00000000000E+00 0. -1.
          1   -1    0    0  503    0 -0.00000000000E+00 -0.00000000000E+00 -0.15443590373E+04  0.15443590373E+04  0.00000000000E+00 0. -1.
         25    1    1    2    0    0 -0.20506046093E+03 -0.54944353171E+02 -0.16896205628E+00  0.24636092046E+03  0.12500000000E+03 0.  0.
         21    1    1    2  503  502  0.18835160022E+03  0.34035185813E+02 -0.86631660677E+03  0.88720864645E+03  0.00000000000E+00 0. -1.
          1    1    1    2  501    0  0.16708860709E+02  0.20909167358E+02 -0.54400245144E+03  0.54466048734E+03  0.00000000000E+00 0. -1.
<mgrwt>
<rscale>  4 0.24408334E+03</rscale>
<asrwt>0</asrwt>
<pdfrwt beam="1">  1       21 0.20595541E-01 0.24408334E+03</pdfrwt>
<pdfrwt beam="2">  1        1 0.23759370E+00 0.24408334E+03</pdfrwt>
<totfact> 0.16177702E+03</totfact>
</mgrwt>
</event>
<event>
 5    0  0.3696258E+000  0.2455400E+03  0.7546771E-02  0.1116156E+00
          2   -1    0    0  503    0 -0.00000000000E+00  0.00000000000E+00  0.94696001807E+03  0.94696001807E+03  0.00000000000E+00 0.  1.
         21   -1    0    0  501  502  0.00000000000E+00 -0.00000000000E+00 -0.27195620674E+03  0.27195620674E+03  0.00000000000E+00 0.  1.
         25    1    1    2    0    0 -0.14781234595E+01  0.23079567370E+03 -0.82280760344E+02  0.27507081156E+03  0.12500000000E+03 0.  0.
         21    1    1    2  503  502 -0.18326418071E+01 -0.19140997675E+03  0.59905755032E+01  0.19151246636E+03  0.00000000000E+00 0.  1.
          2    1    1    2  501    0  0.33107652667E+01 -0.39385696948E+02  0.75129399618E+03  0.75233294689E+03  0.00000000000E+00 0.  1.
<mgrwt>
<rscale>  4 0.24553999E+03</rscale>
<asrwt>0</asrwt>
<pdfrwt beam="1">  1       21 0.41839417E-01 0.24553999E+03</pdfrwt>
<pdfrwt beam="2">  1        2 0.14568616E+00 0.24553999E+03</pdfrwt>
<totfact> 0.19315481E+03</totfact>
</mgrwt>
</event>
<event>
 5    0  0.3696258E+000  0.3229247E+03  0.7546771E-02  0.1074311E+00
          1   -1    0    0  503    0 -0.00000000000E+00  0.00000000000E+00  0.28020220986E+04  0.28020220986E+04  0.00000000000E+00 0. -1.
         21   -1    0    0  501  502  0.00000000000E+00 -0.00000000000E+00 -0.77298366085E+02  0.77298366085E+02  0.00000000000E+00 0.  1.
         25    1    1    2    0    0 -0.26637210804E+03  0.15561042030E+03  0.51941664359E+03  0.61691762212E+03  0.12500000000E+03 0.  0.
         21    1    1    2  503  502  0.18817335370E+03 -0.22446154217E+03  0.77819394046E+03  0.83149143347E+03  0.00000000000E+00 0.  1.
          1    1    1    2  501    0  0.78198754335E+02  0.68851121868E+02  0.14271131485E+04  0.14309114091E+04  0.00000000000E+00 0. -1.
<mgrwt>
<rscale>  4 0.32292469E+03</rscale>
<asrwt>0</asrwt>
<pdfrwt beam="1">  1       21 0.11892058E-01 0.32292469E+03</pdfrwt>
<pdfrwt beam="2">  1        1 0.43108024E+00 0.32292469E+03</pdfrwt>
<totfact> 0.63604305E+02</totfact>
</mgrwt>
</event>
<event>
 5    0  0.3696258E+000  0.2959765E+03  0.7546771E-02  0.1087269E+00
          2   -1    0    0  503    0 -0.00000000000E+00  0.00000000000E+00  0.17654111856E+04  0.17654111856E+04  0.00000000000E+00 0. -1.
         21   -1    0    0  501  502  0.00000000000E+00 -0.00000000000E+00 -0.11034667931E+03  0.11034667931E+03  0.00000000000E+00 0. -1.
         25    1    1    2    0    0  0.22871071226E+03 -0.18063197260E+03  0.26435844038E+03  0.41285213385E+03  0.12500000000E+03 0.  0.
         21    1    1    2  503  502 -0.21219133470E+03  0.11590006982E+03  0.38263200905E+03  0.45262041829E+03  0.00000000000E+00 0. -1.
          2    1    1    2  501    0 -0.16519377557E+02  0.64731902774E+02  0.10080740569E+04  0.10102853128E+04  0.00000000000E+00 0. -1.
<mgrwt>
<rscale>  4 0.29597645E+03</rscale>
<asrwt>0</asrwt>
<pdfrwt beam="1">  1       21 0.16976413E-01 0.29597645E+03</pdfrwt>
<pdfrwt beam="2">  1        2 0.27160170E+00 0.29597645E+03</pdfrwt>
<totfact> 0.38171818E+03</totfact>
</mgrwt>
</event>
<event>
 5    0  0.3696258E+000  0.3143148E+03  0.7546771E-02  0.1078296E+00
         21   -1    0    0  501  502  0.00000000000E+00  0.00000000000E+00  0.73046941513E+03  0.73046941513E+03  0.00000000000E+00 0. -1.
          1   -1    0    0  503    0 -0.00000000000E+00 -0.00000000000E+00 -0.49100229097E+03  0.49100229097E+03  0.00000000000E+00 0. -1.
         25    1    1    2    0    0 -0.30210394464E+03 -0.32754590834E+02  0.56570753094E+03  0.65420919219E+03  0.12500000000E+03 0.  0.
         21    1    1    2  503  502  0.15538730108E+03 -0.83654638460E+02  0.15926524819E+02  0.17719189052E+03  0.00000000000E+00 0. -1.
          1    1    1    2  501    0  0.14671664355E+03  0.11640922929E+03 -0.34216693160E+03  0.39007062340E+03  0.00000000000E+00 0. -1.
<mgrwt>
<rscale>  4 0.31431482E+03</rscale>
<asrwt>0</asrwt>
<pdfrwt beam="1">  1       21 0.11237991E+00 0.31431482E+03</pdfrwt>
<pdfrwt beam="2">  1        1 0.75538814E-01 0.31431482E+03</pdfrwt>
<totfact> 0.29647744E+02</totfact>
</mgrwt>
</event>
<event>
 5    0  0.3696258E+000  0.3005530E+03  0.7546771E-02  0.1084964E+00
         21   -1    0    0  501  502  0.00000000000E+00  0.00000000000E+00  0.58857031664E+03  0.58857031664E+03  0.00000000000E+00 0. -1.
          1   -1    0    0  503    0 -0.00000000000E+00 -0.00000000000E+00 -0.43250545982E+03  0.43250545982E+03  0.00000000000E+00 0.  1.
         25    1    1    2    0    0 -0.34075506206E+03 -0.15287974062E+03  0.17882012642E+03  0.43253654762E+03  0.12500000000E+03 0.  0.
         21    1    1    2  503  502  0.22985029007E+03  0.44297907264E+02  0.20619028951E+03  0.31194213554E+03  0.00000000000E+00 0. -1.
          1    1    1    2  501    0  0.11090477199E+03  0.10858183336E+03 -0.22894555911E+03  0.27659709330E+03  0.00000000000E+00 0.  1.
<mgrwt>
<rscale>  4 0.30055303E+03</rscale>
<asrwt>0</asrwt>
<pdfrwt beam="1">  1       21 0.90549279E-01 0.30055303E+03</pdfrwt>
<pdfrwt beam="2">  1        1 0.66539302E-01 0.30055303E+03</pdfrwt>
<totfact> 0.59307312E+02</totfact>
</mgrwt>
</event>
<event>
 5    0  0.3696258E+000  0.1996621E+03  0.7546771E-02  0.1150024E+00
          2   -1    0    0  503    0 -0.00000000000E+00  0.00000000000E+00  0.28212602306E+04  0.28212602306E+04  0.00000000000E+00 0. -1.
         21   -1    0    0  501  502  0.00000000000E+00 -0.00000000000E+00 -0.87402412995E+02  0.87402412995E+02  0.00000000000E+00 0.  1.
         25    1    1    2    0    0  0.17971931758E+03  0.11135675127E+03  0.84123762136E+03  0.87635899879E+03  0.12500000000E+03 0.  0.
         21    1    1    2  503  502 -0.13041296954E+03 -0.74935001427E+02  0.12219792811E+02  0.15090434188E+03  0.00000000000E+00 0.  1.
          2    1    1    2  501    0 -0.49306348043E+02 -0.36421749842E+02  0.18804004034E+04  0.18813993029E+04  0.00000000000E+00 0. -1.
<mgrwt>
<rscale>  4 0.19966210E+03</rscale>
<asrwt>0</asrwt>
<pdfrwt beam="1">  1       21 0.13446527E-01 0.19966210E+03</pdfrwt>
<pdfrwt beam="2">  1        2 0.43403997E+00 0.19966210E+03</pdfrwt>
<totfact> 0.16571622E+03</totfact>
</mgrwt>
</event>
