<event>
 5    0  0.1702508E-001  0.2093056E+03  0.7546771E-02  0.1142117E+00
         21   -1    0    0  503  502  0.00000000000E+00  0.00000000000E+00  0.66330231015E+02  0.66330231015E+02  0.00000000000E+00 0.  1.
         21   -1    0    0  501  503 -0.00000000000E+00 -0.00000000000E+00 -0.10038088805E+04  0.10038088805E+04  0.00000000000E+00 0. -1.
         25    1    1    2    0    0 -0.22668771141E+02 -0.20063272178E+03 -0.27025798310E+03  0.35976622919E+03  0.12500000000E+03 0.  0.
          3    1    1    2  501    0  0.21425108316E+01  0.61698192664E+02 -0.43219909416E+03  0.43658597586E+03  0.00000000000E+00 0. -1.
         -3    1    1    2    0  502  0.20526260309E+02  0.13893452911E+03 -0.23502157227E+03  0.27378690650E+03  0.00000000000E+00 0.  1.
<mgrwt>
<rscale>  4 0.20930557E+03</rscale>
<asrwt>0</asrwt>
<pdfrwt beam="1">  1       21 0.10204652E-01 0.20930557E+03</pdfrwt>
<pdfrwt beam="2">  1       21 0.15443212E+00 0.20930557E+03</pdfrwt>
<totfact> 0.21429129E+04</totfact>
</mgrwt>
</event>
<event>
 5    0  0.1702508E-001  0.2869641E+03  0.7546771E-02  0.1091945E+00
         21   -1    0    0  503  502  0.00000000000E+00  0.00000000000E+00  0.92031888709E+02  0.92031888709E+02  0.00000000000E+00 0.  1.
         21   -1    0    0  501  503 -0.00000000000E+00 -0.00000000000E+00 -0.26048913923E+04  0.26048913923E+04  0.00000000000E+00 0.  1.
         25    1    1    2    0    0  0.21213418532E+03 -0.19029396439E+03 -0.21767200664E+03  0.37976151455E+03  0.12500000000E+03 0.  0.
          2    1    1    2  501    0 -0.73950718406E+02  0.76648345925E+02 -0.14133692142E+04  0.14173765249E+04  0.00000000000E+00 0. -1.
         -2    1    1    2    0  502 -0.13818346691E+03  0.11364561846E+03 -0.88181828270E+03  0.89978524150E+03  0.00000000000E+00 0.  1.
<mgrwt>
<rscale>  4 0.28696414E+03</rscale>
<asrwt>0</asrwt>
<pdfrwt beam="1">  1       21 0.14158753E-01 0.28696414E+03</pdfrwt>
<pdfrwt beam="2">  1       21 0.40075250E+00 0.28696414E+03</pdfrwt>
<totfact> 0.33052291E+02</totfact>
</mgrwt>
</event>
<event>
 5    0  0.1702508E-001  0.2438469E+03  0.7546771E-02  0.1117256E+00
         21   -1    0    0  503  502  0.00000000000E+00  0.00000000000E+00  0.10684079821E+03  0.10684079821E+03  0.00000000000E+00 0. -1.
         21   -1    0    0  501  503 -0.00000000000E+00 -0.00000000000E+00 -0.49410458026E+03  0.49410458026E+03  0.00000000000E+00 0. -1.
         25    1    1    2    0    0  0.19320235887E+03 -0.80679270134E+02 -0.21288842573E+03  0.32370168043E+03  0.12500000000E+03 0.  0.
          1    1    1    2  501    0 -0.43850628747E+02  0.35516105860E+02 -0.26767846251E+02  0.62456296800E+02  0.00000000000E+00 0.  1.
         -1    1    1    2    0  502 -0.14935173013E+03  0.45163164274E+02 -0.14760751007E+03  0.21478740123E+03  0.00000000000E+00 0. -1.
<mgrwt>
<rscale>  4 0.24384687E+03</rscale>
<asrwt>0</asrwt>
<pdfrwt beam="1">  1       21 0.16437046E-01 0.24384687E+03</pdfrwt>
<pdfrwt beam="2">  1       21 0.76016088E-01 0.24384687E+03</pdfrwt>
<totfact> 0.50012634E+04</totfact>
</mgrwt>
</event>
<event>
 5    0  0.1702508E-001  0.3793186E+03  0.7546771E-02  0.1051186E+00
         21   -1    0    0  503  502  0.00000000000E+00  0.00000000000E+00  0.93022364626E+02  0.93022364626E+02  0.00000000000E+00 0.  1.
         21   -1    0    0  501  503 -0.00000000000E+00 -0.00000000000E+00 -0.20512742994E+04  0.20512742994E+04  0.00000000000E+00 0. -1.
         25    1    1    2    0    0 -0.36947487847E+03  0.45819228582E+02 -0.62404623964E+03  0.73733967528E+03  0.12500000000E+03 0.  0.
          3    1    1    2  501    0  0.35313074638E+03  0.26446250634E+01 -0.12956311426E+04  0.13428955193E+04  0.00000000000E+00 0. -1.
         -3    1    1    2    0  502  0.16344132089E+02 -0.48463853646E+02 -0.38574552521E+02  0.64061469435E+02  0.00000000000E+00 0.  1.
<mgrwt>
<rscale>  4 0.37931859E+03</rscale>
<asrwt>0</asrwt>
<pdfrwt beam="1">  1       21 0.14311133E-01 0.37931859E+03</pdfrwt>
<pdfrwt beam="2">  1       21 0.31558065E+00 0.37931859E+03</pdfrwt>
<totfact> 0.99373037E+02</totfact>
</mgrwt>
</event>
<event>
 5    0  0.1702508E-001  0.2632329E+03  0.7546771E-02  0.1105216E+00
         21   -1    0    0  503  502  0.00000000000E+00  0.00000000000E+00  0.14732406889E+03  0.14732406889E+03  0.00000000000E+00 0.  1.
         21   -1    0    0  501  503 -0.00000000000E+00 -0.00000000000E+00 -0.15944705869E+04  0.15944705869E+04  0.00000000000E+00 0. -1.
         25    1    1    2    0    0  0.39168770422E+02 -0.23333924137E+03 -0.33731913945E+02  0.26971139419E+03  0.12500000000E+03 0.  0.
          3    1    1    2  501    0 -0.28613532926E+02  0.14262788619E+02 -0.10290215485E+04  0.10295180954E+04  0.00000000000E+00 0. -1.
         -3    1    1    2    0  502 -0.10555237496E+02  0.21907645275E+03 -0.38439305554E+03  0.44256516620E+03  0.00000000000E+00 0.  1.
<mgrwt>
<rscale>  4 0.26323294E+03</rscale>
<asrwt>0</asrwt>
<pdfrwt beam="1">  1       21 0.22665241E-01 0.26323294E+03</pdfrwt>
<pdfrwt beam="2">  1       21 0.24530317E+00 0.26323294E+03</pdfrwt>
<totfact> 0.12024618E+03</totfact>
</mgrwt>
</event>
<event>
 5    0  0.1702508E-001  0.4261380E+03  0.7546771E-02  0.1035087E+00
         21   -1    0    0  503  502  0.00000000000E+00  0.00000000000E+00  0.46062756532E+03  0.46062756532E+03  0.00000000000E+00 0. -1.
         21   -1    0    0  501  503 -0.00000000000E+00 -0.00000000000E+00 -0.13819558528E+04  0.13819558528E+04  0.00000000000E+00 0. -1.
         25    1    1    2    0    0 -0.34272415521E+03 -0.23300267495E+03  0.22559266659E+03  0.48812615615E+03  0.12500000000E+03 0.  0.
          1    1    1    2  501    0 -0.74690006359E+02  0.18672967962E+03 -0.75036199455E+03  0.77684599063E+03  0.00000000000E+00 0.  1.
         -1    1    1    2    0  502  0.41741416157E+03  0.46272995329E+02 -0.39655895949E+03  0.57761127129E+03  0.00000000000E+00 0. -1.
<mgrwt>
<rscale>  4 0.42613798E+03</rscale>
<asrwt>0</asrwt>
<pdfrwt beam="1">  1       21 0.70865780E-01 0.42613798E+03</pdfrwt>
<pdfrwt beam="2">  1       21 0.21260859E+00 0.42613798E+03</pdfrwt>
<totfact> 0.16384781E+02</totfact>
</mgrwt>
</event>
<event>
 5    0  0.1702508E-001  0.3342413E+03  0.7546771E-02  0.1069275E+00
         21   -1    0    0  503  502  0.00000000000E+00  0.00000000000E+00  0.86853437583E+03  0.86853437583E+03  0.00000000000E+00 0. -1.
         21   -1    0    0  501  503 -0.00000000000E+00 -0.00000000000E+00 -0.54444468781E+03  0.54444468781E+03  0.00000000000E+00 0. -1.
         25    1    1    2    0    0  0.31054708812E+03  0.13806164840E+03  0.69972294264E+03  0.78786909392E+03  0.12500000000E+03 0.  0.
          1    1    1    2  501    0 -0.14133166607E+03  0.27136622589E+02 -0.36047572819E+03  0.38814145197E+03  0.00000000000E+00 0. -1.
         -1    1    1    2    0  502 -0.16921542205E+03 -0.16519827099E+03 -0.15157526429E+02  0.23696851774E+03  0.00000000000E+00 0.  1.
<mgrwt>
<rscale>  4 0.33424129E+03</rscale>
<asrwt>0</asrwt>
<pdfrwt beam="1">  1       21 0.13362067E+00 0.33424129E+03</pdfrwt>
<pdfrwt beam="2">  1       21 0.83760721E-01 0.33424129E+03</pdfrwt>
<totfact> 0.44266793E+02</totfact>
</mgrwt>
</event>
<event>
 5    0  0.1702508E-001  0.3826351E+03  0.7546771E-02  0.1049964E+00
         21   -1    0    0  503  502  0.00000000000E+00  0.00000000000E+00  0.53673037546E+03  0.53673037546E+03  0.00000000000E+00 0. -1.
         21   -1    0    0  501  503 -0.00000000000E+00 -0.00000000000E+00 -0.48267023667E+03  0.48267023667E+03  0.00000000000E+00 0.  1.
         25    1    1    2    0    0 -0.41209063497E+03  0.16021938046E+03  0.14892447887E+03  0.48300356283E+03  0.12500000000E+03 0.  0.
          1    1    1    2  501    0  0.29979460867E+03  0.34006767279E+02 -0.32037602997E+02  0.30341337415E+03  0.00000000000E+00 0.  1.
         -1    1    1    2    0  502  0.11229602629E+03 -0.19422614774E+03 -0.62826737081E+02  0.23298367514E+03  0.00000000000E+00 0. -1.
<mgrwt>
<rscale>  4 0.38263511E+03</rscale>
<asrwt>0</asrwt>
<pdfrwt beam="1">  1       21 0.82573904E-01 0.38263511E+03</pdfrwt>
<pdfrwt beam="2">  1       21 0.74256960E-01 0.38263511E+03</pdfrwt>
<totfact> 0.18433136E+03</totfact>
</mgrwt>
</event>
<event>
 5    0  0.1702508E-001  0.2840070E+03  0.7546771E-02  0.1093520E+00
         21   -1    0    0  503  502  0.00000000000E+00  0.00000000000E+00  0.40301705769E+03  0.40301705769E+03  0.00000000000E+00 0. -1.
         21   -1    0    0  501  503 -0.00000000000E+00 -0.00000000000E+00 -0.59761158460E+03  0.59761158460E+03  0.00000000000E+00 0. -1.
         25    1    1    2    0    0  0.18037030179E+03 -0.18089553963E+03  0.29436840925E+03  0.40930966565E+03  0.12500000000E+03 0.  0.
          2    1    1    2  501    0 -0.49889733805E+02 -0.43492106112E+02 -0.15349644818E+03  0.16715773520E+03  0.00000000000E+00 0.  1.
         -2    1    1    2    0  502 -0.13048056799E+03  0.22438764575E+03 -0.33546648798E+03  0.42416124144E+03  0.00000000000E+00 0. -1.
<mgrwt>
<rscale>  4 0.28400703E+03</rscale>
<asrwt>0</asrwt>
<pdfrwt beam="1">  1       21 0.62002624E-01 0.28400703E+03</pdfrwt>
<pdfrwt beam="2">  1       21 0.91940244E-01 0.28400703E+03</pdfrwt>
<totfact> 0.22554757E+03</totfact>
</mgrwt>
</event>
<event>
 5    0  0.1702508E-001  0.4414494E+03  0.7546771E-02  0.1030724E+00
         21   -1    0    0  503  502  0.00000000000E+00  0.00000000000E+00  0.16446243685E+04  0.16446243685E+04  0.00000000000E+00 0. -1.
         21   -1    0    0  501  503 -0.00000000000E+00 -0.00000000000E+00 -0.35327339845E+03  0.35327339845E+03  0.00000000000E+00 0.  1.
         25    1    1    2    0    0  0.40718523323E+03 -0.92995664123E+02  0.14612357310E+04  0.15248878219E+04  0.12500000000E+03 0.  0.
          3    1    1    2  501    0 -0.17003535078E+03  0.78939026340E+02 -0.13914681931E+03  0.23346354688E+03  0.00000000000E+00 0.  1.
         -3    1    1    2    0  502 -0.23714988245E+03  0.14056637782E+02 -0.30737941680E+02  0.23954639816E+03  0.00000000000E+00 0. -1.
<mgrwt>
<rscale>  4 0.44007405E+03</rscale>
<asrwt>0</asrwt>
<pdfrwt beam="1">  1       21 0.25301913E+00 0.44144940E+03</pdfrwt>
<pdfrwt beam="2">  1       21 0.54349754E-01 0.44144940E+03</pdfrwt>
<totfact> 0.16256930E+02</totfact>
</mgrwt>
</event>
<event>
 5    0  0.1702508E-001  0.2555425E+03  0.7546771E-02  0.1109851E+00
         21   -1    0    0  503  502  0.00000000000E+00  0.00000000000E+00  0.53367005300E+03  0.53367005300E+03  0.00000000000E+00 0. -1.
         21   -1    0    0  501  503 -0.00000000000E+00 -0.00000000000E+00 -0.76890507238E+03  0.76890507238E+03  0.00000000000E+00 0. -1.
         25    1    1    2    0    0 -0.18887591532E+03  0.13103326282E+03  0.44024926038E+03  0.51214083865E+03  0.12500000000E+03 0.  0.
          4    1    1    2  501    0  0.18733679668E+03 -0.59002921506E+02 -0.11972140099E+03  0.23002094251E+03  0.00000000000E+00 0.  1.
         -4    1    1    2    0  502  0.15391186370E+01 -0.72030341315E+02 -0.55576287877E+03  0.56041334422E+03  0.00000000000E+00 0. -1.
<mgrwt>
<rscale>  4 0.25554253E+03</rscale>
<asrwt>0</asrwt>
<pdfrwt beam="1">  1       21 0.82103085E-01 0.25554253E+03</pdfrwt>
<pdfrwt beam="2">  1       21 0.11829309E+00 0.25554253E+03</pdfrwt>
<totfact> 0.66874172E+02</totfact>
</mgrwt>
</event>
<event>
 5    0  0.1702508E-001  0.2963878E+03  0.7546771E-02  0.1087060E+00
         21   -1    0    0  503  502  0.00000000000E+00  0.00000000000E+00  0.76893820235E+03  0.76893820235E+03  0.00000000000E+00 0.  1.
         21   -1    0    0  501  503 -0.00000000000E+00 -0.00000000000E+00 -0.15570107388E+03  0.15570107388E+03  0.00000000000E+00 0. -1.
         25    1    1    2    0    0 -0.24544721683E+03 -0.98320108124E+02  0.53029448944E+03  0.60559757714E+03  0.12500000000E+03 0.  0.
          3    1    1    2  501    0  0.25545591046E+03  0.11599277936E+03  0.94039638177E+02  0.29589778742E+03  0.00000000000E+00 0. -1.
         -3    1    1    2    0  502 -0.10008693632E+02 -0.17672671238E+02 -0.11096999147E+02  0.23143911661E+02  0.00000000000E+00 0.  1.
<mgrwt>
<rscale>  4 0.29638775E+03</rscale>
<asrwt>0</asrwt>
<pdfrwt beam="1">  1       21 0.11829818E+00 0.29638775E+03</pdfrwt>
<pdfrwt beam="2">  1       21 0.23954012E-01 0.29638775E+03</pdfrwt>
<totfact> 0.84400551E+03</totfact>
</mgrwt>
</event>
<event>
 5    0  0.1702508E-001  0.2615264E+03  0.7546771E-02  0.1106230E+00
         21   -1    0    0  503  502  0.00000000000E+00  0.00000000000E+00  0.66217903393E+03  0.66217903393E+03  0.00000000000E+00 0. -1.
         21   -1    0    0  501  503 -0.00000000000E+00 -0.00000000000E+00 -0.21802462923E+03  0.21802462923E+03  0.00000000000E+00 0. -1.
         25    1    1    2    0    0  0.84763290452E+02 -0.21345093946E+03  0.54453908689E+03  0.60406451321E+03  0.12500000000E+03 0.  0.
          1    1    1    2  501    0 -0.21044654640E+02 -0.85398450329E+01 -0.23604576256E+02  0.32756411011E+02  0.00000000000E+00 0.  1.
         -1    1    1    2    0  502 -0.63718635812E+02  0.22199078449E+03 -0.76780105934E+02  0.24338273894E+03  0.00000000000E+00 0. -1.
<mgrwt>
<rscale>  4 0.26152635E+03</rscale>
<asrwt>0</asrwt>
<pdfrwt beam="1">  1       21 0.10187370E+00 0.26152635E+03</pdfrwt>
<pdfrwt beam="2">  1       21 0.33542251E-01 0.26152635E+03</pdfrwt>
<totfact> 0.64208141E+03</totfact>
</mgrwt>
</event>
<event>
 5    0  0.1702508E-001  0.4299287E+03  0.7546771E-02  0.1033883E+00
         21   -1    0    0  503  502  0.00000000000E+00  0.00000000000E+00  0.22454754711E+03  0.22454754711E+03  0.00000000000E+00 0.  1.
         21   -1    0    0  501  503 -0.00000000000E+00 -0.00000000000E+00 -0.97100898641E+03  0.97100898641E+03  0.00000000000E+00 0.  1.
         25    1    1    2    0    0 -0.37482679638E+03 -0.39189281727E+02 -0.35513678651E+03  0.53270823554E+03  0.12500000000E+03 0.  0.
          4    1    1    2  501    0  0.43821110237E+03  0.45503324753E+02 -0.24697808571E+03  0.50507197272E+03  0.00000000000E+00 0.  1.
         -4    1    1    2    0  502 -0.63384305996E+02 -0.63140430264E+01 -0.14434656709E+03  0.15777632527E+03  0.00000000000E+00 0. -1.
<mgrwt>
<rscale>  4 0.42992865E+03</rscale>
<asrwt>0</asrwt>
<pdfrwt beam="1">  1       21 0.34545777E-01 0.42992865E+03</pdfrwt>
<pdfrwt beam="2">  1       21 0.14938600E+00 0.42992865E+03</pdfrwt>
<totfact> 0.21080923E+03</totfact>
</mgrwt>
</event>
<event>
 5    0  0.1702508E-001  0.3453098E+03  0.7546771E-02  0.1064557E+00
         21   -1    0    0  503  502  0.00000000000E+00  0.00000000000E+00  0.15992772835E+04  0.15992772835E+04  0.00000000000E+00 0.  1.
         21   -1    0    0  501  503 -0.00000000000E+00 -0.00000000000E+00 -0.20608490394E+03  0.20608490394E+03  0.00000000000E+00 0. -1.
         25    1    1    2    0    0 -0.31388749027E+03 -0.15538550180E+02  0.91575725039E+03  0.97621879962E+03  0.12500000000E+03 0.  0.
          3    1    1    2  501    0 -0.19165186599E+02  0.24097232950E+02 -0.13148342834E+03  0.13504026415E+03  0.00000000000E+00 0. -1.
         -3    1    1    2    0  502  0.33305267687E+03 -0.85586827699E+01  0.60891855748E+03  0.69410312365E+03  0.00000000000E+00 0.  1.
<mgrwt>
<rscale>  4 0.34530979E+03</rscale>
<asrwt>0</asrwt>
<pdfrwt beam="1">  1       21 0.24604265E+00 0.34530979E+03</pdfrwt>
<pdfrwt beam="2">  1       21 0.31705371E-01 0.34530979E+03</pdfrwt>
<totfact> 0.58102842E+02</totfact>
</mgrwt>
</event>
<event>
 5    0  0.1702508E-001  0.2566632E+03  0.7546771E-02  0.1109165E+00
         21   -1    0    0  503  502  0.00000000000E+00  0.00000000000E+00  0.68370211631E+03  0.68370211631E+03  0.00000000000E+00 0.  1.
         21   -1    0    0  501  503 -0.00000000000E+00 -0.00000000000E+00 -0.23861278408E+03  0.23861278408E+03  0.00000000000E+00 0.  1.
         25    1    1    2    0    0  0.10159616480E+01  0.21794665082E+03  0.31008574523E+03  0.39909891528E+03  0.12500000000E+03 0.  0.
          1    1    1    2  501    0  0.20554706985E+02  0.11271731903E+02 -0.15283792984E+03  0.15462529132E+03  0.00000000000E+00 0. -1.
         -1    1    1    2    0  502 -0.21570668633E+02 -0.22921838273E+03  0.28784151684E+03  0.36859069378E+03  0.00000000000E+00 0.  1.
<mgrwt>
<rscale>  4 0.25666318E+03</rscale>
<asrwt>0</asrwt>
<pdfrwt beam="1">  1       21 0.10518494E+00 0.25666318E+03</pdfrwt>
<pdfrwt beam="2">  1       21 0.36709659E-01 0.25666318E+03</pdfrwt>
<totfact> 0.49764132E+03</totfact>
</mgrwt>
</event>
<event>
 5    0  0.1702508E-001  0.4441791E+03  0.7546771E-02  0.1029472E+00
         21   -1    0    0  503  502  0.00000000000E+00  0.00000000000E+00  0.52921643343E+03  0.52921643343E+03  0.00000000000E+00 0.  1.
         21   -1    0    0  501  503 -0.00000000000E+00 -0.00000000000E+00 -0.41498142307E+03  0.41498142307E+03  0.00000000000E+00 0.  1.
         25    1    1    2    0    0  0.36228660916E+03  0.22454060776E+03 -0.95167629954E+02  0.45425978196E+03  0.12500000000E+03 0.  0.
          3    1    1    2  501    0 -0.23829067209E+02 -0.60353210426E+02  0.47409870994E+02  0.80361871061E+02  0.00000000000E+00 0. -1.
         -3    1    1    2    0  502 -0.33845754195E+03 -0.16418739734E+03  0.16199276932E+03  0.40957620348E+03  0.00000000000E+00 0.  1.
<mgrwt>
<rscale>  4 0.44417910E+03</rscale>
<asrwt>0</asrwt>
<pdfrwt beam="1">  1       21 0.81417913E-01 0.44417910E+03</pdfrwt>
<pdfrwt beam="2">  1       21 0.63843295E-01 0.44417910E+03</pdfrwt>
<totfact> 0.26059035E+03</totfact>
</mgrwt>
</event>
<event>
 5    0  0.1702508E-001  0.2701420E+03  0.7546771E-02  0.1101198E+00
         21   -1    0    0  503  502  0.00000000000E+00  0.00000000000E+00  0.39137877460E+03  0.39137877460E+03  0.00000000000E+00 0.  1.
         21   -1    0    0  501  503 -0.00000000000E+00 -0.00000000000E+00 -0.30983491041E+03  0.30983491041E+03  0.00000000000E+00 0.  1.
         25    1    1    2    0    0  0.22494549770E+03  0.82165948459E+02  0.27603688815E+03  0.38622931484E+03  0.12500000000E+03 0.  0.
          1    1    1    2  501    0 -0.20197960942E+03 -0.92485995573E+02 -0.16872811372E+03  0.27895985080E+03  0.00000000000E+00 0.  1.
         -1    1    1    2    0  502 -0.22965888285E+02  0.10320047114E+02 -0.25764910231E+02  0.36024519378E+02  0.00000000000E+00 0. -1.
<mgrwt>
<rscale>  4 0.27014204E+03</rscale>
<asrwt>0</asrwt>
<pdfrwt beam="1">  1       21 0.60212120E-01 0.27014204E+03</pdfrwt>
<pdfrwt beam="2">  1       21 0.47666909E-01 0.27014204E+03</pdfrwt>
<totfact> 0.10335612E+04</totfact>
</mgrwt>
</event>
<event>
 5    0  0.1702508E-001  0.2402169E+03  0.7546771E-02  0.1119648E+00
         21   -1    0    0  503  502  0.00000000000E+00  0.00000000000E+00  0.10237517383E+04  0.10237517383E+04  0.00000000000E+00 0.  1.
         21   -1    0    0  501  503 -0.00000000000E+00 -0.00000000000E+00 -0.12701275567E+04  0.12701275567E+04  0.00000000000E+00 0. -1.
         25    1    1    2    0    0 -0.12395017552E+03 -0.16859904111E+03  0.96489304560E+03  0.99520493976E+03  0.12500000000E+03 0.  0.
          3    1    1    2  501    0 -0.76625159763E+02  0.16109734317E+03 -0.96316931927E+03  0.97955035944E+03  0.00000000000E+00 0.  1.
         -3    1    1    2    0  502  0.20057533529E+03  0.75016979443E+01 -0.24809954477E+03  0.31912399582E+03  0.00000000000E+00 0. -1.
<mgrwt>
<rscale>  4 0.24021685E+03</rscale>
<asrwt>0</asrwt>
<pdfrwt beam="1">  1       21 0.15750027E+00 0.24021685E+03</pdfrwt>
<pdfrwt beam="2">  1       21 0.19540424E+00 0.24021685E+03</pdfrwt>
<totfact> 0.35211409E+01</totfact>
</mgrwt>
</event>
<event>
 5    0  0.1702508E-001  0.3887353E+03  0.7546771E-02  0.1047752E+00
         21   -1    0    0  503  502  0.00000000000E+00  0.00000000000E+00  0.39570342945E+03  0.39570342945E+03  0.00000000000E+00 0. -1.
         21   -1    0    0  501  503 -0.00000000000E+00 -0.00000000000E+00 -0.85481816705E+03  0.85481816705E+03  0.00000000000E+00 0.  1.
         25    1    1    2    0    0 -0.31121172457E+03  0.50907666690E+02  0.95926893277E+01  0.33935431001E+03  0.12500000000E+03 0.  0.
          1    1    1    2  501    0  0.45819639907E+03  0.51539382258E+02 -0.60074994350E+02  0.46498306743E+03  0.00000000000E+00 0. -1.
         -1    1    1    2    0  502 -0.14698467450E+03 -0.10244704895E+03 -0.40863243258E+03  0.44618421905E+03  0.00000000000E+00 0.  1.
<mgrwt>
<rscale>  4 0.38873526E+03</rscale>
<asrwt>0</asrwt>
<pdfrwt beam="1">  1       21 0.60877451E-01 0.38873526E+03</pdfrwt>
<pdfrwt beam="2">  1       21 0.13151049E+00 0.38873526E+03</pdfrwt>
<totfact> 0.91696892E+02</totfact>
</mgrwt>
</event>
<event>
 5    0  0.1702508E-001  0.2125641E+03  0.7546771E-02  0.1139551E+00
         21   -1    0    0  503  502  0.00000000000E+00  0.00000000000E+00  0.15800043569E+04  0.15800043569E+04  0.00000000000E+00 0.  1.
         21   -1    0    0  501  503 -0.00000000000E+00 -0.00000000000E+00 -0.74302553155E+02  0.74302553155E+02  0.00000000000E+00 0.  1.
         25    1    1    2    0    0  0.13447686256E+03 -0.15000824689E+03  0.12136446787E+04  0.12365859885E+04  0.12500000000E+03 0.  0.
          1    1    1    2  501    0 -0.27636660630E+02  0.64802781107E+02 -0.23157744549E+02  0.74158388484E+02  0.00000000000E+00 0. -1.
         -1    1    1    2    0  502 -0.10684020193E+03  0.85205465783E+02  0.31521486958E+03  0.34356253311E+03  0.00000000000E+00 0.  1.
<mgrwt>
<rscale>  4 0.21256409E+03</rscale>
<asrwt>0</asrwt>
<pdfrwt beam="1">  1       21 0.24307757E+00 0.21256409E+03</pdfrwt>
<pdfrwt beam="2">  1       21 0.11431163E-01 0.21256409E+03</pdfrwt>
<totfact> 0.45833093E+03</totfact>
</mgrwt>
</event>
<event>
 5    0  0.1702508E-001  0.2274049E+03  0.7546771E-02  0.1128480E+00
         21   -1    0    0  503  502  0.00000000000E+00  0.00000000000E+00  0.14621049983E+03  0.14621049983E+03  0.00000000000E+00 0. -1.
         21   -1    0    0  501  503 -0.00000000000E+00 -0.00000000000E+00 -0.99032491394E+03  0.99032491394E+03  0.00000000000E+00 0.  1.
         25    1    1    2    0    0 -0.24221273651E+03  0.20323896070E+02 -0.60897190138E+02  0.28002417440E+03  0.12500000000E+03 0.  0.
          1    1    1    2  501    0  0.10031341113E+03 -0.12965881377E+02 -0.66217122556E+03  0.66985194371E+03  0.00000000000E+00 0.  1.
         -1    1    1    2    0  502  0.14189932538E+03 -0.73580146929E+01 -0.12104599841E+03  0.18665929566E+03  0.00000000000E+00 0. -1.
<mgrwt>
<rscale>  4 0.22740495E+03</rscale>
<asrwt>0</asrwt>
<pdfrwt beam="1">  1       21 0.22493923E-01 0.22740495E+03</pdfrwt>
<pdfrwt beam="2">  1       21 0.15235768E+00 0.22740495E+03</pdfrwt>
<totfact> 0.51648389E+03</totfact>
</mgrwt>
</event>
<event>
 5    0  0.1702508E-001  0.2344547E+03  0.7546771E-02  0.1123543E+00
         21   -1    0    0  503  502  0.00000000000E+00  0.00000000000E+00  0.45666970109E+03  0.45666970109E+03  0.00000000000E+00 0.  1.
         21   -1    0    0  501  503 -0.00000000000E+00 -0.00000000000E+00 -0.16332315561E+03  0.16332315561E+03  0.00000000000E+00 0. -1.
         25    1    1    2    0    0  0.34310226863E+02  0.20037011820E+03  0.69412092487E+02  0.24853252206E+03  0.12500000000E+03 0.  0.
          3    1    1    2  501    0  0.56308166279E+02 -0.19481505797E+03  0.17743676183E+03  0.26945745647E+03  0.00000000000E+00 0. -1.
         -3    1    1    2    0  502 -0.90618393142E+02 -0.55550602336E+01  0.46497691167E+02  0.10200287816E+03  0.00000000000E+00 0.  1.
<mgrwt>
<rscale>  4 0.23445474E+03</rscale>
<asrwt>0</asrwt>
<pdfrwt beam="1">  1       21 0.70256877E-01 0.23445474E+03</pdfrwt>
<pdfrwt beam="2">  1       21 0.25126640E-01 0.23445474E+03</pdfrwt>
<totfact> 0.26962384E+04</totfact>
</mgrwt>
</event>
<event>
 5    0  0.1702508E-001  0.2555373E+03  0.7546771E-02  0.1109855E+00
         21   -1    0    0  503  502  0.00000000000E+00  0.00000000000E+00  0.10096695329E+04  0.10096695329E+04  0.00000000000E+00 0.  1.
         21   -1    0    0  501  503 -0.00000000000E+00 -0.00000000000E+00 -0.61950255588E+03  0.61950255588E+03  0.00000000000E+00 0.  1.
         25    1    1    2    0    0 -0.37462705918E+02  0.22040185484E+03  0.96973164772E+03  0.10029879862E+04  0.12500000000E+03 0.  0.
          1    1    1    2  501    0  0.52611437680E+02 -0.19710763706E+03 -0.45634318188E+03  0.49986846631E+03  0.00000000000E+00 0.  1.
         -1    1    1    2    0  502 -0.15148731762E+02 -0.23294217777E+02 -0.12322148880E+03  0.12631563624E+03  0.00000000000E+00 0. -1.
<mgrwt>
<rscale>  4 0.25553735E+03</rscale>
<asrwt>0</asrwt>
<pdfrwt beam="1">  1       21 0.15533377E+00 0.25553735E+03</pdfrwt>
<pdfrwt beam="2">  1       21 0.95308086E-01 0.25553735E+03</pdfrwt>
<totfact> 0.23381296E+02</totfact>
</mgrwt>
</event>
<event>
 5    0  0.1702508E-001  0.2075345E+03  0.7546771E-02  0.1143533E+00
         21   -1    0    0  503  502  0.00000000000E+00  0.00000000000E+00  0.58204987023E+03  0.58204987023E+03  0.00000000000E+00 0. -1.
         21   -1    0    0  501  503 -0.00000000000E+00 -0.00000000000E+00 -0.23714421746E+03  0.23714421746E+03  0.00000000000E+00 0. -1.
         25    1    1    2    0    0  0.20735698169E+03 -0.54867531513E+02  0.10980918266E+03  0.27145979530E+03  0.12500000000E+03 0.  0.
          4    1    1    2  501    0 -0.50648320177E+02  0.49487507039E+02 -0.13131012015E+03  0.14918650523E+03  0.00000000000E+00 0.  1.
         -4    1    1    2    0  502 -0.15670866151E+03  0.53800244744E+01  0.36640659026E+03  0.39854778715E+03  0.00000000000E+00 0. -1.
<mgrwt>
<rscale>  4 0.20753452E+03</rscale>
<asrwt>0</asrwt>
<pdfrwt beam="1">  1       21 0.89546133E-01 0.20753452E+03</pdfrwt>
<pdfrwt beam="2">  1       21 0.36483726E-01 0.20753452E+03</pdfrwt>
<totfact> 0.76186007E+03</totfact>
</mgrwt>
</event>
<event>
 5    0  0.1702508E-001  0.2934898E+03  0.7546771E-02  0.1088541E+00
         21   -1    0    0  503  502  0.00000000000E+00  0.00000000000E+00  0.33618682120E+03  0.33618682120E+03  0.00000000000E+00 0.  1.
         21   -1    0    0  501  503 -0.00000000000E+00 -0.00000000000E+00 -0.92464149541E+03  0.92464149541E+03  0.00000000000E+00 0. -1.
         25    1    1    2    0    0  0.22910356644E+03 -0.12238165190E+03  0.15965072278E+03  0.32951337782E+03  0.12500000000E+03 0.  0.
          1    1    1    2  501    0  0.15893415519E+02 -0.13638779245E+02 -0.62481947150E+03  0.62517036792E+03  0.00000000000E+00 0. -1.
         -1    1    1    2    0  502 -0.24499698196E+03  0.13602043115E+03 -0.12328592548E+03  0.30614457088E+03  0.00000000000E+00 0.  1.
<mgrwt>
<rscale>  4 0.29348983E+03</rscale>
<asrwt>0</asrwt>
<pdfrwt beam="1">  1       21 0.51721050E-01 0.29348983E+03</pdfrwt>
<pdfrwt beam="2">  1       21 0.14225254E+00 0.29348983E+03</pdfrwt>
<totfact> 0.11208295E+03</totfact>
</mgrwt>
</event>
<event>
 5    0  0.1702508E-001  0.2656147E+03  0.7546771E-02  0.1103816E+00
         21   -1    0    0  503  502  0.00000000000E+00  0.00000000000E+00  0.26380421982E+03  0.26380421982E+03  0.00000000000E+00 0. -1.
         21   -1    0    0  501  503 -0.00000000000E+00 -0.00000000000E+00 -0.38255731367E+03  0.38255731367E+03  0.00000000000E+00 0. -1.
         25    1    1    2    0    0  0.15617051513E+03  0.18562571057E+03  0.10616140627E+03  0.29281628780E+03  0.12500000000E+03 0.  0.
          1    1    1    2  501    0 -0.14673244028E+03 -0.16094300242E+03 -0.12697333641E+03  0.25210173981E+03  0.00000000000E+00 0. -1.
         -1    1    1    2    0  502 -0.94380748529E+01 -0.24682708149E+02 -0.97941163709E+02  0.10144350589E+03  0.00000000000E+00 0.  1.
<mgrwt>
<rscale>  4 0.26561469E+03</rscale>
<asrwt>0</asrwt>
<pdfrwt beam="1">  1       21 0.40585265E-01 0.26561469E+03</pdfrwt>
<pdfrwt beam="2">  1       21 0.58854971E-01 0.26561469E+03</pdfrwt>
<totfact> 0.15165801E+04</totfact>
</mgrwt>
</event>
