<event>
 5    0  0.3888462E+000  0.2424610E+03  0.7546771E-02  0.1118164E+00
          1   -1    0    0  503    0 -0.00000000000E+00  0.00000000000E+00  0.13772508937E+03  0.13772508937E+03  0.00000000000E+00 0. -1.
         21   -1    0    0  501  502  0.00000000000E+00 -0.00000000000E+00 -0.18725803524E+04  0.18725803524E+04  0.00000000000E+00 0.  1.
         25    1    1    2    0    0  0.20411433741E+03  0.10733591956E+03 -0.17154961945E+04  0.17354353505E+04  0.12500000000E+03 0.  0.
         21    1    1    2  503  502 -0.11811753663E+03 -0.12873102044E+02  0.50692560592E+02  0.12917896468E+03  0.00000000000E+00 0. -1.
          1    1    1    2  501    0 -0.85996800776E+02 -0.94462817514E+02 -0.70051629150E+02  0.14569112664E+03  0.00000000000E+00 0. -1.
<mgrwt>
<rscale>  4 0.24246102E+03</rscale>
<asrwt>0</asrwt>
<pdfrwt beam="1">  1       21 0.28808926E+00 0.24246102E+03</pdfrwt>
<pdfrwt beam="2">  1        1 0.21188477E-01 0.24246102E+03</pdfrwt>
<totfact> 0.97047306E+01</totfact>
</mgrwt>
</event>
<event>
 5    0  0.3888462E+000  0.3158735E+03  0.7546771E-02  0.1077564E+00
          2   -1    0    0  503    0 -0.00000000000E+00  0.00000000000E+00  0.33296416764E+04  0.33296416764E+04  0.00000000000E+00 0. -1.
         21   -1    0    0  501  502  0.00000000000E+00 -0.00000000000E+00 -0.14594426597E+03  0.14594426597E+03  0.00000000000E+00 0. -1.
         25    1    1    2    0    0  0.24017191008E+03 -0.15968538146E+03  0.47221331966E+02  0.31786289754E+03  0.12500000000E+03 0.  0.
         21    1    1    2  503  502  0.30945541403E+02  0.43768749034E+01  0.77962487715E+03  0.78025107026E+03  0.00000000000E+00 0. -1.
          2    1    1    2  501    0 -0.27111745148E+03  0.15530850656E+03  0.23568512013E+04  0.23774719746E+04  0.00000000000E+00 0. -1.
<mgrwt>
<rscale>  4 0.31587355E+03</rscale>
<asrwt>0</asrwt>
<pdfrwt beam="1">  1       21 0.22452966E-01 0.31587355E+03</pdfrwt>
<pdfrwt beam="2">  1        2 0.51225251E+00 0.31587355E+03</pdfrwt>
<totfact> 0.29369530E+02</totfact>
</mgrwt>
</event>
<event>
 5    0  0.3888462E+000  0.3222539E+03  0.7546771E-02  0.1074617E+00
         21   -1    0    0  501  502  0.00000000000E+00  0.00000000000E+00  0.61395130976E+03  0.61395130976E+03  0.00000000000E+00 0.  1.
          3   -1    0    0  503    0 -0.00000000000E+00 -0.00000000000E+00 -0.16822936861E+04  0.16822936861E+04  0.00000000000E+00 0.  1.
         25    1    1    2    0    0  0.10914598665E+03 -0.22726668149E+03 -0.34113882023E+03  0.44222583098E+03  0.12500000000E+03 0.  0.
         21    1    1    2  503  502 -0.12564767217E+03  0.27424732266E+03  0.52249761593E+03  0.60332635461E+03  0.00000000000E+00 0.  1.
          3    1    1    2  501    0  0.16501685527E+02 -0.46980641171E+02 -0.12497011720E+04  0.12506928103E+04  0.00000000000E+00 0.  1.
<mgrwt>
<rscale>  4 0.32225395E+03</rscale>
<asrwt>0</asrwt>
<pdfrwt beam="1">  1       21 0.94454047E-01 0.32225395E+03</pdfrwt>
<pdfrwt beam="2">  1        3 0.25881441E+00 0.32225395E+03</pdfrwt>
<totfact> 0.31895851E+00</totfact>
</mgrwt>
</event>
<event>
 5    0  0.3888462E+000  0.2029526E+03  0.7546771E-02  0.1147272E+00
         -1   -1    0    0    0  501 -0.00000000000E+00  0.00000000000E+00  0.21485047743E+03  0.21485047743E+03  0.00000000000E+00 0. -1.
         21   -1    0    0  503  502  0.00000000000E+00 -0.00000000000E+00 -0.14284019029E+04  0.14284019029E+04  0.00000000000E+00 0. -1.
         25    1    1    2    0    0  0.18637400528E+03  0.95070589428E+02 -0.30510257370E+03  0.39049490047E+03  0.12500000000E+03 0.  0.
         21    1    1    2  503  501 -0.15497485636E+03 -0.10013622906E+02 -0.10626165890E+04  0.10739047882E+04  0.00000000000E+00 0. -1.
         -1    1    1    2    0  502 -0.31399148921E+02 -0.85056966522E+02  0.15416773727E+03  0.17885269168E+03  0.00000000000E+00 0. -1.
<mgrwt>
<rscale>  4 0.20295256E+03</rscale>
<asrwt>0</asrwt>
<pdfrwt beam="1">  1       21 0.21975414E+00 0.20295256E+03</pdfrwt>
<pdfrwt beam="2">  1       -1 0.33053919E-01 0.20295256E+03</pdfrwt>
<totfact> 0.79197834E+01</totfact>
</mgrwt>
</event>
<event>
 5    0  0.3888462E+000  0.2711997E+03  0.7546771E-02  0.1100595E+00
          2   -1    0    0  503    0 -0.00000000000E+00  0.00000000000E+00  0.20828050995E+04  0.20828050995E+04  0.00000000000E+00 0. -1.
         21   -1    0    0  501  502  0.00000000000E+00 -0.00000000000E+00 -0.82872147848E+02  0.82872147848E+02  0.00000000000E+00 0. -1.
         25    1    1    2    0    0  0.20708823124E+03  0.10481085072E+03  0.29123411644E+03  0.39282713823E+03  0.12500000000E+03 0.  0.
         21    1    1    2  503  502 -0.22529609321E+03 -0.11564278228E+03  0.46927618884E+03  0.53324640095E+03  0.00000000000E+00 0. -1.
          2    1    1    2  501    0  0.18207861970E+02  0.10831931558E+02  0.12394226463E+04  0.12396037081E+04  0.00000000000E+00 0. -1.
<mgrwt>
<rscale>  4 0.27119971E+03</rscale>
<asrwt>0</asrwt>
<pdfrwt beam="1">  1       21 0.12749563E-01 0.27119971E+03</pdfrwt>
<pdfrwt beam="2">  1        2 0.32043152E+00 0.27119971E+03</pdfrwt>
<totfact> 0.44310080E+03</totfact>
</mgrwt>
</event>
<event>
 5    0  0.3888462E+000  0.3465820E+03  0.7546771E-02  0.1064027E+00
          2   -1    0    0  503    0 -0.00000000000E+00  0.00000000000E+00  0.15371504383E+04  0.15371504383E+04  0.00000000000E+00 0.  1.
         21   -1    0    0  501  502  0.00000000000E+00 -0.00000000000E+00 -0.23570109133E+03  0.23570109133E+03  0.00000000000E+00 0. -1.
         25    1    1    2    0    0  0.26489310468E+02 -0.38625804813E+03  0.29921006455E+02  0.40794267973E+03  0.12500000000E+03 0.  0.
         21    1    1    2  503  502  0.65044191636E+02  0.82575402553E+02  0.80580834631E+02  0.13244891424E+03  0.00000000000E+00 0. -1.
          2    1    1    2  501    0 -0.91533502104E+02  0.30368264558E+03  0.11909475059E+04  0.12324599357E+04  0.00000000000E+00 0.  1.
<mgrwt>
<rscale>  4 0.34658204E+03</rscale>
<asrwt>0</asrwt>
<pdfrwt beam="1">  1       21 0.36261707E-01 0.34658204E+03</pdfrwt>
<pdfrwt beam="2">  1        2 0.23648468E+00 0.34658204E+03</pdfrwt>
<totfact> 0.11436030E+03</totfact>
</mgrwt>
</event>
<event>
 5    0  0.3888462E+000  0.3027716E+03  0.7546771E-02  0.1083863E+00
         21   -1    0    0  501  502  0.00000000000E+00  0.00000000000E+00  0.33090939379E+03  0.33090939379E+03  0.00000000000E+00 0.  1.
          2   -1    0    0  503    0 -0.00000000000E+00 -0.00000000000E+00 -0.34531009254E+04  0.34531009254E+04  0.00000000000E+00 0. -1.
         25    1    1    2    0    0 -0.66432825855E+02  0.26752510285E+03  0.23913879337E+03  0.38574002061E+03  0.12500000000E+03 0.  0.
         21    1    1    2  503  502 -0.57954846462E+02 -0.29928585037E+03 -0.14030056113E+04  0.14357421529E+04  0.00000000000E+00 0.  1.
          2    1    1    2  501    0  0.12438767232E+03  0.31760747514E+02 -0.19583247137E+04  0.19625281456E+04  0.00000000000E+00 0. -1.
<mgrwt>
<rscale>  4 0.30277164E+03</rscale>
<asrwt>0</asrwt>
<pdfrwt beam="1">  1       21 0.50909139E-01 0.30277164E+03</pdfrwt>
<pdfrwt beam="2">  1        2 0.53124628E+00 0.30277164E+03</pdfrwt>
<totfact> 0.47808915E+01</totfact>
</mgrwt>
</event>
<event>
 5    0  0.3888462E+000  0.2661441E+03  0.7546771E-02  0.1103507E+00
         21   -1    0    0  501  502  0.00000000000E+00  0.00000000000E+00  0.14344669863E+04  0.14344669863E+04  0.00000000000E+00 0.  1.
          2   -1    0    0  503    0 -0.00000000000E+00 -0.00000000000E+00 -0.48196256316E+03  0.48196256316E+03  0.00000000000E+00 0.  1.
         25    1    1    2    0    0 -0.13485125308E+03 -0.17985735258E+03  0.11860055127E+04  0.12135763692E+04  0.12500000000E+03 0.  0.
         21    1    1    2  503  502  0.21943478289E+03  0.23187478620E+03  0.11588714559E+03  0.33962828347E+03  0.00000000000E+00 0.  1.
          2    1    1    2  501    0 -0.84583529815E+02 -0.52017433621E+02 -0.34938823506E+03  0.36322489688E+03  0.00000000000E+00 0.  1.
<mgrwt>
<rscale>  4 0.26614411E+03</rscale>
<asrwt>0</asrwt>
<pdfrwt beam="1">  1       21 0.22068723E+00 0.26614411E+03</pdfrwt>
<pdfrwt beam="2">  1        2 0.74148087E-01 0.26614411E+03</pdfrwt>
<totfact> 0.75764011E+01</totfact>
</mgrwt>
</event>
<event>
 5    0  0.3888462E+000  0.3533457E+03  0.7546771E-02  0.1061250E+00
         21   -1    0    0  501  502  0.00000000000E+00  0.00000000000E+00  0.41156113933E+03  0.41156113933E+03  0.00000000000E+00 0. -1.
          2   -1    0    0  503    0 -0.00000000000E+00 -0.00000000000E+00 -0.10856353971E+04  0.10856353971E+04  0.00000000000E+00 0. -1.
         25    1    1    2    0    0 -0.21444160959E+03 -0.20191319731E+03 -0.30255318141E+03  0.44036072799E+03  0.12500000000E+03 0.  0.
         21    1    1    2  503  502  0.23599875131E+03  0.24290671863E+03  0.25791466432E+03  0.42569831882E+03  0.00000000000E+00 0. -1.
          2    1    1    2  501    0 -0.21557141720E+02 -0.40993521317E+02 -0.62943574067E+03  0.63113748960E+03  0.00000000000E+00 0. -1.
<mgrwt>
<rscale>  4 0.35334573E+03</rscale>
<asrwt>0</asrwt>
<pdfrwt beam="1">  1       21 0.63317100E-01 0.35334573E+03</pdfrwt>
<pdfrwt beam="2">  1        2 0.16702083E+00 0.35334573E+03</pdfrwt>
<totfact> 0.63350403E+02</totfact>
</mgrwt>
</event>
<event>
 5    0  0.3888462E+000  0.3022757E+03  0.7546771E-02  0.1084109E+00
          1   -1    0    0  503    0 -0.00000000000E+00  0.00000000000E+00  0.38917351680E+03  0.38917351680E+03  0.00000000000E+00 0.  1.
         21   -1    0    0  501  502  0.00000000000E+00 -0.00000000000E+00 -0.39802703677E+03  0.39802703677E+03  0.00000000000E+00 0.  1.
         25    1    1    2    0    0  0.19623596533E+03  0.23723324795E+03 -0.18246197157E+03  0.37908513436E+03  0.12500000000E+03 0.  0.
         21    1    1    2  503  502 -0.16916617185E+03 -0.16155076335E+03  0.20024184553E+02  0.23476969737E+03  0.00000000000E+00 0.  1.
          1    1    1    2  501    0 -0.27069793486E+02 -0.75682484599E+02  0.15358426705E+03  0.17334572184E+03  0.00000000000E+00 0.  1.
<mgrwt>
<rscale>  4 0.30227567E+03</rscale>
<asrwt>0</asrwt>
<pdfrwt beam="1">  1       21 0.61234929E-01 0.30227567E+03</pdfrwt>
<pdfrwt beam="2">  1        1 0.59872849E-01 0.30227567E+03</pdfrwt>
<totfact> 0.16443313E+03</totfact>
</mgrwt>
</event>
<event>
 5    0  0.3888462E+000  0.2618921E+03  0.7546771E-02  0.1106012E+00
         21   -1    0    0  501  502  0.00000000000E+00  0.00000000000E+00  0.16975685025E+03  0.16975685025E+03  0.00000000000E+00 0.  1.
          1   -1    0    0  503    0 -0.00000000000E+00 -0.00000000000E+00 -0.43605230520E+04  0.43605230520E+04  0.00000000000E+00 0. -1.
         25    1    1    2    0    0  0.23093122779E+03  0.25802221170E+02  0.47330645819E+02  0.26806748520E+03  0.12500000000E+03 0.  0.
         21    1    1    2  503  502 -0.20073635503E+03 -0.84413463371E+02 -0.99961812623E+03  0.10230626155E+04  0.00000000000E+00 0.  1.
          1    1    1    2  501    0 -0.30194872760E+02  0.58611242200E+02 -0.32384787213E+04  0.32391498015E+04  0.00000000000E+00 0. -1.
<mgrwt>
<rscale>  4 0.26189214E+03</rscale>
<asrwt>0</asrwt>
<pdfrwt beam="1">  1       21 0.26116437E-01 0.26189214E+03</pdfrwt>
<pdfrwt beam="2">  1        1 0.67084974E+00 0.26189214E+03</pdfrwt>
<totfact> 0.92020168E+00</totfact>
</mgrwt>
</event>
<event>
 5    0  0.3888462E+000  0.2952179E+03  0.7546771E-02  0.1087656E+00
         21   -1    0    0  501  502  0.00000000000E+00  0.00000000000E+00  0.38313590574E+03  0.38313590574E+03  0.00000000000E+00 0. -1.
          2   -1    0    0  503    0 -0.00000000000E+00 -0.00000000000E+00 -0.47635685452E+03  0.47635685452E+03  0.00000000000E+00 0. -1.
         25    1    1    2    0    0  0.22482544326E+03  0.15085127225E+03  0.23767467020E+03  0.38133559384E+03  0.12500000000E+03 0.  0.
         21    1    1    2  503  502 -0.24697288990E+03 -0.87372652594E+02 -0.19513313662E+03  0.32665965434E+03  0.00000000000E+00 0. -1.
          2    1    1    2  501    0  0.22147446640E+02 -0.63478619657E+02 -0.13576248236E+03  0.15149751207E+03  0.00000000000E+00 0. -1.
<mgrwt>
<rscale>  4 0.29521791E+03</rscale>
<asrwt>0</asrwt>
<pdfrwt beam="1">  1       21 0.58943986E-01 0.29521791E+03</pdfrwt>
<pdfrwt beam="2">  1        2 0.73285669E-01 0.29521791E+03</pdfrwt>
<totfact> 0.21334441E+03</totfact>
</mgrwt>
</event>
<event>
 5    0  0.3888462E+000  0.5219102E+03  0.7546771E-02  0.1008213E+00
         21   -1    0    0  501  502  0.00000000000E+00  0.00000000000E+00  0.77195669143E+03  0.77195669143E+03  0.00000000000E+00 0. -1.
          1   -1    0    0  503    0 -0.00000000000E+00 -0.00000000000E+00 -0.41583413306E+03  0.41583413306E+03  0.00000000000E+00 0. -1.
         25    1    1    2    0    0 -0.28166410732E+03  0.42351349502E+03  0.87633985288E+02  0.53103960793E+03  0.12500000000E+03 0.  0.
         21    1    1    2  503  502  0.24840797319E+03 -0.44088601746E+03  0.31569654362E+03  0.59644891582E+03  0.00000000000E+00 0. -1.
          1    1    1    2  501    0  0.33256134121E+02  0.17372522441E+02 -0.47207970538E+02  0.60302300743E+02  0.00000000000E+00 0. -1.
<mgrwt>
<rscale>  4 0.52191016E+03</rscale>
<asrwt>0</asrwt>
<pdfrwt beam="1">  1       21 0.11876257E+00 0.52191016E+03</pdfrwt>
<pdfrwt beam="2">  1        1 0.63974482E-01 0.52191016E+03</pdfrwt>
<totfact> 0.30122627E+02</totfact>
</mgrwt>
</event>
<event>
 5    0  0.3888462E+000  0.3198917E+03  0.7546771E-02  0.1075699E+00
          2   -1    0    0  503    0 -0.00000000000E+00  0.00000000000E+00  0.22879393731E+04  0.22879393731E+04  0.00000000000E+00 0.  1.
         21   -1    0    0  501  502  0.00000000000E+00 -0.00000000000E+00 -0.51958527771E+03  0.51958527771E+03  0.00000000000E+00 0.  1.
         25    1    1    2    0    0 -0.29704953745E+03 -0.99963942088E+01 -0.44438064922E+03  0.54903325673E+03  0.12500000000E+03 0.  0.
         21    1    1    2  503  502  0.10660090119E+03 -0.10568303279E+03  0.32903863526E+03  0.36166155318E+03  0.00000000000E+00 0.  1.
          2    1    1    2  501    0  0.19044863625E+03  0.11567942700E+03  0.18836961093E+04  0.18968298409E+04  0.00000000000E+00 0.  1.
<mgrwt>
<rscale>  4 0.31989170E+03</rscale>
<asrwt>0</asrwt>
<pdfrwt beam="1">  1       21 0.79936198E-01 0.31989170E+03</pdfrwt>
<pdfrwt beam="2">  1        2 0.35199067E+00 0.31989170E+03</pdfrwt>
<totfact> 0.84696096E+01</totfact>
</mgrwt>
</event>
<event>
 5    0  0.3888462E+000  0.2341135E+03  0.7546771E-02  0.1123778E+00
         21   -1    0    0  503  502  0.00000000000E+00  0.00000000000E+00  0.28644615706E+03  0.28644615706E+03  0.00000000000E+00 0. -1.
         -3   -1    0    0    0  501 -0.00000000000E+00 -0.00000000000E+00 -0.59899524453E+03  0.59899524453E+03  0.00000000000E+00 0. -1.
         25    1    1    2    0    0  0.20427552652E+03  0.77227307214E+02  0.17984872688E+03  0.30929453967E+03  0.12500000000E+03 0.  0.
         21    1    1    2  503  501 -0.15131568711E+03 -0.19601477801E+02 -0.11591955281E+03  0.19161940878E+03  0.00000000000E+00 0. -1.
         -3    1    1    2    0  502 -0.52959839405E+02 -0.57625829412E+02 -0.37647826154E+03  0.38452745314E+03  0.00000000000E+00 0. -1.
<mgrwt>
<rscale>  4 0.23411348E+03</rscale>
<asrwt>0</asrwt>
<pdfrwt beam="1">  1       21 0.44068640E-01 0.23411348E+03</pdfrwt>
<pdfrwt beam="2">  1       -3 0.92153113E-01 0.23411348E+03</pdfrwt>
<totfact> 0.26368307E+02</totfact>
</mgrwt>
</event>
<event>
 5    0  0.3888462E+000  0.2722436E+03  0.7546771E-02  0.1100002E+00
          1   -1    0    0  503    0 -0.00000000000E+00  0.00000000000E+00  0.69465805840E+03  0.69465805840E+03  0.00000000000E+00 0.  1.
         21   -1    0    0  501  502  0.00000000000E+00 -0.00000000000E+00 -0.56909049933E+03  0.56909049933E+03  0.00000000000E+00 0. -1.
         25    1    1    2    0    0 -0.12077711675E+03  0.23162469074E+03 -0.14777772254E+03  0.32511592482E+03  0.12500000000E+03 0.  0.
         21    1    1    2  503  502  0.15274513247E+03 -0.17836772051E+03 -0.28927505615E+03  0.37259385036E+03  0.00000000000E+00 0. -1.
          1    1    1    2  501    0 -0.31968015718E+02 -0.53256970224E+02  0.56262033776E+03  0.56603878256E+03  0.00000000000E+00 0.  1.
<mgrwt>
<rscale>  4 0.27224359E+03</rscale>
<asrwt>0</asrwt>
<pdfrwt beam="1">  1       21 0.87552384E-01 0.27224359E+03</pdfrwt>
<pdfrwt beam="2">  1        1 0.10687047E+00 0.27224359E+03</pdfrwt>
<totfact> 0.33920279E+02</totfact>
</mgrwt>
</event>
