<event>
 5    0  0.7099509E-001  0.4712055E+03  0.7546771E-02  0.1021581E+00
         21   -1    0    0  501  502  0.00000000000E+00  0.00000000000E+00  0.13491670074E+03  0.13491670074E+03  0.00000000000E+00 0. -1.
          2   -1    0    0  503    0 -0.00000000000E+00 -0.00000000000E+00 -0.56184897724E+03  0.56184897724E+03  0.00000000000E+00 0.  1.
         25    1    1    2    0    0  0.13660371489E+03  0.20723883717E+03 -0.14688233458E+03  0.31433728822E+03  0.12500000000E+03 0.  0.
         21    1    1    2  503  502 -0.11662364657E+03 -0.14911464509E+03 -0.16125478403E+03  0.24867520523E+03  0.00000000000E+00 0.  1.
          2    1    1    2  501    0 -0.19980068320E+02 -0.58124192075E+02 -0.11879515789E+03  0.13375318454E+03  0.00000000000E+00 0.  1.
<mgrwt>
<rscale>  4 0.47120546E+03</rscale>
<asrwt>0</asrwt>
<pdfrwt beam="1">  1       21 0.20756416E-01 0.47120546E+03</pdfrwt>
<pdfrwt beam="2">  1        2 0.86438304E-01 0.47120546E+03</pdfrwt>
<totfact> 0.14147359E+04</totfact>
</mgrwt>
</event>
<event>
 5    0  0.7099509E-001  0.4942272E+03  0.7546771E-02  0.1015297E+00
         21   -1    0    0  501  502  0.00000000000E+00  0.00000000000E+00  0.20662271505E+04  0.20662271505E+04  0.00000000000E+00 0. -1.
          2   -1    0    0  503    0 -0.00000000000E+00 -0.00000000000E+00 -0.61251357467E+02  0.61251357467E+02  0.00000000000E+00 0. -1.
         25    1    1    2    0    0 -0.22596011873E+03  0.12579161292E+03  0.11741299164E+04  0.12087545515E+04  0.12500000000E+03 0.  0.
         21    1    1    2  503  502  0.16569057587E+03 -0.12403611830E+03  0.83306175553E+03  0.85838814886E+03  0.00000000000E+00 0. -1.
          2    1    1    2  501    0  0.60269542865E+02 -0.17554946225E+01 -0.22158789316E+01  0.60335807594E+02  0.00000000000E+00 0. -1.
<mgrwt>
<rscale>  4 0.49422721E+03</rscale>
<asrwt>0</asrwt>
<pdfrwt beam="1">  1       21 0.31788105E+00 0.49422721E+03</pdfrwt>
<pdfrwt beam="2">  1        2 0.94232873E-02 0.49422721E+03</pdfrwt>
<totfact> 0.18553371E+02</totfact>
</mgrwt>
</event>
<event>
 5    0  0.7099509E-001  0.5186454E+03  0.7546771E-02  0.1009024E+00
         21   -1    0    0  501  502  0.00000000000E+00  0.00000000000E+00  0.14731032961E+03  0.14731032961E+03  0.00000000000E+00 0.  1.
          2   -1    0    0  503    0 -0.00000000000E+00 -0.00000000000E+00 -0.13994522684E+04  0.13994522684E+04  0.00000000000E+00 0.  1.
         25    1    1    2    0    0 -0.17826905177E+03 -0.17656387364E+03 -0.54682404815E+03  0.61448856452E+03  0.12500000000E+03 0.  0.
         21    1    1    2  503  502  0.44892770465E+02 -0.18555673751E+03 -0.10296300074E+03  0.21690560896E+03  0.00000000000E+00 0.  1.
          2    1    1    2  501    0  0.13337628130E+03  0.36212061114E+03 -0.60235488986E+03  0.71536842450E+03  0.00000000000E+00 0.  1.
<mgrwt>
<rscale>  4 0.51864541E+03</rscale>
<asrwt>0</asrwt>
<pdfrwt beam="1">  1       21 0.22663126E-01 0.51864541E+03</pdfrwt>
<pdfrwt beam="2">  1        2 0.21530036E+00 0.51864541E+03</pdfrwt>
<totfact> 0.32947101E+03</totfact>
</mgrwt>
</event>
<event>
 5    0  0.7099509E-001  0.3718951E+03  0.7546771E-02  0.1053971E+00
         -1   -1    0    0    0  501 -0.00000000000E+00  0.00000000000E+00  0.41463294412E+03  0.41463294412E+03  0.00000000000E+00 0.  1.
         21   -1    0    0  501  502  0.00000000000E+00 -0.00000000000E+00 -0.32541962156E+03  0.32541962156E+03  0.00000000000E+00 0.  1.
         25    1    1    2    0    0 -0.16714345366E+03 -0.17141589277E+03 -0.90382102975E+02  0.28480566521E+03  0.12500000000E+03 0.  0.
         21    1    1    2  503  502  0.85413214143E+02  0.24833626722E+02 -0.97067727298E+02  0.13165967435E+03  0.00000000000E+00 0. -1.
         -1    1    1    2    0  503  0.81730239516E+02  0.14658226605E+03  0.27666315284E+03  0.32358722612E+03  0.00000000000E+00 0.  1.
<mgrwt>
<rscale>  4 0.37189507E+03</rscale>
<asrwt>0</asrwt>
<pdfrwt beam="1">  1       21 0.50064557E-01 0.37189507E+03</pdfrwt>
<pdfrwt beam="2">  1       -1 0.63789684E-01 0.37189507E+03</pdfrwt>
<totfact> 0.86141294E+02</totfact>
</mgrwt>
</event>
<event>
 5    0  0.7099509E-001  0.4988491E+03  0.7546771E-02  0.1014080E+00
          2   -1    0    0  503    0 -0.00000000000E+00  0.00000000000E+00  0.56051533848E+03  0.56051533848E+03  0.00000000000E+00 0.  1.
         21   -1    0    0  501  502  0.00000000000E+00 -0.00000000000E+00 -0.24017927792E+03  0.24017927792E+03  0.00000000000E+00 0.  1.
         25    1    1    2    0    0 -0.89367853285E+02  0.18632165901E+03  0.10184511872E+03  0.26210647078E+03  0.12500000000E+03 0.  0.
         21    1    1    2  503  502  0.82741692493E+02 -0.20645365231E+03 -0.82222811241E+02  0.23712842284E+03  0.00000000000E+00 0.  1.
          2    1    1    2  501    0  0.66261607921E+01  0.20131993302E+02  0.30071375308E+03  0.30145972277E+03  0.00000000000E+00 0.  1.
<mgrwt>
<rscale>  4 0.49884912E+03</rscale>
<asrwt>0</asrwt>
<pdfrwt beam="1">  1       21 0.36950658E-01 0.49884912E+03</pdfrwt>
<pdfrwt beam="2">  1        2 0.86233128E-01 0.49884912E+03</pdfrwt>
<totfact> 0.45309641E+03</totfact>
</mgrwt>
</event>
<event>
 5    0  0.7099509E-001  0.5911113E+03  0.7546771E-02  0.9924021E-01
         21   -1    0    0  501  502  0.00000000000E+00  0.00000000000E+00  0.23861672584E+03  0.23861672584E+03  0.00000000000E+00 0.  1.
          1   -1    0    0  503    0 -0.00000000000E+00 -0.00000000000E+00 -0.60352180115E+03  0.60352180115E+03  0.00000000000E+00 0. -1.
         25    1    1    2    0    0 -0.30088230948E+03  0.23428698210E+02 -0.13453826386E+03  0.35327696287E+03  0.12500000000E+03 0.  0.
         21    1    1    2  503  502  0.25078772046E+03 -0.33104145991E+02 -0.51879565184E-01  0.25296317500E+03  0.00000000000E+00 0.  1.
          1    1    1    2  501    0  0.50094589018E+02  0.96754477810E+01 -0.23031493189E+03  0.23589838912E+03  0.00000000000E+00 0. -1.
<mgrwt>
<rscale>  4 0.59111132E+03</rscale>
<asrwt>0</asrwt>
<pdfrwt beam="1">  1       21 0.36710266E-01 0.59111132E+03</pdfrwt>
<pdfrwt beam="2">  1        1 0.92849506E-01 0.59111132E+03</pdfrwt>
<totfact> 0.25290436E+03</totfact>
</mgrwt>
</event>
<event>
 5    0  0.7099509E-001  0.6023599E+03  0.7546771E-02  0.9900522E-01
          1   -1    0    0  503    0 -0.00000000000E+00  0.00000000000E+00  0.13672834997E+04  0.13672834997E+04  0.00000000000E+00 0.  1.
         21   -1    0    0  501  502  0.00000000000E+00 -0.00000000000E+00 -0.16840780974E+03  0.16840780974E+03  0.00000000000E+00 0. -1.
         25    1    1    2    0    0  0.14629361702E+03 -0.17297986379E+03 -0.35570598930E+02  0.26117833594E+03  0.12500000000E+03 0.  0.
         21    1    1    2  503  502  0.71024435199E+01  0.15029448993E+03  0.43830865793E+03  0.46341488757E+03  0.00000000000E+00 0.  1.
          1    1    1    2  501    0 -0.15339606054E+03  0.22685373863E+02  0.79613763095E+03  0.81109808593E+03  0.00000000000E+00 0.  1.
<mgrwt>
<rscale>  4 0.60235986E+03</rscale>
<asrwt>0</asrwt>
<pdfrwt beam="1">  1       21 0.25908895E-01 0.60235986E+03</pdfrwt>
<pdfrwt beam="2">  1        1 0.21035130E+00 0.60235986E+03</pdfrwt>
<totfact> 0.12395780E+03</totfact>
</mgrwt>
</event>
<event>
 5    0  0.7099509E-001  0.3782950E+03  0.7546771E-02  0.1051566E+00
          2   -1    0    0  503    0 -0.00000000000E+00  0.00000000000E+00  0.10235195012E+04  0.10235195012E+04  0.00000000000E+00 0. -1.
         21   -1    0    0  501  502  0.00000000000E+00 -0.00000000000E+00 -0.78362619395E+02  0.78362619395E+02  0.00000000000E+00 0. -1.
         25    1    1    2    0    0 -0.10095921718E+03  0.19132979068E+03  0.33896075816E+03  0.42109292076E+03  0.12500000000E+03 0.  0.
         21    1    1    2  503  502  0.62352643554E+02 -0.99280044523E+02  0.72508767500E+02  0.13784738214E+03  0.00000000000E+00 0. -1.
          2    1    1    2  501    0  0.38606573629E+02 -0.92049746162E+02  0.53368735610E+03  0.54294181765E+03  0.00000000000E+00 0. -1.
<mgrwt>
<rscale>  4 0.37829498E+03</rscale>
<asrwt>0</asrwt>
<pdfrwt beam="1">  1       21 0.12055788E-01 0.37829498E+03</pdfrwt>
<pdfrwt beam="2">  1        2 0.15746453E+00 0.37829498E+03</pdfrwt>
<totfact> 0.18180296E+04</totfact>
</mgrwt>
</event>
<event>
 5    0  0.7099509E-001  0.4845738E+03  0.7546771E-02  0.1017886E+00
          2   -1    0    0  503    0 -0.00000000000E+00  0.00000000000E+00  0.44812020584E+03  0.44812020584E+03  0.00000000000E+00 0. -1.
         21   -1    0    0  501  502  0.00000000000E+00 -0.00000000000E+00 -0.37419268218E+03  0.37419268218E+03  0.00000000000E+00 0.  1.
         25    1    1    2    0    0 -0.23549583142E+02  0.23656273420E+03 -0.91270230229E+02  0.28367545718E+03  0.12500000000E+03 0.  0.
         21    1    1    2  503  502  0.48332641437E+02 -0.20753007201E+03 -0.12426343718E+03  0.24667017825E+03  0.00000000000E+00 0.  1.
          2    1    1    2  501    0 -0.24783058295E+02 -0.29032662188E+02  0.28946119107E+03  0.29196725259E+03  0.00000000000E+00 0. -1.
<mgrwt>
<rscale>  4 0.48457376E+03</rscale>
<asrwt>0</asrwt>
<pdfrwt beam="1">  1       21 0.57568105E-01 0.48457376E+03</pdfrwt>
<pdfrwt beam="2">  1        2 0.68941570E-01 0.48457376E+03</pdfrwt>
<totfact> 0.23064893E+03</totfact>
</mgrwt>
</event>
<event>
 5    0  0.7099509E-001  0.5001568E+03  0.7546771E-02  0.1013738E+00
          2   -1    0    0  503    0 -0.00000000000E+00  0.00000000000E+00  0.18035279226E+04  0.18035279226E+04  0.00000000000E+00 0. -1.
         21   -1    0    0  501  502  0.00000000000E+00 -0.00000000000E+00 -0.50494558027E+03  0.50494558027E+03  0.00000000000E+00 0.  1.
         25    1    1    2    0    0  0.13021191574E+03 -0.15907366444E+03 -0.38990868324E+03  0.45816302228E+03  0.12500000000E+03 0.  0.
         21    1    1    2  503  502 -0.12686470730E+03  0.11338806186E+03  0.92054675537E+01  0.17040025576E+03  0.00000000000E+00 0. -1.
          2    1    1    2  501    0 -0.33472084321E+01  0.45685602580E+02  0.16792855580E+04  0.16799102248E+04  0.00000000000E+00 0. -1.
<mgrwt>
<rscale>  4 0.50015683E+03</rscale>
<asrwt>0</asrwt>
<pdfrwt beam="1">  1       21 0.77683936E-01 0.50015683E+03</pdfrwt>
<pdfrwt beam="2">  1        2 0.27746583E+00 0.50015683E+03</pdfrwt>
<totfact> 0.15153628E+02</totfact>
</mgrwt>
</event>
<event>
 5    0  0.7099509E-001  0.5047906E+03  0.7546771E-02  0.1012536E+00
         21   -1    0    0  501  502  0.00000000000E+00  0.00000000000E+00  0.76035628354E+02  0.76035628354E+02  0.00000000000E+00 0. -1.
          2   -1    0    0  503    0 -0.00000000000E+00 -0.00000000000E+00 -0.11153193449E+04  0.11153193449E+04  0.00000000000E+00 0. -1.
         25    1    1    2    0    0 -0.19314184602E+03  0.59577227546E+02 -0.70152624918E+03  0.74068704391E+03  0.12500000000E+03 0.  0.
         21    1    1    2  503  502  0.20031925581E+03  0.14117045146E+02 -0.15562278845E+03  0.25405815771E+03  0.00000000000E+00 0. -1.
          2    1    1    2  501    0 -0.71774097956E+01 -0.73694272692E+02 -0.18213467892E+03  0.19660977164E+03  0.00000000000E+00 0. -1.
<mgrwt>
<rscale>  4 0.50479059E+03</rscale>
<asrwt>0</asrwt>
<pdfrwt beam="1">  1       21 0.11697789E-01 0.50479059E+03</pdfrwt>
<pdfrwt beam="2">  1        2 0.17158759E+00 0.50479059E+03</pdfrwt>
<totfact> 0.16626603E+04</totfact>
</mgrwt>
</event>
<event>
 5    0  0.7099509E-001  0.5368031E+03  0.7546771E-02  0.1004595E+00
         21   -1    0    0  501  502  0.00000000000E+00  0.00000000000E+00  0.23216618924E+03  0.23216618924E+03  0.00000000000E+00 0.  1.
          1   -1    0    0  503    0 -0.00000000000E+00 -0.00000000000E+00 -0.12243931253E+04  0.12243931253E+04  0.00000000000E+00 0.  1.
         25    1    1    2    0    0  0.22796304950E+03  0.20679577329E+02 -0.20665255951E+03  0.33275377865E+03  0.12500000000E+03 0.  0.
         21    1    1    2  503  502 -0.16805287853E+03 -0.27992810540E+01  0.12601794096E+03  0.21007171966E+03  0.00000000000E+00 0.  1.
          1    1    1    2  501    0 -0.59910170968E+02 -0.17880296275E+02 -0.91159231755E+03  0.91373381627E+03  0.00000000000E+00 0.  1.
<mgrwt>
<rscale>  4 0.53680311E+03</rscale>
<asrwt>0</asrwt>
<pdfrwt beam="1">  1       21 0.35717875E-01 0.53680311E+03</pdfrwt>
<pdfrwt beam="2">  1        1 0.18836817E+00 0.53680311E+03</pdfrwt>
<totfact> 0.83254982E+02</totfact>
</mgrwt>
</event>
<event>
 5    0  0.7099509E-001  0.6847744E+03  0.7546771E-02  0.9743630E-01
         21   -1    0    0  501  502  0.00000000000E+00  0.00000000000E+00  0.38093577285E+03  0.38093577285E+03  0.00000000000E+00 0. -1.
          2   -1    0    0  503    0 -0.00000000000E+00 -0.00000000000E+00 -0.43741659522E+03  0.43741659522E+03  0.00000000000E+00 0. -1.
         25    1    1    2    0    0  0.12299055382E+03  0.26100190419E+03  0.15582759984E+03  0.35093576505E+03  0.12500000000E+03 0.  0.
         21    1    1    2  503  502 -0.16185709356E+03 -0.28172326070E+03 -0.89591331222E+02  0.33703459909E+03  0.00000000000E+00 0. -1.
          2    1    1    2  501    0  0.38866539732E+02  0.20721356509E+02 -0.12271709099E+03  0.13038200392E+03  0.00000000000E+00 0. -1.
<mgrwt>
<rscale>  4 0.68477440E+03</rscale>
<asrwt>0</asrwt>
<pdfrwt beam="1">  1       21 0.58605504E-01 0.68477440E+03</pdfrwt>
<pdfrwt beam="2">  1        2 0.67294861E-01 0.68477440E+03</pdfrwt>
<totfact> 0.22154762E+03</totfact>
</mgrwt>
</event>
<event>
 5    0  0.7099509E-001  0.5096577E+03  0.7546771E-02  0.1011288E+00
         -2   -1    0    0    0  501 -0.00000000000E+00  0.00000000000E+00  0.18613632712E+04  0.18613632712E+04  0.00000000000E+00 0.  1.
         21   -1    0    0  501  502  0.00000000000E+00 -0.00000000000E+00 -0.97311236478E+02  0.97311236478E+02  0.00000000000E+00 0. -1.
         25    1    1    2    0    0 -0.29139962128E+02 -0.21261226036E+03  0.84172453638E+02  0.26222721560E+03  0.12500000000E+03 0.  0.
         21    1    1    2  503  502 -0.31326616534E+02  0.46204645136E+02  0.54324976999E+03  0.54611037230E+03  0.00000000000E+00 0.  1.
         -2    1    1    2    0  503  0.60466578662E+02  0.16640761523E+03  0.11366298111E+04  0.11503369198E+04  0.00000000000E+00 0.  1.
<mgrwt>
<rscale>  4 0.50965774E+03</rscale>
<asrwt>0</asrwt>
<pdfrwt beam="1">  1       21 0.14970961E-01 0.50965774E+03</pdfrwt>
<pdfrwt beam="2">  1       -2 0.28636355E+00 0.50965774E+03</pdfrwt>
<totfact> 0.13058509E+02</totfact>
</mgrwt>
</event>
<event>
 5    0  0.7099509E-001  0.5525011E+03  0.7546771E-02  0.1000917E+00
          2   -1    0    0  503    0 -0.00000000000E+00  0.00000000000E+00  0.34221656705E+03  0.34221656705E+03  0.00000000000E+00 0. -1.
         21   -1    0    0  501  502  0.00000000000E+00 -0.00000000000E+00 -0.37646906325E+03  0.37646906325E+03  0.00000000000E+00 0. -1.
         25    1    1    2    0    0 -0.28242510982E+03  0.87351680817E+02 -0.74209462571E+02  0.32943330605E+03  0.12500000000E+03 0.  0.
         21    1    1    2  503  502  0.22885702273E+03 -0.28633327147E+02 -0.81057356304E+02  0.24447024213E+03  0.00000000000E+00 0. -1.
          2    1    1    2  501    0  0.53568087098E+02 -0.58718353670E+02  0.12101432267E+03  0.14478208213E+03  0.00000000000E+00 0. -1.
<mgrwt>
<rscale>  4 0.55250113E+03</rscale>
<asrwt>0</asrwt>
<pdfrwt beam="1">  1       21 0.57918317E-01 0.55250113E+03</pdfrwt>
<pdfrwt beam="2">  1        2 0.52648703E-01 0.55250113E+03</pdfrwt>
<totfact> 0.30428365E+03</totfact>
</mgrwt>
</event>
<event>
 5    0  0.7099509E-001  0.8249318E+03  0.7546771E-02  0.9524614E-01
         21   -1    0    0  501  502  0.00000000000E+00  0.00000000000E+00  0.28149973352E+04  0.28149973352E+04  0.00000000000E+00 0. -1.
          3   -1    0    0  503    0 -0.00000000000E+00 -0.00000000000E+00 -0.10845255774E+04  0.10845255774E+04  0.00000000000E+00 0. -1.
         25    1    1    2    0    0  0.16854491262E+03 -0.24894586668E+03  0.26654622340E+04  0.26852737947E+04  0.12500000000E+03 0.  0.
         21    1    1    2  503  502 -0.15906163930E+03 -0.86821540126E+00  0.73507687109E+02  0.17522767749E+03  0.00000000000E+00 0.  1.
          3    1    1    2  501    0 -0.94832733221E+01  0.24981408208E+03 -0.10084981633E+04  0.10390214403E+04  0.00000000000E+00 0. -1.
<mgrwt>
<rscale>  4 0.82493178E+03</rscale>
<asrwt>0</asrwt>
<pdfrwt beam="1">  1       21 0.43307651E+00 0.82493178E+03</pdfrwt>
<pdfrwt beam="2">  1        3 0.16685009E+00 0.82493178E+03</pdfrwt>
<totfact> 0.42734682E-02</totfact>
</mgrwt>
</event>
<event>
 5    0  0.7099509E-001  0.4724984E+03  0.7546771E-02  0.1021217E+00
         21   -1    0    0  501  502  0.00000000000E+00  0.00000000000E+00  0.15454837232E+03  0.15454837232E+03  0.00000000000E+00 0.  1.
         -1   -1    0    0    0  501 -0.00000000000E+00 -0.00000000000E+00 -0.11279584374E+04  0.11279584374E+04  0.00000000000E+00 0. -1.
         25    1    1    2    0    0 -0.20538831474E+03  0.76557596570E+02 -0.71368946401E+02  0.26222881599E+03  0.12500000000E+03 0.  0.
         21    1    1    2  503  502  0.13872630069E+03 -0.16054252052E+03 -0.14810372289E+03  0.25875393742E+03  0.00000000000E+00 0. -1.
         -1    1    1    2    0  503  0.66662014043E+02  0.83984923947E+02 -0.75393739579E+03  0.76152405631E+03  0.00000000000E+00 0. -1.
<mgrwt>
<rscale>  4 0.47249844E+03</rscale>
<asrwt>0</asrwt>
<pdfrwt beam="1">  1       21 0.23776673E-01 0.47249844E+03</pdfrwt>
<pdfrwt beam="2">  1       -1 0.17353207E+00 0.47249844E+03</pdfrwt>
<totfact> 0.36722973E+02</totfact>
</mgrwt>
</event>
<event>
 5    0  0.1044197E+000  0.5581869E+03  0.7546771E-02  0.9996165E-01
         21   -1    0    0  501  502  0.00000000000E+00  0.00000000000E+00  0.70902819484E+03  0.70902819484E+03  0.00000000000E+00 0. -1.
          2   -1    0    0  503    0 -0.00000000000E+00 -0.00000000000E+00 -0.78587757093E+03  0.78587757093E+03  0.00000000000E+00 0.  1.
         25    1    1    2    0    0  0.12430359937E+03  0.16583102946E+03  0.33615635460E+02  0.24434877960E+03  0.12500000000E+03 0.  0.
         21    1    1    2  503  502 -0.61510957286E+02 -0.87772403079E+02  0.56126029094E+03  0.57140240356E+03  0.00000000000E+00 0. -1.
          2    1    1    2  501    0 -0.62792642084E+02 -0.78058626378E+02 -0.67172530249E+03  0.67915458260E+03  0.00000000000E+00 0.  1.
<mgrwt>
<rscale>  4 0.55818691E+03</rscale>
<asrwt>0</asrwt>
<pdfrwt beam="1">  1       21 0.10908126E+00 0.55818691E+03</pdfrwt>
<pdfrwt beam="2">  1        2 0.12090424E+00 0.55818691E+03</pdfrwt>
<totfact> 0.26251023E+02</totfact>
</mgrwt>
</event>
<event>
 5    0  0.7099509E-001  0.7825836E+03  0.7546771E-02  0.9585574E-01
         21   -1    0    0  501  502  0.00000000000E+00  0.00000000000E+00  0.13877216744E+04  0.13877216744E+04  0.00000000000E+00 0.  1.
          1   -1    0    0  503    0 -0.00000000000E+00 -0.00000000000E+00 -0.11778193890E+04  0.11778193890E+04  0.00000000000E+00 0. -1.
         25    1    1    2    0    0  0.30924156271E+02  0.25038649685E+03  0.11326852756E+04  0.11671549318E+04  0.12500000000E+03 0.  0.
         21    1    1    2  503  502 -0.28627211556E+02 -0.29595571290E+03  0.14417863749E+03  0.33044936186E+03  0.00000000000E+00 0. -1.
          1    1    1    2  501    0 -0.22969447151E+01  0.45569216058E+02 -0.10669616276E+04  0.10679367698E+04  0.00000000000E+00 0. -1.
<mgrwt>
<rscale>  4 0.78258365E+03</rscale>
<asrwt>0</asrwt>
<pdfrwt beam="1">  1       21 0.21349564E+00 0.78258365E+03</pdfrwt>
<pdfrwt beam="2">  1        1 0.18120298E+00 0.78258365E+03</pdfrwt>
<totfact> 0.10545664E+01</totfact>
</mgrwt>
</event>
<event>
 5    0  0.7099509E-001  0.5038228E+03  0.7546771E-02  0.1012786E+00
          1   -1    0    0  503    0 -0.00000000000E+00  0.00000000000E+00  0.19777613159E+04  0.19777613159E+04  0.00000000000E+00 0.  1.
         21   -1    0    0  501  502  0.00000000000E+00 -0.00000000000E+00 -0.10213156678E+03  0.10213156678E+03  0.00000000000E+00 0.  1.
         25    1    1    2    0    0  0.25864756699E+03 -0.18064847406E+03  0.33139764282E+03  0.47432249868E+03  0.12500000000E+03 0.  0.
         21    1    1    2  503  502 -0.37947210675E+02 -0.83140280699E+02  0.42358371009E+03  0.43333065495E+03  0.00000000000E+00 0. -1.
          1    1    1    2  501    0 -0.22070035631E+03  0.26378875475E+03  0.11206483962E+04  0.11722397290E+04  0.00000000000E+00 0.  1.
<mgrwt>
<rscale>  4 0.50382279E+03</rscale>
<asrwt>0</asrwt>
<pdfrwt beam="1">  1       21 0.15712550E-01 0.50382279E+03</pdfrwt>
<pdfrwt beam="2">  1        1 0.30427094E+00 0.50382279E+03</pdfrwt>
<totfact> 0.12818567E+03</totfact>
</mgrwt>
</event>
<event>
 5    0  0.7099509E-001  0.4153976E+03  0.7546771E-02  0.1038575E+00
          4   -1    0    0  503    0 -0.00000000000E+00  0.00000000000E+00  0.15643527033E+03  0.15643527033E+03  0.00000000000E+00 0. -1.
         21   -1    0    0  501  502  0.00000000000E+00 -0.00000000000E+00 -0.68131812044E+03  0.68131812044E+03  0.00000000000E+00 0.  1.
         25    1    1    2    0    0  0.94237779231E+02  0.20033882177E+03 -0.33377685377E+03  0.41958120865E+03  0.12500000000E+03 0.  0.
         21    1    1    2  503  502 -0.95593722526E+02 -0.12710241570E+03 -0.26821298330E+03  0.31181948027E+03  0.00000000000E+00 0.  1.
          4    1    1    2  501    0  0.13559432954E+01 -0.73236406067E+02  0.77106986947E+02  0.10635270186E+03  0.00000000000E+00 0. -1.
<mgrwt>
<rscale>  4 0.41539765E+03</rscale>
<asrwt>0</asrwt>
<pdfrwt beam="1">  1       21 0.10481817E+00 0.41539765E+03</pdfrwt>
<pdfrwt beam="2">  1        4 0.24066965E-01 0.41539765E+03</pdfrwt>
<totfact> 0.48308005E+02</totfact>
</mgrwt>
</event>
<event>
 5    0  0.7099509E-001  0.8468099E+03  0.7546771E-02  0.9494629E-01
          3   -1    0    0  503    0 -0.00000000000E+00  0.00000000000E+00  0.35945058680E+03  0.35945058680E+03  0.00000000000E+00 0. -1.
         21   -1    0    0  501  502  0.00000000000E+00 -0.00000000000E+00 -0.11795119592E+04  0.11795119592E+04  0.00000000000E+00 0. -1.
         25    1    1    2    0    0 -0.30891685574E+03 -0.31908803561E+03 -0.58866248064E+03  0.74792734563E+03  0.12500000000E+03 0.  0.
         21    1    1    2  503  502  0.25603458152E+03  0.28684060328E+03 -0.43362516110E+03  0.57953603767E+03  0.00000000000E+00 0. -1.
          3    1    1    2  501    0  0.52882274223E+02  0.32247432336E+02  0.20222626933E+03  0.21149916271E+03  0.00000000000E+00 0. -1.
<mgrwt>
<rscale>  4 0.84680990E+03</rscale>
<asrwt>0</asrwt>
<pdfrwt beam="1">  1       21 0.18146338E+00 0.84680990E+03</pdfrwt>
<pdfrwt beam="2">  1        3 0.55300091E-01 0.84680990E+03</pdfrwt>
<totfact> 0.23533450E+01</totfact>
</mgrwt>
</event>
<event>
 5    0  0.8208618E-001  0.4097323E+03  0.7546771E-02  0.1040461E+00
         21   -1    0    0  501  502  0.00000000000E+00  0.00000000000E+00  0.58861517915E+02  0.58861517915E+02  0.00000000000E+00 0. -1.
          2   -1    0    0  503    0 -0.00000000000E+00 -0.00000000000E+00 -0.32485688409E+04  0.32485688409E+04  0.00000000000E+00 0. -1.
         25    1    1    2    0    0  0.31405678174E+03 -0.24669871066E+01 -0.59205872263E+03  0.68175969316E+03  0.12500000000E+03 0.  0.
         21    1    1    2  503  502 -0.69655158252E+02 -0.12798595720E+02 -0.15083491156E+03  0.16663377710E+03  0.00000000000E+00 0.  1.
          2    1    1    2  501    0 -0.24440162349E+03  0.15265582826E+02 -0.24468136888E+04  0.24590368886E+04  0.00000000000E+00 0. -1.
<mgrwt>
<rscale>  4 0.40973226E+03</rscale>
<asrwt>0</asrwt>
<pdfrwt beam="1">  1       21 0.90556186E-02 0.40973226E+03</pdfrwt>
<pdfrwt beam="2">  1        2 0.49977980E+00 0.40973226E+03</pdfrwt>
<totfact> 0.16872777E+03</totfact>
</mgrwt>
</event>
<event>
 5    0  0.7099509E-001  0.4815182E+03  0.7546771E-02  0.1018719E+00
          4   -1    0    0  503    0 -0.00000000000E+00  0.00000000000E+00  0.19690092848E+04  0.19690092848E+04  0.00000000000E+00 0.  1.
         21   -1    0    0  501  502  0.00000000000E+00 -0.00000000000E+00 -0.10670542806E+03  0.10670542806E+03  0.00000000000E+00 0.  1.
         25    1    1    2    0    0 -0.28260838900E+03 -0.19169954954E+02  0.43973769035E+03  0.53780035796E+03  0.12500000000E+03 0.  0.
         21    1    1    2  503  502 -0.11316853316E+02  0.16525274250E+03  0.14920788433E+03  0.22293392030E+03  0.00000000000E+00 0.  1.
          4    1    1    2  501    0  0.29392524232E+03 -0.14608278755E+03  0.12733582820E+04  0.13149804346E+04  0.00000000000E+00 0.  1.
<mgrwt>
<rscale>  4 0.48151817E+03</rscale>
<asrwt>0</asrwt>
<pdfrwt beam="1">  1       21 0.16416221E-01 0.48151817E+03</pdfrwt>
<pdfrwt beam="2">  1        4 0.30292448E+00 0.48151817E+03</pdfrwt>
<totfact> 0.45591785E+01</totfact>
</mgrwt>
</event>
<event>
 5    0  0.7099509E-001  0.7967311E+03  0.7546771E-02  0.9564761E-01
          2   -1    0    0  503    0 -0.00000000000E+00  0.00000000000E+00  0.99127375784E+03  0.99127375784E+03  0.00000000000E+00 0. -1.
         21   -1    0    0  501  502  0.00000000000E+00 -0.00000000000E+00 -0.27158375392E+03  0.27158375392E+03  0.00000000000E+00 0. -1.
         25    1    1    2    0    0  0.18998384245E+03  0.87549024634E+02  0.51967441053E+03  0.57397315710E+03  0.12500000000E+03 0.  0.
         21    1    1    2  503  502 -0.14366903823E+03 -0.15651396925E+03 -0.19309360165E+03  0.28709328469E+03  0.00000000000E+00 0. -1.
          2    1    1    2  501    0 -0.46314804219E+02  0.68964944618E+02  0.39310919504E+03  0.40179106997E+03  0.00000000000E+00 0. -1.
<mgrwt>
<rscale>  4 0.79673107E+03</rscale>
<asrwt>0</asrwt>
<pdfrwt beam="1">  1       21 0.41782116E-01 0.79673107E+03</pdfrwt>
<pdfrwt beam="2">  1        2 0.15250365E+00 0.79673107E+03</pdfrwt>
<totfact> 0.16141743E+03</totfact>
</mgrwt>
</event>
<event>
 5    0  0.7099509E-001  0.5925183E+03  0.7546771E-02  0.9921051E-01
          2   -1    0    0  503    0 -0.00000000000E+00  0.00000000000E+00  0.18982922727E+04  0.18982922727E+04  0.00000000000E+00 0.  1.
         21   -1    0    0  501  502  0.00000000000E+00 -0.00000000000E+00 -0.32120743224E+03  0.32120743224E+03  0.00000000000E+00 0. -1.
         25    1    1    2    0    0  0.41411023555E+03  0.17449378207E+03 -0.10592158860E+02  0.46655392078E+03  0.12500000000E+03 0.  0.
         21    1    1    2  503  502  0.37442605254E+02  0.11001584048E+03  0.52274804126E+02  0.12742876046E+03  0.00000000000E+00 0.  1.
          2    1    1    2  501    0 -0.45155284080E+03 -0.28450962255E+03  0.15354021952E+04  0.16255170237E+04  0.00000000000E+00 0.  1.
<mgrwt>
<rscale>  4 0.59251834E+03</rscale>
<asrwt>0</asrwt>
<pdfrwt beam="1">  1       21 0.49416529E-01 0.59251834E+03</pdfrwt>
<pdfrwt beam="2">  1        2 0.29204496E+00 0.59251834E+03</pdfrwt>
<totfact> 0.35718625E+02</totfact>
</mgrwt>
</event>
<event>
 5    0  0.7099509E-001  0.4437497E+03  0.7546771E-02  0.1029602E+00
          1   -1    0    0  503    0 -0.00000000000E+00  0.00000000000E+00  0.54469262799E+03  0.54469262799E+03  0.00000000000E+00 0. -1.
         21   -1    0    0  501  502  0.00000000000E+00 -0.00000000000E+00 -0.35242222399E+03  0.35242222399E+03  0.00000000000E+00 0. -1.
         25    1    1    2    0    0  0.57594177759E+02 -0.22431256182E+03 -0.32472491199E+02  0.26516537743E+03  0.12500000000E+03 0.  0.
         21    1    1    2  503  502 -0.71211164404E+02  0.12397850124E+03 -0.17132393820E+03  0.22314477477E+03  0.00000000000E+00 0. -1.
          1    1    1    2  501    0  0.13616986645E+02  0.10033406058E+03  0.39606683341E+03  0.40880469978E+03  0.00000000000E+00 0. -1.
<mgrwt>
<rscale>  4 0.44374973E+03</rscale>
<asrwt>0</asrwt>
<pdfrwt beam="1">  1       21 0.54218804E-01 0.44374973E+03</pdfrwt>
<pdfrwt beam="2">  1        1 0.83798866E-01 0.44374973E+03</pdfrwt>
<totfact> 0.13214674E+03</totfact>
</mgrwt>
</event>
<event>
 5    0  0.7099509E-001  0.5112382E+03  0.7546771E-02  0.1010887E+00
         21   -1    0    0  501  502  0.00000000000E+00  0.00000000000E+00  0.92615644485E+02  0.92615644485E+02  0.00000000000E+00 0.  1.
          1   -1    0    0  503    0 -0.00000000000E+00 -0.00000000000E+00 -0.19011337754E+04  0.19011337754E+04  0.00000000000E+00 0. -1.
         25    1    1    2    0    0  0.23931381027E+03 -0.82289169288E+02 -0.49829942211E+03  0.57268658203E+03  0.12500000000E+03 0.  0.
         21    1    1    2  503  502 -0.18734077568E+03 -0.98238780627E+02 -0.18730428859E+03  0.28254259993E+03  0.00000000000E+00 0.  1.
          1    1    1    2  501    0 -0.51973034595E+02  0.18052794992E+03 -0.11229144202E+04  0.11385202379E+04  0.00000000000E+00 0. -1.
<mgrwt>
<rscale>  4 0.51123821E+03</rscale>
<asrwt>0</asrwt>
<pdfrwt beam="1">  1       21 0.14248561E-01 0.51123821E+03</pdfrwt>
<pdfrwt beam="2">  1        1 0.29248212E+00 0.51123821E+03</pdfrwt>
<totfact> 0.17249682E+03</totfact>
</mgrwt>
</event>
<event>
 5    0  0.7099509E-001  0.4532362E+03  0.7546771E-02  0.1026761E+00
         21   -1    0    0  501  502  0.00000000000E+00  0.00000000000E+00  0.34510361391E+03  0.34510361391E+03  0.00000000000E+00 0.  1.
         -1   -1    0    0    0  501 -0.00000000000E+00 -0.00000000000E+00 -0.39857605046E+03  0.39857605046E+03  0.00000000000E+00 0.  1.
         25    1    1    2    0    0 -0.75152314338E+02 -0.24219122246E+03  0.86119511833E+02  0.29554361591E+03  0.12500000000E+03 0.  0.
         21    1    1    2  503  502 -0.13305026652E+03  0.54169228573E+02 -0.66104237894E+02  0.15813427527E+03  0.00000000000E+00 0. -1.
         -1    1    1    2    0  503  0.20820258086E+03  0.18802199388E+03 -0.73487710494E+02  0.29000177319E+03  0.00000000000E+00 0.  1.
<mgrwt>
<rscale>  4 0.45323616E+03</rscale>
<asrwt>0</asrwt>
<pdfrwt beam="1">  1       21 0.53092864E-01 0.45323616E+03</pdfrwt>
<pdfrwt beam="2">  1       -1 0.61319392E-01 0.45323616E+03</pdfrwt>
<totfact> 0.80751185E+02</totfact>
</mgrwt>
</event>
<event>
 5    0  0.1221005E+000  0.8352075E+03  0.7546771E-02  0.9510409E-01
          2   -1    0    0  503    0 -0.00000000000E+00  0.00000000000E+00  0.12082730261E+04  0.12082730261E+04  0.00000000000E+00 0.  1.
         21   -1    0    0  501  502  0.00000000000E+00 -0.00000000000E+00 -0.51536260907E+03  0.51536260907E+03  0.00000000000E+00 0.  1.
         25    1    1    2    0    0 -0.38463654587E+03  0.65378982627E+03  0.48664526887E+03  0.90985439883E+03  0.12500000000E+03 0.  0.
         21    1    1    2  503  502  0.58322040307E+02 -0.35681239977E+01  0.34603528203E+01  0.58533459970E+02  0.00000000000E+00 0. -1.
          2    1    1    2  501    0  0.32631450556E+03 -0.65022170227E+03  0.20280479530E+03  0.75524777632E+03  0.00000000000E+00 0.  1.
<mgrwt>
<rscale>  4 0.83520747E+03</rscale>
<asrwt>0</asrwt>
<pdfrwt beam="1">  1       21 0.79286556E-01 0.83520747E+03</pdfrwt>
<pdfrwt beam="2">  1        2 0.18588816E+00 0.83520747E+03</pdfrwt>
<totfact> 0.28687118E+02</totfact>
</mgrwt>
</event>
<event>
 5    0  0.7099509E-001  0.5578626E+03  0.7546771E-02  0.9996903E-01
          2   -1    0    0  503    0 -0.00000000000E+00  0.00000000000E+00  0.26641409068E+04  0.26641409068E+04  0.00000000000E+00 0.  1.
         21   -1    0    0  501  502  0.00000000000E+00 -0.00000000000E+00 -0.46499204082E+02  0.46499204082E+02  0.00000000000E+00 0.  1.
         25    1    1    2    0    0  0.20553046476E+03 -0.76394620773E+02  0.91923576137E+03  0.95325667845E+03  0.12500000000E+03 0.  0.
         21    1    1    2  503  502 -0.27337006895E+03  0.11955710661E+03  0.77449848783E+03  0.82998373719E+03  0.00000000000E+00 0.  1.
          2    1    1    2  501    0  0.67839604190E+02 -0.43162485836E+02  0.92390745356E+03  0.92739969529E+03  0.00000000000E+00 0.  1.
<mgrwt>
<rscale>  4 0.55786259E+03</rscale>
<asrwt>0</asrwt>
<pdfrwt beam="1">  1       21 0.71537258E-02 0.55786259E+03</pdfrwt>
<pdfrwt beam="2">  1        2 0.40986771E+00 0.55786259E+03</pdfrwt>
<totfact> 0.55335723E+03</totfact>
</mgrwt>
</event>
<event>
 5    0  0.7099509E-001  0.5340616E+03  0.7546771E-02  0.1005252E+00
          1   -1    0    0  503    0 -0.00000000000E+00  0.00000000000E+00  0.13616449912E+04  0.13616449912E+04  0.00000000000E+00 0. -1.
         21   -1    0    0  501  502  0.00000000000E+00 -0.00000000000E+00 -0.14479163617E+03  0.14479163617E+03  0.00000000000E+00 0.  1.
         25    1    1    2    0    0  0.13448719816E+03 -0.15862198919E+03 -0.95709768537E+01  0.24282575136E+03  0.12500000000E+03 0.  0.
         21    1    1    2  503  502 -0.10261470664E+03  0.12940434908E+03  0.35962722747E+03  0.39573603111E+03  0.00000000000E+00 0.  1.
          1    1    1    2  501    0 -0.31872491518E+02  0.29217640116E+02  0.86679710446E+03  0.86787484496E+03  0.00000000000E+00 0. -1.
<mgrwt>
<rscale>  4 0.53406158E+03</rscale>
<asrwt>0</asrwt>
<pdfrwt beam="1">  1       21 0.22275637E-01 0.53406158E+03</pdfrwt>
<pdfrwt beam="2">  1        1 0.20948384E+00 0.53406158E+03</pdfrwt>
<totfact> 0.17003170E+03</totfact>
</mgrwt>
</event>
<event>
 5    0  0.7099509E-001  0.4555105E+03  0.7546771E-02  0.1026091E+00
         21   -1    0    0  501  502  0.00000000000E+00  0.00000000000E+00  0.12274152886E+04  0.12274152886E+04  0.00000000000E+00 0.  1.
         -2   -1    0    0    0  501 -0.00000000000E+00 -0.00000000000E+00 -0.62906565178E+02  0.62906565178E+02  0.00000000000E+00 0. -1.
         25    1    1    2    0    0  0.18361094027E+03  0.81997870090E+02  0.60196140959E+03  0.64685328068E+03  0.12500000000E+03 0.  0.
         21    1    1    2  503  502 -0.20816900912E+03 -0.67028095864E+02  0.57264697476E+03  0.61298585603E+03  0.00000000000E+00 0.  1.
         -2    1    1    2    0  503  0.24558068858E+02 -0.14969774226E+02 -0.10099660961E+02  0.30482717037E+02  0.00000000000E+00 0. -1.
<mgrwt>
<rscale>  4 0.45551048E+03</rscale>
<asrwt>0</asrwt>
<pdfrwt beam="1">  1       21 0.18883310E+00 0.45551048E+03</pdfrwt>
<pdfrwt beam="2">  1       -2 0.96779340E-02 0.45551048E+03</pdfrwt>
<totfact> 0.79111249E+02</totfact>
</mgrwt>
</event>
<event>
 5    0  0.7099509E-001  0.4572575E+03  0.7546771E-02  0.1025580E+00
         21   -1    0    0  501  502  0.00000000000E+00  0.00000000000E+00  0.17030614175E+03  0.17030614175E+03  0.00000000000E+00 0.  1.
          1   -1    0    0  503    0 -0.00000000000E+00 -0.00000000000E+00 -0.64852300974E+03  0.64852300974E+03  0.00000000000E+00 0.  1.
         25    1    1    2    0    0  0.80718034542E+02  0.28952876148E+03 -0.17203905892E+03  0.36819117672E+03  0.12500000000E+03 0.  0.
         21    1    1    2  503  502  0.21324945807E+02 -0.12994896478E+03 -0.74204306646E+02  0.15115477461E+03  0.00000000000E+00 0. -1.
          1    1    1    2  501    0 -0.10204298035E+03 -0.15957979670E+03 -0.23197350243E+03  0.29948320016E+03  0.00000000000E+00 0.  1.
<mgrwt>
<rscale>  4 0.45725750E+03</rscale>
<asrwt>0</asrwt>
<pdfrwt beam="1">  1       21 0.26200946E-01 0.45725750E+03</pdfrwt>
<pdfrwt beam="2">  1        1 0.99772767E-01 0.45725750E+03</pdfrwt>
<totfact> 0.45656636E+03</totfact>
</mgrwt>
</event>
<event>
 5    0  0.7099509E-001  0.5616118E+03  0.7546771E-02  0.9988414E-01
         21   -1    0    0  501  502  0.00000000000E+00  0.00000000000E+00  0.51416566095E+02  0.51416566095E+02  0.00000000000E+00 0. -1.
          2   -1    0    0  503    0 -0.00000000000E+00 -0.00000000000E+00 -0.31434967244E+04  0.31434967244E+04  0.00000000000E+00 0.  1.
         25    1    1    2    0    0  0.60230031801E+02  0.24461651794E+03 -0.62452357760E+03  0.68492305886E+03  0.12500000000E+03 0.  0.
         21    1    1    2  503  502 -0.17893188587E+03 -0.19858769512E+03 -0.94379744317E+03  0.98092166159E+03  0.00000000000E+00 0.  1.
          2    1    1    2  501    0  0.11870185407E+03 -0.46028822821E+02 -0.15237591375E+04  0.15290685700E+04  0.00000000000E+00 0.  1.
<mgrwt>
<rscale>  4 0.56161180E+03</rscale>
<asrwt>0</asrwt>
<pdfrwt beam="1">  1       21 0.79102391E-02 0.56161180E+03</pdfrwt>
<pdfrwt beam="2">  1        2 0.48361499E+00 0.56161180E+03</pdfrwt>
<totfact> 0.23935240E+03</totfact>
</mgrwt>
</event>
<event>
 5    0  0.7099509E-001  0.4644353E+03  0.7546771E-02  0.1023503E+00
         21   -1    0    0  501  502  0.00000000000E+00  0.00000000000E+00  0.25973532597E+03  0.25973532597E+03  0.00000000000E+00 0. -1.
          1   -1    0    0  503    0 -0.00000000000E+00 -0.00000000000E+00 -0.64000741206E+03  0.64000741206E+03  0.00000000000E+00 0.  1.
         25    1    1    2    0    0 -0.83404936294E+02  0.22314265942E+03  0.13142263397E+03  0.29940931610E+03  0.12500000000E+03 0.  0.
         21    1    1    2  503  502  0.70254805579E+02 -0.12123007331E+03 -0.90537941350E+02  0.16682202255E+03  0.00000000000E+00 0.  1.
          1    1    1    2  501    0  0.13150130715E+02 -0.10191258611E+03 -0.42115677870E+03  0.43351139938E+03  0.00000000000E+00 0.  1.
<mgrwt>
<rscale>  4 0.46443525E+03</rscale>
<asrwt>0</asrwt>
<pdfrwt beam="1">  1       21 0.39959282E-01 0.46443525E+03</pdfrwt>
<pdfrwt beam="2">  1        1 0.98462677E-01 0.46443525E+03</pdfrwt>
<totfact> 0.19928866E+03</totfact>
</mgrwt>
</event>
<event>
 5    0  0.7099509E-001  0.4981804E+03  0.7546771E-02  0.1014255E+00
         21   -1    0    0  501  502  0.00000000000E+00  0.00000000000E+00  0.56005501966E+03  0.56005501966E+03  0.00000000000E+00 0.  1.
          1   -1    0    0  503    0 -0.00000000000E+00 -0.00000000000E+00 -0.16927650539E+04  0.16927650539E+04  0.00000000000E+00 0. -1.
         25    1    1    2    0    0 -0.17928243813E+03  0.12417716611E+03  0.45534671971E+02  0.25546147960E+03  0.12500000000E+03 0.  0.
         21    1    1    2  503  502 -0.36039487555E+02  0.11446035327E+03  0.38404043648E+03  0.40235192802E+03  0.00000000000E+00 0.  1.
          1    1    1    2  501    0  0.21532192569E+03 -0.23863751938E+03 -0.15622851427E+04  0.15950066659E+04  0.00000000000E+00 0. -1.
<mgrwt>
<rscale>  4 0.49818039E+03</rscale>
<asrwt>0</asrwt>
<pdfrwt beam="1">  1       21 0.86162311E-01 0.49818039E+03</pdfrwt>
<pdfrwt beam="2">  1        1 0.26042539E+00 0.49818039E+03</pdfrwt>
<totfact> 0.59175536E+01</totfact>
</mgrwt>
</event>
<event>
 5    0  0.9716044E-001  0.5412188E+03  0.7546771E-02  0.1003547E+00
          1   -1    0    0  503    0 -0.00000000000E+00  0.00000000000E+00  0.20901839626E+04  0.20901839626E+04  0.00000000000E+00 0.  1.
         21   -1    0    0  501  502  0.00000000000E+00 -0.00000000000E+00 -0.44922794963E+03  0.44922794963E+03  0.00000000000E+00 0.  1.
         25    1    1    2    0    0  0.21111922155E+03 -0.11266535254E+03 -0.36934675518E+03  0.45750063709E+03  0.12500000000E+03 0.  0.
         21    1    1    2  503  502 -0.12114494313E+03  0.40246779763E+02  0.85492200634E+02  0.15363859182E+03  0.00000000000E+00 0. -1.
          1    1    1    2  501    0 -0.89974278427E+02  0.72418572780E+02  0.19248105675E+04  0.19282726833E+04  0.00000000000E+00 0.  1.
<mgrwt>
<rscale>  4 0.54121876E+03</rscale>
<asrwt>0</asrwt>
<pdfrwt beam="1">  1       21 0.69111994E-01 0.54121876E+03</pdfrwt>
<pdfrwt beam="2">  1        1 0.32156676E+00 0.54121876E+03</pdfrwt>
<totfact> 0.52802128E+01</totfact>
</mgrwt>
</event>
<event>
 5    0  0.7099509E-001  0.3922943E+03  0.7546771E-02  0.1046481E+00
         21   -1    0    0  501  502  0.00000000000E+00  0.00000000000E+00  0.61464362048E+02  0.61464362048E+02  0.00000000000E+00 0.  1.
          2   -1    0    0  503    0 -0.00000000000E+00 -0.00000000000E+00 -0.24752490997E+04  0.24752490997E+04  0.00000000000E+00 0.  1.
         25    1    1    2    0    0 -0.13571926632E+03  0.17227995662E+03 -0.24997407053E+03  0.35526347777E+03  0.12500000000E+03 0.  0.
         21    1    1    2  503  502  0.67464631266E+02 -0.68782823330E+02 -0.33879259651E+03  0.35222574680E+03  0.00000000000E+00 0. -1.
          2    1    1    2  501    0  0.68254635055E+02 -0.10349713329E+03 -0.18250180706E+04  0.18292242372E+04  0.00000000000E+00 0.  1.
<mgrwt>
<rscale>  4 0.39229430E+03</rscale>
<asrwt>0</asrwt>
<pdfrwt beam="1">  1       21 0.94560554E-02 0.39229430E+03</pdfrwt>
<pdfrwt beam="2">  1        2 0.38080756E+00 0.39229430E+03</pdfrwt>
<totfact> 0.44753731E+03</totfact>
</mgrwt>
</event>
<event>
 5    0  0.7099509E-001  0.5180096E+03  0.7546771E-02  0.1009182E+00
          4   -1    0    0  503    0 -0.00000000000E+00  0.00000000000E+00  0.68216197415E+03  0.68216197415E+03  0.00000000000E+00 0. -1.
         21   -1    0    0  501  502  0.00000000000E+00 -0.00000000000E+00 -0.22490990937E+03  0.22490990937E+03  0.00000000000E+00 0. -1.
         25    1    1    2    0    0  0.21265908690E+03  0.22181640509E+02  0.17775317894E+03  0.30485587585E+03  0.12500000000E+03 0.  0.
         21    1    1    2  503  502 -0.18942299656E+03 -0.34126712809E+02 -0.10335798883E+03  0.21846871174E+03  0.00000000000E+00 0. -1.
          4    1    1    2  501    0 -0.23236090343E+02  0.11945072300E+02  0.38285687468E+03  0.38374729593E+03  0.00000000000E+00 0. -1.
<mgrwt>
<rscale>  4 0.51800963E+03</rscale>
<asrwt>0</asrwt>
<pdfrwt beam="1">  1       21 0.34601525E-01 0.51800963E+03</pdfrwt>
<pdfrwt beam="2">  1        4 0.10494800E+00 0.51800963E+03</pdfrwt>
<totfact> 0.24977497E+02</totfact>
</mgrwt>
</event>
<event>
 5    0  0.7099509E-001  0.4900744E+03  0.7546771E-02  0.1016403E+00
         -3   -1    0    0    0  501 -0.00000000000E+00  0.00000000000E+00  0.71790802473E+03  0.71790802473E+03  0.00000000000E+00 0. -1.
         21   -1    0    0  501  502  0.00000000000E+00 -0.00000000000E+00 -0.65767851570E+03  0.65767851570E+03  0.00000000000E+00 0. -1.
         25    1    1    2    0    0 -0.27885185146E+03 -0.11459825778E+03 -0.40416795298E+03  0.51948806527E+03  0.12500000000E+03 0.  0.
         21    1    1    2  503  502  0.15833399660E+03  0.32124279101E+02 -0.15249096421E+03  0.22216011783E+03  0.00000000000E+00 0. -1.
         -3    1    1    2    0  503  0.12051785486E+03  0.82473978676E+02  0.61688842621E+03  0.63393835733E+03  0.00000000000E+00 0. -1.
<mgrwt>
<rscale>  4 0.49007436E+03</rscale>
<asrwt>0</asrwt>
<pdfrwt beam="1">  1       21 0.10118131E+00 0.49007436E+03</pdfrwt>
<pdfrwt beam="2">  1       -3 0.11044739E+00 0.49007436E+03</pdfrwt>
<totfact> 0.25611412E+01</totfact>
</mgrwt>
</event>
<event>
 5    0  0.7099509E-001  0.4917924E+03  0.7546771E-02  0.1015944E+00
         21   -1    0    0  501  502  0.00000000000E+00  0.00000000000E+00  0.14257508664E+03  0.14257508664E+03  0.00000000000E+00 0. -1.
          2   -1    0    0  503    0 -0.00000000000E+00 -0.00000000000E+00 -0.13412915012E+04  0.13412915012E+04  0.00000000000E+00 0. -1.
         25    1    1    2    0    0  0.23666305805E+03  0.22384281221E+03 -0.49868465474E+03  0.60862664458E+03  0.12500000000E+03 0.  0.
         21    1    1    2  503  502  0.11802036837E+03 -0.80041714639E+02 -0.18594827033E+03  0.23433361405E+03  0.00000000000E+00 0.  1.
          2    1    1    2  501    0 -0.35468342642E+03 -0.14380109757E+03 -0.51408348947E+03  0.64090632918E+03  0.00000000000E+00 0. -1.
<mgrwt>
<rscale>  4 0.49179239E+03</rscale>
<asrwt>0</asrwt>
<pdfrwt beam="1">  1       21 0.21934629E-01 0.49179239E+03</pdfrwt>
<pdfrwt beam="2">  1        2 0.20635254E+00 0.49179239E+03</pdfrwt>
<totfact> 0.38012049E+03</totfact>
</mgrwt>
</event>
<event>
 5    0  0.7099509E-001  0.5345290E+03  0.7546771E-02  0.1005140E+00
          2   -1    0    0  503    0 -0.00000000000E+00  0.00000000000E+00  0.44660705458E+03  0.44660705458E+03  0.00000000000E+00 0. -1.
         21   -1    0    0  501  502  0.00000000000E+00 -0.00000000000E+00 -0.22230841852E+03  0.22230841852E+03  0.00000000000E+00 0. -1.
         25    1    1    2    0    0 -0.22269833745E+03  0.80571667805E+02 -0.36653969585E+02  0.27028661943E+03  0.12500000000E+03 0.  0.
         21    1    1    2  503  502  0.22871916677E+03 -0.60038329108E+02  0.13792105472E+03  0.27375038912E+03  0.00000000000E+00 0. -1.
          2    1    1    2  501    0 -0.60208293199E+01 -0.20533338697E+02  0.12303155093E+03  0.12487846455E+03  0.00000000000E+00 0. -1.
<mgrwt>
<rscale>  4 0.53452899E+03</rscale>
<asrwt>0</asrwt>
<pdfrwt beam="1">  1       21 0.34201295E-01 0.53452899E+03</pdfrwt>
<pdfrwt beam="2">  1        2 0.68708778E-01 0.53452899E+03</pdfrwt>
<totfact> 0.68545321E+03</totfact>
</mgrwt>
</event>
<event>
 5    0  0.7099509E-001  0.5323551E+03  0.7546771E-02  0.1005663E+00
         21   -1    0    0  501  502  0.00000000000E+00  0.00000000000E+00  0.21106171049E+03  0.21106171049E+03  0.00000000000E+00 0. -1.
          1   -1    0    0  503    0 -0.00000000000E+00 -0.00000000000E+00 -0.11966547977E+04  0.11966547977E+04  0.00000000000E+00 0. -1.
         25    1    1    2    0    0 -0.30573783238E+03  0.27652202844E+03 -0.16630945308E+03  0.46176172270E+03  0.12500000000E+03 0.  0.
         21    1    1    2  503  502 -0.35439220509E+02 -0.50734440437E+02 -0.13845774431E+03  0.15165905431E+03  0.00000000000E+00 0.  1.
          1    1    1    2  501    0  0.34117705289E+03 -0.22578758800E+03 -0.68082588983E+03  0.79429573118E+03  0.00000000000E+00 0. -1.
<mgrwt>
<rscale>  4 0.53235515E+03</rscale>
<asrwt>0</asrwt>
<pdfrwt beam="1">  1       21 0.32471032E-01 0.53235515E+03</pdfrwt>
<pdfrwt beam="2">  1        1 0.18410074E+00 0.53235515E+03</pdfrwt>
<totfact> 0.10578670E+03</totfact>
</mgrwt>
</event>
<event>
 5    0  0.7099509E-001  0.3449455E+03  0.7546771E-02  0.1064709E+00
         -1   -1    0    0    0  501 -0.00000000000E+00  0.00000000000E+00  0.29110511714E+03  0.29110511714E+03  0.00000000000E+00 0.  1.
         21   -1    0    0  501  502  0.00000000000E+00 -0.00000000000E+00 -0.10752696470E+04  0.10752696470E+04  0.00000000000E+00 0. -1.
         25    1    1    2    0    0  0.18772800489E+03 -0.10205705258E+03 -0.60219214715E+03  0.65108972338E+03  0.12500000000E+03 0.  0.
         21    1    1    2  503  502 -0.72237143770E+02  0.33266651881E+02 -0.42778621614E+03  0.43511598659E+03  0.00000000000E+00 0. -1.
         -1    1    1    2    0  503 -0.11549086112E+03  0.68790400696E+02  0.24581383341E+03  0.28016905419E+03  0.00000000000E+00 0.  1.
<mgrwt>
<rscale>  4 0.34494553E+03</rscale>
<asrwt>0</asrwt>
<pdfrwt beam="1">  1       21 0.16542610E+00 0.34494553E+03</pdfrwt>
<pdfrwt beam="2">  1       -1 0.44785402E-01 0.34494553E+03</pdfrwt>
<totfact> 0.97594961E+01</totfact>
</mgrwt>
</event>
<event>
 5    0  0.7099509E-001  0.5483927E+03  0.7546771E-02  0.1001867E+00
         21   -1    0    0  501  502  0.00000000000E+00  0.00000000000E+00  0.76322402295E+03  0.76322402295E+03  0.00000000000E+00 0. -1.
         -2   -1    0    0    0  501 -0.00000000000E+00 -0.00000000000E+00 -0.62787734325E+03  0.62787734325E+03  0.00000000000E+00 0.  1.
         25    1    1    2    0    0  0.18331165333E+02 -0.22144012435E+03  0.12151628393E+03  0.28242338351E+03  0.12500000000E+03 0.  0.
         21    1    1    2  503  502 -0.23228850913E+01  0.20148020459E+03  0.54285067646E+03  0.57903931263E+03  0.00000000000E+00 0. -1.
         -2    1    1    2    0  503 -0.16008280242E+02  0.19959919755E+02 -0.52902028070E+03  0.52963867006E+03  0.00000000000E+00 0.  1.
<mgrwt>
<rscale>  4 0.54839267E+03</rscale>
<asrwt>0</asrwt>
<pdfrwt beam="1">  1       21 0.11741908E+00 0.54839267E+03</pdfrwt>
<pdfrwt beam="2">  1       -2 0.96596515E-01 0.54839267E+03</pdfrwt>
<totfact> 0.36580417E+01</totfact>
</mgrwt>
</event>
<event>
 5    0  0.8240371E-001  0.4481110E+03  0.7546771E-02  0.1028287E+00
         21   -1    0    0  501  502  0.00000000000E+00  0.00000000000E+00  0.22409550217E+03  0.22409550217E+03  0.00000000000E+00 0.  1.
          2   -1    0    0  503    0 -0.00000000000E+00 -0.00000000000E+00 -0.13317524542E+04  0.13317524542E+04  0.00000000000E+00 0.  1.
         25    1    1    2    0    0 -0.34160210834E+03  0.33817812539E+02 -0.18518015502E+02  0.36579169176E+03  0.12500000000E+03 0.  0.
         21    1    1    2  503  502  0.76762482008E+02 -0.29494774939E+02 -0.14810312539E+02  0.83556961112E+02  0.00000000000E+00 0. -1.
          2    1    1    2  501    0  0.26483962633E+03 -0.43230376002E+01 -0.10743286239E+04  0.11064993035E+04  0.00000000000E+00 0.  1.
<mgrwt>
<rscale>  4 0.44811096E+03</rscale>
<asrwt>0</asrwt>
<pdfrwt beam="1">  1       21 0.34476231E-01 0.44811096E+03</pdfrwt>
<pdfrwt beam="2">  1        2 0.20488499E+00 0.44811096E+03</pdfrwt>
<totfact> 0.15941963E+03</totfact>
</mgrwt>
</event>
<event>
 5    0  0.7099509E-001  0.6218950E+03  0.7546771E-02  0.9860994E-01
          2   -1    0    0  503    0 -0.00000000000E+00  0.00000000000E+00  0.17521355052E+04  0.17521355052E+04  0.00000000000E+00 0.  1.
         21   -1    0    0  501  502  0.00000000000E+00 -0.00000000000E+00 -0.31406486946E+03  0.31406486946E+03  0.00000000000E+00 0. -1.
         25    1    1    2    0    0  0.57087690884E+02  0.54048031470E+03  0.70350968834E+02  0.56209628521E+03  0.12500000000E+03 0.  0.
         21    1    1    2  503  502 -0.43263030631E+02 -0.46716776568E+02  0.17006902318E+02  0.65904337936E+02  0.00000000000E+00 0.  1.
          2    1    1    2  501    0 -0.13824660253E+02 -0.49376353813E+03  0.13507127646E+04  0.14381997515E+04  0.00000000000E+00 0.  1.
<mgrwt>
<rscale>  4 0.62189500E+03</rscale>
<asrwt>0</asrwt>
<pdfrwt beam="1">  1       21 0.48317673E-01 0.62189500E+03</pdfrwt>
<pdfrwt beam="2">  1        2 0.26955930E+00 0.62189500E+03</pdfrwt>
<totfact> 0.44650888E+02</totfact>
</mgrwt>
</event>
<event>
 5    0  0.7099509E-001  0.6808645E+03  0.7546771E-02  0.9750528E-01
          1   -1    0    0  503    0 -0.00000000000E+00  0.00000000000E+00  0.63365029635E+03  0.63365029635E+03  0.00000000000E+00 0.  1.
         21   -1    0    0  501  502  0.00000000000E+00 -0.00000000000E+00 -0.56640332569E+03  0.56640332569E+03  0.00000000000E+00 0. -1.
         25    1    1    2    0    0 -0.23208759111E+03  0.37839568236E+03  0.60877984509E+02  0.46516563864E+03  0.12500000000E+03 0.  0.
         21    1    1    2  503  502  0.13361588457E+03  0.10491015919E+03 -0.14028027374E+03  0.22031318914E+03  0.00000000000E+00 0.  1.
          1    1    1    2  501    0  0.98471706543E+02 -0.48330584155E+03  0.14664925988E+03  0.51457479426E+03  0.00000000000E+00 0.  1.
<mgrwt>
<rscale>  4 0.68086452E+03</rscale>
<asrwt>0</asrwt>
<pdfrwt beam="1">  1       21 0.87138973E-01 0.68086452E+03</pdfrwt>
<pdfrwt beam="2">  1        1 0.97484661E-01 0.68086452E+03</pdfrwt>
<totfact> 0.34863945E+02</totfact>
</mgrwt>
</event>
<event>
 5    0  0.7099509E-001  0.1067886E+04  0.7546771E-02  0.9237070E-01
          1   -1    0    0  503    0 -0.00000000000E+00  0.00000000000E+00  0.11363773022E+04  0.11363773022E+04  0.00000000000E+00 0.  1.
         21   -1    0    0  501  502  0.00000000000E+00 -0.00000000000E+00 -0.91696128041E+03  0.91696128041E+03  0.00000000000E+00 0. -1.
         25    1    1    2    0    0  0.86639870100E+02  0.38319714378E+03 -0.73460380885E+03  0.84238605999E+03  0.12500000000E+03 0.  0.
         21    1    1    2  503  502 -0.87454229166E+02 -0.35239292189E+03  0.12894079685E+03  0.38529825160E+03  0.00000000000E+00 0.  1.
          1    1    1    2  501    0  0.81435906635E+00 -0.30804221890E+02  0.82507903376E+03  0.82565427099E+03  0.00000000000E+00 0.  1.
<mgrwt>
<rscale>  4 0.10678863E+04</rscale>
<asrwt>0</asrwt>
<pdfrwt beam="1">  1       21 0.14107097E+00 0.10678863E+04</pdfrwt>
<pdfrwt beam="2">  1        1 0.17482728E+00 0.10678863E+04</pdfrwt>
<totfact> 0.36298763E+01</totfact>
</mgrwt>
</event>
<event>
 5    0  0.7099509E-001  0.4065872E+03  0.7546771E-02  0.1041522E+00
          2   -1    0    0  503    0 -0.00000000000E+00  0.00000000000E+00  0.20695135001E+04  0.20695135001E+04  0.00000000000E+00 0. -1.
         21   -1    0    0  501  502  0.00000000000E+00 -0.00000000000E+00 -0.34181607044E+03  0.34181607044E+03  0.00000000000E+00 0.  1.
         25    1    1    2    0    0 -0.28696393743E+03 -0.62873989010E+02 -0.24864676415E+03  0.40466239410E+03  0.12500000000E+03 0.  0.
         21    1    1    2  503  502  0.33712603999E+02  0.81692307326E+01  0.39495274890E+02  0.52565699251E+02  0.00000000000E+00 0. -1.
          2    1    1    2  501    0  0.25325133343E+03  0.54704758277E+02  0.19368489189E+04  0.19541014771E+04  0.00000000000E+00 0. -1.
<mgrwt>
<rscale>  4 0.40658724E+03</rscale>
<asrwt>0</asrwt>
<pdfrwt beam="1">  1       21 0.52587089E-01 0.40658724E+03</pdfrwt>
<pdfrwt beam="2">  1        2 0.31838668E+00 0.40658724E+03</pdfrwt>
<totfact> 0.26825795E+02</totfact>
</mgrwt>
</event>
<event>
 5    0  0.7099509E-001  0.4965949E+03  0.7546771E-02  0.1014672E+00
          2   -1    0    0  503    0 -0.00000000000E+00  0.00000000000E+00  0.18021728450E+04  0.18021728450E+04  0.00000000000E+00 0. -1.
         21   -1    0    0  501  502  0.00000000000E+00 -0.00000000000E+00 -0.17972403784E+03  0.17972403784E+03  0.00000000000E+00 0. -1.
         25    1    1    2    0    0  0.45725306625E+02 -0.39478744874E+03  0.14951422145E+03  0.44263691189E+03  0.12500000000E+03 0.  0.
         21    1    1    2  503  502  0.43528854183E+02  0.44958056802E+02  0.87618175990E+02  0.10767048241E+03  0.00000000000E+00 0.  1.
          2    1    1    2  501    0 -0.89254160809E+02  0.34982939194E+03  0.13853164097E+04  0.14315894885E+04  0.00000000000E+00 0. -1.
<mgrwt>
<rscale>  4 0.49659486E+03</rscale>
<asrwt>0</asrwt>
<pdfrwt beam="1">  1       21 0.27649853E-01 0.49659486E+03</pdfrwt>
<pdfrwt beam="2">  1        2 0.27725735E+00 0.49659486E+03</pdfrwt>
<totfact> 0.13546280E+03</totfact>
</mgrwt>
</event>
<event>
 5    0  0.7099509E-001  0.5514487E+03  0.7546771E-02  0.1001159E+00
         21   -1    0    0  501  502  0.00000000000E+00  0.00000000000E+00  0.23416985687E+03  0.23416985687E+03  0.00000000000E+00 0.  1.
          2   -1    0    0  503    0 -0.00000000000E+00 -0.00000000000E+00 -0.26239010336E+04  0.26239010336E+04  0.00000000000E+00 0. -1.
         25    1    1    2    0    0 -0.29490135717E+03 -0.25617035353E+03 -0.20003478054E+03  0.45632113026E+03  0.12500000000E+03 0.  0.
         21    1    1    2  503  502  0.37277110631E+02 -0.89803879883E+02  0.57878626794E+02  0.11315588919E+03  0.00000000000E+00 0. -1.
          2    1    1    2  501    0  0.25762424654E+03  0.34597423341E+03 -0.22475750230E+04  0.22885938711E+04  0.00000000000E+00 0. -1.
<mgrwt>
<rscale>  4 0.55144873E+03</rscale>
<asrwt>0</asrwt>
<pdfrwt beam="1">  1       21 0.36026135E-01 0.55144873E+03</pdfrwt>
<pdfrwt beam="2">  1        2 0.40367705E+00 0.55144873E+03</pdfrwt>
<totfact> 0.27821312E+02</totfact>
</mgrwt>
</event>
<event>
 5    0  0.1086665E+000  0.4160373E+03  0.7546771E-02  0.1038364E+00
         21   -1    0    0  501  502  0.00000000000E+00  0.00000000000E+00  0.32045331550E+03  0.32045331550E+03  0.00000000000E+00 0. -1.
          1   -1    0    0  503    0 -0.00000000000E+00 -0.00000000000E+00 -0.14277580796E+04  0.14277580796E+04  0.00000000000E+00 0. -1.
         25    1    1    2    0    0 -0.35856649391E+02 -0.22372954574E+03  0.24318731984E+03  0.35511361770E+03  0.12500000000E+03 0.  0.
         21    1    1    2  503  502 -0.22049431208E+02  0.68692904276E+02 -0.65346727180E+02  0.97340059932E+02  0.00000000000E+00 0.  1.
          1    1    1    2  501    0  0.57906080599E+02  0.15503664147E+03 -0.12851453567E+04  0.12957577174E+04  0.00000000000E+00 0. -1.
<mgrwt>
<rscale>  4 0.41603732E+03</rscale>
<asrwt>0</asrwt>
<pdfrwt beam="1">  1       21 0.49300510E-01 0.41603732E+03</pdfrwt>
<pdfrwt beam="2">  1        1 0.21965509E+00 0.41603732E+03</pdfrwt>
<totfact> 0.31822573E+02</totfact>
</mgrwt>
</event>
<event>
 5    0  0.7099509E-001  0.7219566E+03  0.7546771E-02  0.9680403E-01
         -3   -1    0    0    0  501 -0.00000000000E+00  0.00000000000E+00  0.13396560149E+04  0.13396560149E+04  0.00000000000E+00 0. -1.
         21   -1    0    0  501  502  0.00000000000E+00 -0.00000000000E+00 -0.10800448594E+03  0.10800448594E+03  0.00000000000E+00 0.  1.
         25    1    1    2    0    0 -0.21111225056E+03 -0.23662665949E+03  0.79610264347E+03  0.86600518316E+03  0.12500000000E+03 0.  0.
         21    1    1    2  503  502  0.20456675234E+03  0.26945472570E+03  0.33675331904E+03  0.47734285713E+03  0.00000000000E+00 0.  1.
         -3    1    1    2    0  503  0.65454982286E+01 -0.32828066209E+02  0.98795566445E+02  0.10431246056E+03  0.00000000000E+00 0. -1.
<mgrwt>
<rscale>  4 0.72195660E+03</rscale>
<asrwt>0</asrwt>
<pdfrwt beam="1">  1       21 0.16616076E-01 0.72195660E+03</pdfrwt>
<pdfrwt beam="2">  1       -3 0.20610091E+00 0.72195660E+03</pdfrwt>
<totfact> 0.21802312E+02</totfact>
</mgrwt>
</event>
<event>
 5    0  0.7099509E-001  0.4127801E+03  0.7546771E-02  0.1039442E+00
          2   -1    0    0  503    0 -0.00000000000E+00  0.00000000000E+00  0.78768793998E+03  0.78768793998E+03  0.00000000000E+00 0. -1.
         21   -1    0    0  501  502  0.00000000000E+00 -0.00000000000E+00 -0.30984710826E+03  0.30984710826E+03  0.00000000000E+00 0.  1.
         25    1    1    2    0    0  0.14451281100E+03 -0.20058251410E+03 -0.10249698810E+03  0.29537760591E+03  0.12500000000E+03 0.  0.
         21    1    1    2  503  502 -0.13573136978E+03 -0.37500167564E-01 -0.46862909606E+02  0.14359365740E+03  0.00000000000E+00 0.  1.
          2    1    1    2  501    0 -0.87814412168E+01  0.20062001426E+03  0.62720072942E+03  0.65856378493E+03  0.00000000000E+00 0. -1.
<mgrwt>
<rscale>  4 0.41278008E+03</rscale>
<asrwt>0</asrwt>
<pdfrwt beam="1">  1       21 0.47668786E-01 0.41278008E+03</pdfrwt>
<pdfrwt beam="2">  1        2 0.12118276E+00 0.41278008E+03</pdfrwt>
<totfact> 0.17882344E+03</totfact>
</mgrwt>
</event>
<event>
 5    0  0.7099509E-001  0.4258901E+03  0.7546771E-02  0.1035166E+00
          2   -1    0    0  503    0 -0.00000000000E+00  0.00000000000E+00  0.37620356273E+03  0.37620356273E+03  0.00000000000E+00 0.  1.
         21   -1    0    0  501  502  0.00000000000E+00 -0.00000000000E+00 -0.28654436401E+03  0.28654436401E+03  0.00000000000E+00 0.  1.
         25    1    1    2    0    0 -0.27941731618E+03 -0.37722236702E+01  0.21414073083E+02  0.30687428824E+03  0.12500000000E+03 0.  0.
         21    1    1    2  503  502  0.84398835164E+02 -0.74286314222E+02 -0.40283752314E+02  0.11943366593E+03  0.00000000000E+00 0. -1.
          2    1    1    2  501    0  0.19501848102E+03  0.78058537893E+02  0.10852887795E+03  0.23643997256E+03  0.00000000000E+00 0.  1.
<mgrwt>
<rscale>  4 0.42589013E+03</rscale>
<asrwt>0</asrwt>
<pdfrwt beam="1">  1       21 0.44083748E-01 0.42589013E+03</pdfrwt>
<pdfrwt beam="2">  1        2 0.57877472E-01 0.42589013E+03</pdfrwt>
<totfact> 0.49970776E+03</totfact>
</mgrwt>
</event>
<event>
 5    0  0.7099509E-001  0.9771012E+03  0.7546771E-02  0.9334023E-01
         21   -1    0    0  501  502  0.00000000000E+00  0.00000000000E+00  0.49068808766E+03  0.49068808766E+03  0.00000000000E+00 0. -1.
          2   -1    0    0  503    0 -0.00000000000E+00 -0.00000000000E+00 -0.12449143521E+04  0.12449143521E+04  0.00000000000E+00 0. -1.
         25    1    1    2    0    0 -0.27730180561E+02 -0.48138733759E+03 -0.17884330533E+03  0.52925670479E+03  0.12500000000E+03 0.  0.
         21    1    1    2  503  502  0.78221131078E+02  0.40368757588E+03  0.17743570763E+03  0.44784554772E+03  0.00000000000E+00 0. -1.
          2    1    1    2  501    0 -0.50490950517E+02  0.77699761712E+02 -0.75281866674E+03  0.75850018724E+03  0.00000000000E+00 0. -1.
<mgrwt>
<rscale>  4 0.97710124E+03</rscale>
<asrwt>0</asrwt>
<pdfrwt beam="1">  1       21 0.75490476E-01 0.97710124E+03</pdfrwt>
<pdfrwt beam="2">  1        2 0.19152528E+00 0.97710124E+03</pdfrwt>
<totfact> 0.29950048E+02</totfact>
</mgrwt>
</event>
<event>
 5    0  0.7099509E-001  0.3944302E+03  0.7546771E-02  0.1045726E+00
          2   -1    0    0  503    0 -0.00000000000E+00  0.00000000000E+00  0.16028582269E+04  0.16028582269E+04  0.00000000000E+00 0.  1.
         21   -1    0    0  501  502  0.00000000000E+00 -0.00000000000E+00 -0.10374353740E+04  0.10374353740E+04  0.00000000000E+00 0.  1.
         25    1    1    2    0    0 -0.10140442800E+03  0.17393055279E+03 -0.51278664942E+03  0.56489808199E+03  0.12500000000E+03 0.  0.
         21    1    1    2  503  502 -0.15054752530E+03  0.23470994223E+02 -0.47018962772E+03  0.49426079246E+03  0.00000000000E+00 0.  1.
          2    1    1    2  501    0  0.25195195330E+03 -0.19740154701E+03  0.15483991300E+04  0.15811347265E+04  0.00000000000E+00 0.  1.
<mgrwt>
<rscale>  4 0.39443017E+03</rscale>
<asrwt>0</asrwt>
<pdfrwt beam="1">  1       21 0.15960544E+00 0.39443017E+03</pdfrwt>
<pdfrwt beam="2">  1        2 0.24659357E+00 0.39443017E+03</pdfrwt>
<totfact> 0.33486033E+01</totfact>
</mgrwt>
</event>
<event>
 5    0  0.7099509E-001  0.4107521E+03  0.7546771E-02  0.1040119E+00
         -3   -1    0    0    0  501 -0.00000000000E+00  0.00000000000E+00  0.14617312358E+03  0.14617312358E+03  0.00000000000E+00 0.  1.
         21   -1    0    0  501  502  0.00000000000E+00 -0.00000000000E+00 -0.73976785861E+03  0.73976785861E+03  0.00000000000E+00 0. -1.
         25    1    1    2    0    0  0.13797052641E+03 -0.17153892091E+03 -0.39248690246E+03  0.46704650320E+03  0.12500000000E+03 0.  0.
         21    1    1    2  503  502 -0.13978972526E+03 -0.43852477442E+02 -0.11762802608E+03  0.18788443146E+03  0.00000000000E+00 0.  1.
         -3    1    1    2    0  503  0.18191988509E+01  0.21539139835E+03 -0.83479806493E+02  0.23101004753E+03  0.00000000000E+00 0.  1.
<mgrwt>
<rscale>  4 0.41075210E+03</rscale>
<asrwt>0</asrwt>
<pdfrwt beam="1">  1       21 0.11381044E+00 0.41075210E+03</pdfrwt>
<pdfrwt beam="2">  1       -3 0.22488173E-01 0.41075210E+03</pdfrwt>
<totfact> 0.51749635E+02</totfact>
</mgrwt>
</event>
<event>
 5    0  0.7099509E-001  0.4263974E+03  0.7546771E-02  0.1035004E+00
         21   -1    0    0  501  502  0.00000000000E+00  0.00000000000E+00  0.69572442804E+02  0.69572442804E+02  0.00000000000E+00 0.  1.
          2   -1    0    0  503    0 -0.00000000000E+00 -0.00000000000E+00 -0.79223928093E+03  0.79223928093E+03  0.00000000000E+00 0.  1.
         25    1    1    2    0    0 -0.15154643869E+03  0.13556421552E+03 -0.29141261016E+03  0.37668327408E+03  0.12500000000E+03 0.  0.
         21    1    1    2  503  502  0.14498264213E+03 -0.11451483340E+03 -0.30217681892E+03  0.35418137088E+03  0.00000000000E+00 0.  1.
          2    1    1    2  501    0  0.65637965585E+01 -0.21049382125E+02 -0.12907740904E+03  0.13094707877E+03  0.00000000000E+00 0.  1.
<mgrwt>
<rscale>  4 0.42639737E+03</rscale>
<asrwt>0</asrwt>
<pdfrwt beam="1">  1       21 0.10703453E-01 0.42639737E+03</pdfrwt>
<pdfrwt beam="2">  1        2 0.12188296E+00 0.42639737E+03</pdfrwt>
<totfact> 0.31846219E+04</totfact>
</mgrwt>
</event>
<event>
 5    0  0.7099509E-001  0.8144287E+03  0.7546771E-02  0.9539364E-01
         21   -1    0    0  501  502  0.00000000000E+00  0.00000000000E+00  0.31125048676E+03  0.31125048676E+03  0.00000000000E+00 0.  1.
          1   -1    0    0  503    0 -0.00000000000E+00 -0.00000000000E+00 -0.88364869623E+03  0.88364869623E+03  0.00000000000E+00 0.  1.
         25    1    1    2    0    0  0.16069138061E+03  0.12355371407E+03 -0.52290739641E+03  0.57458192217E+03  0.12500000000E+03 0.  0.
         21    1    1    2  503  502 -0.17099600471E+03  0.50558994863E+02  0.22990413468E+03  0.29094974949E+03  0.00000000000E+00 0.  1.
          1    1    1    2  501    0  0.10304624099E+02 -0.17411270894E+03 -0.27939494775E+03  0.32936751133E+03  0.00000000000E+00 0.  1.
<mgrwt>
<rscale>  4 0.81442873E+03</rscale>
<asrwt>0</asrwt>
<pdfrwt beam="1">  1       21 0.47884692E-01 0.81442873E+03</pdfrwt>
<pdfrwt beam="2">  1        1 0.13594595E+00 0.81442873E+03</pdfrwt>
<totfact> 0.78218793E+02</totfact>
</mgrwt>
</event>
<event>
 5    0  0.7099509E-001  0.5398578E+03  0.7546771E-02  0.1003869E+00
         21   -1    0    0  501  502  0.00000000000E+00  0.00000000000E+00  0.26046137694E+03  0.26046137694E+03  0.00000000000E+00 0.  1.
          2   -1    0    0  503    0 -0.00000000000E+00 -0.00000000000E+00 -0.57375422712E+03  0.57375422712E+03  0.00000000000E+00 0. -1.
         25    1    1    2    0    0 -0.18506925682E+03 -0.83194319325E+02  0.83356665456E+02  0.25247823324E+03  0.12500000000E+03 0.  0.
         21    1    1    2  503  502  0.25514004992E+03  0.73803460308E+02 -0.11167212377E+03  0.28812160463E+03  0.00000000000E+00 0.  1.
          2    1    1    2  501    0 -0.70070793109E+02  0.93908590164E+01 -0.28497739186E+03  0.29361576618E+03  0.00000000000E+00 0. -1.
<mgrwt>
<rscale>  4 0.53985778E+03</rscale>
<asrwt>0</asrwt>
<pdfrwt beam="1">  1       21 0.40070982E-01 0.53985778E+03</pdfrwt>
<pdfrwt beam="2">  1        2 0.88269879E-01 0.53985778E+03</pdfrwt>
<totfact> 0.37103684E+03</totfact>
</mgrwt>
</event>
<event>
 5    0  0.7099509E-001  0.4489460E+03  0.7546771E-02  0.1028037E+00
          2   -1    0    0  503    0 -0.00000000000E+00  0.00000000000E+00  0.12464447918E+03  0.12464447918E+03  0.00000000000E+00 0. -1.
         21   -1    0    0  501  502  0.00000000000E+00 -0.00000000000E+00 -0.11110024999E+04  0.11110024999E+04  0.00000000000E+00 0.  1.
         25    1    1    2    0    0  0.13700536300E+03  0.23588429890E+03 -0.67548730293E+03  0.73913460776E+03  0.12500000000E+03 0.  0.
         21    1    1    2  503  502  0.39363861138E+02 -0.14022317850E+03 -0.24557057252E+03  0.28551175009E+03  0.00000000000E+00 0. -1.
          2    1    1    2  501    0 -0.17636922414E+03 -0.95661120396E+02 -0.65300145235E+02  0.21100062120E+03  0.00000000000E+00 0. -1.
<mgrwt>
<rscale>  4 0.44894604E+03</rscale>
<asrwt>0</asrwt>
<pdfrwt beam="1">  1       21 0.17092347E+00 0.44894604E+03</pdfrwt>
<pdfrwt beam="2">  1        2 0.19176073E-01 0.44894604E+03</pdfrwt>
<totfact> 0.67525763E+02</totfact>
</mgrwt>
</event>
<event>
 5    0  0.7099509E-001  0.4799983E+03  0.7546771E-02  0.1019136E+00
          2   -1    0    0  503    0 -0.00000000000E+00  0.00000000000E+00  0.24640026467E+04  0.24640026467E+04  0.00000000000E+00 0.  1.
         21   -1    0    0  501  502  0.00000000000E+00 -0.00000000000E+00 -0.49765396071E+02  0.49765396071E+02  0.00000000000E+00 0. -1.
         25    1    1    2    0    0 -0.12139110338E+03  0.16563230684E+03  0.64742972986E+03  0.69062299133E+03  0.12500000000E+03 0.  0.
         21    1    1    2  503  502  0.79527898726E+02 -0.22205512212E+03  0.48398513839E+03  0.53840020256E+03  0.00000000000E+00 0. -1.
          2    1    1    2  501    0  0.41863204655E+02  0.56422815272E+02  0.12828223824E+04  0.12847448489E+04  0.00000000000E+00 0.  1.
<mgrwt>
<rscale>  4 0.47999834E+03</rscale>
<asrwt>0</asrwt>
<pdfrwt beam="1">  1       21 0.76562167E-02 0.47999834E+03</pdfrwt>
<pdfrwt beam="2">  1        2 0.37907723E+00 0.47999834E+03</pdfrwt>
<totfact> 0.64683970E+03</totfact>
</mgrwt>
</event>
<event>
 5    0  0.7099509E-001  0.5943468E+03  0.7546771E-02  0.9917205E-01
         21   -1    0    0  501  502  0.00000000000E+00  0.00000000000E+00  0.17710732986E+03  0.17710732986E+03  0.00000000000E+00 0. -1.
          2   -1    0    0  503    0 -0.00000000000E+00 -0.00000000000E+00 -0.71097388990E+03  0.71097388990E+03  0.00000000000E+00 0.  1.
         25    1    1    2    0    0  0.27754839889E+03  0.77359549691E+02 -0.30517645643E+03  0.43792154916E+03  0.12500000000E+03 0.  0.
         21    1    1    2  503  502 -0.22643416124E+03 -0.86146117071E+02 -0.29179974327E+02  0.24401855209E+03  0.00000000000E+00 0. -1.
          2    1    1    2  501    0 -0.51114237657E+02  0.87865673800E+01 -0.19951012928E+03  0.20614111852E+03  0.00000000000E+00 0.  1.
<mgrwt>
<rscale>  4 0.59434677E+03</rscale>
<asrwt>0</asrwt>
<pdfrwt beam="1">  1       21 0.27247282E-01 0.59434677E+03</pdfrwt>
<pdfrwt beam="2">  1        2 0.10938060E+00 0.59434677E+03</pdfrwt>
<totfact> 0.61854975E+03</totfact>
</mgrwt>
</event>
<event>
 5    0  0.7099509E-001  0.4056672E+03  0.7546771E-02  0.1041835E+00
         21   -1    0    0  501  502  0.00000000000E+00  0.00000000000E+00  0.20172929308E+03  0.20172929308E+03  0.00000000000E+00 0.  1.
          2   -1    0    0  503    0 -0.00000000000E+00 -0.00000000000E+00 -0.17027092384E+04  0.17027092384E+04  0.00000000000E+00 0. -1.
         25    1    1    2    0    0 -0.12229075639E+03 -0.16586796780E+03  0.10930023098E+03  0.26464835600E+03  0.12500000000E+03 0.  0.
         21    1    1    2  503  502  0.71568630196E+02  0.38068020398E+00 -0.12172840927E+03  0.14120913345E+03  0.00000000000E+00 0. -1.
          2    1    1    2  501    0  0.50722126197E+02  0.16548728760E+03 -0.14885517670E+04  0.14985810420E+04  0.00000000000E+00 0. -1.
<mgrwt>
<rscale>  4 0.40566716E+03</rscale>
<asrwt>0</asrwt>
<pdfrwt beam="1">  1       21 0.31035277E-01 0.40566716E+03</pdfrwt>
<pdfrwt beam="2">  1        2 0.26195526E+00 0.40566716E+03</pdfrwt>
<totfact> 0.12488853E+03</totfact>
</mgrwt>
</event>
<event>
 5    0  0.7099509E-001  0.4723397E+03  0.7546771E-02  0.1021262E+00
         21   -1    0    0  501  502  0.00000000000E+00  0.00000000000E+00  0.10317207799E+04  0.10317207799E+04  0.00000000000E+00 0. -1.
          2   -1    0    0  503    0 -0.00000000000E+00 -0.00000000000E+00 -0.22789897260E+04  0.22789897260E+04  0.00000000000E+00 0.  1.
         25    1    1    2    0    0 -0.21478453777E+03  0.59501419066E+02  0.69019028603E+03  0.73597584707E+03  0.12500000000E+03 0.  0.
         21    1    1    2  503  502  0.19873330761E+03 -0.14705003249E+02  0.28720139512E+03  0.34956516708E+03  0.00000000000E+00 0. -1.
          2    1    1    2  501    0  0.16051230165E+02 -0.44796415817E+02 -0.22246606272E+04  0.22251694918E+04  0.00000000000E+00 0.  1.
<mgrwt>
<rscale>  4 0.47233970E+03</rscale>
<asrwt>0</asrwt>
<pdfrwt beam="1">  1       21 0.15872627E+00 0.47233970E+03</pdfrwt>
<pdfrwt beam="2">  1        2 0.35061380E+00 0.47233970E+03</pdfrwt>
<totfact> 0.14135908E+01</totfact>
</mgrwt>
</event>
<event>
 5    0  0.7099509E-001  0.3965415E+03  0.7546771E-02  0.1044984E+00
         21   -1    0    0  501  502  0.00000000000E+00  0.00000000000E+00  0.30629585437E+03  0.30629585437E+03  0.00000000000E+00 0.  1.
          2   -1    0    0  503    0 -0.00000000000E+00 -0.00000000000E+00 -0.78635404444E+03  0.78635404444E+03  0.00000000000E+00 0.  1.
         25    1    1    2    0    0 -0.34177176491E+02  0.22049398053E+03  0.18854761510E+03  0.31774341536E+03  0.12500000000E+03 0.  0.
         21    1    1    2  503  502 -0.93468677047E+02 -0.27728041451E+02 -0.40447080477E+02  0.10555190283E+03  0.00000000000E+00 0. -1.
          2    1    1    2  501    0  0.12764585354E+03 -0.19276593908E+03 -0.62815872469E+03  0.66935458063E+03  0.00000000000E+00 0.  1.
<mgrwt>
<rscale>  4 0.39654150E+03</rscale>
<asrwt>0</asrwt>
<pdfrwt beam="1">  1       21 0.47122440E-01 0.39654150E+03</pdfrwt>
<pdfrwt beam="2">  1        2 0.12097754E+00 0.39654150E+03</pdfrwt>
<totfact> 0.18432781E+03</totfact>
</mgrwt>
</event>
<event>
 5    0  0.7099509E-001  0.5575988E+03  0.7546771E-02  0.9997503E-01
          2   -1    0    0  503    0 -0.00000000000E+00  0.00000000000E+00  0.28274709565E+04  0.28274709565E+04  0.00000000000E+00 0. -1.
         21   -1    0    0  501  502  0.00000000000E+00 -0.00000000000E+00 -0.90243501252E+02  0.90243501252E+02  0.00000000000E+00 0.  1.
         25    1    1    2    0    0  0.15237335630E+03  0.15020373931E+03  0.16035233253E+03  0.29515533802E+03  0.12500000000E+03 0.  0.
         21    1    1    2  503  502 -0.63760722444E+02 -0.22550511065E+03  0.62934215877E+03  0.67155754591E+03  0.00000000000E+00 0.  1.
          2    1    1    2  501    0 -0.88612633858E+02  0.75301371339E+02  0.19475329639E+04  0.19510015738E+04  0.00000000000E+00 0. -1.
<mgrwt>
<rscale>  4 0.55759879E+03</rscale>
<asrwt>0</asrwt>
<pdfrwt beam="1">  1       21 0.13883618E-01 0.55759879E+03</pdfrwt>
<pdfrwt beam="2">  1        2 0.43499546E+00 0.55759879E+03</pdfrwt>
<totfact> 0.13419989E+03</totfact>
</mgrwt>
</event>
<event>
 5    0  0.7099509E-001  0.4495922E+03  0.7546771E-02  0.1027844E+00
          2   -1    0    0  503    0 -0.00000000000E+00  0.00000000000E+00  0.66330757322E+03  0.66330757322E+03  0.00000000000E+00 0.  1.
         21   -1    0    0  501  502  0.00000000000E+00 -0.00000000000E+00 -0.21672144899E+03  0.21672144899E+03  0.00000000000E+00 0.  1.
         25    1    1    2    0    0  0.18601679310E+03  0.84461541821E+02  0.13263294262E+03  0.27377453649E+03  0.12500000000E+03 0.  0.
         21    1    1    2  503  502 -0.12672523875E+03 -0.52865308412E+02 -0.11066494933E+03  0.17635406993E+03  0.00000000000E+00 0.  1.
          2    1    1    2  501    0 -0.59291554350E+02 -0.31596233410E+02  0.42461813093E+03  0.42990041579E+03  0.00000000000E+00 0.  1.
<mgrwt>
<rscale>  4 0.44959223E+03</rscale>
<asrwt>0</asrwt>
<pdfrwt beam="1">  1       21 0.33341762E-01 0.44959223E+03</pdfrwt>
<pdfrwt beam="2">  1        2 0.10204732E+00 0.44959223E+03</pdfrwt>
<totfact> 0.45965323E+03</totfact>
</mgrwt>
</event>
<event>
 5    0  0.7099509E-001  0.4995563E+03  0.7546771E-02  0.1013895E+00
         21   -1    0    0  501  502  0.00000000000E+00  0.00000000000E+00  0.32238205343E+03  0.32238205343E+03  0.00000000000E+00 0.  1.
          4   -1    0    0  503    0 -0.00000000000E+00 -0.00000000000E+00 -0.22072826884E+04  0.22072826884E+04  0.00000000000E+00 0.  1.
         25    1    1    2    0    0 -0.19856460823E+03 -0.28547183975E+02  0.19072860031E+02  0.23713207152E+03  0.12500000000E+03 0.  0.
         21    1    1    2  503  502  0.25592463295E+03  0.14871132826E+02  0.10909250226E+03  0.27860319882E+03  0.00000000000E+00 0.  1.
          4    1    1    2  501    0 -0.57360024718E+02  0.13676051148E+02 -0.20130659973E+04  0.20139294715E+04  0.00000000000E+00 0.  1.
<mgrwt>
<rscale>  4 0.49955631E+03</rscale>
<asrwt>0</asrwt>
<pdfrwt beam="1">  1       21 0.49597239E-01 0.49955631E+03</pdfrwt>
<pdfrwt beam="2">  1        4 0.33958195E+00 0.49955631E+03</pdfrwt>
<totfact> 0.30014911E+00</totfact>
</mgrwt>
</event>
<event>
 5    0  0.7099509E-001  0.7549676E+03  0.7546771E-02  0.9627589E-01
          2   -1    0    0  503    0 -0.00000000000E+00  0.00000000000E+00  0.12064020378E+04  0.12064020378E+04  0.00000000000E+00 0. -1.
         21   -1    0    0  501  502  0.00000000000E+00 -0.00000000000E+00 -0.15966924402E+03  0.15966924402E+03  0.00000000000E+00 0. -1.
         25    1    1    2    0    0  0.91290278994E+02 -0.29267042296E+03  0.24820724845E+03  0.41378947509E+03  0.12500000000E+03 0.  0.
         21    1    1    2  503  502 -0.14611149899E+03  0.37990252358E+03  0.55854567291E+03  0.69112065972E+03  0.00000000000E+00 0. -1.
          2    1    1    2  501    0  0.54821219999E+02 -0.87232100620E+02  0.23997987239E+03  0.26116114698E+03  0.00000000000E+00 0. -1.
<mgrwt>
<rscale>  4 0.75496763E+03</rscale>
<asrwt>0</asrwt>
<pdfrwt beam="1">  1       21 0.24564500E-01 0.75496763E+03</pdfrwt>
<pdfrwt beam="2">  1        2 0.18560031E+00 0.75496763E+03</pdfrwt>
<totfact> 0.35105459E+03</totfact>
</mgrwt>
</event>
<event>
 5    0  0.7099509E-001  0.4686929E+03  0.7546771E-02  0.1022290E+00
         21   -1    0    0  501  502  0.00000000000E+00  0.00000000000E+00  0.97879341825E+03  0.97879341825E+03  0.00000000000E+00 0.  1.
          4   -1    0    0  503    0 -0.00000000000E+00 -0.00000000000E+00 -0.67909514534E+03  0.67909514534E+03  0.00000000000E+00 0. -1.
         25    1    1    2    0    0 -0.26818489291E+03 -0.16989699191E+03  0.83487233454E+03  0.90190073713E+03  0.12500000000E+03 0.  0.
         21    1    1    2  503  502  0.78396425415E+02 -0.39096272337E+02  0.53831658594E+02  0.10282200881E+03  0.00000000000E+00 0. -1.
          4    1    1    2  501    0  0.18978846750E+03  0.20899326425E+03 -0.58900572022E+03  0.65316581765E+03  0.00000000000E+00 0. -1.
<mgrwt>
<rscale>  4 0.46869287E+03</rscale>
<asrwt>0</asrwt>
<pdfrwt beam="1">  1       21 0.15058360E+00 0.46869287E+03</pdfrwt>
<pdfrwt beam="2">  1        4 0.10447618E+00 0.46869287E+03</pdfrwt>
<totfact> 0.86034557E+00</totfact>
</mgrwt>
</event>
<event>
 5    0  0.7099509E-001  0.7785241E+03  0.7546771E-02  0.9591634E-01
          2   -1    0    0  503    0 -0.00000000000E+00  0.00000000000E+00  0.19233617876E+04  0.19233617876E+04  0.00000000000E+00 0. -1.
         21   -1    0    0  501  502  0.00000000000E+00 -0.00000000000E+00 -0.17848485848E+03  0.17848485848E+03  0.00000000000E+00 0.  1.
         25    1    1    2    0    0 -0.33335860345E+03  0.42283442844E+02  0.95784022385E+02  0.37110029235E+03  0.12500000000E+03 0.  0.
         21    1    1    2  503  502  0.28354362275E+03  0.10161873146E+03  0.60739186917E+03  0.67797362435E+03  0.00000000000E+00 0. -1.
          2    1    1    2  501    0  0.49814980701E+02 -0.14390217431E+03  0.10417010375E+04  0.10527727294E+04  0.00000000000E+00 0. -1.
<mgrwt>
<rscale>  4 0.77852408E+03</rscale>
<asrwt>0</asrwt>
<pdfrwt beam="1">  1       21 0.27459210E-01 0.77852408E+03</pdfrwt>
<pdfrwt beam="2">  1        2 0.29590180E+00 0.77852408E+03</pdfrwt>
<totfact> 0.11174017E+03</totfact>
</mgrwt>
</event>
<event>
 5    0  0.7099509E-001  0.4899649E+03  0.7546771E-02  0.1016432E+00
          1   -1    0    0  503    0 -0.00000000000E+00  0.00000000000E+00  0.16354345373E+04  0.16354345373E+04  0.00000000000E+00 0.  1.
         21   -1    0    0  501  502  0.00000000000E+00 -0.00000000000E+00 -0.63660467981E+03  0.63660467981E+03  0.00000000000E+00 0.  1.
         25    1    1    2    0    0  0.23454537365E+03 -0.26190122534E+00 -0.16430196820E+03  0.31246077777E+03  0.12500000000E+03 0.  0.
         21    1    1    2  503  502 -0.17810956712E+03  0.23260211836E+02 -0.37733512262E+03  0.41790650882E+03  0.00000000000E+00 0.  1.
          1    1    1    2  501    0 -0.56435806528E+02 -0.22998310611E+02  0.15404669483E+04  0.15416719305E+04  0.00000000000E+00 0.  1.
<mgrwt>
<rscale>  4 0.48996493E+03</rscale>
<asrwt>0</asrwt>
<pdfrwt beam="1">  1       21 0.97939182E-01 0.48996493E+03</pdfrwt>
<pdfrwt beam="2">  1        1 0.25160531E+00 0.48996493E+03</pdfrwt>
<totfact> 0.47751314E+01</totfact>
</mgrwt>
</event>
<event>
 5    0  0.7099509E-001  0.4132275E+03  0.7546771E-02  0.1039293E+00
         21   -1    0    0  501  502  0.00000000000E+00  0.00000000000E+00  0.33808099912E+03  0.33808099912E+03  0.00000000000E+00 0. -1.
          2   -1    0    0  503    0 -0.00000000000E+00 -0.00000000000E+00 -0.52753440243E+03  0.52753440243E+03  0.00000000000E+00 0. -1.
         25    1    1    2    0    0  0.15049903963E+03 -0.16530926857E+03  0.13386336847E+03  0.28900089381E+03  0.12500000000E+03 0.  0.
         21    1    1    2  503  502 -0.10387955166E+03  0.11771887441E+03  0.74132023802E+02  0.17362099987E+03  0.00000000000E+00 0. -1.
          2    1    1    2  501    0 -0.46619487974E+02  0.47590394162E+02 -0.39744879558E+03  0.40299350787E+03  0.00000000000E+00 0. -1.
<mgrwt>
<rscale>  4 0.41322746E+03</rscale>
<asrwt>0</asrwt>
<pdfrwt beam="1">  1       21 0.52012462E-01 0.41322746E+03</pdfrwt>
<pdfrwt beam="2">  1        2 0.81159138E-01 0.41322746E+03</pdfrwt>
<totfact> 0.24158636E+03</totfact>
</mgrwt>
</event>
<event>
 5    0  0.7099509E-001  0.5752862E+03  0.7546771E-02  0.9958049E-01
          1   -1    0    0  503    0 -0.00000000000E+00  0.00000000000E+00  0.58806483435E+03  0.58806483435E+03  0.00000000000E+00 0.  1.
         21   -1    0    0  501  502  0.00000000000E+00 -0.00000000000E+00 -0.36909864814E+03  0.36909864814E+03  0.00000000000E+00 0.  1.
         25    1    1    2    0    0  0.43320184241E+02  0.22830038560E+03 -0.20677725104E+03  0.33523057136E+03  0.12500000000E+03 0.  0.
         21    1    1    2  503  502 -0.18218662129E+02 -0.24925458702E+03  0.63025357914E+02  0.25774399031E+03  0.00000000000E+00 0.  1.
          1    1    1    2  501    0 -0.25101522112E+02  0.20954201421E+02  0.36271807933E+03  0.36418892081E+03  0.00000000000E+00 0.  1.
<mgrwt>
<rscale>  4 0.57528621E+03</rscale>
<asrwt>0</asrwt>
<pdfrwt beam="1">  1       21 0.56784408E-01 0.57528621E+03</pdfrwt>
<pdfrwt beam="2">  1        1 0.90471513E-01 0.57528621E+03</pdfrwt>
<totfact> 0.10471313E+03</totfact>
</mgrwt>
</event>
<event>
 5    0  0.7099509E-001  0.3852707E+03  0.7546771E-02  0.1049003E+00
         21   -1    0    0  501  502  0.00000000000E+00  0.00000000000E+00  0.34657681858E+03  0.34657681858E+03  0.00000000000E+00 0. -1.
          2   -1    0    0  503    0 -0.00000000000E+00 -0.00000000000E+00 -0.10685753804E+04  0.10685753804E+04  0.00000000000E+00 0. -1.
         25    1    1    2    0    0  0.18762396757E+03 -0.82911974997E+02  0.74267288080E+02  0.25143145961E+03  0.12500000000E+03 0.  0.
         21    1    1    2  503  502 -0.10570512039E+03  0.52124142821E+02  0.16262666516E+03  0.20084305057E+03  0.00000000000E+00 0. -1.
          2    1    1    2  501    0 -0.81918847180E+02  0.30787832177E+02 -0.95889251505E+03  0.96287768878E+03  0.00000000000E+00 0. -1.
<mgrwt>
<rscale>  4 0.38527067E+03</rscale>
<asrwt>0</asrwt>
<pdfrwt beam="1">  1       21 0.53319512E-01 0.38527067E+03</pdfrwt>
<pdfrwt beam="2">  1        2 0.16439621E+00 0.38527067E+03</pdfrwt>
<totfact> 0.93191829E+02</totfact>
</mgrwt>
</event>
<event>
 5    0  0.7099509E-001  0.3805635E+03  0.7546771E-02  0.1050726E+00
         21   -1    0    0  501  502  0.00000000000E+00  0.00000000000E+00  0.24086215265E+03  0.24086215265E+03  0.00000000000E+00 0. -1.
         -1   -1    0    0    0  501 -0.00000000000E+00 -0.00000000000E+00 -0.49183787389E+03  0.49183787389E+03  0.00000000000E+00 0.  1.
         25    1    1    2    0    0  0.22029085836E+03  0.30569643162E+02  0.73354800625E+02  0.26545902157E+03  0.12500000000E+03 0.  0.
         21    1    1    2  503  502 -0.12262618223E+03  0.64277386157E+01  0.38384354031E+01  0.12285450735E+03  0.00000000000E+00 0. -1.
         -1    1    1    2    0  503 -0.97664676134E+02 -0.36997381777E+02 -0.32816895727E+03  0.34438649761E+03  0.00000000000E+00 0.  1.
<mgrwt>
<rscale>  4 0.38056353E+03</rscale>
<asrwt>0</asrwt>
<pdfrwt beam="1">  1       21 0.37055716E-01 0.38056353E+03</pdfrwt>
<pdfrwt beam="2">  1       -1 0.75667365E-01 0.38056353E+03</pdfrwt>
<totfact> 0.11374527E+03</totfact>
</mgrwt>
</event>
<event>
 5    0  0.7099509E-001  0.3642591E+03  0.7546771E-02  0.1056910E+00
          2   -1    0    0  503    0 -0.00000000000E+00  0.00000000000E+00  0.10057543586E+04  0.10057543586E+04  0.00000000000E+00 0. -1.
         21   -1    0    0  501  502  0.00000000000E+00 -0.00000000000E+00 -0.15102137208E+03  0.15102137208E+03  0.00000000000E+00 0. -1.
         25    1    1    2    0    0  0.51888230288E+01  0.21993642361E+03  0.40342567847E+03  0.47621028167E+03  0.12500000000E+03 0.  0.
         21    1    1    2  503  502  0.50648613512E+02  0.22222031030E+02  0.42733482606E+03  0.43089923912E+03  0.00000000000E+00 0. -1.
          2    1    1    2  501    0 -0.55837436541E+02 -0.24215845464E+03  0.23972481993E+02  0.24966620990E+03  0.00000000000E+00 0. -1.
<mgrwt>
<rscale>  4 0.36425907E+03</rscale>
<asrwt>0</asrwt>
<pdfrwt beam="1">  1       21 0.23234058E-01 0.36425907E+03</pdfrwt>
<pdfrwt beam="2">  1        2 0.15473144E+00 0.36425907E+03</pdfrwt>
<totfact> 0.54928662E+03</totfact>
</mgrwt>
</event>
<event>
 5    0  0.7099509E-001  0.4641749E+03  0.7546771E-02  0.1023577E+00
         -1   -1    0    0    0  501 -0.00000000000E+00  0.00000000000E+00  0.23813767902E+03  0.23813767902E+03  0.00000000000E+00 0. -1.
         21   -1    0    0  501  502  0.00000000000E+00 -0.00000000000E+00 -0.62766827820E+03  0.62766827820E+03  0.00000000000E+00 0. -1.
         25    1    1    2    0    0  0.70378239809E+01  0.24632217334E+03 -0.48387016392E+03  0.55720685528E+03  0.12500000000E+03 0.  0.
         21    1    1    2  503  502  0.66199881571E+02 -0.92166865979E+02 -0.23686616105E+00  0.11347780228E+03  0.00000000000E+00 0.  1.
         -1    1    1    2    0  503 -0.73237705552E+02 -0.15415530736E+03  0.94576430894E+02  0.19512129966E+03  0.00000000000E+00 0. -1.
<mgrwt>
<rscale>  4 0.46417485E+03</rscale>
<asrwt>0</asrwt>
<pdfrwt beam="1">  1       21 0.96564350E-01 0.46417485E+03</pdfrwt>
<pdfrwt beam="2">  1       -1 0.36636566E-01 0.46417485E+03</pdfrwt>
<totfact> 0.54124936E+02</totfact>
</mgrwt>
</event>
<event>
 5    0  0.7099509E-001  0.6757025E+03  0.7546771E-02  0.9759711E-01
          2   -1    0    0  503    0 -0.00000000000E+00  0.00000000000E+00  0.28928936066E+04  0.28928936066E+04  0.00000000000E+00 0. -1.
         21   -1    0    0  501  502  0.00000000000E+00 -0.00000000000E+00 -0.32117610514E+03  0.32117610514E+03  0.00000000000E+00 0. -1.
         25    1    1    2    0    0 -0.94700639384E+02  0.31855937529E+03  0.21830002209E+03  0.41680713325E+03  0.12500000000E+03 0.  0.
         21    1    1    2  503  502  0.10309110569E+03 -0.15831166006E+03 -0.17871146956E+03  0.26005412347E+03  0.00000000000E+00 0. -1.
          2    1    1    2  501    0 -0.83904663107E+01 -0.16024771524E+03  0.25321289489E+04  0.25372084550E+04  0.00000000000E+00 0. -1.
<mgrwt>
<rscale>  4 0.67570253E+03</rscale>
<asrwt>0</asrwt>
<pdfrwt beam="1">  1       21 0.49411710E-01 0.67570253E+03</pdfrwt>
<pdfrwt beam="2">  1        2 0.44506054E+00 0.67570253E+03</pdfrwt>
<totfact> 0.96596057E+01</totfact>
</mgrwt>
</event>
<event>
 5    0  0.7099509E-001  0.3501840E+03  0.7546771E-02  0.1062540E+00
          1   -1    0    0  503    0 -0.00000000000E+00  0.00000000000E+00  0.12713310928E+04  0.12713310928E+04  0.00000000000E+00 0.  1.
         21   -1    0    0  501  502  0.00000000000E+00 -0.00000000000E+00 -0.48046215860E+03  0.48046215860E+03  0.00000000000E+00 0.  1.
         25    1    1    2    0    0 -0.16431132756E+03 -0.11528048469E+03 -0.28087745189E+03  0.36715792991E+03  0.12500000000E+03 0.  0.
         21    1    1    2  503  502  0.78182449104E+02  0.82585869050E+02 -0.13378523347E+03  0.17558875194E+03  0.00000000000E+00 0. -1.
          1    1    1    2  501    0  0.86128878454E+02  0.32694615644E+02  0.12055316196E+04  0.12090465696E+04  0.00000000000E+00 0.  1.
<mgrwt>
<rscale>  4 0.35018398E+03</rscale>
<asrwt>0</asrwt>
<pdfrwt beam="1">  1       21 0.73917256E-01 0.35018398E+03</pdfrwt>
<pdfrwt beam="2">  1        1 0.19558940E+00 0.35018398E+03</pdfrwt>
<totfact> 0.17244173E+02</totfact>
</mgrwt>
</event>
<event>
 5    0  0.7099509E-001  0.7088982E+03  0.7546771E-02  0.9702135E-01
         21   -1    0    0  501  502  0.00000000000E+00  0.00000000000E+00  0.13120333266E+04  0.13120333266E+04  0.00000000000E+00 0.  1.
         -4   -1    0    0    0  501 -0.00000000000E+00 -0.00000000000E+00 -0.13888158308E+03  0.13888158308E+03  0.00000000000E+00 0.  1.
         25    1    1    2    0    0 -0.21749112733E+03  0.16069961893E+03  0.20527626621E+03  0.36178737328E+03  0.12500000000E+03 0.  0.
         21    1    1    2  503  502  0.23474751871E+03 -0.13485892566E+03  0.10049361517E+04  0.10407641406E+04  0.00000000000E+00 0.  1.
         -4    1    1    2    0  503 -0.17256391374E+02 -0.25840693271E+02 -0.37060674364E+02  0.48363395831E+02  0.00000000000E+00 0.  1.
<mgrwt>
<rscale>  4 0.70889820E+03</rscale>
<asrwt>0</asrwt>
<pdfrwt beam="1">  1       21 0.20185127E+00 0.70889820E+03</pdfrwt>
<pdfrwt beam="2">  1       -4 0.21366398E-01 0.70889820E+03</pdfrwt>
<totfact> 0.96911168E+01</totfact>
</mgrwt>
</event>
<event>
 5    0  0.7099509E-001  0.5919817E+03  0.7546771E-02  0.9922183E-01
         21   -1    0    0  501  502  0.00000000000E+00  0.00000000000E+00  0.18707757216E+03  0.18707757216E+03  0.00000000000E+00 0. -1.
         -1   -1    0    0    0  501 -0.00000000000E+00 -0.00000000000E+00 -0.56896146731E+03  0.56896146731E+03  0.00000000000E+00 0. -1.
         25    1    1    2    0    0  0.17048461168E+03  0.21326392513E+03 -0.21664487092E+03  0.37027895522E+03  0.12500000000E+03 0.  0.
         21    1    1    2  503  502 -0.21761446054E+03 -0.18338776365E+03 -0.10420157885E+03  0.30305955574E+03  0.00000000000E+00 0. -1.
         -1    1    1    2    0  503  0.47129848861E+02 -0.29876161478E+02 -0.61037445383E+02  0.82700528518E+02  0.00000000000E+00 0. -1.
<mgrwt>
<rscale>  4 0.59198168E+03</rscale>
<asrwt>0</asrwt>
<pdfrwt beam="1">  1       21 0.28781165E-01 0.59198168E+03</pdfrwt>
<pdfrwt beam="2">  1       -1 0.87532533E-01 0.59198168E+03</pdfrwt>
<totfact> 0.13425243E+03</totfact>
</mgrwt>
</event>
<event>
 5    0  0.7099509E-001  0.5922283E+03  0.7546771E-02  0.9921662E-01
         21   -1    0    0  501  502  0.00000000000E+00  0.00000000000E+00  0.46350983682E+02  0.46350983682E+02  0.00000000000E+00 0.  1.
          1   -1    0    0  503    0 -0.00000000000E+00 -0.00000000000E+00 -0.28844273854E+04  0.28844273854E+04  0.00000000000E+00 0. -1.
         25    1    1    2    0    0 -0.23686118392E+03  0.61938292219E+02 -0.44148233796E+03  0.52006848321E+03  0.12500000000E+03 0.  0.
         21    1    1    2  503  502  0.18482605444E+03 -0.23824600047E+02 -0.14509200853E+04  0.14628388073E+04  0.00000000000E+00 0. -1.
          1    1    1    2  501    0  0.52035129477E+02 -0.38113692173E+02 -0.94567397846E+03  0.94787107866E+03  0.00000000000E+00 0. -1.
<mgrwt>
<rscale>  4 0.59222833E+03</rscale>
<asrwt>0</asrwt>
<pdfrwt beam="1">  1       21 0.71309195E-02 0.59222833E+03</pdfrwt>
<pdfrwt beam="2">  1        1 0.44375812E+00 0.59222833E+03</pdfrwt>
<totfact> 0.12826758E+03</totfact>
</mgrwt>
</event>
<event>
 5    0  0.7099509E-001  0.5104474E+03  0.7546771E-02  0.1011087E+00
         21   -1    0    0  501  502  0.00000000000E+00  0.00000000000E+00  0.52127445133E+03  0.52127445133E+03  0.00000000000E+00 0. -1.
          2   -1    0    0  503    0 -0.00000000000E+00 -0.00000000000E+00 -0.52257670677E+03  0.52257670677E+03  0.00000000000E+00 0.  1.
         25    1    1    2    0    0  0.78878412627E+02  0.22404485944E+03  0.25916836445E+03  0.37311009655E+03  0.12500000000E+03 0.  0.
         21    1    1    2  503  502 -0.11260860604E+03 -0.20746298325E+03  0.13604268154E+03  0.27245036021E+03  0.00000000000E+00 0.  1.
          2    1    1    2  501    0  0.33730193411E+02 -0.16581876186E+02 -0.39651330143E+03  0.39829070134E+03  0.00000000000E+00 0.  1.
<mgrwt>
<rscale>  4 0.51044738E+03</rscale>
<asrwt>0</asrwt>
<pdfrwt beam="1">  1       21 0.80196070E-01 0.51044738E+03</pdfrwt>
<pdfrwt beam="2">  1        2 0.80396416E-01 0.51044738E+03</pdfrwt>
<totfact> 0.91456413E+02</totfact>
</mgrwt>
</event>
<event>
 5    0  0.7099509E-001  0.4025476E+03  0.7546771E-02  0.1042901E+00
          1   -1    0    0  503    0 -0.00000000000E+00  0.00000000000E+00  0.41205861675E+03  0.41205861675E+03  0.00000000000E+00 0. -1.
         21   -1    0    0  501  502  0.00000000000E+00 -0.00000000000E+00 -0.30098443960E+03  0.30098443960E+03  0.00000000000E+00 0. -1.
         25    1    1    2    0    0 -0.22320052277E+03  0.20683001751E+03  0.40560665915E+02  0.33146236156E+03  0.12500000000E+03 0.  0.
         21    1    1    2  503  502  0.49636072944E+02  0.36733008750E+02  0.54027313642E+02  0.82048792121E+02  0.00000000000E+00 0.  1.
          1    1    1    2  501    0  0.17356444983E+03 -0.24356302626E+03  0.16486197593E+02  0.29953190267E+03  0.00000000000E+00 0. -1.
<mgrwt>
<rscale>  4 0.40254762E+03</rscale>
<asrwt>0</asrwt>
<pdfrwt beam="1">  1       21 0.46305298E-01 0.40254762E+03</pdfrwt>
<pdfrwt beam="2">  1        1 0.63393634E-01 0.40254762E+03</pdfrwt>
<totfact> 0.27090025E+03</totfact>
</mgrwt>
</event>
<event>
 5    0  0.7099509E-001  0.5000212E+03  0.7546771E-02  0.1013773E+00
         -1   -1    0    0    0  501 -0.00000000000E+00  0.00000000000E+00  0.12750545095E+04  0.12750545095E+04  0.00000000000E+00 0. -1.
         21   -1    0    0  501  502  0.00000000000E+00 -0.00000000000E+00 -0.17190790053E+03  0.17190790053E+03  0.00000000000E+00 0.  1.
         25    1    1    2    0    0 -0.24320001192E+03 -0.28953199546E+02 -0.78735696232E+00  0.27497300503E+03  0.12500000000E+03 0.  0.
         21    1    1    2  503  502  0.17226614297E+03  0.15986732575E+02  0.19696019514E+03  0.26215361547E+03  0.00000000000E+00 0.  1.
         -1    1    1    2    0  503  0.70933868949E+02  0.12966466971E+02  0.90697377078E+03  0.90983578953E+03  0.00000000000E+00 0. -1.
<mgrwt>
<rscale>  4 0.50002122E+03</rscale>
<asrwt>0</asrwt>
<pdfrwt beam="1">  1       21 0.26447370E-01 0.50002122E+03</pdfrwt>
<pdfrwt beam="2">  1       -1 0.19616223E+00 0.50002122E+03</pdfrwt>
<totfact> 0.20599640E+02</totfact>
</mgrwt>
</event>
<event>
 5    0  0.7099509E-001  0.4615970E+03  0.7546771E-02  0.1024319E+00
         21   -1    0    0  501  502  0.00000000000E+00  0.00000000000E+00  0.11422916831E+03  0.11422916831E+03  0.00000000000E+00 0. -1.
          1   -1    0    0  503    0 -0.00000000000E+00 -0.00000000000E+00 -0.92752965096E+03  0.92752965096E+03  0.00000000000E+00 0.  1.
         25    1    1    2    0    0 -0.20056772430E+03  0.32615910313E+02 -0.78227709584E+02  0.25106928164E+03  0.12500000000E+03 0.  0.
         21    1    1    2  503  502  0.17616289166E+03 -0.46840903790E+02 -0.27608188457E+03  0.33083023086E+03  0.00000000000E+00 0.  1.
          1    1    1    2  501    0  0.24404832638E+02  0.14224993477E+02 -0.45899088851E+03  0.45985930677E+03  0.00000000000E+00 0.  1.
<mgrwt>
<rscale>  4 0.46159696E+03</rscale>
<asrwt>0</asrwt>
<pdfrwt beam="1">  1       21 0.17573719E-01 0.46159696E+03</pdfrwt>
<pdfrwt beam="2">  1        1 0.14269687E+00 0.46159696E+03</pdfrwt>
<totfact> 0.56206845E+03</totfact>
</mgrwt>
</event>
<event>
 5    0  0.7099509E-001  0.3464794E+03  0.7546771E-02  0.1064069E+00
          2   -1    0    0  503    0 -0.00000000000E+00  0.00000000000E+00  0.36834023278E+04  0.36834023278E+04  0.00000000000E+00 0. -1.
         21   -1    0    0  501  502  0.00000000000E+00 -0.00000000000E+00 -0.54806109668E+03  0.54806109668E+03  0.00000000000E+00 0.  1.
         25    1    1    2    0    0  0.16709371382E+03 -0.18142286587E+03 -0.42001429473E+03  0.50286337432E+03  0.12500000000E+03 0.  0.
         21    1    1    2  503  502 -0.52519380022E+02  0.42649214094E+02 -0.70831248885E+02  0.97950531185E+02  0.00000000000E+00 0. -1.
          2    1    1    2  501    0 -0.11457433380E+03  0.13877365177E+03  0.36261867747E+04  0.36306495189E+04  0.00000000000E+00 0. -1.
<mgrwt>
<rscale>  4 0.34647944E+03</rscale>
<asrwt>0</asrwt>
<pdfrwt beam="1">  1       21 0.84317094E-01 0.34647944E+03</pdfrwt>
<pdfrwt beam="2">  1        2 0.56667727E+00 0.34647944E+03</pdfrwt>
<totfact> 0.10579950E+01</totfact>
</mgrwt>
</event>
<event>
 5    0  0.7099509E-001  0.4322259E+03  0.7546771E-02  0.1033159E+00
         21   -1    0    0  501  502  0.00000000000E+00  0.00000000000E+00  0.22267197899E+03  0.22267197899E+03  0.00000000000E+00 0. -1.
          1   -1    0    0  503    0 -0.00000000000E+00 -0.00000000000E+00 -0.19889224383E+04  0.19889224383E+04  0.00000000000E+00 0. -1.
         25    1    1    2    0    0 -0.21869509798E+03 -0.17023115085E+02  0.64891041418E+02  0.26067830670E+03  0.12500000000E+03 0.  0.
         21    1    1    2  503  502  0.16050042385E+03  0.30368205415E+02 -0.52940234579E+02  0.17171279042E+03  0.00000000000E+00 0. -1.
          1    1    1    2  501    0  0.58194674129E+02 -0.13345090330E+02 -0.17782012662E+04  0.17792033202E+04  0.00000000000E+00 0. -1.
<mgrwt>
<rscale>  4 0.43222591E+03</rscale>
<asrwt>0</asrwt>
<pdfrwt beam="1">  1       21 0.34257229E-01 0.43222591E+03</pdfrwt>
<pdfrwt beam="2">  1        1 0.30598806E+00 0.43222591E+03</pdfrwt>
<totfact> 0.28455668E+02</totfact>
</mgrwt>
</event>
<event>
 5    0  0.7099509E-001  0.4200287E+03  0.7546771E-02  0.1037057E+00
         21   -1    0    0  501  502  0.00000000000E+00  0.00000000000E+00  0.13548887367E+03  0.13548887367E+03  0.00000000000E+00 0. -1.
          2   -1    0    0  503    0 -0.00000000000E+00 -0.00000000000E+00 -0.15356718263E+04  0.15356718263E+04  0.00000000000E+00 0.  1.
         25    1    1    2    0    0  0.14864558240E+03 -0.19556253636E+03 -0.90699789167E+02  0.29015800273E+03  0.12500000000E+03 0.  0.
         21    1    1    2  503  502 -0.45845223598E+02  0.12859494764E+03 -0.11017046002E+03  0.17543082781E+03  0.00000000000E+00 0. -1.
          2    1    1    2  501    0 -0.10280035880E+03  0.66967588711E+02 -0.11993127034E+04  0.12055718694E+04  0.00000000000E+00 0.  1.
<mgrwt>
<rscale>  4 0.42002869E+03</rscale>
<asrwt>0</asrwt>
<pdfrwt beam="1">  1       21 0.20844441E-01 0.42002869E+03</pdfrwt>
<pdfrwt beam="2">  1        2 0.23625721E+00 0.42002869E+03</pdfrwt>
<totfact> 0.33228037E+03</totfact>
</mgrwt>
</event>
<event>
 5    0  0.7099509E-001  0.5421404E+03  0.7546771E-02  0.1003330E+00
         21   -1    0    0  501  502  0.00000000000E+00  0.00000000000E+00  0.13875972196E+04  0.13875972196E+04  0.00000000000E+00 0.  1.
          2   -1    0    0  503    0 -0.00000000000E+00 -0.00000000000E+00 -0.79830498200E+02  0.79830498200E+02  0.00000000000E+00 0.  1.
         25    1    1    2    0    0  0.18739059322E+03 -0.92092174018E+02  0.31011319751E+03  0.39419715652E+03  0.12500000000E+03 0.  0.
         21    1    1    2  503  502 -0.17504969102E+03  0.12646130719E+03  0.10114102657E+04  0.10342077074E+04  0.00000000000E+00 0.  1.
          2    1    1    2  501    0 -0.12340902200E+02 -0.34369133168E+02 -0.13756741762E+02  0.39022853890E+02  0.00000000000E+00 0.  1.
<mgrwt>
<rscale>  4 0.54214038E+03</rscale>
<asrwt>0</asrwt>
<pdfrwt beam="1">  1       21 0.21347648E+00 0.54214038E+03</pdfrwt>
<pdfrwt beam="2">  1        2 0.12281616E-01 0.54214038E+03</pdfrwt>
<totfact> 0.57685332E+02</totfact>
</mgrwt>
</event>
<event>
 5    0  0.7099509E-001  0.3629556E+03  0.7546771E-02  0.1057420E+00
         21   -1    0    0  501  502  0.00000000000E+00  0.00000000000E+00  0.10284939290E+04  0.10284939290E+04  0.00000000000E+00 0. -1.
          2   -1    0    0  503    0 -0.00000000000E+00 -0.00000000000E+00 -0.12909348099E+03  0.12909348099E+03  0.00000000000E+00 0. -1.
         25    1    1    2    0    0 -0.13607986588E+03 -0.17965973199E+03  0.73988352770E+03  0.78348451406E+03  0.12500000000E+03 0.  0.
         21    1    1    2  503  502 -0.56014411998E+02  0.69992146695E+02  0.11938636876E+03  0.14929708636E+03  0.00000000000E+00 0.  1.
          2    1    1    2  501    0  0.19209427788E+03  0.10966758530E+03  0.40130551571E+02  0.22480580959E+03  0.00000000000E+00 0. -1.
<mgrwt>
<rscale>  4 0.36295559E+03</rscale>
<asrwt>0</asrwt>
<pdfrwt beam="1">  1       21 0.15822983E+00 0.36295559E+03</pdfrwt>
<pdfrwt beam="2">  1        2 0.19860536E-01 0.36295559E+03</pdfrwt>
<totfact> 0.82504765E+02</totfact>
</mgrwt>
</event>
<event>
 5    0  0.7099509E-001  0.6033452E+03  0.7546771E-02  0.9898490E-01
         21   -1    0    0  501  502  0.00000000000E+00  0.00000000000E+00  0.33157529041E+03  0.33157529041E+03  0.00000000000E+00 0. -1.
          2   -1    0    0  503    0 -0.00000000000E+00 -0.00000000000E+00 -0.59359485976E+03  0.59359485976E+03  0.00000000000E+00 0.  1.
         25    1    1    2    0    0  0.18868987476E+03  0.20371336325E+03 -0.77025516858E+02  0.31410338019E+03  0.12500000000E+03 0.  0.
         21    1    1    2  503  502 -0.18452427394E+03 -0.18256178194E+03  0.13346778080E+03  0.29187610456E+03  0.00000000000E+00 0. -1.
          2    1    1    2  501    0 -0.41656008207E+01 -0.21151581304E+02 -0.31846183329E+03  0.31919066541E+03  0.00000000000E+00 0.  1.
<mgrwt>
<rscale>  4 0.60334518E+03</rscale>
<asrwt>0</asrwt>
<pdfrwt beam="1">  1       21 0.51011584E-01 0.60334518E+03</pdfrwt>
<pdfrwt beam="2">  1        2 0.91322285E-01 0.60334518E+03</pdfrwt>
<totfact> 0.21234047E+03</totfact>
</mgrwt>
</event>
<event>
 5    0  0.7099509E-001  0.4431645E+03  0.7546771E-02  0.1029780E+00
         -3   -1    0    0    0  501 -0.00000000000E+00  0.00000000000E+00  0.44704354973E+03  0.44704354973E+03  0.00000000000E+00 0.  1.
         21   -1    0    0  501  502  0.00000000000E+00 -0.00000000000E+00 -0.30849894327E+03  0.30849894327E+03  0.00000000000E+00 0.  1.
         25    1    1    2    0    0 -0.97758245638E+02  0.17790438516E+03 -0.15917996820E+03  0.28665293846E+03  0.12500000000E+03 0.  0.
         21    1    1    2  503  502  0.10647399610E+03 -0.14533818626E+03  0.11334938556E+02  0.18052252231E+03  0.00000000000E+00 0.  1.
         -3    1    1    2    0  503 -0.87157504605E+01 -0.32566198907E+02  0.28638963609E+03  0.28836703223E+03  0.00000000000E+00 0.  1.
<mgrwt>
<rscale>  4 0.44316448E+03</rscale>
<asrwt>0</asrwt>
<pdfrwt beam="1">  1       21 0.47461376E-01 0.44316448E+03</pdfrwt>
<pdfrwt beam="2">  1       -3 0.68775931E-01 0.44316448E+03</pdfrwt>
<totfact> 0.41718244E+02</totfact>
</mgrwt>
</event>
<event>
 5    0  0.7099509E-001  0.4304412E+03  0.7546771E-02  0.1033721E+00
         21   -1    0    0  501  502  0.00000000000E+00  0.00000000000E+00  0.52233178717E+02  0.52233178717E+02  0.00000000000E+00 0. -1.
          2   -1    0    0  503    0 -0.00000000000E+00 -0.00000000000E+00 -0.27740385634E+04  0.27740385634E+04  0.00000000000E+00 0. -1.
         25    1    1    2    0    0  0.14005288299E+03  0.18663318048E+03 -0.64620147144E+03  0.69831804772E+03  0.12500000000E+03 0.  0.
         21    1    1    2  503  502 -0.63214445752E+02 -0.13937478956E+03 -0.20832464345E+03  0.25849672181E+03  0.00000000000E+00 0. -1.
          2    1    1    2  501    0 -0.76838437235E+02 -0.47258390922E+02 -0.18672792698E+04  0.18694569726E+04  0.00000000000E+00 0. -1.
<mgrwt>
<rscale>  4 0.43044119E+03</rscale>
<asrwt>0</asrwt>
<pdfrwt beam="1">  1       21 0.80358740E-02 0.43044119E+03</pdfrwt>
<pdfrwt beam="2">  1        2 0.42677515E+00 0.43044119E+03</pdfrwt>
<totfact> 0.40088011E+03</totfact>
</mgrwt>
</event>
<event>
 5    0  0.7099509E-001  0.5095600E+03  0.7546771E-02  0.1011313E+00
          2   -1    0    0  503    0 -0.00000000000E+00  0.00000000000E+00  0.16288013439E+03  0.16288013439E+03  0.00000000000E+00 0. -1.
         21   -1    0    0  501  502  0.00000000000E+00 -0.00000000000E+00 -0.63165937331E+03  0.63165937331E+03  0.00000000000E+00 0. -1.
         25    1    1    2    0    0  0.15313067652E+03  0.18021412798E+03 -0.17296848021E+03  0.31854235379E+03  0.12500000000E+03 0.  0.
         21    1    1    2  503  502 -0.70076288924E+02 -0.21427874513E+03 -0.31184968169E+03  0.38480682278E+03  0.00000000000E+00 0. -1.
          2    1    1    2  501    0 -0.83054387599E+02  0.34064617154E+02  0.16038922989E+02  0.91190331132E+02  0.00000000000E+00 0. -1.
<mgrwt>
<rscale>  4 0.50956002E+03</rscale>
<asrwt>0</asrwt>
<pdfrwt beam="1">  1       21 0.97178365E-01 0.50956002E+03</pdfrwt>
<pdfrwt beam="2">  1        2 0.25058482E-01 0.50956002E+03</pdfrwt>
<totfact> 0.21358104E+03</totfact>
</mgrwt>
</event>
<event>
 5    0  0.7521179E-001  0.5558458E+03  0.7546771E-02  0.1000150E+00
          2   -1    0    0  503    0 -0.00000000000E+00  0.00000000000E+00  0.13258037723E+04  0.13258037723E+04  0.00000000000E+00 0.  1.
         21   -1    0    0  501  502  0.00000000000E+00 -0.00000000000E+00 -0.32397817326E+03  0.32397817326E+03  0.00000000000E+00 0. -1.
         25    1    1    2    0    0  0.56096123543E+01  0.23532027099E+03  0.12064715757E+03  0.29255398531E+03  0.12500000000E+03 0.  0.
         21    1    1    2  503  502 -0.15875320601E+02 -0.17474400103E+03 -0.20470152987E+03  0.26961121644E+03  0.00000000000E+00 0. -1.
          2    1    1    2  501    0  0.10265708247E+02 -0.60576269955E+02  0.10858799713E+04  0.10876167438E+04  0.00000000000E+00 0.  1.
<mgrwt>
<rscale>  4 0.55584582E+03</rscale>
<asrwt>0</asrwt>
<pdfrwt beam="1">  1       21 0.49842796E-01 0.55584582E+03</pdfrwt>
<pdfrwt beam="2">  1        2 0.20396981E+00 0.55584582E+03</pdfrwt>
<totfact> 0.72886862E+02</totfact>
</mgrwt>
</event>
<event>
 5    0  0.7099509E-001  0.5622018E+03  0.7546771E-02  0.9987085E-01
         -2   -1    0    0    0  501 -0.00000000000E+00  0.00000000000E+00  0.17658702309E+04  0.17658702309E+04  0.00000000000E+00 0.  1.
         21   -1    0    0  501  502  0.00000000000E+00 -0.00000000000E+00 -0.91098474984E+02  0.91098474984E+02  0.00000000000E+00 0.  1.
         25    1    1    2    0    0  0.11556975347E+03 -0.21753456794E+03  0.30084699453E+03  0.40842572187E+03  0.12500000000E+03 0.  0.
         21    1    1    2  503  502 -0.13220369305E+03  0.24265691270E+03  0.47811405494E+03  0.55222571768E+03  0.00000000000E+00 0.  1.
         -2    1    1    2    0  503  0.16633939581E+02 -0.25122344769E+02  0.89581070646E+03  0.89631726635E+03  0.00000000000E+00 0.  1.
<mgrwt>
<rscale>  4 0.56220181E+03</rscale>
<asrwt>0</asrwt>
<pdfrwt beam="1">  1       21 0.14015151E-01 0.56220181E+03</pdfrwt>
<pdfrwt beam="2">  1       -2 0.27167232E+00 0.56220181E+03</pdfrwt>
<totfact> 0.17858545E+02</totfact>
</mgrwt>
</event>
<event>
 5    0  0.7099509E-001  0.6565917E+03  0.7546771E-02  0.9794488E-01
          2   -1    0    0  503    0 -0.00000000000E+00  0.00000000000E+00  0.21533862615E+04  0.21533862615E+04  0.00000000000E+00 0.  1.
         21   -1    0    0  501  502  0.00000000000E+00 -0.00000000000E+00 -0.35952857603E+03  0.35952857603E+03  0.00000000000E+00 0.  1.
         25    1    1    2    0    0  0.27165386798E+03 -0.20246284403E+03  0.13135322075E+03  0.38427294440E+03  0.12500000000E+03 0.  0.
         21    1    1    2  503  502 -0.13246531228E+03  0.15284407747E+03 -0.18567730015E+03  0.27456225298E+03  0.00000000000E+00 0.  1.
          2    1    1    2  501    0 -0.13918855570E+03  0.49618766558E+02  0.18481817649E+04  0.18540796402E+04  0.00000000000E+00 0.  1.
<mgrwt>
<rscale>  4 0.65659174E+03</rscale>
<asrwt>0</asrwt>
<pdfrwt beam="1">  1       21 0.55312090E-01 0.65659174E+03</pdfrwt>
<pdfrwt beam="2">  1        2 0.33129019E+00 0.65659174E+03</pdfrwt>
<totfact> 0.20035680E+02</totfact>
</mgrwt>
</event>
<event>
 5    0  0.7242296E-001  0.4058512E+03  0.7546771E-02  0.1041772E+00
         21   -1    0    0  501  502  0.00000000000E+00  0.00000000000E+00  0.98090226066E+02  0.98090226066E+02  0.00000000000E+00 0.  1.
          2   -1    0    0  503    0 -0.00000000000E+00 -0.00000000000E+00 -0.11437756301E+04  0.11437756301E+04  0.00000000000E+00 0.  1.
         25    1    1    2    0    0 -0.21243781866E+03 -0.15752018719E+02 -0.96224664887E+02  0.26507006437E+03  0.12500000000E+03 0.  0.
         21    1    1    2  503  502  0.85143622526E+02  0.31819081872E+02 -0.25827975871E+03  0.27380709302E+03  0.00000000000E+00 0. -1.
          2    1    1    2  501    0  0.12729419614E+03 -0.16067063153E+02 -0.69118098039E+03  0.70298869873E+03  0.00000000000E+00 0.  1.
<mgrwt>
<rscale>  4 0.40585121E+03</rscale>
<asrwt>0</asrwt>
<pdfrwt beam="1">  1       21 0.15090805E-01 0.40585121E+03</pdfrwt>
<pdfrwt beam="2">  1        2 0.17596547E+00 0.40585121E+03</pdfrwt>
<totfact> 0.10151365E+04</totfact>
</mgrwt>
</event>
<event>
 5    0  0.7099509E-001  0.3230819E+03  0.7546771E-02  0.1074240E+00
         21   -1    0    0  501  502  0.00000000000E+00  0.00000000000E+00  0.75287259259E+02  0.75287259259E+02  0.00000000000E+00 0. -1.
          2   -1    0    0  503    0 -0.00000000000E+00 -0.00000000000E+00 -0.11266188032E+04  0.11266188032E+04  0.00000000000E+00 0. -1.
         25    1    1    2    0    0 -0.19501372822E+03 -0.81825876221E+02 -0.22298717032E+03  0.33177417974E+03  0.12500000000E+03 0.  0.
         21    1    1    2  503  502 -0.17462691673E+02  0.48151257571E+02 -0.16688234299E+03  0.17456576299E+03  0.00000000000E+00 0.  1.
          2    1    1    2  501    0  0.21247641990E+03  0.33674618650E+02 -0.66146203066E+03  0.69556611976E+03  0.00000000000E+00 0. -1.
<mgrwt>
<rscale>  4 0.32308188E+03</rscale>
<asrwt>0</asrwt>
<pdfrwt beam="1">  1       21 0.11582656E-01 0.32308188E+03</pdfrwt>
<pdfrwt beam="2">  1        2 0.17332595E+00 0.32308188E+03</pdfrwt>
<totfact> 0.17091181E+04</totfact>
</mgrwt>
</event>
<event>
 5    0  0.7099509E-001  0.4610414E+03  0.7546771E-02  0.1024480E+00
          2   -1    0    0  503    0 -0.00000000000E+00  0.00000000000E+00  0.11976240866E+04  0.11976240866E+04  0.00000000000E+00 0. -1.
         21   -1    0    0  501  502  0.00000000000E+00 -0.00000000000E+00 -0.78630362190E+02  0.78630362190E+02  0.00000000000E+00 0.  1.
         25    1    1    2    0    0 -0.16826832688E+03  0.22385245114E+03  0.41413381614E+03  0.51532122737E+03  0.12500000000E+03 0.  0.
         21    1    1    2  503  502  0.10812351871E+03 -0.94757254770E+02  0.33154700912E+03  0.36137660672E+03  0.00000000000E+00 0.  1.
          2    1    1    2  501    0  0.60144808164E+02 -0.12909519637E+03  0.37331289913E+03  0.39955661467E+03  0.00000000000E+00 0. -1.
<mgrwt>
<rscale>  4 0.46104143E+03</rscale>
<asrwt>0</asrwt>
<pdfrwt beam="1">  1       21 0.12096980E-01 0.46104143E+03</pdfrwt>
<pdfrwt beam="2">  1        2 0.18424985E+00 0.46104143E+03</pdfrwt>
<totfact> 0.14058575E+04</totfact>
</mgrwt>
</event>
<event>
 5    0  0.7099509E-001  0.5624503E+03  0.7546771E-02  0.9986526E-01
          4   -1    0    0  503    0 -0.00000000000E+00  0.00000000000E+00  0.26549696580E+03  0.26549696580E+03  0.00000000000E+00 0. -1.
         21   -1    0    0  501  502  0.00000000000E+00 -0.00000000000E+00 -0.18351903659E+04  0.18351903659E+04  0.00000000000E+00 0.  1.
         25    1    1    2    0    0 -0.20922409207E+03 -0.34730121058E+02 -0.37659155825E+03  0.44991899688E+03  0.12500000000E+03 0.  0.
         21    1    1    2  503  502  0.10250890055E+03  0.17245142434E+03 -0.13804359432E+04  0.13949376193E+04  0.00000000000E+00 0.  1.
          4    1    1    2  501    0  0.10671519151E+03 -0.13772130329E+03  0.18733410135E+03  0.25583071553E+03  0.00000000000E+00 0. -1.
<mgrwt>
<rscale>  4 0.56245026E+03</rscale>
<asrwt>0</asrwt>
<pdfrwt beam="1">  1       21 0.28233697E+00 0.56245026E+03</pdfrwt>
<pdfrwt beam="2">  1        4 0.40845689E-01 0.56245026E+03</pdfrwt>
<totfact> 0.87872575E+00</totfact>
</mgrwt>
</event>
<event>
 5    0  0.7099509E-001  0.5952652E+03  0.7546771E-02  0.9915278E-01
         -1   -1    0    0    0  501 -0.00000000000E+00  0.00000000000E+00  0.13867356005E+04  0.13867356005E+04  0.00000000000E+00 0. -1.
         21   -1    0    0  501  502  0.00000000000E+00 -0.00000000000E+00 -0.26401463187E+03  0.26401463187E+03  0.00000000000E+00 0.  1.
         25    1    1    2    0    0  0.39799660715E+01 -0.31074665204E+03  0.59032207507E+02  0.34013103859E+03  0.12500000000E+03 0.  0.
         21    1    1    2  503  502 -0.14556684209E+02  0.25881104359E+03  0.14004956437E+02  0.25959813586E+03  0.00000000000E+00 0. -1.
         -1    1    1    2    0  503  0.10576718138E+02  0.51935608460E+02  0.10496838047E+04  0.10510210580E+04  0.00000000000E+00 0. -1.
<mgrwt>
<rscale>  4 0.59526520E+03</rscale>
<asrwt>0</asrwt>
<pdfrwt beam="1">  1       21 0.40617636E-01 0.59526520E+03</pdfrwt>
<pdfrwt beam="2">  1       -1 0.21334393E+00 0.59526520E+03</pdfrwt>
<totfact> 0.64987976E+01</totfact>
</mgrwt>
</event>
<event>
 5    0  0.7099509E-001  0.5967658E+03  0.7546771E-02  0.9912139E-01
         21   -1    0    0  501  502  0.00000000000E+00  0.00000000000E+00  0.60706541050E+03  0.60706541050E+03  0.00000000000E+00 0. -1.
          2   -1    0    0  503    0 -0.00000000000E+00 -0.00000000000E+00 -0.55352735091E+03  0.55352735091E+03  0.00000000000E+00 0. -1.
         25    1    1    2    0    0 -0.23233173753E+03  0.16173635655E+03  0.30573657806E+02  0.31096050207E+03  0.12500000000E+03 0.  0.
         21    1    1    2  503  502  0.13833871436E+03 -0.76038082498E+01  0.40448465640E+03  0.42755497314E+03  0.00000000000E+00 0. -1.
          2    1    1    2  501    0  0.93993023175E+02 -0.15413254830E+03 -0.38152025462E+03  0.42207728621E+03  0.00000000000E+00 0. -1.
<mgrwt>
<rscale>  4 0.59676576E+03</rscale>
<asrwt>0</asrwt>
<pdfrwt beam="1">  1       21 0.93394678E-01 0.59676576E+03</pdfrwt>
<pdfrwt beam="2">  1        2 0.85158054E-01 0.59676576E+03</pdfrwt>
<totfact> 0.58665129E+02</totfact>
</mgrwt>
</event>
<event>
 5    0  0.7099509E-001  0.6171978E+03  0.7546771E-02  0.9870355E-01
          1   -1    0    0  503    0 -0.00000000000E+00  0.00000000000E+00  0.29283821083E+03  0.29283821083E+03  0.00000000000E+00 0. -1.
         21   -1    0    0  501  502  0.00000000000E+00 -0.00000000000E+00 -0.60520362768E+03  0.60520362768E+03  0.00000000000E+00 0. -1.
         25    1    1    2    0    0  0.13367119663E+03 -0.24996317588E+03 -0.20118012222E+03  0.36938871082E+03  0.12500000000E+03 0.  0.
         21    1    1    2  503  502 -0.13975261958E+03  0.27248670716E+03 -0.24539767513E+03  0.39242810707E+03  0.00000000000E+00 0. -1.
          1    1    1    2  501    0  0.60814229484E+01 -0.22523531276E+02  0.13421238050E+03  0.13622502063E+03  0.00000000000E+00 0. -1.
<mgrwt>
<rscale>  4 0.61719781E+03</rscale>
<asrwt>0</asrwt>
<pdfrwt beam="1">  1       21 0.93108249E-01 0.61719781E+03</pdfrwt>
<pdfrwt beam="2">  1        1 0.45052033E-01 0.61719781E+03</pdfrwt>
<totfact> 0.85126492E+02</totfact>
</mgrwt>
</event>
<event>
 5    0  0.7099509E-001  0.5592169E+03  0.7546771E-02  0.9993828E-01
         21   -1    0    0  501  502  0.00000000000E+00  0.00000000000E+00  0.64720432833E+03  0.64720432833E+03  0.00000000000E+00 0. -1.
          2   -1    0    0  503    0 -0.00000000000E+00 -0.00000000000E+00 -0.84525718611E+03  0.84525718611E+03  0.00000000000E+00 0. -1.
         25    1    1    2    0    0 -0.18698344194E+03  0.19880960062E+03  0.24487020519E+03  0.38739447885E+03  0.12500000000E+03 0.  0.
         21    1    1    2  503  502  0.16241310961E+03 -0.19806998443E+03  0.28128882599E+03  0.38043809028E+03  0.00000000000E+00 0. -1.
          2    1    1    2  501    0  0.24570332327E+02 -0.73961619111E+00 -0.72421188896E+03  0.72462894530E+03  0.00000000000E+00 0. -1.
<mgrwt>
<rscale>  4 0.55921689E+03</rscale>
<asrwt>0</asrwt>
<pdfrwt beam="1">  1       21 0.99569897E-01 0.55921689E+03</pdfrwt>
<pdfrwt beam="2">  1        2 0.13003957E+00 0.55921689E+03</pdfrwt>
<totfact> 0.29860487E+02</totfact>
</mgrwt>
</event>
<event>
 5    0  0.7099509E-001  0.5129114E+03  0.7546771E-02  0.1010463E+00
          1   -1    0    0  503    0 -0.00000000000E+00  0.00000000000E+00  0.22199394452E+03  0.22199394452E+03  0.00000000000E+00 0.  1.
         21   -1    0    0  501  502  0.00000000000E+00 -0.00000000000E+00 -0.59009743639E+03  0.59009743639E+03  0.00000000000E+00 0.  1.
         25    1    1    2    0    0 -0.16719626806E+03  0.20245024020E+03 -0.44410124136E+03  0.53084046981E+03  0.12500000000E+03 0.  0.
         21    1    1    2  503  502  0.89630554755E+02 -0.11132202003E+03  0.69478914653E+01  0.14308913895E+03  0.00000000000E+00 0. -1.
          1    1    1    2  501    0  0.77565713305E+02 -0.91128220178E+02  0.69049858022E+02  0.13816177216E+03  0.00000000000E+00 0.  1.
<mgrwt>
<rscale>  4 0.51291136E+03</rscale>
<asrwt>0</asrwt>
<pdfrwt beam="1">  1       21 0.90784222E-01 0.51291136E+03</pdfrwt>
<pdfrwt beam="2">  1        1 0.34152914E-01 0.51291136E+03</pdfrwt>
<totfact> 0.13142110E+03</totfact>
</mgrwt>
</event>
<event>
 5    0  0.7099509E-001  0.5381717E+03  0.7546771E-02  0.1004269E+00
         21   -1    0    0  501  502  0.00000000000E+00  0.00000000000E+00  0.28242477644E+03  0.28242477644E+03  0.00000000000E+00 0.  1.
         -2   -1    0    0    0  501 -0.00000000000E+00 -0.00000000000E+00 -0.36266688860E+03  0.36266688860E+03  0.00000000000E+00 0. -1.
         25    1    1    2    0    0 -0.14394511250E+03  0.15925019689E+03  0.17437517311E+03  0.30350044748E+03  0.12500000000E+03 0.  0.
         21    1    1    2  503  502  0.13185917081E+03 -0.10551610906E+03 -0.16311169736E+03  0.23478908836E+03  0.00000000000E+00 0.  1.
         -2    1    1    2    0  503  0.12085941689E+02 -0.53734087825E+02 -0.91505587913E+02  0.10680212919E+03  0.00000000000E+00 0. -1.
<mgrwt>
<rscale>  4 0.53817168E+03</rscale>
<asrwt>0</asrwt>
<pdfrwt beam="1">  1       21 0.43449966E-01 0.53817168E+03</pdfrwt>
<pdfrwt beam="2">  1       -2 0.55794906E-01 0.53817168E+03</pdfrwt>
<totfact> 0.11870149E+03</totfact>
</mgrwt>
</event>
<event>
 5    0  0.7099509E-001  0.4364240E+03  0.7546771E-02  0.1031850E+00
         21   -1    0    0  501  502  0.00000000000E+00  0.00000000000E+00  0.59276426379E+03  0.59276426379E+03  0.00000000000E+00 0. -1.
          1   -1    0    0  503    0 -0.00000000000E+00 -0.00000000000E+00 -0.83523695600E+03  0.83523695600E+03  0.00000000000E+00 0.  1.
         25    1    1    2    0    0 -0.19815931386E+03 -0.86624840233E+02  0.40837241453E+03  0.47871077444E+03  0.12500000000E+03 0.  0.
         21    1    1    2  503  502  0.14467467236E+03  0.76987362776E+02  0.10295126595E+03  0.19353753644E+03  0.00000000000E+00 0.  1.
          1    1    1    2  501    0  0.53484641505E+02  0.96374774573E+01 -0.75379637269E+03  0.75575290891E+03  0.00000000000E+00 0.  1.
<mgrwt>
<rscale>  4 0.43642397E+03</rscale>
<asrwt>0</asrwt>
<pdfrwt beam="1">  1       21 0.91194503E-01 0.43642397E+03</pdfrwt>
<pdfrwt beam="2">  1        1 0.12849799E+00 0.43642397E+03</pdfrwt>
<totfact> 0.21792838E+02</totfact>
</mgrwt>
</event>
<event>
 5    0  0.7099509E-001  0.3629174E+03  0.7546771E-02  0.1057435E+00
         -1   -1    0    0    0  501 -0.00000000000E+00  0.00000000000E+00  0.62469388395E+03  0.62469388395E+03  0.00000000000E+00 0.  1.
         21   -1    0    0  501  502  0.00000000000E+00 -0.00000000000E+00 -0.22620765354E+03  0.22620765354E+03  0.00000000000E+00 0.  1.
         25    1    1    2    0    0 -0.35316731435E+02  0.22716128408E+03 -0.86802086020E+02  0.27569752019E+03  0.12500000000E+03 0.  0.
         21    1    1    2  503  502 -0.22805674877E+02 -0.84946212340E+02  0.27238166416E+02  0.92075379485E+02  0.00000000000E+00 0. -1.
         -1    1    1    2    0  503  0.58122406312E+02 -0.14221507174E+03  0.45805015002E+03  0.48312863781E+03  0.00000000000E+00 0.  1.
<mgrwt>
<rscale>  4 0.36291741E+03</rscale>
<asrwt>0</asrwt>
<pdfrwt beam="1">  1       21 0.34801178E-01 0.36291741E+03</pdfrwt>
<pdfrwt beam="2">  1       -1 0.96106750E-01 0.36291741E+03</pdfrwt>
<totfact> 0.77807021E+02</totfact>
</mgrwt>
</event>
<event>
 5    0  0.7099509E-001  0.3739349E+03  0.7546771E-02  0.1053199E+00
          2   -1    0    0  503    0 -0.00000000000E+00  0.00000000000E+00  0.19864528541E+04  0.19864528541E+04  0.00000000000E+00 0. -1.
         21   -1    0    0  501  502  0.00000000000E+00 -0.00000000000E+00 -0.38264629886E+02  0.38264629886E+02  0.00000000000E+00 0.  1.
         25    1    1    2    0    0 -0.87125372160E+02 -0.18208637643E+03  0.55412215199E+03  0.60284545141E+03  0.12500000000E+03 0.  0.
         21    1    1    2  503  502  0.62767753818E+02  0.12088886262E+03  0.34761121429E+03  0.37334630616E+03  0.00000000000E+00 0.  1.
          2    1    1    2  501    0  0.24357618342E+02  0.61197513808E+02  0.10464548579E+04  0.10485257264E+04  0.00000000000E+00 0. -1.
<mgrwt>
<rscale>  4 0.37393487E+03</rscale>
<asrwt>0</asrwt>
<pdfrwt beam="1">  1       21 0.58868677E-02 0.37393487E+03</pdfrwt>
<pdfrwt beam="2">  1        2 0.30560805E+00 0.37393487E+03</pdfrwt>
<totfact> 0.19031185E+04</totfact>
</mgrwt>
</event>
<event>
 5    0  0.1086605E+000  0.7740284E+03  0.7546771E-02  0.9598390E-01
          2   -1    0    0  503    0 -0.00000000000E+00  0.00000000000E+00  0.55970111278E+03  0.55970111278E+03  0.00000000000E+00 0.  1.
         21   -1    0    0  501  502  0.00000000000E+00 -0.00000000000E+00 -0.40083357607E+03  0.40083357607E+03  0.00000000000E+00 0. -1.
         25    1    1    2    0    0 -0.20918012614E+02 -0.24425453994E+03 -0.31077607601E+03  0.41509590814E+03  0.12500000000E+03 0.  0.
         21    1    1    2  503  502  0.35393998316E+02  0.21381196625E+03  0.28659289876E+03  0.35931014688E+03  0.00000000000E+00 0.  1.
          2    1    1    2  501    0 -0.14475985702E+02  0.30442573688E+02  0.18305071396E+03  0.18612863384E+03  0.00000000000E+00 0.  1.
<mgrwt>
<rscale>  4 0.77402837E+03</rscale>
<asrwt>0</asrwt>
<pdfrwt beam="1">  1       21 0.61666704E-01 0.77402837E+03</pdfrwt>
<pdfrwt beam="2">  1        2 0.86107864E-01 0.77402837E+03</pdfrwt>
<totfact> 0.14713354E+03</totfact>
</mgrwt>
</event>
<event>
 5    0  0.7099509E-001  0.6900158E+03  0.7546771E-02  0.9734460E-01
         21   -1    0    0  501  502  0.00000000000E+00  0.00000000000E+00  0.24615563389E+03  0.24615563389E+03  0.00000000000E+00 0.  1.
          2   -1    0    0  503    0 -0.00000000000E+00 -0.00000000000E+00 -0.11099353325E+04  0.11099353325E+04  0.00000000000E+00 0.  1.
         25    1    1    2    0    0 -0.24929359899E+03 -0.85275677146E+01  0.12624829772E+03  0.30624116410E+03  0.12500000000E+03 0.  0.
         21    1    1    2  503  502  0.21526607510E+03  0.11082422617E+02 -0.36503180095E+03  0.42392277467E+03  0.00000000000E+00 0. -1.
          2    1    1    2  501    0  0.34027523888E+02 -0.25548549028E+01 -0.62499619536E+03  0.62592702760E+03  0.00000000000E+00 0.  1.
<mgrwt>
<rscale>  4 0.69001581E+03</rscale>
<asrwt>0</asrwt>
<pdfrwt beam="1">  1       21 0.37870097E-01 0.69001581E+03</pdfrwt>
<pdfrwt beam="2">  1        2 0.17075928E+00 0.69001581E+03</pdfrwt>
<totfact> 0.16940287E+03</totfact>
</mgrwt>
</event>
<event>
 5    0  0.7099509E-001  0.8442413E+03  0.7546771E-02  0.9498099E-01
          1   -1    0    0  503    0 -0.00000000000E+00  0.00000000000E+00  0.20376162936E+04  0.20376162936E+04  0.00000000000E+00 0. -1.
         21   -1    0    0  501  502  0.00000000000E+00 -0.00000000000E+00 -0.46381850874E+03  0.46381850874E+03  0.00000000000E+00 0.  1.
         25    1    1    2    0    0  0.28918980051E+02  0.37560180078E+03 -0.23610469508E+03  0.46182620886E+03  0.12500000000E+03 0.  0.
         21    1    1    2  503  502  0.77441899686E+02 -0.34251142819E+03  0.15989715417E+03  0.38584767225E+03  0.00000000000E+00 0. -1.
          1    1    1    2  501    0 -0.10636087974E+03 -0.33090372583E+02  0.16500053258E+04  0.16537609213E+04  0.00000000000E+00 0. -1.
<mgrwt>
<rscale>  4 0.84424133E+03</rscale>
<asrwt>0</asrwt>
<pdfrwt beam="1">  1       21 0.71356695E-01 0.84424133E+03</pdfrwt>
<pdfrwt beam="2">  1        1 0.31347943E+00 0.84424133E+03</pdfrwt>
<totfact> 0.49111597E+01</totfact>
</mgrwt>
</event>
<event>
 5    0  0.7099509E-001  0.3997325E+03  0.7546771E-02  0.1043872E+00
         21   -1    0    0  501  502  0.00000000000E+00  0.00000000000E+00  0.55753488796E+03  0.55753488796E+03  0.00000000000E+00 0.  1.
         -4   -1    0    0    0  501 -0.00000000000E+00 -0.00000000000E+00 -0.13426220743E+03  0.13426220743E+03  0.00000000000E+00 0.  1.
         25    1    1    2    0    0  0.85046397908E+02 -0.18134962410E+03  0.33389613072E+03  0.40894034048E+03  0.12500000000E+03 0.  0.
         21    1    1    2  503  502 -0.90498761114E+02  0.12928443333E+03  0.13931570902E+03  0.21050738050E+03  0.00000000000E+00 0. -1.
         -4    1    1    2    0  503  0.54523632055E+01  0.52065190766E+02 -0.49939159223E+02  0.72349374413E+02  0.00000000000E+00 0.  1.
<mgrwt>
<rscale>  4 0.39973245E+03</rscale>
<asrwt>0</asrwt>
<pdfrwt beam="1">  1       21 0.85774597E-01 0.39973245E+03</pdfrwt>
<pdfrwt beam="2">  1       -4 0.20655725E-01 0.39973245E+03</pdfrwt>
<totfact> 0.10384145E+03</totfact>
</mgrwt>
</event>
<event>
 5    0  0.7099509E-001  0.5644981E+03  0.7546771E-02  0.9981928E-01
         21   -1    0    0  501  502  0.00000000000E+00  0.00000000000E+00  0.14003395234E+03  0.14003395234E+03  0.00000000000E+00 0. -1.
          2   -1    0    0  503    0 -0.00000000000E+00 -0.00000000000E+00 -0.20999450528E+04  0.20999450528E+04  0.00000000000E+00 0. -1.
         25    1    1    2    0    0  0.20738403570E+03 -0.23793304513E+03 -0.53264134232E+03  0.63162652872E+03  0.12500000000E+03 0.  0.
         21    1    1    2  503  502 -0.11678000942E+03 -0.26750585932E+02  0.30788419193E+02  0.12369757962E+03  0.00000000000E+00 0.  1.
          2    1    1    2  501    0 -0.90604026284E+02  0.26468363106E+03 -0.14580581773E+04  0.14846548968E+04  0.00000000000E+00 0. -1.
<mgrwt>
<rscale>  4 0.56449814E+03</rscale>
<asrwt>0</asrwt>
<pdfrwt beam="1">  1       21 0.21543684E-01 0.56449814E+03</pdfrwt>
<pdfrwt beam="2">  1        2 0.32306849E+00 0.56449814E+03</pdfrwt>
<totfact> 0.14980115E+03</totfact>
</mgrwt>
</event>
<event>
 5    0  0.7099509E-001  0.6388406E+03  0.7546771E-02  0.9827947E-01
          2   -1    0    0  503    0 -0.00000000000E+00  0.00000000000E+00  0.60699897386E+03  0.60699897386E+03  0.00000000000E+00 0.  1.
         21   -1    0    0  501  502  0.00000000000E+00 -0.00000000000E+00 -0.31057481089E+03  0.31057481089E+03  0.00000000000E+00 0.  1.
         25    1    1    2    0    0 -0.60685821195E+02  0.24014556831E+03  0.21728358795E+03  0.35240576111E+03  0.12500000000E+03 0.  0.
         21    1    1    2  503  502  0.34132120111E+02 -0.20662782433E+03 -0.19593198592E+03  0.28679156633E+03  0.00000000000E+00 0.  1.
          2    1    1    2  501    0  0.26553701084E+02 -0.33517743977E+02  0.27507256094E+03  0.27837645731E+03  0.00000000000E+00 0.  1.
<mgrwt>
<rscale>  4 0.63884062E+03</rscale>
<asrwt>0</asrwt>
<pdfrwt beam="1">  1       21 0.47780740E-01 0.63884062E+03</pdfrwt>
<pdfrwt beam="2">  1        2 0.93384457E-01 0.63884062E+03</pdfrwt>
<totfact> 0.23660691E+03</totfact>
</mgrwt>
</event>
<event>
 5    0  0.7099509E-001  0.3638286E+03  0.7546771E-02  0.1057078E+00
          1   -1    0    0  503    0 -0.00000000000E+00  0.00000000000E+00  0.92566488377E+03  0.92566488377E+03  0.00000000000E+00 0. -1.
         21   -1    0    0  501  502  0.00000000000E+00 -0.00000000000E+00 -0.83737095628E+03  0.83737095628E+03  0.00000000000E+00 0.  1.
         25    1    1    2    0    0  0.88775284720E+02  0.24885492257E+03 -0.70663645022E+03  0.76470248885E+03  0.12500000000E+03 0.  0.
         21    1    1    2  503  502  0.24030269460E+02 -0.57791866691E+02 -0.76648239676E+02  0.98956082943E+02  0.00000000000E+00 0. -1.
          1    1    1    2  501    0 -0.11280555418E+03 -0.19106305588E+03  0.87157861739E+03  0.89937726826E+03  0.00000000000E+00 0. -1.
<mgrwt>
<rscale>  4 0.36382856E+03</rscale>
<asrwt>0</asrwt>
<pdfrwt beam="1">  1       21 0.12882630E+00 0.36382856E+03</pdfrwt>
<pdfrwt beam="2">  1        1 0.14240998E+00 0.36382856E+03</pdfrwt>
<totfact> 0.80778042E+01</totfact>
</mgrwt>
</event>
<event>
 5    0  0.7099509E-001  0.7061246E+03  0.7546771E-02  0.9706815E-01
          2   -1    0    0  503    0 -0.00000000000E+00  0.00000000000E+00  0.34033920598E+04  0.34033920598E+04  0.00000000000E+00 0. -1.
         21   -1    0    0  501  502  0.00000000000E+00 -0.00000000000E+00 -0.12063017199E+03  0.12063017199E+03  0.00000000000E+00 0.  1.
         25    1    1    2    0    0 -0.99079028372E+02  0.39247180427E+03  0.11681712632E+04  0.12426181518E+04  0.12500000000E+03 0.  0.
         21    1    1    2  503  502  0.15598788788E+03  0.85725773387E+02  0.88332018553E+02  0.19870499463E+03  0.00000000000E+00 0.  1.
          2    1    1    2  501    0 -0.56908859512E+02 -0.47819757766E+03  0.20262586061E+04  0.20826990854E+04  0.00000000000E+00 0. -1.
<mgrwt>
<rscale>  4 0.70612457E+03</rscale>
<asrwt>0</asrwt>
<pdfrwt beam="1">  1       21 0.18558491E-01 0.70612457E+03</pdfrwt>
<pdfrwt beam="2">  1        2 0.52359871E+00 0.70612457E+03</pdfrwt>
<totfact> 0.32803206E+02</totfact>
</mgrwt>
</event>
<event>
 5    0  0.7099509E-001  0.4636334E+03  0.7546771E-02  0.1023733E+00
         -3   -1    0    0    0  501 -0.00000000000E+00  0.00000000000E+00  0.71876107540E+03  0.71876107540E+03  0.00000000000E+00 0. -1.
         21   -1    0    0  501  502  0.00000000000E+00 -0.00000000000E+00 -0.88173156930E+03  0.88173156930E+03  0.00000000000E+00 0.  1.
         25    1    1    2    0    0 -0.16338100296E+03 -0.12181376814E+03 -0.68225467737E+03  0.72293041922E+03  0.12500000000E+03 0.  0.
         21    1    1    2  503  502 -0.71847006272E+02  0.14638498521E+03 -0.11571337366E+03  0.19995034646E+03  0.00000000000E+00 0. -1.
         -3    1    1    2    0  503  0.23522800923E+03 -0.24571217069E+02  0.63499755713E+03  0.67761187902E+03  0.00000000000E+00 0. -1.
<mgrwt>
<rscale>  4 0.46363337E+03</rscale>
<asrwt>0</asrwt>
<pdfrwt beam="1">  1       21 0.13565101E+00 0.46363337E+03</pdfrwt>
<pdfrwt beam="2">  1       -3 0.11057863E+00 0.46363337E+03</pdfrwt>
<totfact> 0.12246414E+01</totfact>
</mgrwt>
</event>
