<event>
 5    0  0.2311157E+000  0.2530436E+03  0.7546771E-02  0.1111396E+00
         21   -1    0    0  502  501  0.00000000000E+00  0.00000000000E+00  0.52657613447E+03  0.52657613447E+03  0.00000000000E+00 0.  1.
         21   -1    0    0  503  502 -0.00000000000E+00 -0.00000000000E+00 -0.15717528707E+03  0.15717528707E+03  0.00000000000E+00 0.  1.
         25    1    1    2    0    0 -0.17470336643E+03  0.13373399395E+03  0.37743390414E+03  0.45440884605E+03  0.12500000000E+03 0.  0.
         21    1    1    2  503  504  0.14960213195E+03 -0.88512421587E+02 -0.23384919705E+02  0.17539128008E+03  0.00000000000E+00 0.  1.
         21    1    1    2  504  501  0.25101234478E+02 -0.45221572363E+02  0.15351862963E+02  0.53951295403E+02  0.00000000000E+00 0.  1.
<mgrwt>
<rscale>  4 0.25304357E+03</rscale>
<asrwt>0</asrwt>
<pdfrwt beam="1">  1       21 0.81011712E-01 0.25304357E+03</pdfrwt>
<pdfrwt beam="2">  1       21 0.24180814E-01 0.25304357E+03</pdfrwt>
<totfact> 0.20877135E+04</totfact>
</mgrwt>
</event>
<event>
 5    0  0.2159162E+000  0.2880191E+03  0.7546771E-02  0.1091388E+00
         21   -1    0    0  502  501  0.00000000000E+00  0.00000000000E+00  0.15359922698E+03  0.15359922698E+03  0.00000000000E+00 0. -1.
         21   -1    0    0  503  502 -0.00000000000E+00 -0.00000000000E+00 -0.10410427896E+04  0.10410427896E+04  0.00000000000E+00 0.  1.
         25    1    1    2    0    0 -0.36405967404E+02 -0.25691357533E+03 -0.21693460459E+02  0.28883487649E+03  0.12500000000E+03 0.  0.
         21    1    1    2  503  504  0.34000198856E+02  0.13923845423E+03 -0.38370668608E+03  0.40960246777E+03  0.00000000000E+00 0.  1.
         21    1    1    2  504  501  0.24057685482E+01  0.11767512110E+03 -0.48204341611E+03  0.49620467235E+03  0.00000000000E+00 0.  1.
<mgrwt>
<rscale>  4 0.28801906E+03</rscale>
<asrwt>0</asrwt>
<pdfrwt beam="1">  1       21 0.23630650E-01 0.28801906E+03</pdfrwt>
<pdfrwt beam="2">  1       21 0.16016043E+00 0.28801906E+03</pdfrwt>
<totfact> 0.39461978E+03</totfact>
</mgrwt>
</event>
<event>
 5    0  0.2159162E+000  0.3257644E+03  0.7546771E-02  0.1073027E+00
         21   -1    0    0  502  501  0.00000000000E+00  0.00000000000E+00  0.38344446187E+03  0.38344446187E+03  0.00000000000E+00 0.  1.
         21   -1    0    0  503  502 -0.00000000000E+00 -0.00000000000E+00 -0.93662874350E+03  0.93662874350E+03  0.00000000000E+00 0.  1.
         25    1    1    2    0    0 -0.22968694924E+03  0.19151919149E+03 -0.11574980448E+03  0.34417831512E+03  0.12500000000E+03 0.  0.
         21    1    1    2  503  504 -0.77389113190E+02 -0.13253643261E+03 -0.60289746058E+03  0.62212565354E+03  0.00000000000E+00 0.  1.
         21    1    1    2  504  501  0.30707606243E+03 -0.58982758882E+02  0.16546298343E+03  0.35376923672E+03  0.00000000000E+00 0.  1.
<mgrwt>
<rscale>  4 0.32576441E+03</rscale>
<asrwt>0</asrwt>
<pdfrwt beam="1">  1       21 0.58991456E-01 0.32576441E+03</pdfrwt>
<pdfrwt beam="2">  1       21 0.14409673E+00 0.32576441E+03</pdfrwt>
<totfact> 0.80038142E+02</totfact>
</mgrwt>
</event>
<event>
 5    0  0.6575232E+000  0.2475025E+03  0.7546771E-02  0.1114893E+00
         21   -1    0    0  502  501  0.00000000000E+00  0.00000000000E+00  0.63498564561E+03  0.63498564561E+03  0.00000000000E+00 0. -1.
         21   -1    0    0  503  502 -0.00000000000E+00 -0.00000000000E+00 -0.17977080254E+03  0.17977080254E+03  0.00000000000E+00 0.  1.
         25    1    1    2    0    0 -0.10998172158E+03  0.19503474217E+03  0.49506137433E+03  0.55753501602E+03  0.12500000000E+03 0.  0.
         21    1    1    2  503  504 -0.10438733868E+02 -0.20302904633E+02  0.26410916434E+02  0.34910050246E+02  0.00000000000E+00 0.  1.
         21    1    1    2  504  501  0.12042045544E+03 -0.17473183754E+03 -0.66257447694E+02  0.22231138188E+03  0.00000000000E+00 0.  1.
<mgrwt>
<rscale>  4 0.24750246E+03</rscale>
<asrwt>0</asrwt>
<pdfrwt beam="1">  1       21 0.97690098E-01 0.24750246E+03</pdfrwt>
<pdfrwt beam="2">  1       21 0.27657047E-01 0.24750246E+03</pdfrwt>
<totfact> 0.10453985E+04</totfact>
</mgrwt>
</event>
<event>
 5    0  0.2159162E+000  0.5070798E+03  0.7546771E-02  0.1011947E+00
         21   -1    0    0  502  501  0.00000000000E+00  0.00000000000E+00  0.93606684165E+03  0.93606684165E+03  0.00000000000E+00 0. -1.
         21   -1    0    0  503  502 -0.00000000000E+00 -0.00000000000E+00 -0.27084137941E+03  0.27084137941E+03  0.00000000000E+00 0. -1.
         25    1    1    2    0    0 -0.45482474726E+03  0.18611663365E+03  0.30854686835E+03  0.59357486639E+03  0.12500000000E+03 0.  0.
         21    1    1    2  503  504  0.77834640543E+02 -0.64907441363E+01  0.32157565285E+02  0.84465792088E+02  0.00000000000E+00 0. -1.
         21    1    1    2  504  501  0.37699010672E+03 -0.17962588952E+03  0.32452102861E+03  0.52886756259E+03  0.00000000000E+00 0. -1.
<mgrwt>
<rscale>  4 0.50707983E+03</rscale>
<asrwt>0</asrwt>
<pdfrwt beam="1">  1       21 0.14401028E+00 0.50707983E+03</pdfrwt>
<pdfrwt beam="2">  1       21 0.41667905E-01 0.50707983E+03</pdfrwt>
<totfact> 0.15394421E+03</totfact>
</mgrwt>
</event>
<event>
 5    0  0.2159162E+000  0.2479113E+03  0.7546771E-02  0.1114632E+00
         21   -1    0    0  502  501  0.00000000000E+00  0.00000000000E+00  0.57015984827E+03  0.57015984827E+03  0.00000000000E+00 0. -1.
         21   -1    0    0  503  502 -0.00000000000E+00 -0.00000000000E+00 -0.10678388449E+03  0.10678388449E+03  0.00000000000E+00 0. -1.
         25    1    1    2    0    0 -0.98316665031E+02 -0.19018113846E+03  0.17391390012E+03  0.30283011195E+03  0.12500000000E+03 0.  0.
         21    1    1    2  503  504  0.49114191923E+01  0.11523851097E+03  0.16576179372E+03  0.20194308283E+03  0.00000000000E+00 0. -1.
         21    1    1    2  504  501  0.93405245839E+02  0.74942627491E+02  0.12370026993E+03  0.17217053797E+03  0.00000000000E+00 0. -1.
<mgrwt>
<rscale>  4 0.24791134E+03</rscale>
<asrwt>0</asrwt>
<pdfrwt beam="1">  1       21 0.87716898E-01 0.24791134E+03</pdfrwt>
<pdfrwt beam="2">  1       21 0.16428290E-01 0.24791134E+03</pdfrwt>
<totfact> 0.36032135E+04</totfact>
</mgrwt>
</event>
<event>
 5    0  0.2159162E+000  0.2673455E+03  0.7546771E-02  0.1102809E+00
         21   -1    0    0  502  501  0.00000000000E+00  0.00000000000E+00  0.33447216129E+03  0.33447216129E+03  0.00000000000E+00 0. -1.
         21   -1    0    0  503  502 -0.00000000000E+00 -0.00000000000E+00 -0.33261407628E+03  0.33261407628E+03  0.00000000000E+00 0. -1.
         25    1    1    2    0    0  0.22621275353E+03 -0.13175628231E+03 -0.11840692280E+03  0.31333229511E+03  0.12500000000E+03 0.  0.
         21    1    1    2  503  504 -0.11342083447E+03  0.17564578213E+03  0.97085858976E+02  0.23052416464E+03  0.00000000000E+00 0. -1.
         21    1    1    2  504  501 -0.11279191907E+03 -0.43889499820E+02  0.23179148838E+02  0.12322977782E+03  0.00000000000E+00 0. -1.
<mgrwt>
<rscale>  4 0.26734546E+03</rscale>
<asrwt>0</asrwt>
<pdfrwt beam="1">  1       21 0.51457255E-01 0.26734546E+03</pdfrwt>
<pdfrwt beam="2">  1       21 0.51171397E-01 0.26734546E+03</pdfrwt>
<totfact> 0.12479160E+04</totfact>
</mgrwt>
</event>
<event>
 5    0  0.2948514E+000  0.2432413E+03  0.7546771E-02  0.1117652E+00
         21   -1    0    0  502  501  0.00000000000E+00  0.00000000000E+00  0.76427059743E+03  0.76427059743E+03  0.00000000000E+00 0.  1.
         21   -1    0    0  503  502 -0.00000000000E+00 -0.00000000000E+00 -0.81927960148E+02  0.81927960148E+02  0.00000000000E+00 0.  1.
         25    1    1    2    0    0 -0.69874768982E+02 -0.19942402808E+03  0.47103324174E+03  0.53117769262E+03  0.12500000000E+03 0.  0.
         21    1    1    2  503  504  0.27719776426E+02 -0.19664280895E+01  0.22328985035E+02  0.35648792648E+02  0.00000000000E+00 0.  1.
         21    1    1    2  504  501  0.42154992557E+02  0.20139045617E+03  0.18898041051E+03  0.27937207231E+03  0.00000000000E+00 0.  1.
<mgrwt>
<rscale>  4 0.24324130E+03</rscale>
<asrwt>0</asrwt>
<pdfrwt beam="1">  1       21 0.11758009E+00 0.24324130E+03</pdfrwt>
<pdfrwt beam="2">  1       21 0.12604302E-01 0.24324130E+03</pdfrwt>
<totfact> 0.29027729E+04</totfact>
</mgrwt>
</event>
<event>
 5    0  0.2159162E+000  0.2591404E+03  0.7546771E-02  0.1107661E+00
         21   -1    0    0  502  501  0.00000000000E+00  0.00000000000E+00  0.75478756681E+03  0.75478756681E+03  0.00000000000E+00 0.  1.
         21   -1    0    0  503  502 -0.00000000000E+00 -0.00000000000E+00 -0.10650195222E+03  0.10650195222E+03  0.00000000000E+00 0.  1.
         25    1    1    2    0    0  0.16986298522E+03 -0.15058326802E+03  0.12989996220E+03  0.28987541209E+03  0.12500000000E+03 0.  0.
         21    1    1    2  503  504 -0.13149620856E+03  0.12853711745E+03  0.47539667943E+03  0.50972055701E+03  0.00000000000E+00 0.  1.
         21    1    1    2  504  501 -0.38366776657E+02  0.22046150567E+02  0.42988972969E+02  0.61693549928E+02  0.00000000000E+00 0.  1.
<mgrwt>
<rscale>  4 0.25914041E+03</rscale>
<asrwt>0</asrwt>
<pdfrwt beam="1">  1       21 0.11612116E+00 0.25914041E+03</pdfrwt>
<pdfrwt beam="2">  1       21 0.16384916E-01 0.25914041E+03</pdfrwt>
<totfact> 0.18397778E+04</totfact>
</mgrwt>
</event>
<event>
 5    0  0.2159162E+000  0.2480755E+03  0.7546771E-02  0.1114527E+00
         21   -1    0    0  502  501  0.00000000000E+00  0.00000000000E+00  0.22987378060E+03  0.22987378060E+03  0.00000000000E+00 0.  1.
         21   -1    0    0  503  502 -0.00000000000E+00 -0.00000000000E+00 -0.31459182738E+03  0.31459182738E+03  0.00000000000E+00 0.  1.
         25    1    1    2    0    0  0.10372086738E+03  0.18750579726E+03  0.79068071248E+02  0.26037127766E+03  0.12500000000E+03 0.  0.
         21    1    1    2  503  504  0.46815814121E+01 -0.63370542738E+02 -0.23776170644E+02  0.67845774974E+02  0.00000000000E+00 0.  1.
         21    1    1    2  504  501 -0.10840244880E+03 -0.12413525452E+03 -0.14000994739E+03  0.21624855534E+03  0.00000000000E+00 0.  1.
<mgrwt>
<rscale>  4 0.24807548E+03</rscale>
<asrwt>0</asrwt>
<pdfrwt beam="1">  1       21 0.35365197E-01 0.24807548E+03</pdfrwt>
<pdfrwt beam="2">  1       21 0.48398742E-01 0.24807548E+03</pdfrwt>
<totfact> 0.30572148E+04</totfact>
</mgrwt>
</event>
<event>
 5    0  0.2159162E+000  0.2384196E+03  0.7546771E-02  0.1120850E+00
         21   -1    0    0  502  501  0.00000000000E+00  0.00000000000E+00  0.30688868358E+03  0.30688868358E+03  0.00000000000E+00 0.  1.
         21   -1    0    0  503  502 -0.00000000000E+00 -0.00000000000E+00 -0.58889336744E+03  0.58889336744E+03  0.00000000000E+00 0.  1.
         25    1    1    2    0    0 -0.45565830411E+02  0.19784509347E+03  0.23428357436E+03  0.33426444490E+03  0.12500000000E+03 0.  0.
         21    1    1    2  503  504 -0.25764407359E+02 -0.57027574263E+02 -0.16138800686E+03  0.17309545826E+03  0.00000000000E+00 0.  1.
         21    1    1    2  504  501  0.71330237770E+02 -0.14081751920E+03 -0.35490025135E+03  0.38842214786E+03  0.00000000000E+00 0.  1.
<mgrwt>
<rscale>  4 0.23841964E+03</rscale>
<asrwt>0</asrwt>
<pdfrwt beam="1">  1       21 0.47213644E-01 0.23841964E+03</pdfrwt>
<pdfrwt beam="2">  1       21 0.90598979E-01 0.23841964E+03</pdfrwt>
<totfact> 0.42915749E+03</totfact>
</mgrwt>
</event>
<event>
 5    0  0.2159162E+000  0.2395486E+03  0.7546771E-02  0.1120094E+00
         21   -1    0    0  502  501  0.00000000000E+00  0.00000000000E+00  0.45230061649E+03  0.45230061649E+03  0.00000000000E+00 0.  1.
         21   -1    0    0  503  502 -0.00000000000E+00 -0.00000000000E+00 -0.82938796435E+03  0.82938796435E+03  0.00000000000E+00 0.  1.
         25    1    1    2    0    0 -0.21585857674E+02 -0.20320576736E+03  0.40523479951E+03  0.47074279163E+03  0.12500000000E+03 0.  0.
         21    1    1    2  503  504 -0.15937088292E+02  0.16894643210E+02 -0.73116930398E+02  0.76717046758E+02  0.00000000000E+00 0.  1.
         21    1    1    2  504  501  0.37522945966E+02  0.18631112415E+03 -0.70920521697E+03  0.73422874245E+03  0.00000000000E+00 0.  1.
<mgrwt>
<rscale>  4 0.23954860E+03</rscale>
<asrwt>0</asrwt>
<pdfrwt beam="1">  1       21 0.69584711E-01 0.23954860E+03</pdfrwt>
<pdfrwt beam="2">  1       21 0.12759815E+00 0.23954860E+03</pdfrwt>
<totfact> 0.81304070E+02</totfact>
</mgrwt>
</event>
