<event>
 5    0  0.2159162E+000  0.2772699E+03  0.7546771E-02  0.1097189E+00
         21   -1    0    0  502  501  0.00000000000E+00  0.00000000000E+00  0.79049171263E+03  0.79049171263E+03  0.00000000000E+00 0. -1.
         21   -1    0    0  503  502 -0.00000000000E+00 -0.00000000000E+00 -0.54621020818E+03  0.54621020818E+03  0.00000000000E+00 0.  1.
         25    1    1    2    0    0  0.46626294419E+02  0.24491010339E+03  0.72303999850E+03  0.77496245684E+03  0.12500000000E+03 0.  0.
         21    1    1    2  503  504 -0.42033949054E+02 -0.20820348280E+03 -0.47982033202E+03  0.52473144955E+03  0.00000000000E+00 0.  1.
         21    1    1    2  504  501 -0.45923453655E+01 -0.36706620590E+02  0.10618379679E+01  0.37008014415E+02  0.00000000000E+00 0.  1.
<mgrwt>
<rscale>  4 0.27726988E+03</rscale>
<asrwt>0</asrwt>
<pdfrwt beam="1">  1       21 0.12161411E+00 0.27726988E+03</pdfrwt>
<pdfrwt beam="2">  1       21 0.84032340E-01 0.27726988E+03</pdfrwt>
<totfact> 0.58139170E+02</totfact>
</mgrwt>
</event>
<event>
 5    0  0.2435188E+000  0.2800244E+03  0.7546771E-02  0.1095676E+00
         21   -1    0    0  502  501  0.00000000000E+00  0.00000000000E+00  0.36872605684E+03  0.36872605684E+03  0.00000000000E+00 0.  1.
         21   -1    0    0  503  502 -0.00000000000E+00 -0.00000000000E+00 -0.25632577630E+03  0.25632577630E+03  0.00000000000E+00 0.  1.
         25    1    1    2    0    0  0.20817614596E+02 -0.24971040247E+03  0.20245145949E+03  0.34554341497E+03  0.12500000000E+03 0.  0.
         21    1    1    2  503  504 -0.23502521804E+02  0.16856946968E+03 -0.18337041910E+02  0.17118493434E+03  0.00000000000E+00 0.  1.
         21    1    1    2  504  501  0.26849072076E+01  0.81140932791E+02 -0.71714137033E+02  0.10832348384E+03  0.00000000000E+00 0.  1.
<mgrwt>
<rscale>  4 0.28002439E+03</rscale>
<asrwt>0</asrwt>
<pdfrwt beam="1">  1       21 0.56727086E-01 0.28002439E+03</pdfrwt>
<pdfrwt beam="2">  1       21 0.39434735E-01 0.28002439E+03</pdfrwt>
<totfact> 0.17292514E+04</totfact>
</mgrwt>
</event>
<event>
 5    0  0.2159162E+000  0.2448535E+03  0.7546771E-02  0.1116601E+00
         21   -1    0    0  502  501  0.00000000000E+00  0.00000000000E+00  0.12690280662E+04  0.12690280662E+04  0.00000000000E+00 0.  1.
         21   -1    0    0  503  502 -0.00000000000E+00 -0.00000000000E+00 -0.90687111788E+02  0.90687111788E+02  0.00000000000E+00 0. -1.
         25    1    1    2    0    0  0.21006358036E+03  0.14196013757E+02  0.10987875181E+04  0.11257385329E+04  0.12500000000E+03 0.  0.
         21    1    1    2  503  504 -0.62495699001E+02  0.20977207440E+02  0.40351038887E+02  0.77291409386E+02  0.00000000000E+00 0. -1.
         21    1    1    2  504  501 -0.14756788136E+03 -0.35173221197E+02  0.39202397362E+02  0.15668523561E+03  0.00000000000E+00 0. -1.
<mgrwt>
<rscale>  4 0.24485350E+03</rscale>
<asrwt>0</asrwt>
<pdfrwt beam="1">  1       21 0.19523507E+00 0.24485350E+03</pdfrwt>
<pdfrwt beam="2">  1       21 0.13951864E-01 0.24485350E+03</pdfrwt>
<totfact> 0.61824686E+03</totfact>
</mgrwt>
</event>
<event>
 5    0  0.2265840E+000  0.2551521E+03  0.7546771E-02  0.1110091E+00
         21   -1    0    0  502  501  0.00000000000E+00  0.00000000000E+00  0.76594511584E+03  0.76594511584E+03  0.00000000000E+00 0.  1.
         21   -1    0    0  503  502 -0.00000000000E+00 -0.00000000000E+00 -0.95715162182E+02  0.95715162182E+02  0.00000000000E+00 0.  1.
         25    1    1    2    0    0  0.23072022950E+03  0.35173859556E+02  0.35194125797E+03  0.44040512458E+03  0.12500000000E+03 0.  0.
         21    1    1    2  503  504 -0.21504795906E+03 -0.55201938190E+01  0.32227832832E+03  0.38747828086E+03  0.00000000000E+00 0.  1.
         21    1    1    2  504  501 -0.15672270443E+02 -0.29653665737E+02 -0.39896326322E+01  0.33776872576E+02  0.00000000000E+00 0.  1.
<mgrwt>
<rscale>  4 0.25515208E+03</rscale>
<asrwt>0</asrwt>
<pdfrwt beam="1">  1       21 0.11783771E+00 0.25515208E+03</pdfrwt>
<pdfrwt beam="2">  1       21 0.14725410E-01 0.25515208E+03</pdfrwt>
<totfact> 0.21634550E+04</totfact>
</mgrwt>
</event>
<event>
 5    0  0.2159162E+000  0.3719667E+03  0.7546771E-02  0.1053943E+00
         21   -1    0    0  502  501  0.00000000000E+00  0.00000000000E+00  0.14126479738E+03  0.14126479738E+03  0.00000000000E+00 0.  1.
         21   -1    0    0  503  502 -0.00000000000E+00 -0.00000000000E+00 -0.15397709078E+04  0.15397709078E+04  0.00000000000E+00 0.  1.
         25    1    1    2    0    0  0.28722548300E+03 -0.20058847652E+03 -0.19101950032E+03  0.41814789788E+03  0.12500000000E+03 0.  0.
         21    1    1    2  503  504 -0.23897588566E+03  0.10130700225E+03 -0.84854565186E+03  0.88735692138E+03  0.00000000000E+00 0.  1.
         21    1    1    2  504  501 -0.48249597343E+02  0.99281474276E+02 -0.35894095825E+03  0.37553088593E+03  0.00000000000E+00 0.  1.
<mgrwt>
<rscale>  4 0.37196669E+03</rscale>
<asrwt>0</asrwt>
<pdfrwt beam="1">  1       21 0.21733047E-01 0.37196669E+03</pdfrwt>
<pdfrwt beam="2">  1       21 0.23688782E+00 0.37196669E+03</pdfrwt>
<totfact> 0.13567063E+03</totfact>
</mgrwt>
</event>
<event>
 5    0  0.2159162E+000  0.2501936E+03  0.7546771E-02  0.1113183E+00
         21   -1    0    0  502  501  0.00000000000E+00  0.00000000000E+00  0.37740719792E+02  0.37740719792E+02  0.00000000000E+00 0.  1.
         21   -1    0    0  503  502 -0.00000000000E+00 -0.00000000000E+00 -0.17797767373E+04  0.17797767373E+04  0.00000000000E+00 0.  1.
         25    1    1    2    0    0  0.21423996193E+03  0.32757730619E+02 -0.54554549820E+03  0.60018057350E+03  0.12500000000E+03 0.  0.
         21    1    1    2  503  504 -0.46028117977E+02 -0.28265772360E+02 -0.22591382262E+03  0.23228128806E+03  0.00000000000E+00 0.  1.
         21    1    1    2  504  501 -0.16821184395E+03 -0.44919582586E+01 -0.97057669666E+03  0.98505559550E+03  0.00000000000E+00 0.  1.
<mgrwt>
<rscale>  4 0.25019359E+03</rscale>
<asrwt>0</asrwt>
<pdfrwt beam="1">  1       21 0.58062639E-02 0.25019359E+03</pdfrwt>
<pdfrwt beam="2">  1       21 0.27381184E+00 0.25019359E+03</pdfrwt>
<totfact> 0.95664885E+03</totfact>
</mgrwt>
</event>
<event>
 5    0  0.2159162E+000  0.3076440E+03  0.7546771E-02  0.1081481E+00
         21   -1    0    0  502  501  0.00000000000E+00  0.00000000000E+00  0.14235323562E+04  0.14235323562E+04  0.00000000000E+00 0.  1.
         21   -1    0    0  503  502 -0.00000000000E+00 -0.00000000000E+00 -0.15648857624E+03  0.15648857624E+03  0.00000000000E+00 0. -1.
         25    1    1    2    0    0  0.25347686507E+03  0.12189412837E+03  0.11665706610E+04  0.12064911134E+04  0.12500000000E+03 0.  0.
         21    1    1    2  503  504 -0.31528808078E+02  0.60295717323E+02  0.43575339567E+02  0.80798821060E+02  0.00000000000E+00 0. -1.
         21    1    1    2  504  501 -0.22194805699E+03 -0.18218984569E+03  0.56897779414E+02  0.29273099798E+03  0.00000000000E+00 0. -1.
<mgrwt>
<rscale>  4 0.30764396E+03</rscale>
<asrwt>0</asrwt>
<pdfrwt beam="1">  1       21 0.21900497E+00 0.30764396E+03</pdfrwt>
<pdfrwt beam="2">  1       21 0.24075167E-01 0.30764396E+03</pdfrwt>
<totfact> 0.15011590E+03</totfact>
</mgrwt>
</event>
<event>
 5    0  0.2159162E+000  0.2456260E+03  0.7546771E-02  0.1116101E+00
         21   -1    0    0  502  501  0.00000000000E+00  0.00000000000E+00  0.12737977598E+04  0.12737977598E+04  0.00000000000E+00 0.  1.
         21   -1    0    0  503  502 -0.00000000000E+00 -0.00000000000E+00 -0.52031193536E+02  0.52031193536E+02  0.00000000000E+00 0. -1.
         25    1    1    2    0    0  0.15584370109E+03 -0.14289815577E+03  0.92731155291E+03  0.95929081005E+03  0.12500000000E+03 0.  0.
         21    1    1    2  503  504 -0.12661723924E+03  0.10032222764E+03  0.18561390160E+03  0.24606705407E+03  0.00000000000E+00 0. -1.
         21    1    1    2  504  501 -0.29226461844E+02  0.42575928128E+02  0.10884111176E+03  0.12047108921E+03  0.00000000000E+00 0. -1.
<mgrwt>
<rscale>  4 0.24562602E+03</rscale>
<asrwt>0</asrwt>
<pdfrwt beam="1">  1       21 0.19596886E+00 0.24562602E+03</pdfrwt>
<pdfrwt beam="2">  1       21 0.80048000E-02 0.24562602E+03</pdfrwt>
<totfact> 0.16462368E+04</totfact>
</mgrwt>
</event>
<event>
 5    0  0.2159162E+000  0.3234791E+03  0.7546771E-02  0.1074059E+00
         21   -1    0    0  502  501  0.00000000000E+00  0.00000000000E+00  0.83338207812E+03  0.83338207812E+03  0.00000000000E+00 0.  1.
         21   -1    0    0  503  502 -0.00000000000E+00 -0.00000000000E+00 -0.12197464782E+03  0.12197464782E+03  0.00000000000E+00 0. -1.
         25    1    1    2    0    0  0.29592430558E+03 -0.37980828379E+02  0.43160441225E+03  0.53937102873E+03  0.12500000000E+03 0.  0.
         21    1    1    2  503  504 -0.21229359142E+03  0.90223439169E+01  0.15510598566E+03  0.26307382696E+03  0.00000000000E+00 0. -1.
         21    1    1    2  504  501 -0.83630714168E+02  0.28958484462E+02  0.12469703239E+03  0.15291187025E+03  0.00000000000E+00 0. -1.
<mgrwt>
<rscale>  4 0.32347912E+03</rscale>
<asrwt>0</asrwt>
<pdfrwt beam="1">  1       21 0.12821262E+00 0.32347912E+03</pdfrwt>
<pdfrwt beam="2">  1       21 0.18765331E-01 0.32347912E+03</pdfrwt>
<totfact> 0.10806637E+04</totfact>
</mgrwt>
</event>
<event>
 5    0  0.2159162E+000  0.2415981E+03  0.7546771E-02  0.1118733E+00
         21   -1    0    0  502  501  0.00000000000E+00  0.00000000000E+00  0.18910667893E+03  0.18910667893E+03  0.00000000000E+00 0. -1.
         21   -1    0    0  503  502 -0.00000000000E+00 -0.00000000000E+00 -0.75203991714E+03  0.75203991714E+03  0.00000000000E+00 0. -1.
         25    1    1    2    0    0  0.10242840098E+03  0.17664389389E+03  0.73669916282E+02  0.25049331157E+03  0.12500000000E+03 0.  0.
         21    1    1    2  503  504 -0.78341380015E+02 -0.21134842018E+03 -0.52619309033E+03  0.57243750300E+03  0.00000000000E+00 0. -1.
         21    1    1    2  504  501 -0.24087020965E+02  0.34704526288E+02 -0.11041006417E+03  0.11821578149E+03  0.00000000000E+00 0. -1.
<mgrwt>
<rscale>  4 0.24159807E+03</rscale>
<asrwt>0</asrwt>
<pdfrwt beam="1">  1       21 0.29093336E-01 0.24159807E+03</pdfrwt>
<pdfrwt beam="2">  1       21 0.11569845E+00 0.24159807E+03</pdfrwt>
<totfact> 0.63105646E+03</totfact>
</mgrwt>
</event>
<event>
 5    0  0.2159162E+000  0.3294652E+03  0.7546771E-02  0.1071374E+00
         21   -1    0    0  502  501  0.00000000000E+00  0.00000000000E+00  0.50821288552E+02  0.50821288552E+02  0.00000000000E+00 0.  1.
         21   -1    0    0  503  502 -0.00000000000E+00 -0.00000000000E+00 -0.22103193910E+04  0.22103193910E+04  0.00000000000E+00 0. -1.
         25    1    1    2    0    0  0.46606942818E+02  0.30124756415E+03 -0.81610084779E+03  0.88009539017E+03  0.12500000000E+03 0.  0.
         21    1    1    2  503  504  0.18338898503E+02 -0.13398014569E+03 -0.70797434153E+03  0.72077365581E+03  0.00000000000E+00 0. -1.
         21    1    1    2  504  501 -0.64945841321E+02 -0.16726741846E+03 -0.63542291309E+03  0.66027163354E+03  0.00000000000E+00 0. -1.
<mgrwt>
<rscale>  4 0.32946518E+03</rscale>
<asrwt>0</asrwt>
<pdfrwt beam="1">  1       21 0.78186612E-02 0.32946518E+03</pdfrwt>
<pdfrwt beam="2">  1       21 0.34004907E+00 0.32946518E+03</pdfrwt>
<totfact> 0.21778578E+03</totfact>
</mgrwt>
</event>
<event>
 5    0  0.4780837E+000  0.2408383E+03  0.7546771E-02  0.1119236E+00
         21   -1    0    0  502  501  0.00000000000E+00  0.00000000000E+00  0.41450627716E+03  0.41450627716E+03  0.00000000000E+00 0.  1.
         21   -1    0    0  503  502 -0.00000000000E+00 -0.00000000000E+00 -0.14694940921E+03  0.14694940921E+03  0.00000000000E+00 0.  1.
         25    1    1    2    0    0 -0.20101628931E+03 -0.44390519157E+02  0.24922935214E+03  0.34658092378E+03  0.12500000000E+03 0.  0.
         21    1    1    2  503  504  0.20616500517E+02  0.14912182925E+02 -0.14308866393E+02  0.29191727435E+02  0.00000000000E+00 0. -1.
         21    1    1    2  504  501  0.18039978879E+03  0.29478336232E+02  0.32636382199E+02  0.18568303516E+03  0.00000000000E+00 0.  1.
<mgrwt>
<rscale>  4 0.24083826E+03</rscale>
<asrwt>0</asrwt>
<pdfrwt beam="1">  1       21 0.63770196E-01 0.24083826E+03</pdfrwt>
<pdfrwt beam="2">  1       21 0.22607602E-01 0.24083826E+03</pdfrwt>
<totfact> 0.40703625E+04</totfact>
</mgrwt>
</event>
<event>
 5    0  0.3351131E+000  0.2519860E+03  0.7546771E-02  0.1112056E+00
         21   -1    0    0  502  501  0.00000000000E+00  0.00000000000E+00  0.40434375652E+03  0.40434375652E+03  0.00000000000E+00 0.  1.
         21   -1    0    0  503  502 -0.00000000000E+00 -0.00000000000E+00 -0.17529978298E+03  0.17529978298E+03  0.00000000000E+00 0.  1.
         25    1    1    2    0    0 -0.27715878153E+02 -0.22034548251E+03  0.21063671312E+03  0.33062535668E+03  0.12500000000E+03 0.  0.
         21    1    1    2  503  504 -0.16842152523E+01  0.21484336975E+03  0.30010672837E+02  0.21693582136E+03  0.00000000000E+00 0.  1.
         21    1    1    2  504  501  0.29400093405E+02  0.55021127568E+01 -0.11603412428E+02  0.32082361462E+02  0.00000000000E+00 0.  1.
<mgrwt>
<rscale>  4 0.25198602E+03</rscale>
<asrwt>0</asrwt>
<pdfrwt beam="1">  1       21 0.62206732E-01 0.25198602E+03</pdfrwt>
<pdfrwt beam="2">  1       21 0.26969197E-01 0.25198602E+03</pdfrwt>
<totfact> 0.30483696E+04</totfact>
</mgrwt>
</event>
<event>
 5    0  0.2159162E+000  0.2560585E+03  0.7546771E-02  0.1109535E+00
         21   -1    0    0  502  501  0.00000000000E+00  0.00000000000E+00  0.48038815311E+03  0.48038815311E+03  0.00000000000E+00 0.  1.
         21   -1    0    0  503  502 -0.00000000000E+00 -0.00000000000E+00 -0.60961902605E+03  0.60961902605E+03  0.00000000000E+00 0.  1.
         25    1    1    2    0    0 -0.72176387009E+02 -0.21218835967E+03  0.41767846994E+03  0.49021794650E+03  0.12500000000E+03 0.  0.
         21    1    1    2  503  504  0.50387332891E+02  0.21009623386E+03 -0.43430941982E+03  0.48508141888E+03  0.00000000000E+00 0.  1.
         21    1    1    2  504  501  0.21789054119E+02  0.20921258062E+01 -0.11259992306E+03  0.11470781378E+03  0.00000000000E+00 0.  1.
<mgrwt>
<rscale>  4 0.25605849E+03</rscale>
<asrwt>0</asrwt>
<pdfrwt beam="1">  1       21 0.73905870E-01 0.25605849E+03</pdfrwt>
<pdfrwt beam="2">  1       21 0.93787543E-01 0.25605849E+03</pdfrwt>
<totfact> 0.14872228E+03</totfact>
</mgrwt>
</event>
