<event>
 5    0  0.1911311E+001  0.2953726E+03  0.7546771E-02  0.1087577E+00
         21   -1    0    0  504  501  0.00000000000E+00  0.00000000000E+00  0.60600497886E+02  0.60600497886E+02  0.00000000000E+00 0. -1.
         21   -1    0    0  503  502 -0.00000000000E+00 -0.00000000000E+00 -0.30099059907E+04  0.30099059907E+04  0.00000000000E+00 0. -1.
         25    1    1    2    0    0  0.13006754233E+03 -0.23220194472E+03 -0.50900249033E+03  0.58782977456E+03  0.12500000000E+03 0.  0.
         21    1    1    2  503  501 -0.33772341507E+02 -0.21985865028E+02 -0.15787058500E+04  0.15792200955E+04  0.00000000000E+00 0. -1.
         21    1    1    2  504  502 -0.96295200824E+02  0.25418780975E+03 -0.86159715250E+03  0.90345661851E+03  0.00000000000E+00 0. -1.
<mgrwt>
<rscale>  4 0.29537258E+03</rscale>
<asrwt>0</asrwt>
<pdfrwt beam="1">  1       21 0.93231536E-02 0.29537258E+03</pdfrwt>
<pdfrwt beam="2">  1       21 0.46306246E+00 0.29537258E+03</pdfrwt>
<totfact> 0.27119664E+02</totfact>
</mgrwt>
</event>
<event>
 5    0  0.1911311E+001  0.2889676E+03  0.7546771E-02  0.1090889E+00
         21   -1    0    0  502  501  0.00000000000E+00  0.00000000000E+00  0.82412630594E+02  0.82412630594E+02  0.00000000000E+00 0. -1.
         21   -1    0    0  504  502 -0.00000000000E+00 -0.00000000000E+00 -0.19570903587E+04  0.19570903587E+04  0.00000000000E+00 0. -1.
         25    1    1    2    0    0 -0.93338961525E+02  0.29715954133E+03 -0.86602951976E+03  0.92878850328E+03  0.12500000000E+03 0.  0.
         21    1    1    2  503  501 -0.21383863843E+02 -0.24657122391E+03 -0.29019307510E+03  0.38140091627E+03  0.00000000000E+00 0. -1.
         21    1    1    2  504  503  0.11472282537E+03 -0.50588317420E+02 -0.71845513328E+03  0.72931356977E+03  0.00000000000E+00 0. -1.
<mgrwt>
<rscale>  4 0.28896759E+03</rscale>
<asrwt>0</asrwt>
<pdfrwt beam="1">  1       21 0.12678868E-01 0.28896759E+03</pdfrwt>
<pdfrwt beam="2">  1       21 0.30109079E+00 0.28896759E+03</pdfrwt>
<totfact> 0.16170137E+03</totfact>
</mgrwt>
</event>
<event>
 5    0  0.1911311E+001  0.3822708E+03  0.7546771E-02  0.1050098E+00
         21   -1    0    0  503  501  0.00000000000E+00  0.00000000000E+00  0.92586714536E+03  0.92586714536E+03  0.00000000000E+00 0. -1.
         21   -1    0    0  501  502 -0.00000000000E+00 -0.00000000000E+00 -0.36213223579E+03  0.36213223579E+03  0.00000000000E+00 0. -1.
         25    1    1    2    0    0 -0.57053791040E+02  0.30095762507E+03  0.37682679291E+03  0.50145195085E+03  0.12500000000E+03 0.  0.
         21    1    1    2  503  504 -0.24426291691E+02  0.16131753406E+03 -0.13962326172E+03  0.21474320882E+03  0.00000000000E+00 0. -1.
         21    1    1    2  504  502  0.81480082731E+02 -0.46227515913E+03  0.32653137838E+03  0.57180422148E+03  0.00000000000E+00 0. -1.
<mgrwt>
<rscale>  4 0.38227078E+03</rscale>
<asrwt>0</asrwt>
<pdfrwt beam="1">  1       21 0.14244110E+00 0.38227078E+03</pdfrwt>
<pdfrwt beam="2">  1       21 0.55712652E-01 0.38227078E+03</pdfrwt>
<totfact> 0.90459730E+02</totfact>
</mgrwt>
</event>
<event>
 5    0  0.1911311E+001  0.3064027E+03  0.7546771E-02  0.1082083E+00
         21   -1    0    0  503  501  0.00000000000E+00  0.00000000000E+00  0.15987136227E+04  0.15987136227E+04  0.00000000000E+00 0.  1.
         21   -1    0    0  501  502 -0.00000000000E+00 -0.00000000000E+00 -0.89054587222E+02  0.89054587222E+02  0.00000000000E+00 0. -1.
         25    1    1    2    0    0 -0.18716587390E+03  0.22110391295E+03  0.30920031089E+03  0.44175540396E+03  0.12500000000E+03 0.  0.
         21    1    1    2  503  504 -0.16799853703E+02 -0.66092916965E+02  0.15012749396E+03  0.16489018528E+03  0.00000000000E+00 0. -1.
         21    1    1    2  504  502  0.20396572761E+03 -0.15501099599E+03  0.10503312306E+04  0.10811226206E+04  0.00000000000E+00 0.  1.
<mgrwt>
<rscale>  4 0.30640266E+03</rscale>
<asrwt>0</asrwt>
<pdfrwt beam="1">  1       21 0.24595592E+00 0.30640266E+03</pdfrwt>
<pdfrwt beam="2">  1       21 0.13700707E-01 0.30640266E+03</pdfrwt>
<totfact> 0.29449779E+03</totfact>
</mgrwt>
</event>
<event>
 5    0  0.1911311E+001  0.2448676E+03  0.7546771E-02  0.1116592E+00
         21   -1    0    0  504  501  0.00000000000E+00  0.00000000000E+00  0.69456880978E+03  0.69456880978E+03  0.00000000000E+00 0. -1.
         21   -1    0    0  503  502 -0.00000000000E+00 -0.00000000000E+00 -0.90062973853E+02  0.90062973853E+02  0.00000000000E+00 0. -1.
         25    1    1    2    0    0 -0.20912831861E+03  0.23552724258E+02  0.24113038580E+03  0.34359605268E+03  0.12500000000E+03 0.  0.
         21    1    1    2  503  501 -0.18211189403E+01 -0.20382357679E+02 -0.44748212220E+00  0.20468444469E+02  0.00000000000E+00 0. -1.
         21    1    1    2  504  502  0.21094943755E+03 -0.31703665795E+01  0.36382293226E+03  0.42056728649E+03  0.00000000000E+00 0. -1.
<mgrwt>
<rscale>  4 0.24486758E+03</rscale>
<asrwt>0</asrwt>
<pdfrwt beam="1">  1       21 0.10685674E+00 0.24486758E+03</pdfrwt>
<pdfrwt beam="2">  1       21 0.13855843E-01 0.24486758E+03</pdfrwt>
<totfact> 0.30869533E+04</totfact>
</mgrwt>
</event>
<event>
 5    0  0.1911311E+001  0.3598864E+03  0.7546771E-02  0.1058629E+00
         21   -1    0    0  504  501  0.00000000000E+00  0.00000000000E+00  0.78626031185E+02  0.78626031185E+02  0.00000000000E+00 0. -1.
         21   -1    0    0  503  502 -0.00000000000E+00 -0.00000000000E+00 -0.16612876780E+04  0.16612876780E+04  0.00000000000E+00 0. -1.
         25    1    1    2    0    0 -0.33702686663E+03  0.17496760812E+02 -0.62461301609E+03  0.72087423684E+03  0.12500000000E+03 0.  0.
         21    1    1    2  503  501  0.31350947097E+03 -0.15888789410E+02 -0.93410160729E+03  0.98543718966E+03  0.00000000000E+00 0. -1.
         21    1    1    2  504  502  0.23517395654E+02 -0.16079714028E+01 -0.23947023421E+02  0.33602282676E+02  0.00000000000E+00 0. -1.
<mgrwt>
<rscale>  4 0.35988643E+03</rscale>
<asrwt>0</asrwt>
<pdfrwt beam="1">  1       21 0.12096314E-01 0.35988643E+03</pdfrwt>
<pdfrwt beam="2">  1       21 0.25558269E+00 0.35988643E+03</pdfrwt>
<totfact> 0.31245732E+03</totfact>
</mgrwt>
</event>
