<event>
 5    0  0.1911311E+001  0.3182897E+03  0.7546771E-02  0.1076439E+00
         21   -1    0    0  504  501  0.00000000000E+00  0.00000000000E+00  0.79667086001E+03  0.79667086001E+03  0.00000000000E+00 0. -1.
         21   -1    0    0  503  502 -0.00000000000E+00 -0.00000000000E+00 -0.57835726419E+03  0.57835726419E+03  0.00000000000E+00 0. -1.
         25    1    1    2    0    0 -0.17214290597E+03  0.30971527694E+03  0.10969652402E+03  0.39142695389E+03  0.12500000000E+03 0.  0.
         21    1    1    2  503  501 -0.98432360519E+02 -0.28389327244E+03 -0.34331248498E+03  0.45623215810E+03  0.00000000000E+00 0. -1.
         21    1    1    2  504  502  0.27057526649E+03 -0.25822004501E+02  0.45192955678E+03  0.52736901221E+03  0.00000000000E+00 0. -1.
<mgrwt>
<rscale>  4 0.31828971E+03</rscale>
<asrwt>0</asrwt>
<pdfrwt beam="1">  1       21 0.12256475E+00 0.31828971E+03</pdfrwt>
<pdfrwt beam="2">  1       21 0.88978041E-01 0.31828971E+03</pdfrwt>
<totfact> 0.48481662E+02</totfact>
</mgrwt>
</event>
<event>
 5    0  0.1911311E+001  0.4438738E+03  0.7546771E-02  0.1029565E+00
         21   -1    0    0  502  501  0.00000000000E+00  0.00000000000E+00  0.61995467513E+03  0.61995467513E+03  0.00000000000E+00 0.  1.
         21   -1    0    0  504  502 -0.00000000000E+00 -0.00000000000E+00 -0.49701925900E+03  0.49701925900E+03  0.00000000000E+00 0. -1.
         25    1    1    2    0    0  0.50330151398E+02 -0.44420584386E+03  0.34777584381E+03  0.58002154563E+03  0.12500000000E+03 0.  0.
         21    1    1    2  503  501  0.32011108719E+02  0.31610745124E+02  0.21014372735E+02  0.49654346740E+02  0.00000000000E+00 0.  1.
         21    1    1    2  504  503 -0.82341260117E+02  0.41259509873E+03 -0.24585480041E+03  0.48729804176E+03  0.00000000000E+00 0. -1.
<mgrwt>
<rscale>  4 0.44387379E+03</rscale>
<asrwt>0</asrwt>
<pdfrwt beam="1">  1       21 0.95377642E-01 0.44387379E+03</pdfrwt>
<pdfrwt beam="2">  1       21 0.76464502E-01 0.44387379E+03</pdfrwt>
<totfact> 0.11957801E+03</totfact>
</mgrwt>
</event>
<event>
 5    0  0.1911311E+001  0.2077419E+03  0.7546771E-02  0.1143367E+00
         21   -1    0    0  502  501  0.00000000000E+00  0.00000000000E+00  0.42158465363E+03  0.42158465363E+03  0.00000000000E+00 0.  1.
         21   -1    0    0  504  502 -0.00000000000E+00 -0.00000000000E+00 -0.20069233080E+03  0.20069233080E+03  0.00000000000E+00 0.  1.
         25    1    1    2    0    0  0.14989117938E+03 -0.15262284684E+03  0.19236574626E+03  0.31367288593E+03  0.12500000000E+03 0.  0.
         21    1    1    2  503  501 -0.17152388896E+02  0.67539347943E+02  0.11070180176E+03  0.13080770956E+03  0.00000000000E+00 0. -1.
         21    1    1    2  504  503 -0.13273879049E+03  0.85083498901E+02 -0.82175225194E+02  0.17779638894E+03  0.00000000000E+00 0.  1.
<mgrwt>
<rscale>  4 0.20774190E+03</rscale>
<asrwt>0</asrwt>
<pdfrwt beam="1">  1       21 0.64859177E-01 0.20774190E+03</pdfrwt>
<pdfrwt beam="2">  1       21 0.30875743E-01 0.20774190E+03</pdfrwt>
<totfact> 0.21865244E+04</totfact>
</mgrwt>
</event>
<event>
 5    0  0.1911311E+001  0.2579753E+03  0.7546771E-02  0.1108366E+00
         21   -1    0    0  502  501  0.00000000000E+00  0.00000000000E+00  0.26521024295E+03  0.26521024295E+03  0.00000000000E+00 0. -1.
         21   -1    0    0  504  502 -0.00000000000E+00 -0.00000000000E+00 -0.11734002408E+04  0.11734002408E+04  0.00000000000E+00 0.  1.
         25    1    1    2    0    0 -0.18263750508E+03 -0.13600712041E+03  0.13420070304E+03  0.29238540278E+03  0.12500000000E+03 0.  0.
         21    1    1    2  503  501 -0.17603971312E+02  0.31855180155E+02  0.31950570294E+02  0.48430272049E+02  0.00000000000E+00 0. -1.
         21    1    1    2  504  503  0.20024147640E+03  0.10415194026E+03 -0.10743412712E+04  0.10977948090E+04  0.00000000000E+00 0.  1.
<mgrwt>
<rscale>  4 0.25797533E+03</rscale>
<asrwt>0</asrwt>
<pdfrwt beam="1">  1       21 0.40801576E-01 0.25797533E+03</pdfrwt>
<pdfrwt beam="2">  1       21 0.18052311E+00 0.25797533E+03</pdfrwt>
<totfact> 0.98110263E+02</totfact>
</mgrwt>
</event>
