<event>
 5    0  0.1856407E+000  0.2591805E+03  0.7546771E-02  0.1107637E+00
         21   -1    0    0  502  501  0.00000000000E+00  0.00000000000E+00  0.36225388202E+04  0.36225388202E+04  0.00000000000E+00 0. -1.
         21   -1    0    0  503  502 -0.00000000000E+00 -0.00000000000E+00 -0.42238358454E+02  0.42238358454E+02  0.00000000000E+00 0. -1.
         25    1    1    2    0    0 -0.22430188150E+03 -0.35188391249E+02  0.32132270791E+04  0.32236629506E+04  0.12500000000E+03 0.  0.
         21    1    1    2  503  504  0.11805416516E+03  0.54944321167E+02  0.24939437817E+03  0.28134182093E+03  0.00000000000E+00 0. -1.
         21    1    1    2  504  501  0.10624771635E+03 -0.19755929918E+02  0.11767900444E+03  0.15977240713E+03  0.00000000000E+00 0. -1.
<mgrwt>
<rscale>  4 0.25918055E+03</rscale>
<asrwt>0</asrwt>
<pdfrwt beam="1">  1       21 0.55731342E+00 0.25918055E+03</pdfrwt>
<pdfrwt beam="2">  1       21 0.64982118E-02 0.25918055E+03</pdfrwt>
<totfact> 0.11251717E+02</totfact>
</mgrwt>
</event>
<event>
 5    0  0.1856407E+000  0.3658434E+03  0.7546771E-02  0.1056294E+00
         21   -1    0    0  502  501  0.00000000000E+00  0.00000000000E+00  0.83312935304E+02  0.83312935304E+02  0.00000000000E+00 0.  1.
         21   -1    0    0  503  502 -0.00000000000E+00 -0.00000000000E+00 -0.20111256261E+04  0.20111256261E+04  0.00000000000E+00 0.  1.
         25    1    1    2    0    0 -0.29474530245E+03 -0.17703551309E+03 -0.47221261769E+03  0.59734924669E+03  0.12500000000E+03 0.  0.
         21    1    1    2  503  504  0.28709462946E+03  0.15669701224E+03 -0.13302326728E+04  0.13698526358E+04  0.00000000000E+00 0.  1.
         21    1    1    2  504  501  0.76506729923E+01  0.20338500847E+02 -0.12536740031E+03  0.12723667896E+03  0.00000000000E+00 0.  1.
<mgrwt>
<rscale>  4 0.36584336E+03</rscale>
<asrwt>0</asrwt>
<pdfrwt beam="1">  1       21 0.12817376E-01 0.36584336E+03</pdfrwt>
<pdfrwt beam="2">  1       21 0.30940392E+00 0.36584336E+03</pdfrwt>
<totfact> 0.13360298E+03</totfact>
</mgrwt>
</event>
<event>
 5    0  0.1856407E+000  0.5039173E+03  0.7546771E-02  0.1012761E+00
         21   -1    0    0  502  501  0.00000000000E+00  0.00000000000E+00  0.35110630417E+03  0.35110630417E+03  0.00000000000E+00 0.  1.
         21   -1    0    0  503  502 -0.00000000000E+00 -0.00000000000E+00 -0.93604215996E+03  0.93604215996E+03  0.00000000000E+00 0. -1.
         25    1    1    2    0    0  0.16286256770E+03  0.46019928585E+03  0.24569527196E+02  0.50451586727E+03  0.12500000000E+03 0.  0.
         21    1    1    2  503  504 -0.14235019758E+03 -0.42938904929E+03 -0.54520528681E+03  0.70844007451E+03  0.00000000000E+00 0. -1.
         21    1    1    2  504  501 -0.20512370118E+02 -0.30810236565E+02 -0.64300096178E+02  0.74192522356E+02  0.00000000000E+00 0. -1.
<mgrwt>
<rscale>  4 0.50391725E+03</rscale>
<asrwt>0</asrwt>
<pdfrwt beam="1">  1       21 0.54016356E-01 0.50391725E+03</pdfrwt>
<pdfrwt beam="2">  1       21 0.14400648E+00 0.50391725E+03</pdfrwt>
<totfact> 0.88980628E+02</totfact>
</mgrwt>
</event>
<event>
 5    0  0.1856407E+000  0.2625763E+03  0.7546771E-02  0.1105605E+00
         21   -1    0    0  502  501  0.00000000000E+00  0.00000000000E+00  0.80475808178E+03  0.80475808178E+03  0.00000000000E+00 0. -1.
         21   -1    0    0  503  502 -0.00000000000E+00 -0.00000000000E+00 -0.77770242263E+03  0.77770242263E+03  0.00000000000E+00 0. -1.
         25    1    1    2    0    0 -0.13646243724E+03  0.18988977740E+03  0.73496313125E+03  0.78132959027E+03  0.12500000000E+03 0.  0.
         21    1    1    2  503  504  0.57831688460E+02 -0.70955714586E+02 -0.13849454143E+02  0.92579830430E+02  0.00000000000E+00 0. -1.
         21    1    1    2  504  501  0.78630748777E+02 -0.11893406282E+03 -0.69405801795E+03  0.70855108372E+03  0.00000000000E+00 0. -1.
<mgrwt>
<rscale>  4 0.26257633E+03</rscale>
<asrwt>0</asrwt>
<pdfrwt beam="1">  1       21 0.12380894E+00 0.26257633E+03</pdfrwt>
<pdfrwt beam="2">  1       21 0.11964653E+00 0.26257633E+03</pdfrwt>
<totfact> 0.24130611E+02</totfact>
</mgrwt>
</event>
<event>
 5    0  0.1875978E+000  0.3240932E+03  0.7546771E-02  0.1073781E+00
         21   -1    0    0  502  501  0.00000000000E+00  0.00000000000E+00  0.74232739707E+03  0.74232739707E+03  0.00000000000E+00 0. -1.
         21   -1    0    0  503  502 -0.00000000000E+00 -0.00000000000E+00 -0.17662171187E+03  0.17662171187E+03  0.00000000000E+00 0.  1.
         25    1    1    2    0    0  0.24589856313E+03 -0.17013319249E+03  0.51817911451E+03  0.61118409768E+03  0.12500000000E+03 0.  0.
         21    1    1    2  503  504 -0.37500853327E+02  0.28812320698E+02  0.28581719781E+02  0.55257384393E+02  0.00000000000E+00 0.  1.
         21    1    1    2  504  501 -0.20839770980E+03  0.14132087179E+03  0.18944850905E+02  0.25250762688E+03  0.00000000000E+00 0.  1.
<mgrwt>
<rscale>  4 0.32409321E+03</rscale>
<asrwt>0</asrwt>
<pdfrwt beam="1">  1       21 0.11420421E+00 0.32409321E+03</pdfrwt>
<pdfrwt beam="2">  1       21 0.27172572E-01 0.32409321E+03</pdfrwt>
<totfact> 0.71227654E+03</totfact>
</mgrwt>
</event>
<event>
 5    0  0.1856407E+000  0.2421542E+03  0.7546771E-02  0.1118366E+00
         21   -1    0    0  502  501  0.00000000000E+00  0.00000000000E+00  0.25448251065E+04  0.25448251065E+04  0.00000000000E+00 0. -1.
         21   -1    0    0  503  502 -0.00000000000E+00 -0.00000000000E+00 -0.72719525214E+02  0.72719525214E+02  0.00000000000E+00 0. -1.
         25    1    1    2    0    0 -0.20714583788E+03 -0.10211242395E+02  0.23550884394E+04  0.23675050634E+04  0.12500000000E+03 0.  0.
         21    1    1    2  503  504  0.32336933414E+02 -0.16789272315E+02  0.47785476880E+02  0.60091669374E+02  0.00000000000E+00 0.  1.
         21    1    1    2  504  501  0.17480890447E+03  0.27000514709E+02  0.69231664956E+02  0.18994789893E+03  0.00000000000E+00 0. -1.
<mgrwt>
<rscale>  4 0.24215422E+03</rscale>
<asrwt>0</asrwt>
<pdfrwt beam="1">  1       21 0.39151149E+00 0.24215422E+03</pdfrwt>
<pdfrwt beam="2">  1       21 0.11187621E-01 0.24215422E+03</pdfrwt>
<totfact> 0.60951402E+02</totfact>
</mgrwt>
</event>
<event>
 5    0  0.1856407E+000  0.2240217E+03  0.7546771E-02  0.1130920E+00
         21   -1    0    0  502  501  0.00000000000E+00  0.00000000000E+00  0.28305346417E+03  0.28305346417E+03  0.00000000000E+00 0. -1.
         21   -1    0    0  503  502 -0.00000000000E+00 -0.00000000000E+00 -0.23575321442E+03  0.23575321442E+03  0.00000000000E+00 0. -1.
         25    1    1    2    0    0 -0.18106350387E+03 -0.10709571763E+03  0.33849163587E+02  0.24703087063E+03  0.12500000000E+03 0.  0.
         21    1    1    2  503  504  0.52122437437E+02 -0.12828525926E+02  0.68735260903E+02  0.87211556879E+02  0.00000000000E+00 0. -1.
         21    1    1    2  504  501  0.12894106643E+03  0.11992424356E+03 -0.55284174741E+02  0.18456425109E+03  0.00000000000E+00 0. -1.
<mgrwt>
<rscale>  4 0.22402169E+03</rscale>
<asrwt>0</asrwt>
<pdfrwt beam="1">  1       21 0.43546687E-01 0.22402169E+03</pdfrwt>
<pdfrwt beam="2">  1       21 0.36269726E-01 0.22402169E+03</pdfrwt>
<totfact> 0.36570403E+04</totfact>
</mgrwt>
</event>
<event>
 5    0  0.1856407E+000  0.2957427E+03  0.7546771E-02  0.1087388E+00
         21   -1    0    0  502  501  0.00000000000E+00  0.00000000000E+00  0.91547999109E+02  0.91547999109E+02  0.00000000000E+00 0. -1.
         21   -1    0    0  503  502 -0.00000000000E+00 -0.00000000000E+00 -0.18778298155E+04  0.18778298155E+04  0.00000000000E+00 0. -1.
         25    1    1    2    0    0  0.29028219264E+03 -0.23332240161E+03 -0.78673867722E+03  0.87936672708E+03  0.12500000000E+03 0.  0.
         21    1    1    2  503  504 -0.19522521145E+03  0.11335779638E+03 -0.30883133106E+03  0.38254367624E+03  0.00000000000E+00 0. -1.
         21    1    1    2  504  501 -0.95056981188E+02  0.11996460522E+03 -0.69071180812E+03  0.70746741130E+03  0.00000000000E+00 0. -1.
<mgrwt>
<rscale>  4 0.29574267E+03</rscale>
<asrwt>0</asrwt>
<pdfrwt beam="1">  1       21 0.14084308E-01 0.29574267E+03</pdfrwt>
<pdfrwt beam="2">  1       21 0.28889688E+00 0.29574267E+03</pdfrwt>
<totfact> 0.15665576E+03</totfact>
</mgrwt>
</event>
