<LesHouchesEvents version="3.0">
  <!--
  <scalesfunctionalform>
    muR  H_T/2 := sum_i mT(i)/2, i=final state
    muF1 H_T/2 := sum_i mT(i)/2, i=final state
    muF2 H_T/2 := sum_i mT(i)/2, i=final state
    QES  H_T/2 := sum_i mT(i)/2, i=final state
  </scalesfunctionalform>
HERWIG6   
  -->
  <header>
      122
  </header>
  <init>
   2212   2212 0.65000000D+04 0.65000000D+04 -1 -1   244800   244800 -4   1
 0.11595830D-03 0.48280043D-05 0.18982733D-05     66
  </init>
  <event>
  5     66 0.18982733E-05 0.20574078E+03 0.75467711E-02 0.94741042E-01
        1 -1    0    0  501    0 0.00000000E+00 0.00000000E+00 0.59809442E+03 0.59809451E+03 0.32000000E+00 0.0000E+00 0.9000E+01
        1 -1    0    0  502    0 0.00000000E+00 0.00000000E+00 -.13106923E+04 0.13106923E+04 0.32000000E+00 0.0000E+00 0.9000E+01
       25  1    1    2    0    0 -.46679131E+03 0.92285744E+01 -.24180518E+03 0.54043874E+03 0.12500000E+03 0.0000E+00 0.9000E+01
        1  1    1    2  501    0 0.28689357E+03 0.90534863E+02 0.38476119E+03 0.48841146E+03 0.32000000E+00 0.0000E+00 0.9000E+01
        1  1    1    2  502    0 0.17989773E+03 -.99763438E+02 -.85555388E+03 0.87993664E+03 0.32000000E+00 0.0000E+00 0.9000E+01
#aMCatNLO 1  0  0  0  0 0.00000000D+00 0.00000000D+00  -5  6  0 0.00000000D+00 0.00000000D+00 0.00000000D+00 0.00000000D+00 0.00000000D+00
  <mgrwgt>
 0.8456082716D-03    1    2    0
 0.885391366856486D+03 0.000000000000000D+00 0.000000000000000D+00 0.885391366856486D+03
 0.885391366856486D+03 0.000000000000000D+00 0.000000000000000D+00 -.885391366856486D+03
 0.485248415036961D+03 -.466798216690592D+03 0.924846091982868D+01 -.430687260199334D+02
 0.681255709936665D+03 0.286870411292307D+03 0.905275544992624D+02 0.611244199418429D+03
 0.604278608739345D+03 0.179927805398285D+03 -.997760154190911D+02 -.568175473398495D+03
 0.000000000000000D+00 -.000000000000000D+00 -.000000000000000D+00 0.000000000000000D+00
 0.139026420113577D+04 0.000000000000000D+00 0.000000000000000D+00 0.139026420113577D+04
 0.896114834747215D+03 0.000000000000000D+00 0.000000000000000D+00 -.896114834747215D+03
 0.472995284615187D+03 -.452276817775556D+03 0.411133094026492D+02 -.430687260199334D+02
 0.697812636901270D+03 0.307769063276977D+03 0.136386247789285D+03 0.611244199418429D+03
 0.604710674048226D+03 0.198249048382439D+03 -.595730270484246D+02 -.568175473398495D+03
 0.510860440318301D+03 -.537412938838596D+02 -.117926530143510D+03 0.494149366388553D+03
0.179341057540D-03 0.000000000000D+00 0.000000000000D+00 0.118495589165D-05 0.000000000000D+00  6 1 1 25 1 1 21 2 0.92014536D-01 0.20164498D+00 0.24497028D+06 0.24497028D+06 0.24497028D+06 0.10911238D+01  1  2 14  2  6  2        1 0.845608271576D-03 0.100000000000D+01
  </mgrwgt>
  </event>
  <event>
  5     66 -.18982733E-05 0.28360932E+02 0.75467711E-02 0.91950986E-01
        1 -1    0    0  501    0 0.00000000E+00 0.00000000E+00 0.12716535E+04 0.12716535E+04 0.32000000E+00 0.0000E+00 0.9000E+01
        1 -1    0    0  502    0 0.00000000E+00 0.00000000E+00 -.39625451E+04 0.39625451E+04 0.32000000E+00 0.0000E+00 0.9000E+01
       25  1    1    2    0    0 0.29528219E+02 0.60402883E+03 0.24621984E+00 0.61753365E+03 0.12500000E+03 0.0000E+00 0.9000E+01
        1  1    1    2  501    0 -.45658104E+02 -.62735408E+03 0.85996072E+03 0.10654531E+04 0.32000000E+00 0.0000E+00 0.9000E+01
        1  1    1    2  502    0 0.16129885E+02 0.23325244E+02 -.35510986E+04 0.35512118E+04 0.32000000E+00 0.0000E+00 0.9000E+01
#aMCatNLO 1  0  0  0  0 0.00000000D+00 0.00000000D+00  -5  6  0 0.00000000D+00 0.00000000D+00 0.00000000D+00 0.00000000D+00 0.00000000D+00
  <mgrwgt>
 -.2150226068D-02    1    2    0
 0.224476820924236D+04 0.000000000000000D+00 0.000000000000000D+00 0.224476820924236D+04
 0.224476820924236D+04 0.000000000000000D+00 0.000000000000000D+00 -.224476820924236D+04
 0.720136873055040D+03 0.295255651362580D+02 0.604005139492682D+03 0.370510658960441D+03
 0.175754778010809D+04 -.456564865549953D+02 -.627331859030614D+03 0.164114119540139D+04
 0.201185176532160D+04 0.161309214187372D+02 0.233267195379319D+02 -.201165185436183D+04
 0.000000000000000D+00 0.000000000000000D+00 -.000000000000000D+00 -.000000000000000D+00
 0.228326759172693D+04 0.000000000000000D+00 0.000000000000000D+00 0.228326759172693D+04
 0.338736246729986D+04 0.000000000000000D+00 0.000000000000000D+00 -.338736246729986D+04
 0.741800109503807D+03 -.254134317083330D+02 0.629855865691005D+03 0.370510658960441D+03
 0.174483492163410D+04 -.177274603132615D+03 -.565400915806230D+03 0.164114119540139D+04
 0.201841612659369D+04 -.135324905773785D+03 0.945920018467743D+02 -.201165185436183D+04
 0.116557890129520D+04 0.338012940614733D+03 -.159046951731549D+03 -.110409487557293D+04
-.157275283686D+00 0.000000000000D+00 0.000000000000D+00 0.276733018149D-03 0.000000000000D+00  6 1 1 25 1 1 21 2 0.19563900D+00 0.60962233D+00 0.40631848D+06 0.40631848D+06 0.40631848D+06 0.10749373D+01  1  2 14  2  6  2        1 -.215022606754D-02 0.100000000000D+01
  </mgrwgt>
  </event>
  <event>
  5     66 0.18982733E-05 0.97307669E+02 0.75467711E-02 0.90534104E-01
        1 -1    0    0  501    0 0.00000000E+00 0.00000000E+00 0.19283144E+04 0.19283145E+04 0.32000000E+00 0.0000E+00 0.9000E+01
        1 -1    0    0  502    0 0.00000000E+00 0.00000000E+00 -.84848250E+03 0.84848256E+03 0.32000000E+00 0.0000E+00 0.9000E+01
       25  1    1    2    0    0 -.27963849E+03 -.64179453E+03 -.16536660E+03 0.73011576E+03 0.12500000E+03 0.0000E+00 0.9000E+01
        1  1    1    2  501    0 0.18408416E+03 0.62343265E+03 0.15744442E+04 0.17033584E+04 0.32000000E+00 0.0000E+00 0.9000E+01
        1  1    1    2  502    0 0.95554331E+02 0.18361884E+02 -.32924565E+03 0.34332287E+03 0.32000000E+00 0.0000E+00 0.9000E+01
#aMCatNLO 1  0  0  0  0 0.00000000D+00 0.00000000D+00  -5  6  0 0.00000000D+00 0.00000000D+00 0.00000000D+00 0.00000000D+00 0.00000000D+00
  <mgrwgt>
 0.5055509991D-03    1    2    0
 0.127911734605437D+04 0.000000000000000D+00 0.000000000000000D+00 0.127911734605437D+04
 0.127911734605437D+04 -.000000000000000D+00 -.000000000000000D+00 -.127911734605437D+04
 0.862272642472424D+03 -.279642029033471D+03 -.641791883848611D+03 -.487639850074285D+03
 0.118430248292031D+04 0.184082845934729D+03 0.623428197001352D+03 0.989961191192582D+03
 0.511659566716002D+03 0.955591830987422D+02 0.183636868472589D+02 -.502321341118296D+03
 0.000000000000000D+00 0.000000000000000D+00 0.000000000000000D+00 -.000000000000000D+00
 0.127911734605437D+04 0.000000000000000D+00 0.000000000000000D+00 0.127911734605437D+04
 0.127911734605437D+04 -.000000000000000D+00 -.000000000000000D+00 -.127911734605437D+04
 0.873164648109698D+03 -.275387352247384D+03 -.640974259109655D+03 -.510005203982800D+03
 0.116068047431786D+04 0.189831912527958D+03 0.624532999859210D+03 0.959740350582158D+03
 0.955735880411134D+02 0.927172675055078D+02 0.977361290132934D+01 -.210308232891517D+02
 0.428815981640069D+03 -.716182778608152D+01 0.666764634911480D+01 -.428704323310206D+03
0.525677280775D-03 0.000000000000D+00 0.000000000000D+00 0.127524598435D-05 0.000000000000D+00  6 1 1 25 1 1 21 2 0.29666377D+00 0.13053578D+00 0.53179572D+06 0.53179572D+06 0.53179572D+06 0.10666232D+01  1  2 14  3  6  5        1 0.505550999074D-03 0.100000000000D+01
  </mgrwgt>
  </event>
  <event>
  5     66 -.18982733E-05 0.15200060E+03 0.75467711E-02 0.95214641E-01
        1 -1    0    0  501    0 0.00000000E+00 0.00000000E+00 0.83101287E+03 0.83101293E+03 0.32000000E+00 0.0000E+00 0.9000E+01
        1 -1    0    0  502    0 -.00000000E+00 -.00000000E+00 -.93938286E+03 0.93938291E+03 0.32000000E+00 0.0000E+00 0.9000E+01
       25  1    1    2    0    0 0.46170551E+03 -.52588697E+02 -.32884264E+03 0.58283791E+03 0.12500000E+03 0.0000E+00 0.9000E+01
        1  1    1    2  501    0 -.14538812E+03 0.44379749E+02 0.64241206E+03 0.66015198E+03 0.32000000E+00 0.0000E+00 0.9000E+01
        1  1    1    2  502    0 -.31631739E+03 0.82089476E+01 -.42193941E+03 0.52740596E+03 0.32000000E+00 0.0000E+00 0.9000E+01
#aMCatNLO 1  0  0  5  2 0.35445966D+02 0.00000000D+00  -5  6  0 0.00000000D+00 0.00000000D+00 0.00000000D+00 0.00000000D+00 0.00000000D+00
  <mgrwgt>
 -.6782326342D-02    8    2    0
 0.883537971568625D+03 0.000000000000000D+00 0.000000000000000D+00 0.883537971568625D+03
 0.883537971568625D+03 -.000000000000000D+00 -.000000000000000D+00 -.883537971568625D+03
 0.563766125314405D+03 0.461746752384908D+03 -.525893842759796D+02 -.293652068570070D+03
 0.700742746790870D+03 -.145378411326896D+03 0.443767845717950D+02 0.684058634687956D+03
 0.502567071031976D+03 -.316368341058012D+03 0.821259970418467D+01 -.390406566117886D+03
 0.000000000000000D+00 0.000000000000000D+00 0.000000000000000D+00 -.000000000000000D+00
 0.883537971568625D+03 0.000000000000000D+00 0.000000000000000D+00 0.883537971568625D+03
 0.883537971568625D+03 -.000000000000000D+00 -.000000000000000D+00 -.883537971568625D+03
 0.563583522534687D+03 0.460711583516476D+03 -.525625123471569D+02 -.294929493238813D+03
 0.699464580107811D+03 -.146664126931563D+03 0.444101604385434D+02 0.682472028984794D+03
 0.292635648493974D+03 -.207427887989484D+03 -.116864893836315D+02 -.206089106989179D+03
 0.211392192000778D+03 -.106619568595428D+03 0.198388412922451D+02 -.181453428756802D+03
0.795767036031D-04 0.000000000000D+00 0.000000000000D+00 0.141643620214D-05 0.000000000000D+00  6 1 1 25 1 1 21 0 0.12784814D+00 0.14452045D+00 0.22549422D+06 0.22549422D+06 0.22549422D+06 0.10938458D+01  1  2  2  3  6  5        1 0.357499235711D-03 0.100000000000D+01
0.103823045895D-04 0.000000000000D+00 -.305595494863D-06 0.141643620214D-05 0.000000000000D+00  6 1 1 25 1 1 21 2 0.12784814D+00 0.14452045D+00 0.22549422D+06 0.22549422D+06 0.22549422D+06 0.10938458D+01  1  2  3  3  6  5        1 0.558078348341D-04 0.100000000000D+01
-.565086308741D-04 0.000000000000D+00 0.000000000000D+00 0.141643620214D-05 0.000000000000D+00  6 1 1 25 1 1 21 2 0.12784814D+00 0.14452045D+00 0.22549422D+06 0.22549422D+06 0.22549422D+06 0.10938458D+01  1  2 15  3  6  5        1 -.303749934452D-03 0.100000000000D+01
0.810098801010D-03 0.000000000000D+00 0.000000000000D+00 0.141643620214D-05 0.000000000000D+00  6 1 1 25 1 1 21 2 0.12784814D+00 0.14452045D+00 0.22548247D+06 0.22548247D+06 0.22548247D+06 0.10938476D+01  1  2 12  3  6  5        1 0.435453613121D-02 0.100000000000D+01
0.314646105729D-08 0.000000000000D+00 0.000000000000D+00 0.141643620214D-05 0.000000000000D+00  6 1 1 25 1 1 21 2 0.12784814D+00 0.14452045D+00 0.22548247D+06 0.22548247D+06 0.22548247D+06 0.10938476D+01  1  2 12  3  6  5        1 0.169132189090D-07 0.100000000000D+01
-.250113799220D-02 0.000000000000D+00 0.000000000000D+00 0.141643620214D-05 0.000000000000D+00  6 1 1 25 1 1 21 2 0.12784814D+00 0.14452045D+00 0.22549422D+06 0.22549422D+06 0.22549422D+06 0.10938458D+01  1  2  4  3  6  5        1 -.134443268123D-01 0.100000000000D+01
-.822101369491D-03 0.000000000000D+00 0.000000000000D+00 0.141643620214D-05 0.000000000000D+00  6 1 1 25 1 1 21 2 0.12784814D+00 0.14452045D+00 0.22549422D+06 0.22549422D+06 0.22549422D+06 0.10938458D+01  1  2  5  3  6  5        1 -.441902826582D-02 0.100000000000D+01
0.123098959303D-02 0.000000000000D+00 -.000000000000D+00 0.141643620214D-05 0.000000000000D+00  6 1 1 25 1 1 21 2 0.12784814D+00 0.14452045D+00 0.22549422D+06 0.22549422D+06 0.22549422D+06 0.10938458D+01  1  2  6  3  6  5        1 0.661691855582D-02 0.100000000000D+01
  </mgrwgt>
  </event>
  <event>
  6     66 0.18982733E-05 0.15221585E+02 0.75467711E-02 0.94554200E-01
        1 -1    0    0  501    0 0.00000000E+00 0.00000000E+00 0.18268519E+04 0.18268520E+04 0.32000000E+00 0.0000E+00 0.9000E+01
        1 -1    0    0  502    0 0.00000000E+00 0.00000000E+00 -.67200103E+03 0.67200110E+03 0.32000000E+00 0.0000E+00 0.9000E+01
       25  1    1    2    0    0 0.51137252E+02 -.45486604E+03 0.39744151E+03 0.61895306E+03 0.12500000E+03 0.0000E+00 0.9000E+01
        1  1    1    2  501    0 -.91674364E+02 0.46628071E+03 0.12740603E+04 0.13597984E+04 0.32000000E+00 0.0000E+00 0.9000E+01
        1  1    1    2  503    0 0.14233217E+02 -.23699469E+02 -.16969491E+03 0.17193229E+03 0.32000000E+00 0.0000E+00 0.9000E+01
       21  1    1    2  502  503 0.26303895E+02 0.12284796E+02 -.34695603E+03 0.34816930E+03 0.75000000E+00 0.0000E+00 0.9000E+01
#aMCatNLO 2  0  0  5  1 0.19936377D+02 0.00000000D+00  -5  6  0 0.00000000D+00 0.00000000D+00 0.00000000D+00 0.00000000D+00 0.00000000D+00
  <mgrwgt>
 0.2620060922D-01    2    2    0
 0.110799210190979D+04 0.000000000000000D+00 0.000000000000000D+00 0.110799210190979D+04
 0.110799210190979D+04 -.000000000000000D+00 -.000000000000000D+00 -.110799210190979D+04
 0.490892148138569D+03 0.511223296941805D+02 -.454852123955929D+03 0.125881507154622D+03
 0.869735296489894D+03 -.916918519661909D+02 0.466275389158680D+03 0.728436237228967D+03
 0.855356759191120D+03 0.405695222720110D+02 -.114232652027514D+02 -.854317744383589D+03
 0.000000000000000D+00 0.000000000000000D+00 0.000000000000000D+00 -.000000000000000D+00
 0.110799210190979D+04 0.000000000000000D+00 0.000000000000000D+00 0.110799210190979D+04
 0.110799210190979D+04 -.000000000000000D+00 -.000000000000000D+00 -.110799210190979D+04
 0.490836546783925D+03 0.511333830734578D+02 -.454855236284490D+03 0.125648743801170D+03
 0.869384955578083D+03 -.916722710413851D+02 0.466269875707092D+03 0.728023899824528D+03
 0.282124239020309D+03 0.142236562292945D+02 -.236730852016682D+02 -.280769227094591D+03
 0.573638462437266D+03 0.263152317386335D+02 0.122584457790652D+02 -.572903416531106D+03
-.215851930867D-08 0.000000000000D+00 0.000000000000D+00 0.277942591058D-04 0.000000000000D+00  6 1 1 25 1 1 21 2 0.28105415D+00 0.10338478D+00 0.25317289D+06 0.25317289D+06 0.25317289D+06 0.10900473D+01  1  2 13  3  6  5        1 -.384622812277D-08 0.100000000000D+01
0.147038936299D-01 0.000000000000D+00 0.000000000000D+00 0.277942591058D-04 0.721127472933D-07  6 1 1 25 1 1 21 2 0.28105415D+00 0.10338478D+00 0.25317289D+06 0.25317289D+06 0.25317289D+06 0.10900473D+01  1  2  1  3  6  5        1 0.262006130622D-01 0.100000000000D+01
  </mgrwgt>
  </event>
  <event>
  5     66 0.18982733E-05 0.12090941E+03 0.75467711E-02 0.93908461E-01
        1 -1    0    0  501    0 0.00000000E+00 0.00000000E+00 0.37463265E+03 0.37463279E+03 0.32000000E+00 0.0000E+00 0.9000E+01
        1 -1    0    0  502    0 0.00000000E+00 0.00000000E+00 -.24024409E+04 0.24024409E+04 0.32000000E+00 0.0000E+00 0.9000E+01
       25  1    1    2    0    0 -.33524724E+03 -.34708461E+03 -.77787905E+03 0.92389353E+03 0.12500000E+03 0.0000E+00 0.9000E+01
        1  1    1    2  501    0 0.89242698E+02 0.81592595E+02 0.26729867E+03 0.29337739E+03 0.32000000E+00 0.0000E+00 0.9000E+01
        1  1    1    2  502    0 0.24600455E+03 0.26549201E+03 -.15172278E+04 0.15598028E+04 0.32000000E+00 0.0000E+00 0.9000E+01
#aMCatNLO 1  0  0  2  4 0.57600018D+02 0.00000000D+00  -5  6  0 0.00000000D+00 0.00000000D+00 0.00000000D+00 0.00000000D+00 0.00000000D+00
  <mgrwgt>
 0.1155687209D-02    9    2    0
 0.948700699312136D+03 0.000000000000000D+00 0.000000000000000D+00 0.948700699312136D+03
 0.948700699312136D+03 0.000000000000000D+00 0.000000000000000D+00 -.948700699312136D+03
 0.520906869658824D+03 -.335277678100802D+03 -.347117996876356D+03 -.151052777762065D+03
 0.715000930244275D+03 0.892349913220068D+02 0.815855489687300D+02 0.704703657414527D+03
 0.661493598721173D+03 0.246042686778795D+03 0.265532447907626D+03 -.553650879652462D+03
 0.000000000000000D+00 -.000000000000000D+00 -.000000000000000D+00 -.000000000000000D+00
 0.967017811385848D+03 0.000000000000000D+00 0.000000000000000D+00 0.967017811385848D+03
 0.995526860775348D+03 0.000000000000000D+00 0.000000000000000D+00 -.995526860775348D+03
 0.506642400561171D+03 -.322973140238188D+03 -.337539525183990D+03 -.151052777762065D+03
 0.718989298814460D+03 0.106406515432275D+03 0.949527277641835D+02 0.704703657414527D+03
 0.672643788954389D+03 0.262018508548459D+03 0.277968831808557D+03 -.553650879652462D+03
 0.642691838311760D+02 -.454518837425454D+02 -.353820343887504D+02 -.285090493894993D+02
0.204361669576D-03 0.000000000000D+00 0.000000000000D+00 0.403736779810D-05 0.000000000000D+00  6 1 1 25 1 1 21 0 0.57635805D-01 0.36960630D+00 0.24080363D+06 0.24080363D+06 0.24080363D+06 0.10916857D+01  1  2  2  2  6  2        1 0.288077890274D-03 0.100000000000D+01
0.380508785329D-04 0.000000000000D+00 -.784802620835D-06 0.403736779810D-05 0.000000000000D+00  6 1 1 25 1 1 21 2 0.57635805D-01 0.36960630D+00 0.24080363D+06 0.24080363D+06 0.24080363D+06 0.10916857D+01  1  2  3  2  6  2        1 0.639249570810D-04 0.100000000000D+01
-.140748009626D-03 0.000000000000D+00 0.000000000000D+00 0.403736779810D-05 0.000000000000D+00  6 1 1 25 1 1 21 2 0.57635805D-01 0.36960630D+00 0.24080363D+06 0.24080363D+06 0.24080363D+06 0.10916857D+01  1  2 15  2  6  2        1 -.236454736959D-03 0.100000000000D+01
0.764452356590D-09 0.000000000000D+00 0.000000000000D+00 0.403736779810D-05 0.000000000000D+00  6 1 1 25 1 1 21 2 0.57635805D-01 0.39249543D+00 0.28398697D+06 0.28398697D+06 0.28398697D+06 0.10863188D+01  1  2 12  2  6  2        1 0.992490118940D-09 0.100000000000D+01
-.559941549623D-04 0.000000000000D+00 0.000000000000D+00 0.403736779810D-05 0.000000000000D+00  6 1 1 25 1 1 21 2 0.57635805D-01 0.36960630D+00 0.24080363D+06 0.24080363D+06 0.24080363D+06 0.10916857D+01  1  2  4  2  6  2        1 -.940694168112D-04 0.100000000000D+01
-.336324272876D-02 0.000000000000D+00 -.607077645920D-03 0.403736779810D-05 0.000000000000D+00  6 1 1 25 1 1 21 2 0.57635805D-01 0.39058476D+00 0.24080363D+06 0.24080363D+06 0.24080363D+06 0.10916857D+01  1  2  5  2  6  2        1 -.455100785329D-02 0.100000000000D+01
0.339251025887D-02 0.000000000000D+00 0.606153703082D-03 0.403736779810D-05 0.000000000000D+00  6 1 1 25 1 1 21 2 0.57635805D-01 0.36960630D+00 0.24080363D+06 0.24080363D+06 0.24080363D+06 0.10916857D+01  1  2  6  2  6  2        1 0.569937097529D-02 0.100000000000D+01
0.101566626244D-10 0.000000000000D+00 0.000000000000D+00 0.403736779810D-05 0.000000000000D+00  6 1 21 25 1 1 -1 2 0.57635805D-01 0.39249543D+00 0.28398697D+06 0.28398697D+06 0.28398697D+06 0.10863188D+01  1  2 12  5  6  2        1 0.430411947085D-11 0.100000000000D+01
-.314584128567D-04 0.000000000000D+00 -.579512999526D-05 0.403736779810D-05 0.000000000000D+00  6 1 21 25 1 1 -1 2 0.57635805D-01 0.39058476D+00 0.24080363D+06 0.24080363D+06 0.24080363D+06 0.10916857D+01  1  2  5  5  6  2        1 -.141556031682D-04 0.100000000000D+01
  </mgrwgt>
  </event>
  <event>
  5     66 0.18982733E-05 0.19440645E+02 0.75467711E-02 0.90891699E-01
        1 -1    0    0  501    0 0.00000000E+00 0.00000000E+00 0.21512923E+04 0.21512923E+04 0.32000000E+00 0.0000E+00 0.9000E+01
        1 -1    0    0  502    0 0.00000000E+00 0.00000000E+00 -.57709535E+03 0.57709544E+03 0.32000000E+00 0.0000E+00 0.9000E+01
       25  1    1    2    0    0 -.22927856E+03 -.39394907E+03 0.39308663E+03 0.61474110E+03 0.12500000E+03 0.0000E+00 0.9000E+01
        1  1    1    2  501    0 0.23049571E+03 0.41334956E+03 0.16131641E+04 0.16811557E+04 0.32000000E+00 0.0000E+00 0.9000E+01
        1  1    1    2  502    0 -.12171596E+01 -.19400493E+02 -.43205375E+03 0.43249093E+03 0.32000000E+00 0.0000E+00 0.9000E+01
#aMCatNLO 1  0  0  2  4 0.39548744D+02 0.00000000D+00  -5  6  0 0.00000000D+00 0.00000000D+00 0.00000000D+00 0.00000000D+00 0.00000000D+00
  <mgrwgt>
 0.6784507160D-01    4    2    0
 0.111422660595579D+04 0.000000000000000D+00 0.000000000000000D+00 0.111422660595579D+04
 0.111422660595579D+04 0.000000000000000D+00 0.000000000000000D+00 -.111422660595579D+04
 0.474960590980341D+03 -.229268327978907D+03 -.393928878004282D+03 0.471023974383278D+02
 0.918716413667935D+03 0.230485575899101D+03 0.413331377834405D+03 0.787447407858356D+03
 0.834776207263295D+03 -.121724792019376D+01 -.194024998301225D+02 -.834549805296684D+03
 0.000000000000000D+00 0.000000000000000D+00 -.000000000000000D+00 0.000000000000000D+00
 0.164994972949564D+04 0.000000000000000D+00 0.000000000000000D+00 0.164994972949564D+04
 0.117632040703060D+04 0.000000000000000D+00 0.000000000000000D+00 -.117632040703060D+04
 0.482365079729427D+03 -.290456992631645D+03 -.361202394412494D+03 0.471023974383278D+02
 0.927210957335701D+03 0.112500824906359D+03 0.476434994155478D+03 0.787447407858356D+03
 0.842417093861508D+03 -.108417150315224D+03 0.379328884592391D+02 -.834549805296684D+03
 0.574277005599605D+03 0.286373318040511D+03 -.153165488202223D+03 0.473629322465039D+03
0.617938495719D-01 0.000000000000D+00 0.000000000000D+00 0.484233375906D-04 0.000000000000D+00  6 1 1 25 1 1 21 0 0.33096805D+00 0.88783908D-01 0.23295623D+06 0.23295623D+06 0.23295623D+06 0.10927736D+01  1  2  2  2  6  2        1 0.709541237188D-01 0.100000000000D+01
0.516426895237D-01 0.000000000000D+00 -.237304653051D-03 0.484233375906D-04 0.000000000000D+00  6 1 1 25 1 1 21 2 0.33096805D+00 0.88783908D-01 0.23295623D+06 0.23295623D+06 0.23295623D+06 0.10927736D+01  1  2  3  2  6  2        1 0.708111474739D-01 0.100000000000D+01
-.524708061430D-01 0.000000000000D+00 0.000000000000D+00 0.484233375906D-04 0.000000000000D+00  6 1 1 25 1 1 21 2 0.33096805D+00 0.88783908D-01 0.23295623D+06 0.23295623D+06 0.23295623D+06 0.10927736D+01  1  2 15  2  6  2        1 -.719466400014D-01 0.100000000000D+01
-.143932034777D-02 0.000000000000D+00 0.000000000000D+00 0.484233375906D-04 0.000000000000D+00  6 1 1 25 1 1 21 2 0.33096805D+00 0.88783908D-01 0.23295623D+06 0.23295623D+06 0.23295623D+06 0.10927736D+01  1  2  4  2  6  2        1 -.197355959475D-02 0.100000000000D+01
  </mgrwgt>
  </event>
  <event>
  5     66 0.18982733E-05 0.11506594E+03 0.75467711E-02 0.94815052E-01
        1 -1    0    0  501    0 0.00000000E+00 0.00000000E+00 0.55762760E+03 0.55762769E+03 0.32000000E+00 0.0000E+00 0.9000E+01
        1 -1    0    0  502    0 0.00000000E+00 0.00000000E+00 -.86645244E+03 0.86645249E+03 0.32000000E+00 0.0000E+00 0.9000E+01
       25  1    1    2    0    0 0.35879853E+03 0.30768082E+03 0.11491776E+03 0.50222999E+03 0.12500000E+03 0.0000E+00 0.9000E+01
        1  1    1    2  501    0 -.11309368E+03 -.21671114E+02 0.17784173E+03 0.21186694E+03 0.32000000E+00 0.0000E+00 0.9000E+01
        1  1    1    2  502    0 -.24570485E+03 -.28600971E+03 -.60158432E+03 0.70998325E+03 0.32000000E+00 0.0000E+00 0.9000E+01
#aMCatNLO 1  0  0  2  2 0.22703986D+01 0.00000000D+00  -5  6  0 0.00000000D+00 0.00000000D+00 0.00000000D+00 0.00000000D+00 0.00000000D+00
  <mgrwgt>
 0.1353617138D-02    9    2    0
 0.695095604839623D+03 0.000000000000000D+00 0.000000000000000D+00 0.695095604839623D+03
 0.695095604839623D+03 0.000000000000000D+00 0.000000000000000D+00 -.695095604839623D+03
 0.540106827287917D+03 0.358785618508523D+03 0.307731540816301D+03 0.229487611040992D+03
 0.256348094181567D+03 -.113009866613410D+03 -.216550533945683D+02 0.229072421083419D+03
 0.593736288209762D+03 -.245775751895113D+03 -.286076487421733D+03 -.458560032124411D+03
 0.000000000000000D+00 -.000000000000000D+00 0.000000000000000D+00 -.000000000000000D+00
 0.696049885050691D+03 0.000000000000000D+00 0.000000000000000D+00 0.696049885050691D+03
 0.696448263184680D+03 0.000000000000000D+00 0.000000000000000D+00 -.696448263184680D+03
 0.539928361717367D+03 0.359188720155089D+03 0.306947121633104D+03 0.229487611040992D+03
 0.256295534357402D+03 -.112818532578307D+03 -.220273815376355D+02 0.229072421083419D+03
 0.593969167560394D+03 -.245332464463620D+03 -.286939106485424D+03 -.458560032124411D+03
 0.230508460020756D+01 -.103772311316242D+01 0.201936638995538D+01 -.398378133989723D+00
0.315663693289D-04 0.000000000000D+00 0.000000000000D+00 0.254961781566D-06 0.000000000000D+00  6 1 1 25 1 1 21 0 0.85788873D-01 0.13330039D+00 0.24066316D+06 0.24066316D+06 0.24066316D+06 0.10917049D+01  1  2  2  2  6  2        1 0.295846025337D-03 0.100000000000D+01
0.313871068915D-05 0.000000000000D+00 -.121223169839D-06 0.254961781566D-06 0.000000000000D+00  6 1 1 25 1 1 21 2 0.85788873D-01 0.13330039D+00 0.24066316D+06 0.24066316D+06 0.24066316D+06 0.10917049D+01  1  2  3  2  6  2        1 0.350592712264D-04 0.100000000000D+01
-.196024648458D-04 0.000000000000D+00 0.000000000000D+00 0.254961781566D-06 0.000000000000D+00  6 1 1 25 1 1 21 2 0.85788873D-01 0.13330039D+00 0.24066316D+06 0.24066316D+06 0.24066316D+06 0.10917049D+01  1  2 15  2  6  2        1 -.218958738093D-03 0.100000000000D+01
-.141161546830D-03 0.000000000000D+00 0.000000000000D+00 0.254961781566D-06 0.000000000000D+00  6 1 1 25 1 1 21 2 0.85788873D-01 0.13330039D+00 0.24066316D+06 0.24066316D+06 0.24066316D+06 0.10917049D+01  1  2  4  2  6  2        1 -.157676875864D-02 0.100000000000D+01
-.269611761162D-01 0.000000000000D+00 -.235001547477D-02 0.254961781566D-06 0.000000000000D+00  6 1 1 25 1 1 21 2 0.85788873D-01 0.13369372D+00 0.24066316D+06 0.24066316D+06 0.24066316D+06 0.10917049D+01  1  2  5  2  6  2        1 -.299699450766D+00 0.100000000000D+01
0.269679933750D-01 0.000000000000D+00 0.235000527415D-02 0.254961781566D-06 0.000000000000D+00  6 1 1 25 1 1 21 2 0.85788873D-01 0.13330039D+00 0.24066316D+06 0.24066316D+06 0.24066316D+06 0.10917049D+01  1  2  6  2  6  2        1 0.301231393334D+00 0.100000000000D+01
0.136627962580D-03 0.000000000000D+00 0.000000000000D+00 0.254961781566D-06 0.500705647421D-07  6 1 1 25 1 1 21 2 0.85906651D-01 0.13355979D+00 0.24180392D+06 0.24180392D+06 0.24180392D+06 0.10915499D+01  1  2 11  2  6  2        1 0.151755932858D-02 0.100000000000D+01
-.148215343536D-04 0.000000000000D+00 -.129255294994D-05 0.254961781566D-06 0.000000000000D+00  6 1 21 25 1 1 -1 2 0.85788873D-01 0.13369372D+00 0.24066316D+06 0.24066316D+06 0.24066316D+06 0.10917049D+01  1  2  5  5  6  2        1 -.261931503299D-03 0.100000000000D+01
0.174632931203D-05 0.000000000000D+00 0.000000000000D+00 0.254961781566D-06 0.113836834342D-09  6 1 21 25 1 1 -1 2 0.85906651D-01 0.13355979D+00 0.24180392D+06 0.24180392D+06 0.24180392D+06 0.10915499D+01  1  2 11  5  6  2        1 0.308689441457D-04 0.100000000000D+01
  </mgrwgt>
  </event>
  <event>
  5     66 -.18982733E-05 0.15139981E+03 0.75467711E-02 0.91013909E-01
        1 -1    0    0  501    0 0.00000000E+00 0.00000000E+00 0.55375122E+03 0.55375131E+03 0.32000000E+00 0.0000E+00 0.9000E+01
        1 -1    0    0  502    0 -.00000000E+00 -.00000000E+00 -.10162101E+04 0.10162102E+04 0.32000000E+00 0.0000E+00 0.9000E+01
       25  1    1    2    0    0 -.61202591E+03 0.20148055E+03 -.33987209E+03 0.73912663E+03 0.12500000E+03 0.0000E+00 0.9000E+01
        1  1    1    2  501    0 0.59492877E+03 -.51067361E+02 0.52450977E+02 0.59941582E+03 0.32000000E+00 0.0000E+00 0.9000E+01
        1  1    1    2  502    0 0.17097142E+02 -.15041319E+03 -.17503777E+03 0.23141902E+03 0.32000000E+00 0.0000E+00 0.9000E+01
#aMCatNLO 1  0  0  5  2 0.47295211D+02 0.00000000D+00  -5  6  0 0.00000000D+00 0.00000000D+00 0.00000000D+00 0.00000000D+00 0.00000000D+00
  <mgrwgt>
 -.9209447847D-04    8    2    0
 0.750151782146737D+03 0.000000000000000D+00 0.000000000000000D+00 0.750151782146737D+03
 0.750151782146737D+03 -.000000000000000D+00 -.000000000000000D+00 -.750151782146737D+03
 0.668671772523013D+03 -.612018403082478D+03 0.201495773742773D+03 -.127788367315818D+03
 0.643393300415014D+03 0.594909801249915D+03 -.510657323663255D+02 0.239644650208599D+03
 0.188238491355447D+03 0.171086018325628D+02 -.150430041376447D+03 -.111856282892782D+03
 0.000000000000000D+00 0.000000000000000D+00 0.000000000000000D+00 -.000000000000000D+00
 0.750151782146737D+03 0.000000000000000D+00 0.000000000000000D+00 0.750151782146737D+03
 0.750151782146737D+03 -.000000000000000D+00 -.000000000000000D+00 -.750151782146737D+03
 0.666351496773000D+03 -.610975498698014D+03 0.192325874808779D+03 -.134606891061963D+03
 0.642671362603326D+03 0.595914459750342D+03 -.598993484190834D+02 0.233076178597993D+03
 0.107311847210262D+03 0.316663554402689D+02 -.999586687905741D+02 -.228328495467693D+02
 0.839688577068865D+02 -.166053164925962D+02 -.324678575991217D+02 -.756364379892603D+02
0.162963662232D-04 0.000000000000D+00 0.000000000000D+00 0.269474063297D-08 0.000000000000D+00  6 1 1 25 1 1 21 0 0.85192506D-01 0.15634003D+00 0.49339722D+06 0.49339722D+06 0.49339722D+06 0.10689187D+01  1  2  2  3  6  5        1 0.113913792107D-03 0.100000000000D+01
0.112188092058D-05 0.000000000000D+00 -.625823372287D-07 0.269474063297D-08 0.000000000000D+00  6 1 1 25 1 1 21 2 0.85192506D-01 0.15634003D+00 0.49339722D+06 0.49339722D+06 0.49339722D+06 0.10689187D+01  1  2  3  3  6  5        1 0.896028067210D-05 0.100000000000D+01
-.112401957346D-04 0.000000000000D+00 0.000000000000D+00 0.269474063297D-08 0.000000000000D+00  6 1 1 25 1 1 21 2 0.85192506D-01 0.15634003D+00 0.49339722D+06 0.49339722D+06 0.49339722D+06 0.10689187D+01  1  2 15  3  6  5        1 -.897736174522D-04 0.100000000000D+01
0.139773725630D-04 0.000000000000D+00 0.000000000000D+00 0.269474063297D-08 0.000000000000D+00  6 1 1 25 1 1 21 2 0.85192506D-01 0.15634003D+00 0.48501053D+06 0.48501053D+06 0.48501053D+06 0.10694459D+01  1  2 12  3  6  5        1 0.111827430056D-03 0.100000000000D+01
0.218988230753D-06 0.000000000000D+00 0.000000000000D+00 0.269474063297D-08 0.000000000000D+00  6 1 1 25 1 1 21 2 0.85192506D-01 0.15634003D+00 0.48501053D+06 0.48501053D+06 0.48501053D+06 0.10694459D+01  1  2 12  3  6  5        1 0.175203822802D-05 0.100000000000D+01
-.427050849129D-04 0.000000000000D+00 0.000000000000D+00 0.269474063297D-08 0.000000000000D+00  6 1 1 25 1 1 21 2 0.85192506D-01 0.15634003D+00 0.49339722D+06 0.49339722D+06 0.49339722D+06 0.10689187D+01  1  2  4  3  6  5        1 -.341078576099D-03 0.100000000000D+01
-.127953287986D-04 0.000000000000D+00 0.000000000000D+00 0.269474063297D-08 0.000000000000D+00  6 1 1 25 1 1 21 2 0.85192506D-01 0.15634003D+00 0.49339722D+06 0.49339722D+06 0.49339722D+06 0.10689187D+01  1  2  5  3  6  5        1 -.102194212615D-03 0.100000000000D+01
0.256044254254D-04 0.000000000000D+00 -.000000000000D+00 0.269474063297D-08 0.000000000000D+00  6 1 1 25 1 1 21 2 0.85192506D-01 0.15634003D+00 0.49339722D+06 0.49339722D+06 0.49339722D+06 0.10689187D+01  1  2  6  3  6  5        1 0.204498386638D-03 0.100000000000D+01
  </mgrwgt>
  </event>
  <event>
  5     66 0.18982733E-05 0.63706366E+02 0.75467711E-02 0.89816893E-01
        1 -1    0    0  501    0 0.00000000E+00 0.00000000E+00 0.13714048E+04 0.13714049E+04 0.32000000E+00 0.0000E+00 0.9000E+01
        1 -1    0    0  502    0 0.00000000E+00 0.00000000E+00 -.69505603E+03 0.69505611E+03 0.32000000E+00 0.0000E+00 0.9000E+01
       25  1    1    2    0    0 -.28262050E+03 -.64541629E+03 0.75941609E+03 0.10434435E+04 0.12500000E+03 0.0000E+00 0.9000E+01
        1  1    1    2  501    0 -.20913348E+02 0.60260708E+02 0.26847032E+03 0.27594408E+03 0.32000000E+00 0.0000E+00 0.9000E+01
        1  1    1    2  502    0 0.30353384E+03 0.58515559E+03 -.35153762E+03 0.74707339E+03 0.32000000E+00 0.0000E+00 0.9000E+01
#aMCatNLO 1  0  0  1  4 0.10921718D+03 0.00000000D+00  -5  6  0 0.00000000D+00 0.00000000D+00 0.00000000D+00 0.00000000D+00 0.00000000D+00
  <mgrwgt>
 0.7836616341D-03    7    2    0
 0.976321316305465D+03 0.000000000000000D+00 0.000000000000000D+00 0.976321316305465D+03
 0.976321316305465D+03 0.000000000000000D+00 0.000000000000000D+00 -.976321316305465D+03
 0.841392172394343D+03 -.282690839340380D+03 -.645451163044093D+03 0.442486692731579D+03
 0.198786592352335D+03 -.208870656900911D+02 0.601849775362406D+02 0.188301907225799D+03
 0.912463867864252D+03 0.303577905030471D+03 0.585266185507852D+03 -.630788599957378D+03
 0.000000000000000D+00 -.000000000000000D+00 -.000000000000000D+00 0.000000000000000D+00
 0.154853555487682D+04 0.000000000000000D+00 0.000000000000000D+00 0.154853555487682D+04
 0.983440450442931D+03 0.000000000000000D+00 0.000000000000000D+00 -.983440450442931D+03
 0.806791940189430D+03 -.246003462357287D+03 -.615610313443757D+03 0.442486692731579D+03
 0.200364675368110D+03 -.120022494123859D+02 0.674117265728861D+02 0.188301907225799D+03
 0.948703796298689D+03 0.345006140627796D+03 0.618963163851024D+03 -.630788599957378D+03
 0.576115593463523D+03 -.870004288581227D+02 -.707645769801529D+02 0.565095104433891D+03
0.228508525326D-04 0.000000000000D+00 0.000000000000D+00 0.193992549934D-06 0.000000000000D+00  6 1 1 25 1 1 21 0 0.21098537D+00 0.10693171D+00 0.51743938D+06 0.51743938D+06 0.51743938D+06 0.10674597D+01  1  2  2  1  6  1        1 0.630598337238D-04 0.100000000000D+01
0.497025002712D-05 0.000000000000D+00 -.877532904929D-07 0.193992549934D-06 0.000000000000D+00  6 1 1 25 1 1 21 2 0.21098537D+00 0.10693171D+00 0.51743938D+06 0.51743938D+06 0.51743938D+06 0.10674597D+01  1  2  3  1  6  1        1 0.156290149795D-04 0.100000000000D+01
-.119487938772D-04 0.000000000000D+00 0.000000000000D+00 0.193992549934D-06 0.000000000000D+00  6 1 1 25 1 1 21 2 0.21098537D+00 0.10693171D+00 0.51743938D+06 0.51743938D+06 0.51743938D+06 0.10674597D+01  1  2 15  1  6  1        1 -.375731356522D-04 0.100000000000D+01
-.882436465749D-04 0.000000000000D+00 0.000000000000D+00 0.193992549934D-06 0.000000000000D+00  6 1 1 25 1 1 21 2 0.21098537D+00 0.10693171D+00 0.51743938D+06 0.51743938D+06 0.51743938D+06 0.10674597D+01  1  2  4  1  6  1        1 -.277483278837D-03 0.100000000000D+01
-.519137410654D-03 0.000000000000D+00 -.154961247942D-04 0.193992549934D-06 0.000000000000D+00  6 1 1 25 1 1 21 2 0.33528543D+00 0.10693171D+00 0.51743938D+06 0.51743938D+06 0.51743938D+06 0.10674597D+01  1  2  5  1  6  1        1 -.466055696901D-03 0.100000000000D+01
0.475872708688D-03 0.000000000000D+00 0.139704685513D-04 0.193992549934D-06 0.000000000000D+00  6 1 1 25 1 1 21 2 0.21098537D+00 0.10693171D+00 0.51743938D+06 0.51743938D+06 0.51743938D+06 0.10674597D+01  1  2  6  1  6  1        1 0.149638783801D-02 0.100000000000D+01
-.269389194460D-04 0.000000000000D+00 -.823193900677D-06 0.193992549934D-06 0.000000000000D+00  6 21 1 25 1 1 -1 2 0.33528543D+00 0.10693171D+00 0.51743938D+06 0.51743938D+06 0.51743938D+06 0.10674597D+01  1  2  5  4  6  1        1 -.103029411954D-04 0.100000000000D+01
  </mgrwgt>
  </event>
  <event>
  6     66 0.18982733E-05 0.30897931E+02 0.75467711E-02 0.94915039E-01
        1 -1    0    0  501    0 0.00000000E+00 0.00000000E+00 0.68057525E+03 0.68057533E+03 0.32000000E+00 0.0000E+00 0.9000E+01
        1 -1    0    0  502    0 -.00000000E+00 -.00000000E+00 -.68604611E+03 0.68604619E+03 0.32000000E+00 0.0000E+00 0.9000E+01
       25  1    1    2    0    0 0.22196625E+03 -.42360322E+03 -.74778447E+02 0.49992551E+03 0.12500000E+03 0.0000E+00 0.9000E+01
        1  1    1    2  501    0 -.15656058E+01 0.18888952E+02 0.33159487E+03 0.33213627E+03 0.32000000E+00 0.0000E+00 0.9000E+01
        1  1    1    2  503    0 -.17201177E+03 0.29343663E+03 -.16016345E+03 0.37595949E+03 0.32000000E+00 0.0000E+00 0.9000E+01
       21  1    1    2  502  503 -.48388877E+02 0.11127763E+03 -.10212383E+03 0.15860024E+03 0.75000000E+00 0.0000E+00 0.9000E+01
#aMCatNLO 2  0  0  5  2 0.54172387D+02 0.00000000D+00  -5  6  0 0.00000000D+00 0.00000000D+00 0.00000000D+00 0.00000000D+00 0.00000000D+00
  <mgrwgt>
 0.6791648285D-02    1    2    0
 0.683305283044240D+03 0.000000000000000D+00 0.000000000000000D+00 0.683305283044240D+03
 0.683305283044240D+03 -.000000000000000D+00 -.000000000000000D+00 -.683305283044240D+03
 0.500899025829663D+03 0.222662917547188D+03 -.424880162393554D+03 -.719229228473584D+02
 0.333824223451994D+03 -.112544631253598D+01 0.180752455106648D+02 0.333332613216369D+03
 0.531887316806822D+03 -.221537471234652D+03 0.406804916882890D+03 -.261409690369011D+03
 0.000000000000000D+00 0.000000000000000D+00 0.000000000000000D+00 -.000000000000000D+00
 0.683305283044240D+03 0.000000000000000D+00 0.000000000000000D+00 0.683305283044240D+03
 0.683305283044240D+03 -.000000000000000D+00 -.000000000000000D+00 -.683305283044240D+03
 0.499690791747696D+03 0.222003078913850D+03 -.423668513642239D+03 -.727015189551546D+02
 0.333352399135549D+03 -.156541572168798D+01 0.188831527144602D+02 0.332813458301504D+03
 0.375175880780119D+03 -.171973218766011D+03 0.293349208270836D+03 -.158519385417902D+03
 0.158391494425115D+03 -.484644444261509D+02 0.111436152656942D+03 -.101592553928448D+03
0.563228239180D-03 0.000000000000D+00 0.000000000000D+00 0.200260507979D-05 0.959397346185D-08  6 1 1 25 1 1 21 2 0.10470390D+00 0.10554557D+00 0.23759894D+06 0.23759894D+06 0.23759894D+06 0.10921252D+01  1  2  1  3  6  5        1 0.679164828541D-02 0.100000000000D+01
  </mgrwgt>
  </event>
  <event>
  5     66 0.18982733E-05 0.16902045E+03 0.75467711E-02 0.93809394E-01
        1 -1    0    0  501    0 0.00000000E+00 0.00000000E+00 0.34756762E+03 0.34756776E+03 0.32000000E+00 0.0000E+00 0.9000E+01
        1 -1    0    0  502    0 0.00000000E+00 0.00000000E+00 -.23684761E+04 0.23684761E+04 0.32000000E+00 0.0000E+00 0.9000E+01
       25  1    1    2    0    0 -.40367484E+03 -.32316992E+03 -.61367042E+03 0.81216289E+03 0.12500000E+03 0.0000E+00 0.9000E+01
        1  1    1    2  501    0 0.26076597E+03 0.17950864E+03 0.13804562E+03 0.34536784E+03 0.32000000E+00 0.0000E+00 0.9000E+01
        1  1    1    2  502    0 0.14290886E+03 0.14366128E+03 -.15452836E+04 0.15585131E+04 0.32000000E+00 0.0000E+00 0.9000E+01
#aMCatNLO 1  0  0  1  4 0.18809176D+02 0.00000000D+00  -5  6  0 0.00000000D+00 0.00000000D+00 0.00000000D+00 0.00000000D+00 0.00000000D+00
  <mgrwgt>
 0.4539799695D-03   11    2    0
 0.907306898775447D+03 0.000000000000000D+00 0.000000000000000D+00 0.907306898775447D+03
 0.907306898775447D+03 0.000000000000000D+00 0.000000000000000D+00 -.907306898775447D+03
 0.532178090464640D+03 -.403673785047003D+03 -.323175750344973D+03 -.139078979497482D+02
 0.670606610953077D+03 0.260740349070147D+03 0.179490999738758D+03 0.591194281123837D+03
 0.611829096133178D+03 0.142933435976856D+03 0.143684750606215D+03 -.577286383174089D+03
 0.000000000000000D+00 -.000000000000000D+00 -.000000000000000D+00 0.000000000000000D+00
 0.138080610664437D+04 0.000000000000000D+00 0.000000000000000D+00 0.138080610664437D+04
 0.907542450670616D+03 0.000000000000000D+00 0.000000000000000D+00 -.907542450670616D+03
 0.528808824419139D+03 -.403610398392666D+03 -.317677492856332D+03 -.139078979497482D+02
 0.672534161352219D+03 0.260820592472460D+03 0.186451437898766D+03 0.591194281123837D+03
 0.613368291366217D+03 0.143006633074960D+03 0.150033981323748D+03 -.577286383174089D+03
 0.473637280177407D+03 -.216827154754443D+00 -.188079263661826D+02 0.473263655973751D+03
0.360165386624D-05 0.000000000000D+00 0.000000000000D+00 0.934729978474D-06 0.000000000000D+00  6 1 1 25 1 1 21 0 0.53471954D-01 0.36438095D+00 0.27626301D+06 0.27626301D+06 0.27626301D+06 0.10872104D+01  1  2  2  1  6  1        1 0.586961234296D-05 0.100000000000D+01
0.366179007007D-06 0.000000000000D+00 -.138312991836D-07 0.934729978474D-06 0.000000000000D+00  6 1 1 25 1 1 21 2 0.53471954D-01 0.36438095D+00 0.27626301D+06 0.27626301D+06 0.27626301D+06 0.10872104D+01  1  2  3  1  6  1        1 0.705387996021D-06 0.100000000000D+01
-.228852964339D-05 0.000000000000D+00 0.000000000000D+00 0.934729978474D-06 0.000000000000D+00  6 1 1 25 1 1 21 2 0.53471954D-01 0.36438095D+00 0.27626301D+06 0.27626301D+06 0.27626301D+06 0.10872104D+01  1  2 15  1  6  1        1 -.440850324049D-05 0.100000000000D+01
0.257264293711D-02 0.000000000000D+00 0.000000000000D+00 0.934729978474D-06 0.000000000000D+00  6 1 1 25 1 1 21 2 0.81564152D-01 0.36438095D+00 0.28907657D+06 0.28907657D+06 0.28907657D+06 0.10857456D+01  1  2 12  1  6  1        1 0.276042977997D-02 0.100000000000D+01
0.114964169491D-07 0.000000000000D+00 0.000000000000D+00 0.934729978474D-06 0.000000000000D+00  6 1 1 25 1 1 21 2 0.81385948D-01 0.36438095D+00 0.28907657D+06 0.28907657D+06 0.28907657D+06 0.10857456D+01  1  2 12  1  6  1        1 0.123738715596D-07 0.100000000000D+01
-.211882941777D-02 0.000000000000D+00 0.000000000000D+00 0.934729978474D-06 0.000000000000D+00  6 1 1 25 1 1 21 2 0.53471954D-01 0.36438095D+00 0.27626301D+06 0.27626301D+06 0.27626301D+06 0.10872104D+01  1  2  4  1  6  1        1 -.408160164376D-02 0.100000000000D+01
-.259204876228D-02 0.000000000000D+00 -.311089497111D-05 0.934729978474D-06 0.000000000000D+00  6 1 1 25 1 1 21 2 0.81385265D-01 0.36438095D+00 0.27626301D+06 0.27626301D+06 0.27626301D+06 0.10872104D+01  1  2  5  1  6  1        1 -.280678605136D-02 0.100000000000D+01
0.238050762532D-02 0.000000000000D+00 0.285528902820D-05 0.934729978474D-06 0.000000000000D+00  6 1 1 25 1 1 21 2 0.53471954D-01 0.36438095D+00 0.27626301D+06 0.27626301D+06 0.27626301D+06 0.10872104D+01  1  2  6  1  6  1        1 0.458568479132D-02 0.100000000000D+01
0.127447738036D-03 0.000000000000D+00 0.000000000000D+00 0.934729978474D-06 0.000000000000D+00  6 21 1 25 1 1 -1 2 0.81564152D-01 0.36438095D+00 0.28907657D+06 0.28907657D+06 0.28907657D+06 0.10857456D+01  1  2 12  4  6  1        1 0.374668918051D-03 0.100000000000D+01
0.567334848533D-09 0.000000000000D+00 0.000000000000D+00 0.934729978474D-06 0.000000000000D+00  6 21 1 25 1 1 -1 2 0.81385948D-01 0.36438095D+00 0.28907657D+06 0.28907657D+06 0.28907657D+06 0.10857456D+01  1  2 12  4  6  1        1 0.167676481792D-08 0.100000000000D+01
-.127799362691D-03 0.000000000000D+00 -.153516782102D-06 0.934729978474D-06 0.000000000000D+00  6 21 1 25 1 1 -1 2 0.81385265D-01 0.36438095D+00 0.27626301D+06 0.27626301D+06 0.27626301D+06 0.10872104D+01  1  2  5  4  6  1        1 -.380596372474D-03 0.100000000000D+01
  </mgrwgt>
  </event>
  <event>
  5     66 0.18982733E-05 0.77607097E+02 0.75467711E-02 0.94247317E-01
        1 -1    0    0  501    0 0.00000000E+00 0.00000000E+00 0.38469665E+04 0.38469665E+04 0.32000000E+00 0.0000E+00 0.9000E+01
        1 -1    0    0  502    0 0.00000000E+00 0.00000000E+00 -.34818119E+03 0.34818134E+03 0.32000000E+00 0.0000E+00 0.9000E+01
       25  1    1    2    0    0 -.38400341E+03 0.24278863E+03 0.89123298E+03 0.10081300E+04 0.12500000E+03 0.0000E+00 0.9000E+01
        1  1    1    2  501    0 0.31276581E+03 -.27355716E+03 0.28768807E+04 0.29067334E+04 0.32000000E+00 0.0000E+00 0.9000E+01
        1  1    1    2  502    0 0.71237597E+02 0.30768523E+02 -.26932839E+03 0.28028447E+03 0.32000000E+00 0.0000E+00 0.9000E+01
#aMCatNLO 1  0  0  2  4 0.89903832D+02 0.00000000D+00  -5  6  0 0.00000000D+00 0.00000000D+00 0.00000000D+00 0.00000000D+00 0.00000000D+00
  <mgrwgt>
 0.3895174484D-02    7    2    0
 0.115734252457521D+04 0.000000000000000D+00 0.000000000000000D+00 0.115734252457521D+04
 0.115734252457521D+04 0.000000000000000D+00 0.000000000000000D+00 -.115734252457521D+04
 0.479989734066296D+03 -.383994223715136D+03 0.242770280586659D+03 0.915214282357899D+02
 0.919550405865485D+03 0.312748403653191D+03 -.273541933470061D+03 0.820326883366150D+03
 0.915144909218635D+03 0.712458200619456D+02 0.307716528834016D+02 -.911848311601940D+03
 0.000000000000000D+00 0.000000000000000D+00 0.000000000000000D+00 -.000000000000000D+00
 0.116155800340946D+04 0.000000000000000D+00 0.000000000000000D+00 0.116155800340946D+04
 0.176269590718092D+04 0.000000000000000D+00 0.000000000000000D+00 -.176269590718092D+04
 0.481180651442766D+03 -.394695330343510D+03 0.227484601020802D+03 0.915214282357899D+02
 0.921980880584450D+03 0.292245875742543D+03 -.302828163653137D+03 0.820326883366150D+03
 0.913268819993361D+03 0.508893353303469D+02 0.169403376413807D+01 -.911848311601940D+03
 0.607823558569800D+03 0.515601192706197D+02 0.736495288681964D+02 -.601137903771462D+03
0.268198178838D-02 0.000000000000D+00 0.000000000000D+00 0.281313365199D-04 0.000000000000D+00  6 1 1 25 1 1 21 0 0.59184101D+00 0.53566350D-01 0.23246210D+06 0.23246210D+06 0.23246210D+06 0.10928434D+01  1  2  2  2  6  2        1 0.324595832142D-03 0.100000000000D+01
0.836672340793D-03 0.000000000000D+00 -.102995162494D-04 0.281313365199D-04 0.000000000000D+00  6 1 1 25 1 1 21 2 0.59184101D+00 0.53566350D-01 0.23246210D+06 0.23246210D+06 0.23246210D+06 0.10928434D+01  1  2  3  2  6  2        1 0.120936786063D-03 0.100000000000D+01
-.152455413144D-02 0.000000000000D+00 0.000000000000D+00 0.281313365199D-04 0.000000000000D+00  6 1 1 25 1 1 21 2 0.59184101D+00 0.53566350D-01 0.23246210D+06 0.23246210D+06 0.23246210D+06 0.10928434D+01  1  2 15  2  6  2        1 -.220366645156D-03 0.100000000000D+01
-.929749903407D-02 0.000000000000D+00 0.000000000000D+00 0.281313365199D-04 0.000000000000D+00  6 1 1 25 1 1 21 2 0.59184101D+00 0.53566350D-01 0.23246210D+06 0.23246210D+06 0.23246210D+06 0.10928434D+01  1  2  4  2  6  2        1 -.134390680411D-02 0.100000000000D+01
-.120381805145D+00 0.000000000000D+00 -.203131611543D-02 0.281313365199D-04 0.000000000000D+00  6 1 1 25 1 1 21 2 0.59184101D+00 0.81698943D-01 0.23246210D+06 0.23246210D+06 0.23246210D+06 0.10928434D+01  1  2  5  2  6  2        1 -.976374976907D-02 0.100000000000D+01
0.111339967929D+00 0.000000000000D+00 0.186286907695D-02 0.281313365199D-04 0.000000000000D+00  6 1 1 25 1 1 21 2 0.59184101D+00 0.53566350D-01 0.23246210D+06 0.23246210D+06 0.23246210D+06 0.10928434D+01  1  2  6  2  6  2        1 0.160936333439D-01 0.100000000000D+01
-.588799690403D-02 0.000000000000D+00 -.100610671262D-03 0.281313365199D-04 0.000000000000D+00  6 1 21 25 1 1 -1 2 0.59184101D+00 0.81698943D-01 0.23246210D+06 0.23246210D+06 0.23246210D+06 0.10928434D+01  1  2  5  5  6  2        1 -.131596825957D-02 0.100000000000D+01
  </mgrwgt>
  </event>
  <event>
  5     66 0.18982733E-05 0.14698270E+03 0.75467711E-02 0.92982244E-01
        1 -1    0    0  501    0 0.00000000E+00 0.00000000E+00 0.18950459E+04 0.18950460E+04 0.32000000E+00 0.0000E+00 0.9000E+01
        1 -1    0    0  502    0 0.00000000E+00 0.00000000E+00 -.14862978E+04 0.14862978E+04 0.32000000E+00 0.0000E+00 0.9000E+01
       25  1    1    2    0    0 0.42356415E+03 -.19700658E+03 0.81710581E+03 0.94947622E+03 0.12500000E+03 0.0000E+00 0.9000E+01
        1  1    1    2  501    0 -.10228367E+03 0.10558900E+03 0.98659066E+03 0.99748294E+03 0.32000000E+00 0.0000E+00 0.9000E+01
        1  1    1    2  502    0 -.32128049E+03 0.91417579E+02 -.13949483E+04 0.14343846E+04 0.32000000E+00 0.0000E+00 0.9000E+01
#aMCatNLO 1  0  0  5  2 0.57039836D+02 0.00000000D+00  -5  6  0 0.00000000D+00 0.00000000D+00 0.00000000D+00 0.00000000D+00 0.00000000D+00
  <mgrwgt>
 0.1608067045D-02    6    2    0
 0.167827371041476D+04 0.000000000000000D+00 0.000000000000000D+00 0.167827371041476D+04
 0.167827371041476D+04 -.000000000000000D+00 -.000000000000000D+00 -.167827371041476D+04
 0.857116026694686D+03 0.423577479170442D+03 -.196998285702379D+03 0.707669893231882D+03
 0.884563553632877D+03 -.102266932623874D+03 0.105571725982032D+03 0.872266453316016D+03
 0.161486784050196D+04 -.321310546546569D+03 0.914265597203471D+02 -.157993634654790D+04
 0.000000000000000D+00 -.000000000000000D+00 0.000000000000000D+00 0.000000000000000D+00
 0.167827371041476D+04 0.000000000000000D+00 0.000000000000000D+00 0.167827371041476D+04
 0.167827371041476D+04 -.000000000000000D+00 -.000000000000000D+00 -.167827371041476D+04
 0.818255098339126D+03 0.415127895734662D+03 -.194594018699921D+03 0.666121913786883D+03
 0.843745402362010D+03 -.110983503244124D+03 0.108051962229905D+03 0.829405654353139D+03
 0.132846951018965D+04 -.137131402138136D+02 0.212031444705636D+03 -.131136793301691D+04
 0.366077409938736D+03 -.290431252276725D+03 -.125489388235620D+03 -.184159635123107D+03
0.536333192728D-02 0.000000000000D+00 0.000000000000D+00 0.385601536081D-04 0.000000000000D+00  6 1 1 25 1 1 21 0 0.29154553D+00 0.22866120D+00 0.23262734D+06 0.23262734D+06 0.23262734D+06 0.10928201D+01  1  2  2  3  6  5        1 0.174042656912D-02 0.100000000000D+01
0.523640498528D-03 0.000000000000D+00 -.205966067985D-04 0.385601536081D-04 0.000000000000D+00  6 1 1 25 1 1 21 2 0.29154553D+00 0.22866120D+00 0.23262734D+06 0.23262734D+06 0.23262734D+06 0.10928201D+01  1  2  3  3  6  5        1 0.202932486771D-03 0.100000000000D+01
-.305401683100D-02 0.000000000000D+00 0.000000000000D+00 0.385601536081D-04 0.000000000000D+00  6 1 1 25 1 1 21 2 0.29154553D+00 0.22866120D+00 0.23262734D+06 0.23262734D+06 0.23262734D+06 0.10928201D+01  1  2 15  3  6  5        1 -.118355862829D-02 0.100000000000D+01
-.158956084141D-03 0.000000000000D+00 0.000000000000D+00 0.385601536081D-04 0.000000000000D+00  6 1 1 25 1 1 21 2 0.29154553D+00 0.22866120D+00 0.23262734D+06 0.23262734D+06 0.23262734D+06 0.10928201D+01  1  2  4  3  6  5        1 -.616020982580D-04 0.100000000000D+01
-.933294042373D-02 0.000000000000D+00 0.000000000000D+00 0.385601536081D-04 0.000000000000D+00  6 1 1 25 1 1 21 2 0.29154553D+00 0.22866120D+00 0.23262734D+06 0.23262734D+06 0.23262734D+06 0.10928201D+01  1  2  5  3  6  5        1 -.361690284536D-02 0.100000000000D+01
0.116807365568D-01 0.000000000000D+00 -.000000000000D+00 0.385601536081D-04 0.000000000000D+00  6 1 1 25 1 1 21 2 0.29154553D+00 0.22866120D+00 0.23262734D+06 0.23262734D+06 0.23262734D+06 0.10928201D+01  1  2  6  3  6  5        1 0.452677156075D-02 0.100000000000D+01
  </mgrwgt>
  </event>
  <event>
  5     66 -.18982733E-05 0.14621105E+02 0.75467711E-02 0.92626776E-01
        1 -1    0    0  501    0 0.00000000E+00 0.00000000E+00 0.10081047E+04 0.10081048E+04 0.32000000E+00 0.0000E+00 0.9000E+01
        1 -1    0    0  502    0 -.00000000E+00 -.00000000E+00 -.10107529E+04 0.10107529E+04 0.32000000E+00 0.0000E+00 0.9000E+01
       25  1    1    2    0    0 0.90131886E+02 -.58472870E+03 0.12058203E+03 0.61660071E+03 0.12500000E+03 0.0000E+00 0.9000E+01
        1  1    1    2  501    0 -.69827566E+01 0.12850334E+02 0.52993830E+03 0.53014017E+03 0.32000000E+00 0.0000E+00 0.9000E+01
        1  1    1    2  502    0 -.83149129E+02 0.57187836E+03 -.65316845E+03 0.87211683E+03 0.32000000E+00 0.0000E+00 0.9000E+01
#aMCatNLO 1  0  0  5  2 0.57039836D+02 0.00000000D+00  -5  6  0 0.00000000D+00 0.00000000D+00 0.00000000D+00 0.00000000D+00 0.00000000D+00
  <mgrwgt>
 -.3910193644D-02    1    2    0
 0.100942798531458D+04 0.000000000000000D+00 0.000000000000000D+00 0.100942798531458D+04
 0.100942798531458D+04 -.000000000000000D+00 -.000000000000000D+00 -.100942798531458D+04
 0.616862282004945D+03 0.901431151128932D+02 -.584811924939414D+03 0.121504346452091D+03
 0.530695079253899D+03 -.698090761570479D+01 0.128469313272081D+02 0.530493629017953D+03
 0.871298609370319D+03 -.831622074971885D+02 0.571964993612206D+03 -.651997975470044D+03
 0.000000000000000D+00 0.000000000000000D+00 0.000000000000000D+00 0.000000000000000D+00
 0.100942798531458D+04 0.000000000000000D+00 0.000000000000000D+00 0.100942798531458D+04
 0.100942798531458D+04 -.000000000000000D+00 -.000000000000000D+00 -.100942798531458D+04
 0.602063164584110D+03 0.883265730804155D+02 -.572318287705968D+03 0.107262519988168D+03
 0.518838619048857D+03 -.854500826091146D+01 0.236043515841767D+02 0.518230962059039D+03
 0.622025457359627D+03 -.196997051167827D+03 0.348564682033506D+03 -.476036231681492D+03
 0.275928729636569D+03 0.117215486348322D+03 0.200149254088286D+03 -.149457250365715D+03
-.120699449473D-02 0.000000000000D+00 0.000000000000D+00 0.101130379227D-04 0.000000000000D+00  6 1 1 25 1 1 21 2 0.15509305D+00 0.15550045D+00 0.35842835D+06 0.35842835D+06 0.35842835D+06 0.10788802D+01  1  2 14  3  6  5        1 -.391019364366D-02 0.100000000000D+01
  </mgrwgt>
  </event>
  <event>
  5     66 0.18982733E-05 0.19198790E+03 0.75467711E-02 0.91253926E-01
        1 -1    0    0  501    0 0.00000000E+00 0.00000000E+00 0.11131536E+04 0.11131536E+04 0.32000000E+00 0.0000E+00 0.9000E+01
        1 -1    0    0  502    0 0.00000000E+00 0.00000000E+00 -.13833514E+04 0.13833514E+04 0.32000000E+00 0.0000E+00 0.9000E+01
       25  1    1    2    0    0 -.29301548E+02 -.63288327E+03 -.81328139E+03 0.10384852E+04 0.12500000E+03 0.0000E+00 0.9000E+01
        1  1    1    2  501    0 -.47512565E+01 0.43066256E+03 0.92733652E+03 0.10224705E+04 0.32000000E+00 0.0000E+00 0.9000E+01
        1  1    1    2  502    0 0.34052805E+02 0.20222071E+03 -.38425298E+03 0.43554938E+03 0.32000000E+00 0.0000E+00 0.9000E+01
#aMCatNLO 1  0  0  1  5 0.95660364D+02 0.00000000D+00  -5  6  0 0.00000000D+00 0.00000000D+00 0.00000000D+00 0.00000000D+00 0.00000000D+00
  <mgrwgt>
 0.2983437405D-03    9    2    0
 0.124092008162008D+04 0.000000000000000D+00 0.000000000000000D+00 0.124092008162008D+04
 0.124092008162008D+04 0.000000000000000D+00 0.000000000000000D+00 -.124092008162008D+04
 0.956055833437891D+03 -.293036930753063D+02 -.632896779445828D+03 -.704982777654793D+03
 0.112945795964112D+04 -.475120079218945D+01 0.430657511234781D+03 0.104412011603300D+04
 0.396326370161161D+03 0.340548938674958D+02 0.202239268211047D+03 -.339137338378208D+03
 0.000000000000000D+00 0.000000000000000D+00 0.000000000000000D+00 0.000000000000000D+00
 0.131901535610500D+04 0.000000000000000D+00 0.000000000000000D+00 0.131901535610500D+04
 0.127148533540765D+04 0.000000000000000D+00 0.000000000000000D+00 -.127148533540765D+04
 0.976615044501735D+03 -.523693478954492D+02 -.662124368799596D+03 -.704982777654793D+03
 0.111737966978431D+04 -.315663102807146D+02 0.396678809363178D+03 0.104412011603300D+04
 0.389688337390370D+03 0.246741223482047D+02 0.190352446010451D+03 -.339137338378208D+03
 0.106817639836239D+03 0.592615358279591D+02 0.750931134259672D+02 0.475300206973530D+02
0.919843428676D-04 0.000000000000D+00 0.000000000000D+00 0.194805304077D-06 0.000000000000D+00  6 1 1 25 1 1 21 0 0.17125440D+00 0.21282330D+00 0.41059779D+06 0.41059779D+06 0.41059779D+06 0.10746099D+01  1  2  2  1  6  1        1 0.114376835098D-03 0.100000000000D+01
0.538897147291D-05 0.000000000000D+00 -.353244096645D-06 0.194805304077D-06 0.000000000000D+00  6 1 1 25 1 1 21 2 0.17125440D+00 0.21282330D+00 0.41059779D+06 0.41059779D+06 0.41059779D+06 0.10746099D+01  1  2  3  1  6  1        1 0.773805330141D-05 0.100000000000D+01
-.583946482135D-04 0.000000000000D+00 0.000000000000D+00 0.194805304077D-06 0.000000000000D+00  6 1 1 25 1 1 21 2 0.17125440D+00 0.21282330D+00 0.41059779D+06 0.41059779D+06 0.41059779D+06 0.10746099D+01  1  2 15  1  6  1        1 -.838491913836D-04 0.100000000000D+01
0.427857733698D-08 0.000000000000D+00 0.000000000000D+00 0.194805304077D-06 0.000000000000D+00  6 1 1 25 1 1 21 2 0.18895974D+00 0.21282330D+00 0.46334591D+06 0.46334591D+06 0.46334591D+06 0.10708551D+01  1  2 12  1  6  1        1 0.499718963936D-08 0.100000000000D+01
-.227256383475D-04 0.000000000000D+00 0.000000000000D+00 0.194805304077D-06 0.000000000000D+00  6 1 1 25 1 1 21 2 0.17125440D+00 0.21282330D+00 0.41059779D+06 0.41059779D+06 0.41059779D+06 0.10746099D+01  1  2  4  1  6  1        1 -.326318670873D-04 0.100000000000D+01
-.148672662406D-02 0.000000000000D+00 -.302826807201D-03 0.194805304077D-06 0.000000000000D+00  6 1 1 25 1 1 21 2 0.18464460D+00 0.21282330D+00 0.41059779D+06 0.41059779D+06 0.41059779D+06 0.10746099D+01  1  2  5  1  6  1        1 -.184647085132D-02 0.100000000000D+01
0.150611041866D-02 0.000000000000D+00 0.301970694875D-03 0.194805304077D-06 0.000000000000D+00  6 1 1 25 1 1 21 2 0.17125440D+00 0.21282330D+00 0.41059779D+06 0.41059779D+06 0.41059779D+06 0.10746099D+01  1  2  6  1  6  1        1 0.216263210076D-02 0.100000000000D+01
0.719031387193D-10 0.000000000000D+00 0.000000000000D+00 0.194805304077D-06 0.000000000000D+00  6 21 1 25 1 1 -1 2 0.18895974D+00 0.21282330D+00 0.46334591D+06 0.46334591D+06 0.46334591D+06 0.10708551D+01  1  2 12  4  6  1        1 0.840010741721D-10 0.100000000000D+01
-.182260347295D-04 0.000000000000D+00 -.383149892176D-05 0.194805304077D-06 0.000000000000D+00  6 21 1 25 1 1 -1 2 0.18464460D+00 0.21282330D+00 0.41059779D+06 0.41059779D+06 0.41059779D+06 0.10746099D+01  1  2  5  4  6  1        1 -.234564201032D-04 0.100000000000D+01
  </mgrwgt>
  </event>
  <event>
  5     66 0.18982733E-05 0.38304786E+02 0.75467711E-02 0.91195590E-01
        1 -1    0    0  501    0 0.00000000E+00 0.00000000E+00 0.18732914E+04 0.18732914E+04 0.32000000E+00 0.0000E+00 0.9000E+01
        1 -1    0    0  502    0 0.00000000E+00 0.00000000E+00 -.65050179E+03 0.65050187E+03 0.32000000E+00 0.0000E+00 0.9000E+01
       25  1    1    2    0    0 0.12956737E+03 -.46409401E+03 -.27308971E+03 0.56777984E+03 0.12500000E+03 0.0000E+00 0.9000E+01
        1  1    1    2  501    0 -.34517953E+02 0.16611103E+02 0.14980522E+04 0.14985419E+04 0.32000000E+00 0.0000E+00 0.9000E+01
        1  1    1    2  502    0 -.95049420E+02 0.44748291E+03 -.21729142E+01 0.45747149E+03 0.32000000E+00 0.0000E+00 0.9000E+01
#aMCatNLO 1  0  0  1  5 0.98650662D+02 0.00000000D+00  -5  6  0 0.00000000D+00 0.00000000D+00 0.00000000D+00 0.00000000D+00 0.00000000D+00
  <mgrwgt>
 0.1520284462D-01    7    2    0
 0.110389288804007D+04 0.000000000000000D+00 0.000000000000000D+00 0.110389288804007D+04
 0.110389288804007D+04 0.000000000000000D+00 0.000000000000000D+00 -.110389288804007D+04
 0.800312751038903D+03 0.129579752557567D+03 -.464145676943289D+03 -.626620601143493D+03
 0.883283217702727D+03 -.345160567977596D+02 0.166101904469900D+02 0.882452257106146D+03
 0.524189807338511D+03 -.950636957598071D+02 0.447535486496299D+03 -.255831655962653D+03
 0.000000000000000D+00 -.000000000000000D+00 0.000000000000000D+00 0.000000000000000D+00
 0.133427981423942D+04 0.000000000000000D+00 0.000000000000000D+00 0.133427981423942D+04
 0.119887397096045D+04 0.000000000000000D+00 0.000000000000000D+00 -.119887397096045D+04
 0.865142340803341D+03 0.132174694550433D+03 -.568086914295472D+03 -.626620601143493D+03
 0.888005881312039D+03 -.317562150661792D+02 -.939361590534191D+02 0.882452257106146D+03
 0.471914357188443D+03 -.935116680056750D+02 0.385368514898123D+03 -.255831655962653D+03
 0.308091205896043D+03 -.690681147857854D+01 0.276654558450768D+03 0.135405843278967D+03
0.433748520286D-02 0.000000000000D+00 0.000000000000D+00 0.426760136373D-05 0.000000000000D+00  6 1 1 25 1 1 21 0 0.28819868D+00 0.10007721D+00 0.24684396D+06 0.24684396D+06 0.24684396D+06 0.10908744D+01  1  2  2  1  6  1        1 0.637286679149D-02 0.100000000000D+01
0.238471345822D-02 0.000000000000D+00 -.166570852651D-04 0.426760136373D-05 0.000000000000D+00  6 1 1 25 1 1 21 2 0.28819868D+00 0.10007721D+00 0.24684396D+06 0.24684396D+06 0.24684396D+06 0.10908744D+01  1  2  3  1  6  1        1 0.416948639702D-02 0.100000000000D+01
-.309846855868D-02 0.000000000000D+00 0.000000000000D+00 0.426760136373D-05 0.000000000000D+00  6 1 1 25 1 1 21 2 0.28819868D+00 0.10007721D+00 0.24684396D+06 0.24684396D+06 0.24684396D+06 0.10908744D+01  1  2 15  1  6  1        1 -.541743179351D-02 0.100000000000D+01
-.484653479544D-03 0.000000000000D+00 0.000000000000D+00 0.426760136373D-05 0.000000000000D+00  6 1 1 25 1 1 21 2 0.28819868D+00 0.10007721D+00 0.24684396D+06 0.24684396D+06 0.24684396D+06 0.10908744D+01  1  2  4  1  6  1        1 -.847378993589D-03 0.100000000000D+01
-.106349953679D-01 0.000000000000D+00 -.454959602594D-02 0.426760136373D-05 0.000000000000D+00  6 1 1 25 1 1 21 2 0.36016022D+00 0.10007721D+00 0.24684396D+06 0.24684396D+06 0.24684396D+06 0.10908744D+01  1  2  5  1  6  1        1 -.904699581170D-02 0.100000000000D+01
0.114736136559D-01 0.000000000000D+00 0.443886853959D-02 0.426760136373D-05 0.000000000000D+00  6 1 1 25 1 1 21 2 0.28819868D+00 0.10007721D+00 0.24684396D+06 0.24684396D+06 0.24684396D+06 0.10908744D+01  1  2  6  1  6  1        1 0.200607229762D-01 0.100000000000D+01
-.267437530339D-03 0.000000000000D+00 -.141364699965D-03 0.426760136373D-05 0.000000000000D+00  6 21 1 25 1 1 -1 2 0.36016022D+00 0.10007721D+00 0.24684396D+06 0.24684396D+06 0.24684396D+06 0.10908744D+01  1  2  5  4  6  1        1 -.884249467091D-04 0.100000000000D+01
  </mgrwgt>
  </event>
  <event>
  5     66 0.18982733E-05 0.19991203E+02 0.75467711E-02 0.93681791E-01
        1 -1    0    0  501    0 0.00000000E+00 0.00000000E+00 0.53631737E+03 0.53631747E+03 0.32000000E+00 0.0000E+00 0.9000E+01
        1 -1    0    0  502    0 -.00000000E+00 -.00000000E+00 -.97229296E+03 0.97229302E+03 0.32000000E+00 0.0000E+00 0.9000E+01
       25  1    1    2    0    0 -.43622225E+03 -.28938772E+03 -.16687106E+03 0.56347676E+03 0.12500000E+03 0.0000E+00 0.9000E+01
        1  1    1    2  501    0 0.29104559E+01 -.19790086E+02 0.22079725E+03 0.22170171E+03 0.32000000E+00 0.0000E+00 0.9000E+01
        1  1    1    2  502    0 0.43331179E+03 0.30917781E+03 -.48990179E+03 0.72343202E+03 0.32000000E+00 0.0000E+00 0.9000E+01
#aMCatNLO 1  0  0  5  1 0.52613248D+02 0.00000000D+00  -5  6  0 0.00000000D+00 0.00000000D+00 0.00000000D+00 0.00000000D+00 0.00000000D+00
  <mgrwgt>
 0.2159647160D-02    4    2    0
 0.722120295861097D+03 0.000000000000000D+00 0.000000000000000D+00 0.722120295861097D+03
 0.722120295861097D+03 -.000000000000000D+00 -.000000000000000D+00 -.722120295861097D+03
 0.538328708951017D+03 -.436313375634578D+03 -.289459149967397D+03 -.410336732220624D+01
 0.298060043349213D+03 0.290874585361680D+01 -.197784581547229D+02 0.297388872071427D+03
 0.607851839421965D+03 0.433404629780961D+03 0.309237608122119D+03 -.293285504749220D+03
 0.000000000000000D+00 0.000000000000000D+00 0.000000000000000D+00 0.000000000000000D+00
 0.722120295861097D+03 0.000000000000000D+00 0.000000000000000D+00 0.722120295861097D+03
 0.722120295861097D+03 -.000000000000000D+00 -.000000000000000D+00 -.722120295861097D+03
 0.523658180885283D+03 -.423906333859351D+03 -.280606628192580D+03 -.124992294322422D+02
 0.293254826218390D+03 0.981699336519304D+01 -.148493692848715D+02 0.292714051547730D+03
 0.534246852528857D+02 -.569817327261049D+01 -.203261918534458D+02 -.490772222162394D+02
 0.573902899365636D+03 0.419787513766768D+03 0.315782189330897D+03 -.231137599899248D+03
0.425819944207D-03 0.000000000000D+00 0.000000000000D+00 0.148301748678D-05 0.000000000000D+00  6 1 1 25 1 1 21 0 0.82510377D-01 0.14958354D+00 0.29741802D+06 0.29741802D+06 0.29741802D+06 0.10848297D+01  1  2  2  3  6  5        1 0.344192853361D-02 0.100000000000D+01
0.271833971249D-03 0.000000000000D+00 -.163526070672D-05 0.148301748678D-05 0.000000000000D+00  6 1 1 25 1 1 21 2 0.82510377D-01 0.14958354D+00 0.29741802D+06 0.29741802D+06 0.29741802D+06 0.10848297D+01  1  2  3  3  6  5        1 0.258584638341D-02 0.100000000000D+01
-.339684074330D-03 0.000000000000D+00 0.000000000000D+00 0.148301748678D-05 0.000000000000D+00  6 1 1 25 1 1 21 2 0.82510377D-01 0.14958354D+00 0.29741802D+06 0.29741802D+06 0.29741802D+06 0.10848297D+01  1  2 15  3  6  5        1 -.323127691169D-02 0.100000000000D+01
-.669481742470D-04 0.000000000000D+00 0.000000000000D+00 0.148301748678D-05 0.000000000000D+00  6 1 1 25 1 1 21 2 0.82510377D-01 0.14958354D+00 0.29741802D+06 0.29741802D+06 0.29741802D+06 0.10848297D+01  1  2  5  3  6  5        1 -.636850844864D-03 0.100000000000D+01
  </mgrwgt>
  </event>
  <event>
  5     66 0.18982733E-05 0.10645885E+03 0.75467711E-02 0.84349298E-01
        1 -1    0    0  501    0 0.00000000E+00 0.00000000E+00 0.14236787E+04 0.14236787E+04 0.32000000E+00 0.0000E+00 0.9000E+01
        1 -1    0    0  502    0 -.00000000E+00 -.00000000E+00 -.19392891E+04 0.19392891E+04 0.32000000E+00 0.0000E+00 0.9000E+01
       25  1    1    2    0    0 0.42159426E+03 0.47258026E+03 0.10938442E+03 0.65472419E+03 0.12500000E+03 0.0000E+00 0.9000E+01
        1  1    1    2  501    0 -.10142580E+03 0.32373357E+02 0.98503897E+03 0.99077601E+03 0.32000000E+00 0.0000E+00 0.9000E+01
        1  1    1    2  502    0 -.32016846E+03 -.50495362E+03 -.16100339E+04 0.17174676E+04 0.32000000E+00 0.0000E+00 0.9000E+01
#aMCatNLO 1  0  0  5  2 0.11324261D+02 0.00000000D+00  -5  6  0 0.00000000D+00 0.00000000D+00 0.00000000D+00 0.00000000D+00 0.00000000D+00
  <mgrwgt>
 0.4172959537D-02    3    2    0
 0.166160303631120D+04 0.000000000000000D+00 0.000000000000000D+00 0.166160303631120D+04
 0.166160303631120D+04 -.000000000000000D+00 -.000000000000000D+00 -.166160303631120D+04
 0.679601695258405D+03 0.421616877799636D+03 0.472626800110165D+03 0.212359554459438D+03
 0.115537499008051D+04 -.101418010358485D+03 0.323708705139110D+02 0.115045985658806D+04
 0.148822938728349D+04 -.320198867441151D+03 -.504997670624076D+03 -.136281941104750D+04
 0.000000000000000D+00 0.000000000000000D+00 0.000000000000000D+00 0.000000000000000D+00
 0.166160303631120D+04 0.000000000000000D+00 0.000000000000000D+00 0.166160303631120D+04
 0.166160303631120D+04 -.000000000000000D+00 -.000000000000000D+00 -.166160303631120D+04
 0.522340564492222D+03 0.346723096995464D+03 0.354509003028049D+03 -.106400780523388D+03
 0.707700067081213D+03 -.217507393039597D+03 -.150718058896256D+03 0.656364217216643D+03
 0.916142953104494D+03 -.286663491407018D+03 0.865977171677712D+03 -.850028902475188D+02
 0.117702248794447D+04 0.157447787451151D+03 -.106976811580951D+04 -.464960546445737D+03
0.194793436426D-01 0.000000000000D+00 0.000000000000D+00 0.157888140966D-04 0.000000000000D+00  6 1 1 25 1 1 21 0 0.21902749D+00 0.29835218D+00 0.45561463D+06 0.45561463D+06 0.45561463D+06 0.10713754D+01  1  2  2  3  6  5        1 0.613946396836D-02 0.100000000000D+01
0.562732309246D-02 0.000000000000D+00 -.748058086164D-04 0.157888140966D-04 0.000000000000D+00  6 1 1 25 1 1 21 2 0.21902749D+00 0.29835218D+00 0.45561463D+06 0.45561463D+06 0.45561463D+06 0.10713754D+01  1  2  3  3  6  5        1 0.203582931473D-02 0.100000000000D+01
-.110630223015D-01 0.000000000000D+00 0.000000000000D+00 0.157888140966D-04 0.000000000000D+00  6 1 1 25 1 1 21 2 0.21902749D+00 0.29835218D+00 0.45561463D+06 0.45561463D+06 0.45561463D+06 0.10713754D+01  1  2 15  3  6  5        1 -.400233374569D-02 0.100000000000D+01
  </mgrwgt>
  </event>
  <event>
  5     66 0.18982733E-05 0.16359066E+03 0.75467711E-02 0.92804253E-01
        1 -1    0    0  501    0 0.00000000E+00 0.00000000E+00 0.10070553E+04 0.10070553E+04 0.32000000E+00 0.0000E+00 0.9000E+01
        1 -1    0    0  502    0 -.00000000E+00 -.00000000E+00 -.23289876E+04 0.23289876E+04 0.32000000E+00 0.0000E+00 0.9000E+01
       25  1    1    2    0    0 0.16723676E+03 -.54758882E+03 -.10093490E+04 0.11671470E+04 0.12500000E+03 0.0000E+00 0.9000E+01
        1  1    1    2  501    0 -.60230691E+02 0.42385886E+03 0.87287128E+03 0.97220803E+03 0.32000000E+00 0.0000E+00 0.9000E+01
        1  1    1    2  502    0 -.10700607E+03 0.12372996E+03 -.11854546E+04 0.11966879E+04 0.32000000E+00 0.0000E+00 0.9000E+01
#aMCatNLO 1  0  0  5  2 0.80211832D+01 0.00000000D+00  -5  6  0 0.00000000D+00 0.00000000D+00 0.00000000D+00 0.00000000D+00 0.00000000D+00
  <mgrwgt>
 0.2175298024D-02    9    2    0
 0.153147621123881D+04 0.000000000000000D+00 0.000000000000000D+00 0.153147621123881D+04
 0.153147621123881D+04 -.000000000000000D+00 -.000000000000000D+00 -.153147621123881D+04
 0.835565820943386D+03 0.167240927462255D+03 -.547592929168464D+03 -.595581814056692D+03
 0.143560251090905D+04 -.602303875047201D+02 0.423856728118959D+03 0.137028184829898D+04
 0.791784090625199D+03 -.107010539957535D+03 0.123736201049505D+03 -.774700034242291D+03
 0.000000000000000D+00 0.000000000000000D+00 0.000000000000000D+00 0.000000000000000D+00
 0.153147621123881D+04 0.000000000000000D+00 0.000000000000000D+00 0.153147621123881D+04
 0.153147621123881D+04 -.000000000000000D+00 -.000000000000000D+00 -.153147621123881D+04
 0.835593634558725D+03 0.167234308988556D+03 -.547585276232664D+03 -.595629728325726D+03
 0.143552829703161D+04 -.602417583548655D+02 0.423869876223811D+03 0.137019952932367D+04
 0.274178385077244D+03 -.360090130389913D+02 0.349972088576241D+02 -.269540967564671D+03
 0.517652105810048D+03 -.709835375946998D+02 0.887181911512285D+02 -.505028833433273D+03
0.444991838672D-04 0.000000000000D+00 0.000000000000D+00 0.603883127348D-05 0.000000000000D+00  6 1 1 25 1 1 21 0 0.15493159D+00 0.35830579D+00 0.34677591D+06 0.34677591D+06 0.34677591D+06 0.10799267D+01  1  2  2  3  6  5        1 0.155834124951D-04 0.100000000000D+01
0.497510589398D-05 0.000000000000D+00 -.170888582954D-06 0.603883127348D-05 0.000000000000D+00  6 1 1 25 1 1 21 2 0.15493159D+00 0.35830579D+00 0.34677591D+06 0.34677591D+06 0.34677591D+06 0.10799267D+01  1  2  3  3  6  5        1 0.203189560456D-05 0.100000000000D+01
-.299913995305D-04 0.000000000000D+00 0.000000000000D+00 0.603883127348D-05 0.000000000000D+00  6 1 1 25 1 1 21 2 0.15493159D+00 0.35830579D+00 0.34677591D+06 0.34677591D+06 0.34677591D+06 0.10799267D+01  1  2 15  3  6  5        1 -.122488634773D-04 0.100000000000D+01
0.102502900786D-01 0.000000000000D+00 0.000000000000D+00 0.603883127348D-05 0.000000000000D+00  6 1 1 25 1 1 21 2 0.15493159D+00 0.35830579D+00 0.34692275D+06 0.34692275D+06 0.34692275D+06 0.10799133D+01  1  2 12  3  6  5        1 0.418609266076D-02 0.100000000000D+01
0.904838830067D-09 0.000000000000D+00 0.000000000000D+00 0.603883127348D-05 0.000000000000D+00  6 1 1 25 1 1 21 2 0.15493159D+00 0.35830579D+00 0.34692275D+06 0.34692275D+06 0.34692275D+06 0.10799133D+01  1  2 12  3  6  5        1 0.369525072625D-09 0.100000000000D+01
-.131007144918D-01 0.000000000000D+00 0.000000000000D+00 0.603883127348D-05 0.000000000000D+00  6 1 1 25 1 1 21 2 0.15493159D+00 0.35830579D+00 0.34677591D+06 0.34677591D+06 0.34677591D+06 0.10799267D+01  1  2  4  3  6  5        1 -.535049600143D-02 0.100000000000D+01
-.103336212321D-01 0.000000000000D+00 0.000000000000D+00 0.603883127348D-05 0.000000000000D+00  6 1 1 25 1 1 21 2 0.15493159D+00 0.35830579D+00 0.34677591D+06 0.34677591D+06 0.34677591D+06 0.10799267D+01  1  2  5  3  6  5        1 -.422038043172D-02 0.100000000000D+01
0.184550582042D-01 0.000000000000D+00 -.000000000000D+00 0.603883127348D-05 0.000000000000D+00  6 1 1 25 1 1 21 2 0.15493159D+00 0.35830579D+00 0.34677591D+06 0.34677591D+06 0.34677591D+06 0.10799267D+01  1  2  6  3  6  5        1 0.753727708438D-02 0.100000000000D+01
0.426993686653D-04 0.000000000000D+00 0.000000000000D+00 0.603883127348D-05 0.981098849491D-07  6 1 1 25 1 1 21 2 0.15493159D+00 0.35830579D+00 0.34692275D+06 0.34692275D+06 0.34692275D+06 0.10799133D+01  1  2 11  3  6  5        1 0.174378980906D-04 0.100000000000D+01
  </mgrwgt>
  </event>
  <event>
  5     66 0.18982733E-05 0.77476632E+02 0.75467711E-02 0.91068691E-01
        1 -1    0    0  501    0 0.00000000E+00 0.00000000E+00 0.14243071E+04 0.14243071E+04 0.32000000E+00 0.0000E+00 0.9000E+01
        1 -1    0    0  502    0 -.00000000E+00 -.00000000E+00 -.22309232E+04 0.22309233E+04 0.32000000E+00 0.0000E+00 0.9000E+01
       25  1    1    2    0    0 0.41619384E+03 0.18823267E+03 -.18116768E+03 0.50704593E+03 0.12500000E+03 0.0000E+00 0.9000E+01
        1  1    1    2  501    0 -.38149196E+03 -.11896765E+03 0.12288888E+04 0.12922295E+04 0.32000000E+00 0.0000E+00 0.9000E+01
        1  1    1    2  502    0 -.34701872E+02 -.69265018E+02 -.18543373E+04 0.18559549E+04 0.32000000E+00 0.0000E+00 0.9000E+01
#aMCatNLO 1  0  0  5  2 0.23558085D+02 0.00000000D+00  -5  6  0 0.00000000D+00 0.00000000D+00 0.00000000D+00 0.00000000D+00 0.00000000D+00
  <mgrwgt>
 0.9483714035D-02    6    2    0
 0.178255991967989D+04 0.000000000000000D+00 0.000000000000000D+00 0.178255991967989D+04
 0.178255991967989D+04 -.000000000000000D+00 -.000000000000000D+00 -.178255991967989D+04
 0.478863163659891D+03 0.416190984822106D+03 0.188235419275264D+03 -.709747884352677D+02
 0.160290838369708D+04 -.381486783897867D+03 -.118966039223984D+03 0.155229836105982D+04
 0.148334829200281D+04 -.347042009242378D+02 -.692693800512785D+02 -.148132357262456D+04
 0.000000000000000D+00 -.000000000000000D+00 0.000000000000000D+00 0.000000000000000D+00
 0.178255991967989D+04 0.000000000000000D+00 0.000000000000000D+00 0.178255991967989D+04
 0.178255991967989D+04 -.000000000000000D+00 -.000000000000000D+00 -.178255991967989D+04
 0.481183861230429D+03 0.415766643564458D+03 0.187388436631531D+03 -.890874863522419D+02
 0.154600665237898D+04 -.382878605894073D+03 -.121744107707088D+03 0.149288945156273D+04
 0.115308639730917D+04 0.234561514097605D+03 -.654114279757066D+02 -.112708051214359D+04
 0.384842928441207D+03 -.267449551767989D+03 -.232900948736084D+00 -.276721453066895D+03
0.377923766590D-01 0.000000000000D+00 0.000000000000D+00 0.330223209684D-03 0.000000000000D+00  6 1 1 25 1 1 21 0 0.21912417D+00 0.34321896D+00 0.22593717D+06 0.22593717D+06 0.22593717D+06 0.10937811D+01  1  2  2  3  6  5        1 0.808814396067D-02 0.100000000000D+01
0.126755612371D-01 0.000000000000D+00 -.145132677332D-03 0.330223209684D-03 0.000000000000D+00  6 1 1 25 1 1 21 2 0.21912417D+00 0.34321896D+00 0.22593717D+06 0.22593717D+06 0.22593717D+06 0.10937811D+01  1  2  3  3  6  5        1 0.324543341533D-02 0.100000000000D+01
-.271495953863D-01 0.000000000000D+00 0.000000000000D+00 0.330223209684D-03 0.000000000000D+00  6 1 1 25 1 1 21 2 0.21912417D+00 0.34321896D+00 0.22593717D+06 0.22593717D+06 0.22593717D+06 0.10937811D+01  1  2 15  3  6  5        1 -.695134538278D-02 0.100000000000D+01
-.439959431561D-03 0.000000000000D+00 0.000000000000D+00 0.330223209684D-03 0.000000000000D+00  6 1 1 25 1 1 21 2 0.21912417D+00 0.34321896D+00 0.22593717D+06 0.22593717D+06 0.22593717D+06 0.10937811D+01  1  2  4  3  6  5        1 -.112646612949D-03 0.100000000000D+01
-.698293261474D-01 0.000000000000D+00 0.000000000000D+00 0.330223209684D-03 0.000000000000D+00  6 1 1 25 1 1 21 2 0.21912417D+00 0.34321896D+00 0.22593717D+06 0.22593717D+06 0.22593717D+06 0.10937811D+01  1  2  5  3  6  5        1 -.178790054508D-01 0.100000000000D+01
0.901939427040D-01 0.000000000000D+00 -.000000000000D+00 0.330223209684D-03 0.000000000000D+00  6 1 1 25 1 1 21 2 0.21912417D+00 0.34321896D+00 0.22593717D+06 0.22593717D+06 0.22593717D+06 0.10937811D+01  1  2  6  3  6  5        1 0.230931341057D-01 0.100000000000D+01
  </mgrwgt>
  </event>
  <event>
  5     66 0.18982733E-05 0.66143656E+02 0.75467711E-02 0.92507213E-01
        1 -1    0    0  501    0 0.00000000E+00 0.00000000E+00 0.17803940E+04 0.17803940E+04 0.32000000E+00 0.0000E+00 0.9000E+01
        1 -1    0    0  502    0 0.00000000E+00 0.00000000E+00 -.10278282E+04 0.10278282E+04 0.32000000E+00 0.0000E+00 0.9000E+01
       25  1    1    2    0    0 -.23842851E+03 -.44606003E+03 0.49151917E+02 0.52331503E+03 0.12500000E+03 0.0000E+00 0.9000E+01
        1  1    1    2  501    0 0.30256865E+03 0.42992434E+03 0.14464022E+04 0.15389809E+04 0.32000000E+00 0.0000E+00 0.9000E+01
        1  1    1    2  502    0 -.64140140E+02 0.16135697E+02 -.74298833E+03 0.74592632E+03 0.32000000E+00 0.0000E+00 0.9000E+01
#aMCatNLO 1  0  0  1  4 0.10676393D+01 0.00000000D+00  -5  6  0 0.00000000D+00 0.00000000D+00 0.00000000D+00 0.00000000D+00 0.00000000D+00
  <mgrwgt>
 0.8703395611D-02    4    2    0
 0.135275247029618D+04 0.000000000000000D+00 0.000000000000000D+00 0.135275247029618D+04
 0.135275247029618D+04 0.000000000000000D+00 0.000000000000000D+00 -.135275247029618D+04
 0.529488354878704D+03 -.238417741839037D+03 -.446053069920799D+03 -.944804590524490D+02
 0.119505370671944D+04 0.302562684605606D+03 0.429915859094617D+03 0.107321085436509D+04
 0.980962878994213D+03 -.641449427665683D+02 0.161372108261820D+02 -.978730395312642D+03
 0.000000000000000D+00 0.000000000000000D+00 -.000000000000000D+00 -.000000000000000D+00
 0.136419424791325D+04 0.000000000000000D+00 0.000000000000000D+00 0.136419424791325D+04
 0.146748443104997D+04 0.000000000000000D+00 0.000000000000000D+00 -.146748443104997D+04
 0.521087939406528D+03 -.243452940753068D+03 -.433257139688273D+03 -.944804590524490D+02
 0.120303698499211D+04 0.291069122726916D+03 0.459124400491687D+03 0.107321085436509D+04
 0.982307195954795D+03 -.735544976966618D+02 0.400496739602803D+02 -.978730395312642D+03
 0.125246558609786D+03 0.259383157228131D+02 -.659169347636942D+02 -.103290183136720D+03
0.185915777213D-01 0.000000000000D+00 0.000000000000D+00 0.333268475780D-04 0.000000000000D+00  6 1 1 25 1 1 21 0 0.27390678D+00 0.15812742D+00 0.30960610D+06 0.30960610D+06 0.30960610D+06 0.10835406D+01  1  2  2  1  6  1        1 0.147671888841D-01 0.100000000000D+01
0.714414968481D-02 0.000000000000D+00 -.713965537244D-04 0.333268475780D-04 0.000000000000D+00  6 1 1 25 1 1 21 2 0.27390678D+00 0.15812742D+00 0.30960610D+06 0.30960610D+06 0.30960610D+06 0.10835406D+01  1  2  3  1  6  1        1 0.666227424878D-02 0.100000000000D+01
-.135822228938D-01 0.000000000000D+00 0.000000000000D+00 0.333268475780D-04 0.000000000000D+00  6 1 1 25 1 1 21 2 0.27390678D+00 0.15812742D+00 0.30960610D+06 0.30960610D+06 0.30960610D+06 0.10835406D+01  1  2 15  1  6  1        1 -.126660971310D-01 0.100000000000D+01
-.643079878722D-04 0.000000000000D+00 0.000000000000D+00 0.333268475780D-04 0.000000000000D+00  6 1 1 25 1 1 21 2 0.27390678D+00 0.15812742D+00 0.30960610D+06 0.30960610D+06 0.30960610D+06 0.10835406D+01  1  2  4  1  6  1        1 -.599703912283D-04 0.100000000000D+01
  </mgrwgt>
  </event>
  <event>
  5     66 0.18982733E-05 0.22805819E+03 0.75467711E-02 0.89970022E-01
        1 -1    0    0  501    0 0.00000000E+00 0.00000000E+00 0.14041018E+04 0.14041018E+04 0.32000000E+00 0.0000E+00 0.9000E+01
        1 -1    0    0  502    0 0.00000000E+00 0.00000000E+00 -.16032536E+04 0.16032536E+04 0.32000000E+00 0.0000E+00 0.9000E+01
       25  1    1    2    0    0 0.45189654E+03 -.18739577E+03 0.18134509E+03 0.53650601E+03 0.12500000E+03 0.0000E+00 0.9000E+01
        1  1    1    2  501    0 -.23635538E+03 0.26184416E+03 0.10058318E+04 0.10658911E+04 0.32000000E+00 0.0000E+00 0.9000E+01
        1  1    1    2  502    0 -.21554117E+03 -.74448390E+02 -.13863286E+04 0.14049583E+04 0.32000000E+00 0.0000E+00 0.9000E+01
#aMCatNLO 1  0  0  2  2 0.59070430D+03 0.00000000D+00  -5  6  0 0.00000000D+00 0.00000000D+00 0.00000000D+00 0.00000000D+00 0.00000000D+00
  <mgrwgt>
 0.3106298852D-03    5    2    0
 0.150037703413425D+04 0.000000000000000D+00 0.000000000000000D+00 0.150037703413425D+04
 0.150037703413425D+04 0.000000000000000D+00 0.000000000000000D+00 -.150037703413425D+04
 0.549756862831774D+03 0.451903604955542D+03 -.187374276077476D+03 0.217443373601638D+03
 0.113492280922805D+04 -.236341344192725D+03 0.261828618716577D+03 0.107872068968396D+04
 0.131607439620867D+04 -.215562260762818D+03 -.744543426391016D+02 -.129616406328559D+04
 0.000000000000000D+00 -.000000000000000D+00 -.000000000000000D+00 -.000000000000000D+00
 0.155984258415588D+04 0.000000000000000D+00 0.000000000000000D+00 0.155984258415588D+04
 0.437327166514611D+04 0.000000000000000D+00 0.000000000000000D+00 -.437327166514611D+04
 0.640048300114921D+03 0.565536278787076D+03 -.164085109417051D+03 0.217443373601638D+03
 0.112147484845582D+04 -.208434567614580D+02 0.305995195512938D+03 0.107872068968396D+04
 0.129681897622554D+04 0.339828493046653D+02 -.233097425721192D+02 -.129616406328559D+04
 0.287477212450571D+04 -.578675671330283D+03 -.118600343523768D+03 -.281342908099024D+04
0.147915592460D-02 0.000000000000D+00 0.000000000000D+00 0.852296161800D-05 0.000000000000D+00  6 1 1 25 1 1 21 0 0.21601566D+00 0.24665440D+00 0.29468883D+06 0.29468883D+06 0.29468883D+06 0.10851263D+01  1  2  2  2  6  2        1 0.835126978334D-03 0.100000000000D+01
0.176337290700D-03 0.000000000000D+00 -.568034822118D-05 0.852296161800D-05 0.000000000000D+00  6 1 1 25 1 1 21 2 0.21601566D+00 0.24665440D+00 0.29468883D+06 0.29468883D+06 0.29468883D+06 0.10851263D+01  1  2  3  2  6  2        1 0.117231218000D-03 0.100000000000D+01
-.935279373796D-03 0.000000000000D+00 0.000000000000D+00 0.852296161800D-05 0.000000000000D+00  6 1 1 25 1 1 21 2 0.21601566D+00 0.24665440D+00 0.29468883D+06 0.29468883D+06 0.29468883D+06 0.10851263D+01  1  2 15  2  6  2        1 -.621785328134D-03 0.100000000000D+01
-.956530607236D-02 0.000000000000D+00 -.698843862007D-03 0.852296161800D-05 0.000000000000D+00  6 1 1 25 1 1 21 2 0.21601566D+00 0.72112027D+00 0.29468883D+06 0.29468883D+06 0.29468883D+06 0.10851263D+01  1  2  5  2  6  2        1 -.198333279537D-04 0.100000000000D+01
-.112529720272D-02 0.000000000000D+00 -.848871961808D-04 0.852296161800D-05 0.000000000000D+00  6 1 21 25 1 1 -1 2 0.21601566D+00 0.72112027D+00 0.29468883D+06 0.29468883D+06 0.29468883D+06 0.10851263D+01  1  2  5  5  6  2        1 -.109655062779D-06 0.100000000000D+01
  </mgrwgt>
  </event>
  <event>
  5     66 0.18982733E-05 0.41091354E+02 0.75467711E-02 0.89733007E-01
        1 -1    0    0  501    0 0.00000000E+00 0.00000000E+00 0.16431440E+04 0.16431441E+04 0.32000000E+00 0.0000E+00 0.9000E+01
        1 -1    0    0  502    0 0.00000000E+00 0.00000000E+00 -.17663871E+04 0.17663871E+04 0.32000000E+00 0.0000E+00 0.9000E+01
       25  1    1    2    0    0 -.16564203E+03 0.58027497E+03 0.14337303E+03 0.63272201E+03 0.12500000E+03 0.0000E+00 0.9000E+01
        1  1    1    2  501    0 0.19360146E+03 -.61038321E+03 0.11731075E+04 0.13364993E+04 0.32000000E+00 0.0000E+00 0.9000E+01
        1  1    1    2  502    0 -.27959430E+02 0.30108245E+02 -.14397236E+04 0.14403098E+04 0.32000000E+00 0.0000E+00 0.9000E+01
#aMCatNLO 1  0  0  2  4 0.72749388D+02 0.00000000D+00  -5  6  0 0.00000000D+00 0.00000000D+00 0.00000000D+00 0.00000000D+00 0.00000000D+00
  <mgrwgt>
 0.4590569335D-01    7    2    0
 0.170365150899603D+04 0.000000000000000D+00 0.000000000000000D+00 0.170365150899603D+04
 0.170365150899603D+04 0.000000000000000D+00 0.000000000000000D+00 -.170365150899603D+04
 0.638321624938407D+03 -.165632680907178D+03 0.580250113271267D+03 0.166448544385916D+03
 0.137975395813218D+04 0.193594317432470D+03 -.610360680046377D+03 0.122217104592304D+04
 0.138922743492147D+04 -.279616365252913D+02 0.301105667751101D+02 -.138861959030895D+04
 0.000000000000000D+00 0.000000000000000D+00 -.000000000000000D+00 -.000000000000000D+00
 0.177737689561051D+04 0.000000000000000D+00 0.000000000000000D+00 0.177737689561051D+04
 0.190815213538151D+04 0.000000000000000D+00 0.000000000000000D+00 -.190815213538151D+04
 0.681218374648586D+03 -.171406824455962D+03 0.625578177816805D+03 0.166448544385916D+03
 0.133938687052416D+04 0.181695694064526D+03 -.516954348272942D+03 0.122217104592304D+04
 0.139487944096866D+04 -.401445432667149D+02 0.125748574119732D+03 -.138861959030895D+04
 0.270044344850610D+03 0.298556736581509D+02 -.234372403663594D+03 -.130775239770999D+03
0.552312963556D-01 0.000000000000D+00 0.000000000000D+00 0.631162191585D-04 0.000000000000D+00  6 1 1 25 1 1 21 0 0.25279139D+00 0.27175186D+00 0.42097819D+06 0.42097819D+06 0.42097819D+06 0.10738309D+01  1  2  2  2  6  2        1 0.162495709503D-01 0.100000000000D+01
0.365441760720D-01 0.000000000000D+00 -.212102720740D-03 0.631162191585D-04 0.000000000000D+00  6 1 1 25 1 1 21 2 0.25279139D+00 0.27175186D+00 0.42097819D+06 0.42097819D+06 0.42097819D+06 0.10738309D+01  1  2  3  2  6  2        1 0.123978577470D-01 0.100000000000D+01
-.405391874324D-01 0.000000000000D+00 0.000000000000D+00 0.631162191585D-04 0.000000000000D+00  6 1 1 25 1 1 21 2 0.25279139D+00 0.27175186D+00 0.42097819D+06 0.42097819D+06 0.42097819D+06 0.10738309D+01  1  2 15  2  6  2        1 -.137531922454D-01 0.100000000000D+01
-.215203406215D-02 0.000000000000D+00 0.000000000000D+00 0.631162191585D-04 0.000000000000D+00  6 1 1 25 1 1 21 2 0.25279139D+00 0.27175186D+00 0.42097819D+06 0.42097819D+06 0.42097819D+06 0.10738309D+01  1  2  4  2  6  2        1 -.730092043029D-03 0.100000000000D+01
-.270776061927D+00 0.000000000000D+00 -.830581376990D-01 0.631162191585D-04 0.000000000000D+00  6 1 1 25 1 1 21 2 0.25279139D+00 0.31002233D+00 0.42097819D+06 0.42097819D+06 0.42097819D+06 0.10738309D+01  1  2  5  2  6  2        1 -.626720306637D-01 0.100000000000D+01
0.280001282472D+00 0.000000000000D+00 0.823423973348D-01 0.631162191585D-04 0.000000000000D+00  6 1 1 25 1 1 21 2 0.25279139D+00 0.27175186D+00 0.42097819D+06 0.42097819D+06 0.42097819D+06 0.10738309D+01  1  2  6  2  6  2        1 0.949923200411D-01 0.100000000000D+01
-.509847780124D-02 0.000000000000D+00 -.170374288924D-02 0.631162191585D-04 0.000000000000D+00  6 1 21 25 1 1 -1 2 0.25279139D+00 0.31002233D+00 0.42097819D+06 0.42097819D+06 0.42097819D+06 0.10738309D+01  1  2  5  5  6  2        1 -.578740437356D-03 0.100000000000D+01
  </mgrwgt>
  </event>
  <event>
  5     66 0.18982733E-05 0.13872527E+03 0.75467711E-02 0.91304727E-01
        1 -1    0    0  501    0 0.00000000E+00 0.00000000E+00 0.29042655E+04 0.29042655E+04 0.32000000E+00 0.0000E+00 0.9000E+01
        1 -1    0    0  502    0 0.00000000E+00 0.00000000E+00 -.16221845E+04 0.16221846E+04 0.32000000E+00 0.0000E+00 0.9000E+01
       25  1    1    2    0    0 0.34186736E+03 -.39821040E+03 0.10302405E+03 0.54925747E+03 0.12500000E+03 0.0000E+00 0.9000E+01
        1  1    1    2  501    0 0.57703292E+02 -.12615772E+03 0.24984313E+04 0.25022798E+04 0.32000000E+00 0.0000E+00 0.9000E+01
        1  1    1    2  502    0 -.39957065E+03 0.52436812E+03 -.13193744E+04 0.14749127E+04 0.32000000E+00 0.0000E+00 0.9000E+01
#aMCatNLO 1  0  0  5  2 0.10299271D+03 0.00000000D+00  -5  6  0 0.00000000D+00 0.00000000D+00 0.00000000D+00 0.00000000D+00 0.00000000D+00
  <mgrwgt>
 0.1377879980D-01    8    2    0
 0.217054246949135D+04 0.000000000000000D+00 0.000000000000000D+00 0.217054246949135D+04
 0.217054246949135D+04 -.000000000000000D+00 -.000000000000000D+00 -.217054246949135D+04
 0.542321234500422D+03 0.341891877506580D+03 -.398242779230893D+03 -.547718383436375D+02
 0.187121367920111D+04 0.577021841601299D+02 -.126155297245532D+03 0.186606428939343D+04
 0.192755002528117D+04 -.399594061666709D+03 0.524398076476425D+03 -.181129245104979D+04
 0.000000000000000D+00 -.000000000000000D+00 0.000000000000000D+00 0.000000000000000D+00
 0.217054246949135D+04 0.000000000000000D+00 0.000000000000000D+00 0.217054246949135D+04
 0.217054246949135D+04 -.000000000000000D+00 -.000000000000000D+00 -.217054246949135D+04
 0.541996621428890D+03 0.341604733411840D+03 -.397865952282252D+03 -.560734140702553D+02
 0.186662162210818D+04 0.567123477131762D+02 -.124856308149839D+03 0.186157752781178D+04
 0.891637099258212D+03 -.828925504398152D+02 0.244003173097195D+03 -.853585375562212D+03
 0.104082959618742D+04 -.315424530685200D+03 0.278719087334895D+03 -.951918738179316D+03
0.211159016837D-01 0.000000000000D+00 0.000000000000D+00 0.258213750384D-04 0.000000000000D+00  6 1 1 25 1 1 21 0 0.44681007D+00 0.24956685D+00 0.44727184D+06 0.44727184D+06 0.44727184D+06 0.10719478D+01  1  2  2  3  6  5        1 0.104575671370D-02 0.100000000000D+01
0.549756682564D-02 0.000000000000D+00 -.810906224099D-04 0.258213750384D-04 0.000000000000D+00  6 1 1 25 1 1 21 2 0.44681007D+00 0.24956685D+00 0.44727184D+06 0.44727184D+06 0.44727184D+06 0.10719478D+01  1  2  3  3  6  5        1 0.312851940739D-03 0.100000000000D+01
-.150227709091D-01 0.000000000000D+00 0.000000000000D+00 0.258213750384D-04 0.000000000000D+00  6 1 1 25 1 1 21 2 0.44681007D+00 0.24956685D+00 0.44727184D+06 0.44727184D+06 0.44727184D+06 0.10719478D+01  1  2 15  3  6  5        1 -.854906030840D-03 0.100000000000D+01
0.259215801099D+00 0.000000000000D+00 0.000000000000D+00 0.258213750384D-04 0.000000000000D+00  6 1 1 25 1 1 21 2 0.44681007D+00 0.24956685D+00 0.45890043D+06 0.45890043D+06 0.45890043D+06 0.10711531D+01  1  2 12  3  6  5        1 0.146887804944D-01 0.100000000000D+01
0.945312624086D-09 0.000000000000D+00 0.000000000000D+00 0.258213750384D-04 0.000000000000D+00  6 1 1 25 1 1 21 2 0.44681007D+00 0.24956685D+00 0.45890043D+06 0.45890043D+06 0.45890043D+06 0.10711531D+01  1  2 12  3  6  5        1 0.535672963411D-10 0.100000000000D+01
-.206821267352D+00 0.000000000000D+00 0.000000000000D+00 0.258213750384D-04 0.000000000000D+00  6 1 1 25 1 1 21 2 0.44681007D+00 0.24956685D+00 0.44727184D+06 0.44727184D+06 0.44727184D+06 0.10719478D+01  1  2  4  3  6  5        1 -.117696495431D-01 0.100000000000D+01
-.279676203498D+00 0.000000000000D+00 0.000000000000D+00 0.258213750384D-04 0.000000000000D+00  6 1 1 25 1 1 21 2 0.44681007D+00 0.24956685D+00 0.44727184D+06 0.44727184D+06 0.44727184D+06 0.10719478D+01  1  2  5  3  6  5        1 -.159156306450D-01 0.100000000000D+01
0.461655627753D+00 0.000000000000D+00 -.000000000000D+00 0.258213750384D-04 0.000000000000D+00  6 1 1 25 1 1 21 2 0.44681007D+00 0.24956685D+00 0.44727184D+06 0.44727184D+06 0.44727184D+06 0.10719478D+01  1  2  6  3  6  5        1 0.262715968130D-01 0.100000000000D+01
  </mgrwgt>
  </event>
  <event>
  6     66 0.18982733E-05 0.15599414E+03 0.75467711E-02 0.93283148E-01
        1 -1    0    0  501    0 0.00000000E+00 0.00000000E+00 0.19726640E+04 0.19726641E+04 0.32000000E+00 0.0000E+00 0.9000E+01
        1 -1    0    0  503    0 0.00000000E+00 0.00000000E+00 -.13651036E+04 0.13651036E+04 0.32000000E+00 0.0000E+00 0.9000E+01
       25  1    1    2    0    0 -.16545415E+03 -.45326181E+03 0.42844485E+03 0.65727569E+03 0.12500000E+03 0.0000E+00 0.9000E+01
        1  1    1    2  501    0 0.19011945E+03 0.13415120E+03 0.13802517E+04 0.13997274E+04 0.32000000E+00 0.0000E+00 0.9000E+01
        1  1    1    2  502    0 0.10391920E+03 0.11271251E+03 -.20862615E+03 0.25889821E+03 0.32000000E+00 0.0000E+00 0.9000E+01
       21  1    1    2  503  502 -.12858449E+03 0.20639811E+03 -.99251000E+03 0.10218663E+04 0.75000000E+00 0.0000E+00 0.9000E+01
#aMCatNLO 2  0  0  2  4 0.71197482D+02 0.00000000D+00  -5  6  0 0.00000000D+00 0.00000000D+00 0.00000000D+00 0.00000000D+00 0.00000000D+00
  <mgrwgt>
 0.1053771822D-02    1    2    0
 0.828257129729617D+03 0.000000000000000D+00 0.000000000000000D+00 0.828257129729617D+03
 0.828257129729617D+03 0.000000000000000D+00 0.000000000000000D+00 -.828257129729617D+03
 0.461431796380692D+03 -.202557110590318D+03 -.393714743502882D+03 -.354065023530247D+02
 0.625576123858833D+03 0.142131902487180D+03 0.211137589501213D+03 0.571458596345556D+03
 0.569506339219709D+03 0.604252081031375D+02 0.182577154001668D+03 -.536052093992531D+03
 0.000000000000000D+00 -.000000000000000D+00 0.000000000000000D+00 -.000000000000000D+00
 0.843409616638354D+03 0.000000000000000D+00 0.000000000000000D+00 0.843409616638354D+03
 0.319286195728737D+04 0.000000000000000D+00 0.000000000000000D+00 -.319286195728737D+04
 0.499710039756074D+03 -.165452333246532D+03 -.453273679852935D+03 -.354065023530247D+02
 0.617006281437969D+03 0.190101662772678D+03 0.134138666340992D+03 0.571458596345556D+03
 0.557551770254774D+03 0.103935165357363D+03 0.112736908076247D+03 -.536052093992531D+03
 0.236200348247691D+04 -.128584494883508D+03 0.206398105435695D+03 -.234945234064902D+04
0.265315846623D-02 0.000000000000D+00 0.000000000000D+00 0.208938098071D-05 0.679297597802D-09  6 1 1 25 1 1 21 2 0.30348676D+00 0.21001593D+00 0.31788644D+06 0.31788644D+06 0.31788644D+06 0.10826960D+01  1  2  1  2  6  2        1 0.105377182176D-02 0.100000000000D+01
  </mgrwgt>
  </event>
  <event>
  5     66 0.18982733E-05 0.81506706E+02 0.75467711E-02 0.94019051E-01
        1 -1    0    0  501    0 0.00000000E+00 0.00000000E+00 0.17086121E+03 0.17086151E+03 0.32000000E+00 0.0000E+00 0.9000E+01
        1 -1    0    0  502    0 -.00000000E+00 -.00000000E+00 -.23311308E+04 0.23311308E+04 0.32000000E+00 0.0000E+00 0.9000E+01
       25  1    1    2    0    0 -.44406628E+03 0.12572794E+03 -.68034932E+03 0.83156633E+03 0.12500000E+03 0.0000E+00 0.9000E+01
        1  1    1    2  501    0 -.47760988E+02 -.66141511E+02 0.25583693E+02 0.85501106E+02 0.32000000E+00 0.0000E+00 0.9000E+01
        1  1    1    2  502    0 0.49182727E+03 -.59586424E+02 -.15055039E+04 0.15849249E+04 0.32000000E+00 0.0000E+00 0.9000E+01
#aMCatNLO 1  0  0  5  2 0.33314764D+01 0.00000000D+00  -5  6  0 0.00000000D+00 0.00000000D+00 0.00000000D+00 0.00000000D+00 0.00000000D+00
  <mgrwgt>
 0.1749242487D-02    3    2    0
 0.631110313437943D+03 0.000000000000000D+00 0.000000000000000D+00 0.631110313437943D+03
 0.631110313437943D+03 -.000000000000000D+00 -.000000000000000D+00 -.631110313437943D+03
 0.484081981727507D+03 -.444212998169447D+03 0.125707453793013D+03 0.747182263669231D+02
 0.213067524394395D+03 -.477162311563510D+02 -.660795305815523D+02 0.196861440800152D+03
 0.565071120753984D+03 0.491929229325797D+03 -.596279232114604D+02 -.271579667167075D+03
 0.000000000000000D+00 -.000000000000000D+00 0.000000000000000D+00 0.000000000000000D+00
 0.631110313437943D+03 0.000000000000000D+00 0.000000000000000D+00 0.631110313437943D+03
 0.631110313437943D+03 -.000000000000000D+00 -.000000000000000D+00 -.631110313437943D+03
 0.297091254120188D+03 -.247205066661715D+03 0.101827649317699D+03 -.340440615367078D+02
 0.170403635210492D+03 0.489932520668550D+02 -.778019192823754D+02 0.143470977904393D+03
 0.413178159820049D+03 0.210870099134341D+03 0.352182389493990D+03 -.470909500186399D+02
 0.381547577725157D+03 -.126582845394817D+02 -.376208119529314D+03 -.623359663490452D+02
0.116611326389D-02 0.000000000000D+00 0.000000000000D+00 0.125212669771D-06 0.000000000000D+00  6 1 1 25 1 1 21 0 0.26286365D-01 0.35863553D+00 0.27842371D+06 0.27842371D+06 0.27842371D+06 0.10869582D+01  1  2  2  3  6  5        1 0.514996231309D-02 0.100000000000D+01
0.175079115179D-03 0.000000000000D+00 -.447818197801D-05 0.125212669771D-06 0.000000000000D+00  6 1 1 25 1 1 21 2 0.26286365D-01 0.35863553D+00 0.27842371D+06 0.27842371D+06 0.27842371D+06 0.10869582D+01  1  2  3  3  6  5        1 0.913531200613D-03 0.100000000000D+01
-.826830273402D-03 0.000000000000D+00 0.000000000000D+00 0.125212669771D-06 0.000000000000D+00  6 1 1 25 1 1 21 2 0.26286365D-01 0.35863553D+00 0.27842371D+06 0.27842371D+06 0.27842371D+06 0.10869582D+01  1  2 15  3  6  5        1 -.431425102640D-02 0.100000000000D+01
  </mgrwgt>
  </event>
  <event>
  5     66 0.18982733E-05 0.25153238E+03 0.75467711E-02 0.92208786E-01
        1 -1    0    0  501    0 0.00000000E+00 0.00000000E+00 0.79157803E+03 0.79157810E+03 0.32000000E+00 0.0000E+00 0.9000E+01
        1 -1    0    0  502    0 0.00000000E+00 0.00000000E+00 -.29256981E+04 0.29256981E+04 0.32000000E+00 0.0000E+00 0.9000E+01
       25  1    1    2    0    0 -.54813859E+03 0.25280769E+03 0.33521861E+03 0.70168665E+03 0.12500000E+03 0.0000E+00 0.9000E+01
        1  1    1    2  501    0 0.17931150E+03 -.17653442E+03 0.19899566E+03 0.32080584E+03 0.32000000E+00 0.0000E+00 0.9000E+01
        1  1    1    2  502    0 0.36882709E+03 -.76273272E+02 -.26683343E+04 0.26947837E+04 0.32000000E+00 0.0000E+00 0.9000E+01
#aMCatNLO 1  0  0  2  4 0.71197482D+02 0.00000000D+00  -5  6  0 0.00000000D+00 0.00000000D+00 0.00000000D+00 0.00000000D+00 0.00000000D+00
  <mgrwgt>
 0.2317768025D-04    1    2    0
 0.152181420486524D+04 0.000000000000000D+00 0.000000000000000D+00 0.152181420486524D+04
 0.152181420486524D+04 0.000000000000000D+00 0.000000000000000D+00 -.152181420486524D+04
 0.109219229821996D+04 -.548110197093836D+03 0.252750113093591D+03 0.901638291369619D+03
 0.531137461840606D+03 0.179242844164433D+03 -.176466827745600D+03 0.467801736734411D+03
 0.142029864966992D+04 0.368867352929403D+03 -.762832853479906D+02 -.136944002810403D+04
 0.000000000000000D+00 0.000000000000000D+00 -.000000000000000D+00 -.000000000000000D+00
 0.170934241028828D+04 0.000000000000000D+00 0.000000000000000D+00 0.170934241028828D+04
 0.245169786033626D+04 0.000000000000000D+00 0.000000000000000D+00 -.245169786033626D+04
 0.124712945216115D+04 -.709680867736848D+03 0.472343442795738D+03 0.901638291369619D+03
 0.487077111901126D+03 0.108917498148590D+03 -.808865047042003D+02 0.467801736734411D+03
 0.139323714271964D+04 0.174543991989234D+03 0.187824759125301D+03 -.136944002810403D+04
 0.103359656384262D+04 0.426219377599025D+03 -.579281697216839D+03 -.742355450047984D+03
0.101712880769D-03 0.000000000000D+00 0.000000000000D+00 0.545610696908D-06 0.000000000000D+00  6 1 1 25 1 1 21 2 0.12178124D+00 0.45010740D+00 0.38725205D+06 0.38725205D+06 0.38725205D+06 0.10764431D+01  1  2 14  2  6  2        1 0.231776802504D-04 0.100000000000D+01
  </mgrwgt>
  </event>
  <event>
  5     66 0.18982733E-05 0.24622201E+02 0.75467711E-02 0.77624110E-01
        1 -1    0    0  501    0 0.00000000E+00 0.00000000E+00 0.10017241E+04 0.10017241E+04 0.32000000E+00 0.0000E+00 0.9000E+01
        1 -1    0    0  502    0 0.00000000E+00 0.00000000E+00 -.97039699E+03 0.97039704E+03 0.32000000E+00 0.0000E+00 0.9000E+01
       25  1    1    2    0    0 -.19566647E+03 -.46391528E+03 -.20081679E+03 0.55628692E+03 0.12500000E+03 0.0000E+00 0.9000E+01
        1  1    1    2  501    0 0.17286623E+03 0.47320620E+03 0.74666158E+03 0.90072774E+03 0.32000000E+00 0.0000E+00 0.9000E+01
        1  1    1    2  502    0 0.22800236E+02 -.92909197E+01 -.51451769E+03 0.51510652E+03 0.32000000E+00 0.0000E+00 0.9000E+01
#aMCatNLO 1  0  0  1  4 0.23479308D+02 0.00000000D+00  -5  6  0 0.00000000D+00 0.00000000D+00 0.00000000D+00 0.00000000D+00 0.00000000D+00
  <mgrwgt>
 0.2629900811D-01    3    2    0
 0.985936173636022D+03 0.000000000000000D+00 0.000000000000000D+00 0.985936173636022D+03
 0.985936173636022D+03 0.000000000000000D+00 0.000000000000000D+00 -.985936173636022D+03
 0.559525064332248D+03 -.195665751251711D+03 -.463908520142879D+03 -.209635627558756D+03
 0.888967257012177D+03 0.172863918166465D+03 0.473199871659566D+03 0.732436161926254D+03
 0.523380025927619D+03 0.228018330852462D+02 -.929135151668652D+01 -.522800534367498D+03
 0.000000000000000D+00 0.000000000000000D+00 -.000000000000000D+00 -.000000000000000D+00
 0.245240412478186D+04 0.000000000000000D+00 0.000000000000000D+00 0.245240412478186D+04
 0.523222909153543D+04 0.000000000000000D+00 0.000000000000000D+00 -.523222909153543D+04
 0.717620618509730D+03 -.674066508175152D+03 0.322738024547875D+02 -.209635627558756D+03
 0.195565327745401D+04 -.892690806820199D+03 0.157835995062535D+04 0.732436161926254D+03
 0.919248988553127D+03 -.517586645503614D+03 0.551182699853072D+03 -.522800534367498D+03
 0.409211033180042D+04 0.208434396049896D+04 -.216181645293321D+04 -.277982496675357D+04
0.127579307846D-01 0.000000000000D+00 0.000000000000D+00 0.176058627587D-04 0.000000000000D+00  6 1 1 25 1 1 21 0 0.15411141D+00 0.14929185D+00 0.27414484D+06 0.27414484D+06 0.27414484D+06 0.10874596D+01  1  2  2  1  6  1        1 0.391567532860D-01 0.100000000000D+01
0.801275419848D-02 0.000000000000D+00 -.489938134530D-04 0.176058627587D-04 0.000000000000D+00  6 1 1 25 1 1 21 2 0.15411141D+00 0.14929185D+00 0.27414484D+06 0.27414484D+06 0.27414484D+06 0.10874596D+01  1  2  3  1  6  1        1 0.290826879654D-01 0.100000000000D+01
-.115552724074D-01 0.000000000000D+00 0.000000000000D+00 0.176058627587D-04 0.000000000000D+00  6 1 1 25 1 1 21 2 0.15411141D+00 0.14929185D+00 0.27414484D+06 0.27414484D+06 0.27414484D+06 0.10874596D+01  1  2 15  1  6  1        1 -.419404331464D-01 0.100000000000D+01
  </mgrwgt>
  </event>
  <event>
  5     66 0.18982733E-05 0.10237434E+03 0.75467711E-02 0.92213004E-01
        1 -1    0    0  501    0 0.00000000E+00 0.00000000E+00 0.89312430E+03 0.89312436E+03 0.32000000E+00 0.0000E+00 0.9000E+01
        1 -1    0    0  502    0 0.00000000E+00 0.00000000E+00 -.24981567E+04 0.24981567E+04 0.32000000E+00 0.0000E+00 0.9000E+01
       25  1    1    2    0    0 -.42084038E+03 -.39390163E+03 0.12041139E+03 0.60198756E+03 0.12500000E+03 0.0000E+00 0.9000E+01
        1  1    1    2  501    0 0.43662519E+03 0.29276199E+03 0.40050932E+03 0.66087741E+03 0.32000000E+00 0.0000E+00 0.9000E+01
        1  1    1    2  502    0 -.15784805E+02 0.10113964E+03 -.21259531E+04 0.21284161E+04 0.32000000E+00 0.0000E+00 0.9000E+01
#aMCatNLO 1  0  0  2  1 0.35566987D+02 0.00000000D+00  -5  6  0 0.00000000D+00 0.00000000D+00 0.00000000D+00 0.00000000D+00 0.00000000D+00
  <mgrwgt>
 0.5372702742D-03    4    2    0
 0.149370832762283D+04 0.000000000000000D+00 0.000000000000000D+00 0.149370832762283D+04
 0.149370832762283D+04 0.000000000000000D+00 0.000000000000000D+00 -.149370832762283D+04
 0.748111029859764D+03 -.420792038176790D+03 -.393880342920177D+03 0.460258024444924D+03
 0.965295640479559D+03 0.436578094811903D+03 0.292730420084728D+03 0.809632102757956D+03
 0.127400998490634D+04 -.157860566351134D+02 0.101149922835449D+03 -.126989012720288D+04
 0.000000000000000D+00 -.000000000000000D+00 0.000000000000000D+00 0.000000000000000D+00
 0.151353059940684D+04 0.000000000000000D+00 0.000000000000000D+00 0.151353059940684D+04
 0.150985425461791D+04 0.000000000000000D+00 0.000000000000000D+00 -.150985425461791D+04
 0.747706059628081D+03 -.414286984005552D+03 -.399960244802143D+03 0.460258024444924D+03
 0.966781642584599D+03 0.444980370382678D+03 0.284877293929157D+03 0.809632102757956D+03
 0.127314066868849D+04 -.470893156388443D+01 0.907967679201336D+02 -.126989012720288D+04
 0.357564831235944D+02 -.259844548132413D+02 0.242861829528523D+02 0.367634478893065D+01
0.346737763250D-02 0.000000000000D+00 0.000000000000D+00 0.100476044192D-04 0.000000000000D+00  6 1 1 25 1 1 21 0 0.13740374D+00 0.38433180D+00 0.37074834D+06 0.37074834D+06 0.37074834D+06 0.10778133D+01  1  2  2  2  6  2        1 0.113578393795D-02 0.100000000000D+01
0.105271356147D-02 0.000000000000D+00 -.133156430903D-04 0.100476044192D-04 0.000000000000D+00  6 1 1 25 1 1 21 2 0.13740374D+00 0.38433180D+00 0.37074834D+06 0.37074834D+06 0.37074834D+06 0.10778133D+01  1  2  3  2  6  2        1 0.400582390634D-03 0.100000000000D+01
-.254038923166D-02 0.000000000000D+00 0.000000000000D+00 0.100476044192D-04 0.000000000000D+00  6 1 1 25 1 1 21 2 0.13740374D+00 0.38433180D+00 0.37074834D+06 0.37074834D+06 0.37074834D+06 0.10778133D+01  1  2 15  2  6  2        1 -.966678143807D-03 0.100000000000D+01
-.851928964416D-04 0.000000000000D+00 0.000000000000D+00 0.100476044192D-04 0.000000000000D+00  6 1 1 25 1 1 21 2 0.13740374D+00 0.38433180D+00 0.37074834D+06 0.37074834D+06 0.37074834D+06 0.10778133D+01  1  2  4  2  6  2        1 -.324179105986D-04 0.100000000000D+01
  </mgrwgt>
  </event>
  <event>
  5     66 0.18982733E-05 0.60232042E+02 0.75467711E-02 0.92910839E-01
        1 -1    0    0  501    0 0.00000000E+00 0.00000000E+00 0.56193455E+03 0.56193464E+03 0.32000000E+00 0.0000E+00 0.9000E+01
        1 -1    0    0  502    0 0.00000000E+00 0.00000000E+00 -.22966066E+04 0.22966067E+04 0.32000000E+00 0.0000E+00 0.9000E+01
       25  1    1    2    0    0 0.46169141E+03 0.22456872E+03 -.34127804E+03 0.62903559E+03 0.12500000E+03 0.0000E+00 0.9000E+01
        1  1    1    2  501    0 -.51306071E+03 -.25600723E+03 0.22062252E+03 0.61436584E+03 0.32000000E+00 0.0000E+00 0.9000E+01
        1  1    1    2  502    0 0.51369293E+02 0.31438509E+02 -.16140166E+04 0.16151399E+04 0.32000000E+00 0.0000E+00 0.9000E+01
#aMCatNLO 1  0  0  2  5 0.54862705D+01 0.00000000D+00  -5  6  0 0.00000000D+00 0.00000000D+00 0.00000000D+00 0.00000000D+00 0.00000000D+00
  <mgrwgt>
 0.2256744353D-01   13    2    0
 0.113602058541201D+04 0.000000000000000D+00 0.000000000000000D+00 0.113602058541201D+04
 0.113602058541201D+04 0.000000000000000D+00 0.000000000000000D+00 -.113602058541201D+04
 0.530832301296865D+03 0.461664929354548D+03 0.224554898559257D+03 0.509757063435947D+02
 0.941359858024483D+03 -.513039265940538D+03 -.255996532807984D+03 0.746602216105310D+03
 0.799849011502666D+03 0.513743365859909D+02 0.314416342487278D+02 -.797577922448904D+03
 0.000000000000000D+00 0.000000000000000D+00 0.000000000000000D+00 -.000000000000000D+00
 0.113610006243062D+04 0.000000000000000D+00 0.000000000000000D+00 0.113610006243062D+04
 0.123481966438649D+04 0.000000000000000D+00 0.000000000000000D+00 -.123481966438649D+04
 0.529605812897720D+03 0.460600868930466D+03 0.223842877836946D+03 0.509757063435947D+02
 0.942735960597309D+03 -.514929797569813D+03 -.257261590379681D+03 0.746602216105310D+03
 0.799706021135055D+03 0.497693176946595D+02 0.303676287839402D+02 -.797577922448904D+03
 0.988719321870295D+02 0.455961094468727D+01 0.305108375879433D+01 -.987196019558753D+02
0.552633757366D-04 0.000000000000D+00 0.000000000000D+00 0.926536394387D-05 0.000000000000D+00  6 1 1 25 1 1 21 0 0.86451478D-01 0.35332411D+00 0.33754512D+06 0.33754512D+06 0.33754512D+06 0.10807833D+01  1  2  2  2  6  2        1 0.512414236188D-04 0.100000000000D+01
0.228984148992D-04 0.000000000000D+00 -.212225914010D-06 0.926536394387D-05 0.000000000000D+00  6 1 1 25 1 1 21 2 0.86451478D-01 0.35332411D+00 0.33754512D+06 0.33754512D+06 0.33754512D+06 0.10807833D+01  1  2  3  2  6  2        1 0.248008430671D-04 0.100000000000D+01
-.394116030792D-04 0.000000000000D+00 0.000000000000D+00 0.926536394387D-05 0.000000000000D+00  6 1 1 25 1 1 21 2 0.86451478D-01 0.35332411D+00 0.33754512D+06 0.33754512D+06 0.33754512D+06 0.10807833D+01  1  2 15  2  6  2        1 -.426859670110D-04 0.100000000000D+01
0.263786489701D-01 0.000000000000D+00 0.000000000000D+00 0.926536394387D-05 0.000000000000D+00  6 1 1 25 1 1 21 2 0.86451478D-01 0.39652609D+00 0.34021189D+06 0.34021189D+06 0.34021189D+06 0.10805332D+01  1  2 12  2  6  2        1 0.182722533348D-01 0.100000000000D+01
0.679617202408D-08 0.000000000000D+00 0.000000000000D+00 0.926536394387D-05 0.000000000000D+00  6 1 1 25 1 1 21 2 0.86451478D-01 0.38406872D+00 0.34021189D+06 0.34021189D+06 0.34021189D+06 0.10805332D+01  1  2 12  2  6  2        1 0.536121251622D-08 0.100000000000D+01
-.196003130952D-01 0.000000000000D+00 0.000000000000D+00 0.926536394387D-05 0.000000000000D+00  6 1 1 25 1 1 21 2 0.86451478D-01 0.35332411D+00 0.33754512D+06 0.33754512D+06 0.33754512D+06 0.10807833D+01  1  2  4  2  6  2        1 -.212287309528D-01 0.100000000000D+01
-.656027265888D-01 0.000000000000D+00 -.113242743141D-03 0.926536394387D-05 0.000000000000D+00  6 1 1 25 1 1 21 2 0.86451478D-01 0.38406044D+00 0.33754512D+06 0.33754512D+06 0.33754512D+06 0.10807833D+01  1  2  5  2  6  2        1 -.518103275967D-01 0.100000000000D+01
0.653849618228D-01 0.000000000000D+00 0.112849915020D-03 0.926536394387D-05 0.000000000000D+00  6 1 1 25 1 1 21 2 0.86451478D-01 0.35332411D+00 0.33754512D+06 0.33754512D+06 0.33754512D+06 0.10807833D+01  1  2  6  2  6  2        1 0.708172239981D-01 0.100000000000D+01
0.826234722495D-02 0.000000000000D+00 0.000000000000D+00 0.926536394387D-05 0.354457836071D-04  6 1 1 25 1 1 21 2 0.86457526D-01 0.38405251D+00 0.34021189D+06 0.34021189D+06 0.34021189D+06 0.10805332D+01  1  2 11  2  6  2        1 0.651825763344D-02 0.100000000000D+01
0.514088850874D-03 0.000000000000D+00 0.000000000000D+00 0.926536394387D-05 0.000000000000D+00  6 1 21 25 1 1 -1 2 0.86451478D-01 0.39652609D+00 0.34021189D+06 0.34021189D+06 0.34021189D+06 0.10805332D+01  1  2 12  5  6  2        1 0.112748178200D-03 0.100000000000D+01
0.100056490611D-09 0.000000000000D+00 0.000000000000D+00 0.926536394387D-05 0.000000000000D+00  6 1 21 25 1 1 -1 2 0.86451478D-01 0.38406872D+00 0.34021189D+06 0.34021189D+06 0.34021189D+06 0.10805332D+01  1  2 12  5  6  2        1 0.266763873567D-10 0.100000000000D+01
-.941747869242D-03 0.000000000000D+00 -.156965027438D-05 0.926536394387D-05 0.000000000000D+00  6 1 21 25 1 1 -1 2 0.86451478D-01 0.38406044D+00 0.33754512D+06 0.33754512D+06 0.33754512D+06 0.10807833D+01  1  2  5  5  6  2        1 -.251477909879D-03 0.100000000000D+01
0.390525604828D-03 0.000000000000D+00 0.000000000000D+00 0.926536394387D-05 0.281541299610D-07  6 1 21 25 1 1 -1 2 0.86457526D-01 0.38405251D+00 0.34021189D+06 0.34021189D+06 0.34021189D+06 0.10805332D+01  1  2 11  5  6  2        1 0.104135156281D-03 0.100000000000D+01
  </mgrwgt>
  </event>
  <event>
  5     66 -.18982733E-05 0.75457555E+02 0.75467711E-02 0.92110498E-01
        1 -1    0    0  501    0 0.00000000E+00 0.00000000E+00 0.16167458E+04 0.16167459E+04 0.32000000E+00 0.0000E+00 0.9000E+01
        1 -1    0    0  502    0 0.00000000E+00 0.00000000E+00 -.15517360E+04 0.15517360E+04 0.32000000E+00 0.0000E+00 0.9000E+01
       25  1    1    2    0    0 0.20128813E+03 -.54432045E+03 -.86647418E+02 0.59994536E+03 0.12500000E+03 0.0000E+00 0.9000E+01
        1  1    1    2  501    0 -.25284835E+03 0.48923384E+03 0.13030650E+04 0.14146592E+04 0.32000000E+00 0.0000E+00 0.9000E+01
        1  1    1    2  502    0 0.51560225E+02 0.55086612E+02 -.11514078E+04 0.11538774E+04 0.32000000E+00 0.0000E+00 0.9000E+01
#aMCatNLO 1  0  0  1  4 0.40776426D+02 0.00000000D+00  -5  6  0 0.00000000D+00 0.00000000D+00 0.00000000D+00 0.00000000D+00 0.00000000D+00
  <mgrwgt>
 -.2992796734D-01   11    2    0
 0.158390746313236D+04 0.000000000000000D+00 0.000000000000000D+00 0.158390746313236D+04
 0.158390746313236D+04 0.000000000000000D+00 0.000000000000000D+00 -.158390746313236D+04
 0.601829814580335D+03 0.201279375003901D+03 -.544314889120993D+03 -.989041980759157D+02
 0.138818755938530D+04 -.252843255216541D+03 0.489223974357518D+03 0.127428210818384D+04
 0.117779755229909D+04 0.515638802126397D+02 0.550909147634749D+02 -.117537791010792D+04
 0.000000000000000D+00 -.000000000000000D+00 0.000000000000000D+00 0.000000000000000D+00
 0.202386890216874D+04 0.000000000000000D+00 0.000000000000000D+00 0.202386890216874D+04
 0.158498376741163D+04 0.000000000000000D+00 0.000000000000000D+00 -.158498376741163D+04
 0.607705457941546D+03 0.207954947517564D+03 -.548318906310799D+03 -.989041980759157D+02
 0.138227233330263D+04 -.237552749573599D+03 0.480052708925247D+03 0.127428210818384D+04
 0.117809956323411D+04 0.645663633867605D+02 0.472920082228308D+02 -.117537791010792D+04
 0.440775315102080D+03 -.349685613307258D+02 0.209741891627214D+02 0.438885134757107D+03
0.597416102153D-03 0.000000000000D+00 0.000000000000D+00 0.431469808964D-04 0.000000000000D+00  6 1 1 25 1 1 21 0 0.24873014D+00 0.23872862D+00 0.37198058D+06 0.37198058D+06 0.37198058D+06 0.10777087D+01  1  2  2  1  6  1        1 0.257556925782D-03 0.100000000000D+01
0.228009640022D-03 0.000000000000D+00 -.229423513554D-05 0.431469808964D-04 0.000000000000D+00  6 1 1 25 1 1 21 2 0.24873014D+00 0.23872862D+00 0.37198058D+06 0.37198058D+06 0.37198058D+06 0.10777087D+01  1  2  3  1  6  1        1 0.114170076920D-03 0.100000000000D+01
-.393381963119D-03 0.000000000000D+00 0.000000000000D+00 0.431469808964D-04 0.000000000000D+00  6 1 1 25 1 1 21 2 0.24873014D+00 0.23872862D+00 0.37198058D+06 0.37198058D+06 0.37198058D+06 0.10777087D+01  1  2 15  1  6  1        1 -.196976097081D-03 0.100000000000D+01
0.107129831042D+00 0.000000000000D+00 0.000000000000D+00 0.431469808964D-04 0.000000000000D+00  6 1 1 25 1 1 21 2 0.32040897D+00 0.23872862D+00 0.39440067D+06 0.39440067D+06 0.39440067D+06 0.10758693D+01  1  2 12  1  6  1        1 0.259891874479D-01 0.100000000000D+01
0.922761189080D-09 0.000000000000D+00 0.000000000000D+00 0.431469808964D-04 0.000000000000D+00  6 1 1 25 1 1 21 2 0.31792109D+00 0.23872862D+00 0.39440067D+06 0.39440067D+06 0.39440067D+06 0.10758693D+01  1  2 12  1  6  1        1 0.229518838729D-09 0.100000000000D+01
-.164539682831D+00 0.000000000000D+00 0.000000000000D+00 0.431469808964D-04 0.000000000000D+00  6 1 1 25 1 1 21 2 0.24873014D+00 0.23872862D+00 0.37198058D+06 0.37198058D+06 0.37198058D+06 0.10777087D+01  1  2  4  1  6  1        1 -.823890965462D-01 0.100000000000D+01
-.111678396039D+00 0.000000000000D+00 -.610578063379D-03 0.431469808964D-04 0.000000000000D+00  6 1 1 25 1 1 21 2 0.31788470D+00 0.23872862D+00 0.37198058D+06 0.37198058D+06 0.37198058D+06 0.10777087D+01  1  2  5  1  6  1        1 -.280349131211D-01 0.100000000000D+01
0.108562922547D+00 0.000000000000D+00 0.592654864315D-03 0.431469808964D-04 0.000000000000D+00  6 1 1 25 1 1 21 2 0.24873014D+00 0.23872862D+00 0.37198058D+06 0.37198058D+06 0.37198058D+06 0.10777087D+01  1  2  6  1  6  1        1 0.543601455477D-01 0.100000000000D+01
0.366008163327D-02 0.000000000000D+00 0.000000000000D+00 0.431469808964D-04 0.000000000000D+00  6 21 1 25 1 1 -1 2 0.32040897D+00 0.23872862D+00 0.39440067D+06 0.39440067D+06 0.39440067D+06 0.10758693D+01  1  2 12  4  6  1        1 0.413794970642D-03 0.100000000000D+01
0.308069126583D-10 0.000000000000D+00 0.000000000000D+00 0.431469808964D-04 0.000000000000D+00  6 21 1 25 1 1 -1 2 0.31792109D+00 0.23872862D+00 0.39440067D+06 0.39440067D+06 0.39440067D+06 0.10758693D+01  1  2 12  4  6  1        1 0.361740667603D-11 0.100000000000D+01
-.371724108174D-02 0.000000000000D+00 -.203774660793D-04 0.431469808964D-04 0.000000000000D+00  6 21 1 25 1 1 -1 2 0.31788470D+00 0.23872862D+00 0.37198058D+06 0.37198058D+06 0.37198058D+06 0.10777087D+01  1  2  5  4  6  1        1 -.441836780567D-03 0.100000000000D+01
  </mgrwgt>
  </event>
  <event>
  5     66 0.18982733E-05 0.26522056E+02 0.75467711E-02 0.88971603E-01
        1 -1    0    0  501    0 0.00000000E+00 0.00000000E+00 0.16900817E+04 0.16900817E+04 0.32000000E+00 0.0000E+00 0.9000E+01
        1 -1    0    0  502    0 0.00000000E+00 0.00000000E+00 -.15759737E+04 0.15759737E+04 0.32000000E+00 0.0000E+00 0.9000E+01
       25  1    1    2    0    0 0.12222397E+03 -.60877015E+03 -.19478662E+03 0.66265121E+03 0.12500000E+03 0.0000E+00 0.9000E+01
        1  1    1    2  501    0 -.95746545E+02 0.60726199E+03 0.13910937E+04 0.15208801E+04 0.32000000E+00 0.0000E+00 0.9000E+01
        1  1    1    2  502    0 -.26477427E+02 0.15081578E+01 -.10821991E+04 0.10825241E+04 0.32000000E+00 0.0000E+00 0.9000E+01
#aMCatNLO 1  0  0  1  4 0.16833976D+03 0.00000000D+00  -5  6  0 0.00000000D+00 0.00000000D+00 0.00000000D+00 0.00000000D+00 0.00000000D+00
  <mgrwgt>
 0.2463070504D-01    4    2    0
 0.163203074168199D+04 0.000000000000000D+00 0.000000000000000D+00 0.163203074168199D+04
 0.163203074168199D+04 0.000000000000000D+00 0.000000000000000D+00 -.163203074168199D+04
 0.669836915819417D+03 0.122224401493757D+03 -.608762252906227D+03 -.218005066249610D+03
 0.147315845941315D+04 -.957452706518790D+02 0.607253906374756D+03 0.133875740254944D+04
 0.112106610813142D+04 -.264791308418777D+02 0.150834653147058D+01 -.112075233629983D+04
 0.000000000000000D+00 0.000000000000000D+00 0.000000000000000D+00 -.000000000000000D+00
 0.171028420702464D+04 0.000000000000000D+00 0.000000000000000D+00 0.171028420702464D+04
 0.196101830010153D+04 0.000000000000000D+00 0.000000000000000D+00 -.196101830010153D+04
 0.667580024815226D+03 0.606680984497586D+02 -.615492698943124D+03 -.218005066249610D+03
 0.148219565487001D+04 -.231769174592272D+03 0.592381318192445D+03 0.133875740254944D+04
 0.112831048099749D+04 -.130009527963054D+03 -.981146503201120D+01 -.112075233629983D+04
 0.393216346443455D+03 0.301110604105568D+03 0.329228457826903D+02 -.250734093076886D+03
0.580299707845D-01 0.000000000000D+00 0.000000000000D+00 0.922765457023D-04 0.000000000000D+00  6 1 1 25 1 1 21 0 0.26001257D+00 0.24245749D+00 0.40618053D+06 0.40618053D+06 0.40618053D+06 0.10749479D+01  1  2  2  1  6  1        1 0.213635886521D-01 0.100000000000D+01
0.456600606519D-01 0.000000000000D+00 -.222850367455D-03 0.922765457023D-04 0.000000000000D+00  6 1 1 25 1 1 21 2 0.26001257D+00 0.24245749D+00 0.40618053D+06 0.40618053D+06 0.40618053D+06 0.10749479D+01  1  2  3  1  6  1        1 0.194237541714D-01 0.100000000000D+01
-.378645847695D-01 0.000000000000D+00 0.000000000000D+00 0.922765457023D-04 0.000000000000D+00  6 1 1 25 1 1 21 2 0.26001257D+00 0.24245749D+00 0.40618053D+06 0.40618053D+06 0.40618053D+06 0.10749479D+01  1  2 15  1  6  1        1 -.161075648140D-01 0.100000000000D+01
-.115357446749D-03 0.000000000000D+00 0.000000000000D+00 0.922765457023D-04 0.000000000000D+00  6 1 1 25 1 1 21 2 0.26001257D+00 0.24245749D+00 0.40618053D+06 0.40618053D+06 0.40618053D+06 0.10749479D+01  1  2  4  1  6  1        1 -.490729678299D-04 0.100000000000D+01
  </mgrwgt>
  </event>
  <event>
  6     66 -.18982733E-05 0.93284413E+02 0.75467711E-02 0.92161825E-01
        1 -1    0    0  501    0 0.00000000E+00 0.00000000E+00 0.76489609E+03 0.76489615E+03 0.32000000E+00 0.0000E+00 0.9000E+01
        1 -1    0    0  502    0 -.00000000E+00 -.00000000E+00 -.32530725E+04 0.32530726E+04 0.32000000E+00 0.0000E+00 0.9000E+01
       25  1    1    2    0    0 -.21665105E+02 -.59764485E+03 -.10991084E+03 0.62076899E+03 0.12500000E+03 0.0000E+00 0.9000E+01
        1  1    1    2  501    0 0.87807379E+02 0.86560395E+02 0.47814786E+03 0.49378975E+03 0.32000000E+00 0.0000E+00 0.9000E+01
        1  1    1    2  503    0 -.36962912E+02 0.21082342E+03 -.13788759E+04 0.13953894E+04 0.32000000E+00 0.0000E+00 0.9000E+01
       21  1    1    2  502  503 -.29179362E+02 0.30026104E+03 -.14775376E+04 0.15080206E+04 0.75000000E+00 0.0000E+00 0.9000E+01
#aMCatNLO 2  0  0  5  2 0.35693724D+02 0.00000000D+00  -5  6  0 0.00000000D+00 0.00000000D+00 0.00000000D+00 0.00000000D+00 0.00000000D+00
  <mgrwgt>
 -.3033532300D-03    3    2    0
 0.157742277975790D+04 0.000000000000000D+00 0.000000000000000D+00 0.157742277975790D+04
 0.157742277975790D+04 -.000000000000000D+00 -.000000000000000D+00 -.157742277975790D+04
 0.704291980829224D+03 -.216353514614657D+02 -.597818374142464D+03 0.350067561143778D+03
 0.100641145241126D+04 0.878255388699595D+02 0.863529828640027D+02 0.998846258749175D+03
 0.144414212627532D+04 -.661901874084938D+02 0.511465391278461D+03 -.134891381989295D+04
 0.000000000000000D+00 0.000000000000000D+00 0.000000000000000D+00 0.000000000000000D+00
 0.157742277975790D+04 0.000000000000000D+00 0.000000000000000D+00 0.157742277975790D+04
 0.157742277975790D+04 -.000000000000000D+00 -.000000000000000D+00 -.157742277975790D+04
 0.703990626663447D+03 -.216534450597151D+02 -.597678561132854D+03 0.349698825147013D+03
 0.100590343642552D+04 0.877996846721188D+02 0.865527636462085D+02 0.998319366680500D+03
 0.689433872474837D+03 -.369538895316698D+02 0.210767901076817D+03 -.655385662369726D+03
 0.755517623951992D+03 -.291923500807339D+02 0.300357896409828D+03 -.692632529457786D+03
-.108149751369D-01 0.000000000000D+00 0.000000000000D+00 0.133698115865D-04 0.000000000000D+00  6 1 1 25 1 1 21 2 0.11767633D+00 0.50047270D+00 0.39064936D+06 0.39064936D+06 0.39064936D+06 0.10761690D+01  1  2 13  3  6  5        1 -.146660140543D-02 0.100000000000D+01
-.327414378025D-09 0.000000000000D+00 0.000000000000D+00 0.133698115865D-04 0.000000000000D+00  6 1 1 25 1 1 21 2 0.11767633D+00 0.50047270D+00 0.39064936D+06 0.39064936D+06 0.39064936D+06 0.10761690D+01  1  2 13  3  6  5        1 -.444001378543D-10 0.100000000000D+01
0.857799571777D-02 0.000000000000D+00 0.000000000000D+00 0.133698115865D-04 0.148863310323D-07  6 1 1 25 1 1 21 2 0.11767633D+00 0.50047270D+00 0.39064936D+06 0.39064936D+06 0.39064936D+06 0.10761690D+01  1  2  1  3  6  5        1 0.116324821982D-02 0.100000000000D+01
  </mgrwgt>
  </event>
  <event>
  5     66 0.18982733E-05 0.28767267E+03 0.75467711E-02 0.89123983E-01
        1 -1    0    0  501    0 0.00000000E+00 0.00000000E+00 0.19611852E+04 0.19611852E+04 0.32000000E+00 0.0000E+00 0.9000E+01
        1 -1    0    0  502    0 -.00000000E+00 -.00000000E+00 -.31153685E+04 0.31153685E+04 0.32000000E+00 0.0000E+00 0.9000E+01
       25  1    1    2    0    0 0.60756436E+03 -.23970368E+03 -.60319081E+03 0.89780647E+03 0.12500000E+03 0.0000E+00 0.9000E+01
        1  1    1    2  501    0 -.27903193E+03 0.26711412E+03 0.17815893E+04 0.18229836E+04 0.32000000E+00 0.0000E+00 0.9000E+01
        1  1    1    2  502    0 -.32853243E+03 -.27410437E+02 -.23325817E+04 0.23557637E+04 0.32000000E+00 0.0000E+00 0.9000E+01
#aMCatNLO 1  0  0  5  1 0.26686542D+03 0.00000000D+00  -5  6  0 0.00000000D+00 0.00000000D+00 0.00000000D+00 0.00000000D+00 0.00000000D+00
  <mgrwgt>
 0.1611195862D-03    7    2    0
 0.247180393234595D+04 0.000000000000000D+00 0.000000000000000D+00 0.247180393234595D+04
 0.247180393234595D+04 -.000000000000000D+00 -.000000000000000D+00 -.247180393234595D+04
 0.781112282940604D+03 0.607578112217391D+03 -.239701581562907D+03 -.409760159009236D+03
 0.228793934628360D+04 -.279029965415107D+03 0.267112235820012D+03 0.225509640240684D+04
 0.187455623546769D+04 -.328548146802284D+03 -.274106542571059D+02 -.184533624339761D+04
 0.000000000000000D+00 0.000000000000000D+00 0.000000000000000D+00 -.000000000000000D+00
 0.247180393234595D+04 0.000000000000000D+00 0.000000000000000D+00 0.247180393234595D+04
 0.247180393234595D+04 -.000000000000000D+00 -.000000000000000D+00 -.247180393234595D+04
 0.785907482929161D+03 0.605429809045355D+03 -.239880813727389D+03 -.421826401792063D+03
 0.225419218894656D+04 -.285256993176639D+03 0.266592717123340D+03 0.222012143715795D+04
 0.101530239602536D+04 -.233802210652773D+03 -.273432845743873D+03 -.949426121684636D+03
 0.888205796790812D+03 -.863706052159430D+02 0.246720942347921D+03 -.848868913681250D+03
0.524377322182D-02 0.000000000000D+00 0.000000000000D+00 0.144344147243D-04 0.000000000000D+00  6 1 1 25 1 1 21 0 0.30172080D+00 0.47928746D+00 0.47676844D+06 0.47676844D+06 0.47676844D+06 0.10699738D+01  1  2  2  3  6  5        1 0.106269766626D-03 0.100000000000D+01
0.614205173550D-03 0.000000000000D+00 -.201374698890D-04 0.144344147243D-04 0.000000000000D+00  6 1 1 25 1 1 21 2 0.30172080D+00 0.47928746D+00 0.47676844D+06 0.47676844D+06 0.47676844D+06 0.10699738D+01  1  2  3  3  6  5        1 0.142503511828D-04 0.100000000000D+01
-.394312248187D-02 0.000000000000D+00 0.000000000000D+00 0.144344147243D-04 0.000000000000D+00  6 1 1 25 1 1 21 2 0.30172080D+00 0.47928746D+00 0.47676844D+06 0.47676844D+06 0.47676844D+06 0.10699738D+01  1  2 15  3  6  5        1 -.914855207077D-04 0.100000000000D+01
0.396229081000D-10 0.000000000000D+00 0.000000000000D+00 0.144344147243D-04 0.000000000000D+00  6 1 1 25 1 1 21 2 0.30172080D+00 0.47928746D+00 0.70116593D+06 0.70116593D+06 0.70116593D+06 0.10582840D+01  1  2 12  3  6  5        1 0.859004584534D-12 0.100000000000D+01
-.115226261923D-02 0.000000000000D+00 0.000000000000D+00 0.144344147243D-04 0.000000000000D+00  6 1 1 25 1 1 21 2 0.30172080D+00 0.47928746D+00 0.47676844D+06 0.47676844D+06 0.47676844D+06 0.10699738D+01  1  2  4  3  6  5        1 -.267339769934D-04 0.100000000000D+01
-.120868840060D-01 0.000000000000D+00 0.000000000000D+00 0.144344147243D-04 0.000000000000D+00  6 1 1 25 1 1 21 2 0.30172080D+00 0.47928746D+00 0.47676844D+06 0.47676844D+06 0.47676844D+06 0.10699738D+01  1  2  5  3  6  5        1 -.280431278030D-03 0.100000000000D+01
0.189321490006D-01 0.000000000000D+00 -.000000000000D+00 0.144344147243D-04 0.000000000000D+00  6 1 1 25 1 1 21 2 0.30172080D+00 0.47928746D+00 0.47676844D+06 0.47676844D+06 0.47676844D+06 0.10699738D+01  1  2  6  3  6  5        1 0.439250243277D-03 0.100000000000D+01
  </mgrwgt>
  </event>
  <event>
  5     66 0.18982733E-05 0.10129620E+03 0.75467711E-02 0.95052775E-01
        1 -1    0    0  501    0 0.00000000E+00 0.00000000E+00 0.35567090E+03 0.35567105E+03 0.32000000E+00 0.0000E+00 0.9000E+01
        1 -1    0    0  502    0 -.00000000E+00 -.00000000E+00 -.17312653E+04 0.17312653E+04 0.32000000E+00 0.0000E+00 0.9000E+01
       25  1    1    2    0    0 -.46164325E+03 -.97125080E+02 -.38113126E+03 0.61922032E+03 0.12500000E+03 0.0000E+00 0.9000E+01
        1  1    1    2  501    0 0.36039814E+03 0.99710245E+02 0.85029506E+02 0.38348282E+03 0.32000000E+00 0.0000E+00 0.9000E+01
        1  1    1    2  502    0 0.10124511E+03 -.25851647E+01 -.10794926E+04 0.10842332E+04 0.32000000E+00 0.0000E+00 0.9000E+01
#aMCatNLO 1  0  0  5  1 0.26686542D+03 0.00000000D+00  -5  6  0 0.00000000D+00 0.00000000D+00 0.00000000D+00 0.00000000D+00 0.00000000D+00
  <mgrwgt>
 0.1221608071D-02    1    2    0
 0.784704320248320D+03 0.000000000000000D+00 0.000000000000000D+00 0.784704320248320D+03
 0.784704320248320D+03 -.000000000000000D+00 -.000000000000000D+00 -.784704320248320D+03
 0.489339020033654D+03 -.461623749299193D+03 -.971147811302100D+02 0.360542632220306D+02
 0.584407716593057D+03 0.360360542779375D+03 0.996998439256188D+02 0.449146523466978D+03
 0.495661903869930D+03 0.101263206519818D+03 -.258506279540873D+01 -.485200786689008D+03
 0.000000000000000D+00 0.000000000000000D+00 0.000000000000000D+00 -.000000000000000D+00
 0.784704320248320D+03 0.000000000000000D+00 0.000000000000000D+00 0.784704320248320D+03
 0.784704320248320D+03 -.000000000000000D+00 -.000000000000000D+00 -.784704320248320D+03
 0.482649574690823D+03 -.455846024486793D+03 -.972622757826900D+02 0.837040132792132D+01
 0.564048942458432D+03 0.367187234544055D+03 0.995255710825685D+02 0.416436555764565D+03
 0.404061542939314D+03 0.172834518500976D+03 0.523225728105353D+02 -.361464117266874D+03
 0.118648580408072D+03 -.841757285582385D+02 -.545858681104138D+02 -.633428398256113D+02
0.240340804657D-03 0.000000000000D+00 0.000000000000D+00 0.188123964513D-05 0.000000000000D+00  6 1 1 25 1 1 21 2 0.54718614D-01 0.26634852D+00 0.23194013D+06 0.23194013D+06 0.23194013D+06 0.10929174D+01  1  2 14  3  6  5        1 0.122160807130D-02 0.100000000000D+01
  </mgrwgt>
  </event>
  <event>
  5     66 0.18982733E-05 0.60816574E+02 0.75467711E-02 0.87237071E-01
        1 -1    0    0  501    0 0.00000000E+00 0.00000000E+00 0.20106418E+04 0.20106419E+04 0.32000000E+00 0.0000E+00 0.9000E+01
        1 -1    0    0  502    0 0.00000000E+00 0.00000000E+00 -.81410872E+03 0.81410878E+03 0.32000000E+00 0.0000E+00 0.9000E+01
       25  1    1    2    0    0 0.29063239E+03 0.94789881E+03 0.84277942E+03 0.13072419E+04 0.12500000E+03 0.0000E+00 0.9000E+01
        1  1    1    2  501    0 -.23013846E+03 -.94170684E+03 0.68096838E+03 0.11846913E+04 0.32000000E+00 0.0000E+00 0.9000E+01
        1  1    1    2  502    0 -.60493934E+02 -.61919732E+01 -.32721468E+03 0.33281738E+03 0.32000000E+00 0.0000E+00 0.9000E+01
#aMCatNLO 1  0  0  5  2 0.63650729D+01 0.00000000D+00  -5  6  0 0.00000000D+00 0.00000000D+00 0.00000000D+00 0.00000000D+00 0.00000000D+00
  <mgrwgt>
 0.1973527351D-02    9    2    0
 0.127940657170696D+04 0.000000000000000D+00 0.000000000000000D+00 0.127940657170696D+04
 0.127940657170696D+04 -.000000000000000D+00 -.000000000000000D+00 -.127940657170696D+04
 0.104898589302449D+04 0.290624974195290D+03 0.947843021599289D+03 0.319181977160220D+03
 0.989327112441399D+03 -.230124550337903D+03 -.941649929770358D+03 0.197752968389591D+03
 0.520500137948023D+03 -.605004238573870D+02 -.619309182893131D+01 -.516934945549810D+03
 0.000000000000000D+00 -.000000000000000D+00 0.000000000000000D+00 0.000000000000000D+00
 0.127940657170696D+04 0.000000000000000D+00 0.000000000000000D+00 0.127940657170696D+04
 0.127940657170696D+04 -.000000000000000D+00 -.000000000000000D+00 -.127940657170696D+04
 0.104894867534992D+04 0.290612438752434D+03 0.947841738415738D+03 0.319074870332579D+03
 0.989310827676507D+03 -.230136372967267D+03 -.941651139987157D+03 0.197651952068105D+03
 0.940823861284246D+02 -.460877690922499D+01 -.618839106588034D+00 -.939673964371640D+02
 0.426471254259060D+03 -.558672888759422D+02 -.557175932199308D+01 -.422759425963520D+03
0.322990228601D-04 0.000000000000D+00 0.000000000000D+00 0.149824244500D-06 0.000000000000D+00  6 1 1 25 1 1 21 0 0.30932952D+00 0.12524750D+00 0.10296415D+07 0.10296415D+07 0.10296415D+07 0.10470205D+01  1  2  2  3  6  5        1 0.245386086144D-04 0.100000000000D+01
0.140174293575D-04 0.000000000000D+00 -.124036752311D-06 0.149824244500D-06 0.000000000000D+00  6 1 1 25 1 1 21 2 0.30932952D+00 0.12524750D+00 0.10296415D+07 0.10296415D+07 0.10296415D+07 0.10470205D+01  1  2  3  3  6  5        1 0.116745278107D-04 0.100000000000D+01
-.195945773672D-04 0.000000000000D+00 0.000000000000D+00 0.149824244500D-06 0.000000000000D+00  6 1 1 25 1 1 21 2 0.30932952D+00 0.12524750D+00 0.10296415D+07 0.10296415D+07 0.10296415D+07 0.10470205D+01  1  2 15  3  6  5        1 -.163195000009D-04 0.100000000000D+01
0.139080983800D-02 0.000000000000D+00 0.000000000000D+00 0.149824244500D-06 0.000000000000D+00  6 1 1 25 1 1 21 2 0.30932952D+00 0.12524750D+00 0.10296183D+07 0.10296183D+07 0.10296183D+07 0.10470212D+01  1  2 12  3  6  5        1 0.115835033499D-02 0.100000000000D+01
0.254298748917D-07 0.000000000000D+00 0.000000000000D+00 0.149824244500D-06 0.000000000000D+00  6 1 1 25 1 1 21 2 0.30932952D+00 0.12524750D+00 0.10296183D+07 0.10296183D+07 0.10296183D+07 0.10470212D+01  1  2 12  3  6  5        1 0.211795338908D-07 0.100000000000D+01
-.124477104621D-02 0.000000000000D+00 0.000000000000D+00 0.149824244500D-06 0.000000000000D+00  6 1 1 25 1 1 21 2 0.30932952D+00 0.12524750D+00 0.10296415D+07 0.10296415D+07 0.10296415D+07 0.10470205D+01  1  2  4  3  6  5        1 -.103671749123D-02 0.100000000000D+01
-.161959799310D-02 0.000000000000D+00 0.000000000000D+00 0.149824244500D-06 0.000000000000D+00  6 1 1 25 1 1 21 2 0.30932952D+00 0.12524750D+00 0.10296415D+07 0.10296415D+07 0.10296415D+07 0.10470205D+01  1  2  5  3  6  5        1 -.134889510269D-02 0.100000000000D+01
0.366682910938D-02 0.000000000000D+00 -.000000000000D+00 0.149824244500D-06 0.000000000000D+00  6 1 1 25 1 1 21 2 0.30932952D+00 0.12524750D+00 0.10296415D+07 0.10296415D+07 0.10296415D+07 0.10470205D+01  1  2  6  3  6  5        1 0.305394786182D-02 0.100000000000D+01
0.152398821505D-03 0.000000000000D+00 0.000000000000D+00 0.149824244500D-06 0.148191744641D-08  6 1 1 25 1 1 21 2 0.30932952D+00 0.12524750D+00 0.10296183D+07 0.10296183D+07 0.10296183D+07 0.10470212D+01  1  2 11  3  6  5        1 0.126926932151D-03 0.100000000000D+01
  </mgrwgt>
  </event>
  <event>
  5     66 0.18982733E-05 0.70521216E+02 0.75467711E-02 0.92849582E-01
        1 -1    0    0  501    0 0.00000000E+00 0.00000000E+00 0.82762058E+03 0.82762064E+03 0.32000000E+00 0.0000E+00 0.9000E+01
        1 -1    0    0  502    0 0.00000000E+00 0.00000000E+00 -.15749921E+04 0.15749921E+04 0.32000000E+00 0.0000E+00 0.9000E+01
       25  1    1    2    0    0 0.35605680E+03 -.34695027E+03 -.65636632E+03 0.83282211E+03 0.12500000E+03 0.0000E+00 0.9000E+01
        1  1    1    2  501    0 -.70523575E+02 -.33728876E+00 0.67656945E+03 0.68023526E+03 0.32000000E+00 0.0000E+00 0.9000E+01
        1  1    1    2  502    0 -.28553322E+03 0.34728756E+03 -.76757465E+03 0.88955540E+03 0.32000000E+00 0.0000E+00 0.9000E+01
#aMCatNLO 1  0  0  1  4 0.14375672D+03 0.00000000D+00  -5  6  0 0.00000000D+00 0.00000000D+00 0.00000000D+00 0.00000000D+00 0.00000000D+00
  <mgrwgt>
 0.4362165603D-02    7    2    0
 0.114170748715591D+04 0.000000000000000D+00 0.000000000000000D+00 0.114170748715591D+04
 0.114170748715591D+04 0.000000000000000D+00 0.000000000000000D+00 -.114170748715591D+04
 0.661479647496843D+03 0.356088318828906D+03 -.346987261066992D+03 -.418008700750808D+03
 0.937146552740054D+03 -.705204097444504D+02 -.337273618257597D+00 0.934489389650063D+03
 0.684788774074928D+03 -.285567909084456D+03 0.347324534685249D+03 -.516480688899255D+03
 0.000000000000000D+00 -.000000000000000D+00 -.000000000000000D+00 0.000000000000000D+00
 0.163219840763589D+04 0.000000000000000D+00 0.000000000000000D+00 0.163219840763589D+04
 0.115454995645723D+04 0.000000000000000D+00 0.000000000000000D+00 -.115454995645723D+04
 0.658853538645360D+03 0.381096573716525D+03 -.313842497096330D+03 -.418008700750808D+03
 0.936310909348071D+03 -.350355016737045D+02 0.466927533792595D+02 0.934489389650063D+03
 0.692771289419937D+03 -.259475727540839D+03 0.381905884028861D+03 -.516480688899255D+03
 0.498812626679755D+03 -.865853445019811D+02 -.114756140311790D+03 0.477648451178657D+03
0.374576559478D-03 0.000000000000D+00 0.000000000000D+00 0.867069643447D-05 0.000000000000D+00  6 1 1 25 1 1 21 0 0.12732625D+00 0.24230648D+00 0.26668597D+06 0.26668597D+06 0.26668597D+06 0.10883544D+01  1  2  2  1  6  1        1 0.595045619705D-03 0.100000000000D+01
0.133156971947D-03 0.000000000000D+00 -.143847261667D-05 0.867069643447D-05 0.000000000000D+00  6 1 1 25 1 1 21 2 0.12732625D+00 0.24230648D+00 0.26668597D+06 0.26668597D+06 0.26668597D+06 0.10883544D+01  1  2  3  1  6  1        1 0.250561453861D-03 0.100000000000D+01
-.246088177828D-03 0.000000000000D+00 0.000000000000D+00 0.867069643447D-05 0.000000000000D+00  6 1 1 25 1 1 21 2 0.12732625D+00 0.24230648D+00 0.26668597D+06 0.26668597D+06 0.26668597D+06 0.10883544D+01  1  2 15  1  6  1        1 -.463064086791D-03 0.100000000000D+01
-.114670952609D-03 0.000000000000D+00 0.000000000000D+00 0.867069643447D-05 0.000000000000D+00  6 1 1 25 1 1 21 2 0.12732625D+00 0.24230648D+00 0.26668597D+06 0.26668597D+06 0.26668597D+06 0.10883544D+01  1  2  4  1  6  1        1 -.215776314084D-03 0.100000000000D+01
-.544480434892D-02 0.000000000000D+00 -.329983867227D-03 0.867069643447D-05 0.000000000000D+00  6 1 1 25 1 1 21 2 0.18277186D+00 0.24230648D+00 0.26668597D+06 0.26668597D+06 0.26668597D+06 0.10883544D+01  1  2  5  1  6  1        1 -.541640062555D-02 0.100000000000D+01
0.523852612356D-02 0.000000000000D+00 0.309538641945D-03 0.867069643447D-05 0.000000000000D+00  6 1 1 25 1 1 21 2 0.12732625D+00 0.24230648D+00 0.26668597D+06 0.26668597D+06 0.26668597D+06 0.10883544D+01  1  2  6  1  6  1        1 0.985733380998D-02 0.100000000000D+01
-.230980911437D-03 0.000000000000D+00 -.145912708594D-04 0.867069643447D-05 0.000000000000D+00  6 21 1 25 1 1 -1 2 0.18277186D+00 0.24230648D+00 0.26668597D+06 0.26668597D+06 0.26668597D+06 0.10883544D+01  1  2  5  4  6  1        1 -.245534254460D-03 0.100000000000D+01
  </mgrwgt>
  </event>
  <event>
  5     66 0.18982733E-05 0.42833697E+02 0.75467711E-02 0.92883112E-01
        1 -1    0    0  501    0 0.00000000E+00 0.00000000E+00 0.20005801E+04 0.20005801E+04 0.32000000E+00 0.0000E+00 0.9000E+01
        1 -1    0    0  502    0 0.00000000E+00 0.00000000E+00 -.12233332E+04 0.12233332E+04 0.32000000E+00 0.0000E+00 0.9000E+01
       25  1    1    2    0    0 -.31482067E+03 -.42224508E+03 0.36046303E+03 0.65035495E+03 0.12500000E+03 0.0000E+00 0.9000E+01
        1  1    1    2  501    0 0.31346629E+03 0.46505368E+03 0.14421163E+04 0.15473317E+04 0.32000000E+00 0.0000E+00 0.9000E+01
        1  1    1    2  502    0 0.13543798E+01 -.42808601E+02 -.10253324E+04 0.10262266E+04 0.32000000E+00 0.0000E+00 0.9000E+01
#aMCatNLO 1  0  0  1  5 0.31424646D+02 0.00000000D+00  -5  6  0 0.00000000D+00 0.00000000D+00 0.00000000D+00 0.00000000D+00 0.00000000D+00
  <mgrwgt>
 0.4117044436D-01    9    2    0
 0.156440919438723D+04 0.000000000000000D+00 0.000000000000000D+00 0.156440919438723D+04
 0.156440919438723D+04 0.000000000000000D+00 0.000000000000000D+00 -.156440919438723D+04
 0.580586192400349D+03 -.314806489147430D+03 -.422220113735859D+03 0.209958035696382D+03
 0.123605954987090D+04 0.313451938358525D+03 0.465032387683454D+03 0.110151530700747D+04
 0.131217264650320D+04 0.135455078890510D+01 -.428122739475948D+02 -.131147334270385D+04
 0.000000000000000D+00 0.000000000000000D+00 -.000000000000000D+00 0.000000000000000D+00
 0.160485921086032D+04 0.000000000000000D+00 0.000000000000000D+00 0.160485921086032D+04
 0.157060328821843D+04 0.000000000000000D+00 0.000000000000000D+00 -.157060328821843D+04
 0.579675903857676D+03 -.318784613689887D+03 -.417963092670058D+03 0.209958035696382D+03
 0.123738491704083D+04 0.304971380241560D+03 0.474107496863261D+03 0.110151530700747D+04
 0.131191537241470D+04 -.764251029177086D+01 -.331844510521668D+02 -.131147334270385D+04
 0.464863057655356D+02 0.214557437400987D+02 -.229599531410360D+02 0.342559226418954D+02
0.166197764129D-01 0.000000000000D+00 0.000000000000D+00 0.712277027484D-04 0.000000000000D+00  6 1 1 25 1 1 21 0 0.30778156D+00 0.18820511D+00 0.32771961D+06 0.32771961D+06 0.32771961D+06 0.10817236D+01  1  2  2  1  6  1        1 0.675407943994D-02 0.100000000000D+01
0.997441775500D-02 0.000000000000D+00 -.638243175130D-04 0.712277027484D-04 0.000000000000D+00  6 1 1 25 1 1 21 2 0.30778156D+00 0.18820511D+00 0.32771961D+06 0.32771961D+06 0.32771961D+06 0.10817236D+01  1  2  3  1  6  1        1 0.474308791647D-02 0.100000000000D+01
-.118308877534D-01 0.000000000000D+00 0.000000000000D+00 0.712277027484D-04 0.000000000000D+00  6 1 1 25 1 1 21 2 0.30778156D+00 0.18820511D+00 0.32771961D+06 0.32771961D+06 0.32771961D+06 0.10817236D+01  1  2 15  1  6  1        1 -.562588635474D-02 0.100000000000D+01
0.371278520278D-09 0.000000000000D+00 0.000000000000D+00 0.712277027484D-04 0.000000000000D+00  6 1 1 25 1 1 21 2 0.31645798D+00 0.18820511D+00 0.34194354D+06 0.34194354D+06 0.34194354D+06 0.10803720D+01  1  2 12  1  6  1        1 0.160906541502D-09 0.100000000000D+01
-.924421140663D-02 0.000000000000D+00 0.000000000000D+00 0.712277027484D-04 0.000000000000D+00  6 1 1 25 1 1 21 2 0.30778156D+00 0.18820511D+00 0.32771961D+06 0.32771961D+06 0.32771961D+06 0.10817236D+01  1  2  4  1  6  1        1 -.439585632937D-02 0.100000000000D+01
-.102312844490D+01 0.000000000000D+00 -.124032452287D+00 0.712277027484D-04 0.000000000000D+00  6 1 1 25 1 1 21 2 0.31621000D+00 0.18820511D+00 0.32771961D+06 0.32771961D+06 0.32771961D+06 0.10817236D+01  1  2  5  1  6  1        1 -.447226503725D+00 0.100000000000D+01
0.102615008169D+01 0.000000000000D+00 0.123987201805D+00 0.712277027484D-04 0.000000000000D+00  6 1 1 25 1 1 21 2 0.30778156D+00 0.18820511D+00 0.32771961D+06 0.32771961D+06 0.32771961D+06 0.10817236D+01  1  2  6  1  6  1        1 0.487960317334D+00 0.100000000000D+01
0.129355714965D-10 0.000000000000D+00 0.000000000000D+00 0.712277027484D-04 0.000000000000D+00  6 21 1 25 1 1 -1 2 0.31645798D+00 0.18820511D+00 0.34194354D+06 0.34194354D+06 0.34194354D+06 0.10803720D+01  1  2 12  4  6  1        1 0.268477683827D-11 0.100000000000D+01
-.494613030487D-02 0.000000000000D+00 -.603590446477D-03 0.712277027484D-04 0.000000000000D+00  6 21 1 25 1 1 -1 2 0.31621000D+00 0.18820511D+00 0.32771961D+06 0.32771961D+06 0.32771961D+06 0.10817236D+01  1  2  5  4  6  1        1 -.103879408570D-02 0.100000000000D+01
  </mgrwgt>
  </event>
  <event>
  5     66 0.18982733E-05 0.14764196E+03 0.75467711E-02 0.89209872E-01
        1 -1    0    0  501    0 0.00000000E+00 0.00000000E+00 0.11667484E+04 0.11667484E+04 0.32000000E+00 0.0000E+00 0.9000E+01
        1 -1    0    0  502    0 0.00000000E+00 0.00000000E+00 -.15020907E+04 0.15020907E+04 0.32000000E+00 0.0000E+00 0.9000E+01
       25  1    1    2    0    0 0.34488125E+03 0.36348802E+03 0.22824830E+03 0.56461394E+03 0.12500000E+03 0.0000E+00 0.9000E+01
        1  1    1    2  501    0 0.13026989E+03 0.69530193E+02 0.68452916E+03 0.70027492E+03 0.32000000E+00 0.0000E+00 0.9000E+01
        1  1    1    2  502    0 -.47515113E+03 -.43301822E+03 -.12481197E+04 0.14039503E+04 0.32000000E+00 0.0000E+00 0.9000E+01
#aMCatNLO 1  0  0  1  1 0.30219548D+03 0.00000000D+00  -5  6  0 0.00000000D+00 0.00000000D+00 0.00000000D+00 0.00000000D+00 0.00000000D+00
  <mgrwgt>
 0.2783088273D-02    4    2    0
 0.132384363485475D+04 0.000000000000000D+00 0.000000000000000D+00 0.132384363485475D+04
 0.132384363485475D+04 0.000000000000000D+00 0.000000000000000D+00 -.132384363485475D+04
 0.598148044914481D+03 0.344948973437023D+03 0.363544484843906D+03 0.301664875150124D+03
 0.792449224305196D+03 0.130250343532097D+03 0.695197629371032D+02 0.778574096456365D+03
 0.125709000048982D+04 -.475199316969120D+03 -.433064247781009D+03 -.108023897160649D+04
 0.000000000000000D+00 -.000000000000000D+00 0.000000000000000D+00 -.000000000000000D+00
 0.136709911467138D+04 0.000000000000000D+00 0.000000000000000D+00 0.136709911467138D+04
 0.199112746635657D+04 0.000000000000000D+00 0.000000000000000D+00 -.199112746635657D+04
 0.565843001127985D+03 0.353311627460562D+03 0.297863221844111D+03 0.301664875150124D+03
 0.791600612451656D+03 0.141630895629882D+03 -.198644245843983D+02 0.778574096456365D+03
 0.130743349225858D+04 -.456774585285823D+03 -.577774245825284D+03 -.108023897160649D+04
 0.693349475189734D+03 -.381679378046210D+02 0.299775448565571D+03 -.624028351685189D+03
0.712056297531D-02 0.000000000000D+00 0.000000000000D+00 0.140415301214D-05 0.000000000000D+00  6 1 1 25 1 1 21 0 0.17949976D+00 0.23109088D+00 0.42711382D+06 0.42711382D+06 0.42711382D+06 0.10733803D+01  1  2  2  1  6  1        1 0.669865224449D-02 0.100000000000D+01
0.111420869286D-02 0.000000000000D+00 -.273448367125D-04 0.140415301214D-05 0.000000000000D+00  6 1 1 25 1 1 21 2 0.17949976D+00 0.23109088D+00 0.42711382D+06 0.42711382D+06 0.42711382D+06 0.10733803D+01  1  2  3  1  6  1        1 0.120766604849D-02 0.100000000000D+01
-.454509524691D-02 0.000000000000D+00 0.000000000000D+00 0.140415301214D-05 0.000000000000D+00  6 1 1 25 1 1 21 2 0.17949976D+00 0.23109088D+00 0.42711382D+06 0.42711382D+06 0.42711382D+06 0.10733803D+01  1  2 15  1  6  1        1 -.492632776249D-02 0.100000000000D+01
-.181664631091D-03 0.000000000000D+00 0.000000000000D+00 0.140415301214D-05 0.000000000000D+00  6 1 1 25 1 1 21 2 0.17949976D+00 0.23109088D+00 0.42711382D+06 0.42711382D+06 0.42711382D+06 0.10733803D+01  1  2  4  1  6  1        1 -.196902257706D-03 0.100000000000D+01
  </mgrwgt>
  </event>
  <event>
  6     66 0.18982733E-05 0.12527299E+03 0.75467711E-02 0.92791454E-01
       21 -1    0    0  501  503 0.00000000E+00 0.00000000E+00 0.13221255E+04 0.13221257E+04 0.75000000E+00 0.0000E+00 0.9000E+01
        1 -1    0    0  502    0 0.00000000E+00 0.00000000E+00 -.18648433E+04 0.18648433E+04 0.32000000E+00 0.0000E+00 0.9000E+01
       25  1    1    2    0    0 -.28770657E+03 -.34935033E+03 -.73692955E+03 0.87379110E+03 0.12500000E+03 0.0000E+00 0.9000E+01
        1  1    1    2  501    0 0.43758188E+03 0.30346235E+03 0.11882956E+04 0.13021574E+04 0.32000000E+00 0.0000E+00 0.9000E+01
        1  1    1    2  502    0 -.14213568E+03 0.12042827E+02 -.88841215E+03 0.89979100E+03 0.32000000E+00 0.0000E+00 0.9000E+01
       -1  1    1    2    0  503 -.77396291E+01 0.33845160E+02 -.10567171E+03 0.11122954E+03 0.32000000E+00 0.0000E+00 0.9000E+01
#aMCatNLO 2  0  0  1  4 0.76401357D+01 0.00000000D+00  -5  6  0 0.00000000D+00 0.00000000D+00 0.00000000D+00 0.00000000D+00 0.00000000D+00
  <mgrwgt>
 0.1174354441D-03    1    2    0
 0.152216610519706D+04 0.000000000000000D+00 0.000000000000000D+00 0.152216610519706D+04
 0.152216610519706D+04 0.000000000000000D+00 0.000000000000000D+00 -.152216610519706D+04
 0.773922508686910D+03 -.289692122902586D+03 -.340726778463768D+03 -.619124208715937D+03
 0.148845122963300D+04 0.433802761195521D+03 0.319997751671065D+03 0.138740897586134D+04
 0.781958472074209D+03 -.144110638292935D+03 0.207290267927031D+02 -.768284767145400D+03
 0.000000000000000D+00 -.000000000000000D+00 0.000000000000000D+00 -.000000000000000D+00
 0.152547114107557D+04 0.000000000000000D+00 0.000000000000000D+00 0.152547114107557D+04
 0.161625893456537D+04 0.000000000000000D+00 0.000000000000000D+00 -.161625893456537D+04
 0.777024356120071D+03 -.287720694945943D+03 -.349347772120418D+03 -.619124208715937D+03
 0.148609332745968D+04 0.437583741982934D+03 0.303463639291071D+03 0.138740897586134D+04
 0.781412494284199D+03 -.142123417905429D+03 0.120389733229193D+02 -.768284767145400D+03
 0.971998977769837D+02 -.773962913156158D+01 0.338451595064275D+02 -.907877934897993D+02
0.258737690435D-03 0.000000000000D+00 0.000000000000D+00 0.407697389108D-05 0.276692201534D-09  6 21 1 25 1 1 -1 2 0.20340390D+00 0.28689894D+00 0.34773848D+06 0.34773848D+06 0.34773848D+06 0.10798388D+01  1  2  1  4  6  1        1 0.117435444131D-03 0.100000000000D+01
  </mgrwgt>
  </event>
  <event>
  6     66 0.18982733E-05 0.57021242E+02 0.75467711E-02 0.91163331E-01
        1 -1    0    0  501    0 0.00000000E+00 0.00000000E+00 0.11738857E+04 0.11738858E+04 0.32000000E+00 0.0000E+00 0.9000E+01
        1 -1    0    0  503    0 0.00000000E+00 0.00000000E+00 -.22509695E+04 0.22509695E+04 0.32000000E+00 0.0000E+00 0.9000E+01
       25  1    1    2    0    0 0.54389465E+03 0.25946416E+03 -.35267475E+03 0.70932892E+03 0.12500000E+03 0.0000E+00 0.9000E+01
        1  1    1    2  501    0 -.30282973E+02 0.84569749E+02 0.91161803E+03 0.91603310E+03 0.32000000E+00 0.0000E+00 0.9000E+01
        1  1    1    2  502    0 -.53248622E+03 -.28120349E+03 -.10548907E+04 0.12146652E+04 0.32000000E+00 0.0000E+00 0.9000E+01
       21  1    1    2  503  502 0.18874547E+02 -.62830415E+02 -.58113629E+03 0.58482806E+03 0.75000000E+00 0.0000E+00 0.9000E+01
#aMCatNLO 2  0  0  2  5 0.26270918D+01 0.00000000D+00  -5  6  0 0.00000000D+00 0.00000000D+00 0.00000000D+00 0.00000000D+00 0.00000000D+00
  <mgrwgt>
 0.8792670736D-02    1    2    0
 0.139780961350426D+04 0.000000000000000D+00 0.000000000000000D+00 0.139780961350426D+04
 0.139780961350426D+04 0.000000000000000D+00 0.000000000000000D+00 -.139780961350426D+04
 0.655911486635344D+03 0.548379769956756D+03 0.244733559396538D+03 -.232335944501628D+03
 0.109014281642077D+04 -.229161955769412D+02 0.600477723933126D+02 0.108824651306801D+04
 0.104956492395241D+04 -.525463574379815D+03 -.304781331789850D+03 -.855910568566384D+03
 0.000000000000000D+00 0.000000000000000D+00 -.000000000000000D+00 -.000000000000000D+00
 0.140039621764600D+04 0.000000000000000D+00 0.000000000000000D+00 0.140039621764600D+04
 0.188688027639948D+04 0.000000000000000D+00 0.000000000000000D+00 -.188688027639948D+04
 0.657889980770739D+03 0.543945333079277D+03 0.259495106528686D+03 -.232335944501628D+03
 0.109194720795515D+04 -.302813422251466D+02 0.845651941960230D+02 0.108824651306801D+04
 0.104655169194854D+04 -.532538537417725D+03 -.281229885861577D+03 -.855910568566384D+03
 0.490887613371042D+03 0.188745465635944D+02 -.628304148631314D+02 -.486484058753484D+03
0.264733889005D-01 0.000000000000D+00 0.000000000000D+00 0.139265515228D-04 0.113438605519D-07  6 1 1 25 1 1 21 2 0.18059777D+00 0.34630293D+00 0.47139358D+06 0.47139358D+06 0.47139358D+06 0.10703234D+01  1  2  1  2  6  2        1 0.879267073634D-02 0.100000000000D+01
  </mgrwgt>
  </event>
  <event>
  5     66 -.18982733E-05 0.42809272E+02 0.75467711E-02 0.94450100E-01
        1 -1    0    0  501    0 0.00000000E+00 0.00000000E+00 0.59126724E+03 0.59126733E+03 0.32000000E+00 0.0000E+00 0.9000E+01
        1 -1    0    0  502    0 0.00000000E+00 0.00000000E+00 -.14231835E+04 0.14231835E+04 0.32000000E+00 0.0000E+00 0.9000E+01
       25  1    1    2    0    0 0.48546841E+02 -.47791350E+03 -.17061550E+03 0.52487404E+03 0.12500000E+03 0.0000E+00 0.9000E+01
        1  1    1    2  501    0 -.42786058E+02 0.16443586E+01 0.36006932E+03 0.36260635E+03 0.32000000E+00 0.0000E+00 0.9000E+01
        1  1    1    2  502    0 -.57607823E+01 0.47626915E+03 -.10213700E+04 0.11269704E+04 0.32000000E+00 0.0000E+00 0.9000E+01
#aMCatNLO 1  0  0  2  5 0.26270918D+01 0.00000000D+00  -5  6  0 0.00000000D+00 0.00000000D+00 0.00000000D+00 0.00000000D+00 0.00000000D+00
  <mgrwgt>
 -.1952506980D-02    1    2    0
 0.917323212848529D+03 0.000000000000000D+00 0.000000000000000D+00 0.917323212848529D+03
 0.917323212848529D+03 0.000000000000000D+00 0.000000000000000D+00 -.917323212848529D+03
 0.499029577565494D+03 0.485428257068418D+02 -.477988626353879D+03 0.507541765170361D+02
 0.561306292229334D+03 -.427776915781694D+02 0.164403701415564D+01 0.559671439276458D+03
 0.774310555902228D+03 -.576513412867239D+01 0.476344589339724D+03 -.610425615793494D+03
 0.000000000000000D+00 0.000000000000000D+00 -.000000000000000D+00 -.000000000000000D+00
 0.992372277328901D+03 0.000000000000000D+00 0.000000000000000D+00 0.992372277328901D+03
 0.115677124764367D+04 0.000000000000000D+00 0.000000000000000D+00 -.115677124764367D+04
 0.444891305715871D+03 0.155187504214778D+02 -.423658418838817D+03 0.507541765170361D+02
 0.569619747097305D+03 -.823443409938162D+02 0.667378891463466D+02 0.559671439276458D+03
 0.836858640356926D+03 -.621336007842210D+02 0.569080281837952D+03 -.610425615793494D+03
 0.297773831802474D+03 0.128959191356559D+03 -.212159752145482D+03 -.164398970314774D+03
-.489044871729D-03 0.000000000000D+00 0.000000000000D+00 0.102416446364D-04 0.000000000000D+00  6 1 1 25 1 1 21 2 0.90964200D-01 0.21895131D+00 0.25787639D+06 0.25787639D+06 0.25787639D+06 0.10894471D+01  1  2 14  2  6  2        1 -.195250697969D-02 0.100000000000D+01
  </mgrwgt>
  </event>
  <event>
  5     66 0.18982733E-05 0.97149351E+02 0.75467711E-02 0.94248559E-01
        1 -1    0    0  501    0 0.00000000E+00 0.00000000E+00 0.31698311E+03 0.31698327E+03 0.32000000E+00 0.0000E+00 0.9000E+01
        1 -1    0    0  502    0 0.00000000E+00 0.00000000E+00 -.34351756E+04 0.34351756E+04 0.32000000E+00 0.0000E+00 0.9000E+01
       25  1    1    2    0    0 0.41773595E+03 0.23309844E+03 -.41625375E+03 0.64632065E+03 0.12500000E+03 0.0000E+00 0.9000E+01
        1  1    1    2  501    0 -.33071657E+03 -.18993676E+03 0.20251238E+02 0.38191574E+03 0.32000000E+00 0.0000E+00 0.9000E+01
        1  1    1    2  502    0 -.87019380E+02 -.43161681E+02 -.27221900E+04 0.27239225E+04 0.32000000E+00 0.0000E+00 0.9000E+01
#aMCatNLO 1  0  0  2  4 0.41448761D+02 0.00000000D+00  -5  6  0 0.00000000D+00 0.00000000D+00 0.00000000D+00 0.00000000D+00 0.00000000D+00
  <mgrwgt>
 0.3824363425D-02    9    2    0
 0.104350034228352D+04 0.000000000000000D+00 0.000000000000000D+00 0.104350034228352D+04
 0.104350034228352D+04 0.000000000000000D+00 0.000000000000000D+00 -.104350034228352D+04
 0.540100894910359D+03 0.417708620091635D+03 0.233081824888319D+03 0.217431249572925D+03
 0.716806641046338D+03 -.330676842226246D+03 -.189913943750226D+03 0.606957396060587D+03
 0.830093148610335D+03 -.870317778653887D+02 -.431678811380932D+02 -.824388645633512D+03
 0.000000000000000D+00 0.000000000000000D+00 0.000000000000000D+00 -.000000000000000D+00
 0.104831309114708D+04 0.000000000000000D+00 0.000000000000000D+00 0.104831309114708D+04
 0.113693438283378D+04 0.000000000000000D+00 0.000000000000000D+00 -.113693438283378D+04
 0.531112176507788D+03 0.410312981066097D+03 0.225437470959574D+03 0.217431249572925D+03
 0.724225202860684D+03 -.340625704526566D+03 -.200197385701539D+03 0.606957396060587D+03
 0.832074860025032D+03 -.985073609399963D+02 -.550293873930755D+02 -.824388645633512D+03
 0.978352345873538D+02 0.288200844004654D+02 0.297893021350402D+02 -.886212916867041D+02
0.124674053916D-02 0.000000000000D+00 0.000000000000D+00 0.960319943887D-05 0.000000000000D+00  6 1 1 25 1 1 21 0 0.48766645D-01 0.52848857D+00 0.23662540D+06 0.23662540D+06 0.23662540D+06 0.10922600D+01  1  2  2  2  6  2        1 0.381374019661D-03 0.100000000000D+01
0.307451605933D-03 0.000000000000D+00 -.478781194469D-05 0.960319943887D-05 0.000000000000D+00  6 1 1 25 1 1 21 2 0.48766645D-01 0.52848857D+00 0.23662540D+06 0.23662540D+06 0.23662540D+06 0.10922600D+01  1  2  3  2  6  2        1 0.112202849560D-03 0.100000000000D+01
-.754284806662D-03 0.000000000000D+00 0.000000000000D+00 0.960319943887D-05 0.000000000000D+00  6 1 1 25 1 1 21 2 0.48766645D-01 0.52848857D+00 0.23662540D+06 0.23662540D+06 0.23662540D+06 0.10922600D+01  1  2 15  2  6  2        1 -.275272280431D-03 0.100000000000D+01
0.409707290096D-08 0.000000000000D+00 0.000000000000D+00 0.960319943887D-05 0.000000000000D+00  6 1 1 25 1 1 21 2 0.48766645D-01 0.57769242D+00 0.26726382D+06 0.26726382D+06 0.26726382D+06 0.10882841D+01  1  2 12  2  6  2        1 0.791843978604D-09 0.100000000000D+01
-.466992532776D-03 0.000000000000D+00 0.000000000000D+00 0.960319943887D-05 0.000000000000D+00  6 1 1 25 1 1 21 2 0.48766645D-01 0.52848857D+00 0.23662540D+06 0.23662540D+06 0.23662540D+06 0.10922600D+01  1  2  4  2  6  2        1 -.170426473271D-03 0.100000000000D+01
-.224354055520D-01 0.000000000000D+00 -.179541313379D-02 0.960319943887D-05 0.000000000000D+00  6 1 1 25 1 1 21 2 0.48766645D-01 0.57635778D+00 0.23662540D+06 0.23662540D+06 0.23662540D+06 0.10922600D+01  1  2  5  2  6  2        1 -.449410820533D-02 0.100000000000D+01
0.226804923782D-01 0.000000000000D+00 0.180716854156D-02 0.960319943887D-05 0.000000000000D+00  6 1 1 25 1 1 21 2 0.48766645D-01 0.52848857D+00 0.23662540D+06 0.23662540D+06 0.23662540D+06 0.10922600D+01  1  2  6  2  6  2        1 0.827712662789D-02 0.100000000000D+01
0.616290689768D-10 0.000000000000D+00 0.000000000000D+00 0.960319943887D-05 0.000000000000D+00  6 1 21 25 1 1 -1 2 0.48766645D-01 0.57769242D+00 0.26726382D+06 0.26726382D+06 0.26726382D+06 0.10882841D+01  1  2 12  5  6  2        1 0.120906327713D-11 0.100000000000D+01
-.317250827333D-03 0.000000000000D+00 -.257508297111D-04 0.960319943887D-05 0.000000000000D+00  6 1 21 25 1 1 -1 2 0.48766645D-01 0.57635778D+00 0.23662540D+06 0.23662540D+06 0.23662540D+06 0.10922600D+01  1  2  5  5  6  2        1 -.653390641032D-05 0.100000000000D+01
  </mgrwgt>
  </event>
  <event>
  5     66 0.18982733E-05 0.40513669E+02 0.75467711E-02 0.93139471E-01
        1 -1    0    0  501    0 0.00000000E+00 0.00000000E+00 0.24642552E+04 0.24642553E+04 0.32000000E+00 0.0000E+00 0.9000E+01
        1 -1    0    0  502    0 0.00000000E+00 0.00000000E+00 -.49806554E+03 0.49806565E+03 0.32000000E+00 0.0000E+00 0.9000E+01
       25  1    1    2    0    0 -.47065761E+03 0.22778452E+03 -.20712991E+02 0.53801339E+03 0.12500000E+03 0.0000E+00 0.9000E+01
        1  1    1    2  501    0 0.51113981E+03 -.22607675E+03 0.21679224E+04 0.22388083E+04 0.32000000E+00 0.0000E+00 0.9000E+01
        1  1    1    2  502    0 -.40482197E+02 -.17077709E+01 -.18101975E+03 0.18549926E+03 0.32000000E+00 0.0000E+00 0.9000E+01
#aMCatNLO 1  0  0  5  2 0.11687339D+02 0.00000000D+00  -5  6  0 0.00000000D+00 0.00000000D+00 0.00000000D+00 0.00000000D+00 0.00000000D+00
  <mgrwgt>
 0.9049100748D-02    8    2    0
 0.110786317059786D+04 0.000000000000000D+00 0.000000000000000D+00 0.110786317059786D+04
 0.110786317059786D+04 -.000000000000000D+00 -.000000000000000D+00 -.110786317059786D+04
 0.737725301014620D+03 -.470665680812904D+03 0.227785843540326D+03 -.505174273043134D+03
 0.106941818790618D+04 0.511143350397990D+03 -.226078318787028D+03 0.911743565780904D+03
 0.408582852274925D+03 -.404776695850857D+02 -.170752475329818D+01 -.406569292737770D+03
 0.000000000000000D+00 0.000000000000000D+00 0.000000000000000D+00 -.000000000000000D+00
 0.110786317059786D+04 0.000000000000000D+00 0.000000000000000D+00 0.110786317059786D+04
 0.110786317059786D+04 -.000000000000000D+00 -.000000000000000D+00 -.110786317059786D+04
 0.737927244837577D+03 -.470692592817112D+03 0.227784708274541D+03 -.505444584912099D+03
 0.106906593578470D+04 0.511104350096803D+03 -.226079963989935D+03 0.911351835598992D+03
 0.117901553259070D+03 -.166927607733827D+02 0.100300228322152D+02 -.116282099399045D+03
 0.290831607314373D+03 -.237189965063089D+02 -.117347671168213D+02 -.289625151287849D+03
0.360179616736D-03 0.000000000000D+00 0.000000000000D+00 0.932316578811D-05 0.000000000000D+00  6 1 1 25 1 1 21 0 0.37911620D+00 0.76625478D-01 0.32321756D+06 0.32321756D+06 0.32321756D+06 0.10821648D+01  1  2  2  3  6  5        1 0.305180587670D-03 0.100000000000D+01
0.129076820846D-03 0.000000000000D+00 -.138318456574D-05 0.932316578811D-05 0.000000000000D+00  6 1 1 25 1 1 21 2 0.37911620D+00 0.76625478D-01 0.32321756D+06 0.32321756D+06 0.32321756D+06 0.10821648D+01  1  2  3  3  6  5        1 0.128077503036D-03 0.100000000000D+01
-.277508406964D-03 0.000000000000D+00 0.000000000000D+00 0.932316578811D-05 0.000000000000D+00  6 1 1 25 1 1 21 2 0.37911620D+00 0.76625478D-01 0.32321756D+06 0.32321756D+06 0.32321756D+06 0.10821648D+01  1  2 15  3  6  5        1 -.275359925994D-03 0.100000000000D+01
0.689008060786D-02 0.000000000000D+00 0.000000000000D+00 0.932316578811D-05 0.000000000000D+00  6 1 1 25 1 1 21 2 0.37911620D+00 0.76625478D-01 0.32630163D+06 0.32630163D+06 0.32630163D+06 0.10818619D+01  1  2 12  3  6  5        1 0.682821712838D-02 0.100000000000D+01
0.237863217349D-08 0.000000000000D+00 0.000000000000D+00 0.932316578811D-05 0.000000000000D+00  6 1 1 25 1 1 21 2 0.37911620D+00 0.76625478D-01 0.32630163D+06 0.32630163D+06 0.32630163D+06 0.10818619D+01  1  2 12  3  6  5        1 0.235727531702D-08 0.100000000000D+01
-.747033571420D-02 0.000000000000D+00 0.000000000000D+00 0.932316578811D-05 0.000000000000D+00  6 1 1 25 1 1 21 2 0.37911620D+00 0.76625478D-01 0.32321756D+06 0.32321756D+06 0.32321756D+06 0.10821648D+01  1  2  4  3  6  5        1 -.741250008211D-02 0.100000000000D+01
-.765992793334D-02 0.000000000000D+00 0.000000000000D+00 0.932316578811D-05 0.000000000000D+00  6 1 1 25 1 1 21 2 0.37911620D+00 0.76625478D-01 0.32321756D+06 0.32321756D+06 0.32321756D+06 0.10821648D+01  1  2  5  3  6  5        1 -.760062447086D-02 0.100000000000D+01
0.172093430597D-01 0.000000000000D+00 -.000000000000D+00 0.932316578811D-05 0.000000000000D+00  6 1 1 25 1 1 21 2 0.37911620D+00 0.76625478D-01 0.32321756D+06 0.32321756D+06 0.32321756D+06 0.10821648D+01  1  2  6  3  6  5        1 0.170761076508D-01 0.100000000000D+01
  </mgrwgt>
  </event>
  <event>
  6     66 0.18982733E-05 0.16111887E+03 0.75467711E-02 0.95334885E-01
        1 -1    0    0  501    0 0.00000000E+00 0.00000000E+00 0.28817885E+03 0.28817903E+03 0.32000000E+00 0.0000E+00 0.9000E+01
        1 -1    0    0  502    0 -.00000000E+00 -.00000000E+00 -.29571258E+04 0.29571258E+04 0.32000000E+00 0.0000E+00 0.9000E+01
       25  1    1    2    0    0 0.42428186E+03 -.16696557E+03 -.46746866E+03 0.66486431E+03 0.12500000E+03 0.0000E+00 0.9000E+01
        1  1    1    2  501    0 -.27798933E+03 0.61560463E+02 0.76430823E+02 0.29480422E+03 0.32000000E+00 0.0000E+00 0.9000E+01
        1  1    1    2  503    0 -.58819465E+02 0.26423211E+02 -.56265476E+03 0.56633771E+03 0.32000000E+00 0.0000E+00 0.9000E+01
       21  1    1    2  502  503 -.87473072E+02 0.78981897E+02 -.17152543E+04 0.17192986E+04 0.75000000E+00 0.0000E+00 0.9000E+01
#aMCatNLO 2  0  0  5  2 0.22683077D+02 0.00000000D+00  -5  6  0 0.00000000D+00 0.00000000D+00 0.00000000D+00 0.00000000D+00 0.00000000D+00
  <mgrwgt>
 0.4925870107D-03    3    2    0
 0.923136735837397D+03 0.000000000000000D+00 0.000000000000000D+00 0.923136735837397D+03
 0.923136735837397D+03 -.000000000000000D+00 -.000000000000000D+00 -.923136735837397D+03
 0.493175427287850D+03 0.424377277624223D+03 -.167044609907419D+03 0.139989380374673D+03
 0.629123234250597D+03 -.277835698730180D+03 0.614610277486350D+02 0.561093495286770D+03
 0.723974810136347D+03 -.146541578894043D+03 0.105583582158784D+03 -.701082875661444D+03
 0.000000000000000D+00 0.000000000000000D+00 0.000000000000000D+00 -.000000000000000D+00
 0.923136735837397D+03 0.000000000000000D+00 0.000000000000000D+00 0.923136735837397D+03
 0.923136735837397D+03 -.000000000000000D+00 -.000000000000000D+00 -.923136735837397D+03
 0.492923294633971D+03 0.424274811485211D+03 -.166970782792354D+03 0.139499162813635D+03
 0.628632637908341D+03 -.277966392934700D+03 0.615551932570505D+02 0.560468229274023D+03
 0.181806846966305D+03 -.587133970202956D+02 0.263790630843394D+02 -.170031207855967D+03
 0.542910692166177D+03 -.875950215302159D+02 0.790365264509645D+02 -.529936184231691D+03
-.178700273680D-02 0.000000000000D+00 0.000000000000D+00 0.286834273102D-05 0.000000000000D+00  6 1 1 25 1 1 21 2 0.44335223D-01 0.45494244D+00 0.22081594D+06 0.22081594D+06 0.22081594D+06 0.10945380D+01  1  2 13  3  6  5        1 -.174418180671D-02 0.100000000000D+01
-.236224115843D-08 0.000000000000D+00 0.000000000000D+00 0.286834273102D-05 0.000000000000D+00  6 1 1 25 1 1 21 2 0.44335223D-01 0.45494244D+00 0.22081594D+06 0.22081594D+06 0.22081594D+06 0.10945380D+01  1  2 13  3  6  5        1 -.230563611726D-08 0.100000000000D+01
0.229168547855D-02 0.000000000000D+00 0.000000000000D+00 0.286834273102D-05 0.607859792246D-08  6 1 1 25 1 1 21 2 0.44335223D-01 0.45494244D+00 0.22081594D+06 0.22081594D+06 0.22081594D+06 0.10945380D+01  1  2  1  3  6  5        1 0.223677112300D-02 0.100000000000D+01
  </mgrwgt>
  </event>
  <event>
  5     66 0.18982733E-05 0.39820300E+02 0.75467711E-02 0.94310084E-01
        1 -1    0    0  501    0 0.00000000E+00 0.00000000E+00 0.31748609E+04 0.31748609E+04 0.32000000E+00 0.0000E+00 0.9000E+01
        1 -1    0    0  502    0 0.00000000E+00 0.00000000E+00 -.43195990E+03 0.43196002E+03 0.32000000E+00 0.0000E+00 0.9000E+01
       25  1    1    2    0    0 -.27612600E+03 0.41042991E+03 0.19884885E+04 0.20529027E+04 0.12500000E+03 0.0000E+00 0.9000E+01
        1  1    1    2  501    0 -.19599833E+02 -.34688640E+02 0.10106468E+04 0.10114319E+04 0.32000000E+00 0.0000E+00 0.9000E+01
        1  1    1    2  502    0 0.29572584E+03 -.37574127E+03 -.25623427E+03 0.54248629E+03 0.32000000E+00 0.0000E+00 0.9000E+01
#aMCatNLO 1  0  0  1  4 0.91292592D+00 0.00000000D+00  -5  6  0 0.00000000D+00 0.00000000D+00 0.00000000D+00 0.00000000D+00 0.00000000D+00
  <mgrwgt>
 0.3443446719D-02    7    2    0
 0.117107338015520D+04 0.000000000000000D+00 0.000000000000000D+00 0.117107338015520D+04
 0.117107338015520D+04 0.000000000000000D+00 0.000000000000000D+00 -.117107338015520D+04
 0.832858273382681D+03 -.276175881942834D+03 0.410462268350555D+03 0.658236668710879D+03
 0.373782263454866D+03 -.195887246002909D+02 -.346689797097734D+02 0.371655114572449D+03
 0.113550622347285D+04 0.295764606543125D+03 -.375793288640781D+03 -.102989178328333D+04
 0.000000000000000D+00 0.000000000000000D+00 0.000000000000000D+00 0.000000000000000D+00
 0.168184726061827D+04 0.000000000000000D+00 0.000000000000000D+00 0.168184726061827D+04
 0.156968985070622D+04 0.000000000000000D+00 0.000000000000000D+00 -.156968985070622D+04
 0.768416047167003D+03 -.340443027060961D+03 0.160191306985540D+03 0.658236668710879D+03
 0.406509767433441D+03 -.509057453880862D+02 -.156624621044757D+03 0.371655114572449D+03
 0.129245579588019D+04 0.198318350497815D+03 -.755271296214545D+03 -.102989178328333D+04
 0.784155500843856D+03 0.193030421951232D+03 0.751704610273761D+03 0.112157409912051D+03
0.106439500355D-01 0.000000000000D+00 0.000000000000D+00 0.182190900535D-04 0.000000000000D+00  6 1 1 25 1 1 21 0 0.48844015D+00 0.66455380D-01 0.26435806D+06 0.26435806D+06 0.26435806D+06 0.10886393D+01  1  2  2  1  6  1        1 0.340747190473D-02 0.100000000000D+01
0.312693945654D-02 0.000000000000D+00 -.408755707528D-04 0.182190900535D-04 0.000000000000D+00  6 1 1 25 1 1 21 2 0.48844015D+00 0.66455380D-01 0.26435806D+06 0.26435806D+06 0.26435806D+06 0.10886393D+01  1  2  3  1  6  1        1 0.118636117629D-02 0.100000000000D+01
-.736828018607D-02 0.000000000000D+00 0.000000000000D+00 0.182190900535D-04 0.000000000000D+00  6 1 1 25 1 1 21 2 0.48844015D+00 0.66455380D-01 0.26435806D+06 0.26435806D+06 0.26435806D+06 0.10886393D+01  1  2 15  1  6  1        1 -.279552631903D-02 0.100000000000D+01
-.454441253266D-04 0.000000000000D+00 0.000000000000D+00 0.182190900535D-04 0.000000000000D+00  6 1 1 25 1 1 21 2 0.48844015D+00 0.66455380D-01 0.26435806D+06 0.26435806D+06 0.26435806D+06 0.10886393D+01  1  2  4  1  6  1        1 -.172415061843D-04 0.100000000000D+01
-.236310958068D-02 0.000000000000D+00 -.503960276908D-02 0.182190900535D-04 0.000000000000D+00  6 1 1 25 1 1 21 2 0.73665005D+00 0.66455380D-01 0.26435806D+06 0.26435806D+06 0.26435806D+06 0.10886393D+01  1  2  5  1  6  1        1 -.260896616394D-04 0.100000000000D+01
0.445028993901D-02 0.000000000000D+00 0.464217592648D-02 0.182190900535D-04 0.000000000000D+00  6 1 1 25 1 1 21 2 0.48844015D+00 0.66455380D-01 0.26435806D+06 0.26435806D+06 0.26435806D+06 0.10886393D+01  1  2  6  1  6  1        1 0.168844049597D-02 0.100000000000D+01
0.636109018231D-04 0.000000000000D+00 -.244676752258D-03 0.182190900535D-04 0.000000000000D+00  6 21 1 25 1 1 -1 2 0.73665005D+00 0.66455380D-01 0.26435806D+06 0.26435806D+06 0.26435806D+06 0.10886393D+01  1  2  5  4  6  1        1 0.306290397675D-07 0.100000000000D+01
  </mgrwgt>
  </event>
  <event>
  5     66 0.18982733E-05 0.22134650E+02 0.75467711E-02 0.93933122E-01
        1 -1    0    0  501    0 0.00000000E+00 0.00000000E+00 0.36331591E+03 0.36331605E+03 0.32000000E+00 0.0000E+00 0.9000E+01
        1 -1    0    0  502    0 0.00000000E+00 0.00000000E+00 -.24336748E+04 0.24336748E+04 0.32000000E+00 0.0000E+00 0.9000E+01
       25  1    1    2    0    0 0.10690388E+03 -.50737886E+03 -.19752263E+03 0.56877230E+03 0.12500000E+03 0.0000E+00 0.9000E+01
        1  1    1    2  501    0 -.13210024E+02 0.17773640E+02 0.14655073E+03 0.14821480E+03 0.32000000E+00 0.0000E+00 0.9000E+01
        1  1    1    2  502    0 -.93693851E+02 0.48960522E+03 -.20193870E+04 0.20800038E+04 0.32000000E+00 0.0000E+00 0.9000E+01
#aMCatNLO 1  0  0  1  5 0.78349328D+01 0.00000000D+00  -5  6  0 0.00000000D+00 0.00000000D+00 0.00000000D+00 0.00000000D+00 0.00000000D+00
  <mgrwgt>
 0.1970345750D-02   11    2    0
 0.940315379253762D+03 0.000000000000000D+00 0.000000000000000D+00 0.940315379253762D+03
 0.940315379253762D+03 0.000000000000000D+00 0.000000000000000D+00 -.940315379253762D+03
 0.628611108329378D+03 0.106914199996128D+03 -.507452503431077D+03 0.332548095943745D+03
 0.381588914084697D+03 -.132037697535832D+02 0.177652240810069D+02 0.380946396006031D+03
 0.870430736093450D+03 -.937104302425445D+02 0.489687279350070D+03 -.713494491949776D+03
 0.000000000000000D+00 0.000000000000000D+00 -.000000000000000D+00 0.000000000000000D+00
 0.950941840009440D+03 0.000000000000000D+00 0.000000000000000D+00 0.950941840009440D+03
 0.941768831386112D+03 0.000000000000000D+00 0.000000000000000D+00 -.941768831386112D+03
 0.627878276461427D+03 0.104322877271255D+03 -.507084441897213D+03 0.332548095943745D+03
 0.381657095394192D+03 -.147778512802330D+02 0.179888005794351D+02 0.380946396006031D+03
 0.871111707215083D+03 -.973021028537910D+02 0.490197426742265D+03 -.713494491949776D+03
 0.120635923248494D+02 0.775707686276845D+01 -.110178542448666D+01 0.917300862332837D+01
0.406869795132D-03 0.000000000000D+00 0.000000000000D+00 0.120759608770D-04 0.000000000000D+00  6 1 1 25 1 1 21 0 0.55894768D-01 0.37441152D+00 0.27780964D+06 0.27780964D+06 0.27780964D+06 0.10870297D+01  1  2  2  1  6  1        1 0.563479969164D-03 0.100000000000D+01
0.236538469849D-03 0.000000000000D+00 -.156248714458D-05 0.120759608770D-04 0.000000000000D+00  6 1 1 25 1 1 21 2 0.55894768D-01 0.37441152D+00 0.27780964D+06 0.27780964D+06 0.27780964D+06 0.10870297D+01  1  2  3  1  6  1        1 0.387086141990D-03 0.100000000000D+01
-.256735215010D-03 0.000000000000D+00 0.000000000000D+00 0.120759608770D-04 0.000000000000D+00  6 1 1 25 1 1 21 2 0.55894768D-01 0.37441152D+00 0.27780964D+06 0.27780964D+06 0.27780964D+06 0.10870297D+01  1  2 15  1  6  1        1 -.420137341527D-03 0.100000000000D+01
0.341273618063D-09 0.000000000000D+00 0.000000000000D+00 0.120759608770D-04 0.000000000000D+00  6 1 1 25 1 1 21 2 0.56577474D-01 0.37441152D+00 0.28273570D+06 0.28273570D+06 0.28273570D+06 0.10864614D+01  1  2 12  1  6  1        1 0.548191953284D-09 0.100000000000D+01
-.487561039717D-05 0.000000000000D+00 0.000000000000D+00 0.120759608770D-04 0.000000000000D+00  6 1 1 25 1 1 21 2 0.55894768D-01 0.37441152D+00 0.27780964D+06 0.27780964D+06 0.27780964D+06 0.10870297D+01  1  2  4  1  6  1        1 -.797874958642D-05 0.100000000000D+01
-.996653749057D-01 0.000000000000D+00 -.899772162585D-02 0.120759608770D-04 0.000000000000D+00  6 1 1 25 1 1 21 2 0.56588812D-01 0.37441152D+00 0.27780964D+06 0.27780964D+06 0.27780964D+06 0.10870297D+01  1  2  5  1  6  1        1 -.160410316313D+00 0.100000000000D+01
0.997694995950D-01 0.000000000000D+00 0.899703654469D-02 0.120759608770D-04 0.000000000000D+00  6 1 1 25 1 1 21 2 0.55894768D-01 0.37441152D+00 0.27780964D+06 0.27780964D+06 0.27780964D+06 0.10870297D+01  1  2  6  1  6  1        1 0.163268963019D+00 0.100000000000D+01
0.101640438707D-05 0.000000000000D+00 0.000000000000D+00 0.120759608770D-04 0.173321433617D-07  6 1 1 25 1 1 21 2 0.56526432D-01 0.37499025D+00 0.28273570D+06 0.28273570D+06 0.28273570D+06 0.10864614D+01  1  2 11  1  6  1        1 0.162494140385D-05 0.100000000000D+01
0.368055495901D-10 0.000000000000D+00 0.000000000000D+00 0.120759608770D-04 0.000000000000D+00  6 21 1 25 1 1 -1 2 0.56577474D-01 0.37441152D+00 0.28273570D+06 0.28273570D+06 0.28273570D+06 0.10864614D+01  1  2 12  4  6  1        1 0.229618019537D-09 0.100000000000D+01
-.225894139610D-03 0.000000000000D+00 -.204392449278D-04 0.120759608770D-04 0.000000000000D+00  6 21 1 25 1 1 -1 2 0.56588812D-01 0.37441152D+00 0.27780964D+06 0.27780964D+06 0.27780964D+06 0.10870297D+01  1  2  5  4  6  1        1 -.141258966940D-02 0.100000000000D+01
0.342726591269D-07 0.000000000000D+00 0.000000000000D+00 0.120759608770D-04 0.122435231993D-08  6 21 1 25 1 1 -1 2 0.56526432D-01 0.37499025D+00 0.28273570D+06 0.28273570D+06 0.28273570D+06 0.10864614D+01  1  2 11  4  6  1        1 0.212973907705D-06 0.100000000000D+01
  </mgrwgt>
  </event>
  <event>
  5     66 0.18982733E-05 0.26249737E+03 0.75467711E-02 0.92221867E-01
        1 -1    0    0  501    0 0.00000000E+00 0.00000000E+00 0.70164682E+03 0.70164690E+03 0.32000000E+00 0.0000E+00 0.9000E+01
        1 -1    0    0  502    0 0.00000000E+00 0.00000000E+00 -.12849679E+04 0.12849679E+04 0.32000000E+00 0.0000E+00 0.9000E+01
       25  1    1    2    0    0 -.41092945E+03 0.21373047E+03 -.13304567E+03 0.49786532E+03 0.12500000E+03 0.0000E+00 0.9000E+01
        1  1    1    2  501    0 0.16696580E+03 -.40129345E+03 0.39616884E+03 0.58810192E+03 0.32000000E+00 0.0000E+00 0.9000E+01
        1  1    1    2  502    0 0.24396366E+03 0.18756298E+03 -.84644425E+03 0.90064761E+03 0.32000000E+00 0.0000E+00 0.9000E+01
#aMCatNLO 1  0  0  2  5 0.18696854D+02 0.00000000D+00  -5  6  0 0.00000000D+00 0.00000000D+00 0.00000000D+00 0.00000000D+00 0.00000000D+00
  <mgrwgt>
 0.4311664201D-03   11    2    0
 0.949522913936796D+03 0.000000000000000D+00 0.000000000000000D+00 0.949522913936796D+03
 0.949522913936796D+03 0.000000000000000D+00 0.000000000000000D+00 -.949522913936796D+03
 0.479959644933112D+03 -.410953873921681D+03 0.213686629007643D+03 0.138274674626876D+02
 0.736855706893394D+03 0.166953537341004D+03 -.401263989779645D+03 0.595037864053045D+03
 0.682230476047088D+03 0.244000336580677D+03 0.187577360772002D+03 -.608865331515732D+03
 0.000000000000000D+00 -.000000000000000D+00 -.000000000000000D+00 -.000000000000000D+00
 0.950183868184150D+03 0.000000000000000D+00 0.000000000000000D+00 0.950183868184150D+03
 0.109168633077358D+04 0.000000000000000D+00 0.000000000000000D+00 -.109168633077358D+04
 0.479096482669861D+03 -.408003253784832D+03 0.217371998544411D+03 0.138274674626876D+02
 0.734834784828184D+03 0.171481321977485D+03 -.395608717737018D+03 0.595037864053045D+03
 0.685206597091911D+03 0.248207376448055D+03 0.192832017707869D+03 -.608865331515732D+03
 0.142732334367771D+03 -.116854446407083D+02 -.145952985152615D+02 -.141502462589428D+03
0.209493357657D-05 0.000000000000D+00 0.000000000000D+00 0.927696449155D-07 0.000000000000D+00  6 1 1 25 1 1 21 0 0.10794567D+00 0.19768738D+00 0.37340616D+06 0.37340616D+06 0.37340616D+06 0.10775882D+01  1  2  2  2  6  2        1 0.666148605183D-05 0.100000000000D+01
0.106668289504D-06 0.000000000000D+00 -.804509654272D-08 0.927696449155D-07 0.000000000000D+00  6 1 1 25 1 1 21 2 0.10794567D+00 0.19768738D+00 0.37340616D+06 0.37340616D+06 0.37340616D+06 0.10775882D+01  1  2  3  2  6  2        1 0.393859962750D-06 0.100000000000D+01
-.128038406993D-05 0.000000000000D+00 0.000000000000D+00 0.927696449155D-07 0.000000000000D+00  6 1 1 25 1 1 21 2 0.10794567D+00 0.19768738D+00 0.37340616D+06 0.37340616D+06 0.37340616D+06 0.10775882D+01  1  2 15  2  6  2        1 -.472766577991D-05 0.100000000000D+01
0.311733925094D-03 0.000000000000D+00 0.000000000000D+00 0.927696449155D-07 0.000000000000D+00  6 1 1 25 1 1 21 2 0.10794567D+00 0.22916366D+00 0.38631167D+06 0.38631167D+06 0.38631167D+06 0.10765195D+01  1  2 12  2  6  2        1 0.829755063108D-03 0.100000000000D+01
0.135620818079D-07 0.000000000000D+00 0.000000000000D+00 0.927696449155D-07 0.000000000000D+00  6 1 1 25 1 1 21 2 0.10794567D+00 0.22737918D+00 0.38631167D+06 0.38631167D+06 0.38631167D+06 0.10765195D+01  1  2 12  2  6  2        1 0.367576812293D-07 0.100000000000D+01
-.194838108248D-03 0.000000000000D+00 0.000000000000D+00 0.927696449155D-07 0.000000000000D+00  6 1 1 25 1 1 21 2 0.10794567D+00 0.19768738D+00 0.37340616D+06 0.37340616D+06 0.37340616D+06 0.10775882D+01  1  2  4  2  6  2        1 -.719416524008D-03 0.100000000000D+01
-.340081247043D-03 0.000000000000D+00 -.328815394204D-05 0.927696449155D-07 0.000000000000D+00  6 1 1 25 1 1 21 2 0.10794567D+00 0.22734256D+00 0.37340616D+06 0.37340616D+06 0.37340616D+06 0.10775882D+01  1  2  5  2  6  2        1 -.925764031303D-03 0.100000000000D+01
0.337272855082D-03 0.000000000000D+00 0.325629471792D-05 0.927696449155D-07 0.000000000000D+00  6 1 1 25 1 1 21 2 0.10794567D+00 0.19768738D+00 0.37340616D+06 0.37340616D+06 0.37340616D+06 0.10775882D+01  1  2  6  2  6  2        1 0.124533987333D-02 0.100000000000D+01
0.702434674930D-05 0.000000000000D+00 0.000000000000D+00 0.927696449155D-07 0.000000000000D+00  6 1 21 25 1 1 -1 2 0.10794567D+00 0.22916366D+00 0.38631167D+06 0.38631167D+06 0.38631167D+06 0.10765195D+01  1  2 12  5  6  2        1 0.144764303220D-04 0.100000000000D+01
0.292342453234D-09 0.000000000000D+00 0.000000000000D+00 0.927696449155D-07 0.000000000000D+00  6 1 21 25 1 1 -1 2 0.10794567D+00 0.22737918D+00 0.38631167D+06 0.38631167D+06 0.38631167D+06 0.10765195D+01  1  2 12  5  6  2        1 0.620241200560D-09 0.100000000000D+01
-.730373779502D-05 0.000000000000D+00 -.708121316456D-07 0.927696449155D-07 0.000000000000D+00  6 1 21 25 1 1 -1 2 0.10794567D+00 0.22734256D+00 0.37340616D+06 0.37340616D+06 0.37340616D+06 0.10775882D+01  1  2  5  5  6  2        1 -.155894495268D-04 0.100000000000D+01
  </mgrwgt>
  </event>
  <event>
  5     66 -.18982733E-05 0.26206308E+02 0.75467711E-02 0.90312798E-01
        1 -1    0    0  501    0 0.00000000E+00 0.00000000E+00 0.22499849E+04 0.22499849E+04 0.32000000E+00 0.0000E+00 0.9000E+01
        1 -1    0    0  502    0 0.00000000E+00 0.00000000E+00 -.10128690E+04 0.10128691E+04 0.32000000E+00 0.0000E+00 0.9000E+01
       25  1    1    2    0    0 0.69805224E+03 0.20231560E+03 -.22981998E+03 0.77243171E+03 0.12500000E+03 0.0000E+00 0.9000E+01
        1  1    1    2  501    0 -.70451519E+03 -.17691952E+03 0.19116143E+04 0.20449722E+04 0.32000000E+00 0.0000E+00 0.9000E+01
        1  1    1    2  502    0 0.64629560E+01 -.25396079E+02 -.44467845E+03 0.44545006E+03 0.32000000E+00 0.0000E+00 0.9000E+01
#aMCatNLO 1  0  0  5  2 0.13489351D+03 0.00000000D+00  -5  6  0 0.00000000D+00 0.00000000D+00 0.00000000D+00 0.00000000D+00 0.00000000D+00
  <mgrwgt>
 -.4586722307D-02    1    2    0
 0.150961589985187D+04 0.000000000000000D+00 0.000000000000000D+00 0.150961589985187D+04
 0.150961589985187D+04 -.000000000000000D+00 -.000000000000000D+00 -.150961589985187D+04
 0.928909757134590D+03 0.698050015541995D+03 0.202315831435818D+03 -.564838753142962D+03
 0.142670195013230D+04 -.704512980504673D+03 -.176918968434555D+03 0.122794120112478D+04
 0.663620092436852D+03 0.646296496267701D+01 -.253968630012628D+02 -.663102447981820D+03
 0.000000000000000D+00 -.000000000000000D+00 0.000000000000000D+00 0.000000000000000D+00
 0.150961589985187D+04 0.000000000000000D+00 0.000000000000000D+00 0.150961589985187D+04
 0.150961589985187D+04 -.000000000000000D+00 -.000000000000000D+00 -.150961589985187D+04
 0.995695214568860D+03 0.699066668302104D+03 0.198320793397171D+03 -.669147679134166D+03
 0.130161587369739D+04 -.703071774705648D+03 -.182582329824540D+03 0.108007298601026D+04
 0.535104058419550D+03 0.154558336936526D+03 -.695677105163056D+02 -.507551384072596D+03
 0.186816653017940D+03 -.150553230532982D+03 0.538292469436752D+02 0.966260771965049D+02
-.107130946411D-01 0.000000000000D+00 0.000000000000D+00 0.213106891846D-04 0.000000000000D+00  6 1 1 25 1 1 21 2 0.34615153D+00 0.15582601D+00 0.55505667D+06 0.55505667D+06 0.55505667D+06 0.10653188D+01  1  2 14  3  6  5        1 -.458672230730D-02 0.100000000000D+01
  </mgrwgt>
  </event>
  <event>
  5     66 0.18982733E-05 0.17956661E+03 0.75467711E-02 0.93323383E-01
        1 -1    0    0  501    0 0.00000000E+00 0.00000000E+00 0.20704133E+04 0.20704133E+04 0.32000000E+00 0.0000E+00 0.9000E+01
        1 -1    0    0  502    0 0.00000000E+00 0.00000000E+00 -.10480827E+04 0.10480828E+04 0.32000000E+00 0.0000E+00 0.9000E+01
       25  1    1    2    0    0 0.32897903E+03 0.43046521E+03 -.45490015E+03 0.71839170E+03 0.12500000E+03 0.0000E+00 0.9000E+01
        1  1    1    2  501    0 -.17108906E+03 -.34495005E+03 0.19011361E+04 0.19397372E+04 0.32000000E+00 0.0000E+00 0.9000E+01
        1  1    1    2  502    0 -.15788997E+03 -.85515163E+02 -.42390533E+03 0.46036715E+03 0.32000000E+00 0.0000E+00 0.9000E+01
#aMCatNLO 1  0  0  5  2 0.33804458D+02 0.00000000D+00  -5  6  0 0.00000000D+00 0.00000000D+00 0.00000000D+00 0.00000000D+00 0.00000000D+00
  <mgrwgt>
 0.1798054157D-02    8    2    0
 0.147307993369864D+04 0.000000000000000D+00 0.000000000000000D+00 0.147307993369864D+04
 0.147307993369864D+04 -.000000000000000D+00 -.000000000000000D+00 -.147307993369864D+04
 0.918253857261488D+03 0.328983283566370D+03 0.430467707176643D+03 -.730775409128943D+03
 0.139349597862179D+04 -.171088588030616D+03 -.344949097723802D+03 0.133924226989008D+04
 0.634410031513997D+03 -.157894695535754D+03 -.855186094528416D+02 -.608466860761138D+03
 0.000000000000000D+00 0.000000000000000D+00 -.000000000000000D+00 0.000000000000000D+00
 0.147307993369864D+04 0.000000000000000D+00 0.000000000000000D+00 0.147307993369864D+04
 0.147307993369864D+04 -.000000000000000D+00 -.000000000000000D+00 -.147307993369864D+04
 0.919768814248948D+03 0.328366959043199D+03 0.430133894720092D+03 -.733150492386497D+03
 0.139027994249776D+04 -.172022041895898D+03 -.345454673140863D+03 0.133564508924290D+04
 0.549710832214109D+03 -.120992896470522D+03 -.450654900618551D+02 -.534333060611719D+03
 0.864002784364603D+02 -.353520206767798D+02 -.396137315173739D+02 -.681615362446872D+02
0.394108813622D-03 0.000000000000D+00 0.000000000000D+00 0.337468979427D-05 0.000000000000D+00  6 1 1 25 1 1 21 0 0.31852513D+00 0.16124350D+00 0.31395452D+06 0.31395452D+06 0.31395452D+06 0.10830940D+01  1  2  2  3  6  5        1 0.193586311141D-03 0.100000000000D+01
0.278215050652D-04 0.000000000000D+00 -.151348161554D-05 0.337468979427D-05 0.000000000000D+00  6 1 1 25 1 1 21 2 0.31852513D+00 0.16124350D+00 0.31395452D+06 0.31395452D+06 0.31395452D+06 0.10830940D+01  1  2  3  3  6  5        1 0.160313995299D-04 0.100000000000D+01
-.238362531512D-03 0.000000000000D+00 0.000000000000D+00 0.337468979427D-05 0.000000000000D+00  6 1 1 25 1 1 21 2 0.31852513D+00 0.16124350D+00 0.31395452D+06 0.31395452D+06 0.31395452D+06 0.10830940D+01  1  2 15  3  6  5        1 -.137350045106D-03 0.100000000000D+01
0.268096204581D-02 0.000000000000D+00 0.000000000000D+00 0.337468979427D-05 0.000000000000D+00  6 1 1 25 1 1 21 2 0.31852513D+00 0.16124350D+00 0.31557366D+06 0.31557366D+06 0.31557366D+06 0.10829295D+01  1  2 12  3  6  5        1 0.154372531820D-02 0.100000000000D+01
0.991075948649D-09 0.000000000000D+00 0.000000000000D+00 0.337468979427D-05 0.000000000000D+00  6 1 1 25 1 1 21 2 0.31852513D+00 0.16124350D+00 0.31557366D+06 0.31557366D+06 0.31557366D+06 0.10829295D+01  1  2 12  3  6  5        1 0.570671649969D-09 0.100000000000D+01
-.780432452865D-03 0.000000000000D+00 0.000000000000D+00 0.337468979427D-05 0.000000000000D+00  6 1 1 25 1 1 21 2 0.31852513D+00 0.16124350D+00 0.31395452D+06 0.31395452D+06 0.31395452D+06 0.10830940D+01  1  2  4  3  6  5        1 -.449703365388D-03 0.100000000000D+01
-.650099308412D-02 0.000000000000D+00 0.000000000000D+00 0.337468979427D-05 0.000000000000D+00  6 1 1 25 1 1 21 2 0.31852513D+00 0.16124350D+00 0.31395452D+06 0.31395452D+06 0.31395452D+06 0.10830940D+01  1  2  5  3  6  5        1 -.374602370462D-02 0.100000000000D+01
0.759738048369D-02 0.000000000000D+00 -.000000000000D+00 0.337468979427D-05 0.000000000000D+00  6 1 1 25 1 1 21 2 0.31852513D+00 0.16124350D+00 0.31395452D+06 0.31395452D+06 0.31395452D+06 0.10830940D+01  1  2  6  3  6  5        1 0.437778767285D-02 0.100000000000D+01
  </mgrwgt>
  </event>
  <event>
  5     66 0.18982733E-05 0.74431080E+02 0.75467711E-02 0.95462573E-01
        1 -1    0    0  501    0 0.00000000E+00 0.00000000E+00 0.75365805E+03 0.75365812E+03 0.32000000E+00 0.0000E+00 0.9000E+01
        1 -1    0    0  502    0 0.00000000E+00 0.00000000E+00 -.87463598E+03 0.87463604E+03 0.32000000E+00 0.0000E+00 0.9000E+01
       25  1    1    2    0    0 -.36231376E+03 -.27398595E+03 -.93632333E+02 0.48034527E+03 0.12500000E+03 0.0000E+00 0.9000E+01
        1  1    1    2  501    0 0.31924067E+03 0.21329757E+03 0.49156091E+03 0.62373287E+03 0.32000000E+00 0.0000E+00 0.9000E+01
        1  1    1    2  502    0 0.43073092E+02 0.60688388E+02 -.51890651E+03 0.52421603E+03 0.32000000E+00 0.0000E+00 0.9000E+01
#aMCatNLO 1  0  0  1  5 0.73762275D+02 0.00000000D+00  -5  6  0 0.00000000D+00 0.00000000D+00 0.00000000D+00 0.00000000D+00 0.00000000D+00
  <mgrwgt>
 0.3570917181D-02    7    2    0
 0.811896886296193D+03 0.000000000000000D+00 0.000000000000000D+00 0.811896886296193D+03
 0.811896886296193D+03 0.000000000000000D+00 0.000000000000000D+00 -.811896886296193D+03
 0.474679241779495D+03 -.362302385791159D+03 -.273982594115821D+03 -.580163937862060D+02
 0.662047151028687D+03 0.319222720787923D+03 0.213285574913053D+03 0.539363095003695D+03
 0.487067379784204D+03 0.430796650032361D+02 0.606970192027671D+02 -.481346701217489D+03
 0.000000000000000D+00 -.000000000000000D+00 -.000000000000000D+00 0.000000000000000D+00
 0.115637288308306D+04 0.000000000000000D+00 0.000000000000000D+00 0.115637288308306D+04
 0.933877685796289D+03 0.000000000000000D+00 0.000000000000000D+00 -.933877685796289D+03
 0.402188338201429D+03 -.265470625813680D+03 -.268867819322737D+03 -.580163937862060D+02
 0.752334285749746D+03 0.475411690399173D+03 0.221535671832815D+03 0.539363095003695D+03
 0.509476335638656D+03 0.153127161411976D+03 0.665098657399389D+02 -.481346701217489D+03
 0.426251609289522D+03 -.363068225997468D+03 -.191777182500163D+02 0.222495197286775D+03
0.451488754332D-03 0.000000000000D+00 0.000000000000D+00 0.527991926990D-05 0.000000000000D+00  6 1 1 25 1 1 21 0 0.11594740D+00 0.13455939D+00 0.21597892D+06 0.21597892D+06 0.21597892D+06 0.10952708D+01  1  2  2  1  6  1        1 0.267448418526D-02 0.100000000000D+01
0.112192595486D-03 0.000000000000D+00 -.173383569635D-05 0.527991926990D-05 0.000000000000D+00  6 1 1 25 1 1 21 2 0.11594740D+00 0.13455939D+00 0.21597892D+06 0.21597892D+06 0.21597892D+06 0.10952708D+01  1  2  3  1  6  1        1 0.797260578613D-03 0.100000000000D+01
-.340429944173D-03 0.000000000000D+00 0.000000000000D+00 0.527991926990D-05 0.000000000000D+00  6 1 1 25 1 1 21 2 0.11594740D+00 0.13455939D+00 0.21597892D+06 0.21597892D+06 0.21597892D+06 0.10952708D+01  1  2 15  1  6  1        1 -.241915585509D-02 0.100000000000D+01
-.447694709668D-04 0.000000000000D+00 0.000000000000D+00 0.527991926990D-05 0.000000000000D+00  6 1 1 25 1 1 21 2 0.11594740D+00 0.13455939D+00 0.21597892D+06 0.21597892D+06 0.21597892D+06 0.10952708D+01  1  2  4  1  6  1        1 -.318139839554D-03 0.100000000000D+01
-.535415967993D-03 0.000000000000D+00 -.353818266336D-03 0.527991926990D-05 0.000000000000D+00  6 1 1 25 1 1 21 2 0.18002310D+00 0.13455939D+00 0.21597892D+06 0.21597892D+06 0.21597892D+06 0.10952708D+01  1  2  5  1  6  1        1 -.178948110151D-02 0.100000000000D+01
0.658042022916D-03 0.000000000000D+00 0.322136633044D-03 0.527991926990D-05 0.000000000000D+00  6 1 1 25 1 1 21 2 0.11594740D+00 0.13455939D+00 0.21597892D+06 0.21597892D+06 0.21597892D+06 0.10952708D+01  1  2  6  1  6  1        1 0.467616389182D-02 0.100000000000D+01
-.136668473701D-04 0.000000000000D+00 -.180751483303D-04 0.527991926990D-05 0.000000000000D+00  6 21 1 25 1 1 -1 2 0.18002310D+00 0.13455939D+00 0.21597892D+06 0.21597892D+06 0.21597892D+06 0.10952708D+01  1  2  5  4  6  1        1 -.502146786436D-04 0.100000000000D+01
  </mgrwgt>
  </event>
  <event>
  5     66 0.18982733E-05 0.11764912E+03 0.75467711E-02 0.92689966E-01
        1 -1    0    0  501    0 0.00000000E+00 0.00000000E+00 0.93111957E+03 0.93111962E+03 0.32000000E+00 0.0000E+00 0.9000E+01
        1 -1    0    0  502    0 -.00000000E+00 -.00000000E+00 -.97386919E+03 0.97386924E+03 0.32000000E+00 0.0000E+00 0.9000E+01
       25  1    1    2    0    0 -.33874141E+03 -.33448222E+03 -.91563243E+02 0.50063252E+03 0.12500000E+03 0.0000E+00 0.9000E+01
        1  1    1    2  501    0 0.18741948E+03 0.19553630E+03 0.68458458E+03 0.73621780E+03 0.32000000E+00 0.0000E+00 0.9000E+01
        1  1    1    2  502    0 0.15132192E+03 0.13894592E+03 -.63577096E+03 0.66813854E+03 0.32000000E+00 0.0000E+00 0.9000E+01
#aMCatNLO 1  0  0  5  1 0.16933206D+03 0.00000000D+00  -5  6  0 0.00000000D+00 0.00000000D+00 0.00000000D+00 0.00000000D+00 0.00000000D+00
  <mgrwgt>
 0.1322773194D-02    7    2    0
 0.952254566328843D+03 0.000000000000000D+00 0.000000000000000D+00 0.952254566328843D+03
 0.952254566328843D+03 -.000000000000000D+00 -.000000000000000D+00 -.952254566328843D+03
 0.498700472114996D+03 -.338751206412234D+03 -.334489998936757D+03 -.802572218137676D+02
 0.751720155931170D+03 0.187407123618916D+03 0.195523405616556D+03 0.701236308747750D+03
 0.654088504611521D+03 0.151344082793318D+03 0.138966593320201D+03 -.620979086933983D+03
 0.000000000000000D+00 0.000000000000000D+00 0.000000000000000D+00 -.000000000000000D+00
 0.952254566328843D+03 0.000000000000000D+00 0.000000000000000D+00 0.952254566328843D+03
 0.952254566328843D+03 -.000000000000000D+00 -.000000000000000D+00 -.952254566328843D+03
 0.494926590025310D+03 -.331103411672105D+03 -.327467669673318D+03 -.111636847017014D+03
 0.714700039776459D+03 0.198693934422351D+03 0.205887138495000D+03 0.654925456431935D+03
 0.493863949232618D+03 0.264048142210133D+03 0.394547742348016D+02 -.415479842756657D+03
 0.201018553623299D+03 -.131638664960379D+03 0.821257569435170D+02 -.127808766658265D+03
0.685420611627D-03 0.000000000000D+00 0.000000000000D+00 0.273970294044D-05 0.000000000000D+00  6 1 1 25 1 1 21 0 0.14324917D+00 0.14982604D+00 0.23449846D+06 0.23449846D+06 0.23449846D+06 0.10925567D+01  1  2  2  3  6  5        1 0.239289110326D-02 0.100000000000D+01
0.718713607875D-04 0.000000000000D+00 -.263219562404D-05 0.273970294044D-05 0.000000000000D+00  6 1 1 25 1 1 21 2 0.14324917D+00 0.14982604D+00 0.23449846D+06 0.23449846D+06 0.23449846D+06 0.10925567D+01  1  2  3  3  6  5        1 0.299508803213D-03 0.100000000000D+01
-.495039878885D-03 0.000000000000D+00 0.000000000000D+00 0.273970294044D-05 0.000000000000D+00  6 1 1 25 1 1 21 2 0.14324917D+00 0.14982604D+00 0.23449846D+06 0.23449846D+06 0.23449846D+06 0.10925567D+01  1  2 15  3  6  5        1 -.206297473768D-02 0.100000000000D+01
0.815404521912D-09 0.000000000000D+00 0.000000000000D+00 0.273970294044D-05 0.000000000000D+00  6 1 1 25 1 1 21 2 0.14324917D+00 0.14982604D+00 0.35428357D+06 0.35428357D+06 0.35428357D+06 0.10792481D+01  1  2 12  3  6  5        1 0.324301917559D-08 0.100000000000D+01
-.348780504060D-04 0.000000000000D+00 0.000000000000D+00 0.273970294044D-05 0.000000000000D+00  6 1 1 25 1 1 21 2 0.14324917D+00 0.14982604D+00 0.23449846D+06 0.23449846D+06 0.23449846D+06 0.10925567D+01  1  2  4  3  6  5        1 -.145346950733D-03 0.100000000000D+01
-.572503142586D-03 0.000000000000D+00 0.000000000000D+00 0.273970294044D-05 0.000000000000D+00  6 1 1 25 1 1 21 2 0.14324917D+00 0.14982604D+00 0.23449846D+06 0.23449846D+06 0.23449846D+06 0.10925567D+01  1  2  5  3  6  5        1 -.238578662200D-02 0.100000000000D+01
0.773759050483D-03 0.000000000000D+00 -.000000000000D+00 0.273970294044D-05 0.000000000000D+00  6 1 1 25 1 1 21 2 0.14324917D+00 0.14982604D+00 0.23449846D+06 0.23449846D+06 0.23449846D+06 0.10925567D+01  1  2  6  3  6  5        1 0.322447835474D-02 0.100000000000D+01
  </mgrwgt>
  </event>
  <event>
  5     66 0.18982733E-05 0.15132091E+02 0.75467711E-02 0.76121871E-01
        1 -1    0    0  501    0 0.00000000E+00 0.00000000E+00 0.17474438E+04 0.17474439E+04 0.32000000E+00 0.0000E+00 0.9000E+01
        1 -1    0    0  502    0 0.00000000E+00 0.00000000E+00 -.16215858E+04 0.16215859E+04 0.32000000E+00 0.0000E+00 0.9000E+01
       25  1    1    2    0    0 0.41743104E+02 -.53790834E+03 -.17210968E+03 0.57994363E+03 0.12500000E+03 0.0000E+00 0.9000E+01
        1  1    1    2  501    0 -.48344842E+02 0.52429333E+03 0.14985772E+04 0.15883811E+04 0.32000000E+00 0.0000E+00 0.9000E+01
        1  1    1    2  502    0 0.66017377E+01 0.13615007E+02 -.12006096E+04 0.12007050E+04 0.32000000E+00 0.0000E+00 0.9000E+01
#aMCatNLO 1  0  0  1  2 0.51629639D+03 0.00000000D+00  -5  6  0 0.00000000D+00 0.00000000D+00 0.00000000D+00 0.00000000D+00 0.00000000D+00
  <mgrwgt>
 0.1239998172D+00    3    2    0
 0.168333901962837D+04 0.000000000000000D+00 0.000000000000000D+00 0.168333901962837D+04
 0.168333901962837D+04 0.000000000000000D+00 0.000000000000000D+00 -.168333901962837D+04
 0.586759300280173D+03 0.417421749830372D+02 -.537903323975820D+03 -.193853246938834D+03
 0.153345141649876D+04 -.483442991792427D+02 0.524287445772183D+03 0.144022871437303D+04
 0.124646732247780D+04 0.660212419620547D+01 0.136158782036367D+02 -.124637546743420D+04
 0.000000000000000D+00 0.000000000000000D+00 0.000000000000000D+00 -.000000000000000D+00
 0.367191147702736D+04 0.000000000000000D+00 0.000000000000000D+00 0.367191147702736D+04
 0.566701204129227D+04 0.000000000000000D+00 0.000000000000000D+00 -.566701204129227D+04
 0.135769578947490D+04 -.444962710869177D+03 -.126180107835787D+04 -.193853246938834D+03
 0.184774969073776D+04 -.894672459501124D+03 -.734493948325706D+03 0.144022871437303D+04
 0.185774981494075D+04 -.770395840677384D+03 -.114204764250778D+04 -.124637546743420D+04
 0.427572822316622D+04 0.211003101104768D+04 0.313834266919136D+04 -.199510056426490D+04
0.286565246409D+00 0.000000000000D+00 0.000000000000D+00 0.260405582387D-03 0.000000000000D+00  6 1 1 25 1 1 21 0 0.26883752D+00 0.24947475D+00 0.30000564D+06 0.30000564D+06 0.30000564D+06 0.10845513D+01  1  2  2  1  6  1        1 0.924400077342D-01 0.100000000000D+01
0.295230941475D+00 0.000000000000D+00 -.110048600057D-02 0.260405582387D-03 0.000000000000D+00  6 1 1 25 1 1 21 2 0.26883752D+00 0.24947475D+00 0.30000564D+06 0.30000564D+06 0.30000564D+06 0.10845513D+01  1  2  3  1  6  1        1 0.112020754324D+00 0.100000000000D+01
-.212054994940D+00 0.000000000000D+00 0.000000000000D+00 0.260405582387D-03 0.000000000000D+00  6 1 1 25 1 1 21 2 0.26883752D+00 0.24947475D+00 0.30000564D+06 0.30000564D+06 0.30000564D+06 0.10845513D+01  1  2 15  1  6  1        1 -.804609448208D-01 0.100000000000D+01
  </mgrwgt>
  </event>
  <event>
  5     66 -.18982733E-05 0.47584420E+02 0.75467711E-02 0.94807140E-01
        1 -1    0    0  501    0 0.00000000E+00 0.00000000E+00 0.15912287E+04 0.15912288E+04 0.32000000E+00 0.0000E+00 0.9000E+01
        1 -1    0    0  502    0 0.00000000E+00 0.00000000E+00 -.10118849E+04 0.10118849E+04 0.32000000E+00 0.0000E+00 0.9000E+01
       25  1    1    2    0    0 0.45154059E+03 -.14221533E+03 0.61100220E+03 0.78298326E+03 0.12500000E+03 0.0000E+00 0.9000E+01
        1  1    1    2  501    0 -.42467605E+03 0.10294659E+03 0.84016564E+03 0.94700906E+03 0.32000000E+00 0.0000E+00 0.9000E+01
        1  1    1    2  502    0 -.26864539E+02 0.39268743E+02 -.87182398E+03 0.87312135E+03 0.32000000E+00 0.0000E+00 0.9000E+01
#aMCatNLO 1  0  0  5  1 0.27247232D+02 0.00000000D+00  -5  6  0 0.00000000D+00 0.00000000D+00 0.00000000D+00 0.00000000D+00 0.00000000D+00
  <mgrwgt>
 -.2182457404D-01    5    2    0
 0.126891306776694D+04 0.000000000000000D+00 0.000000000000000D+00 0.126891306776694D+04
 0.126891306776694D+04 -.000000000000000D+00 -.000000000000000D+00 -.126891306776694D+04
 0.663702709087729D+03 0.451482197922700D+03 -.142205013661954D+03 0.448127041249111D+03
 0.779462387250913D+03 -.424614389981362D+03 0.102931639483696D+03 0.645499272310082D+03
 0.109466103919523D+04 -.268678079413361D+02 0.392733741782551D+02 -.109362631355919D+04
 0.000000000000000D+00 0.000000000000000D+00 0.000000000000000D+00 -.000000000000000D+00
 0.126891306776694D+04 0.000000000000000D+00 0.000000000000000D+00 0.126891306776694D+04
 0.126891306776694D+04 -.000000000000000D+00 -.000000000000000D+00 -.126891306776694D+04
 0.663409102134465D+03 0.451471885013172D+03 -.142189939013674D+03 0.447707264940830D+03
 0.779063127797603D+03 -.424626501193468D+03 0.102949342757660D+03 0.645006297956651D+03
 0.331976713060548D+03 -.330249756234465D+02 0.228780912583587D+02 -.329536768722294D+03
 0.763377192541260D+03 0.617959180374423D+01 0.163625049976532D+02 -.763176794175187D+03
0.549409400629D-03 0.000000000000D+00 0.000000000000D+00 0.328510937694D-04 0.000000000000D+00  6 1 1 25 1 1 21 0 0.24480443D+00 0.15567460D+00 0.23720378D+06 0.23720378D+06 0.23720378D+06 0.10921799D+01  1  2  2  3  6  5        1 0.611232942633D-03 0.100000000000D+01
0.269736839129D-03 0.000000000000D+00 -.210987676123D-05 0.328510937694D-04 0.000000000000D+00  6 1 1 25 1 1 21 2 0.24480443D+00 0.15567460D+00 0.23720378D+06 0.23720378D+06 0.23720378D+06 0.10921799D+01  1  2  3  3  6  5        1 0.357963942447D-03 0.100000000000D+01
-.349646679106D-03 0.000000000000D+00 0.000000000000D+00 0.328510937694D-04 0.000000000000D+00  6 1 1 25 1 1 21 2 0.24480443D+00 0.15567460D+00 0.23720378D+06 0.23720378D+06 0.23720378D+06 0.10921799D+01  1  2 15  3  6  5        1 -.464011160361D-03 0.100000000000D+01
0.568484641866D-09 0.000000000000D+00 0.000000000000D+00 0.328510937694D-04 0.000000000000D+00  6 1 1 25 1 1 21 2 0.24480443D+00 0.15567460D+00 0.24214022D+06 0.24214022D+06 0.24214022D+06 0.10915043D+01  1  2 12  3  6  5        1 0.752396269617D-09 0.100000000000D+01
-.168261612573D-01 0.000000000000D+00 0.000000000000D+00 0.328510937694D-04 0.000000000000D+00  6 1 1 25 1 1 21 2 0.24480443D+00 0.15567460D+00 0.23720378D+06 0.23720378D+06 0.23720378D+06 0.10921799D+01  1  2  5  3  6  5        1 -.223297605153D-01 0.100000000000D+01
  </mgrwgt>
  </event>
  <event>
  5     66 0.18982733E-05 0.75905765E+02 0.75467711E-02 0.92920615E-01
        1 -1    0    0  501    0 0.00000000E+00 0.00000000E+00 0.14071677E+04 0.14071677E+04 0.32000000E+00 0.0000E+00 0.9000E+01
        1 -1    0    0  502    0 0.00000000E+00 0.00000000E+00 -.29504156E+03 0.29504173E+03 0.32000000E+00 0.0000E+00 0.9000E+01
       25  1    1    2    0    0 0.25669392E+03 -.50886322E+03 0.70253650E+03 0.91324481E+03 0.12500000E+03 0.0000E+00 0.9000E+01
        1  1    1    2  501    0 -.19300385E+03 0.46759548E+03 0.47111715E+03 0.69126514E+03 0.32000000E+00 0.0000E+00 0.9000E+01
        1  1    1    2  502    0 -.63690074E+02 0.41267739E+02 -.61527535E+02 0.97699498E+02 0.32000000E+00 0.0000E+00 0.9000E+01
#aMCatNLO 1  0  0  5  2 0.84623800D+01 0.00000000D+00  -5  6  0 0.00000000D+00 0.00000000D+00 0.00000000D+00 0.00000000D+00 0.00000000D+00
  <mgrwgt>
 0.6351041750D-03    9    2    0
 0.644339292681511D+03 0.000000000000000D+00 0.000000000000000D+00 0.644339292681511D+03
 0.644339292681511D+03 -.000000000000000D+00 -.000000000000000D+00 -.644339292681511D+03
 0.600000376523397D+03 0.256689670512759D+03 -.508834348252479D+03 0.139905221199011D+03
 0.506474580070279D+03 -.192988089856199D+03 0.467557311104366D+03 0.257343790264379D+02
 0.182203628769345D+03 -.637015806565597D+02 0.412770371481131D+02 -.165639600225449D+03
 0.000000000000000D+00 0.000000000000000D+00 0.000000000000000D+00 0.000000000000000D+00
 0.644339292681511D+03 0.000000000000000D+00 0.000000000000000D+00 0.644339292681511D+03
 0.644339292681511D+03 -.000000000000000D+00 -.000000000000000D+00 -.644339292681511D+03
 0.599750679025842D+03 0.256531923823474D+03 -.508732132328063D+03 0.139495041447100D+03
 0.506587545612810D+03 -.193121290152733D+03 0.467643621577851D+03 0.253880258647040D+02
 0.130403543500337D+03 -.429601969241091D+02 0.219283514282384D+02 -.121155491172813D+03
 0.519368172240329D+02 -.204504367466314D+02 0.191601593219736D+02 -.437275761389906D+02
0.299730993312D-05 0.000000000000D+00 0.000000000000D+00 0.158803701861D-07 0.000000000000D+00  6 1 1 25 1 1 21 0 0.21648735D+00 0.45391025D-01 0.33941538D+06 0.33941538D+06 0.33941538D+06 0.10806077D+01  1  2  2  3  6  5        1 0.265052473193D-04 0.100000000000D+01
0.454855838988D-06 0.000000000000D+00 -.115104593530D-07 0.158803701861D-07 0.000000000000D+00  6 1 1 25 1 1 21 2 0.21648735D+00 0.45391025D-01 0.33941538D+06 0.33941538D+06 0.33941538D+06 0.10806077D+01  1  2  3  3  6  5        1 0.469688674733D-05 0.100000000000D+01
-.163738034519D-05 0.000000000000D+00 0.000000000000D+00 0.158803701861D-07 0.000000000000D+00  6 1 1 25 1 1 21 2 0.21648735D+00 0.45391025D-01 0.33941538D+06 0.33941538D+06 0.33941538D+06 0.10806077D+01  1  2 15  3  6  5        1 -.169077527085D-04 0.100000000000D+01
0.763893391777D-04 0.000000000000D+00 0.000000000000D+00 0.158803701861D-07 0.000000000000D+00  6 1 1 25 1 1 21 2 0.21648735D+00 0.45391025D-01 0.33960369D+06 0.33960369D+06 0.33960369D+06 0.10805901D+01  1  2 12  3  6  5        1 0.788759824972D-03 0.100000000000D+01
0.251460389892D-06 0.000000000000D+00 0.000000000000D+00 0.158803701861D-07 0.000000000000D+00  6 1 1 25 1 1 21 2 0.21648735D+00 0.45391025D-01 0.33960369D+06 0.33960369D+06 0.33960369D+06 0.10805901D+01  1  2 12  3  6  5        1 0.259645986278D-05 0.100000000000D+01
-.599230434416D-04 0.000000000000D+00 0.000000000000D+00 0.158803701861D-07 0.000000000000D+00  6 1 1 25 1 1 21 2 0.21648735D+00 0.45391025D-01 0.33941538D+06 0.33941538D+06 0.33941538D+06 0.10806077D+01  1  2  4  3  6  5        1 -.618771321539D-03 0.100000000000D+01
-.788809452634D-04 0.000000000000D+00 0.000000000000D+00 0.158803701861D-07 0.000000000000D+00  6 1 1 25 1 1 21 2 0.21648735D+00 0.45391025D-01 0.33941538D+06 0.33941538D+06 0.33941538D+06 0.10806077D+01  1  2  5  3  6  5        1 -.814532506054D-03 0.100000000000D+01
0.122226247888D-03 0.000000000000D+00 -.000000000000D+00 0.158803701861D-07 0.000000000000D+00  6 1 1 25 1 1 21 2 0.21648735D+00 0.45391025D-01 0.33941538D+06 0.33941538D+06 0.33941538D+06 0.10806077D+01  1  2  6  3  6  5        1 0.126212042294D-02 0.100000000000D+01
0.616834123092D-07 0.000000000000D+00 0.000000000000D+00 0.158803701861D-07 0.401086745410D-09  6 1 1 25 1 1 21 2 0.21648735D+00 0.45391025D-01 0.33960369D+06 0.33960369D+06 0.33960369D+06 0.10805901D+01  1  2 11  3  6  5        1 0.636913449187D-06 0.100000000000D+01
  </mgrwgt>
  </event>
  <event>
  5     66 0.18982733E-05 0.55591302E+02 0.75467711E-02 0.87295661E-01
        1 -1    0    0  501    0 0.00000000E+00 0.00000000E+00 0.25124087E+04 0.25124087E+04 0.32000000E+00 0.0000E+00 0.9000E+01
        1 -1    0    0  502    0 -.00000000E+00 -.00000000E+00 -.27252985E+04 0.27252986E+04 0.32000000E+00 0.0000E+00 0.9000E+01
       25  1    1    2    0    0 0.49726724E+03 0.28288664E+03 -.13260758E+04 0.14496212E+04 0.12500000E+03 0.0000E+00 0.9000E+01
        1  1    1    2  501    0 -.54155652E+03 -.31649339E+03 0.24098929E+04 0.24901879E+04 0.32000000E+00 0.0000E+00 0.9000E+01
        1  1    1    2  502    0 0.44289275E+02 0.33606747E+02 -.12967069E+04 0.12978982E+04 0.32000000E+00 0.0000E+00 0.9000E+01
#aMCatNLO 1  0  0  5  1 0.20069400D+03 0.00000000D+00  -5  6  0 0.00000000D+00 0.00000000D+00 0.00000000D+00 0.00000000D+00 0.00000000D+00
  <mgrwgt>
 0.7890313458D-02    6    2    0
 0.261668949796561D+04 0.000000000000000D+00 0.000000000000000D+00 0.261668949796561D+04
 0.261668949796561D+04 -.000000000000000D+00 -.000000000000000D+00 -.261668949796561D+04
 0.139699004020677D+04 0.497272185785851D+03 0.282890266582251D+03 -.126832552712374D+04
 0.259028447929083D+04 -.541557465375947D+03 -.316493940025551D+03 0.251318936438893D+04
 0.124610447643361D+04 0.442852795900948D+02 0.336036734432986D+02 -.124486383726520D+04
 0.000000000000000D+00 0.000000000000000D+00 0.000000000000000D+00 0.000000000000000D+00
 0.261668949796561D+04 0.000000000000000D+00 0.000000000000000D+00 0.261668949796561D+04
 0.261668949796561D+04 -.000000000000000D+00 -.000000000000000D+00 -.261668949796561D+04
 0.148012009349588D+04 0.500450749951719D+03 0.285302161307475D+03 -.135767529799886D+04
 0.243731957943374D+04 -.536003085682922D+03 -.312279276301801D+03 0.235705517076327D+04
 0.812660599250313D+03 -.325312194624500D+03 0.225098568168785D+03 -.709873129658273D+03
 0.503278723751286D+03 0.360864530355703D+03 -.198121453174460D+03 -.289506743106135D+03
0.648990681245D+00 0.000000000000D+00 0.000000000000D+00 0.225695500151D-03 0.000000000000D+00  6 1 1 25 1 1 21 0 0.38652442D+00 0.41927670D+00 0.40224332D+06 0.40224332D+06 0.40224332D+06 0.10752526D+01  1  2  2  3  6  5        1 0.109955168837D-01 0.100000000000D+01
0.215340667303D+00 0.000000000000D+00 -.249229509915D-02 0.225695500151D-03 0.000000000000D+00  6 1 1 25 1 1 21 2 0.38652442D+00 0.41927670D+00 0.40224332D+06 0.40224332D+06 0.40224332D+06 0.10752526D+01  1  2  3  3  6  5        1 0.421817141514D-02 0.100000000000D+01
-.534862759395D+00 0.000000000000D+00 0.000000000000D+00 0.225695500151D-03 0.000000000000D+00  6 1 1 25 1 1 21 2 0.38652442D+00 0.41927670D+00 0.40224332D+06 0.40224332D+06 0.40224332D+06 0.10752526D+01  1  2 15  3  6  5        1 -.104770865204D-01 0.100000000000D+01
-.598160037173D-02 0.000000000000D+00 0.000000000000D+00 0.225695500151D-03 0.000000000000D+00  6 1 1 25 1 1 21 2 0.38652442D+00 0.41927670D+00 0.40224332D+06 0.40224332D+06 0.40224332D+06 0.10752526D+01  1  2  4  3  6  5        1 -.117169766495D-03 0.100000000000D+01
-.330868605678D+00 0.000000000000D+00 0.000000000000D+00 0.225695500151D-03 0.000000000000D+00  6 1 1 25 1 1 21 2 0.38652442D+00 0.41927670D+00 0.40224332D+06 0.40224332D+06 0.40224332D+06 0.10752526D+01  1  2  5  3  6  5        1 -.648117474565D-02 0.100000000000D+01
0.497849442611D+00 0.000000000000D+00 -.000000000000D+00 0.225695500151D-03 0.000000000000D+00  6 1 1 25 1 1 21 2 0.38652442D+00 0.41927670D+00 0.40224332D+06 0.40224332D+06 0.40224332D+06 0.10752526D+01  1  2  6  3  6  5        1 0.975205619155D-02 0.100000000000D+01
  </mgrwgt>
  </event>
  <event>
  5     66 0.18982733E-05 0.33399794E+02 0.75467711E-02 0.92110330E-01
        1 -1    0    0  501    0 0.00000000E+00 0.00000000E+00 0.26440105E+04 0.26440105E+04 0.32000000E+00 0.0000E+00 0.9000E+01
        1 -1    0    0  502    0 0.00000000E+00 0.00000000E+00 -.60578983E+03 0.60578991E+03 0.32000000E+00 0.0000E+00 0.9000E+01
       25  1    1    2    0    0 0.21682883E+02 -.60747277E+03 0.91708459E+03 0.11073222E+04 0.12500000E+03 0.0000E+00 0.9000E+01
        1  1    1    2  501    0 -.27806342E+02 0.57464305E+03 0.15804733E+04 0.16819286E+04 0.32000000E+00 0.0000E+00 0.9000E+01
        1  1    1    2  502    0 0.61234586E+01 0.32829727E+02 -.45933716E+03 0.46054969E+03 0.32000000E+00 0.0000E+00 0.9000E+01
#aMCatNLO 1  0  0  5  1 0.14493297D+02 0.00000000D+00  -5  6  0 0.00000000D+00 0.00000000D+00 0.00000000D+00 0.00000000D+00 0.00000000D+00
  <mgrwgt>
 0.2276012301D-02    7    2    0
 0.126558873484434D+04 0.000000000000000D+00 0.000000000000000D+00 0.126558873484434D+04
 0.126558873484434D+04 -.000000000000000D+00 -.000000000000000D+00 -.126558873484434D+04
 0.683233558448439D+03 0.216795596952893D+02 -.607422085485562D+03 0.285922195965799D+03
 0.886688459104465D+03 -.278037049052205D+02 0.574588549463456D+03 0.674752826098621D+03
 0.961255452135769D+03 0.612414520993101D+01 0.328335360221060D+02 -.960675022064420D+03
 0.000000000000000D+00 0.000000000000000D+00 0.000000000000000D+00 -.000000000000000D+00
 0.126558873484434D+04 0.000000000000000D+00 0.000000000000000D+00 0.126558873484434D+04
 0.126558873484434D+04 -.000000000000000D+00 -.000000000000000D+00 -.126558873484434D+04
 0.681810635180064D+03 0.216998616871849D+02 -.607313239898240D+03 0.282737487595299D+03
 0.883640456342225D+03 -.277773752058147D+02 0.574729711552900D+03 0.670622570578781D+03
 0.950894229255451D+03 0.161211464283331D+02 0.428970170294651D+02 -.949789339695455D+03
 0.148321489109319D+02 -.100436329097034D+02 -.103134886841255D+02 -.357071847862534D+01
0.350482557942D-02 0.000000000000D+00 0.000000000000D+00 0.160353544674D-04 0.000000000000D+00  6 1 1 25 1 1 21 0 0.40677086D+00 0.93198443D-01 0.37772697D+06 0.37772697D+06 0.37772697D+06 0.10772259D+01  1  2  2  3  6  5        1 0.165995485381D-02 0.100000000000D+01
0.243054846657D-02 0.000000000000D+00 -.134594530667D-04 0.160353544674D-04 0.000000000000D+00  6 1 1 25 1 1 21 2 0.40677086D+00 0.93198443D-01 0.37772697D+06 0.37772697D+06 0.37772697D+06 0.10772259D+01  1  2  3  3  6  5        1 0.133581945481D-02 0.100000000000D+01
-.243295031094D-02 0.000000000000D+00 0.000000000000D+00 0.160353544674D-04 0.000000000000D+00  6 1 1 25 1 1 21 2 0.40677086D+00 0.93198443D-01 0.37772697D+06 0.37772697D+06 0.37772697D+06 0.10772259D+01  1  2 15  3  6  5        1 -.133713949861D-02 0.100000000000D+01
0.126199876727D-09 0.000000000000D+00 0.000000000000D+00 0.160353544674D-04 0.000000000000D+00  6 1 1 25 1 1 21 2 0.40677086D+00 0.93198443D-01 0.39441302D+06 0.39441302D+06 0.39441302D+06 0.10758683D+01  1  2 12  3  6  5        1 0.689449712624D-10 0.100000000000D+01
-.534714929599D-04 0.000000000000D+00 0.000000000000D+00 0.160353544674D-04 0.000000000000D+00  6 1 1 25 1 1 21 2 0.40677086D+00 0.93198443D-01 0.37772697D+06 0.37772697D+06 0.37772697D+06 0.10772259D+01  1  2  4  3  6  5        1 -.293877129198D-04 0.100000000000D+01
-.756833844442D-01 0.000000000000D+00 0.000000000000D+00 0.160353544674D-04 0.000000000000D+00  6 1 1 25 1 1 21 2 0.40677086D+00 0.93198443D-01 0.37772697D+06 0.37772697D+06 0.37772697D+06 0.10772259D+01  1  2  5  3  6  5        1 -.415952772539D-01 0.100000000000D+01
0.768601856964D-01 0.000000000000D+00 -.000000000000D+00 0.160353544674D-04 0.000000000000D+00  6 1 1 25 1 1 21 2 0.40677086D+00 0.93198443D-01 0.37772697D+06 0.37772697D+06 0.37772697D+06 0.10772259D+01  1  2  6  3  6  5        1 0.422420423889D-01 0.100000000000D+01
  </mgrwgt>
  </event>
  <event>
  5     66 -.18982733E-05 0.16081258E+03 0.75467711E-02 0.95138833E-01
        1 -1    0    0  501    0 0.00000000E+00 0.00000000E+00 0.14768671E+04 0.14768671E+04 0.32000000E+00 0.0000E+00 0.9000E+01
        1 -1    0    0  502    0 -.00000000E+00 -.00000000E+00 -.32567646E+04 0.32567646E+04 0.32000000E+00 0.0000E+00 0.9000E+01
       25  1    1    2    0    0 -.21105233E+03 0.41365955E+03 0.10291621E+04 0.11359828E+04 0.12500000E+03 0.0000E+00 0.9000E+01
        1  1    1    2  501    0 0.17073044E+03 -.24703929E+03 0.33444213E+03 0.44947629E+03 0.32000000E+00 0.0000E+00 0.9000E+01
        1  1    1    2  502    0 0.40321890E+02 -.16662026E+03 -.31435017E+04 0.31481727E+04 0.32000000E+00 0.0000E+00 0.9000E+01
#aMCatNLO 1  0  0  5  1 0.40361682D+02 0.00000000D+00  -5  6  0 0.00000000D+00 0.00000000D+00 0.00000000D+00 0.00000000D+00 0.00000000D+00
  <mgrwgt>
 -.8747276769D-03    5    2    0
 0.219312759710576D+04 0.000000000000000D+00 0.000000000000000D+00 0.219312759710576D+04
 0.219312759710576D+04 -.000000000000000D+00 -.000000000000000D+00 -.219312759710576D+04
 0.164376573273725D+04 -.210993052505696D+03 0.413581606896680D+03 0.157186925994254D+04
 0.620559693140407D+03 0.170668085369580D+03 -.246949068077921D+03 0.543123278052271D+03
 0.212192976833387D+04 0.403249671361160D+02 -.166632538818757D+03 -.211499253799481D+04
 0.000000000000000D+00 0.000000000000000D+00 0.000000000000000D+00 -.000000000000000D+00
 0.219312759710576D+04 0.000000000000000D+00 0.000000000000000D+00 0.219312759710576D+04
 0.219312759710576D+04 -.000000000000000D+00 -.000000000000000D+00 -.219312759710576D+04
 0.164312510566383D+04 -.210980570052142D+03 0.413530026372896D+03 0.157121457134640D+04
 0.620352429148931D+03 0.170672797916693D+03 -.246968541464896D+03 0.542876111031761D+03
 0.688036318290489D+03 0.432461910998576D+01 -.932351824490968D+02 -.681676223518152D+03
 0.143474134110828D+04 0.359831530254627D+02 -.733263024589016D+02 -.143241445886001D+04
0.343920305896D-03 0.000000000000D+00 0.000000000000D+00 0.122890826407D-04 0.000000000000D+00  6 1 1 25 1 1 21 0 0.22721033D+00 0.50104071D+00 0.22679179D+06 0.22679179D+06 0.22679179D+06 0.10936566D+01  1  2  2  3  6  5        1 0.124643605760D-04 0.100000000000D+01
0.308141490185D-04 0.000000000000D+00 -.132074453094D-05 0.122890826407D-04 0.000000000000D+00  6 1 1 25 1 1 21 2 0.22721033D+00 0.50104071D+00 0.22679179D+06 0.22679179D+06 0.22679179D+06 0.10936566D+01  1  2  3  3  6  5        1 0.133574740526D-05 0.100000000000D+01
-.246838248283D-03 0.000000000000D+00 0.000000000000D+00 0.122890826407D-04 0.000000000000D+00  6 1 1 25 1 1 21 2 0.22721033D+00 0.50104071D+00 0.22679179D+06 0.22679179D+06 0.22679179D+06 0.10936566D+01  1  2 15  3  6  5        1 -.107000699408D-04 0.100000000000D+01
0.384357486322D-09 0.000000000000D+00 0.000000000000D+00 0.122890826407D-04 0.000000000000D+00  6 1 1 25 1 1 21 2 0.22721033D+00 0.50104071D+00 0.22848139D+06 0.22848139D+06 0.22848139D+06 0.10934120D+01  1  2 12  3  6  5        1 0.166396410816D-10 0.100000000000D+01
-.202504713302D-01 0.000000000000D+00 0.000000000000D+00 0.122890826407D-04 0.000000000000D+00  6 1 1 25 1 1 21 2 0.22721033D+00 0.50104071D+00 0.22679179D+06 0.22679179D+06 0.22679179D+06 0.10936566D+01  1  2  5  3  6  5        1 -.877827731622D-03 0.100000000000D+01
  </mgrwgt>
  </event>
  <event>
  5     66 -.18982733E-05 0.23105663E+02 0.75467711E-02 0.91310526E-01
        1 -1    0    0  501    0 0.00000000E+00 0.00000000E+00 0.13299686E+04 0.13299686E+04 0.32000000E+00 0.0000E+00 0.9000E+01
        1 -1    0    0  502    0 0.00000000E+00 0.00000000E+00 -.52067301E+03 0.52067311E+03 0.32000000E+00 0.0000E+00 0.9000E+01
       25  1    1    2    0    0 -.63406132E+03 0.16684664E+03 0.11199972E+03 0.67678689E+03 0.12500000E+03 0.0000E+00 0.9000E+01
        1  1    1    2  501    0 0.64690199E+03 -.14763704E+03 0.81667861E+03 0.10522561E+04 0.32000000E+00 0.0000E+00 0.9000E+01
        1  1    1    2  502    0 -.12840669E+02 -.19209600E+02 -.11938278E+03 0.12159870E+03 0.32000000E+00 0.0000E+00 0.9000E+01
#aMCatNLO 1  0  0  1  4 0.33055087D+03 0.00000000D+00  -5  6  0 0.00000000D+00 0.00000000D+00 0.00000000D+00 0.00000000D+00 0.00000000D+00
  <mgrwgt>
 -.1274926333D-02    1    2    0
 0.832153148984546D+03 0.000000000000000D+00 0.000000000000000D+00 0.832153148984546D+03
 0.832153148984546D+03 0.000000000000000D+00 0.000000000000000D+00 -.832153148984546D+03
 0.698101153151806D+03 -.634063031931515D+03 0.166846742693653D+03 -.204564063369435D+03
 0.772944846404986D+03 0.646903190960919D+03 -.147637317942681D+03 0.396438165997297D+03
 0.193260298412299D+03 -.128401590294040D+02 -.192094247509719D+02 -.191874102627862D+03
 0.000000000000000D+00 0.000000000000000D+00 0.000000000000000D+00 -.000000000000000D+00
 0.837289551600225D+03 0.000000000000000D+00 0.000000000000000D+00 0.837289551600225D+03
 0.104617838840008D+04 0.000000000000000D+00 0.000000000000000D+00 -.104617838840008D+04
 0.712873464110455D+03 -.654389540481283D+03 0.149971494355833D+03 -.204564063369435D+03
 0.758374588583112D+03 0.624842994266449D+03 -.165951889610947D+03 0.396438165997297D+03
 0.194225581099202D+03 -.184222828652582D+02 -.238437536497033D+02 -.191874102627862D+03
 0.217994306207531D+03 0.479688290800927D+02 0.398241489048167D+02 -.208888836799850D+03
-.244817263289D-03 0.000000000000D+00 0.000000000000D+00 0.675502181302D-06 0.000000000000D+00  6 1 1 25 1 1 21 2 0.20461056D+00 0.80103551D-01 0.45839601D+06 0.45839601D+06 0.45839601D+06 0.10711871D+01  1  2 14  1  6  1        1 -.127492633282D-02 0.100000000000D+01
  </mgrwgt>
  </event>
  <event>
  6     66 -.18982733E-05 0.39704944E+02 0.75467711E-02 0.94262123E-01
        1 -1    0    0  501    0 0.00000000E+00 0.00000000E+00 0.98155411E+03 0.98155416E+03 0.32000000E+00 0.0000E+00 0.9000E+01
        1 -1    0    0  502    0 0.00000000E+00 0.00000000E+00 -.29693955E+03 0.29693973E+03 0.32000000E+00 0.0000E+00 0.9000E+01
       25  1    1    2    0    0 0.43669996E+03 -.23634561E+03 0.17290767E+03 0.54045181E+03 0.12500000E+03 0.0000E+00 0.9000E+01
        1  1    1    2  501    0 -.39802867E+03 0.25978230E+03 0.49598270E+03 0.68695896E+03 0.32000000E+00 0.0000E+00 0.9000E+01
        1  1    1    2  503    0 -.36251187E+02 -.20701641E+02 0.19232170E+02 0.45963956E+02 0.32000000E+00 0.0000E+00 0.9000E+01
       21  1    1    2  502  503 -.24201003E+01 -.27350491E+01 -.35079853E+01 0.51191639E+01 0.75000000E+00 0.0000E+00 0.9000E+01
#aMCatNLO 2  0  0  5  2 0.62589831D+01 0.00000000D+00  -5  6  0 0.00000000D+00 0.00000000D+00 0.00000000D+00 0.00000000D+00 0.00000000D+00
  <mgrwgt>
 -.3300239221D-03    4    2    0
 0.539872562392170D+03 0.000000000000000D+00 0.000000000000000D+00 0.539872562392170D+03
 0.539872562392170D+03 -.000000000000000D+00 -.000000000000000D+00 -.539872562392170D+03
 0.530941445691619D+03 0.437973506415942D+03 -.235621727412248D+03 -.137606060920658D+03
 0.498568857243920D+03 -.396880740390943D+03 0.260574524414855D+03 0.152175886875081D+03
 0.502348218488013D+02 -.410927660249993D+02 -.249527970026067D+02 -.145698259544229D+02
 0.000000000000000D+00 0.000000000000000D+00 0.000000000000000D+00 -.000000000000000D+00
 0.539872562392170D+03 0.000000000000000D+00 0.000000000000000D+00 0.539872562392170D+03
 0.539872562392170D+03 -.000000000000000D+00 -.000000000000000D+00 -.539872562392170D+03
 0.530331393364408D+03 0.436652865602380D+03 -.236423661312588D+03 -.138074306518684D+03
 0.499030835905173D+03 -.398122146768158D+03 0.259820704112041D+03 0.151735734590279D+03
 0.420097181412712D+02 -.360805133392459D+02 -.206195645564011D+02 -.615195359133632D+01
 0.837317737348826D+01 -.245020549497563D+01 -.277747824305259D+01 -.750947448025869D+01
-.175104487547D-06 0.000000000000D+00 0.000000000000D+00 0.400126703502D-08 0.000000000000D+00  6 1 1 25 1 1 21 2 0.15100834D+00 0.45683026D-01 0.26662016D+06 0.26662016D+06 0.26662016D+06 0.10883624D+01  1  2 13  3  6  5        1 -.370622642497D-05 0.100000000000D+01
-.174932663556D-07 0.000000000000D+00 0.000000000000D+00 0.400126703502D-08 0.000000000000D+00  6 1 1 25 1 1 21 2 0.15100834D+00 0.45683026D-01 0.26662016D+06 0.26662016D+06 0.26662016D+06 0.10883624D+01  1  2 13  3  6  5        1 -.370258963288D-06 0.100000000000D+01
-.419029426153D-04 0.000000000000D+00 0.000000000000D+00 0.400126703502D-08 0.000000000000D+00  6 1 1 25 1 1 21 2 0.15100834D+00 0.45683026D-01 0.26814393D+06 0.26814393D+06 0.26814393D+06 0.10881774D+01  1  2  8  3  6  5        1 -.886445247615D-03 0.100000000000D+01
0.264812967933D-04 0.000000000000D+00 0.000000000000D+00 0.400126703502D-08 0.268802675252D-08  6 1 1 25 1 1 21 2 0.15100834D+00 0.45683026D-01 0.26662016D+06 0.26662016D+06 0.26662016D+06 0.10883624D+01  1  2  1  3  6  5        1 0.560497810867D-03 0.100000000000D+01
  </mgrwgt>
  </event>
  <event>
  5     66 0.18982733E-05 0.14037395E+03 0.75467711E-02 0.89835535E-01
        1 -1    0    0  501    0 0.00000000E+00 0.00000000E+00 0.15243056E+04 0.15243056E+04 0.32000000E+00 0.0000E+00 0.9000E+01
        1 -1    0    0  502    0 0.00000000E+00 0.00000000E+00 -.16568518E+04 0.16568519E+04 0.32000000E+00 0.0000E+00 0.9000E+01
       25  1    1    2    0    0 -.43118257E+03 0.49183038E+03 -.80511205E+02 0.67076269E+03 0.12500000E+03 0.0000E+00 0.9000E+01
        1  1    1    2  501    0 0.38491304E+03 -.35931403E+03 0.11685806E+04 0.12817353E+04 0.32000000E+00 0.0000E+00 0.9000E+01
        1  1    1    2  502    0 0.46269531E+02 -.13251635E+03 -.12206157E+04 0.12286595E+04 0.32000000E+00 0.0000E+00 0.9000E+01
#aMCatNLO 1  0  0  2  5 0.16385749D+01 0.00000000D+00  -5  6  0 0.00000000D+00 0.00000000D+00 0.00000000D+00 0.00000000D+00 0.00000000D+00
  <mgrwgt>
 0.9317505250D-02    7    2    0
 0.158919748449331D+04 0.000000000000000D+00 0.000000000000000D+00 0.158919748449331D+04
 0.158919748449331D+04 0.000000000000000D+00 0.000000000000000D+00 -.158919748449331D+04
 0.667976546243925D+03 -.431175098203284D+03 0.491830632352626D+03 -.525198067491397D+02
 0.133154089432416D+04 0.384901228111078D+03 -.359302997770000D+03 0.122301003824567D+04
 0.117887752841852D+04 0.462738700922057D+02 -.132527634582627D+03 -.117049023149653D+04
 0.000000000000000D+00 -.000000000000000D+00 -.000000000000000D+00 -.000000000000000D+00
 0.159813968139715D+04 0.000000000000000D+00 0.000000000000000D+00 0.159813968139715D+04
 0.315478629406467D+04 0.000000000000000D+00 0.000000000000000D+00 -.315478629406467D+04
 0.658770440782564D+03 -.394903628297860D+03 0.509554990069837D+03 -.525198067491397D+02
 0.134546477246554D+04 0.458086945832006D+03 -.323540183523463D+03 0.122301003824567D+04
 0.118005078096293D+04 0.110763782652357D+03 -.101014098397075D+03 -.117049023149653D+04
 0.156863998125078D+04 -.173947100186503D+03 -.850007081492996D+02 -.155664661266752D+04
0.104025219480D-02 0.000000000000D+00 0.000000000000D+00 0.933237561651D-05 0.000000000000D+00  6 1 1 25 1 1 21 0 0.23450856D+00 0.25490029D+00 0.44410606D+06 0.44410606D+06 0.44410606D+06 0.10721681D+01  1  2  2  2  6  2        1 0.433444336026D-03 0.100000000000D+01
0.240263888843D-03 0.000000000000D+00 -.399484233274D-05 0.933237561651D-05 0.000000000000D+00  6 1 1 25 1 1 21 2 0.23450856D+00 0.25490029D+00 0.44410606D+06 0.44410606D+06 0.44410606D+06 0.10721681D+01  1  2  3  2  6  2        1 0.115082410165D-03 0.100000000000D+01
-.619896526414D-03 0.000000000000D+00 0.000000000000D+00 0.933237561651D-05 0.000000000000D+00  6 1 1 25 1 1 21 2 0.23450856D+00 0.25490029D+00 0.44410606D+06 0.44410606D+06 0.44410606D+06 0.10721681D+01  1  2 15  2  6  2        1 -.296920135008D-03 0.100000000000D+01
-.463952566026D-02 0.000000000000D+00 0.000000000000D+00 0.933237561651D-05 0.000000000000D+00  6 1 1 25 1 1 21 2 0.23450856D+00 0.25490029D+00 0.44410606D+06 0.44410606D+06 0.44410606D+06 0.10721681D+01  1  2  4  2  6  2        1 -.222225569384D-02 0.100000000000D+01
-.317123002342D-01 0.000000000000D+00 -.490996973660D-03 0.933237561651D-05 0.000000000000D+00  6 1 1 25 1 1 21 2 0.23450856D+00 0.50649040D+00 0.44410606D+06 0.44410606D+06 0.44410606D+06 0.10721681D+01  1  2  5  2  6  2        1 -.106514802180D-02 0.100000000000D+01
0.258172421868D-01 0.000000000000D+00 0.394330485708D-03 0.933237561651D-05 0.000000000000D+00  6 1 1 25 1 1 21 2 0.23450856D+00 0.25490029D+00 0.44410606D+06 0.44410606D+06 0.44410606D+06 0.10721681D+01  1  2  6  2  6  2        1 0.123660299889D-01 0.100000000000D+01
-.232749513443D-02 0.000000000000D+00 -.364899623418D-04 0.933237561651D-05 0.000000000000D+00  6 1 21 25 1 1 -1 2 0.23450856D+00 0.50649040D+00 0.44410606D+06 0.44410606D+06 0.44410606D+06 0.10721681D+01  1  2  5  5  6  2        1 -.127276344385D-04 0.100000000000D+01
  </mgrwgt>
  </event>
  <event>
  5     66 0.18982733E-05 0.11777104E+03 0.75467711E-02 0.93516426E-01
        1 -1    0    0  501    0 0.00000000E+00 0.00000000E+00 0.15148972E+04 0.15148972E+04 0.32000000E+00 0.0000E+00 0.9000E+01
        1 -1    0    0  502    0 0.00000000E+00 0.00000000E+00 -.98017192E+03 0.98017197E+03 0.32000000E+00 0.0000E+00 0.9000E+01
       25  1    1    2    0    0 0.46007323E+03 -.24621287E+03 -.26479290E+03 0.59835478E+03 0.12500000E+03 0.0000E+00 0.9000E+01
        1  1    1    2  501    0 -.10362086E+03 0.55979412E+02 0.12706289E+04 0.12760756E+04 0.32000000E+00 0.0000E+00 0.9000E+01
        1  1    1    2  502    0 -.35645237E+03 0.19023346E+03 -.47111077E+03 0.62063880E+03 0.32000000E+00 0.0000E+00 0.9000E+01
#aMCatNLO 1  0  0  1  5 0.82841681D+02 0.00000000D+00  -5  6  0 0.00000000D+00 0.00000000D+00 0.00000000D+00 0.00000000D+00 0.00000000D+00
  <mgrwgt>
 0.4689298056D-02    9    2    0
 0.121854822813235D+04 0.000000000000000D+00 0.000000000000000D+00 0.121854822813235D+04
 0.121854822813235D+04 0.000000000000000D+00 0.000000000000000D+00 -.121854822813235D+04
 0.670690705340862D+03 0.460108103787715D+03 -.246231487157729D+03 -.402332710317703D+03
 0.102760515881774D+04 -.103617280409401D+03 0.559774782389860D+02 0.102083414106279D+04
 0.738800592106095D+03 -.356490823378314D+03 0.190254008918743D+03 -.618501430745084D+03
 0.000000000000000D+00 -.000000000000000D+00 0.000000000000000D+00 0.000000000000000D+00
 0.153498097343441D+04 0.000000000000000D+00 0.000000000000000D+00 0.153498097343441D+04
 0.122468605965941D+04 0.000000000000000D+00 0.000000000000000D+00 -.122468605965941D+04
 0.688816596953789D+03 0.480531024366186D+03 -.257024568998751D+03 -.402332710317703D+03
 0.102419556119748D+04 -.727945234613561D+02 0.396883027007505D+02 0.102083414106279D+04
 0.725491867111438D+03 -.334493789197050D+03 0.178629041311104D+03 -.618501430745084D+03
 0.321163007831115D+03 -.732427117077798D+02 0.387072249868965D+02 0.310294913774998D+03
0.296090857470D-03 0.000000000000D+00 0.000000000000D+00 0.684965343877D-05 0.000000000000D+00  6 1 1 25 1 1 21 0 0.23306111D+00 0.15079569D+00 0.28008806D+06 0.28008806D+06 0.28008806D+06 0.10867655D+01  1  2  2  1  6  1        1 0.387311891093D-03 0.100000000000D+01
0.661859643360D-04 0.000000000000D+00 -.113706685520D-05 0.684965343877D-05 0.000000000000D+00  6 1 1 25 1 1 21 2 0.23306111D+00 0.15079569D+00 0.28008806D+06 0.28008806D+06 0.28008806D+06 0.10867655D+01  1  2  3  1  6  1        1 0.102252377655D-03 0.100000000000D+01
-.175761891497D-03 0.000000000000D+00 0.000000000000D+00 0.684965343877D-05 0.000000000000D+00  6 1 1 25 1 1 21 2 0.23306111D+00 0.15079569D+00 0.28008806D+06 0.28008806D+06 0.28008806D+06 0.10867655D+01  1  2 15  1  6  1        1 -.271539011134D-03 0.100000000000D+01
0.145693464613D-08 0.000000000000D+00 0.000000000000D+00 0.684965343877D-05 0.000000000000D+00  6 1 1 25 1 1 21 2 0.29458369D+00 0.15079569D+00 0.30473620D+06 0.30473620D+06 0.30473620D+06 0.10840489D+01  1  2 12  1  6  1        1 0.120571026695D-08 0.100000000000D+01
-.467263725519D-03 0.000000000000D+00 0.000000000000D+00 0.684965343877D-05 0.000000000000D+00  6 1 1 25 1 1 21 2 0.23306111D+00 0.15079569D+00 0.28008806D+06 0.28008806D+06 0.28008806D+06 0.10867655D+01  1  2  4  1  6  1        1 -.721887599668D-03 0.100000000000D+01
-.781847991334D-02 0.000000000000D+00 -.323020391364D-03 0.684965343877D-05 0.000000000000D+00  6 1 1 25 1 1 21 2 0.29405666D+00 0.15079569D+00 0.28008806D+06 0.28008806D+06 0.28008806D+06 0.10867655D+01  1  2  5  1  6  1        1 -.657985688215D-02 0.100000000000D+01
0.769328669466D-02 0.000000000000D+00 0.314484197464D-03 0.684965343877D-05 0.000000000000D+00  6 1 1 25 1 1 21 2 0.23306111D+00 0.15079569D+00 0.28008806D+06 0.28008806D+06 0.28008806D+06 0.10867655D+01  1  2  6  1  6  1        1 0.118855540507D-01 0.100000000000D+01
0.469866172541D-10 0.000000000000D+00 0.000000000000D+00 0.684965343877D-05 0.000000000000D+00  6 21 1 25 1 1 -1 2 0.29458369D+00 0.15079569D+00 0.30473620D+06 0.30473620D+06 0.30473620D+06 0.10840489D+01  1  2 12  4  6  1        1 0.210004329753D-10 0.100000000000D+01
-.245909037340D-03 0.000000000000D+00 -.103580585715D-04 0.684965343877D-05 0.000000000000D+00  6 21 1 25 1 1 -1 2 0.29405666D+00 0.15079569D+00 0.28008806D+06 0.28008806D+06 0.28008806D+06 0.10867655D+01  1  2  5  4  6  1        1 -.112537996726D-03 0.100000000000D+01
  </mgrwgt>
  </event>
  <event>
  5     66 0.18982733E-05 0.14560828E+03 0.75467711E-02 0.93229147E-01
        1 -1    0    0  501    0 0.00000000E+00 0.00000000E+00 0.17327587E+04 0.17327588E+04 0.32000000E+00 0.0000E+00 0.9000E+01
        1 -1    0    0  502    0 0.00000000E+00 0.00000000E+00 -.39227459E+03 0.39227472E+03 0.32000000E+00 0.0000E+00 0.9000E+01
       25  1    1    2    0    0 -.48102596E+03 -.23245392E+03 0.84464482E+03 0.10072093E+04 0.12500000E+03 0.0000E+00 0.9000E+01
        1  1    1    2  501    0 0.85332411E+02 0.11808038E+03 0.65891211E+03 0.67482581E+03 0.32000000E+00 0.0000E+00 0.9000E+01
        1  1    1    2  502    0 0.39569354E+03 0.11437354E+03 -.16307279E+03 0.44299834E+03 0.32000000E+00 0.0000E+00 0.9000E+01
#aMCatNLO 1  0  0  1  4 0.26823416D+02 0.00000000D+00  -5  6  0 0.00000000D+00 0.00000000D+00 0.00000000D+00 0.00000000D+00 0.00000000D+00
  <mgrwgt>
 0.5616937288D-03   11    2    0
 0.824449754975121D+03 0.000000000000000D+00 0.000000000000000D+00 0.824449754975121D+03
 0.824449754975121D+03 0.000000000000000D+00 0.000000000000000D+00 -.824449754975121D+03
 0.611492215658564D+03 -.481062101417344D+03 -.232422977801906D+03 0.269919513523279D+03
 0.333840683055621D+03 0.852865179743662D+02 0.118016873615867D+03 0.300412764470466D+03
 0.703566611236058D+03 0.395775583442977D+03 0.114406104186039D+03 -.570332277993745D+03
 0.000000000000000D+00 0.000000000000000D+00 -.000000000000000D+00 0.000000000000000D+00
 0.934786060025730D+03 0.000000000000000D+00 0.000000000000000D+00 0.934786060025730D+03
 0.826190681457528D+03 0.000000000000000D+00 0.000000000000000D+00 -.826190681457528D+03
 0.612819551740958D+03 -.486635015670278D+03 -.224170963193125D+03 0.269919513523279D+03
 0.334699376069475D+03 0.822434071235498D+02 0.122522917322507D+03 0.300412764470466D+03
 0.701598742199405D+03 0.389379446254390D+03 0.123877094609444D+03 -.570332277993745D+03
 0.111859071473420D+03 0.150121622923387D+02 -.222290487388255D+02 0.108595378568202D+03
0.778379267180D-05 0.000000000000D+00 0.000000000000D+00 0.226311380809D-06 0.000000000000D+00  6 1 1 25 1 1 21 0 0.26657828D+00 0.60349950D-01 0.30596537D+06 0.30596537D+06 0.30596537D+06 0.10839198D+01  1  2  2  1  6  1        1 0.285313052699D-04 0.100000000000D+01
0.718193205632D-06 0.000000000000D+00 -.298918133794D-07 0.226311380809D-06 0.000000000000D+00  6 1 1 25 1 1 21 2 0.26657828D+00 0.60349950D-01 0.30596537D+06 0.30596537D+06 0.30596537D+06 0.10839198D+01  1  2  3  1  6  1        1 0.309290061842D-05 0.100000000000D+01
-.502729025942D-05 0.000000000000D+00 0.000000000000D+00 0.226311380809D-06 0.000000000000D+00  6 1 1 25 1 1 21 2 0.26657828D+00 0.60349950D-01 0.30596537D+06 0.30596537D+06 0.30596537D+06 0.10839198D+01  1  2 15  1  6  1        1 -.216500365506D-04 0.100000000000D+01
0.296849743352D-03 0.000000000000D+00 0.000000000000D+00 0.226311380809D-06 0.000000000000D+00  6 1 1 25 1 1 21 2 0.31631204D+00 0.60349950D-01 0.32102047D+06 0.32102047D+06 0.32102047D+06 0.10823826D+01  1  2 12  1  6  1        1 0.774813501063D-03 0.100000000000D+01
0.168417962163D-07 0.000000000000D+00 0.000000000000D+00 0.226311380809D-06 0.000000000000D+00  6 1 1 25 1 1 21 2 0.30260122D+00 0.60349950D-01 0.32102047D+06 0.32102047D+06 0.32102047D+06 0.10823826D+01  1  2 12  1  6  1        1 0.504073538480D-07 0.100000000000D+01
-.186881992436D-03 0.000000000000D+00 0.000000000000D+00 0.226311380809D-06 0.000000000000D+00  6 1 1 25 1 1 21 2 0.26657828D+00 0.60349950D-01 0.30596537D+06 0.30596537D+06 0.30596537D+06 0.10839198D+01  1  2  4  1  6  1        1 -.804807711135D-03 0.100000000000D+01
-.459576912804D-03 0.000000000000D+00 -.139317357301D-04 0.226311380809D-06 0.000000000000D+00  6 1 1 25 1 1 21 2 0.30246652D+00 0.60349950D-01 0.30596537D+06 0.30596537D+06 0.30596537D+06 0.10839198D+01  1  2  5  1  6  1        1 -.138515252675D-02 0.100000000000D+01
0.457790638994D-03 0.000000000000D+00 0.138213475459D-04 0.226311380809D-06 0.000000000000D+00  6 1 1 25 1 1 21 2 0.26657828D+00 0.60349950D-01 0.30596537D+06 0.30596537D+06 0.30596537D+06 0.10839198D+01  1  2  6  1  6  1        1 0.197147639291D-02 0.100000000000D+01
0.752173528487D-05 0.000000000000D+00 0.000000000000D+00 0.226311380809D-06 0.000000000000D+00  6 21 1 25 1 1 -1 2 0.31631204D+00 0.60349950D-01 0.32102047D+06 0.32102047D+06 0.32102047D+06 0.10823826D+01  1  2 12  4  6  1        1 0.943691719899D-05 0.100000000000D+01
0.334527542708D-09 0.000000000000D+00 0.000000000000D+00 0.226311380809D-06 0.000000000000D+00  6 21 1 25 1 1 -1 2 0.30260122D+00 0.60349950D-01 0.32102047D+06 0.32102047D+06 0.32102047D+06 0.10823826D+01  1  2 12  4  6  1        1 0.517085060080D-09 0.100000000000D+01
-.903102502931D-05 0.000000000000D+00 -.275914566371D-06 0.226311380809D-06 0.000000000000D+00  6 21 1 25 1 1 -1 2 0.30246652D+00 0.60349950D-01 0.30596537D+06 0.30596537D+06 0.30596537D+06 0.10839198D+01  1  2  5  4  6  1        1 -.140979382247D-04 0.100000000000D+01
  </mgrwgt>
  </event>
  <event>
  6     66 -.18982733E-05 0.10072372E+03 0.75467711E-02 0.91309917E-01
        1 -1    0    0  501    0 0.00000000E+00 0.00000000E+00 0.97553344E+03 0.97553350E+03 0.32000000E+00 0.0000E+00 0.9000E+01
        1 -1    0    0  503    0 0.00000000E+00 0.00000000E+00 -.19672806E+04 0.19672806E+04 0.32000000E+00 0.0000E+00 0.9000E+01
       25  1    1    2    0    0 0.34876173E+03 0.44769999E+03 -.50761553E+03 0.77160129E+03 0.12500000E+03 0.0000E+00 0.9000E+01
        1  1    1    2  501    0 0.25366518E+02 0.10325812E+03 0.67517769E+03 0.68349888E+03 0.32000000E+00 0.0000E+00 0.9000E+01
        1  1    1    2  502    0 -.37119360E+03 -.54016327E+03 -.49004372E+03 0.81835445E+03 0.32000000E+00 0.0000E+00 0.9000E+01
       21  1    1    2  503  502 -.29346470E+01 -.10794846E+02 -.66926558E+03 0.66935949E+03 0.75000000E+00 0.0000E+00 0.9000E+01
#aMCatNLO 2  0  0  2  5 0.11186637D+02 0.00000000D+00  -5  6  0 0.00000000D+00 0.00000000D+00 0.00000000D+00 0.00000000D+00 0.00000000D+00
  <mgrwgt>
 -.4842678759D-03    3    2    0
 0.112521957762404D+04 0.000000000000000D+00 0.000000000000000D+00 0.112521957762404D+04
 0.112521957762404D+04 0.000000000000000D+00 0.000000000000000D+00 -.112521957762404D+04
 0.704204515694501D+03 0.347887936787997D+03 0.444382132104498D+03 -.402215743138155D+03
 0.786628616749192D+03 0.243377178465821D+02 0.994727214229084D+02 0.779934249710505D+03
 0.759606022804390D+03 -.372225654634579D+03 -.543854853527406D+03 -.377718506572350D+03
 0.000000000000000D+00 -.000000000000000D+00 -.000000000000000D+00 -.000000000000000D+00
 0.112528739712068D+04 0.000000000000000D+00 0.000000000000000D+00 0.112528739712068D+04
 0.170547301320019D+04 0.000000000000000D+00 0.000000000000000D+00 -.170547301320019D+04
 0.706798473560585D+03 0.348807928355213D+03 0.447766241822605D+03 -.402215743138155D+03
 0.787147220569367D+03 0.253638393431677D+02 0.103247220942575D+03 0.779934249710505D+03
 0.756521264598623D+03 -.371237120712356D+03 -.540218616661674D+03 -.377718506572350D+03
 0.580293451592293D+03 -.293464698602462D+01 -.107948461035054D+02 -.580185616079514D+03
-.124480313905D-01 0.000000000000D+00 0.000000000000D+00 0.562392769827D-06 0.000000000000D+00  6 1 1 25 1 1 21 2 0.15007300D+00 0.30269748D+00 0.45844891D+06 0.45844891D+06 0.45844891D+06 0.10711836D+01  1  2 13  2  6  2        1 -.906725871904D-02 0.100000000000D+01
-.589388972627D-07 0.000000000000D+00 0.000000000000D+00 0.562392769827D-06 0.000000000000D+00  6 1 1 25 1 1 21 2 0.15007300D+00 0.30266517D+00 0.45844891D+06 0.45844891D+06 0.45844891D+06 0.10711836D+01  1  2 13  2  6  2        1 -.429455186429D-07 0.100000000000D+01
0.117799058214D-01 0.000000000000D+00 0.000000000000D+00 0.562392769827D-06 0.282955988696D-07  6 1 1 25 1 1 21 2 0.15008204D+00 0.30265849D+00 0.45844891D+06 0.45844891D+06 0.45844891D+06 0.10711836D+01  1  2  1  2  6  2        1 0.858303378861D-02 0.100000000000D+01
  </mgrwgt>
  </event>
  <event>
  6     66 0.18982733E-05 0.10307064E+03 0.75467711E-02 0.91767006E-01
        1 -1    0    0  501    0 0.00000000E+00 0.00000000E+00 0.11550664E+04 0.11550664E+04 0.32000000E+00 0.0000E+00 0.9000E+01
        1 -1    0    0  503    0 0.00000000E+00 0.00000000E+00 -.69231720E+03 0.69231728E+03 0.32000000E+00 0.0000E+00 0.9000E+01
       25  1    1    2    0    0 -.98363588E+02 -.58055349E+03 0.60741758E+03 0.85516014E+03 0.12500000E+03 0.0000E+00 0.9000E+01
        1  1    1    2  501    0 -.96772332E+01 -.31124087E+02 0.20151900E+03 0.20413811E+03 0.32000000E+00 0.0000E+00 0.9000E+01
        1  1    1    2  502    0 0.10568946E+02 0.54282753E+03 -.15836228E+03 0.56555472E+03 0.32000000E+00 0.0000E+00 0.9000E+01
       21  1    1    2  503  502 0.97471875E+02 0.68850043E+02 -.18782511E+03 0.22253074E+03 0.75000000E+00 0.0000E+00 0.9000E+01
#aMCatNLO 2  0  0  2  1 0.73284909D+02 0.00000000D+00  -5  6  0 0.00000000D+00 0.00000000D+00 0.00000000D+00 0.00000000D+00 0.00000000D+00
  <mgrwgt>
 0.1960280110D-02    1    2    0
 0.742067915106387D+03 0.000000000000000D+00 0.000000000000000D+00 0.742067915106387D+03
 0.742067915106387D+03 0.000000000000000D+00 0.000000000000000D+00 -.742067915106387D+03
 0.636802066383286D+03 -.556119248509668D+02 -.550505001467355D+03 0.289384569256586D+03
 0.132820105420592D+03 -.895681079961954D+00 -.248742474388520D+02 0.130467045546724D+03
 0.714513658408896D+03 0.565076059309288D+02 0.575379248906207D+03 -.419851614803311D+03
 0.000000000000000D+00 0.000000000000000D+00 0.000000000000000D+00 -.000000000000000D+00
 0.755817323827628D+03 0.000000000000000D+00 0.000000000000000D+00 0.755817323827628D+03
 0.105802224357753D+04 0.000000000000000D+00 0.000000000000000D+00 -.105802224357753D+04
 0.668047994460816D+03 -.983914546171486D+02 -.580722666715895D+03 0.289384569256586D+03
 0.134461539284479D+03 -.965851400516251D+01 -.310639450210801D+02 0.130467045546724D+03
 0.686416339950331D+03 0.105780939022622D+02 0.542936568327512D+03 -.419851614803311D+03
 0.324913693709526D+03 0.974718747200489D+02 0.688500434094629D+02 -.302204919749898D+03
0.426145473551D-03 0.000000000000D+00 0.000000000000D+00 0.625684254096D-06 0.285561517456D-09  6 1 1 25 1 1 21 2 0.17770243D+00 0.10651029D+00 0.42056739D+06 0.42056739D+06 0.42056739D+06 0.10738614D+01  1  2  1  2  6  2        1 0.196028011007D-02 0.100000000000D+01
  </mgrwgt>
  </event>
  <event>
  6     66 0.18982733E-05 0.20720878E+02 0.75467711E-02 0.94399914E-01
        1 -1    0    0  503    0 0.00000000E+00 0.00000000E+00 0.23005190E+04 0.23005191E+04 0.32000000E+00 0.0000E+00 0.9000E+01
        1 -1    0    0  502    0 0.00000000E+00 0.00000000E+00 -.57046448E+03 0.57046457E+03 0.32000000E+00 0.0000E+00 0.9000E+01
       25  1    1    2    0    0 -.14081118E+03 -.44972269E+03 -.20000526E+02 0.48795831E+03 0.12500000E+03 0.0000E+00 0.9000E+01
        1  1    1    2  501    0 0.29656146E+02 -.19294289E+02 0.15840098E+04 0.15844049E+04 0.32000000E+00 0.0000E+00 0.9000E+01
        1  1    1    2  502    0 0.13229525E+03 0.44870865E+03 -.14223370E+03 0.48894990E+03 0.32000000E+00 0.0000E+00 0.9000E+01
       21  1    1    2  503  501 -.21140212E+02 0.20308336E+02 0.30827895E+03 0.30967049E+03 0.75000000E+00 0.0000E+00 0.9000E+01
#aMCatNLO 2  0  0  1  4 0.49853617D+02 0.00000000D+00  -5  6  0 0.00000000D+00 0.00000000D+00 0.00000000D+00 0.00000000D+00 0.00000000D+00
  <mgrwgt>
 0.8067530067D-04    1    2    0
 0.106513142672118D+04 0.000000000000000D+00 0.000000000000000D+00 0.106513142672118D+04
 0.106513142672118D+04 0.000000000000000D+00 0.000000000000000D+00 -.106513142672118D+04
 0.597179882571702D+03 -.146766086352516D+03 -.444070076939148D+03 -.349657396335866D+03
 0.847278661727536D+03 0.212446480149379D+02 -.112143240063395D+02 0.846938034620365D+03
 0.685804309143115D+03 0.125521438337578D+03 0.455284400945488D+03 -.497280638284499D+03
 0.000000000000000D+00 -.000000000000000D+00 0.000000000000000D+00 0.000000000000000D+00
 0.123049492190198D+04 0.000000000000000D+00 0.000000000000000D+00 0.123049492190198D+04
 0.106653222722269D+04 0.000000000000000D+00 0.000000000000000D+00 -.106653222722269D+04
 0.600013383546850D+03 -.140826039623056D+03 -.449776380201371D+03 -.349657396335866D+03
 0.847676615651390D+03 0.296544126176214D+02 -.192931606506407D+02 0.846938034620365D+03
 0.682774542123222D+03 0.132311839319225D+03 0.448761205247178D+03 -.497280638284499D+03
 0.166562607803208D+03 -.211402123137897D+02 0.203083356048340D+02 0.163962694679291D+03
0.739984058302D-04 0.000000000000D+00 0.000000000000D+00 0.159150059962D-04 0.384863354180D-09  6 1 1 25 1 1 21 2 0.35392573D+00 0.87763706D-01 0.26017889D+06 0.26017889D+06 0.26017889D+06 0.10891576D+01  1  2  1  1  6  1        1 0.806753006708D-04 0.100000000000D+01
  </mgrwgt>
  </event>
  <event>
  5     66 -.18982733E-05 0.68017521E+02 0.75467711E-02 0.91136133E-01
        1 -1    0    0  501    0 0.00000000E+00 0.00000000E+00 0.30883360E+04 0.30883360E+04 0.32000000E+00 0.0000E+00 0.9000E+01
        1 -1    0    0  502    0 0.00000000E+00 0.00000000E+00 -.59487042E+03 0.59487051E+03 0.32000000E+00 0.0000E+00 0.9000E+01
       25  1    1    2    0    0 -.53729091E+03 -.41898206E+03 0.48978635E+03 0.84837678E+03 0.12500000E+03 0.0000E+00 0.9000E+01
        1  1    1    2  501    0 0.40403205E+02 0.54724307E+02 0.21900890E+04 0.21911452E+04 0.32000000E+00 0.0000E+00 0.9000E+01
        1  1    1    2  502    0 0.49688771E+03 0.36425775E+03 -.18640980E+03 0.64368457E+03 0.32000000E+00 0.0000E+00 0.9000E+01
#aMCatNLO 1  0  0  5  2 0.38426264D+02 0.00000000D+00  -5  6  0 0.00000000D+00 0.00000000D+00 0.00000000D+00 0.00000000D+00 0.00000000D+00
  <mgrwgt>
 -.5337695076D-02    8    2    0
 0.135541872567771D+04 0.000000000000000D+00 0.000000000000000D+00 0.135541872567771D+04
 0.135541872567771D+04 -.000000000000000D+00 -.000000000000000D+00 -.135541872567771D+04
 0.702223643269112D+03 -.537341923840131D+03 -.419018528225151D+03 -.114804943508377D+03
 0.962546446439351D+03 0.403997754013956D+02 0.547196611557019D+02 0.960140238914891D+03
 0.104606736164695D+04 0.496942148438735D+03 0.364298867069449D+03 -.845335295406514D+03
 0.000000000000000D+00 0.000000000000000D+00 0.000000000000000D+00 -.000000000000000D+00
 0.135541872567771D+04 0.000000000000000D+00 0.000000000000000D+00 0.135541872567771D+04
 0.135541872567771D+04 -.000000000000000D+00 -.000000000000000D+00 -.135541872567771D+04
 0.701897668859444D+03 -.536988995579190D+03 -.418759803208524D+03 -.115405300545221D+03
 0.961766409591669D+03 0.408834546846017D+02 0.550742372677313D+02 0.959317464732754D+03
 0.587599606426400D+03 0.293730441166501D+03 0.232483104201845D+03 -.452711090724832D+03
 0.459573766477900D+03 0.202375099728087D+03 0.131202461738947D+03 -.391201073462701D+03
0.650626586605D-03 0.000000000000D+00 0.000000000000D+00 0.934080789202D-05 0.000000000000D+00  6 1 1 25 1 1 21 0 0.47512862D+00 0.91518535D-01 0.47400661D+06 0.47400661D+06 0.47400661D+06 0.10701529D+01  1  2  2  3  6  5        1 0.146810237954D-03 0.100000000000D+01
0.284129608996D-03 0.000000000000D+00 -.249857740648D-05 0.934080789202D-05 0.000000000000D+00  6 1 1 25 1 1 21 2 0.47512862D+00 0.91518535D-01 0.47400661D+06 0.47400661D+06 0.47400661D+06 0.10701529D+01  1  2  3  3  6  5        1 0.734230960031D-04 0.100000000000D+01
-.391358764524D-03 0.000000000000D+00 0.000000000000D+00 0.934080789202D-05 0.000000000000D+00  6 1 1 25 1 1 21 2 0.47512862D+00 0.91518535D-01 0.47400661D+06 0.47400661D+06 0.47400661D+06 0.10701529D+01  1  2 15  3  6  5        1 -.101132621274D-03 0.100000000000D+01
0.236167276522D-01 0.000000000000D+00 0.000000000000D+00 0.934080789202D-05 0.000000000000D+00  6 1 1 25 1 1 21 2 0.47512862D+00 0.91518535D-01 0.47383999D+06 0.47383999D+06 0.47383999D+06 0.10701637D+01  1  2 12  3  6  5        1 0.610320378625D-02 0.100000000000D+01
0.210480481828D-08 0.000000000000D+00 0.000000000000D+00 0.934080789202D-05 0.000000000000D+00  6 1 1 25 1 1 21 2 0.47512862D+00 0.91518535D-01 0.47383999D+06 0.47383999D+06 0.47383999D+06 0.10701637D+01  1  2 12  3  6  5        1 0.543938725358D-09 0.100000000000D+01
-.571500487947D-01 0.000000000000D+00 0.000000000000D+00 0.934080789202D-05 0.000000000000D+00  6 1 1 25 1 1 21 2 0.47512862D+00 0.91518535D-01 0.47400661D+06 0.47400661D+06 0.47400661D+06 0.10701529D+01  1  2  4  3  6  5        1 -.147683781851D-01 0.100000000000D+01
-.237998131911D-01 0.000000000000D+00 0.000000000000D+00 0.934080789202D-05 0.000000000000D+00  6 1 1 25 1 1 21 2 0.47512862D+00 0.91518535D-01 0.47400661D+06 0.47400661D+06 0.47400661D+06 0.10701529D+01  1  2  5  3  6  5        1 -.615020720636D-02 0.100000000000D+01
0.362154596976D-01 0.000000000000D+00 -.000000000000D+00 0.934080789202D-05 0.000000000000D+00  6 1 1 25 1 1 21 2 0.47512862D+00 0.91518535D-01 0.47400661D+06 0.47400661D+06 0.47400661D+06 0.10701529D+01  1  2  6  3  6  5        1 0.935858527231D-02 0.100000000000D+01
  </mgrwgt>
  </event>
  <event>
  5     66 0.18982733E-05 0.17475740E+02 0.75467711E-02 0.93502740E-01
        1 -1    0    0  501    0 0.00000000E+00 0.00000000E+00 0.42471105E+03 0.42471118E+03 0.32000000E+00 0.0000E+00 0.9000E+01
        1 -1    0    0  502    0 0.00000000E+00 0.00000000E+00 -.22521328E+04 0.22521328E+04 0.32000000E+00 0.0000E+00 0.9000E+01
       25  1    1    2    0    0 0.22323497E+03 0.43052115E+03 -.28903218E+03 0.57822739E+03 0.12500000E+03 0.0000E+00 0.9000E+01
        1  1    1    2  501    0 -.22773170E+03 -.44740614E+03 0.55087884E+02 0.50504333E+03 0.32000000E+00 0.0000E+00 0.9000E+01
        1  1    1    2  502    0 0.44967365E+01 0.16884988E+02 -.15934775E+04 0.15935733E+04 0.32000000E+00 0.0000E+00 0.9000E+01
#aMCatNLO 1  0  0  2  5 0.30005789D+01 0.00000000D+00  -5  6  0 0.00000000D+00 0.00000000D+00 0.00000000D+00 0.00000000D+00 0.00000000D+00
  <mgrwgt>
 0.2639265060D-01    7    2    0
 0.978011193333977D+03 0.000000000000000D+00 0.000000000000000D+00 0.978011193333977D+03
 0.978011193333977D+03 0.000000000000000D+00 0.000000000000000D+00 -.978011193333977D+03
 0.521274311472514D+03 0.223215894565959D+03 0.430482614078143D+03 0.144780147778318D+03
 0.742564486382727D+03 -.227713187049511D+03 -.447369764073981D+03 0.547182798590186D+03
 0.692183588812712D+03 0.449729248355220D+01 0.168871499958383D+02 -.691962946368504D+03
 0.000000000000000D+00 -.000000000000000D+00 -.000000000000000D+00 -.000000000000000D+00
 0.982078975181485D+03 0.000000000000000D+00 0.000000000000000D+00 0.982078975181485D+03
 0.134933809168694D+04 0.000000000000000D+00 0.000000000000000D+00 -.134933809168694D+04
 0.530080566089260D+03 0.242342475840241D+03 0.430893536454680D+03 0.144780147778318D+03
 0.734418564699998D+03 -.200843443093231D+03 -.446792484795205D+03 0.547182798590186D+03
 0.692819014443799D+03 0.296936989697357D+02 0.174284786883542D+02 -.691962946368504D+03
 0.374098921635365D+03 -.711927317167458D+02 -.152953034782913D+01 -.367259116505453D+03
0.783173103653D-03 0.000000000000D+00 0.000000000000D+00 0.141652180158D-04 0.000000000000D+00  6 1 1 25 1 1 21 0 0.65340173D-01 0.34648198D+00 0.26021722D+06 0.26021722D+06 0.26021722D+06 0.10891528D+01  1  2  2  2  6  2        1 0.117218725621D-02 0.100000000000D+01
0.691831630413D-03 0.000000000000D+00 -.300759093224D-05 0.141652180158D-04 0.000000000000D+00  6 1 1 25 1 1 21 2 0.65340173D-01 0.34648198D+00 0.26021722D+06 0.26021722D+06 0.26021722D+06 0.10891528D+01  1  2  3  2  6  2        1 0.122833629862D-02 0.100000000000D+01
-.478924418656D-03 0.000000000000D+00 0.000000000000D+00 0.141652180158D-04 0.000000000000D+00  6 1 1 25 1 1 21 2 0.65340173D-01 0.34648198D+00 0.26021722D+06 0.26021722D+06 0.26021722D+06 0.10891528D+01  1  2 15  2  6  2        1 -.850322855835D-03 0.100000000000D+01
-.103426469450D-03 0.000000000000D+00 0.000000000000D+00 0.141652180158D-04 0.000000000000D+00  6 1 1 25 1 1 21 2 0.65340173D-01 0.34648198D+00 0.26021722D+06 0.26021722D+06 0.26021722D+06 0.10891528D+01  1  2  4  2  6  2        1 -.183632087749D-03 0.100000000000D+01
-.198155361802D-01 0.000000000000D+00 -.493512673344D-03 0.141652180158D-04 0.000000000000D+00  6 1 1 25 1 1 21 2 0.65340173D-01 0.47847294D+00 0.26021722D+06 0.26021722D+06 0.26021722D+06 0.10891528D+01  1  2  5  2  6  2        1 -.864052582806D-02 0.100000000000D+01
0.190010769878D-01 0.000000000000D+00 0.468876200400D-03 0.141652180158D-04 0.000000000000D+00  6 1 1 25 1 1 21 2 0.65340173D-01 0.34648198D+00 0.26021722D+06 0.26021722D+06 0.26021722D+06 0.10891528D+01  1  2  6  2  6  2        1 0.337361166372D-01 0.100000000000D+01
-.795096749115D-03 0.000000000000D+00 -.201103908974D-04 0.141652180158D-04 0.000000000000D+00  6 1 21 25 1 1 -1 2 0.65340173D-01 0.47847294D+00 0.26021722D+06 0.26021722D+06 0.26021722D+06 0.10891528D+01  1  2  5  5  6  2        1 -.695088189622D-04 0.100000000000D+01
  </mgrwgt>
  </event>
  <event>
  5     66 0.18982733E-05 0.28699444E+02 0.75467711E-02 0.90274993E-01
        1 -1    0    0  501    0 0.00000000E+00 0.00000000E+00 0.12054327E+04 0.12054327E+04 0.32000000E+00 0.0000E+00 0.9000E+01
        1 -1    0    0  502    0 0.00000000E+00 0.00000000E+00 -.64736339E+03 0.64736347E+03 0.32000000E+00 0.0000E+00 0.9000E+01
       25  1    1    2    0    0 0.52870182E+03 0.44886697E+03 -.31242479E+02 0.70541354E+03 0.12500000E+03 0.0000E+00 0.9000E+01
        1  1    1    2  501    0 -.53549919E+03 -.42098457E+03 0.73312728E+03 0.10007313E+04 0.32000000E+00 0.0000E+00 0.9000E+01
        1  1    1    2  502    0 0.67973693E+01 -.27882401E+02 -.14381548E+03 0.14665138E+03 0.32000000E+00 0.0000E+00 0.9000E+01
#aMCatNLO 1  0  0  5  2 0.17738479D+02 0.00000000D+00  -5  6  0 0.00000000D+00 0.00000000D+00 0.00000000D+00 0.00000000D+00 0.00000000D+00
  <mgrwgt>
 0.1388541553D-02    6    2    0
 0.883375974412557D+03 0.000000000000000D+00 0.000000000000000D+00 0.883375974412557D+03
 0.883375974412557D+03 -.000000000000000D+00 -.000000000000000D+00 -.883375974412557D+03
 0.749635580749867D+03 0.528701306525702D+03 0.448866916113716D+03 -.255581540849040D+03
 0.817892541646385D+03 -.535498470344460D+03 -.420984006084405D+03 0.452727362284027D+03
 0.199223826428862D+03 0.679716381875848D+01 -.278829100293106D+02 -.197145821434987D+03
 0.000000000000000D+00 0.000000000000000D+00 0.000000000000000D+00 -.000000000000000D+00
 0.883375974412557D+03 0.000000000000000D+00 0.000000000000000D+00 0.883375974412557D+03
 0.883375974412557D+03 -.000000000000000D+00 -.000000000000000D+00 -.883375974412557D+03
 0.753682869139285D+03 0.529183620087865D+03 0.446888398894137D+03 -.269570625993565D+03
 0.810375345454527D+03 -.534976068929882D+03 -.423126969242314D+03 0.437575563866047D+03
 0.992655657737931D+02 0.371001377915940D+02 -.543726651138883D+02 -.743023930479290D+02
 0.103428168457509D+03 -.313076889495769D+02 0.306112354620652D+02 -.937025448245528D+02
0.269420114687D-03 0.000000000000D+00 0.000000000000D+00 0.598411165878D-06 0.000000000000D+00  6 1 1 25 1 1 21 0 0.18545119D+00 0.99594377D-01 0.50026314D+06 0.50026314D+06 0.50026314D+06 0.10684942D+01  1  2  2  3  6  5        1 0.108482108359D-02 0.100000000000D+01
0.119240513058D-03 0.000000000000D+00 -.103464418034D-05 0.598411165878D-06 0.000000000000D+00  6 1 1 25 1 1 21 2 0.18545119D+00 0.99594377D-01 0.50026314D+06 0.50026314D+06 0.50026314D+06 0.10684942D+01  1  2  3  3  6  5        1 0.548146080308D-03 0.100000000000D+01
-.197143901274D-03 0.000000000000D+00 0.000000000000D+00 0.598411165878D-06 0.000000000000D+00  6 1 1 25 1 1 21 2 0.18545119D+00 0.99594377D-01 0.50026314D+06 0.50026314D+06 0.50026314D+06 0.10684942D+01  1  2 15  3  6  5        1 -.906266284574D-03 0.100000000000D+01
-.442696644085D-04 0.000000000000D+00 0.000000000000D+00 0.598411165878D-06 0.000000000000D+00  6 1 1 25 1 1 21 2 0.18545119D+00 0.99594377D-01 0.50026314D+06 0.50026314D+06 0.50026314D+06 0.10684942D+01  1  2  4  3  6  5        1 -.203506697511D-03 0.100000000000D+01
-.145265699160D-03 0.000000000000D+00 0.000000000000D+00 0.598411165878D-06 0.000000000000D+00  6 1 1 25 1 1 21 2 0.18545119D+00 0.99594377D-01 0.50026314D+06 0.50026314D+06 0.50026314D+06 0.10684942D+01  1  2  5  3  6  5        1 -.667783302467D-03 0.100000000000D+01
0.333508337891D-03 0.000000000000D+00 -.000000000000D+00 0.598411165878D-06 0.000000000000D+00  6 1 1 25 1 1 21 2 0.18545119D+00 0.99594377D-01 0.50026314D+06 0.50026314D+06 0.50026314D+06 0.10684942D+01  1  2  6  3  6  5        1 0.153313067410D-02 0.100000000000D+01
  </mgrwgt>
  </event>
  <event>
  5     66 0.18982733E-05 0.12315476E+03 0.75467711E-02 0.75551342E-01
        1 -1    0    0  501    0 0.00000000E+00 0.00000000E+00 0.14764778E+04 0.14764778E+04 0.32000000E+00 0.0000E+00 0.9000E+01
        1 -1    0    0  502    0 0.00000000E+00 0.00000000E+00 -.21989562E+04 0.21989563E+04 0.32000000E+00 0.0000E+00 0.9000E+01
       25  1    1    2    0    0 -.66046610E+02 0.53447016E+03 -.23021242E+03 0.59886832E+03 0.12500000E+03 0.0000E+00 0.9000E+01
        1  1    1    2  501    0 0.17974596E+03 -.48716630E+03 0.12377037E+04 0.13422184E+04 0.32000000E+00 0.0000E+00 0.9000E+01
        1  1    1    2  502    0 -.11369935E+03 -.47303854E+02 -.17299698E+04 0.17343474E+04 0.32000000E+00 0.0000E+00 0.9000E+01
#aMCatNLO 1  0  0  2  5 0.39222458D+02 0.00000000D+00  -5  6  0 0.00000000D+00 0.00000000D+00 0.00000000D+00 0.00000000D+00 0.00000000D+00
  <mgrwgt>
 0.2040240709D-01    3    2    0
 0.180186296536505D+04 0.000000000000000D+00 0.000000000000000D+00 0.180186296536505D+04
 0.180186296536505D+04 0.000000000000000D+00 0.000000000000000D+00 -.180186296536505D+04
 0.564615185402500D+03 -.660371924660562D+02 0.534466802365372D+03 -.114671853423739D+03
 0.161703986501212D+04 0.179743466535668D+03 -.487159532769928D+03 0.153139994805653D+04
 0.142207088031548D+04 -.113706274069612D+03 -.473072695954438D+02 -.141672809463279D+04
 0.000000000000000D+00 0.000000000000000D+00 -.000000000000000D+00 0.000000000000000D+00
 0.761868488637312D+04 0.000000000000000D+00 0.000000000000000D+00 0.761868488637312D+04
 0.362188362948490D+04 0.000000000000000D+00 0.000000000000000D+00 -.362188362948490D+04
 0.147573042655682D+04 -.260758181542588D+03 0.144257090940326D+04 -.114671853423739D+03
 0.187201522624143D+04 -.153235541691761D+03 0.106572701717403D+04 0.153139994805653D+04
 0.213964587381419D+04 -.453619769660479D+03 0.153791907322244D+04 -.141672809463279D+04
 0.575317698924557D+04 0.867613492894828D+03 -.404621699979973D+04 0.399680125688822D+04
0.330416589041D+00 0.000000000000D+00 0.000000000000D+00 0.364443451455D-04 0.000000000000D+00  6 1 1 25 1 1 21 0 0.22715043D+00 0.33830097D+00 0.35716381D+06 0.35716381D+06 0.35716381D+06 0.10789919D+01  1  2  2  2  6  2        1 0.656111580100D-01 0.100000000000D+01
0.822817090814D-01 0.000000000000D+00 -.126888670260D-02 0.364443451455D-04 0.000000000000D+00  6 1 1 25 1 1 21 2 0.22715043D+00 0.33830097D+00 0.35716381D+06 0.35716381D+06 0.35716381D+06 0.10789919D+01  1  2  3  2  6  2        1 0.190219725433D-01 0.100000000000D+01
-.277837311038D+00 0.000000000000D+00 0.000000000000D+00 0.364443451455D-04 0.000000000000D+00  6 1 1 25 1 1 21 2 0.22715043D+00 0.33830097D+00 0.35716381D+06 0.35716381D+06 0.35716381D+06 0.10789919D+01  1  2 15  2  6  2        1 -.642307234630D-01 0.100000000000D+01
  </mgrwgt>
  </event>
  <event>
  6     66 -.18982733E-05 0.77560037E+02 0.75467711E-02 0.94927404E-01
        1 -1    0    0  501    0 0.00000000E+00 0.00000000E+00 0.22426110E+04 0.22426110E+04 0.32000000E+00 0.0000E+00 0.9000E+01
        1 -1    0    0  502    0 0.00000000E+00 0.00000000E+00 -.38942707E+03 0.38942721E+03 0.32000000E+00 0.0000E+00 0.9000E+01
       25  1    1    2    0    0 0.44524948E+03 -.70121754E+02 0.82595583E+02 0.47498546E+03 0.12500000E+03 0.0000E+00 0.9000E+01
        1  1    1    2  501    0 -.42155344E+03 -.39773440E+01 0.19297191E+04 0.19752314E+04 0.32000000E+00 0.0000E+00 0.9000E+01
        1  1    1    2  503    0 -.20343421E+02 0.77249412E+02 -.13197630E+03 0.15426980E+03 0.32000000E+00 0.0000E+00 0.9000E+01
       21  1    1    2  502  503 -.33526230E+01 -.31503138E+01 -.27154436E+02 0.27551597E+02 0.75000000E+00 0.0000E+00 0.9000E+01
#aMCatNLO 2  0  0  5  2 0.14940033D+02 0.00000000D+00  -5  6  0 0.00000000D+00 0.00000000D+00 0.00000000D+00 0.00000000D+00 0.00000000D+00
  <mgrwgt>
 -.7313812708D-03    6    2    0
 0.934523219430640D+03 0.000000000000000D+00 0.000000000000000D+00 0.934523219430640D+03
 0.934523219430640D+03 -.000000000000000D+00 -.000000000000000D+00 -.934523219430640D+03
 0.586788827137540D+03 0.445296132546095D+03 -.702075066002896D+02 -.354229287340715D+03
 0.869063143139900D+03 -.421521240329135D+03 -.414814344011761D+01 0.759982489022997D+03
 0.413194468583840D+03 -.237748922169604D+02 0.743556500404072D+02 -.405753201682282D+03
 0.000000000000000D+00 0.000000000000000D+00 0.000000000000000D+00 -.000000000000000D+00
 0.934523219430640D+03 0.000000000000000D+00 0.000000000000000D+00 0.934523219430640D+03
 0.934523219430640D+03 -.000000000000000D+00 -.000000000000000D+00 -.934523219430640D+03
 0.587127408917937D+03 0.445259235392567D+03 -.700921112575823D+02 -.354858991065143D+03
 0.868274014833671D+03 -.421575846265980D+03 -.397736411993704D+01 0.759050559090211D+03
 0.347895458537951D+03 -.203294586016539D+02 0.772354201899592D+02 -.338603976722624D+03
 0.657495565717208D+02 -.335393052493351D+01 -.316594481243985D+01 -.655875913024440D+02
-.122883650401D-02 0.000000000000D+00 0.000000000000D+00 0.496307135479D-05 0.000000000000D+00  6 1 1 25 1 1 21 2 0.34501709D+00 0.59911869D-01 0.23708464D+06 0.23708464D+06 0.23708464D+06 0.10921964D+01  1  2 13  3  6  5        1 -.252027285495D-02 0.100000000000D+01
-.178749125433D-08 0.000000000000D+00 0.000000000000D+00 0.496307135479D-05 0.000000000000D+00  6 1 1 25 1 1 21 2 0.34501709D+00 0.59911869D-01 0.23708464D+06 0.23708464D+06 0.23708464D+06 0.10921964D+01  1  2 13  3  6  5        1 -.366604155396D-08 0.100000000000D+01
-.206252104633D-03 0.000000000000D+00 0.000000000000D+00 0.496307135479D-05 0.000000000000D+00  6 1 1 25 1 1 21 2 0.34501709D+00 0.59911869D-01 0.23397154D+06 0.23397154D+06 0.23397154D+06 0.10926306D+01  1  2  8  3  6  5        1 -.423710488171D-03 0.100000000000D+01
-.245888176426D-03 0.000000000000D+00 0.000000000000D+00 0.496307135479D-05 0.000000000000D+00  6 1 1 25 1 1 21 2 0.34501709D+00 0.59911869D-01 0.23397154D+06 0.23397154D+06 0.23397154D+06 0.10926306D+01  1  2  9  3  6  5        1 -.505136175237D-03 0.100000000000D+01
0.288081986540D-03 0.000000000000D+00 0.000000000000D+00 0.496307135479D-05 0.000000000000D+00  6 1 1 25 1 1 21 2 0.34501709D+00 0.59911869D-01 0.23397154D+06 0.23397154D+06 0.23397154D+06 0.10926306D+01  1  2 10  3  6  5        1 0.591816308335D-03 0.100000000000D+01
0.103656038014D-02 0.000000000000D+00 0.000000000000D+00 0.496307135479D-05 0.673056538658D-06  6 1 1 25 1 1 21 2 0.34501709D+00 0.59911869D-01 0.23708464D+06 0.23708464D+06 0.23708464D+06 0.10921964D+01  1  2  1  3  6  5        1 0.212592560528D-02 0.100000000000D+01
  </mgrwgt>
  </event>
  <event>
  5     66 -.18982733E-05 0.27674453E+02 0.75467711E-02 0.89003719E-01
        1 -1    0    0  501    0 0.00000000E+00 0.00000000E+00 0.21238875E+04 0.21238876E+04 0.32000000E+00 0.0000E+00 0.9000E+01
        1 -1    0    0  502    0 0.00000000E+00 0.00000000E+00 -.83868887E+03 0.83868893E+03 0.32000000E+00 0.0000E+00 0.9000E+01
       25  1    1    2    0    0 -.32723311E+03 -.66804432E+03 0.11952434E+03 0.76372494E+03 0.12500000E+03 0.0000E+00 0.9000E+01
        1  1    1    2  501    0 0.32975010E+03 0.69560225E+03 0.15937271E+04 0.17699051E+04 0.32000000E+00 0.0000E+00 0.9000E+01
        1  1    1    2  502    0 -.25169873E+01 -.27557928E+02 -.42805281E+03 0.42894648E+03 0.32000000E+00 0.0000E+00 0.9000E+01
#aMCatNLO 1  0  0  1  5 0.40109074D+02 0.00000000D+00  -5  6  0 0.00000000D+00 0.00000000D+00 0.00000000D+00 0.00000000D+00 0.00000000D+00
  <mgrwgt>
 -.4824709750D-02    7    2    0
 0.133464637628539D+04 0.000000000000000D+00 0.000000000000000D+00 0.133464637628539D+04
 0.133464637628539D+04 0.000000000000000D+00 0.000000000000000D+00 -.133464637628539D+04
 0.790057184356270D+03 -.327227814831810D+03 -.668031542460889D+03 -.234991850987818D+03
 0.119701094823987D+04 0.329744907554577D+03 0.695591288631579D+03 0.916654932527942D+03
 0.682224619974643D+03 -.251709272276713D+01 -.275597461706900D+02 -.681663081540124D+03
 0.000000000000000D+00 0.000000000000000D+00 0.000000000000000D+00 0.000000000000000D+00
 0.184326596533537D+04 0.000000000000000D+00 0.000000000000000D+00 0.184326596533537D+04
 0.134468543334122D+04 0.000000000000000D+00 0.000000000000000D+00 -.134468543334122D+04
 0.811510737467970D+03 -.366053202169381D+03 -.673578919041170D+03 -.234991850987818D+03
 0.117762887900097D+04 0.272178625273627D+03 0.687366210453669D+03 0.916654932527942D+03
 0.683356485485593D+03 -.356216614631120D+02 -.322897314180689D+02 -.681663081540124D+03
 0.515455296722052D+03 0.129496238358866D+03 0.185024400055697D+02 0.498580531994144D+03
0.103256293294D-02 0.000000000000D+00 0.000000000000D+00 0.904800660374D-05 0.000000000000D+00  6 1 1 25 1 1 21 0 0.32675193D+00 0.12902906D+00 0.60199475D+06 0.60199475D+06 0.60199475D+06 0.10628586D+01  1  2  2  1  6  1        1 0.651221560340D-03 0.100000000000D+01
0.756397055129D-03 0.000000000000D+00 -.396531354256D-05 0.904800660374D-05 0.000000000000D+00  6 1 1 25 1 1 21 2 0.32675193D+00 0.12902906D+00 0.60199475D+06 0.60199475D+06 0.60199475D+06 0.10628586D+01  1  2  3  1  6  1        1 0.538906083277D-03 0.100000000000D+01
-.904108091981D-03 0.000000000000D+00 0.000000000000D+00 0.904800660374D-05 0.000000000000D+00  6 1 1 25 1 1 21 2 0.32675193D+00 0.12902906D+00 0.60199475D+06 0.60199475D+06 0.60199475D+06 0.10628586D+01  1  2 15  1  6  1        1 -.644144959853D-03 0.100000000000D+01
-.195901792295D-01 0.000000000000D+00 0.000000000000D+00 0.904800660374D-05 0.000000000000D+00  6 1 1 25 1 1 21 2 0.32675193D+00 0.12902906D+00 0.60199475D+06 0.60199475D+06 0.60199475D+06 0.10628586D+01  1  2  4  1  6  1        1 -.139573081197D-01 0.100000000000D+01
-.173219046371D-01 0.000000000000D+00 -.758676630070D-03 0.904800660374D-05 0.000000000000D+00  6 1 1 25 1 1 21 2 0.45207041D+00 0.12902906D+00 0.60199475D+06 0.60199475D+06 0.60199475D+06 0.10628586D+01  1  2  5  1  6  1        1 -.329455623093D-02 0.100000000000D+01
0.167177940841D-01 0.000000000000D+00 0.720381920617D-03 0.904800660374D-05 0.000000000000D+00  6 1 1 25 1 1 21 2 0.32675193D+00 0.12902906D+00 0.60199475D+06 0.60199475D+06 0.60199475D+06 0.10628586D+01  1  2  6  1  6  1        1 0.119108355457D-01 0.100000000000D+01
-.689606552504D-03 0.000000000000D+00 -.310444563073D-04 0.904800660374D-05 0.000000000000D+00  6 21 1 25 1 1 -1 2 0.45207041D+00 0.12902906D+00 0.60199475D+06 0.60199475D+06 0.60199475D+06 0.10628586D+01  1  2  5  4  6  1        1 -.296636290106D-04 0.100000000000D+01
  </mgrwgt>
  </event>
  <event>
  5     66 0.18982733E-05 0.16533770E+03 0.75467711E-02 0.90727318E-01
        1 -1    0    0  501    0 0.00000000E+00 0.00000000E+00 0.95628635E+03 0.95628641E+03 0.32000000E+00 0.0000E+00 0.9000E+01
        1 -1    0    0  502    0 0.00000000E+00 0.00000000E+00 -.57420875E+03 0.57420884E+03 0.32000000E+00 0.0000E+00 0.9000E+01
       25  1    1    2    0    0 -.45401970E+03 -.76729114E+02 0.20918166E+03 0.52096374E+03 0.12500000E+03 0.0000E+00 0.9000E+01
        1  1    1    2  501    0 0.32193869E+03 -.22668543E+02 0.52743959E+03 0.61834538E+03 0.32000000E+00 0.0000E+00 0.9000E+01
        1  1    1    2  502    0 0.13208102E+03 0.99397656E+02 -.35454365E+03 0.39118613E+03 0.32000000E+00 0.0000E+00 0.9000E+01
#aMCatNLO 1  0  0  2  5 0.48335556D+03 0.00000000D+00  -5  6  0 0.00000000D+00 0.00000000D+00 0.00000000D+00 0.00000000D+00 0.00000000D+00
  <mgrwgt>
 0.1410968577D-02    6    2    0
 0.741018286261384D+03 0.000000000000000D+00 0.000000000000000D+00 0.741018286261384D+03
 0.741018286261384D+03 0.000000000000000D+00 0.000000000000000D+00 -.741018286261384D+03
 0.484073590857444D+03 -.453995897850076D+03 -.767505740340006D+02 0.818493462794573D+02
 0.502503643582908D+03 0.321885577424115D+03 -.226648033369755D+02 0.385208895990395D+03
 0.495459338082418D+03 0.132110320425961D+03 0.994153773709761D+02 -.467058242269852D+03
 0.000000000000000D+00 0.000000000000000D+00 0.000000000000000D+00 -.000000000000000D+00
 0.905311750712883D+03 0.000000000000000D+00 0.000000000000000D+00 0.905311750712883D+03
 0.124343758492243D+04 0.000000000000000D+00 0.000000000000000D+00 -.124343758492243D+04
 0.608553049491854D+03 -.545626621295188D+03 -.224285730026362D+03 0.818493462794573D+02
 0.479445414454757D+03 0.239536585324239D+03 -.155255390189064D+03 0.385208895990395D+03
 0.470868109931258D+03 0.510714001978628D+02 -.310658552089115D+02 -.467058242269852D+03
 0.589882761757445D+03 0.255018635773086D+03 0.410606975424337D+03 -.338125834209547D+03
0.152191780456D-03 0.000000000000D+00 0.000000000000D+00 0.489904973089D-06 0.000000000000D+00  6 1 1 25 1 1 21 0 0.14712099D+00 0.88339819D-01 0.23286604D+06 0.23286604D+06 0.23286604D+06 0.10927863D+01  1  2  2  2  6  2        1 0.116035012187D-02 0.100000000000D+01
0.154124817496D-04 0.000000000000D+00 -.584456509967D-06 0.489904973089D-06 0.000000000000D+00  6 1 1 25 1 1 21 2 0.14712099D+00 0.88339819D-01 0.23286604D+06 0.23286604D+06 0.23286604D+06 0.10927863D+01  1  2  3  2  6  2        1 0.140326903239D-03 0.100000000000D+01
-.880130023688D-04 0.000000000000D+00 0.000000000000D+00 0.489904973089D-06 0.000000000000D+00  6 1 1 25 1 1 21 2 0.14712099D+00 0.88339819D-01 0.23286604D+06 0.23286604D+06 0.23286604D+06 0.10927863D+01  1  2 15  2  6  2        1 -.801337011642D-03 0.100000000000D+01
-.848910214041D-04 0.000000000000D+00 -.895429657842D-04 0.489904973089D-06 0.000000000000D+00  6 1 1 25 1 1 21 2 0.14712099D+00 0.16874848D+00 0.23286604D+06 0.23286604D+06 0.23286604D+06 0.10927863D+01  1  2  5  2  6  2        1 -.273403563436D-03 0.100000000000D+01
0.130501930891D-03 0.000000000000D+00 0.735852701408D-04 0.489904973089D-06 0.000000000000D+00  6 1 1 25 1 1 21 2 0.14712099D+00 0.88339819D-01 0.23286604D+06 0.23286604D+06 0.23286604D+06 0.10927863D+01  1  2  6  2  6  2        1 0.118818838693D-02 0.100000000000D+01
-.822316332799D-06 0.000000000000D+00 -.629313115545D-05 0.489904973089D-06 0.000000000000D+00  6 1 21 25 1 1 -1 2 0.14712099D+00 0.16874848D+00 0.23286604D+06 0.23286604D+06 0.23286604D+06 0.10927863D+01  1  2  5  5  6  2        1 -.315626035447D-05 0.100000000000D+01
  </mgrwgt>
  </event>
  <event>
  5     66 0.18982733E-05 0.18884436E+02 0.75467711E-02 0.94752779E-01
        1 -1    0    0  501    0 0.00000000E+00 0.00000000E+00 0.23230227E+04 0.23230228E+04 0.32000000E+00 0.0000E+00 0.9000E+01
        1 -1    0    0  502    0 0.00000000E+00 0.00000000E+00 -.35162947E+03 0.35162961E+03 0.32000000E+00 0.0000E+00 0.9000E+01
       25  1    1    2    0    0 -.47850018E+03 -.33597487E+02 0.83023948E+03 0.96696112E+03 0.12500000E+03 0.0000E+00 0.9000E+01
        1  1    1    2  501    0 0.72125500E+01 -.17458752E+02 0.12259722E+04 0.12261177E+04 0.32000000E+00 0.0000E+00 0.9000E+01
        1  1    1    2  502    0 0.47128763E+03 0.51056240E+02 -.84818400E+02 0.48157350E+03 0.32000000E+00 0.0000E+00 0.9000E+01
#aMCatNLO 1  0  0  1  1 0.10818434D+00 0.00000000D+00  -5  6  0 0.00000000D+00 0.00000000D+00 0.00000000D+00 0.00000000D+00 0.00000000D+00
  <mgrwgt>
 0.3446111812D-01    9    2    0
 0.903793931118560D+03 0.000000000000000D+00 0.000000000000000D+00 0.903793931118560D+03
 0.903793931118560D+03 0.000000000000000D+00 0.000000000000000D+00 -.903793931118560D+03
 0.525426134387348D+03 -.478576784702676D+03 -.336095839040152D+02 0.174018044210017D+03
 0.477052878967457D+03 0.721045759970837D+01 -.174536875076484D+02 0.476678956347695D+03
 0.805108848882315D+03 0.471366327102967D+03 0.510632714116636D+02 -.650697000557712D+03
 0.000000000000000D+00 0.000000000000000D+00 0.000000000000000D+00 0.000000000000000D+00
 0.908369595203631D+03 0.000000000000000D+00 0.000000000000000D+00 0.908369595203631D+03
 0.903794572199441D+03 0.000000000000000D+00 0.000000000000000D+00 -.903794572199441D+03
 0.525454268222817D+03 -.478607080081415D+03 -.336180186631844D+02 0.174018044210017D+03
 0.477052744267159D+03 0.718295209942337D+01 -.174613455162420D+02 0.476678956347695D+03
 0.805080852984567D+03 0.471319907637213D+03 0.510503474268616D+02 -.650697000557712D+03
 0.457630192852945D+01 0.104220344778780D+00 0.290167525648012D-01 0.457502300418994D+01
0.158052996089D-04 0.000000000000D+00 0.000000000000D+00 0.162323695183D-04 0.000000000000D+00  6 1 1 25 1 1 21 0 0.35738813D+00 0.54096854D-01 0.24442197D+06 0.24442197D+06 0.24442197D+06 0.10911971D+01  1  2  2  1  6  1        1 0.274513604577D-04 0.100000000000D+01
0.113186685405D-04 0.000000000000D+00 -.606965121291D-07 0.162323695183D-04 0.000000000000D+00  6 1 1 25 1 1 21 2 0.35738813D+00 0.54096854D-01 0.24442197D+06 0.24442197D+06 0.24442197D+06 0.10911971D+01  1  2  3  1  6  1        1 0.234079236875D-04 0.100000000000D+01
-.937448514730D-05 0.000000000000D+00 0.000000000000D+00 0.162323695183D-04 0.000000000000D+00  6 1 1 25 1 1 21 2 0.35738813D+00 0.54096854D-01 0.24442197D+06 0.24442197D+06 0.24442197D+06 0.10911971D+01  1  2 15  1  6  1        1 -.193871948942D-04 0.100000000000D+01
-.119741808882D+01 0.000000000000D+00 0.000000000000D+00 0.162323695183D-04 0.000000000000D+00  6 1 1 25 1 1 21 2 0.35738813D+00 0.54096854D-01 0.24442197D+06 0.24442197D+06 0.24442197D+06 0.10911971D+01  1  2  4  1  6  1        1 -.247635763384D+01 0.100000000000D+01
-.206709600067D+01 0.000000000000D+00 -.579196876662D-03 0.162323695183D-04 0.000000000000D+00  6 1 1 25 1 1 21 2 0.35919757D+00 0.54096854D-01 0.24442197D+06 0.24442197D+06 0.24442197D+06 0.10911971D+01  1  2  5  1  6  1        1 -.419701986461D+01 0.100000000000D+01
0.206707257337D+01 0.000000000000D+00 0.579189490720D-03 0.162323695183D-04 0.000000000000D+00  6 1 1 25 1 1 21 2 0.35738813D+00 0.54096854D-01 0.24442197D+06 0.24442197D+06 0.24442197D+06 0.10911971D+01  1  2  6  1  6  1        1 0.427487357554D+01 0.100000000000D+01
0.119828450435D+01 0.000000000000D+00 0.000000000000D+00 0.162323695183D-04 0.725625521461D-02  6 1 1 25 1 1 21 2 0.35919749D+00 0.54096892D-01 0.24446502D+06 0.24446502D+06 0.24446502D+06 0.10911913D+01  1  2 11  1  6  1        1 0.243293611141D+01 0.100000000000D+01
-.194260278891D-02 0.000000000000D+00 -.544315627248D-06 0.162323695183D-04 0.000000000000D+00  6 21 1 25 1 1 -1 2 0.35919757D+00 0.54096854D-01 0.24442197D+06 0.24442197D+06 0.24442197D+06 0.10911971D+01  1  2  5  4  6  1        1 -.154138816760D-02 0.100000000000D+01
0.193945787158D-02 0.000000000000D+00 0.000000000000D+00 0.162323695183D-04 0.828441734116D-05  6 21 1 25 1 1 -1 2 0.35919749D+00 0.54096892D-01 0.24446502D+06 0.24446502D+06 0.24446502D+06 0.10911913D+01  1  2 11  4  6  1        1 0.153884570152D-02 0.100000000000D+01
  </mgrwgt>
  </event>
  <event>
  5     66 0.18982733E-05 0.17675997E+03 0.75467711E-02 0.91771915E-01
        1 -1    0    0  501    0 0.00000000E+00 0.00000000E+00 0.26449139E+04 0.26449140E+04 0.32000000E+00 0.0000E+00 0.9000E+01
        1 -1    0    0  502    0 0.00000000E+00 0.00000000E+00 -.67680859E+03 0.67680867E+03 0.32000000E+00 0.0000E+00 0.9000E+01
       25  1    1    2    0    0 0.50382253E+03 -.19195909E+03 0.51103765E+03 0.75330598E+03 0.12500000E+03 0.0000E+00 0.9000E+01
        1  1    1    2  501    0 0.61665008E+02 0.16567082E+03 0.18632856E+04 0.18716524E+04 0.32000000E+00 0.0000E+00 0.9000E+01
        1  1    1    2  502    0 -.56548753E+03 0.26288274E+02 -.40621794E+03 0.69676419E+03 0.32000000E+00 0.0000E+00 0.9000E+01
#aMCatNLO 1  0  0  5  1 0.14283509D+03 0.00000000D+00  -5  6  0 0.00000000D+00 0.00000000D+00 0.00000000D+00 0.00000000D+00 0.00000000D+00
  <mgrwgt>
 0.1881101240D-03    1    2    0
 0.133794642155274D+04 0.000000000000000D+00 0.000000000000000D+00 0.133794642155274D+04
 0.133794642155274D+04 -.000000000000000D+00 -.000000000000000D+00 -.133794642155274D+04
 0.559316385550390D+03 0.503885926234984D+03 -.191953724952312D+03 0.803900489140095D+02
 0.952859999795025D+03 0.616597737489548D+02 0.165656756686651D+03 0.936321574286667D+03
 0.116371645776007D+04 -.565545699983939D+03 0.262969682656610D+02 -.101671162320068D+04
 0.000000000000000D+00 0.000000000000000D+00 0.000000000000000D+00 0.000000000000000D+00
 0.133794642155274D+04 0.000000000000000D+00 0.000000000000000D+00 0.133794642155274D+04
 0.133794642155274D+04 -.000000000000000D+00 -.000000000000000D+00 -.133794642155274D+04
 0.483961070365538D+03 0.423031539046282D+03 -.188194125588191D+03 -.649661888645755D+02
 0.726290510703082D+03 -.684750094326941D+02 0.171707815449335D+03 0.702371344186359D+03
 0.939966817696636D+03 -.410780739505940D+02 0.374162185695818D+03 -.861308811638763D+03
 0.525674444340228D+03 -.313478455662994D+03 -.357675875556963D+03 0.223903656316980D+03
0.410423968381D-03 0.000000000000D+00 0.000000000000D+00 0.161017306067D-05 0.000000000000D+00  6 1 1 25 1 1 21 2 0.40690984D+00 0.10412441D+00 0.42017994D+06 0.42017994D+06 0.42017994D+06 0.10738901D+01  1  2 14  3  6  5        1 0.188110123993D-03 0.100000000000D+01
  </mgrwgt>
  </event>
  <event>
  5     66 0.18982733E-05 0.21426544E+03 0.75467711E-02 0.88607218E-01
        1 -1    0    0  501    0 0.00000000E+00 0.00000000E+00 0.75633348E+03 0.75633355E+03 0.32000000E+00 0.0000E+00 0.9000E+01
        1 -1    0    0  502    0 0.00000000E+00 0.00000000E+00 -.14351874E+04 0.14351874E+04 0.32000000E+00 0.0000E+00 0.9000E+01
       25  1    1    2    0    0 -.42450423E+03 0.50681145E+03 -.14948805E+03 0.68922664E+03 0.12500000E+03 0.0000E+00 0.9000E+01
        1  1    1    2  501    0 0.98250887E+02 -.19045741E+03 0.40784155E+03 0.46071911E+03 0.32000000E+00 0.0000E+00 0.9000E+01
        1  1    1    2  502    0 0.32625334E+03 -.31635404E+03 -.93720740E+03 0.10415752E+04 0.32000000E+00 0.0000E+00 0.9000E+01
#aMCatNLO 1  0  0  2  5 0.54920133D+03 0.00000000D+00  -5  6  0 0.00000000D+00 0.00000000D+00 0.00000000D+00 0.00000000D+00 0.00000000D+00
  <mgrwgt>
 0.3652862183D-03    7    2    0
 0.104186389708269D+04 0.000000000000000D+00 0.000000000000000D+00 0.104186389708269D+04
 0.104186389708269D+04 0.000000000000000D+00 0.000000000000000D+00 -.104186389708269D+04
 0.676228300439099D+03 -.424536972812951D+03 0.506830079506939D+03 0.674636460366414D+02
 0.617304191747890D+03 0.982320751579066D+02 -.190420944482646D+03 0.578925546561926D+03
 0.790195301978390D+03 0.326304897655045D+03 -.316409135024294D+03 -.646389192598567D+03
 0.000000000000000D+00 0.000000000000000D+00 -.000000000000000D+00 -.000000000000000D+00
 0.126870002513627D+04 0.000000000000000D+00 0.000000000000000D+00 0.126870002513627D+04
 0.147170930230397D+04 0.000000000000000D+00 0.000000000000000D+00 -.147170930230397D+04
 0.872708664757298D+03 -.568106949997960D+03 0.647069210649003D+03 0.674636460366414D+02
 0.584794608847464D+03 -.131896942578154D+02 -.815841776352397D+02 0.578925546561926D+03
 0.697385033996101D+03 0.188422027211931D+03 -.181725168853579D+03 -.646389192598567D+03
 0.585521019839379D+03 0.392874617043845D+03 -.383759864160184D+03 -.203009277167708D+03
0.138014517877D-03 0.000000000000D+00 0.000000000000D+00 0.218782045208D-06 0.000000000000D+00  6 1 1 25 1 1 21 0 0.11635900D+00 0.22079807D+00 0.45000041D+06 0.45000041D+06 0.45000041D+06 0.10717594D+01  1  2  2  2  6  2        1 0.304415535524D-03 0.100000000000D+01
0.145154043007D-04 0.000000000000D+00 -.530012088706D-06 0.218782045208D-06 0.000000000000D+00  6 1 1 25 1 1 21 2 0.11635900D+00 0.22079807D+00 0.45000041D+06 0.45000041D+06 0.45000041D+06 0.10717594D+01  1  2  3  2  6  2        1 0.367761065861D-04 0.100000000000D+01
-.934294193749D-04 0.000000000000D+00 0.000000000000D+00 0.218782045208D-06 0.000000000000D+00  6 1 1 25 1 1 21 2 0.11635900D+00 0.22079807D+00 0.45000041D+06 0.45000041D+06 0.45000041D+06 0.10717594D+01  1  2 15  2  6  2        1 -.236711993275D-03 0.100000000000D+01
-.775753031546D-05 0.000000000000D+00 0.000000000000D+00 0.218782045208D-06 0.000000000000D+00  6 1 1 25 1 1 21 2 0.11635900D+00 0.22079807D+00 0.45000041D+06 0.45000041D+06 0.45000041D+06 0.10717594D+01  1  2  4  2  6  2        1 -.196544137398D-04 0.100000000000D+01
-.114791904180D-03 0.000000000000D+00 -.841602049823D-04 0.218782045208D-06 0.000000000000D+00  6 1 1 25 1 1 21 2 0.11635900D+00 0.34195910D+00 0.45000041D+06 0.45000041D+06 0.45000041D+06 0.10717594D+01  1  2  5  2  6  2        1 -.860260206466D-04 0.100000000000D+01
0.144970679655D-03 0.000000000000D+00 0.767035820970D-04 0.218782045208D-06 0.000000000000D+00  6 1 1 25 1 1 21 2 0.11635900D+00 0.22079807D+00 0.45000041D+06 0.45000041D+06 0.45000041D+06 0.10717594D+01  1  2  6  2  6  2        1 0.367296498012D-03 0.100000000000D+01
-.260744471848D-05 0.000000000000D+00 -.428098015301D-05 0.218782045208D-06 0.000000000000D+00  6 1 21 25 1 1 -1 2 0.11635900D+00 0.34195910D+00 0.45000041D+06 0.45000041D+06 0.45000041D+06 0.10717594D+01  1  2  5  5  6  2        1 -.809494178978D-06 0.100000000000D+01
  </mgrwgt>
  </event>
  <event>
  5     66 0.18982733E-05 0.21152050E+02 0.75467711E-02 0.92682151E-01
        1 -1    0    0  501    0 0.00000000E+00 0.00000000E+00 0.44510428E+04 0.44510429E+04 0.32000000E+00 0.0000E+00 0.9000E+01
        1 -1    0    0  502    0 0.00000000E+00 0.00000000E+00 -.56567514E+03 0.56567523E+03 0.32000000E+00 0.0000E+00 0.9000E+01
       25  1    1    2    0    0 -.55043854E+03 -.49201668E+02 0.18669019E+04 0.19509872E+04 0.12500000E+03 0.0000E+00 0.9000E+01
        1  1    1    2  501    0 0.53112759E+03 0.40575517E+02 0.25139658E+04 0.25697796E+04 0.32000000E+00 0.0000E+00 0.9000E+01
        1  1    1    2  502    0 0.19310949E+02 0.86261512E+01 -.49550001E+03 0.49595129E+03 0.32000000E+00 0.0000E+00 0.9000E+01
#aMCatNLO 1  0  0  1  4 0.25598750D+02 0.00000000D+00  -5  6  0 0.00000000D+00 0.00000000D+00 0.00000000D+00 0.00000000D+00 0.00000000D+00
  <mgrwgt>
 0.2128304503D-02    7    2    0
 0.158677173211750D+04 0.000000000000000D+00 0.000000000000000D+00 0.158677173211750D+04
 0.158677173211750D+04 0.000000000000000D+00 0.000000000000000D+00 -.158677173211750D+04
 0.798523705790895D+03 -.550379273828783D+03 -.491978191021329D+02 0.562740915737713D+03
 0.984331370279958D+03 0.531066465455679D+03 0.405708473640597D+02 0.827786604222245D+03
 0.139068838816415D+04 0.193128083731043D+02 0.862697173807317D+01 -.139052751995996D+04
 0.000000000000000D+00 0.000000000000000D+00 -.000000000000000D+00 0.000000000000000D+00
 0.163483271444169D+04 0.000000000000000D+00 0.000000000000000D+00 0.163483271444169D+04
 0.161389504129462D+04 0.000000000000000D+00 0.000000000000000D+00 -.161389504129462D+04
 0.809240133727123D+03 -.566471045004509D+03 -.409610908164309D+02 0.562740915737713D+03
 0.974364023328860D+03 0.511462293933603D+03 0.506054316450748D+02 0.827786604222245D+03
 0.139074182002771D+04 -.852594340830958D+01 0.228765053495444D+02 -.139052751995996D+04
 0.743817786526127D+02 0.635346944792149D+02 -.325208461781884D+02 0.209376731470738D+02
0.197509152955D-01 0.000000000000D+00 0.000000000000D+00 0.609765176984D-04 0.000000000000D+00  6 1 1 25 1 1 21 0 0.68477583D+00 0.87026952D-01 0.31376899D+06 0.31376899D+06 0.31376899D+06 0.10831129D+01  1  2  2  1  6  1        1 0.305584462535D-03 0.100000000000D+01
0.182620149108D-01 0.000000000000D+00 -.758487152700D-04 0.609765176984D-04 0.000000000000D+00  6 1 1 25 1 1 21 2 0.68477583D+00 0.87026952D-01 0.31376899D+06 0.31376899D+06 0.31376899D+06 0.10831129D+01  1  2  3  1  6  1        1 0.331466944065D-03 0.100000000000D+01
-.146793716257D-01 0.000000000000D+00 0.000000000000D+00 0.609765176984D-04 0.000000000000D+00  6 1 1 25 1 1 21 2 0.68477583D+00 0.87026952D-01 0.31376899D+06 0.31376899D+06 0.31376899D+06 0.10831129D+01  1  2 15  1  6  1        1 -.266439737199D-03 0.100000000000D+01
-.183001861232D-02 0.000000000000D+00 0.000000000000D+00 0.609765176984D-04 0.000000000000D+00  6 1 1 25 1 1 21 2 0.68477583D+00 0.87026952D-01 0.31376899D+06 0.31376899D+06 0.31376899D+06 0.10831129D+01  1  2  4  1  6  1        1 -.332159775343D-04 0.100000000000D+01
-.304476995127D+00 0.000000000000D+00 -.558392245959D-01 0.609765176984D-04 0.000000000000D+00  6 1 1 25 1 1 21 2 0.70744688D+00 0.87026952D-01 0.31376899D+06 0.31376899D+06 0.31376899D+06 0.10831129D+01  1  2  5  1  6  1        1 -.378653343450D-02 0.100000000000D+01
0.307346829917D+00 0.000000000000D+00 0.584270392050D-01 0.609765176984D-04 0.000000000000D+00  6 1 1 25 1 1 21 2 0.68477583D+00 0.87026952D-01 0.31376899D+06 0.31376899D+06 0.31376899D+06 0.10831129D+01  1  2  6  1  6  1        1 0.557853637610D-02 0.100000000000D+01
-.175055666442D-02 0.000000000000D+00 -.324951498976D-03 0.609765176984D-04 0.000000000000D+00  6 21 1 25 1 1 -1 2 0.70744688D+00 0.87026952D-01 0.31376899D+06 0.31376899D+06 0.31376899D+06 0.10831129D+01  1  2  5  4  6  1        1 -.109413031626D-05 0.100000000000D+01
  </mgrwgt>
  </event>
  <event>
  5     66 0.18982733E-05 0.49024321E+02 0.75467711E-02 0.90782892E-01
        1 -1    0    0  501    0 0.00000000E+00 0.00000000E+00 0.22516271E+04 0.22516271E+04 0.32000000E+00 0.0000E+00 0.9000E+01
        1 -1    0    0  502    0 0.00000000E+00 0.00000000E+00 -.52992793E+03 0.52992803E+03 0.32000000E+00 0.0000E+00 0.9000E+01
       25  1    1    2    0    0 0.54792260E+03 -.58548430E+02 0.14276039E+03 0.58279724E+03 0.12500000E+03 0.0000E+00 0.9000E+01
        1  1    1    2  501    0 -.54772218E+03 0.95273495E+01 0.18468588E+04 0.19263898E+04 0.32000000E+00 0.0000E+00 0.9000E+01
        1  1    1    2  502    0 -.20042383E+00 0.49021080E+02 -.26792003E+03 0.27236804E+03 0.32000000E+00 0.0000E+00 0.9000E+01
#aMCatNLO 1  0  0  5  1 0.22654842D+03 0.00000000D+00  -5  6  0 0.00000000D+00 0.00000000D+00 0.00000000D+00 0.00000000D+00 0.00000000D+00
  <mgrwgt>
 0.4824143996D-02    6    2    0
 0.109233705412965D+04 0.000000000000000D+00 0.000000000000000D+00 0.109233705412965D+04
 0.109233705412965D+04 -.000000000000000D+00 -.000000000000000D+00 -.109233705412965D+04
 0.629496037114578D+03 0.547917428197908D+03 -.585511626664708D+02 -.277486060857755D+03
 0.997220680644220D+03 -.547716641437927D+03 0.952725317770700D+01 0.833285544122401D+03
 0.557957390500505D+03 -.200786759980356D+00 0.490239094887634D+02 -.555799483264646D+03
 0.000000000000000D+00 -.000000000000000D+00 0.000000000000000D+00 0.000000000000000D+00
 0.109233705412965D+04 0.000000000000000D+00 0.000000000000000D+00 0.109233705412965D+04
 0.109233705412965D+04 -.000000000000000D+00 -.000000000000000D+00 -.109233705412965D+04
 0.643044429382950D+03 0.547906586614689D+03 -.559040917416008D+02 -.307496736618831D+03
 0.959062933230707D+03 -.547733308264766D+03 0.135966101933945D+02 0.787149963542952D+03
 0.179393132948307D+03 0.667896426451116D+02 -.119118660889663D+03 -.116326198305457D+03
 0.403173612697341D+03 -.669629209950348D+02 0.161426142437869D+03 -.363327028618663D+03
0.619402171233D-02 0.000000000000D+00 0.000000000000D+00 0.102325994983D-04 0.000000000000D+00  6 1 1 25 1 1 21 0 0.34640417D+00 0.81527384D-01 0.33748011D+06 0.33748011D+06 0.33748011D+06 0.10807894D+01  1  2  2  3  6  5        1 0.669998400143D-02 0.100000000000D+01
0.245323704413D-02 0.000000000000D+00 -.237866742987D-04 0.102325994983D-04 0.000000000000D+00  6 1 1 25 1 1 21 2 0.34640417D+00 0.81527384D-01 0.33748011D+06 0.33748011D+06 0.33748011D+06 0.10807894D+01  1  2  3  3  6  5        1 0.309972185073D-02 0.100000000000D+01
-.517552143524D-02 0.000000000000D+00 0.000000000000D+00 0.102325994983D-04 0.000000000000D+00  6 1 1 25 1 1 21 2 0.34640417D+00 0.81527384D-01 0.33748011D+06 0.33748011D+06 0.33748011D+06 0.10807894D+01  1  2 15  3  6  5        1 -.653939125863D-02 0.100000000000D+01
-.207328901385D-03 0.000000000000D+00 0.000000000000D+00 0.102325994983D-04 0.000000000000D+00  6 1 1 25 1 1 21 2 0.34640417D+00 0.81527384D-01 0.33748011D+06 0.33748011D+06 0.33748011D+06 0.10807894D+01  1  2  4  3  6  5        1 -.261964871046D-03 0.100000000000D+01
-.168595184660D-02 0.000000000000D+00 0.000000000000D+00 0.102325994983D-04 0.000000000000D+00  6 1 1 25 1 1 21 2 0.34640417D+00 0.81527384D-01 0.33748011D+06 0.33748011D+06 0.33748011D+06 0.10807894D+01  1  2  5  3  6  5        1 -.213023922441D-02 0.100000000000D+01
0.313095445079D-02 0.000000000000D+00 -.000000000000D+00 0.102325994983D-04 0.000000000000D+00  6 1 1 25 1 1 21 2 0.34640417D+00 0.81527384D-01 0.33748011D+06 0.33748011D+06 0.33748011D+06 0.10807894D+01  1  2  6  3  6  5        1 0.395603349785D-02 0.100000000000D+01
  </mgrwgt>
  </event>
  <event>
  5     66 0.18982733E-05 0.57769383E+02 0.75467711E-02 0.89538329E-01
        1 -1    0    0  501    0 0.00000000E+00 0.00000000E+00 0.44076024E+03 0.44076035E+03 0.32000000E+00 0.0000E+00 0.9000E+01
        1 -1    0    0  502    0 -.00000000E+00 -.00000000E+00 -.37223770E+04 0.37223770E+04 0.32000000E+00 0.0000E+00 0.9000E+01
       25  1    1    2    0    0 -.28731205E+03 -.51952123E+03 -.29160047E+03 0.67313176E+03 0.12500000E+03 0.0000E+00 0.9000E+01
        1  1    1    2  501    0 -.46570288E+02 0.34205898E+02 0.21944842E+03 0.22692850E+03 0.32000000E+00 0.0000E+00 0.9000E+01
        1  1    1    2  502    0 0.33388234E+03 0.48531533E+03 -.32094647E+04 0.32630771E+04 0.32000000E+00 0.0000E+00 0.9000E+01
#aMCatNLO 1  0  0  5  1 0.47005573D+02 0.00000000D+00  -5  6  0 0.00000000D+00 0.00000000D+00 0.00000000D+00 0.00000000D+00 0.00000000D+00
  <mgrwgt>
 0.7146596394D-03    3    2    0
 0.128088877749002D+04 0.000000000000000D+00 0.000000000000000D+00 0.128088877749002D+04
 0.128088877749002D+04 -.000000000000000D+00 -.000000000000000D+00 -.128088877749002D+04
 0.720494865685542D+03 -.287360652460294D+03 -.519572839774901D+03 0.388530270461731D+03
 0.649743203298931D+03 -.465595917350074D+02 0.341980408858241D+02 0.647169937999438D+03
 0.119153948599556D+04 0.333920244195301D+03 0.485374798889077D+03 -.103570020846117D+04
 0.000000000000000D+00 -.000000000000000D+00 0.000000000000000D+00 0.000000000000000D+00
 0.128088877749002D+04 0.000000000000000D+00 0.000000000000000D+00 0.128088877749002D+04
 0.128088877749002D+04 -.000000000000000D+00 -.000000000000000D+00 -.128088877749002D+04
 0.607152607561958D+03 -.249914650311981D+03 -.465142639516342D+03 0.272386272290833D+03
 0.548831295463452D+03 -.127540641684270D+02 0.833365745003698D+02 0.542317379472411D+03
 0.753349745931898D+03 0.419025482970683D+03 0.587737288626800D+03 -.215681162539659D+03
 0.652443906022727D+03 -.156356768490275D+03 -.205931223610828D+03 -.599022489223584D+03
0.132724088818D-01 0.000000000000D+00 0.000000000000D+00 0.123107271685D-04 0.000000000000D+00  6 1 1 25 1 1 21 0 0.67809277D-01 0.57267340D+00 0.39292433D+06 0.39292433D+06 0.39292433D+06 0.10759868D+01  1  2  2  3  6  5        1 0.142818696845D-02 0.100000000000D+01
0.483724498949D-02 0.000000000000D+00 -.509695448118D-04 0.123107271685D-04 0.000000000000D+00  6 1 1 25 1 1 21 2 0.67809277D-01 0.57267340D+00 0.39292433D+06 0.39292433D+06 0.39292433D+06 0.10759868D+01  1  2  3  3  6  5        1 0.602625233331D-03 0.100000000000D+01
-.105646959927D-01 0.000000000000D+00 0.000000000000D+00 0.123107271685D-04 0.000000000000D+00  6 1 1 25 1 1 21 2 0.67809277D-01 0.57267340D+00 0.39292433D+06 0.39292433D+06 0.39292433D+06 0.10759868D+01  1  2 15  3  6  5        1 -.131615256236D-02 0.100000000000D+01
  </mgrwgt>
  </event>
  <event>
  5     66 -.18982733E-05 0.24428497E+02 0.75467711E-02 0.94438463E-01
        1 -1    0    0  501    0 0.00000000E+00 0.00000000E+00 0.11732693E+04 0.11732693E+04 0.32000000E+00 0.0000E+00 0.9000E+01
        1 -1    0    0  502    0 0.00000000E+00 0.00000000E+00 -.10295171E+04 0.10295172E+04 0.32000000E+00 0.0000E+00 0.9000E+01
       25  1    1    2    0    0 -.27708541E+03 -.38710856E+03 0.32593554E+02 0.49327143E+03 0.12500000E+03 0.0000E+00 0.9000E+01
        1  1    1    2  501    0 -.95598327E+01 -.22482936E+02 0.83195623E+03 0.83231493E+03 0.32000000E+00 0.0000E+00 0.9000E+01
        1  1    1    2  502    0 0.28664525E+03 0.40959150E+03 -.72079764E+03 0.87720011E+03 0.32000000E+00 0.0000E+00 0.9000E+01
#aMCatNLO 1  0  0  1  1 0.37975752D+03 0.00000000D+00  -5  6  0 0.00000000D+00 0.00000000D+00 0.00000000D+00 0.00000000D+00 0.00000000D+00
  <mgrwgt>
 -.1003462130D-01    1    2    0
 0.109904544220587D+04 0.000000000000000D+00 0.000000000000000D+00 0.109904544220587D+04
 0.109904544220587D+04 0.000000000000000D+00 0.000000000000000D+00 -.109904544220587D+04
 0.492256201865390D+03 -.277122298226642D+03 -.387161704754432D+03 0.463111396349063D+00
 0.779604802543556D+03 -.955886087910220D+01 -.224806506194159D+02 0.779221981642843D+03
 0.926229880002789D+03 0.286681159105744D+03 0.409642355373848D+03 -.779685093039192D+03
 0.000000000000000D+00 -.000000000000000D+00 0.000000000000000D+00 0.000000000000000D+00
 0.157553425211673D+04 0.000000000000000D+00 0.000000000000000D+00 0.157553425211673D+04
 0.123413048408097D+04 0.000000000000000D+00 0.000000000000000D+00 -.123413048408097D+04
 0.530429153808473D+03 -.213449983535510D+03 -.469221671778380D+03 0.463111396349063D+00
 0.798297820767951D+03 0.886812398772559D+02 -.149091085116764D+03 0.779221981642843D+03
 0.915181839647771D+03 0.401327316732859D+03 0.261888029809590D+03 -.779685093039192D+03
 0.565755921973507D+03 -.276558573074605D+03 0.356424727085554D+03 0.341403768035766D+03
-.407770059776D-02 0.000000000000D+00 0.000000000000D+00 0.339310075967D-04 0.000000000000D+00  6 1 1 25 1 1 21 2 0.18050297D+00 0.15838726D+00 0.25840825D+06 0.25840825D+06 0.25840825D+06 0.10893800D+01  1  2 14  1  6  1        1 -.100346212981D-01 0.100000000000D+01
  </mgrwgt>
  </event>
  <event>
  5     66 -.18982733E-05 0.47368851E+02 0.75467711E-02 0.94091593E-01
        1 -1    0    0  501    0 0.00000000E+00 0.00000000E+00 0.14558277E+04 0.14558278E+04 0.32000000E+00 0.0000E+00 0.9000E+01
        1 -1    0    0  502    0 0.00000000E+00 0.00000000E+00 -.20060704E+04 0.20060704E+04 0.32000000E+00 0.0000E+00 0.9000E+01
       25  1    1    2    0    0 -.50442689E+02 -.46664855E+03 0.12890068E+03 0.50253927E+03 0.12500000E+03 0.0000E+00 0.9000E+01
        1  1    1    2  501    0 0.45408386E+01 0.47833067E+03 0.10896015E+04 0.11899800E+04 0.32000000E+00 0.0000E+00 0.9000E+01
        1  1    1    2  502    0 0.45901850E+02 -.11682114E+02 -.17687448E+04 0.17693789E+04 0.32000000E+00 0.0000E+00 0.9000E+01
#aMCatNLO 1  0  0  1  4 0.47638667D+02 0.00000000D+00  -5  6  0 0.00000000D+00 0.00000000D+00 0.00000000D+00 0.00000000D+00 0.00000000D+00
  <mgrwgt>
 -.1163590203D-01    7    2    0
 0.170894498631563D+04 0.000000000000000D+00 0.000000000000000D+00 0.170894498631563D+04
 0.170894498631563D+04 0.000000000000000D+00 0.000000000000000D+00 -.170894498631563D+04
 0.529778449693758D+03 -.504461833724002D+02 -.466629813334264D+03 0.211546698510539D+03
 0.138066414095344D+04 0.454066884344841D+01 0.478312782455981D+03 0.129515625875042D+04
 0.150744738198406D+04 0.459055145289518D+02 -.116829691217162D+02 -.150670295726096D+04
 0.000000000000000D+00 0.000000000000000D+00 -.000000000000000D+00 0.000000000000000D+00
 0.191267345620356D+04 0.000000000000000D+00 0.000000000000000D+00 0.191267345620356D+04
 0.171189813288371D+04 0.000000000000000D+00 0.000000000000000D+00 -.171189813288371D+04
 0.526583660706656D+03 -.564076706062671D+02 -.462311064943604D+03 0.211546698510539D+03
 0.138465817541674D+04 -.110651859332998D+02 0.489618310348263D+03 0.129515625875042D+04
 0.150698011506968D+04 0.288938564391975D+02 0.640980945680681D+00 -.150670295726096D+04
 0.206349637894197D+03 0.385790001003694D+02 -.279482263503402D+02 0.200775323319855D+03
0.335890480685D-02 0.000000000000D+00 0.000000000000D+00 0.212279577092D-03 0.000000000000D+00  6 1 1 25 1 1 21 0 0.22397350D+00 0.30862621D+00 0.25573864D+06 0.25573864D+06 0.25573864D+06 0.10897184D+01  1  2  2  1  6  1        1 0.956360632851D-03 0.100000000000D+01
0.178622827661D-02 0.000000000000D+00 -.128990788783D-04 0.212279577092D-03 0.000000000000D+00  6 1 1 25 1 1 21 2 0.22397350D+00 0.30862621D+00 0.25573864D+06 0.25573864D+06 0.25573864D+06 0.10897184D+01  1  2  3  1  6  1        1 0.603934052399D-03 0.100000000000D+01
-.275981843985D-02 0.000000000000D+00 0.000000000000D+00 0.212279577092D-03 0.000000000000D+00  6 1 1 25 1 1 21 2 0.22397350D+00 0.30862621D+00 0.25573864D+06 0.25573864D+06 0.25573864D+06 0.10897184D+01  1  2 15  1  6  1        1 -.933110485423D-03 0.100000000000D+01
-.904127701199D-01 0.000000000000D+00 0.000000000000D+00 0.212279577092D-03 0.000000000000D+00  6 1 1 25 1 1 21 2 0.22397350D+00 0.30862621D+00 0.25573864D+06 0.25573864D+06 0.25573864D+06 0.10897184D+01  1  2  4  1  6  1        1 -.305690775150D-01 0.100000000000D+01
-.242151216447D+00 0.000000000000D+00 -.703825054882D-02 0.212279577092D-03 0.000000000000D+00  6 1 1 25 1 1 21 2 0.25082992D+00 0.30862621D+00 0.25573864D+06 0.25573864D+06 0.25573864D+06 0.10897184D+01  1  2  5  1  6  1        1 -.625493969832D-01 0.100000000000D+01
0.241443266964D+00 0.000000000000D+00 0.699335784001D-02 0.212279577092D-03 0.000000000000D+00  6 1 1 25 1 1 21 2 0.22397350D+00 0.30862621D+00 0.25573864D+06 0.25573864D+06 0.25573864D+06 0.10897184D+01  1  2  6  1  6  1        1 0.816333570302D-01 0.100000000000D+01
-.434591554417D-02 0.000000000000D+00 -.127166552133D-03 0.212279577092D-03 0.000000000000D+00  6 21 1 25 1 1 -1 2 0.25082992D+00 0.30862621D+00 0.25573864D+06 0.25573864D+06 0.25573864D+06 0.10897184D+01  1  2  5  4  6  1        1 -.777968762342D-03 0.100000000000D+01
  </mgrwgt>
  </event>
  <event>
  5     66 -.18982733E-05 0.36176010E+02 0.75467711E-02 0.92584763E-01
        1 -1    0    0  501    0 0.00000000E+00 0.00000000E+00 0.24019401E+03 0.24019422E+03 0.32000000E+00 0.0000E+00 0.9000E+01
        1 -1    0    0  502    0 -.00000000E+00 -.00000000E+00 -.42102918E+04 0.42102918E+04 0.32000000E+00 0.0000E+00 0.9000E+01
       25  1    1    2    0    0 -.15144249E+03 0.56437635E+03 -.12325533E+04 0.13697694E+04 0.12500000E+03 0.0000E+00 0.9000E+01
        1  1    1    2  501    0 0.35225003E+02 -.82706925E+01 0.14155172E+03 0.14610338E+03 0.32000000E+00 0.0000E+00 0.9000E+01
        1  1    1    2  502    0 0.11621749E+03 -.55610565E+03 -.28790962E+04 0.29346133E+04 0.32000000E+00 0.0000E+00 0.9000E+01
#aMCatNLO 1  0  0  5  2 0.12119596D+02 0.00000000D+00  -5  6  0 0.00000000D+00 0.00000000D+00 0.00000000D+00 0.00000000D+00 0.00000000D+00
  <mgrwgt>
 -.3704269519D-03    1    2    0
 0.100562784383751D+04 0.000000000000000D+00 0.000000000000000D+00 0.100562784383751D+04
 0.100562784383751D+04 -.000000000000000D+00 -.000000000000000D+00 -.100562784383751D+04
 0.598101554956010D+03 -.151456132753766D+03 0.564456860660998D+03 -.234512759738293D+02
 0.602595115532321D+03 0.352182556704520D+02 -.826910811202997D+01 0.601508245647533D+03
 0.810559017186691D+03 0.116237877083315D+03 -.556187752548968D+03 -.578056969673704D+03
 0.000000000000000D+00 0.000000000000000D+00 0.000000000000000D+00 0.000000000000000D+00
 0.100562784383751D+04 0.000000000000000D+00 0.000000000000000D+00 0.100562784383751D+04
 0.100562784383751D+04 -.000000000000000D+00 -.000000000000000D+00 -.100562784383751D+04
 0.593650706519696D+03 -.150478174301580D+03 0.559777417718163D+03 -.283147138954654D+02
 0.597847755842905D+03 0.362033456848601D+02 -.129826749365456D+02 0.596609342098423D+03
 0.808089304715956D+03 0.118495611408532D+03 -.552888677699450D+03 -.577305139891366D+03
 0.116679205964637D+02 -.422078279181202D+01 0.609393491783166D+01 0.901051168840916D+01
-.367332764921D-02 0.000000000000D+00 0.000000000000D+00 0.643147682899D-05 0.000000000000D+00  6 1 1 25 1 1 21 2 0.36952942D-01 0.64773721D+00 0.36121415D+06 0.36121415D+06 0.36121415D+06 0.10786355D+01  1  2 14  3  6  5        1 -.370426951898D-03 0.100000000000D+01
  </mgrwgt>
  </event>
  <event>
  6     66 0.18982733E-05 0.24444029E+02 0.75467711E-02 0.94421200E-01
        1 -1    0    0  501    0 0.00000000E+00 0.00000000E+00 0.29055393E+04 0.29055393E+04 0.32000000E+00 0.0000E+00 0.9000E+01
        1 -1    0    0  502    0 0.00000000E+00 0.00000000E+00 -.55597079E+03 0.55597089E+03 0.32000000E+00 0.0000E+00 0.9000E+01
       25  1    1    2    0    0 -.20822885E+02 -.45438200E+03 0.21058079E+03 0.51659061E+03 0.12500000E+03 0.0000E+00 0.9000E+01
        1  1    1    2  501    0 0.15530448E+02 -.43118229E+02 0.23788894E+04 0.23793309E+04 0.32000000E+00 0.0000E+00 0.9000E+01
        1  1    1    2  503    0 0.22203440E+02 0.44375354E+03 -.16980559E+03 0.47565139E+03 0.32000000E+00 0.0000E+00 0.9000E+01
       21  1    1    2  502  503 -.16911004E+02 0.53746683E+02 -.70096147E+02 0.89937314E+02 0.75000000E+00 0.0000E+00 0.9000E+01
#aMCatNLO 2  0  0  5  5 0.47403380D+02 0.00000000D+00  -5  6  0 0.00000000D+00 0.00000000D+00 0.00000000D+00 0.00000000D+00 0.00000000D+00
  <mgrwgt>
 0.9166095915D-01    1    2    0
 0.127098197167861D+04 0.000000000000000D+00 0.000000000000000D+00 0.127098197167861D+04
 0.127098197167861D+04 -.000000000000000D+00 -.000000000000000D+00 -.127098197167861D+04
 0.509028173791078D+03 -.208311325695890D+02 -.455156093132982D+03 -.189429872282246D+03
 0.104391250828275D+04 0.155137169276616D+02 -.446723212224414D+02 0.104284084751838D+04
 0.989023261283404D+03 0.531741564192735D+01 0.499828414355423D+03 -.853410975236138D+03
 0.000000000000000D+00 0.000000000000000D+00 0.000000000000000D+00 -.000000000000000D+00
 0.127098197167861D+04 0.000000000000000D+00 0.000000000000000D+00 0.127098197167861D+04
 0.127098197167861D+04 -.000000000000000D+00 -.000000000000000D+00 -.127098197167861D+04
 0.508833538071279D+03 -.208230547714066D+02 -.454396793253330D+03 -.190726306882960D+03
 0.104119414839264D+04 0.155302644316742D+02 -.431168827822052D+02 0.104018507966270D+04
 0.804567421207402D+03 0.222127643329077D+02 0.443731536155725D+03 -.670773920326291D+03
 0.187368835685907D+03 -.169199739931754D+02 0.537821398798103D+02 -.178684852453450D+03
0.215363573208D+00 0.000000000000D+00 0.000000000000D+00 0.396448961604D-04 0.223192138709D-06  6 1 1 25 1 1 21 2 0.44700605D+00 0.85533977D-01 0.25919950D+06 0.25919950D+06 0.25919950D+06 0.10892804D+01  1  2  1  3  6  5        1 0.916609591512D-01 0.100000000000D+01
  </mgrwgt>
  </event>
  <event>
  5     66 -.18982733E-05 0.36849919E+02 0.75467711E-02 0.92973043E-01
        1 -1    0    0  501    0 0.00000000E+00 0.00000000E+00 0.78197552E+03 0.78197559E+03 0.32000000E+00 0.0000E+00 0.9000E+01
        1 -1    0    0  502    0 -.00000000E+00 -.00000000E+00 -.12079226E+04 0.12079227E+04 0.32000000E+00 0.0000E+00 0.9000E+01
       25  1    1    2    0    0 0.25841595E+03 -.47066076E+03 -.46099415E+03 0.71863827E+03 0.12500000E+03 0.0000E+00 0.9000E+01
        1  1    1    2  501    0 0.27869833E+02 -.24115857E+02 0.52019881E+03 0.52150284E+03 0.32000000E+00 0.0000E+00 0.9000E+01
        1  1    1    2  502    0 -.28628578E+03 0.49477662E+03 -.48515179E+03 0.74975717E+03 0.32000000E+00 0.0000E+00 0.9000E+01
#aMCatNLO 1  0  0  5  5 0.47403380D+02 0.00000000D+00  -5  6  0 0.00000000D+00 0.00000000D+00 0.00000000D+00 0.00000000D+00 0.00000000D+00
  <mgrwgt>
 -.1478424036D-02    1    2    0
 0.971887877718903D+03 0.000000000000000D+00 0.000000000000000D+00 0.971887877718903D+03
 0.971887877718903D+03 -.000000000000000D+00 -.000000000000000D+00 -.971887877718903D+03
 0.634722418035079D+03 0.258457590665705D+03 -.470732783121677D+03 -.314416711830171D+03
 0.647778345759637D+03 0.278658768148331D+02 -.241124336461194D+02 0.646729362784847D+03
 0.661274991643091D+03 -.286323467480538D+03 0.494845216767796D+03 -.332312650954676D+03
 0.000000000000000D+00 0.000000000000000D+00 0.000000000000000D+00 0.000000000000000D+00
 0.971887877718903D+03 0.000000000000000D+00 0.000000000000000D+00 0.971887877718903D+03
 0.971887877718903D+03 -.000000000000000D+00 -.000000000000000D+00 -.971887877718903D+03
 0.620004128833545D+03 0.244683297667538D+03 -.446927039692824D+03 -.330403427349947D+03
 0.630593119040557D+03 0.138320116984862D+02 0.141921355573665D+00 0.630441382756557D+03
 0.640282297542378D+03 -.253539912239579D+03 0.477828317222695D+03 -.342577046382007D+03
 0.528962100213260D+02 -.497539712644468D+01 -.310431988854452D+02 0.425390909753969D+02
-.413434324993D-03 0.000000000000D+00 0.000000000000D+00 0.266844301008D-05 0.000000000000D+00  6 1 1 25 1 1 21 2 0.12030393D+00 0.18583426D+00 0.33636271D+06 0.33636271D+06 0.33636271D+06 0.10808949D+01  1  2 14  3  6  5        1 -.147842403555D-02 0.100000000000D+01
  </mgrwgt>
  </event>
  <event>
  5     66 0.18982733E-05 0.23486874E+02 0.75467711E-02 0.85877001E-01
        1 -1    0    0  501    0 0.00000000E+00 0.00000000E+00 0.13940945E+04 0.13940945E+04 0.32000000E+00 0.0000E+00 0.9000E+01
        1 -1    0    0  502    0 0.00000000E+00 0.00000000E+00 -.25944712E+04 0.25944712E+04 0.32000000E+00 0.0000E+00 0.9000E+01
       25  1    1    2    0    0 0.52199189E+03 -.15102522E+03 0.46518122E+03 0.72615613E+03 0.12500000E+03 0.0000E+00 0.9000E+01
        1  1    1    2  501    0 -.50041488E+03 0.16029757E+03 0.71190692E+03 0.88482875E+03 0.32000000E+00 0.0000E+00 0.9000E+01
        1  1    1    2  502    0 -.21577018E+02 -.92723478E+01 -.23774649E+04 0.23775809E+04 0.32000000E+00 0.0000E+00 0.9000E+01
#aMCatNLO 1  0  0  2  5 0.43925995D+02 0.00000000D+00  -5  6  0 0.00000000D+00 0.00000000D+00 0.00000000D+00 0.00000000D+00 0.00000000D+00
  <mgrwgt>
 0.5351536819D-02    7    2    0
 0.190182494544458D+04 0.000000000000000D+00 0.000000000000000D+00 0.190182494544458D+04
 0.190182494544458D+04 0.000000000000000D+00 0.000000000000000D+00 -.190182494544458D+04
 0.908344850989552D+03 0.521941769538109D+03 -.151007869931569D+03 0.717104442009244D+03
 0.115239301441295D+04 -.500363003617966D+03 0.160280955495791D+03 0.102564932583390D+04
 0.174291202548665D+04 -.215787659201432D+02 -.927308556422241D+01 -.174275376784314D+04
 0.000000000000000D+00 0.000000000000000D+00 0.000000000000000D+00 -.000000000000000D+00
 0.227822308966862D+04 0.000000000000000D+00 0.000000000000000D+00 0.227822308966862D+04
 0.241110441597933D+04 0.000000000000000D+00 0.000000000000000D+00 -.241110441597933D+04
 0.903886180207735D+03 0.433173474306721D+03 -.315447598149337D+03 0.717104442009244D+03
 0.119730808156957D+04 -.615458130565378D+03 -.529281789715091D+02 0.102564932583390D+04
 0.178421227646472D+04 -.194347472538399D+03 -.329320227246804D+03 -.174275376784314D+04
 0.803920967405926D+03 0.376632128797056D+03 0.697696004367650D+03 -.132881326310713D+03
0.265024119576D-01 0.000000000000D+00 0.000000000000D+00 0.137354368473D-03 0.000000000000D+00  6 1 1 25 1 1 21 0 0.21447608D+00 0.39914942D+00 0.30604966D+06 0.30604966D+06 0.30604966D+06 0.10839110D+01  1  2  2  2  6  2        1 0.325067733065D-02 0.100000000000D+01
0.233669807498D-01 0.000000000000D+00 -.101776240163D-03 0.137354368473D-03 0.000000000000D+00  6 1 1 25 1 1 21 2 0.21447608D+00 0.39914942D+00 0.30604966D+06 0.30604966D+06 0.30604966D+06 0.10839110D+01  1  2  3  2  6  2        1 0.336727258925D-02 0.100000000000D+01
-.187223460985D-01 0.000000000000D+00 0.000000000000D+00 0.137354368473D-03 0.000000000000D+00  6 1 1 25 1 1 21 2 0.21447608D+00 0.39914942D+00 0.30604966D+06 0.30604966D+06 0.30604966D+06 0.10839110D+01  1  2 15  2  6  2        1 -.269796271496D-02 0.100000000000D+01
-.313244418329D-03 0.000000000000D+00 0.000000000000D+00 0.137354368473D-03 0.000000000000D+00  6 1 1 25 1 1 21 2 0.21447608D+00 0.39914942D+00 0.30604966D+06 0.30604966D+06 0.30604966D+06 0.10839110D+01  1  2  4  2  6  2        1 -.451397360604D-04 0.100000000000D+01
-.666180831673D-02 0.000000000000D+00 -.165280232425D-01 0.137354368473D-03 0.000000000000D+00  6 1 1 25 1 1 21 2 0.21447608D+00 0.53505827D+00 0.30604966D+06 0.30604966D+06 0.30604966D+06 0.10839110D+01  1  2  5  2  6  2        1 -.207602674311D-03 0.100000000000D+01
0.116849838368D-01 0.000000000000D+00 0.158429077529D-01 0.137354368473D-03 0.000000000000D+00  6 1 1 25 1 1 21 2 0.21447608D+00 0.39914942D+00 0.30604966D+06 0.30604966D+06 0.30604966D+06 0.10839110D+01  1  2  6  2  6  2        1 0.168385150828D-02 0.100000000000D+01
0.104101269969D-03 0.000000000000D+00 -.628141041591D-03 0.137354368473D-03 0.000000000000D+00  6 1 21 25 1 1 -1 2 0.21447608D+00 0.53505827D+00 0.30604966D+06 0.30604966D+06 0.30604966D+06 0.10839110D+01  1  2  5  5  6  2        1 0.440516455536D-06 0.100000000000D+01
  </mgrwgt>
  </event>
  <event>
  5     66 0.18982733E-05 0.11621973E+03 0.75467711E-02 0.92024342E-01
        1 -1    0    0  501    0 0.00000000E+00 0.00000000E+00 0.35848535E+03 0.35848549E+03 0.32000000E+00 0.0000E+00 0.9000E+01
        1 -1    0    0  502    0 0.00000000E+00 0.00000000E+00 -.26915448E+04 0.26915448E+04 0.32000000E+00 0.0000E+00 0.9000E+01
       25  1    1    2    0    0 0.75411323E+02 0.50987720E+03 -.11783318E+04 0.12921891E+04 0.12500000E+03 0.0000E+00 0.9000E+01
        1  1    1    2  501    0 -.41427557E+02 0.10860340E+03 0.22066397E+03 0.24940656E+03 0.32000000E+00 0.0000E+00 0.9000E+01
        1  1    1    2  502    0 -.33983766E+02 -.61848060E+03 -.13753916E+04 0.15084347E+04 0.32000000E+00 0.0000E+00 0.9000E+01
#aMCatNLO 1  0  0  1  5 0.48879592D+03 0.00000000D+00  -5  6  0 0.00000000D+00 0.00000000D+00 0.00000000D+00 0.00000000D+00 0.00000000D+00
  <mgrwgt>
 0.2202068380D-02    7    2    0
 0.982282865012393D+03 0.000000000000000D+00 0.000000000000000D+00 0.982282865012393D+03
 0.982282865012393D+03 0.000000000000000D+00 0.000000000000000D+00 -.982282865012393D+03
 0.606865301913354D+03 0.754166334523717D+02 0.509965732357293D+03 -.294801251500713D+03
 0.649168793150240D+03 -.414215547827307D+02 0.108587664981628D+03 0.638680746393187D+03
 0.708531634961192D+03 -.339950786696410D+02 -.618553397338921D+03 -.343879494892474D+03
 0.000000000000000D+00 -.000000000000000D+00 0.000000000000000D+00 0.000000000000000D+00
 0.144051722571309D+04 0.000000000000000D+00 0.000000000000000D+00 0.144051722571309D+04
 0.115169360317366D+04 0.000000000000000D+00 0.000000000000000D+00 -.115169360317366D+04
 0.515077921628407D+03 0.127551565706193D+03 0.382757214887652D+03 -.294801251500713D+03
 0.640052849887965D+03 0.184865418211030D+02 -.375872665652186D+02 0.638680746393187D+03
 0.869329640246550D+03 0.393256464461973D+02 -.797454957935106D+03 -.343879494892474D+03
 0.567750417123830D+03 -.185363753973493D+03 0.452285009612673D+03 0.288823622539436D+03
0.183410015941D-02 0.000000000000D+00 0.000000000000D+00 0.313295959522D-06 0.000000000000D+00  6 1 1 25 1 1 21 0 0.55151604D-01 0.41408383D+00 0.40078844D+06 0.40078844D+06 0.40078844D+06 0.10753660D+01  1  2  2  1  6  1        1 0.166438248743D-02 0.100000000000D+01
0.381277574638D-03 0.000000000000D+00 -.704342754181D-05 0.313295959522D-06 0.000000000000D+00  6 1 1 25 1 1 21 2 0.55151604D-01 0.41408383D+00 0.40078844D+06 0.40078844D+06 0.40078844D+06 0.10753660D+01  1  2  3  1  6  1        1 0.400114173517D-03 0.100000000000D+01
-.121120309353D-02 0.000000000000D+00 0.000000000000D+00 0.313295959522D-06 0.000000000000D+00  6 1 1 25 1 1 21 2 0.55151604D-01 0.41408383D+00 0.40078844D+06 0.40078844D+06 0.40078844D+06 0.10753660D+01  1  2 15  1  6  1        1 -.127104124911D-02 0.100000000000D+01
-.655033436942D-04 0.000000000000D+00 0.000000000000D+00 0.313295959522D-06 0.000000000000D+00  6 1 1 25 1 1 21 2 0.55151604D-01 0.41408383D+00 0.40078844D+06 0.40078844D+06 0.40078844D+06 0.10753660D+01  1  2  4  1  6  1        1 -.687394642858D-04 0.100000000000D+01
-.153432125258D-02 0.000000000000D+00 -.134507865735D-02 0.313295959522D-06 0.000000000000D+00  6 1 1 25 1 1 21 2 0.96792040D-01 0.41408383D+00 0.40078844D+06 0.40078844D+06 0.40078844D+06 0.10753660D+01  1  2  5  1  6  1        1 -.731809365928D-03 0.100000000000D+01
0.213249720083D-02 0.000000000000D+00 0.115715022965D-02 0.313295959522D-06 0.000000000000D+00  6 1 1 25 1 1 21 2 0.55151604D-01 0.41408383D+00 0.40078844D+06 0.40078844D+06 0.40078844D+06 0.10753660D+01  1  2  6  1  6  1        1 0.223785087766D-02 0.100000000000D+01
-.266067008339D-04 0.000000000000D+00 -.835024255514D-04 0.313295959522D-06 0.000000000000D+00  6 21 1 25 1 1 -1 2 0.96792040D-01 0.41408383D+00 0.40078844D+06 0.40078844D+06 0.40078844D+06 0.10753660D+01  1  2  5  4  6  1        1 -.286890797237D-04 0.100000000000D+01
  </mgrwgt>
  </event>
  <event>
  6     66 -.18982733E-05 0.46182909E+02 0.75467711E-02 0.94212201E-01
        1 -1    0    0  501    0 0.00000000E+00 0.00000000E+00 0.12686498E+04 0.12686499E+04 0.32000000E+00 0.0000E+00 0.9000E+01
        1 -1    0    0  502    0 -.00000000E+00 -.00000000E+00 -.22033476E+04 0.22033476E+04 0.32000000E+00 0.0000E+00 0.9000E+01
       25  1    1    2    0    0 0.25593711E+03 -.43583373E+03 0.39303133E+03 0.65234460E+03 0.12500000E+03 0.0000E+00 0.9000E+01
        1  1    1    2  501    0 -.15686310E+01 0.68524330E+02 0.71944615E+03 0.72270389E+03 0.32000000E+00 0.0000E+00 0.9000E+01
        1  1    1    2  503    0 -.18387648E+03 0.29041063E+03 -.17016324E+04 0.17360016E+04 0.32000000E+00 0.0000E+00 0.9000E+01
       21  1    1    2  502  503 -.70491996E+02 0.76898773E+02 -.34554288E+03 0.36094735E+03 0.75000000E+00 0.0000E+00 0.9000E+01
#aMCatNLO 2  0  0  5  2 0.30838192D+02 0.00000000D+00  -5  6  0 0.00000000D+00 0.00000000D+00 0.00000000D+00 0.00000000D+00 0.00000000D+00
  <mgrwgt>
 -.7041536685D-02    3    2    0
 0.167190808064088D+04 0.000000000000000D+00 0.000000000000000D+00 0.167190808064088D+04
 0.167190808064088D+04 -.000000000000000D+00 -.000000000000000D+00 -.167190808064088D+04
 0.787759013860743D+03 0.256034863995483D+03 -.435967516456496D+03 0.591031079497872D+03
 0.951955518926394D+03 -.147482706232853D+01 0.683809016865914D+02 0.949495227573096D+03
 0.160410162849463D+04 -.254560036933154D+03 0.367586614769904D+03 -.154052630707097D+04
 0.000000000000000D+00 -.000000000000000D+00 0.000000000000000D+00 0.000000000000000D+00
 0.167190808064088D+04 0.000000000000000D+00 0.000000000000000D+00 0.167190808064088D+04
 0.167190808064088D+04 -.000000000000000D+00 -.000000000000000D+00 -.167190808064088D+04
 0.787320072347724D+03 0.255957370175597D+03 -.435855614795652D+03 0.590562108525023D+03
 0.951400149488090D+03 -.156847207522831D+01 0.685161257920583D+02 0.948928514087208D+03
 0.132687250864997D+04 -.183880245402540D+03 0.290424812318015D+03 -.128157408601759D+04
 0.278223430795982D+03 -.705086526978287D+02 0.769146766855780D+02 -.257916536594645D+03
-.497852065615D-01 0.000000000000D+00 0.000000000000D+00 0.119105101895D-03 0.000000000000D+00  6 1 1 25 1 1 21 2 0.19517690D+00 0.33897656D+00 0.26899781D+06 0.26899781D+06 0.26899781D+06 0.10880742D+01  1  2 13  3  6  5        1 -.165678748079D-01 0.100000000000D+01
-.154125568980D-09 0.000000000000D+00 0.000000000000D+00 0.119105101895D-03 0.000000000000D+00  6 1 1 25 1 1 21 2 0.19517690D+00 0.33897656D+00 0.26899781D+06 0.26899781D+06 0.26899781D+06 0.10880742D+01  1  2 13  3  6  5        1 -.512910020449D-10 0.100000000000D+01
0.286259233168D-01 0.000000000000D+00 0.000000000000D+00 0.119105101895D-03 0.295471205068D-06  6 1 1 25 1 1 21 2 0.19517690D+00 0.33897656D+00 0.26899781D+06 0.26899781D+06 0.26899781D+06 0.10880742D+01  1  2  1  3  6  5        1 0.952633817411D-02 0.100000000000D+01
  </mgrwgt>
  </event>
  <event>
  5     66 0.18982733E-05 0.29742986E+03 0.75467711E-02 0.92187299E-01
        1 -1    0    0  501    0 0.00000000E+00 0.00000000E+00 0.27449239E+04 0.27449239E+04 0.32000000E+00 0.0000E+00 0.9000E+01
        1 -1    0    0  502    0 0.00000000E+00 0.00000000E+00 -.11888908E+04 0.11888908E+04 0.32000000E+00 0.0000E+00 0.9000E+01
       25  1    1    2    0    0 -.26902384E+03 0.55236616E+03 0.61643305E+03 0.87925929E+03 0.12500000E+03 0.0000E+00 0.9000E+01
        1  1    1    2  501    0 0.10247158E+03 -.30597242E+03 0.19627297E+04 0.19890771E+04 0.32000000E+00 0.0000E+00 0.9000E+01
        1  1    1    2  502    0 0.16655227E+03 -.24639374E+03 -.10231297E+04 0.10654783E+04 0.32000000E+00 0.0000E+00 0.9000E+01
#aMCatNLO 1  0  0  5  4 0.51280546D-01 0.00000000D+00  -5  6  0 0.00000000D+00 0.00000000D+00 0.00000000D+00 0.00000000D+00 0.00000000D+00
  <mgrwgt>
 0.1077140911D-03    7    2    0
 0.180649239979582D+04 0.000000000000000D+00 0.000000000000000D+00 0.180649239979582D+04
 0.180649239979582D+04 -.000000000000000D+00 -.000000000000000D+00 -.180649239979582D+04
 0.691900685566544D+03 -.269031647240051D+03 0.552369212102515D+03 0.292594916210116D+03
 0.132032314205732D+04 0.102465545702566D+03 -.305954410384919D+03 0.128029133800164D+04
 0.160076097196777D+04 0.166566101537485D+03 -.246414801717596D+03 -.157288625421175D+04
 0.000000000000000D+00 0.000000000000000D+00 0.000000000000000D+00 -.000000000000000D+00
 0.180649239979582D+04 0.000000000000000D+00 0.000000000000000D+00 0.180649239979582D+04
 0.180649239979582D+04 -.000000000000000D+00 -.000000000000000D+00 -.180649239979582D+04
 0.691900311629070D+03 -.269031580023634D+03 0.552369112663793D+03 0.292594281484457D+03
 0.132032202148827D+04 0.102465673968630D+03 -.305954600139355D+03 0.128029012678322D+04
 0.160037088898113D+04 0.166537720160296D+03 -.246403745785801D+03 -.157249399494077D+04
 0.391577493164838D+00 0.281858947078530D-01 -.107667386372349D-01 -.390413326913790D+00
0.138804754549D-04 0.000000000000D+00 0.000000000000D+00 0.909808994876D-05 0.000000000000D+00  6 1 1 25 1 1 21 0 0.42229598D+00 0.18290628D+00 0.38879909D+06 0.38879909D+06 0.38879909D+06 0.10763180D+01  1  2  2  3  6  5        1 0.180860367148D-05 0.100000000000D+01
0.168571502450D-05 0.000000000000D+00 -.533046805600D-07 0.909808994876D-05 0.000000000000D+00  6 1 1 25 1 1 21 2 0.42229598D+00 0.18290628D+00 0.38879909D+06 0.38879909D+06 0.38879909D+06 0.10763180D+01  1  2  3  3  6  5        1 0.254451134581D-06 0.100000000000D+01
-.892374776420D-05 0.000000000000D+00 0.000000000000D+00 0.909808994876D-05 0.000000000000D+00  6 1 1 25 1 1 21 2 0.42229598D+00 0.18290628D+00 0.38879909D+06 0.38879909D+06 0.38879909D+06 0.10763180D+01  1  2 15  3  6  5        1 -.134699976586D-05 0.100000000000D+01
-.204679627948D+01 0.000000000000D+00 0.000000000000D+00 0.909808994876D-05 0.000000000000D+00  6 1 1 25 1 1 21 2 0.42229598D+00 0.18290628D+00 0.38879909D+06 0.38879909D+06 0.38879909D+06 0.10763180D+01  1  2  4  3  6  5        1 -.308954733155D+00 0.100000000000D+01
-.178757947332D+01 0.000000000000D+00 0.000000000000D+00 0.909808994876D-05 0.000000000000D+00  6 1 1 25 1 1 21 2 0.42229598D+00 0.18290628D+00 0.38879909D+06 0.38879909D+06 0.38879909D+06 0.10763180D+01  1  2  5  3  6  5        1 -.269827116998D+00 0.100000000000D+01
0.178801680377D+01 0.000000000000D+00 -.000000000000D+00 0.909808994876D-05 0.000000000000D+00  6 1 1 25 1 1 21 2 0.42229598D+00 0.18290628D+00 0.38879909D+06 0.38879909D+06 0.38879909D+06 0.10763180D+01  1  2  6  3  6  5        1 0.269893130070D+00 0.100000000000D+01
0.204707047844D+01 0.000000000000D+00 0.000000000000D+00 0.909808994876D-05 0.124601547123D+00  6 1 1 25 1 1 21 2 0.42229598D+00 0.18290628D+00 0.38880235D+06 0.38880235D+06 0.38880235D+06 0.10763177D+01  1  2 11  3  6  5        1 0.308995718119D+00 0.100000000000D+01
  </mgrwgt>
  </event>
  <event>
  5     66 0.18982733E-05 0.33632861E+02 0.75467711E-02 0.92886121E-01
        1 -1    0    0  501    0 0.00000000E+00 0.00000000E+00 0.58226946E+03 0.58226955E+03 0.32000000E+00 0.0000E+00 0.9000E+01
        1 -1    0    0  502    0 0.00000000E+00 0.00000000E+00 -.24965152E+04 0.24965152E+04 0.32000000E+00 0.0000E+00 0.9000E+01
       25  1    1    2    0    0 -.51429528E+03 -.23912717E+03 -.23582494E+03 0.62683318E+03 0.12500000E+03 0.0000E+00 0.9000E+01
        1  1    1    2  501    0 0.49449108E+03 0.21194818E+03 0.19944951E+03 0.57378016E+03 0.32000000E+00 0.0000E+00 0.9000E+01
        1  1    1    2  502    0 0.19804199E+02 0.27178985E+02 -.18778703E+04 0.18781714E+04 0.32000000E+00 0.0000E+00 0.9000E+01
#aMCatNLO 1  0  0  2  4 0.17789388D+02 0.00000000D+00  -5  6  0 0.00000000D+00 0.00000000D+00 0.00000000D+00 0.00000000D+00 0.00000000D+00
  <mgrwgt>
 0.2911096707D-02    9    2    0
 0.120567190130962D+04 0.000000000000000D+00 0.000000000000000D+00 0.120567190130962D+04
 0.120567190130962D+04 0.000000000000000D+00 0.000000000000000D+00 -.120567190130962D+04
 0.613129395889047D+03 -.514258485112945D+03 -.239113540506949D+03 0.196635656326210D+03
 0.890860395210975D+03 0.494451910870179D+03 0.211931396562723D+03 0.710094806869658D+03
 0.907354011519226D+03 0.198065742427658D+02 0.271821439442258D+02 -.906730463195868D+03
 0.000000000000000D+00 -.000000000000000D+00 0.000000000000000D+00 -.000000000000000D+00
 0.120607474705051D+04 0.000000000000000D+00 0.000000000000000D+00 0.120607474705051D+04
 0.141950956026387D+04 0.000000000000000D+00 0.000000000000000D+00 -.141950956026387D+04
 0.612421755444840D+03 -.511671632856190D+03 -.242820850285926D+03 0.196635656326210D+03
 0.891689802666701D+03 0.498214458028768D+03 0.206539156693407D+03 0.710094806869658D+03
 0.907297863112992D+03 0.236368805437362D+02 0.216927960431276D+02 -.906730463195868D+03
 0.214174886089850D+03 -.101797057163143D+02 0.145888975493919D+02 -.213434813213362D+03
0.340141259238D-04 0.000000000000D+00 0.000000000000D+00 0.210690263467D-04 0.000000000000D+00  6 1 1 25 1 1 21 0 0.89579926D-01 0.38407927D+00 0.33196751D+06 0.33196751D+06 0.33196751D+06 0.10813134D+01  1  2  2  2  6  2        1 0.218701666607D-04 0.100000000000D+01
0.225033648911D-04 0.000000000000D+00 -.130623199672D-06 0.210690263467D-04 0.000000000000D+00  6 1 1 25 1 1 21 2 0.89579926D-01 0.38407927D+00 0.33196751D+06 0.33196751D+06 0.33196751D+06 0.10813134D+01  1  2  3  2  6  2        1 0.169177804616D-04 0.100000000000D+01
-.211933908479D-04 0.000000000000D+00 0.000000000000D+00 0.210690263467D-04 0.000000000000D+00  6 1 1 25 1 1 21 2 0.89579926D-01 0.38407927D+00 0.33196751D+06 0.33196751D+06 0.33196751D+06 0.10813134D+01  1  2 15  2  6  2        1 -.159329564861D-04 0.100000000000D+01
0.546439210082D-09 0.000000000000D+00 0.000000000000D+00 0.210690263467D-04 0.000000000000D+00  6 1 1 25 1 1 21 2 0.89579926D-01 0.45229166D+00 0.34175517D+06 0.34175517D+06 0.34175517D+06 0.10803895D+01  1  2 12  2  6  2        1 0.197282693132D-09 0.100000000000D+01
-.581429715872D-03 0.000000000000D+00 0.000000000000D+00 0.210690263467D-04 0.000000000000D+00  6 1 1 25 1 1 21 2 0.89579926D-01 0.38407927D+00 0.33196751D+06 0.33196751D+06 0.33196751D+06 0.10813134D+01  1  2  4  2  6  2        1 -.437112420056D-03 0.100000000000D+01
-.880695949632D-02 0.000000000000D+00 -.355984520961D-04 0.210690263467D-04 0.000000000000D+00  6 1 1 25 1 1 21 2 0.89579926D-01 0.45223753D+00 0.33196751D+06 0.33196751D+06 0.33196751D+06 0.10813134D+01  1  2  5  2  6  2        1 -.319477467416D-02 0.100000000000D+01
0.869694285504D-02 0.000000000000D+00 0.351286862601D-04 0.210690263467D-04 0.000000000000D+00  6 1 1 25 1 1 21 2 0.89579926D-01 0.38407927D+00 0.33196751D+06 0.33196751D+06 0.33196751D+06 0.10813134D+01  1  2  6  2  6  2        1 0.653826530478D-02 0.100000000000D+01
0.133567026661D-10 0.000000000000D+00 0.000000000000D+00 0.210690263467D-04 0.000000000000D+00  6 1 21 25 1 1 -1 2 0.89579926D-01 0.45229166D+00 0.34175517D+06 0.34175517D+06 0.34175517D+06 0.10803895D+01  1  2 12  5  6  2        1 0.112015047096D-11 0.100000000000D+01
-.214856596991D-03 0.000000000000D+00 -.869631077573D-06 0.210690263467D-04 0.000000000000D+00  6 1 21 25 1 1 -1 2 0.89579926D-01 0.45223753D+00 0.33196751D+06 0.33196751D+06 0.33196751D+06 0.10813134D+01  1  2  5  5  6  2        1 -.181366927958D-04 0.100000000000D+01
  </mgrwgt>
  </event>
  <event>
  6     66 -.18982733E-05 0.94562192E+02 0.75467711E-02 0.91208250E-01
        1 -1    0    0  503    0 0.00000000E+00 0.00000000E+00 0.23178673E+04 0.23178673E+04 0.32000000E+00 0.0000E+00 0.9000E+01
        1 -1    0    0  502    0 0.00000000E+00 0.00000000E+00 -.12083194E+04 0.12083194E+04 0.32000000E+00 0.0000E+00 0.9000E+01
       25  1    1    2    0    0 -.24776674E+03 0.46028805E+03 0.76813734E+03 0.93750382E+03 0.12500000E+03 0.0000E+00 0.9000E+01
        1  1    1    2  501    0 0.34670815E+03 -.44752813E+03 0.94919809E+03 0.11051991E+04 0.32000000E+00 0.0000E+00 0.9000E+01
        1  1    1    2  502    0 -.85024990E+02 -.12476548E+03 -.10327805E+04 0.10437583E+04 0.32000000E+00 0.0000E+00 0.9000E+01
       21  1    1    2  503  501 -.13916423E+02 0.11200556E+03 0.42499298E+03 0.43972550E+03 0.75000000E+00 0.0000E+00 0.9000E+01
#aMCatNLO 2  0  0  1  4 0.11286679D+03 0.00000000D+00  -5  6  0 0.00000000D+00 0.00000000D+00 0.00000000D+00 0.00000000D+00 0.00000000D+00
  <mgrwgt>
 -.1372732594D-02    3    2    0
 0.150373605019788D+04 0.000000000000000D+00 0.000000000000000D+00 0.150373605019788D+04
 0.150373605019788D+04 0.000000000000000D+00 0.000000000000000D+00 -.150373605019788D+04
 0.805636659349947D+03 -.251394909203812D+03 0.489881062558401D+03 0.574667356878395D+03
 0.899780195448691D+03 0.342459025492227D+03 -.413642117964913D+03 0.721960119553774D+03
 0.130205524559712D+04 -.910641162884153D+02 -.762389445934886D+02 -.129662747643217D+04
 0.000000000000000D+00 -.000000000000000D+00 0.000000000000000D+00 0.000000000000000D+00
 0.184985330859013D+04 0.000000000000000D+00 0.000000000000000D+00 0.184985330859013D+04
 0.151402414189594D+04 0.000000000000000D+00 0.000000000000000D+00 -.151402414189594D+04
 0.786796158164068D+03 -.247711887366079D+03 0.460238464600332D+03 0.574667356878395D+03
 0.917403293295361D+03 0.346661856781940D+03 -.447468373603737D+03 0.721960119553774D+03
 0.130538978081466D+04 -.850335466673024D+02 -.124775651301376D+03 -.129662747643217D+04
 0.354288218211976D+03 -.139164227485582D+02 0.112005560304781D+03 0.335829166694187D+03
-.787473716086D-02 0.000000000000D+00 0.000000000000D+00 0.510653758905D-05 0.000000000000D+00  6 1 1 25 1 1 21 2 0.37397982D+00 0.18463205D+00 0.46738398D+06 0.46738398D+06 0.46738398D+06 0.10705871D+01  1  2 13  1  6  1        1 -.188757522552D-02 0.100000000000D+01
-.116735276240D-08 0.000000000000D+00 0.000000000000D+00 0.510653758905D-05 0.000000000000D+00  6 1 1 25 1 1 21 2 0.35760605D+00 0.18463205D+00 0.46738398D+06 0.46738398D+06 0.46738398D+06 0.10705871D+01  1  2 13  1  6  1        1 -.331195369558D-09 0.100000000000D+01
0.182039619468D-02 0.000000000000D+00 0.000000000000D+00 0.510653758905D-05 0.496509805493D-09  6 1 1 25 1 1 21 2 0.35659488D+00 0.18589524D+00 0.46738398D+06 0.46738398D+06 0.46738398D+06 0.10705871D+01  1  2  1  1  6  1        1 0.514842963145D-03 0.100000000000D+01
  </mgrwgt>
  </event>
  <event>
  5     66 0.18982733E-05 0.38351905E+02 0.75467711E-02 0.91493154E-01
        1 -1    0    0  501    0 0.00000000E+00 0.00000000E+00 0.30579541E+04 0.30579541E+04 0.32000000E+00 0.0000E+00 0.9000E+01
        1 -1    0    0  502    0 0.00000000E+00 0.00000000E+00 -.75692294E+03 0.75692301E+03 0.32000000E+00 0.0000E+00 0.9000E+01
       25  1    1    2    0    0 -.59917388E+03 0.85454296E+02 0.68177956E+03 0.92019571E+03 0.12500000E+03 0.0000E+00 0.9000E+01
        1  1    1    2  501    0 -.35400226E+02 -.14763104E+02 0.20969258E+04 0.20972766E+04 0.32000000E+00 0.0000E+00 0.9000E+01
        1  1    1    2  502    0 0.63457411E+03 -.70691192E+02 -.47767428E+03 0.79740477E+03 0.32000000E+00 0.0000E+00 0.9000E+01
#aMCatNLO 1  0  0  1  5 0.29997242D+02 0.00000000D+00  -5  6  0 0.00000000D+00 0.00000000D+00 0.00000000D+00 0.00000000D+00 0.00000000D+00
  <mgrwgt>
 0.2026871161D+00    9    2    0
 0.152139270193543D+04 0.000000000000000D+00 0.000000000000000D+00 0.152139270193543D+04
 0.152139270193543D+04 0.000000000000000D+00 0.000000000000000D+00 -.152139270193543D+04
 0.638190262645711D+03 -.599237058689673D+03 0.854602707410577D+02 0.158975787318747D+03
 0.104361080910650D+04 -.353971384558680D+02 -.147618158907545D+02 0.104290586932123D+04
 0.136098433211864D+04 0.634634197145541D+03 -.706984548503032D+02 -.120188165663997D+04
 0.000000000000000D+00 0.000000000000000D+00 0.000000000000000D+00 0.000000000000000D+00
 0.199454441213708D+04 0.000000000000000D+00 0.000000000000000D+00 0.199454441213708D+04
 0.152194215338919D+04 0.000000000000000D+00 0.000000000000000D+00 -.152194215338919D+04
 0.638855043456796D+03 -.600782601293941D+03 0.793582483366070D+02 0.158975787318747D+03
 0.104388827700425D+04 -.379235318097589D+02 -.247363768024531D+02 0.104290586932123D+04
 0.136018994343439D+04 0.631340899126740D+03 -.837008646446091D+02 -.120188165663997D+04
 0.473553301630832D+03 0.736523397695949D+01 0.290789931104552D+02 0.472602258747891D+03
0.570956608468D-02 0.000000000000D+00 0.000000000000D+00 0.450760624257D-04 0.000000000000D+00  6 1 1 25 1 1 21 0 0.47045448D+00 0.11644969D+00 0.41924608D+06 0.41924608D+06 0.41924608D+06 0.10739594D+01  1  2  2  1  6  1        1 0.953396517722D-03 0.100000000000D+01
0.357806810791D-02 0.000000000000D+00 -.219262371284D-04 0.450760624257D-04 0.000000000000D+00  6 1 1 25 1 1 21 2 0.47045448D+00 0.11644969D+00 0.41924608D+06 0.41924608D+06 0.41924608D+06 0.10739594D+01  1  2  3  1  6  1        1 0.689119946241D-03 0.100000000000D+01
-.357802117589D-02 0.000000000000D+00 0.000000000000D+00 0.450760624257D-04 0.000000000000D+00  6 1 1 25 1 1 21 2 0.47045448D+00 0.11644969D+00 0.41924608D+06 0.41924608D+06 0.41924608D+06 0.10739594D+01  1  2 15  1  6  1        1 -.689110907343D-03 0.100000000000D+01
0.146736113142D-07 0.000000000000D+00 0.000000000000D+00 0.450760624257D-04 0.000000000000D+00  6 1 1 25 1 1 21 2 0.61684983D+00 0.11644969D+00 0.44282304D+06 0.44282304D+06 0.44282304D+06 0.10722578D+01  1  2 12  1  6  1        1 0.448877996046D-09 0.100000000000D+01
-.113347964806D+00 0.000000000000D+00 0.000000000000D+00 0.450760624257D-04 0.000000000000D+00  6 1 1 25 1 1 21 2 0.47045448D+00 0.11644969D+00 0.41924608D+06 0.41924608D+06 0.41924608D+06 0.10739594D+01  1  2  4  1  6  1        1 -.218303120729D-01 0.100000000000D+01
-.144323360013D+01 0.000000000000D+00 -.379563963070D-02 0.450760624257D-04 0.000000000000D+00  6 1 1 25 1 1 21 2 0.61680234D+00 0.11644969D+00 0.41924608D+06 0.41924608D+06 0.41924608D+06 0.10739594D+01  1  2  5  1  6  1        1 -.445916865492D-01 0.100000000000D+01
0.139298918873D+01 0.000000000000D+00 0.366054895608D-02 0.450760624257D-04 0.000000000000D+00  6 1 1 25 1 1 21 2 0.47045448D+00 0.11644969D+00 0.41924608D+06 0.41924608D+06 0.41924608D+06 0.10739594D+01  1  2  6  1  6  1        1 0.268283499895D+00 0.100000000000D+01
0.526764903704D-09 0.000000000000D+00 0.000000000000D+00 0.450760624257D-04 0.000000000000D+00  6 21 1 25 1 1 -1 2 0.61684983D+00 0.11644969D+00 0.44282304D+06 0.44282304D+06 0.44282304D+06 0.10722578D+01  1  2 12  4  6  1        1 0.128563460973D-11 0.100000000000D+01
-.517271689223D-01 0.000000000000D+00 -.136230621204D-03 0.450760624257D-04 0.000000000000D+00  6 21 1 25 1 1 -1 2 0.61680234D+00 0.11644969D+00 0.41924608D+06 0.41924608D+06 0.41924608D+06 0.10739594D+01  1  2  5  4  6  1        1 -.127791221815D-03 0.100000000000D+01
  </mgrwgt>
  </event>
  <event>
  5     66 0.18982733E-05 0.29695698E+02 0.75467711E-02 0.89090695E-01
        1 -1    0    0  501    0 0.00000000E+00 0.00000000E+00 0.12696763E+04 0.12696764E+04 0.32000000E+00 0.0000E+00 0.9000E+01
        1 -1    0    0  502    0 0.00000000E+00 0.00000000E+00 -.24219928E+04 0.24219928E+04 0.32000000E+00 0.0000E+00 0.9000E+01
       25  1    1    2    0    0 0.66256987E+03 -.24014640E+03 -.31688247E+03 0.78275707E+03 0.12500000E+03 0.0000E+00 0.9000E+01
        1  1    1    2  501    0 -.63677773E+03 0.25485937E+03 0.92315792E+03 0.11500695E+04 0.32000000E+00 0.0000E+00 0.9000E+01
        1  1    1    2  502    0 -.25792142E+02 -.14712964E+02 -.17585919E+04 0.17588426E+04 0.32000000E+00 0.0000E+00 0.9000E+01
#aMCatNLO 1  0  0  2  2 0.22053282D+01 0.00000000D+00  -5  6  0 0.00000000D+00 0.00000000D+00 0.00000000D+00 0.00000000D+00 0.00000000D+00
  <mgrwgt>
 0.3154100295D-02    4    2    0
 0.175360969460931D+04 0.000000000000000D+00 0.000000000000000D+00 0.175360969460931D+04
 0.175360969460931D+04 0.000000000000000D+00 0.000000000000000D+00 -.175360969460931D+04
 0.719787340687389D+03 0.662557684718565D+03 -.240139738828610D+03 -.762826065989193D+02
 0.151382842837573D+04 -.636763632764255D+03 0.254853723881403D+03 0.134953998309467D+04
 0.127360362015550D+04 -.257940519543099D+02 -.147139850527938D+02 -.127325737649575D+04
 0.000000000000000D+00 -.000000000000000D+00 0.000000000000000D+00 0.000000000000000D+00
 0.199375295167566D+04 0.000000000000000D+00 0.000000000000000D+00 0.199375295167566D+04
 0.182962865617632D+04 0.000000000000000D+00 0.000000000000000D+00 -.182962865617632D+04
 0.772368266558905D+03 0.717221508856942D+03 -.246377779742113D+03 -.762826065989193D+02
 0.146909840099872D+04 -.527486700233412D+03 0.242383429554685D+03 0.134953998309467D+04
 0.127530209072843D+04 0.675828940213161D+02 -.253698295451112D+02 -.127325737649575D+04
 0.306612849565932D+03 -.257317702644846D+03 0.293641797325388D+02 0.164124295499340D+03
0.154065039570D-01 0.000000000000D+00 0.000000000000D+00 0.690796329395D-04 0.000000000000D+00  6 1 1 25 1 1 21 0 0.19533482D+00 0.37261428D+00 0.51215488D+06 0.51215488D+06 0.51215488D+06 0.10677739D+01  1  2  2  2  6  2        1 0.289262690419D-02 0.100000000000D+01
0.125050595337D-01 0.000000000000D+00 -.591650318205D-04 0.690796329395D-04 0.000000000000D+00  6 1 1 25 1 1 21 2 0.19533482D+00 0.37261428D+00 0.51215488D+06 0.51215488D+06 0.51215488D+06 0.10677739D+01  1  2  3  2  6  2        1 0.267690356457D-02 0.100000000000D+01
-.105699756979D-01 0.000000000000D+00 0.000000000000D+00 0.690796329395D-04 0.000000000000D+00  6 1 1 25 1 1 21 2 0.19533482D+00 0.37261428D+00 0.51215488D+06 0.51215488D+06 0.51215488D+06 0.10677739D+01  1  2 15  2  6  2        1 -.226266860601D-02 0.100000000000D+01
-.713620216694D-03 0.000000000000D+00 0.000000000000D+00 0.690796329395D-04 0.000000000000D+00  6 1 1 25 1 1 21 2 0.19533482D+00 0.37261428D+00 0.51215488D+06 0.51215488D+06 0.51215488D+06 0.10677739D+01  1  2  4  2  6  2        1 -.152761567961D-03 0.100000000000D+01
  </mgrwgt>
  </event>
  <event>
  5     66 0.18982733E-05 0.41887068E+02 0.75467711E-02 0.91027316E-01
        1 -1    0    0  501    0 0.00000000E+00 0.00000000E+00 0.24071769E+04 0.24071770E+04 0.32000000E+00 0.0000E+00 0.9000E+01
        1 -1    0    0  502    0 0.00000000E+00 0.00000000E+00 -.11197777E+04 0.11197777E+04 0.32000000E+00 0.0000E+00 0.9000E+01
       25  1    1    2    0    0 0.41229431E+03 0.31760835E+03 0.10134918E+04 0.11461467E+04 0.12500000E+03 0.0000E+00 0.9000E+01
        1  1    1    2  501    0 -.43404539E+03 -.28181599E+03 0.12764623E+04 0.13773786E+04 0.32000000E+00 0.0000E+00 0.9000E+01
        1  1    1    2  502    0 0.21751074E+02 -.35792356E+02 -.10025548E+04 0.10034294E+04 0.32000000E+00 0.0000E+00 0.9000E+01
#aMCatNLO 1  0  0  5  2 0.32010834D+00 0.00000000D+00  -5  6  0 0.00000000D+00 0.00000000D+00 0.00000000D+00 0.00000000D+00 0.00000000D+00
  <mgrwgt>
 0.3335677345D-01    3    2    0
 0.164179874505818D+04 0.000000000000000D+00 0.000000000000000D+00 0.164179874505818D+04
 0.164179874505818D+04 -.000000000000000D+00 -.000000000000000D+00 -.164179874505818D+04
 0.833806693140875D+03 0.412238433617474D+03 0.317576680629189D+03 0.639384960173196D+03
 0.978876292902341D+03 -.433991470148157D+03 -.281780984338132D+03 0.830933016259616D+03
 0.147091450407315D+04 0.217530365306854D+02 -.357956962910601D+02 -.147031797643281D+04
 0.000000000000000D+00 0.000000000000000D+00 0.000000000000000D+00 0.000000000000000D+00
 0.164179874505818D+04 0.000000000000000D+00 0.000000000000000D+00 0.164179874505818D+04
 0.164179874505818D+04 -.000000000000000D+00 -.000000000000000D+00 -.164179874505818D+04
 0.800331626603488D+03 0.412892265907881D+03 0.316500767293609D+03 0.595191526819559D+03
 0.935357907628817D+03 -.433225569173566D+03 -.283041312230141D+03 0.779164704763402D+03
 0.159220829342270D+03 -.158264341985151D+03 -.172153032440714D+02 0.270257038063236D+01
 0.138868712654179D+04 0.178597645250838D+03 -.162441518194012D+02 -.137705880196359D+04
0.152580778774D+00 0.000000000000D+00 0.000000000000D+00 0.533822523436D-04 0.000000000000D+00  6 1 1 25 1 1 21 0 0.37033492D+00 0.17227349D+00 0.29949051D+06 0.29949051D+06 0.29949051D+06 0.10846065D+01  1  2  2  3  6  5        1 0.394209356452D-01 0.100000000000D+01
0.912870824918D-01 0.000000000000D+00 -.585950365935D-03 0.533822523436D-04 0.000000000000D+00  6 1 1 25 1 1 21 2 0.37033492D+00 0.17227349D+00 0.29949051D+06 0.29949051D+06 0.29949051D+06 0.10846065D+01  1  2  3  3  6  5        1 0.277447503624D-01 0.100000000000D+01
-.111239674138D+00 0.000000000000D+00 0.000000000000D+00 0.533822523436D-04 0.000000000000D+00  6 1 1 25 1 1 21 2 0.37033492D+00 0.17227349D+00 0.29949051D+06 0.29949051D+06 0.29949051D+06 0.10846065D+01  1  2 15  3  6  5        1 -.338089125548D-01 0.100000000000D+01
  </mgrwgt>
  </event>
  <event>
  6     66 0.18982733E-05 0.60957722E+02 0.75467711E-02 0.90300068E-01
        1 -1    0    0  501    0 0.00000000E+00 0.00000000E+00 0.41355519E+03 0.41355532E+03 0.32000000E+00 0.0000E+00 0.9000E+01
        1 -1    0    0  502    0 -.00000000E+00 -.00000000E+00 -.25419190E+04 0.25419191E+04 0.32000000E+00 0.0000E+00 0.9000E+01
       25  1    1    2    0    0 0.57015113E+03 -.35607741E+03 -.70692148E+03 0.98347669E+03 0.12500000E+03 0.0000E+00 0.9000E+01
        1  1    1    2  501    0 -.61147781E+03 0.29786702E+03 -.20730935E+03 0.71106058E+03 0.32000000E+00 0.0000E+00 0.9000E+01
        1  1    1    2  503    0 0.37062917E+02 -.24850603E+02 -.11618264E+04 0.11626831E+04 0.32000000E+00 0.0000E+00 0.9000E+01
       21  1    1    2  502  503 0.42637709E+01 0.83060989E+02 -.52306569E+02 0.98253993E+02 0.75000000E+00 0.0000E+00 0.9000E+01
#aMCatNLO 2  0  0  5  4 0.86145855D+02 0.00000000D+00  -5  6  0 0.00000000D+00 0.00000000D+00 0.00000000D+00 0.00000000D+00 0.00000000D+00
  <mgrwgt>
 0.4617567611D-03    2    2    0
 0.102529216640367D+04 0.000000000000000D+00 0.000000000000000D+00 0.102529216640367D+04
 0.102529216640367D+04 -.000000000000000D+00 -.000000000000000D+00 -.102529216640367D+04
 0.684530402375100D+03 0.566651081775527D+03 -.361003052293253D+03 0.392456307554891D+02
 0.835868041689032D+03 -.615680226886563D+03 0.291941499457701D+03 0.484131595986418D+03
 0.530185888743210D+03 0.490291451110363D+02 0.690615528355529D+02 -.523377226741908D+03
 0.000000000000000D+00 0.000000000000000D+00 0.000000000000000D+00 0.000000000000000D+00
 0.102529216640367D+04 0.000000000000000D+00 0.000000000000000D+00 0.102529216640367D+04
 0.102529216640367D+04 -.000000000000000D+00 -.000000000000000D+00 -.102529216640367D+04
 0.683731656412356D+03 0.570152935952044D+03 -.356070404850875D+03 0.186397290260719D+01
 0.809628399900330D+03 -.611468834376323D+03 0.297873589558365D+03 0.439175745180953D+03
 0.469776544928786D+03 0.370441740882879D+02 -.249954548114830D+02 -.467646189517365D+03
 0.874477315658696D+02 0.427172433599098D+01 0.831922701039934D+02 0.266064714338052D+02
-.642987931060D-05 0.000000000000D+00 0.000000000000D+00 0.539911345045D-06 0.000000000000D+00  6 1 1 25 1 1 21 2 0.63623887D-01 0.39106448D+00 0.52525521D+06 0.52525521D+06 0.52525521D+06 0.10670012D+01  1  2  8  3  6  5        1 -.684516426473D-05 0.100000000000D+01
0.443415627116D-03 0.000000000000D+00 0.000000000000D+00 0.539911345045D-06 0.593129083250D-09  6 1 1 25 1 1 21 2 0.63623887D-01 0.39106448D+00 0.55642879D+06 0.55642879D+06 0.55642879D+06 0.10652437D+01  1  2  1  3  6  5        1 0.468601925353D-03 0.100000000000D+01
  </mgrwgt>
  </event>
  <event>
  5     66 0.18982733E-05 0.12655131E+02 0.75467711E-02 0.92803073E-01
        1 -1    0    0  501    0 0.00000000E+00 0.00000000E+00 0.28623499E+04 0.28623499E+04 0.32000000E+00 0.0000E+00 0.9000E+01
        1 -1    0    0  502    0 0.00000000E+00 0.00000000E+00 -.17045940E+04 0.17045940E+04 0.32000000E+00 0.0000E+00 0.9000E+01
       25  1    1    2    0    0 0.19431148E+03 0.51238782E+03 -.11773761E+04 0.13046600E+04 0.12500000E+03 0.0000E+00 0.9000E+01
        1  1    1    2  501    0 -.20694353E+03 -.51322258E+03 0.27712612E+04 0.28259709E+04 0.32000000E+00 0.0000E+00 0.9000E+01
        1  1    1    2  502    0 0.12632051E+02 0.83476306E+00 -.43612914E+03 0.43631296E+03 0.32000000E+00 0.0000E+00 0.9000E+01
#aMCatNLO 1  0  0  5  1 0.24457565D+03 0.00000000D+00  -5  6  0 0.00000000D+00 0.00000000D+00 0.00000000D+00 0.00000000D+00 0.00000000D+00
  <mgrwgt>
 0.7109751048D-02    6    2    0
 0.220887854445568D+04 0.000000000000000D+00 0.000000000000000D+00 0.220887854445568D+04
 0.220887854445568D+04 -.000000000000000D+00 -.000000000000000D+00 -.220887854445568D+04
 0.165751913164395D+04 0.194316608465713D+03 0.512390110129466D+03 -.155930821279233D+04
 0.219514982766892D+04 -.206944216103044D+03 -.513224289181172D+03 0.212425461899718D+04
 0.565088129598483D+03 0.126276076373321D+02 0.834179051706124D+00 -.564946406204854D+03
 0.000000000000000D+00 0.000000000000000D+00 0.000000000000000D+00 -.000000000000000D+00
 0.220887854445568D+04 0.000000000000000D+00 0.000000000000000D+00 0.220887854445568D+04
 0.220887854445568D+04 -.000000000000000D+00 -.000000000000000D+00 -.220887854445568D+04
 0.165872018789911D+04 0.194345050869881D+03 0.512391989033089D+03 -.156058069721535D+04
 0.219351613421078D+04 -.206906575812638D+03 -.513221802665701D+03 0.212257063043779D+04
 0.302810097127481D+03 0.358227899033245D+02 -.975696136618409D+01 -.300525347268405D+03
 0.262710669673985D+03 -.232612649605671D+02 0.105867749987960D+02 -.261464585954031D+03
0.750489719438D-02 0.000000000000D+00 0.000000000000D+00 0.276620821696D-03 0.000000000000D+00  6 1 1 25 1 1 21 0 0.44036153D+00 0.26224523D+00 0.31815553D+06 0.31815553D+06 0.31815553D+06 0.10826690D+01  1  2  2  3  6  5        1 0.364920437289D-03 0.100000000000D+01
0.462306454475D-02 0.000000000000D+00 -.288207813112D-04 0.276620821696D-03 0.000000000000D+00  6 1 1 25 1 1 21 2 0.44036153D+00 0.26224523D+00 0.31815553D+06 0.31815553D+06 0.31815553D+06 0.10826690D+01  1  2  3  3  6  5        1 0.263496444744D-03 0.100000000000D+01
-.558787120163D-02 0.000000000000D+00 0.000000000000D+00 0.276620821696D-03 0.000000000000D+00  6 1 1 25 1 1 21 2 0.44036153D+00 0.26224523D+00 0.31815553D+06 0.31815553D+06 0.31815553D+06 0.10826690D+01  1  2 15  3  6  5        1 -.318486618793D-03 0.100000000000D+01
-.262576977607D-02 0.000000000000D+00 0.000000000000D+00 0.276620821696D-03 0.000000000000D+00  6 1 1 25 1 1 21 2 0.44036153D+00 0.26224523D+00 0.31815553D+06 0.31815553D+06 0.31815553D+06 0.10826690D+01  1  2  4  3  6  5        1 -.149658520666D-03 0.100000000000D+01
-.117330785350D+00 0.000000000000D+00 0.000000000000D+00 0.276620821696D-03 0.000000000000D+00  6 1 1 25 1 1 21 2 0.44036153D+00 0.26224523D+00 0.31815553D+06 0.31815553D+06 0.31815553D+06 0.10826690D+01  1  2  5  3  6  5        1 -.668739198849D-02 0.100000000000D+01
0.239259911989D+00 0.000000000000D+00 -.000000000000D+00 0.276620821696D-03 0.000000000000D+00  6 1 1 25 1 1 21 2 0.44036153D+00 0.26224523D+00 0.31815553D+06 0.31815553D+06 0.31815553D+06 0.10826690D+01  1  2  6  3  6  5        1 0.136368712937D-01 0.100000000000D+01
  </mgrwgt>
  </event>
  <event>
  6     66 -.18982733E-05 0.17443854E+03 0.75467711E-02 0.93747756E-01
        1 -1    0    0  501    0 0.00000000E+00 0.00000000E+00 0.16175926E+04 0.16175927E+04 0.32000000E+00 0.0000E+00 0.9000E+01
        1 -1    0    0  503    0 0.00000000E+00 0.00000000E+00 -.13995965E+04 0.13995966E+04 0.32000000E+00 0.0000E+00 0.9000E+01
       25  1    1    2    0    0 -.41933682E+03 -.28043780E+03 0.48516689E+03 0.71098568E+03 0.12500000E+03 0.0000E+00 0.9000E+01
        1  1    1    2  501    0 0.17870005E+03 0.51595430E+02 0.98219913E+03 0.99965545E+03 0.32000000E+00 0.0000E+00 0.9000E+01
        1  1    1    2  502    0 0.24760252E+03 0.25083990E+03 -.10914204E+04 0.11469203E+04 0.32000000E+00 0.0000E+00 0.9000E+01
       21  1    1    2  503  502 -.69657591E+01 -.21997536E+02 -.15794952E+03 0.15962777E+03 0.75000000E+00 0.0000E+00 0.9000E+01
#aMCatNLO 2  0  0  2  5 0.23074085D+02 0.00000000D+00  -5  6  0 0.00000000D+00 0.00000000D+00 0.00000000D+00 0.00000000D+00 0.00000000D+00
  <mgrwgt>
 -.3662505234D-02    3    2    0
 0.141631475077644D+04 0.000000000000000D+00 0.000000000000000D+00 0.141631475077644D+04
 0.141631475077644D+04 0.000000000000000D+00 0.000000000000000D+00 -.141631475077644D+04
 0.656149028446108D+03 -.420951026207751D+03 -.285540100197509D+03 0.395188097296223D+03
 0.877144187257121D+03 0.176519153951513D+03 0.447740749205630D+02 0.858031582019103D+03
 0.129933628584965D+04 0.244431872256238D+03 0.240766025276946D+03 -.125321967931533D+04
 0.000000000000000D+00 -.000000000000000D+00 -.000000000000000D+00 -.000000000000000D+00
 0.141709608743047D+04 0.000000000000000D+00 0.000000000000000D+00 0.141709608743047D+04
 0.159761548499795D+04 0.000000000000000D+00 0.000000000000000D+00 -.159761548499795D+04
 0.652918193263469D+03 -.419341480082929D+03 -.280457230129089D+03 0.395188097296223D+03
 0.877955073636282D+03 0.178677112815045D+03 0.515888063204143D+02 0.858031582019103D+03
 0.130185021174224D+04 0.247630126385365D+03 0.250865959620822D+03 -.125321967931533D+04
 0.181988093786426D+03 -.696575911748137D+01 -.219975358121467D+02 -.180519397567485D+03
-.117604488053D-01 0.000000000000D+00 0.000000000000D+00 0.110625075275D-04 0.000000000000D+00  6 1 1 25 1 1 21 2 0.24872306D+00 0.21869109D+00 0.29229483D+06 0.29229483D+06 0.29229483D+06 0.10853889D+01  1  2 13  2  6  2        1 -.746119771034D-02 0.100000000000D+01
-.754253622714D-09 0.000000000000D+00 0.000000000000D+00 0.110625075275D-04 0.000000000000D+00  6 1 1 25 1 1 21 2 0.24872306D+00 0.21540637D+00 0.29229483D+06 0.29229483D+06 0.29229483D+06 0.10853889D+01  1  2 13  2  6  2        1 -.494809048975D-09 0.100000000000D+01
0.579344776711D-02 0.000000000000D+00 0.000000000000D+00 0.110625075275D-04 0.588700177117D-07  6 1 1 25 1 1 21 2 0.24886027D+00 0.21532243D+00 0.29229483D+06 0.29229483D+06 0.29229483D+06 0.10853889D+01  1  2  1  2  6  2        1 0.379869297087D-02 0.100000000000D+01
  </mgrwgt>
  </event>
  <event>
  5     66 0.18982733E-05 0.14217873E+03 0.75467711E-02 0.95343080E-01
        1 -1    0    0  501    0 0.00000000E+00 0.00000000E+00 0.22018539E+04 0.22018539E+04 0.32000000E+00 0.0000E+00 0.9000E+01
        1 -1    0    0  502    0 0.00000000E+00 0.00000000E+00 -.49377827E+03 0.49377837E+03 0.32000000E+00 0.0000E+00 0.9000E+01
       25  1    1    2    0    0 0.14835368E+03 0.42774465E+03 -.13208583E+03 0.48789954E+03 0.12500000E+03 0.0000E+00 0.9000E+01
        1  1    1    2  501    0 0.10697960E+02 -.14178015E+03 0.18734370E+04 0.18788247E+04 0.32000000E+00 0.0000E+00 0.9000E+01
        1  1    1    2  502    0 -.15905164E+03 -.28596450E+03 -.33275547E+02 0.32890801E+03 0.32000000E+00 0.0000E+00 0.9000E+01
#aMCatNLO 1  0  0  5  2 0.50252081D+01 0.00000000D+00  -5  6  0 0.00000000D+00 0.00000000D+00 0.00000000D+00 0.00000000D+00 0.00000000D+00
  <mgrwgt>
 0.5904432000D-03    6    2    0
 0.104270213999276D+04 0.000000000000000D+00 0.000000000000000D+00 0.104270213999276D+04
 0.104270213999276D+04 -.000000000000000D+00 -.000000000000000D+00 -.104270213999276D+04
 0.738848884291267D+03 0.148369242883551D+03 0.427776798184296D+03 -.570321183649884D+03
 0.894114341192366D+03 0.106976240289615D+02 -.141775706610739D+03 0.882737596900132D+03
 0.452441054501886D+03 -.159066866912512D+03 -.286001091573557D+03 -.312416413250248D+03
 0.000000000000000D+00 0.000000000000000D+00 0.000000000000000D+00 -.000000000000000D+00
 0.104270213999276D+04 0.000000000000000D+00 0.000000000000000D+00 0.104270213999276D+04
 0.104270213999276D+04 -.000000000000000D+00 -.000000000000000D+00 -.104270213999276D+04
 0.741172436485126D+03 0.140975164754249D+03 0.414482298473533D+03 -.584843575479724D+03
 0.879589306357906D+03 0.183633050291026D+01 -.157708249134496D+03 0.865333510216956D+03
 0.265715130186904D+03 0.455318566656673D+01 -.217323825132347D+03 -.152820659403021D+03
 0.198927406955583D+03 -.147364680923726D+03 -.394502242066904D+02 -.127669275334211D+03
0.385496281145D-02 0.000000000000D+00 0.000000000000D+00 0.145150487990D-05 0.000000000000D+00  6 1 1 25 1 1 21 0 0.33874676D+00 0.75965897D-01 0.22050190D+06 0.22050190D+06 0.22050190D+06 0.10945851D+01  1  2  2  3  6  5        1 0.512447919360D-02 0.100000000000D+01
0.541058908500D-03 0.000000000000D+00 -.148040722310D-04 0.145150487990D-05 0.000000000000D+00  6 1 1 25 1 1 21 2 0.33874676D+00 0.75965897D-01 0.22050190D+06 0.22050190D+06 0.22050190D+06 0.10945851D+01  1  2  3  3  6  5        1 0.861733811836D-03 0.100000000000D+01
-.315517676379D-02 0.000000000000D+00 0.000000000000D+00 0.145150487990D-05 0.000000000000D+00  6 1 1 25 1 1 21 2 0.33874676D+00 0.75965897D-01 0.22050190D+06 0.22050190D+06 0.22050190D+06 0.10945851D+01  1  2 15  3  6  5        1 -.502518756639D-02 0.100000000000D+01
-.223719388806D-02 0.000000000000D+00 0.000000000000D+00 0.145150487990D-05 0.000000000000D+00  6 1 1 25 1 1 21 2 0.33874676D+00 0.75965897D-01 0.22050190D+06 0.22050190D+06 0.22050190D+06 0.10945851D+01  1  2  4  3  6  5        1 -.356313441419D-02 0.100000000000D+01
-.324887407352D-02 0.000000000000D+00 0.000000000000D+00 0.145150487990D-05 0.000000000000D+00  6 1 1 25 1 1 21 2 0.33874676D+00 0.75965897D-01 0.22050190D+06 0.22050190D+06 0.22050190D+06 0.10945851D+01  1  2  5  3  6  5        1 -.517441741660D-02 0.100000000000D+01
0.525338958805D-02 0.000000000000D+00 -.000000000000D+00 0.145150487990D-05 0.000000000000D+00  6 1 1 25 1 1 21 2 0.33874676D+00 0.75965897D-01 0.22050190D+06 0.22050190D+06 0.22050190D+06 0.10945851D+01  1  2  6  3  6  5        1 0.836696959178D-02 0.100000000000D+01
  </mgrwgt>
  </event>
  <event>
  6     66 0.18982733E-05 0.81641087E+02 0.75467711E-02 0.89754060E-01
       21 -1    0    0  501  503 0.00000000E+00 0.00000000E+00 0.17855208E+04 0.17855209E+04 0.75000000E+00 0.0000E+00 0.9000E+01
        1 -1    0    0  502    0 0.00000000E+00 0.00000000E+00 -.24864712E+04 0.24864712E+04 0.32000000E+00 0.0000E+00 0.9000E+01
       25  1    1    2    0    0 0.58334069E+03 -.32233670E+02 -.46844282E+03 0.75920290E+03 0.12500000E+03 0.0000E+00 0.9000E+01
        1  1    1    2  501    0 0.10926554E+03 0.56962161E+02 0.46299943E+03 0.47911608E+03 0.32000000E+00 0.0000E+00 0.9000E+01
        1  1    1    2  502    0 -.76955373E+03 0.67487588E+01 -.17835280E+04 0.19424805E+04 0.32000000E+00 0.0000E+00 0.9000E+01
       -1  1    1    2    0  503 0.76947487E+02 -.31477250E+02 0.10880209E+04 0.10911926E+04 0.32000000E+00 0.0000E+00 0.9000E+01
#aMCatNLO 2  0  0  1  4 0.83136833D+02 0.00000000D+00  -5  6  0 0.00000000D+00 0.00000000D+00 0.00000000D+00 0.00000000D+00 0.00000000D+00
  <mgrwgt>
 0.3557443153D-04    3    2    0
 0.131435871896268D+04 0.000000000000000D+00 0.000000000000000D+00 0.131435871896268D+04
 0.131435871896268D+04 0.000000000000000D+00 0.000000000000000D+00 -.131435871896268D+04
 0.617393342565816D+03 0.601231757446439D+03 -.395152364528874D+02 -.500845222651668D+02
 0.897259377874082D+03 0.135469056439459D+03 0.462327114607357D+02 0.885768063502729D+03
 0.111406471748547D+04 -.736700813885898D+03 -.671747500784828D+01 -.835683541237563D+03
 0.000000000000000D+00 0.000000000000000D+00 -.000000000000000D+00 0.000000000000000D+00
 0.337396285328525D+04 0.000000000000000D+00 0.000000000000000D+00 0.337396285328525D+04
 0.131585511563492D+04 0.000000000000000D+00 0.000000000000000D+00 -.131585511563492D+04
 0.599629681601876D+03 0.583423936573622D+03 -.322305122574087D+02 -.500845222651668D+02
 0.894296172442083D+03 0.109254515144687D+03 0.569564100315640D+02 0.885768063502729D+03
 0.113610591411476D+04 -.769625939167086D+03 0.675135189062702D+01 -.835683541237563D+03
 0.205978620076145D+04 0.769474874487764D+02 -.314772496647822D+02 0.205810773765033D+04
-.225926601315D-02 0.000000000000D+00 0.000000000000D+00 0.748453829427D-06 0.000000000000D+00  6 21 1 25 1 1 -1 2 0.29333555D+00 0.38209903D+00 0.61900407D+06 0.61900407D+06 0.61900407D+06 0.10620183D+01  1  2 13  4  6  1        1 -.827510546211D-04 0.100000000000D+01
-.310810800528D-08 0.000000000000D+00 0.000000000000D+00 0.748453829427D-06 0.000000000000D+00  6 21 1 25 1 1 -1 2 0.27467642D+00 0.38209903D+00 0.61900407D+06 0.61900407D+06 0.61900407D+06 0.10620183D+01  1  2 13  4  6  1        1 -.151950320895D-09 0.100000000000D+01
0.243206991981D-02 0.000000000000D+00 0.000000000000D+00 0.748453829427D-06 0.112856941852D-09  6 21 1 25 1 1 -1 2 0.27469551D+00 0.38253404D+00 0.61900407D+06 0.61900407D+06 0.61900407D+06 0.10620183D+01  1  2  1  4  6  1        1 0.118325638105D-03 0.100000000000D+01
  </mgrwgt>
  </event>
  <event>
  5     66 0.18982733E-05 0.20050126E+02 0.75467711E-02 0.86591572E-01
        1 -1    0    0  501    0 0.00000000E+00 0.00000000E+00 0.35674755E+03 0.35674770E+03 0.32000000E+00 0.0000E+00 0.9000E+01
        1 -1    0    0  502    0 0.00000000E+00 0.00000000E+00 -.19834270E+04 0.19834270E+04 0.32000000E+00 0.0000E+00 0.9000E+01
       25  1    1    2    0    0 -.85359423E+02 0.64929661E+03 -.40854539E+03 0.78192497E+03 0.12500000E+03 0.0000E+00 0.9000E+01
        1  1    1    2  501    0 -.14876271E+02 -.13472791E+02 0.94330106E+02 0.96442163E+02 0.32000000E+00 0.0000E+00 0.9000E+01
        1  1    1    2  502    0 0.10023569E+03 -.63582382E+03 -.13124641E+04 0.14618075E+04 0.32000000E+00 0.0000E+00 0.9000E+01
#aMCatNLO 1  0  0  1  5 0.43446500D+03 0.00000000D+00  -5  6  0 0.00000000D+00 0.00000000D+00 0.00000000D+00 0.00000000D+00 0.00000000D+00
  <mgrwgt>
 0.1109924587D-02    3    2    0
 0.841179476307443D+03 0.000000000000000D+00 0.000000000000000D+00 0.841179476307443D+03
 0.841179476307443D+03 0.000000000000000D+00 0.000000000000000D+00 -.841179476307443D+03
 0.692792752363608D+03 -.853881482368938D+02 0.649406845719566D+03 0.187926609613385D+03
 0.225132480222870D+03 -.148612696150705D+02 -.134592052984105D+02 0.224237878400293D+03
 0.764433720028408D+03 0.100249417851964D+03 -.635947640421155D+03 -.412164488013678D+03
 0.000000000000000D+00 0.000000000000000D+00 -.000000000000000D+00 -.000000000000000D+00
 0.114529543357149D+04 0.000000000000000D+00 0.000000000000000D+00 0.114529543357149D+04
 0.134645327185318D+04 0.000000000000000D+00 0.000000000000000D+00 -.134645327185318D+04
 0.812698210340014D+03 -.365580018375925D+03 0.689846519635592D+03 0.187926609613385D+03
 0.246622275322897D+03 -.102661097364267D+03 -.787187361919626D+00 0.224237878400293D+03
 0.746375000590621D+03 -.180932157686951D+03 -.595365123803718D+03 -.412164488013678D+03
 0.686053219171140D+03 0.649173273427143D+03 -.936942084699540D+02 -.201157838281687D+03
0.503922586079D-03 0.000000000000D+00 0.000000000000D+00 0.100704810759D-05 0.000000000000D+00  6 1 1 25 1 1 21 0 0.54884252D-01 0.30514262D+00 0.44266946D+06 0.44266946D+06 0.44266946D+06 0.10722686D+01  1  2  2  1  6  1        1 0.140078377846D-02 0.100000000000D+01
0.296982165331D-03 0.000000000000D+00 -.193519541641D-05 0.100704810759D-05 0.000000000000D+00  6 1 1 25 1 1 21 2 0.54884252D-01 0.30514262D+00 0.44266946D+06 0.44266946D+06 0.44266946D+06 0.10722686D+01  1  2  3  1  6  1        1 0.949171803518D-03 0.100000000000D+01
-.387987810709D-03 0.000000000000D+00 0.000000000000D+00 0.100704810759D-05 0.000000000000D+00  6 1 1 25 1 1 21 2 0.54884252D-01 0.30514262D+00 0.44266946D+06 0.44266946D+06 0.44266946D+06 0.10722686D+01  1  2 15  1  6  1        1 -.124003099520D-02 0.100000000000D+01
  </mgrwgt>
  </event>
  <event>
  5     66 0.18982733E-05 0.28427516E+02 0.75467711E-02 0.95238018E-01
        1 -1    0    0  501    0 0.00000000E+00 0.00000000E+00 0.18164333E+04 0.18164334E+04 0.32000000E+00 0.0000E+00 0.9000E+01
        1 -1    0    0  502    0 0.00000000E+00 0.00000000E+00 -.37155748E+03 0.37155762E+03 0.32000000E+00 0.0000E+00 0.9000E+01
       25  1    1    2    0    0 -.40113553E+03 -.22036803E+03 0.36658799E+03 0.59956945E+03 0.12500000E+03 0.0000E+00 0.9000E+01
        1  1    1    2  501    0 0.23679096E+02 -.15739946E+02 0.11387591E+04 0.11391141E+04 0.32000000E+00 0.0000E+00 0.9000E+01
        1  1    1    2  502    0 0.37745643E+03 0.23610798E+03 -.60471225E+02 0.44930747E+03 0.32000000E+00 0.0000E+00 0.9000E+01
#aMCatNLO 1  0  0  5  2 0.13330202D+02 0.00000000D+00  -5  6  0 0.00000000D+00 0.00000000D+00 0.00000000D+00 0.00000000D+00 0.00000000D+00
  <mgrwgt>
 0.1924369444D-01    8    2    0
 0.821528802760347D+03 0.000000000000000D+00 0.000000000000000D+00 0.821528802760347D+03
 0.821528802760347D+03 -.000000000000000D+00 -.000000000000000D+00 -.821528802760347D+03
 0.476116846986660D+03 -.401198664026830D+03 -.220410388042224D+03 -.390018565030212D+02
 0.515403107471681D+03 0.236743829046025D+02 -.157368124954283D+02 0.514618537868619D+03
 0.651537651062353D+03 0.377524281122227D+03 0.236147200537652D+03 -.475616681365598D+03
 0.000000000000000D+00 0.000000000000000D+00 0.000000000000000D+00 0.000000000000000D+00
 0.821528802760347D+03 0.000000000000000D+00 0.000000000000000D+00 0.821528802760347D+03
 0.821528802760347D+03 -.000000000000000D+00 -.000000000000000D+00 -.821528802760347D+03
 0.475856879107447D+03 -.400945902032424D+03 -.220252281556454D+03 -.393202938247141D+02
 0.515066386272614D+03 0.239479865947817D+02 -.155656692108148D+02 0.514273843538639D+03
 0.585810983123192D+03 0.328966784357139D+03 0.212046689632539D+03 -.435880217666925D+03
 0.663233570174421D+02 0.480311310805033D+02 0.237712611347292D+02 -.390733320469998D+02
0.123788247974D-03 0.000000000000D+00 0.000000000000D+00 0.913916588518D-05 0.000000000000D+00  6 1 1 25 1 1 21 0 0.27945130D+00 0.57162702D-01 0.22479071D+06 0.22479071D+06 0.22479071D+06 0.10939489D+01  1  2  2  3  6  5        1 0.437042839566D-03 0.100000000000D+01
0.722640960398D-04 0.000000000000D+00 -.475379466416D-06 0.913916588518D-05 0.000000000000D+00  6 1 1 25 1 1 21 2 0.27945130D+00 0.57162702D-01 0.22479071D+06 0.22479071D+06 0.22479071D+06 0.10939489D+01  1  2  3  3  6  5        1 0.305324218024D-03 0.100000000000D+01
-.653479343507D-04 0.000000000000D+00 0.000000000000D+00 0.913916588518D-05 0.000000000000D+00  6 1 1 25 1 1 21 2 0.27945130D+00 0.57162702D-01 0.22479071D+06 0.22479071D+06 0.22479071D+06 0.10939489D+01  1  2 15  3  6  5        1 -.276102629778D-03 0.100000000000D+01
0.109323725932D-01 0.000000000000D+00 0.000000000000D+00 0.913916588518D-05 0.000000000000D+00  6 1 1 25 1 1 21 2 0.27945130D+00 0.57162702D-01 0.22456665D+06 0.22456665D+06 0.22456665D+06 0.10939818D+01  1  2 12  3  6  5        1 0.461958662640D-01 0.100000000000D+01
0.866090906879D-08 0.000000000000D+00 0.000000000000D+00 0.913916588518D-05 0.000000000000D+00  6 1 1 25 1 1 21 2 0.27945130D+00 0.57162702D-01 0.22456665D+06 0.22456665D+06 0.22456665D+06 0.10939818D+01  1  2 12  3  6  5        1 0.365975632146D-07 0.100000000000D+01
-.769238999901D-02 0.000000000000D+00 0.000000000000D+00 0.913916588518D-05 0.000000000000D+00  6 1 1 25 1 1 21 2 0.27945130D+00 0.57162702D-01 0.22479071D+06 0.22479071D+06 0.22479071D+06 0.10939489D+01  1  2  4  3  6  5        1 -.325012432161D-01 0.100000000000D+01
-.112485124759D-01 0.000000000000D+00 0.000000000000D+00 0.913916588518D-05 0.000000000000D+00  6 1 1 25 1 1 21 2 0.27945130D+00 0.57162702D-01 0.22479071D+06 0.22479071D+06 0.22479071D+06 0.10939489D+01  1  2  5  3  6  5        1 -.475262746490D-01 0.100000000000D+01
0.124515019031D-01 0.000000000000D+00 -.000000000000D+00 0.913916588518D-05 0.000000000000D+00  6 1 1 25 1 1 21 2 0.27945130D+00 0.57162702D-01 0.22479071D+06 0.22479071D+06 0.22479071D+06 0.10939489D+01  1  2  6  3  6  5        1 0.526090450188D-01 0.100000000000D+01
  </mgrwgt>
  </event>
  <event>
  6     66 0.18982733E-05 0.12016319E+02 0.75467711E-02 0.93129548E-01
        1 -1    0    0  501    0 0.00000000E+00 0.00000000E+00 0.19808724E+04 0.19808724E+04 0.32000000E+00 0.0000E+00 0.9000E+01
        1 -1    0    0  502    0 0.00000000E+00 0.00000000E+00 -.92424632E+03 0.92424638E+03 0.32000000E+00 0.0000E+00 0.9000E+01
       25  1    1    2    0    0 -.54401157E+03 0.14590820E+03 0.10763790E+04 0.12212513E+04 0.12500000E+03 0.0000E+00 0.9000E+01
        1  1    1    2  501    0 0.83566855E+01 -.11344359E+02 0.74223354E+03 0.74236734E+03 0.32000000E+00 0.0000E+00 0.9000E+01
        1  1    1    2  503    0 0.36219958E+03 -.94511223E+02 -.49487570E+03 0.62050219E+03 0.32000000E+00 0.0000E+00 0.9000E+01
       21  1    1    2  502  503 0.17345531E+03 -.40052622E+02 -.26711083E+03 0.32099800E+03 0.75000000E+00 0.0000E+00 0.9000E+01
#aMCatNLO 2  0  0  5  1 0.11507197D+03 0.00000000D+00  -5  6  0 0.00000000D+00 0.00000000D+00 0.00000000D+00 0.00000000D+00 0.00000000D+00
  <mgrwgt>
 0.1217950989D-01    1    2    0
 0.135307580170096D+04 0.000000000000000D+00 0.000000000000000D+00 0.135307580170096D+04
 0.135307580170096D+04 -.000000000000000D+00 -.000000000000000D+00 -.135307580170096D+04
 0.891024437272076D+03 -.544106166054950D+03 0.145928979608383D+03 0.678935019561857D+03
 0.507009499296550D+03 0.833128280779234D+01 -.113346759355611D+02 0.506814312372047D+03
 0.130811766683329D+04 0.535774883247158D+03 -.134594303672822D+03 -.118574933193390D+04
 0.000000000000000D+00 0.000000000000000D+00 0.000000000000000D+00 -.000000000000000D+00
 0.135307580170096D+04 0.000000000000000D+00 0.000000000000000D+00 0.135307580170096D+04
 0.135307580170096D+04 -.000000000000000D+00 -.000000000000000D+00 -.135307580170096D+04
 0.890932360962768D+03 -.544066785901912D+03 0.145919086751434D+03 0.678847865438703D+03
 0.506960420545187D+03 0.835369092153534D+01 -.113403051738105D+02 0.506764719890705D+03
 0.859191030800766D+03 0.362170617504220D+03 -.945049975431263D+02 -.773376025400626D+03
 0.449067791093197D+03 0.173542477476157D+03 -.400737840344973D+02 -.412236559928783D+03
0.148575371797D-01 0.000000000000D+00 0.000000000000D+00 0.490297461145D-04 0.951555490585D-06  6 1 1 25 1 1 21 2 0.30474960D+00 0.14219175D+00 0.32689196D+06 0.32689196D+06 0.32689196D+06 0.10818042D+01  1  2  1  3  6  5        1 0.121795098878D-01 0.100000000000D+01
  </mgrwgt>
  </event>
  <event>
  5     66 -.18982733E-05 0.30717103E+02 0.75467711E-02 0.93300554E-01
        1 -1    0    0  501    0 0.00000000E+00 0.00000000E+00 0.30415951E+03 0.30415968E+03 0.32000000E+00 0.0000E+00 0.9000E+01
        1 -1    0    0  502    0 0.00000000E+00 0.00000000E+00 -.32435478E+04 0.32435478E+04 0.32000000E+00 0.0000E+00 0.9000E+01
       25  1    1    2    0    0 -.55372294E+03 -.17646656E+02 -.71273423E+03 0.91133725E+03 0.12500000E+03 0.0000E+00 0.9000E+01
        1  1    1    2  501    0 0.26681952E+02 0.15231982E+02 0.17494331E+03 0.17762096E+03 0.32000000E+00 0.0000E+00 0.9000E+01
        1  1    1    2  502    0 0.52704099E+03 0.24146738E+01 -.24015974E+04 0.24587493E+04 0.32000000E+00 0.0000E+00 0.9000E+01
#aMCatNLO 1  0  0  2  5 0.41566495D+01 0.00000000D+00  -5  6  0 0.00000000D+00 0.00000000D+00 0.00000000D+00 0.00000000D+00 0.00000000D+00
  <mgrwgt>
 -.4507238463D-03    1    2    0
 0.993255380308407D+03 0.000000000000000D+00 0.000000000000000D+00 0.993255380308407D+03
 0.993255380308407D+03 0.000000000000000D+00 0.000000000000000D+00 -.993255380308407D+03
 0.573027968244951D+03 -.553797959645513D+03 -.176450113667526D+02 0.757134456835129D+02
 0.575950175081611D+03 0.266763065802604D+02 0.152287590643362D+02 0.575130475406350D+03
 0.837532617290253D+03 0.527121653065253D+03 0.241625230241640D+01 -.650843921089863D+03
 0.000000000000000D+00 0.000000000000000D+00 0.000000000000000D+00 -.000000000000000D+00
 0.115425237127370D+04 0.000000000000000D+00 0.000000000000000D+00 0.115425237127370D+04
 0.158629992787403D+04 0.000000000000000D+00 0.000000000000000D+00 -.158629992787403D+04
 0.730779406671922D+03 -.710875436359361D+03 -.856570448905664D+02 0.757134456835129D+02
 0.587994925198342D+03 -.113551124942804D+03 -.454874745627103D+02 0.575130475406350D+03
 0.737414637548571D+03 0.337378332459126D+03 -.797395688373176D+02 -.650843921089863D+03
 0.684363329728890D+03 0.487048228843038D+03 0.210884088290594D+03 -.432047556600333D+03
-.858806972164D-03 0.000000000000D+00 0.000000000000D+00 0.112287816263D-04 0.000000000000D+00  6 1 1 25 1 1 21 2 0.46793785D-01 0.49900737D+00 0.31688359D+06 0.31688359D+06 0.31688359D+06 0.10827970D+01  1  2 14  2  6  2        1 -.450723846285D-03 0.100000000000D+01
  </mgrwgt>
  </event>
  <event>
  5     66 0.18982733E-05 0.49043670E+02 0.75467711E-02 0.95044001E-01
        1 -1    0    0  501    0 0.00000000E+00 0.00000000E+00 0.82876300E+03 0.82876307E+03 0.32000000E+00 0.0000E+00 0.9000E+01
        1 -1    0    0  502    0 0.00000000E+00 0.00000000E+00 -.79871239E+03 0.79871245E+03 0.32000000E+00 0.0000E+00 0.9000E+01
       25  1    1    2    0    0 0.43208536E+03 -.12780906E+03 -.16474938E+03 0.49578248E+03 0.12500000E+03 0.0000E+00 0.9000E+01
        1  1    1    2  501    0 -.46358938E+02 0.16024767E+02 0.57593992E+03 0.57802495E+03 0.32000000E+00 0.0000E+00 0.9000E+01
        1  1    1    2  502    0 -.38572642E+03 0.11178430E+03 -.38113993E+03 0.55366809E+03 0.32000000E+00 0.0000E+00 0.9000E+01
#aMCatNLO 1  0  0  2  5 0.43322481D+02 0.00000000D+00  -5  6  0 0.00000000D+00 0.00000000D+00 0.00000000D+00 0.00000000D+00 0.00000000D+00
  <mgrwgt>
 0.3110320118D-02   11    2    0
 0.813599030132859D+03 0.000000000000000D+00 0.000000000000000D+00 0.813599030132859D+03
 0.813599030132859D+03 0.000000000000000D+00 0.000000000000000D+00 -.813599030132859D+03
 0.498944830547322D+03 0.432147480238108D+03 -.127826974468953D+03 -.173867086741174D+03
 0.567408961064286D+03 -.463525526836688D+02 0.160225594302687D+02 0.565285456689860D+03
 0.560844268654110D+03 -.385794927554439D+03 0.111804415038685D+03 -.391418369948686D+03
 0.000000000000000D+00 -.000000000000000D+00 -.000000000000000D+00 -.000000000000000D+00
 0.822054665806954D+03 0.000000000000000D+00 0.000000000000000D+00 0.822054665806954D+03
 0.871336854185581D+03 0.000000000000000D+00 0.000000000000000D+00 -.871336854185581D+03
 0.499898395595380D+03 0.436735741994202D+03 -.115349615221491D+03 -.173867086741174D+03
 0.567584474501860D+03 -.411388746634091D+02 0.302006811498895D+02 0.565285456689860D+03
 0.560291796344948D+03 -.380644904411891D+03 0.125809433125758D+03 -.391418369948686D+03
 0.656168535503471D+02 -.149519629189017D+02 -.406604990541563D+02 -.492821883786267D+02
0.838245094236D-04 0.000000000000D+00 0.000000000000D+00 0.592269692182D-05 0.000000000000D+00  6 1 1 25 1 1 21 0 0.12750201D+00 0.12287884D+00 0.21085713D+06 0.21085713D+06 0.21085713D+06 0.10960665D+01  1  2  2  2  6  2        1 0.495364657365D-03 0.100000000000D+01
0.333077071887D-04 0.000000000000D+00 -.321908187687D-06 0.592269692182D-05 0.000000000000D+00  6 1 1 25 1 1 21 2 0.12750201D+00 0.12287884D+00 0.21085713D+06 0.21085713D+06 0.21085713D+06 0.10960665D+01  1  2  3  2  6  2        1 0.236468076414D-03 0.100000000000D+01
-.443331561622D-04 0.000000000000D+00 0.000000000000D+00 0.592269692182D-05 0.000000000000D+00  6 1 1 25 1 1 21 2 0.12750201D+00 0.12287884D+00 0.21085713D+06 0.21085713D+06 0.21085713D+06 0.10960665D+01  1  2 15  2  6  2        1 -.314743254456D-03 0.100000000000D+01
0.588163629698D-03 0.000000000000D+00 0.000000000000D+00 0.592269692182D-05 0.000000000000D+00  6 1 1 25 1 1 21 2 0.12750201D+00 0.13761674D+00 0.23229608D+06 0.23229608D+06 0.23229608D+06 0.10928669D+01  1  2 12  2  6  2        1 0.343716078536D-02 0.100000000000D+01
0.117757697702D-08 0.000000000000D+00 0.000000000000D+00 0.592269692182D-05 0.000000000000D+00  6 1 1 25 1 1 21 2 0.12750201D+00 0.13249459D+00 0.23229608D+06 0.23229608D+06 0.23229608D+06 0.10928669D+01  1  2 12  2  6  2        1 0.732665853086D-08 0.100000000000D+01
-.312471337956D-03 0.000000000000D+00 0.000000000000D+00 0.592269692182D-05 0.000000000000D+00  6 1 1 25 1 1 21 2 0.12750201D+00 0.12287884D+00 0.21085713D+06 0.21085713D+06 0.21085713D+06 0.10960665D+01  1  2  4  2  6  2        1 -.221839035038D-02 0.100000000000D+01
-.187091851856D-02 0.000000000000D+00 -.260571828791D-03 0.592269692182D-05 0.000000000000D+00  6 1 1 25 1 1 21 2 0.12750201D+00 0.13234173D+00 0.21085713D+06 0.21085713D+06 0.21085713D+06 0.10960665D+01  1  2  5  2  6  2        1 -.117857312608D-01 0.100000000000D+01
0.188577344248D-02 0.000000000000D+00 0.259856382791D-03 0.592269692182D-05 0.000000000000D+00  6 1 1 25 1 1 21 2 0.12750201D+00 0.12287884D+00 0.21085713D+06 0.21085713D+06 0.21085713D+06 0.10960665D+01  1  2  6  2  6  2        1 0.133880490773D-01 0.100000000000D+01
0.117043885490D-04 0.000000000000D+00 0.000000000000D+00 0.592269692182D-05 0.000000000000D+00  6 1 21 25 1 1 -1 2 0.12750201D+00 0.13761674D+00 0.23229608D+06 0.23229608D+06 0.23229608D+06 0.10928669D+01  1  2 12  5  6  2        1 0.105170752915D-03 0.100000000000D+01
0.164184015532D-10 0.000000000000D+00 0.000000000000D+00 0.592269692182D-05 0.000000000000D+00  6 1 21 25 1 1 -1 2 0.12750201D+00 0.13249459D+00 0.23229608D+06 0.23229608D+06 0.23229608D+06 0.10928669D+01  1  2 12  5  6  2        1 0.164377266391D-09 0.100000000000D+01
-.228741821779D-04 0.000000000000D+00 -.325394221179D-05 0.592269692182D-05 0.000000000000D+00  6 1 21 25 1 1 -1 2 0.12750201D+00 0.13234173D+00 0.21085713D+06 0.21085713D+06 0.21085713D+06 0.10960665D+01  1  2  5  5  6  2        1 -.233035856642D-03 0.100000000000D+01
  </mgrwgt>
  </event>
  <event>
  6     66 0.18982733E-05 0.69198002E+02 0.75467711E-02 0.92500700E-01
        1 -1    0    0  503    0 0.00000000E+00 0.00000000E+00 0.50878996E+03 0.50879006E+03 0.32000000E+00 0.0000E+00 0.9000E+01
        1 -1    0    0  502    0 0.00000000E+00 0.00000000E+00 -.21069551E+04 0.21069551E+04 0.32000000E+00 0.0000E+00 0.9000E+01
       25  1    1    2    0    0 -.50272499E+03 -.10572034E+03 -.11907380E+03 0.54195274E+03 0.12500000E+03 0.0000E+00 0.9000E+01
        1  1    1    2  501    0 0.52322420E+03 0.17211849E+03 -.23956946E+03 0.60065128E+03 0.32000000E+00 0.0000E+00 0.9000E+01
        1  1    1    2  502    0 -.35318484E+02 0.22520475E+02 -.13385619E+04 0.13392172E+04 0.32000000E+00 0.0000E+00 0.9000E+01
       21  1    1    2  503  501 0.14819271E+02 -.88918625E+02 0.99040045E+02 0.13392395E+03 0.75000000E+00 0.0000E+00 0.9000E+01
#aMCatNLO 2  0  0  1  2 0.26592600D+03 0.00000000D+00  -5  6  0 0.00000000D+00 0.00000000D+00 0.00000000D+00 0.00000000D+00 0.00000000D+00
  <mgrwgt>
 0.5088410348D-02    1    2    0
 0.904268353665062D+03 0.000000000000000D+00 0.000000000000000D+00 0.904268353665062D+03
 0.904268353665062D+03 0.000000000000000D+00 0.000000000000000D+00 -.904268353665062D+03
 0.633044586277448D+03 -.497460932030200D+03 -.136756329330587D+03 0.344892411784972D+03
 0.595171941403155D+03 0.528029779970004D+03 0.142762997698311D+03 0.234590958450281D+03
 0.580320179649522D+03 -.305688479398044D+02 -.600666836772444D+01 -.579483370235252D+03
 0.000000000000000D+00 0.000000000000000D+00 -.000000000000000D+00 0.000000000000000D+00
 0.117421415310127D+04 0.000000000000000D+00 0.000000000000000D+00 0.117421415310127D+04
 0.912948093965476D+03 0.000000000000000D+00 0.000000000000000D+00 -.912948093965476D+03
 0.631182938636049D+03 -.502637301371638D+03 -.105697065182631D+03 0.344892411784972D+03
 0.598603201346932D+03 0.523141877335607D+03 0.172091403195949D+03 0.234590958450281D+03
 0.580995777979510D+03 -.353238467041327D+02 0.225242869994310D+02 -.579483370235252D+03
 0.276380329104251D+03 0.148192707401634D+02 -.889186250127495D+02 0.261266059135790D+03
0.306930364987D-02 0.000000000000D+00 0.000000000000D+00 0.185332912943D-05 0.959377202221D-09  6 1 1 25 1 1 21 2 0.78275344D-01 0.32414677D+00 0.36686124D+06 0.36686124D+06 0.36686124D+06 0.10781457D+01  1  2  1  1  6  1        1 0.508841034820D-02 0.100000000000D+01
  </mgrwgt>
  </event>
  <event>
  5     66 0.18982733E-05 0.47415140E+02 0.75467711E-02 0.89475151E-01
        1 -1    0    0  501    0 0.00000000E+00 0.00000000E+00 0.60733458E+03 0.60733467E+03 0.32000000E+00 0.0000E+00 0.9000E+01
        1 -1    0    0  502    0 0.00000000E+00 0.00000000E+00 -.10322762E+04 0.10322763E+04 0.32000000E+00 0.0000E+00 0.9000E+01
       25  1    1    2    0    0 0.38435386E+03 0.29502995E+03 -.56908669E+02 0.50362105E+03 0.12500000E+03 0.0000E+00 0.9000E+01
        1  1    1    2  501    0 -.38861651E+03 -.34224677E+03 0.20797024E+03 0.55803886E+03 0.32000000E+00 0.0000E+00 0.9000E+01
        1  1    1    2  502    0 0.42626495E+01 0.47216817E+02 -.57600323E+03 0.57795105E+03 0.32000000E+00 0.0000E+00 0.9000E+01
#aMCatNLO 1  0  0  2  5 0.55823554D+02 0.00000000D+00  -5  6  0 0.00000000D+00 0.00000000D+00 0.00000000D+00 0.00000000D+00 0.00000000D+00
  <mgrwgt>
 0.8163410916D-02    6    2    0
 0.791793638820358D+03 0.000000000000000D+00 0.000000000000000D+00 0.791793638820358D+03
 0.791793638820358D+03 0.000000000000000D+00 0.000000000000000D+00 -.791793638820358D+03
 0.506143937263226D+03 0.384327955897848D+03 0.295000987948288D+03 0.763094008182236D+02
 0.633545951318341D+03 -.388590790761566D+03 -.342224115515816D+03 0.365048386555235D+03
 0.443897389059149D+03 0.426283486371739D+01 0.472231275675284D+02 -.441357787373459D+03
 0.000000000000000D+00 0.000000000000000D+00 -.000000000000000D+00 -.000000000000000D+00
 0.884824384254612D+03 0.000000000000000D+00 0.000000000000000D+00 0.884824384254612D+03
 0.145325664632603D+04 0.000000000000000D+00 0.000000000000000D+00 -.145325664632603D+04
 0.504732019541775D+03 0.291613501051798D+03 0.385055649097369D+03 0.763094008182236D+02
 0.665082405279793D+03 -.507697016722427D+03 -.226534810784839D+03 0.365048386555235D+03
 0.466411230925448D+03 -.792278910511465D+02 0.128318670261906D+03 -.441357787373459D+03
 0.701855374833621D+03 0.295311406721775D+03 -.286839508574436D+03 -.568432262071414D+03
0.706260226004D-03 0.000000000000D+00 0.000000000000D+00 0.193321046425D-05 0.000000000000D+00  6 1 1 25 1 1 21 0 0.93436100D-01 0.15881174D+00 0.28386346D+06 0.28386346D+06 0.28386346D+06 0.10863328D+01  1  2  2  2  6  2        1 0.430260628667D-02 0.100000000000D+01
0.278732210679D-03 0.000000000000D+00 -.271222523044D-05 0.193321046425D-05 0.000000000000D+00  6 1 1 25 1 1 21 2 0.93436100D-01 0.15881174D+00 0.28386346D+06 0.28386346D+06 0.28386346D+06 0.10863328D+01  1  2  3  2  6  2        1 0.200391749760D-02 0.100000000000D+01
-.581756255821D-03 0.000000000000D+00 0.000000000000D+00 0.193321046425D-05 0.000000000000D+00  6 1 1 25 1 1 21 2 0.93436100D-01 0.15881174D+00 0.28386346D+06 0.28386346D+06 0.28386346D+06 0.10863328D+01  1  2 15  2  6  2        1 -.418247872226D-02 0.100000000000D+01
-.984878426341D-03 0.000000000000D+00 -.383359034883D-03 0.193321046425D-05 0.000000000000D+00  6 1 1 25 1 1 21 2 0.93436100D-01 0.30344405D+00 0.28386346D+06 0.28386346D+06 0.28386346D+06 0.10863328D+01  1  2  5  2  6  2        1 -.160884629925D-02 0.100000000000D+01
0.106936591545D-02 0.000000000000D+00 0.314993005003D-03 0.193321046425D-05 0.000000000000D+00  6 1 1 25 1 1 21 2 0.93436100D-01 0.15881174D+00 0.28386346D+06 0.28386346D+06 0.28386346D+06 0.10863328D+01  1  2  6  2  6  2        1 0.768809985785D-02 0.100000000000D+01
-.472148562990D-04 0.000000000000D+00 -.269526944525D-04 0.193321046425D-05 0.000000000000D+00  6 1 21 25 1 1 -1 2 0.93436100D-01 0.30344405D+00 0.28386346D+06 0.28386346D+06 0.28386346D+06 0.10863328D+01  1  2  5  5  6  2        1 -.398877042614D-04 0.100000000000D+01
  </mgrwgt>
  </event>
  <event>
  5     66 -.18982733E-05 0.13209959E+03 0.75467711E-02 0.95054407E-01
        1 -1    0    0  501    0 0.00000000E+00 0.00000000E+00 0.10400047E+04 0.10400047E+04 0.32000000E+00 0.0000E+00 0.9000E+01
        1 -1    0    0  502    0 -.00000000E+00 -.00000000E+00 -.15374415E+04 0.15374415E+04 0.32000000E+00 0.0000E+00 0.9000E+01
       25  1    1    2    0    0 -.18399475E+03 0.42447231E+03 -.10897718E+04 0.11904866E+04 0.12500000E+03 0.0000E+00 0.9000E+01
        1  1    1    2  501    0 0.81900435E+02 -.34063404E+03 0.94634014E+03 0.10091080E+04 0.32000000E+00 0.0000E+00 0.9000E+01
        1  1    1    2  502    0 0.10209431E+03 -.83838272E+02 -.35400513E+03 0.37785161E+03 0.32000000E+00 0.0000E+00 0.9000E+01
#aMCatNLO 1  0  0  5  2 0.20201562D+02 0.00000000D+00  -5  6  0 0.00000000D+00 0.00000000D+00 0.00000000D+00 0.00000000D+00 0.00000000D+00
  <mgrwgt>
 -.3529769734D-02    8    2    0
 0.126449453848318D+04 0.000000000000000D+00 0.000000000000000D+00 0.126449453848318D+04
 0.126449453848318D+04 -.000000000000000D+00 -.000000000000000D+00 -.126449453848318D+04
 0.998960888369306D+03 -.183990585864280D+03 0.424467857606513D+03 -.876511470925423D+03
 0.121458592337197D+04 0.819006643751722D+02 -.340634988772197D+03 0.116296132818440D+04
 0.315442265225081D+03 0.102089921489108D+03 -.838328688343156D+02 -.286449857258974D+03
 0.000000000000000D+00 0.000000000000000D+00 0.000000000000000D+00 -.000000000000000D+00
 0.126449453848318D+04 0.000000000000000D+00 0.000000000000000D+00 0.126449453848318D+04
 0.126449453848318D+04 -.000000000000000D+00 -.000000000000000D+00 -.126449453848318D+04
 0.999614368956712D+03 -.183651961313277D+03 0.424189790318829D+03 -.877461603444720D+03
 0.121360337411119D+04 0.823120797109705D+02 -.340972829446177D+03 0.116180695503478D+04
 0.136173805592412D+03 0.626423445537182D+02 -.354372445562669D+02 -.115600362008916D+03
 0.179597528306047D+03 0.386975370485885D+02 -.477797163163853D+02 -.168744989581144D+03
0.106823777487D-03 0.000000000000D+00 0.000000000000D+00 0.162768961091D-05 0.000000000000D+00  6 1 1 25 1 1 21 0 0.16000073D+00 0.23652946D+00 0.23119787D+06 0.23119787D+06 0.23119787D+06 0.10930229D+01  1  2  2  3  6  5        1 0.123152895029D-03 0.100000000000D+01
0.425657110954D-05 0.000000000000D+00 -.410231432898D-06 0.162768961091D-05 0.000000000000D+00  6 1 1 25 1 1 21 2 0.16000073D+00 0.23652946D+00 0.23119787D+06 0.23119787D+06 0.23119787D+06 0.10930229D+01  1  2  3  3  6  5        1 0.586266487503D-05 0.100000000000D+01
-.799727018883D-04 0.000000000000D+00 0.000000000000D+00 0.162768961091D-05 0.000000000000D+00  6 1 1 25 1 1 21 2 0.16000073D+00 0.23652946D+00 0.23119787D+06 0.23119787D+06 0.23119787D+06 0.10930229D+01  1  2 15  3  6  5        1 -.110148083576D-03 0.100000000000D+01
0.878989927409D-03 0.000000000000D+00 0.000000000000D+00 0.162768961091D-05 0.000000000000D+00  6 1 1 25 1 1 21 2 0.16000073D+00 0.23652946D+00 0.23187401D+06 0.23187401D+06 0.23187401D+06 0.10929268D+01  1  2 12  3  6  5        1 0.121019009475D-02 0.100000000000D+01
0.127402962608D-08 0.000000000000D+00 0.000000000000D+00 0.162768961091D-05 0.000000000000D+00  6 1 1 25 1 1 21 2 0.16000073D+00 0.23652946D+00 0.23187401D+06 0.23187401D+06 0.23187401D+06 0.10929268D+01  1  2 12  3  6  5        1 0.175407929696D-08 0.100000000000D+01
-.465746871781D-02 0.000000000000D+00 0.000000000000D+00 0.162768961091D-05 0.000000000000D+00  6 1 1 25 1 1 21 2 0.16000073D+00 0.23652946D+00 0.23119787D+06 0.23119787D+06 0.23119787D+06 0.10930229D+01  1  2  4  3  6  5        1 -.641482957896D-02 0.100000000000D+01
-.887336180667D-03 0.000000000000D+00 0.000000000000D+00 0.162768961091D-05 0.000000000000D+00  6 1 1 25 1 1 21 2 0.16000073D+00 0.23652946D+00 0.23119787D+06 0.23119787D+06 0.23119787D+06 0.10930229D+01  1  2  5  3  6  5        1 -.122214677609D-02 0.100000000000D+01
0.208967063410D-02 0.000000000000D+00 -.000000000000D+00 0.162768961091D-05 0.000000000000D+00  6 1 1 25 1 1 21 2 0.16000073D+00 0.23652946D+00 0.23119787D+06 0.23119787D+06 0.23119787D+06 0.10930229D+01  1  2  6  3  6  5        1 0.287814729547D-02 0.100000000000D+01
  </mgrwgt>
  </event>
  <event>
  5     66 0.18982733E-05 0.10870285E+03 0.75467711E-02 0.93893319E-01
        1 -1    0    0  501    0 0.00000000E+00 0.00000000E+00 0.10198980E+04 0.10198980E+04 0.32000000E+00 0.0000E+00 0.9000E+01
        1 -1    0    0  502    0 0.00000000E+00 0.00000000E+00 -.68025115E+03 0.68025123E+03 0.32000000E+00 0.0000E+00 0.9000E+01
       25  1    1    2    0    0 -.48345595E+03 -.17536002E+03 -.44758686E+02 0.53113947E+03 0.12500000E+03 0.0000E+00 0.9000E+01
        1  1    1    2  501    0 0.37832722E+03 0.20294797E+03 0.70780595E+03 0.82783375E+03 0.32000000E+00 0.0000E+00 0.9000E+01
        1  1    1    2  502    0 0.10512873E+03 -.27587952E+02 -.32340043E+03 0.34117604E+03 0.32000000E+00 0.0000E+00 0.9000E+01
#aMCatNLO 1  0  0  5  2 0.20201562D+02 0.00000000D+00  -5  6  0 0.00000000D+00 0.00000000D+00 0.00000000D+00 0.00000000D+00 0.00000000D+00
  <mgrwgt>
 0.1637501309D-02    1    2    0
 0.832938704152981D+03 0.000000000000000D+00 0.000000000000000D+00 0.832938704152981D+03
 0.832938704152981D+03 -.000000000000000D+00 -.000000000000000D+00 -.832938704152981D+03
 0.551166688677220D+03 -.483454803192632D+03 -.175349509112246D+03 -.153895164418769D+03
 0.700524853352007D+03 0.378311577061527D+03 0.202939583634384D+03 0.553562052727039D+03
 0.414185866276735D+03 0.105143226131105D+03 -.275900745221375D+02 -.399666888308271D+03
 0.000000000000000D+00 0.000000000000000D+00 0.000000000000000D+00 -.000000000000000D+00
 0.832938704152981D+03 0.000000000000000D+00 0.000000000000000D+00 0.832938704152981D+03
 0.832938704152981D+03 -.000000000000000D+00 -.000000000000000D+00 -.832938704152981D+03
 0.554486989097272D+03 -.474880189021610D+03 -.177599527992988D+03 -.186488698879116D+03
 0.674212836028047D+03 0.388973003428346D+03 0.200141975468870D+03 0.513036198064359D+03
 0.134804477358064D+03 0.129827525044752D+03 0.198268953626334D+02 -.303966293660060D+02
 0.302373105822579D+03 -.439203394514879D+02 -.423693428385157D+02 -.296150869819237D+03
0.263889585193D-03 0.000000000000D+00 0.000000000000D+00 0.943819072498D-06 0.000000000000D+00  6 1 1 25 1 1 21 2 0.15690739D+00 0.10465403D+00 0.28475836D+06 0.28475836D+06 0.28475836D+06 0.10862312D+01  1  2 14  3  6  5        1 0.163750130851D-02 0.100000000000D+01
  </mgrwgt>
  </event>
  <event>
  6     66 0.18982733E-05 0.16344452E+03 0.75467711E-02 0.92439095E-01
        1 -1    0    0  501    0 0.00000000E+00 0.00000000E+00 0.15954783E+04 0.15954783E+04 0.32000000E+00 0.0000E+00 0.9000E+01
        1 -1    0    0  502    0 0.00000000E+00 0.00000000E+00 -.15096155E+04 0.15096156E+04 0.32000000E+00 0.0000E+00 0.9000E+01
       25  1    1    2    0    0 0.52891490E+03 0.28181459E+03 0.36663141E+03 0.71359234E+03 0.12500000E+03 0.0000E+00 0.9000E+01
        1  1    1    2  501    0 -.34630079E+03 -.20561676E+03 0.10078883E+04 0.10853762E+04 0.32000000E+00 0.0000E+00 0.9000E+01
        1  1    1    2  503    0 -.94327639E+02 -.64607296E+02 -.52569006E+03 0.53797950E+03 0.32000000E+00 0.0000E+00 0.9000E+01
       21  1    1    2  502  503 -.88286472E+02 -.11590533E+02 -.76296696E+03 0.76814581E+03 0.75000000E+00 0.0000E+00 0.9000E+01
#aMCatNLO 2  0  0  5  2 0.38649586D+02 0.00000000D+00  -5  6  0 0.00000000D+00 0.00000000D+00 0.00000000D+00 0.00000000D+00 0.00000000D+00
  <mgrwgt>
 0.2620830810D-02    3    2    0
 0.155195323621793D+04 0.000000000000000D+00 0.000000000000000D+00 0.155195323621793D+04
 0.155195323621793D+04 -.000000000000000D+00 -.000000000000000D+00 -.155195323621793D+04
 0.704081783320674D+03 0.528976862521750D+03 0.281836446946781D+03 0.347646161625697D+03
 0.105851262453635D+04 -.346170364767294D+03 -.205558200564738D+03 0.978959080370721D+03
 0.134131206457884D+04 -.182806497754456D+03 -.762782463820439D+02 -.132660524199642D+04
 0.000000000000000D+00 0.000000000000000D+00 0.000000000000000D+00 -.000000000000000D+00
 0.155195323621793D+04 0.000000000000000D+00 0.000000000000000D+00 0.155195323621793D+04
 0.155195323621793D+04 -.000000000000000D+00 -.000000000000000D+00 -.155195323621793D+04
 0.703761808167986D+03 0.528905753377267D+03 0.281806775786787D+03 0.347130130932127D+03
 0.105783889444938D+04 -.346277260126161D+03 -.205602803960246D+03 0.978183353330599D+03
 0.552466084597038D+03 -.942907293789163D+02 -.645850493737416D+02 -.540515313733630D+03
 0.789839685221450D+03 -.883377638721896D+02 -.116189224527999D+02 -.784798170529096D+03
-.922846363047D-02 0.000000000000D+00 0.000000000000D+00 0.644140646947D-05 0.000000000000D+00  6 1 1 25 1 1 21 2 0.24545820D+00 0.23224855D+00 0.37106238D+06 0.37106238D+06 0.37106238D+06 0.10777866D+01  1  2 13  3  6  5        1 -.509927354258D-02 0.100000000000D+01
-.678258466341D-09 0.000000000000D+00 0.000000000000D+00 0.644140646947D-05 0.000000000000D+00  6 1 1 25 1 1 21 2 0.24545820D+00 0.23224855D+00 0.37106238D+06 0.37106238D+06 0.37106238D+06 0.10777866D+01  1  2 13  3  6  5        1 -.374778033585D-09 0.100000000000D+01
0.139715402794D-01 0.000000000000D+00 0.000000000000D+00 0.644140646947D-05 0.107093914509D-07  6 1 1 25 1 1 21 2 0.24545820D+00 0.23224855D+00 0.37106238D+06 0.37106238D+06 0.37106238D+06 0.10777866D+01  1  2  1  3  6  5        1 0.772010472693D-02 0.100000000000D+01
  </mgrwgt>
  </event>
  <event>
  5     66 0.18982733E-05 0.22557594E+02 0.75467711E-02 0.93091653E-01
        1 -1    0    0  501    0 0.00000000E+00 0.00000000E+00 0.27683053E+03 0.27683072E+03 0.32000000E+00 0.0000E+00 0.9000E+01
        1 -1    0    0  502    0 0.00000000E+00 0.00000000E+00 -.36748700E+04 0.36748700E+04 0.32000000E+00 0.0000E+00 0.9000E+01
       25  1    1    2    0    0 -.51473983E+03 0.29674623E+02 -.56954243E+03 0.77835805E+03 0.12500000E+03 0.0000E+00 0.9000E+01
        1  1    1    2  501    0 0.53091658E+03 -.45391678E+02 -.23942482E+03 0.58417220E+03 0.32000000E+00 0.0000E+00 0.9000E+01
        1  1    1    2  502    0 -.16176747E+02 0.15717055E+02 -.25890722E+04 0.25891705E+04 0.32000000E+00 0.0000E+00 0.9000E+01
#aMCatNLO 1  0  0  2  2 0.61721720D+02 0.00000000D+00  -5  6  0 0.00000000D+00 0.00000000D+00 0.00000000D+00 0.00000000D+00 0.00000000D+00
  <mgrwgt>
 0.6412973837D-02    7    2    0
 0.100862114313842D+04 0.000000000000000D+00 0.000000000000000D+00 0.100862114313842D+04
 0.100862114313842D+04 0.000000000000000D+00 0.000000000000000D+00 -.100862114313842D+04
 0.565375959587033D+03 -.514688119836446D+03 0.296682889258073D+02 0.195552825626216D+03
 0.740991195149157D+03 0.530866919445807D+03 -.453874328059765D+02 0.514964315336488D+03
 0.710875131540652D+03 -.161787996093606D+02 0.157191438801692D+02 -.710517140962703D+03
 0.000000000000000D+00 -.000000000000000D+00 0.000000000000000D+00 -.000000000000000D+00
 0.103777296322346D+04 0.000000000000000D+00 0.000000000000000D+00 0.103777296322346D+04
 0.104230094026879D+04 0.000000000000000D+00 0.000000000000000D+00 -.104230094026879D+04
 0.549873569290358D+03 -.497636888895646D+03 0.291986541468013D+02 0.195552825626216D+03
 0.757613018770348D+03 0.553779322346457D+03 -.460184993436418D+02 0.514964315336488D+03
 0.710699729468868D+03 0.555588902046541D+01 0.151205146242011D+02 -.710517140962703D+03
 0.618875859626775D+02 -.616983224712767D+02 0.169933057263934D+01 -.452797704533089D+01
0.472626648771D-02 0.000000000000D+00 0.000000000000D+00 0.999219508805D-05 0.000000000000D+00  6 1 1 25 1 1 21 0 0.42589328D-01 0.56536463D+00 0.29476281D+06 0.29476281D+06 0.29476281D+06 0.10851182D+01  1  2  2  2  6  2        1 0.107315235854D-02 0.100000000000D+01
0.371039270496D-02 0.000000000000D+00 -.181501077674D-04 0.999219508805D-05 0.000000000000D+00  6 1 1 25 1 1 21 2 0.42589328D-01 0.56536463D+00 0.29476281D+06 0.29476281D+06 0.29476281D+06 0.10851182D+01  1  2  3  2  6  2        1 0.992012506128D-03 0.100000000000D+01
-.313168206340D-02 0.000000000000D+00 0.000000000000D+00 0.999219508805D-05 0.000000000000D+00  6 1 1 25 1 1 21 2 0.42589328D-01 0.56536463D+00 0.29476281D+06 0.29476281D+06 0.29476281D+06 0.10851182D+01  1  2 15  2  6  2        1 -.837288130704D-03 0.100000000000D+01
-.350193863588D-03 0.000000000000D+00 0.000000000000D+00 0.999219508805D-05 0.000000000000D+00  6 1 1 25 1 1 21 2 0.42589328D-01 0.56536463D+00 0.29476281D+06 0.29476281D+06 0.29476281D+06 0.10851182D+01  1  2  4  2  6  2        1 -.936280118771D-04 0.100000000000D+01
-.736241521282D-01 0.000000000000D+00 -.132069019984D-01 0.999219508805D-05 0.000000000000D+00  6 1 1 25 1 1 21 2 0.42589328D-01 0.58851618D+00 0.29476281D+06 0.29476281D+06 0.29476281D+06 0.10851182D+01  1  2  5  2  6  2        1 -.145544393386D-01 0.100000000000D+01
0.742174009749D-01 0.000000000000D+00 0.133636084293D-01 0.999219508805D-05 0.000000000000D+00  6 1 1 25 1 1 21 2 0.42589328D-01 0.56536463D+00 0.29476281D+06 0.29476281D+06 0.29476281D+06 0.10851182D+01  1  2  6  2  6  2        1 0.198428025802D-01 0.100000000000D+01
-.514562573036D-03 0.000000000000D+00 -.936638672760D-04 0.999219508805D-05 0.000000000000D+00  6 1 21 25 1 1 -1 2 0.42589328D-01 0.58851618D+00 0.29476281D+06 0.29476281D+06 0.29476281D+06 0.10851182D+01  1  2  5  5  6  2        1 -.963812699106D-05 0.100000000000D+01
  </mgrwgt>
  </event>
  <event>
  5     66 0.18982733E-05 0.17784225E+03 0.75467711E-02 0.93591083E-01
        1 -1    0    0  501    0 0.00000000E+00 0.00000000E+00 0.30525999E+04 0.30525999E+04 0.32000000E+00 0.0000E+00 0.9000E+01
        1 -1    0    0  502    0 0.00000000E+00 0.00000000E+00 -.89141622E+03 0.89141628E+03 0.32000000E+00 0.0000E+00 0.9000E+01
       25  1    1    2    0    0 -.21398315E+03 0.47194833E+03 0.76277964E+03 0.93058143E+03 0.12500000E+03 0.0000E+00 0.9000E+01
        1  1    1    2  501    0 0.18968377E+03 -.16467039E+03 0.21689902E+04 0.21834869E+04 0.32000000E+00 0.0000E+00 0.9000E+01
        1  1    1    2  502    0 0.24299380E+02 -.30727794E+03 -.77058623E+03 0.82994785E+03 0.32000000E+00 0.0000E+00 0.9000E+01
#aMCatNLO 1  0  0  5  2 0.55986873D+02 0.00000000D+00  -5  6  0 0.00000000D+00 0.00000000D+00 0.00000000D+00 0.00000000D+00 0.00000000D+00
  <mgrwgt>
 0.2382565165D-02    8    2    0
 0.164958697334399D+04 0.000000000000000D+00 0.000000000000000D+00 0.164958697334399D+04
 0.164958697334399D+04 -.000000000000000D+00 -.000000000000000D+00 -.164958697334399D+04
 0.612853239075192D+03 -.213973506775963D+03 0.471965155553098D+03 0.302371167584959D+03
 0.118934522567994D+04 0.189670988222237D+03 -.164659289795120D+03 0.116252066663721D+04
 0.149697548193286D+04 0.243025185537257D+02 -.307305865757979D+03 -.146489183422217D+04
 0.000000000000000D+00 0.000000000000000D+00 0.000000000000000D+00 -.000000000000000D+00
 0.164958697334399D+04 0.000000000000000D+00 0.000000000000000D+00 0.164958697334399D+04
 0.164958697334399D+04 -.000000000000000D+00 -.000000000000000D+00 -.164958697334399D+04
 0.612141446004960D+03 -.213955620175199D+03 0.471738979104714D+03 0.301293010383134D+03
 0.118736714719663D+04 0.189705691479208D+03 -.165098113220130D+03 0.116042884567448D+04
 0.115450535486380D+04 0.358432167924280D+02 -.288834164834129D+03 -.111721649801805D+04
 0.345159998622602D+03 -.115932880964374D+02 -.178067010504565D+02 -.344505358039563D+03
0.609740206423D-03 0.000000000000D+00 0.000000000000D+00 0.146660229969D-04 0.000000000000D+00  6 1 1 25 1 1 21 0 0.46963075D+00 0.13714096D+00 0.29839202D+06 0.29839202D+06 0.29839202D+06 0.10847246D+01  1  2  2  3  6  5        1 0.814308521062D-04 0.100000000000D+01
0.683606027502D-04 0.000000000000D+00 -.234156294095D-05 0.146660229969D-04 0.000000000000D+00  6 1 1 25 1 1 21 2 0.46963075D+00 0.13714096D+00 0.29839202D+06 0.29839202D+06 0.29839202D+06 0.10847246D+01  1  2  3  3  6  5        1 0.107420952989D-04 0.100000000000D+01
-.398797116631D-03 0.000000000000D+00 0.000000000000D+00 0.146660229969D-04 0.000000000000D+00  6 1 1 25 1 1 21 2 0.46963075D+00 0.13714096D+00 0.29839202D+06 0.29839202D+06 0.29839202D+06 0.10847246D+01  1  2 15  3  6  5        1 -.626664549376D-04 0.100000000000D+01
0.165709968353D-01 0.000000000000D+00 0.000000000000D+00 0.146660229969D-04 0.000000000000D+00  6 1 1 25 1 1 21 2 0.46963075D+00 0.13714096D+00 0.30065732D+06 0.30065732D+06 0.30065732D+06 0.10844815D+01  1  2 12  3  6  5        1 0.260084035365D-02 0.100000000000D+01
0.515926109069D-09 0.000000000000D+00 0.000000000000D+00 0.146660229969D-04 0.000000000000D+00  6 1 1 25 1 1 21 2 0.46963075D+00 0.13714096D+00 0.30065732D+06 0.30065732D+06 0.30065732D+06 0.10844815D+01  1  2 12  3  6  5        1 0.809753002368D-10 0.100000000000D+01
-.815358837153D-02 0.000000000000D+00 0.000000000000D+00 0.146660229969D-04 0.000000000000D+00  6 1 1 25 1 1 21 2 0.46963075D+00 0.13714096D+00 0.29839202D+06 0.29839202D+06 0.29839202D+06 0.10847246D+01  1  2  4  3  6  5        1 -.128124416390D-02 0.100000000000D+01
-.256638222706D-01 0.000000000000D+00 0.000000000000D+00 0.146660229969D-04 0.000000000000D+00  6 1 1 25 1 1 21 2 0.46963075D+00 0.13714096D+00 0.29839202D+06 0.29839202D+06 0.29839202D+06 0.10847246D+01  1  2  5  3  6  5        1 -.403277931253D-02 0.100000000000D+01
0.322405757538D-01 0.000000000000D+00 -.000000000000D+00 0.146660229969D-04 0.000000000000D+00  6 1 1 25 1 1 21 2 0.46963075D+00 0.13714096D+00 0.29839202D+06 0.29839202D+06 0.29839202D+06 0.10847246D+01  1  2  6  3  6  5        1 0.506624171386D-02 0.100000000000D+01
  </mgrwgt>
  </event>
  <event>
  6     66 -.18982733E-05 0.50670083E+01 0.75467711E-02 0.94210213E-01
        1 -1    0    0  501    0 0.00000000E+00 0.00000000E+00 0.13169027E+04 0.13169028E+04 0.32000000E+00 0.0000E+00 0.9000E+01
        1 -1    0    0  503    0 0.00000000E+00 0.00000000E+00 -.57063696E+03 0.57063705E+03 0.32000000E+00 0.0000E+00 0.9000E+01
       25  1    1    2    0    0 0.42062944E+03 0.29452681E+03 0.47785466E+03 0.71249228E+03 0.12500000E+03 0.0000E+00 0.9000E+01
        1  1    1    2  501    0 -.33723542E+01 -.88926517E+01 0.55515474E+03 0.55523629E+03 0.32000000E+00 0.0000E+00 0.9000E+01
        1  1    1    2  502    0 -.40974370E+03 -.28090567E+03 -.20473725E+03 0.53732238E+03 0.32000000E+00 0.0000E+00 0.9000E+01
       21  1    1    2  503  502 -.75133927E+01 -.47284871E+01 -.82006365E+02 0.82488884E+02 0.75000000E+00 0.0000E+00 0.9000E+01
#aMCatNLO 2  0  0  2  5 0.88774805D+01 0.00000000D+00  -5  6  0 0.00000000D+00 0.00000000D+00 0.00000000D+00 0.00000000D+00 0.00000000D+00
  <mgrwgt>
 -.2936389605D-01    2    2    0
 0.801887674009067D+03 0.000000000000000D+00 0.000000000000000D+00 0.801887674009067D+03
 0.801887674009067D+03 0.000000000000000D+00 0.000000000000000D+00 -.801887674009067D+03
 0.552411813451603D+03 0.418112735075736D+03 0.292944929037359D+03 0.169996532198965D+03
 0.338076916415103D+03 -.495433032952203D+01 -.988478107133911D+01 0.337896059649861D+03
 0.713286618151427D+03 -.413158404746214D+03 -.283060147966020D+03 -.507892591848826D+03
 0.000000000000000D+00 -.000000000000000D+00 -.000000000000000D+00 -.000000000000000D+00
 0.802045855830663D+03 0.000000000000000D+00 0.000000000000000D+00 0.802045855830663D+03
 0.936943376527520D+03 0.000000000000000D+00 0.000000000000000D+00 -.936943376527520D+03
 0.555242761182566D+03 0.420707294252728D+03 0.294577791845406D+03 0.169996532198965D+03
 0.338029741860175D+03 -.337062474564632D+01 -.888809000730814D+01 0.337896059649861D+03
 0.710527414830850D+03 -.409823276764799D+03 -.280961214748685D+03 -.507892591848826D+03
 0.135189314484591D+03 -.751339274228250D+01 -.472848708941332D+01 -.134897520696857D+03
-.595012785214D-02 0.000000000000D+00 0.000000000000D+00 0.596388955539D-05 0.000000000000D+00  6 1 1 25 1 1 21 2 0.20256021D+00 0.87851168D-01 0.27240403D+06 0.27240403D+06 0.27240403D+06 0.10876661D+01  1  2 13  2  6  2        1 -.293638451547D-01 0.100000000000D+01
-.103048126030D-07 0.000000000000D+00 0.000000000000D+00 0.596388955539D-05 0.000000000000D+00  6 1 1 25 1 1 21 2 0.20256021D+00 0.87807796D-01 0.27240403D+06 0.27240403D+06 0.27240403D+06 0.10876661D+01  1  2 13  2  6  2        1 -.508903368135D-07 0.100000000000D+01
  </mgrwgt>
  </event>
  <event>
  5     66 0.18982733E-05 0.27837892E+02 0.75467711E-02 0.93401090E-01
        1 -1    0    0  501    0 0.00000000E+00 0.00000000E+00 0.43054137E+03 0.43054149E+03 0.32000000E+00 0.0000E+00 0.9000E+01
        1 -1    0    0  502    0 -.00000000E+00 -.00000000E+00 -.17340459E+04 0.17340459E+04 0.32000000E+00 0.0000E+00 0.9000E+01
       25  1    1    2    0    0 -.49403988E+03 0.17144111E+03 -.81752415E+03 0.97848771E+03 0.12500000E+03 0.0000E+00 0.9000E+01
        1  1    1    2  501    0 0.51599219E+03 -.18856156E+03 0.13401757E+03 0.56547698E+03 0.32000000E+00 0.0000E+00 0.9000E+01
        1  1    1    2  502    0 -.21952308E+02 0.17120450E+02 -.61999793E+03 0.62062271E+03 0.32000000E+00 0.0000E+00 0.9000E+01
#aMCatNLO 1  0  0  5  2 0.54839356D+01 0.00000000D+00  -5  6  0 0.00000000D+00 0.00000000D+00 0.00000000D+00 0.00000000D+00 0.00000000D+00
  <mgrwgt>
 0.1912524315D-01    9    2    0
 0.864047828790384D+03 0.000000000000000D+00 0.000000000000000D+00 0.864047828790384D+03
 0.864047828790384D+03 -.000000000000000D+00 -.000000000000000D+00 -.864047828790384D+03
 0.608990048641095D+03 -.494042895175959D+03 0.171442518793398D+03 -.285959717127805D+03
 0.809400952276389D+03 0.515994228469671D+03 -.188562308336504D+03 0.594410728038049D+03
 0.309704656663285D+03 -.219513332937115D+02 0.171197895431055D+02 -.308451010910244D+03
 0.000000000000000D+00 -.000000000000000D+00 0.000000000000000D+00 0.000000000000000D+00
 0.864047828790384D+03 0.000000000000000D+00 0.000000000000000D+00 0.864047828790384D+03
 0.864047828790384D+03 -.000000000000000D+00 -.000000000000000D+00 -.864047828790384D+03
 0.609062302239322D+03 -.494052364827008D+03 0.171449904150398D+03 -.286092780728078D+03
 0.809260791705727D+03 0.515981644312783D+03 -.188552493984245D+03 0.594233900696332D+03
 0.262892355923929D+03 -.131705352591873D+02 0.141975087983315D+02 -.262178104631454D+03
 0.468802077117899D+02 -.875874422658807D+01 0.290508103551535D+01 -.459630153367995D+02
0.929908986214D-04 0.000000000000D+00 0.000000000000D+00 0.404827953140D-05 0.000000000000D+00  6 1 1 25 1 1 21 0 0.66237145D-01 0.26677630D+00 0.31074093D+06 0.31074093D+06 0.31074093D+06 0.10834234D+01  1  2  2  3  6  5        1 0.299404172728D-03 0.100000000000D+01
0.444667494839D-04 0.000000000000D+00 -.357109535772D-06 0.404827953140D-05 0.000000000000D+00  6 1 1 25 1 1 21 2 0.66237145D-01 0.26677630D+00 0.31074093D+06 0.31074093D+06 0.31074093D+06 0.10834234D+01  1  2  3  3  6  5        1 0.168054137279D-03 0.100000000000D+01
-.604834280525D-04 0.000000000000D+00 0.000000000000D+00 0.404827953140D-05 0.000000000000D+00  6 1 1 25 1 1 21 2 0.66237145D-01 0.26677630D+00 0.31074093D+06 0.31074093D+06 0.31074093D+06 0.10834234D+01  1  2 15  3  6  5        1 -.228586313123D-03 0.100000000000D+01
0.355254225471D-02 0.000000000000D+00 0.000000000000D+00 0.404827953140D-05 0.000000000000D+00  6 1 1 25 1 1 21 2 0.66237145D-01 0.26677630D+00 0.31116009D+06 0.31116009D+06 0.31116009D+06 0.10833802D+01  1  2 12  3  6  5        1 0.134241305730D-01 0.100000000000D+01
0.115219744282D-07 0.000000000000D+00 0.000000000000D+00 0.404827953140D-05 0.000000000000D+00  6 1 1 25 1 1 21 2 0.66237145D-01 0.26677630D+00 0.31116009D+06 0.31116009D+06 0.31116009D+06 0.10833802D+01  1  2 12  3  6  5        1 0.435385360940D-07 0.100000000000D+01
-.228082407374D-02 0.000000000000D+00 0.000000000000D+00 0.404827953140D-05 0.000000000000D+00  6 1 1 25 1 1 21 2 0.66237145D-01 0.26677630D+00 0.31074093D+06 0.31074093D+06 0.31074093D+06 0.10834234D+01  1  2  4  3  6  5        1 -.861996719905D-02 0.100000000000D+01
-.113272824662D-01 0.000000000000D+00 0.000000000000D+00 0.404827953140D-05 0.000000000000D+00  6 1 1 25 1 1 21 2 0.66237145D-01 0.26677630D+00 0.31074093D+06 0.31074093D+06 0.31074093D+06 0.10834234D+01  1  2  5  3  6  5        1 -.428094408671D-01 0.100000000000D+01
0.140525641008D-01 0.000000000000D+00 -.000000000000D+00 0.404827953140D-05 0.000000000000D+00  6 1 1 25 1 1 21 2 0.66237145D-01 0.26677630D+00 0.31074093D+06 0.31074093D+06 0.31074093D+06 0.10834234D+01  1  2  6  3  6  5        1 0.531091560310D-01 0.100000000000D+01
0.100098178350D-02 0.000000000000D+00 0.000000000000D+00 0.404827953140D-05 0.106974977755D-06  6 1 1 25 1 1 21 2 0.66237145D-01 0.26677630D+00 0.31116009D+06 0.31116009D+06 0.31116009D+06 0.10833802D+01  1  2 11  3  6  5        1 0.378244907434D-02 0.100000000000D+01
  </mgrwgt>
  </event>
  <event>
  5     66 0.18982733E-05 0.10536325E+03 0.75467711E-02 0.89033319E-01
        1 -1    0    0  501    0 0.00000000E+00 0.00000000E+00 0.96728133E+03 0.96728138E+03 0.32000000E+00 0.0000E+00 0.9000E+01
        1 -1    0    0  502    0 0.00000000E+00 0.00000000E+00 -.52515656E+03 0.52515665E+03 0.32000000E+00 0.0000E+00 0.9000E+01
       25  1    1    2    0    0 0.53903397E+03 -.44644049E+02 -.44658040E+02 0.55692913E+03 0.12500000E+03 0.0000E+00 0.9000E+01
        1  1    1    2  501    0 -.48513109E+03 0.13516695E+03 0.59833682E+03 0.78206734E+03 0.32000000E+00 0.0000E+00 0.9000E+01
        1  1    1    2  502    0 -.53902880E+02 -.90522901E+02 -.11155400E+03 0.15344157E+03 0.32000000E+00 0.0000E+00 0.9000E+01
#aMCatNLO 1  0  0  1  2 0.48851539D+03 0.00000000D+00  -5  6  0 0.00000000D+00 0.00000000D+00 0.00000000D+00 0.00000000D+00 0.00000000D+00
  <mgrwgt>
 0.2997056966D-03    3    2    0
 0.712723118970746D+03 0.000000000000000D+00 0.000000000000000D+00 0.712723118970746D+03
 0.712723118970746D+03 0.000000000000000D+00 0.000000000000000D+00 -.712723118970746D+03
 0.596946008234778D+03 0.539033532982711D+03 -.446375212967977D+02 -.219476374036228D+03
 0.633230194869147D+03 -.485124745996352D+03 0.135165182570310D+03 0.383881275835026D+03
 0.195270034837567D+03 -.539087869863591D+02 -.905276612735128D+02 -.164404901798798D+03
 0.000000000000000D+00 -.000000000000000D+00 -.000000000000000D+00 -.000000000000000D+00
 0.878057025706298D+03 0.000000000000000D+00 0.000000000000000D+00 0.878057025706298D+03
 0.123208647849453D+04 0.000000000000000D+00 0.000000000000000D+00 -.123208647849453D+04
 0.808576665446001D+03 0.768105519668237D+03 0.390586723679037D+01 -.219476374036228D+03
 0.516342298192144D+03 -.297767501779891D+03 0.174868664572532D+03 0.383881275835026D+03
 0.181913562083702D+03 0.756456916070180D+01 -.775006427581189D+02 -.164404901798798D+03
 0.603310978478978D+03 -.477902587049048D+03 -.101273889051204D+03 -.354029452788229D+03
0.103088523566D-03 0.000000000000D+00 0.000000000000D+00 0.474412009974D-07 0.000000000000D+00  6 1 1 25 1 1 21 0 0.14881252D+00 0.80793328D-01 0.33878263D+06 0.33878263D+06 0.33878263D+06 0.10806670D+01  1  2  2  1  6  1        1 0.861593190647D-03 0.100000000000D+01
0.113292767983D-04 0.000000000000D+00 -.395887074323D-06 0.474412009974D-07 0.000000000000D+00  6 1 1 25 1 1 21 2 0.14881252D+00 0.80793328D-01 0.33878263D+06 0.33878263D+06 0.33878263D+06 0.10806670D+01  1  2  3  1  6  1        1 0.110580332438D-03 0.100000000000D+01
-.688962854076D-04 0.000000000000D+00 0.000000000000D+00 0.474412009974D-07 0.000000000000D+00  6 1 1 25 1 1 21 2 0.14881252D+00 0.80793328D-01 0.33878263D+06 0.33878263D+06 0.33878263D+06 0.10806670D+01  1  2 15  1  6  1        1 -.672467826480D-03 0.100000000000D+01
  </mgrwgt>
  </event>
  <event>
  5     66 0.18982733E-05 0.28346033E+03 0.75467711E-02 0.85817555E-01
        1 -1    0    0  501    0 0.00000000E+00 0.00000000E+00 0.12044850E+04 0.12044850E+04 0.32000000E+00 0.0000E+00 0.9000E+01
        1 -1    0    0  502    0 0.00000000E+00 0.00000000E+00 -.71206952E+03 0.71206959E+03 0.32000000E+00 0.0000E+00 0.9000E+01
       25  1    1    2    0    0 -.33019888E+03 -.48980663E+03 0.11867987E+03 0.61534685E+03 0.12500000E+03 0.0000E+00 0.9000E+01
        1  1    1    2  501    0 0.28186345E+03 0.30510648E+02 0.68696881E+03 0.74317169E+03 0.32000000E+00 0.0000E+00 0.9000E+01
        1  1    1    2  502    0 0.48335425E+02 0.45929598E+03 -.31323322E+03 0.55803608E+03 0.32000000E+00 0.0000E+00 0.9000E+01
#aMCatNLO 1  0  0  2  2 0.92002971D+03 0.00000000D+00  -5  6  0 0.00000000D+00 0.00000000D+00 0.00000000D+00 0.00000000D+00 0.00000000D+00
  <mgrwgt>
 0.2875583298D-03    3    2    0
 0.926108606096856D+03 0.000000000000000D+00 0.000000000000000D+00 0.926108606096856D+03
 0.926108606096856D+03 0.000000000000000D+00 0.000000000000000D+00 -.926108606096856D+03
 0.605207804044585D+03 -.330180040506497D+03 -.489875004352255D+03 -.406830067531301D+02
 0.586251276731248D+03 0.281814093188756D+03 0.305053046880549D+02 0.513167421739832D+03
 0.660758131417878D+03 0.483659473177406D+02 0.459369699664200D+03 -.472484414986702D+03
 0.000000000000000D+00 0.000000000000000D+00 0.000000000000000D+00 0.000000000000000D+00
 0.269313992908038D+04 0.000000000000000D+00 0.000000000000000D+00 0.269313992908038D+04
 0.116161439715573D+04 0.000000000000000D+00 0.000000000000000D+00 -.116161439715573D+04
 0.954261746828089D+03 -.619904088896874D+03 -.713480409674895D+03 -.406830067531301D+02
 0.534516595275878D+03 0.735936729810873D+02 -.130196617419053D+03 0.513167421739832D+03
 0.579352038258562D+03 -.182026328445309D+03 0.281555816103566D+03 -.472484414986702D+03
 0.178662394587358D+04 0.728336744361095D+03 0.562121210990382D+03 0.153152553192464D+04
0.235239351949D-03 0.000000000000D+00 0.000000000000D+00 0.380162790415D-07 0.000000000000D+00  6 1 1 25 1 1 21 0 0.18530539D+00 0.10954916D+00 0.45509059D+06 0.45509059D+06 0.45509059D+06 0.10714111D+01  1  2  2  2  6  2        1 0.824689923849D-03 0.100000000000D+01
0.137968504645D-04 0.000000000000D+00 -.903381051429D-06 0.380162790415D-07 0.000000000000D+00  6 1 1 25 1 1 21 2 0.18530539D+00 0.10954916D+00 0.45509059D+06 0.45509059D+06 0.45509059D+06 0.10714111D+01  1  2  3  2  6  2        1 0.555229999871D-04 0.100000000000D+01
-.147268101751D-03 0.000000000000D+00 0.000000000000D+00 0.380162790415D-07 0.000000000000D+00  6 1 1 25 1 1 21 2 0.18530539D+00 0.10954916D+00 0.45509059D+06 0.45509059D+06 0.45509059D+06 0.10714111D+01  1  2 15  2  6  2        1 -.592654594081D-03 0.100000000000D+01
  </mgrwgt>
  </event>
  <event>
  5     66 0.18982733E-05 0.20278670E+03 0.75467711E-02 0.92499720E-01
        1 -1    0    0  501    0 0.00000000E+00 0.00000000E+00 0.96585734E+03 0.96585739E+03 0.32000000E+00 0.0000E+00 0.9000E+01
        1 -1    0    0  502    0 0.00000000E+00 0.00000000E+00 -.65565797E+03 0.65565805E+03 0.32000000E+00 0.0000E+00 0.9000E+01
       25  1    1    2    0    0 0.15072505E+03 -.46696914E+03 0.37517563E+02 0.50775071E+03 0.12500000E+03 0.0000E+00 0.9000E+01
        1  1    1    2  501    0 -.57502106E+02 0.28692433E+03 0.63465931E+03 0.69887382E+03 0.32000000E+00 0.0000E+00 0.9000E+01
        1  1    1    2  502    0 -.93222944E+02 0.18004481E+03 -.36197751E+03 0.41489092E+03 0.32000000E+00 0.0000E+00 0.9000E+01
#aMCatNLO 1  0  0  2  2 0.24637892D+03 0.00000000D+00  -5  6  0 0.00000000D+00 0.00000000D+00 0.00000000D+00 0.00000000D+00 0.00000000D+00
  <mgrwgt>
 0.9240936955D-03    7    2    0
 0.795783997166829D+03 0.000000000000000D+00 0.000000000000000D+00 0.795783997166829D+03
 0.795783997166829D+03 0.000000000000000D+00 0.000000000000000D+00 -.795783997166829D+03
 0.509986147661112D+03 0.150735118361246D+03 -.466973762260382D+03 -.606242547106926D+02
 0.588264559973420D+03 -.574959287492141D+02 0.286893509266279D+03 0.510334718629711D+03
 0.493317286699126D+03 -.932391896120323D+02 0.180080252994103D+03 -.449710463919018D+03
 0.000000000000000D+00 0.000000000000000D+00 0.000000000000000D+00 -.000000000000000D+00
 0.911962496089523D+03 0.000000000000000D+00 0.000000000000000D+00 0.911962496089523D+03
 0.947489891547228D+03 0.000000000000000D+00 0.000000000000000D+00 -.947489891547228D+03
 0.571017619252816D+03 0.114577073494091D+03 -.541879059816354D+03 -.606242547106926D+02
 0.559144757126362D+03 -.958751452131187D+02 0.207386814704782D+03 0.510334718629711D+03
 0.480362772441496D+03 -.125807408467707D+03 0.112611667974776D+03 -.449710463919018D+03
 0.248927238816078D+03 0.107105480186734D+03 0.221880577136796D+03 -.355273954577056D+02
0.109967382805D-03 0.000000000000D+00 0.000000000000D+00 0.536305988860D-06 0.000000000000D+00  6 1 1 25 1 1 21 0 0.14859345D+00 0.10087047D+00 0.25087818D+06 0.25087818D+06 0.25087818D+06 0.10903446D+01  1  2  2  2  6  2        1 0.676517100735D-03 0.100000000000D+01
0.953584652255D-05 0.000000000000D+00 -.422303705048D-06 0.536305988860D-06 0.000000000000D+00  6 1 1 25 1 1 21 2 0.14859345D+00 0.10087047D+00 0.25087818D+06 0.25087818D+06 0.25087818D+06 0.10903446D+01  1  2  3  2  6  2        1 0.697431670299D-04 0.100000000000D+01
-.657019260229D-04 0.000000000000D+00 0.000000000000D+00 0.536305988860D-06 0.000000000000D+00  6 1 1 25 1 1 21 2 0.14859345D+00 0.10087047D+00 0.25087818D+06 0.25087818D+06 0.25087818D+06 0.10903446D+01  1  2 15  2  6  2        1 -.480530007479D-03 0.100000000000D+01
-.465112802782D-05 0.000000000000D+00 0.000000000000D+00 0.536305988860D-06 0.000000000000D+00  6 1 1 25 1 1 21 2 0.14859345D+00 0.10087047D+00 0.25087818D+06 0.25087818D+06 0.25087818D+06 0.10903446D+01  1  2  4  2  6  2        1 -.340173678503D-04 0.100000000000D+01
-.214885483649D-03 0.000000000000D+00 -.106276044292D-03 0.536305988860D-06 0.000000000000D+00  6 1 1 25 1 1 21 2 0.14859345D+00 0.13349876D+00 0.25087818D+06 0.25087818D+06 0.25087818D+06 0.10903446D+01  1  2  5  2  6  2        1 -.101420306924D-02 0.100000000000D+01
0.239253637435D-03 0.000000000000D+00 0.102234790550D-03 0.536305988860D-06 0.000000000000D+00  6 1 1 25 1 1 21 2 0.14859345D+00 0.10087047D+00 0.25087818D+06 0.25087818D+06 0.25087818D+06 0.10903446D+01  1  2  6  2  6  2        1 0.174985056216D-02 0.100000000000D+01
-.576520141815D-05 0.000000000000D+00 -.391039961537D-05 0.536305988860D-06 0.000000000000D+00  6 1 21 25 1 1 -1 2 0.14859345D+00 0.13349876D+00 0.25087818D+06 0.25087818D+06 0.25087818D+06 0.10903446D+01  1  2  5  5  6  2        1 -.432666898820D-04 0.100000000000D+01
  </mgrwgt>
  </event>
  <event>
  5     66 0.18982733E-05 0.63687991E+02 0.75467711E-02 0.90585643E-01
        1 -1    0    0  501    0 0.00000000E+00 0.00000000E+00 0.29500660E+04 0.29500660E+04 0.32000000E+00 0.0000E+00 0.9000E+01
        1 -1    0    0  502    0 0.00000000E+00 0.00000000E+00 -.35894573E+04 0.35894574E+04 0.32000000E+00 0.0000E+00 0.9000E+01
       25  1    1    2    0    0 -.82348245E+02 -.61037890E+03 0.98206721E+03 0.11659437E+04 0.12500000E+03 0.0000E+00 0.9000E+01
        1  1    1    2  501    0 0.57074040E+02 0.28269619E+02 0.18512426E+04 0.18523379E+04 0.32000000E+00 0.0000E+00 0.9000E+01
        1  1    1    2  502    0 0.25274205E+02 0.58210928E+03 -.34727012E+04 0.35212418E+04 0.32000000E+00 0.0000E+00 0.9000E+01
#aMCatNLO 1  0  0  2  1 0.19669982D+03 0.00000000D+00  -5  6  0 0.00000000D+00 0.00000000D+00 0.00000000D+00 0.00000000D+00 0.00000000D+00
  <mgrwgt>
 0.1971869263D-02    7    2    0
 0.325409526711847D+04 0.000000000000000D+00 0.000000000000000D+00 0.325409526711847D+04
 0.325409526711847D+04 0.000000000000000D+00 0.000000000000000D+00 -.325409526711847D+04
 0.126815061237653D+04 -.823463641084109D+02 -.610405109088090D+03 0.110145615200436D+04
 0.204301425805213D+04 0.570708238167798D+02 0.282680260207649D+02 0.204202132662175D+04
 0.319702566380828D+04 0.252755402916311D+02 0.582137083067325D+03 -.314347747862611D+04
 0.000000000000000D+00 0.000000000000000D+00 -.000000000000000D+00 -.000000000000000D+00
 0.332032683439916D+04 0.000000000000000D+00 0.000000000000000D+00 0.332032683439916D+04
 0.340497656075326D+04 0.000000000000000D+00 0.000000000000000D+00 -.340497656075326D+04
 0.127048132255068D+04 -.120670220865461D+03 -.608876698485124D+03 0.110145615200436D+04
 0.204225768653982D+04 -.460151814981060D+01 0.307276078412742D+02 0.204202132662175D+04
 0.319842331807937D+04 -.712718430870911D+02 0.585987531767728D+03 -.314347747862611D+04
 0.214141067982544D+03 0.196543582102363D+03 -.783844112387739D+01 -.846497263540994D+02
0.304790131833D+00 0.000000000000D+00 0.000000000000D+00 0.944946075818D-03 0.000000000000D+00  6 1 1 25 1 1 21 0 0.45385630D+00 0.55222421D+00 0.40631958D+06 0.40631958D+06 0.40631958D+06 0.10749372D+01  1  2  2  2  6  2        1 0.538930609892D-03 0.100000000000D+01
0.117974257416D+00 0.000000000000D+00 -.117047435932D-02 0.944946075818D-03 0.000000000000D+00  6 1 1 25 1 1 21 2 0.45385630D+00 0.55222421D+00 0.40631958D+06 0.40631958D+06 0.40631958D+06 0.10749372D+01  1  2  3  2  6  2        1 0.241037929631D-03 0.100000000000D+01
-.223952794204D+00 0.000000000000D+00 0.000000000000D+00 0.944946075818D-03 0.000000000000D+00  6 1 1 25 1 1 21 2 0.45385630D+00 0.55222421D+00 0.40631958D+06 0.40631958D+06 0.40631958D+06 0.10749372D+01  1  2 15  2  6  2        1 -.457566922076D-03 0.100000000000D+01
-.798700157572D-02 0.000000000000D+00 0.000000000000D+00 0.944946075818D-03 0.000000000000D+00  6 1 1 25 1 1 21 2 0.45385630D+00 0.55222421D+00 0.40631958D+06 0.40631958D+06 0.40631958D+06 0.10749372D+01  1  2  4  2  6  2        1 -.163185627605D-04 0.100000000000D+01
-.258678228975D+01 0.000000000000D+00 -.707059825832D+00 0.944946075818D-03 0.000000000000D+00  6 1 1 25 1 1 21 2 0.45385630D+00 0.58057997D+00 0.40631958D+06 0.40631958D+06 0.40631958D+06 0.10749372D+01  1  2  5  2  6  2        1 -.366930746075D-02 0.100000000000D+01
0.261271850922D+01 0.000000000000D+00 0.714671354849D+00 0.944946075818D-03 0.000000000000D+00  6 1 1 25 1 1 21 2 0.45385630D+00 0.55222421D+00 0.40631958D+06 0.40631958D+06 0.40631958D+06 0.10749372D+01  1  2  6  2  6  2        1 0.533814981304D-02 0.100000000000D+01
-.219388441387D-01 0.000000000000D+00 -.616721962721D-02 0.944946075818D-03 0.000000000000D+00  6 1 21 25 1 1 -1 2 0.45385630D+00 0.58057997D+00 0.40631958D+06 0.40631958D+06 0.40631958D+06 0.10749372D+01  1  2  5  5  6  2        1 -.305614442693D-05 0.100000000000D+01
  </mgrwgt>
  </event>
  <event>
  5     66 -.18982733E-05 0.45768697E+02 0.75467711E-02 0.94601662E-01
        1 -1    0    0  501    0 0.00000000E+00 0.00000000E+00 0.26125265E+04 0.26125265E+04 0.32000000E+00 0.0000E+00 0.9000E+01
        1 -1    0    0  502    0 0.00000000E+00 0.00000000E+00 -.91006927E+03 0.91006933E+03 0.32000000E+00 0.0000E+00 0.9000E+01
       25  1    1    2    0    0 0.47662765E+03 -.12497182E+03 -.83541865E+02 0.51516610E+03 0.12500000E+03 0.0000E+00 0.9000E+01
        1  1    1    2  501    0 -.40906236E+02 0.20531155E+02 0.23142749E+04 0.23147275E+04 0.32000000E+00 0.0000E+00 0.9000E+01
        1  1    1    2  502    0 -.43572141E+03 0.10444066E+03 -.52827581E+03 0.69270227E+03 0.32000000E+00 0.0000E+00 0.9000E+01
#aMCatNLO 1  0  0  5  2 0.18751536D+02 0.00000000D+00  -5  6  0 0.00000000D+00 0.00000000D+00 0.00000000D+00 0.00000000D+00 0.00000000D+00
  <mgrwgt>
 -.1216861310D+00    8    2    0
 0.154194040894761D+04 0.000000000000000D+00 0.000000000000000D+00 0.154194040894761D+04
 0.154194040894761D+04 -.000000000000000D+00 -.000000000000000D+00 -.154194040894761D+04
 0.634583529980292D+03 0.476659164807838D+03 -.124979439856765D+03 -.379799205818065D+03
 0.136640168939909D+04 -.409055054493779D+02 0.205307879777815D+02 0.136563494505729D+04
 0.108289559851584D+04 -.435753659358460D+03 0.104448651878983D+03 -.985835739239227D+03
 0.000000000000000D+00 0.000000000000000D+00 0.000000000000000D+00 -.000000000000000D+00
 0.154194040894761D+04 0.000000000000000D+00 0.000000000000000D+00 0.154194040894761D+04
 0.154194040894761D+04 -.000000000000000D+00 -.000000000000000D+00 -.154194040894761D+04
 0.634637952900792D+03 0.476561306372572D+03 -.124955983526751D+03 -.380020597746276D+03
 0.136593243738297D+04 -.411161715512959D+02 0.205812839171027D+02 0.136515834051742D+04
 0.904727538844604D+03 -.381046583997995D+03 0.884746030905272D+02 -.815786531499048D+03
 0.178582888766857D+03 -.543985508232811D+02 0.159000965191213D+02 -.169351211272093D+03
0.198324544948D-02 0.000000000000D+00 0.000000000000D+00 0.118585982218D-03 0.000000000000D+00  6 1 1 25 1 1 21 0 0.40192716D+00 0.14001066D+00 0.25112333D+06 0.25112333D+06 0.25112333D+06 0.10903127D+01  1  2  2  3  6  5        1 0.541915478804D-03 0.100000000000D+01
0.106134822051D-02 0.000000000000D+00 -.761618472652D-05 0.118585982218D-03 0.000000000000D+00  6 1 1 25 1 1 21 2 0.40192716D+00 0.14001066D+00 0.25112333D+06 0.25112333D+06 0.25112333D+06 0.10903127D+01  1  2  3  3  6  5        1 0.344758590346D-03 0.100000000000D+01
-.152236708385D-02 0.000000000000D+00 0.000000000000D+00 0.118585982218D-03 0.000000000000D+00  6 1 1 25 1 1 21 2 0.40192716D+00 0.14001066D+00 0.25112333D+06 0.25112333D+06 0.25112333D+06 0.10903127D+01  1  2 15  3  6  5        1 -.494511716016D-03 0.100000000000D+01
0.341469847884D+00 0.000000000000D+00 0.000000000000D+00 0.118585982218D-03 0.000000000000D+00  6 1 1 25 1 1 21 2 0.40192716D+00 0.14001066D+00 0.25106040D+06 0.25106040D+06 0.25106040D+06 0.10903208D+01  1  2 12  3  6  5        1 0.110924073382D+00 0.100000000000D+01
0.123095956112D-08 0.000000000000D+00 0.000000000000D+00 0.118585982218D-03 0.000000000000D+00  6 1 1 25 1 1 21 2 0.40192716D+00 0.14001066D+00 0.25106040D+06 0.25106040D+06 0.25106040D+06 0.10903208D+01  1  2 12  3  6  5        1 0.399868537542D-09 0.100000000000D+01
-.779702885408D+00 0.000000000000D+00 0.000000000000D+00 0.118585982218D-03 0.000000000000D+00  6 1 1 25 1 1 21 2 0.40192716D+00 0.14001066D+00 0.25112333D+06 0.25112333D+06 0.25112333D+06 0.10903127D+01  1  2  4  3  6  5        1 -.253271511147D+00 0.100000000000D+01
-.349981437230D+00 0.000000000000D+00 0.000000000000D+00 0.118585982218D-03 0.000000000000D+00  6 1 1 25 1 1 21 2 0.40192716D+00 0.14001066D+00 0.25112333D+06 0.25112333D+06 0.25112333D+06 0.10903127D+01  1  2  5  3  6  5        1 -.113684749844D+00 0.100000000000D+01
0.412380520252D+00 0.000000000000D+00 -.000000000000D+00 0.118585982218D-03 0.000000000000D+00  6 1 1 25 1 1 21 2 0.40192716D+00 0.14001066D+00 0.25112333D+06 0.25112333D+06 0.25112333D+06 0.10903127D+01  1  2  6  3  6  5        1 0.133953893831D+00 0.100000000000D+01
  </mgrwgt>
  </event>
  <event>
  5     66 0.18982733E-05 0.44642812E+02 0.75467711E-02 0.85904333E-01
        1 -1    0    0  501    0 0.00000000E+00 0.00000000E+00 0.15342716E+04 0.15342716E+04 0.32000000E+00 0.0000E+00 0.9000E+01
        1 -1    0    0  502    0 0.00000000E+00 0.00000000E+00 -.14178204E+04 0.14178205E+04 0.32000000E+00 0.0000E+00 0.9000E+01
       25  1    1    2    0    0 0.34874894E+03 0.34966713E+03 0.67094084E+03 0.84242479E+03 0.12500000E+03 0.0000E+00 0.9000E+01
        1  1    1    2  501    0 0.42096581E+02 -.14892168E+02 0.72717506E+03 0.72854483E+03 0.32000000E+00 0.0000E+00 0.9000E+01
        1  1    1    2  502    0 -.39084552E+03 -.33477496E+03 -.12816648E+04 0.13811224E+04 0.32000000E+00 0.0000E+00 0.9000E+01
#aMCatNLO 1  0  0  1  2 0.28475964D+03 0.00000000D+00  -5  6  0 0.00000000D+00 0.00000000D+00 0.00000000D+00 0.00000000D+00 0.00000000D+00
  <mgrwgt>
 0.2898978564D-01    3    2    0
 0.147489717914794D+04 0.000000000000000D+00 0.000000000000000D+00 0.147489717914794D+04
 0.147489717914794D+04 0.000000000000000D+00 0.000000000000000D+00 -.147489717914794D+04
 0.816746073913316D+03 0.348798755442854D+03 0.349699120487979D+03 0.638356563829547D+03
 0.700243773158097D+03 0.420868875075035D+02 -.148887385916203D+02 0.698819262191426D+03
 0.143280451122446D+04 -.390885642950357D+03 -.334810381896359D+03 -.133717582602097D+04
 0.000000000000000D+00 -.000000000000000D+00 0.000000000000000D+00 -.000000000000000D+00
 0.166349746842011D+04 0.000000000000000D+00 0.000000000000000D+00 0.166349746842011D+04
 0.332238084154415D+04 0.000000000000000D+00 0.000000000000000D+00 -.332238084154415D+04
 0.916188229619161D+03 0.593796497008264D+03 0.252353897630174D+03 0.638356563829547D+03
 0.747317734129287D+03 0.246739365872956D+03 -.962035335264473D+02 0.698819262191426D+03
 0.142605753109342D+04 0.132928318984626D+02 -.495403061065940D+03 -.133717582602097D+04
 0.189631481512240D+04 -.853828694779683D+03 0.339252696962213D+03 -.165888337312404D+04
0.773066444906D-01 0.000000000000D+00 0.000000000000D+00 0.615356495773D-04 0.000000000000D+00  6 1 1 25 1 1 21 0 0.23604178D+00 0.21812623D+00 0.28558450D+06 0.28558450D+06 0.28558450D+06 0.10861377D+01  1  2  2  1  6  1        1 0.476308382204D-01 0.100000000000D+01
0.283311898597D-01 0.000000000000D+00 -.296877870151D-03 0.615356495773D-04 0.000000000000D+00  6 1 1 25 1 1 21 2 0.23604178D+00 0.21812623D+00 0.28558450D+06 0.28558450D+06 0.28558450D+06 0.10861377D+01  1  2  3  1  6  1        1 0.205923537247D-01 0.100000000000D+01
-.539777578433D-01 0.000000000000D+00 0.000000000000D+00 0.615356495773D-04 0.000000000000D+00  6 1 1 25 1 1 21 2 0.23604178D+00 0.21812623D+00 0.28558450D+06 0.28558450D+06 0.28558450D+06 0.10861377D+01  1  2 15  1  6  1        1 -.392334063017D-01 0.100000000000D+01
  </mgrwgt>
  </event>
  <event>
  5     66 0.18982733E-05 0.13046289E+02 0.75467711E-02 0.93396885E-01
        1 -1    0    0  501    0 0.00000000E+00 0.00000000E+00 0.54925763E+03 0.54925772E+03 0.32000000E+00 0.0000E+00 0.9000E+01
        1 -1    0    0  502    0 0.00000000E+00 0.00000000E+00 -.15318987E+04 0.15318987E+04 0.32000000E+00 0.0000E+00 0.9000E+01
       25  1    1    2    0    0 0.53289707E+03 0.96288165E+02 -.41645641E+03 0.69448660E+03 0.12500000E+03 0.0000E+00 0.9000E+01
        1  1    1    2  501    0 -.54052567E+03 -.85706187E+02 0.22764283E+03 0.59273512E+03 0.32000000E+00 0.0000E+00 0.9000E+01
        1  1    1    2  502    0 0.76286029E+01 -.10581978E+02 -.79382749E+03 0.79393473E+03 0.32000000E+00 0.0000E+00 0.9000E+01
#aMCatNLO 1  0  0  1  4 0.11000623D+02 0.00000000D+00  -5  6  0 0.00000000D+00 0.00000000D+00 0.00000000D+00 0.00000000D+00 0.00000000D+00
  <mgrwgt>
 0.1854655667D-01    4    2    0
 0.917282496736333D+03 0.000000000000000D+00 0.000000000000000D+00 0.917282496736333D+03
 0.917282496736333D+03 0.000000000000000D+00 0.000000000000000D+00 -.917282496736333D+03
 0.564743399947527D+03 0.532881110694929D+03 0.962867995496125D+02 -.100382677197432D+03
 0.794315920504596D+03 -.540510315014171D+03 -.857037518297912D+02 0.575709343204227D+03
 0.475505673020544D+03 0.762920431924169D+01 -.105830477198213D+02 -.475326666006795D+03
 0.000000000000000D+00 0.000000000000000D+00 -.000000000000000D+00 -.000000000000000D+00
 0.109898659619700D+04 0.000000000000000D+00 0.000000000000000D+00 0.109898659619700D+04
 0.131023920293866D+04 0.000000000000000D+00 0.000000000000000D+00 -.131023920293866D+04
 0.449230303320618D+03 0.405555976957085D+03 0.107844949323534D+03 -.100382677197432D+03
 0.955931525655142D+03 -.760289673629033D+03 -.657529167549417D+02 0.575709343204227D+03
 0.488676848560177D+03 -.113443628351146D+03 0.407539075386536D+00 -.475326666006795D+03
 0.515387121599727D+03 0.468177325023095D+03 -.424995716439784D+02 -.211252606741667D+03
0.513813356325D-02 0.000000000000D+00 0.000000000000D+00 0.843658647687D-05 0.000000000000D+00  6 1 1 25 1 1 21 0 0.84501184D-01 0.23567673D+00 0.31139714D+06 0.31139714D+06 0.31139714D+06 0.10833558D+01  1  2  2  1  6  1        1 0.160609214332D-01 0.100000000000D+01
0.483790381438D-02 0.000000000000D+00 -.197317857845D-04 0.843658647687D-05 0.000000000000D+00  6 1 1 25 1 1 21 2 0.84501184D-01 0.23567673D+00 0.31139714D+06 0.31139714D+06 0.31139714D+06 0.10833558D+01  1  2  3  1  6  1        1 0.177486185457D-01 0.100000000000D+01
-.413185542227D-02 0.000000000000D+00 0.000000000000D+00 0.843658647687D-05 0.000000000000D+00  6 1 1 25 1 1 21 2 0.84501184D-01 0.23567673D+00 0.31139714D+06 0.31139714D+06 0.31139714D+06 0.10833558D+01  1  2 15  1  6  1        1 -.151583678778D-01 0.100000000000D+01
-.285159885551D-04 0.000000000000D+00 0.000000000000D+00 0.843658647687D-05 0.000000000000D+00  6 1 1 25 1 1 21 2 0.84501184D-01 0.23567673D+00 0.31139714D+06 0.31139714D+06 0.31139714D+06 0.10833558D+01  1  2  4  1  6  1        1 -.104615433199D-03 0.100000000000D+01
  </mgrwgt>
  </event>
  <event>
  5     66 0.18982733E-05 0.12724444E+03 0.75467711E-02 0.94553588E-01
        1 -1    0    0  501    0 0.00000000E+00 0.00000000E+00 0.11523516E+04 0.11523517E+04 0.32000000E+00 0.0000E+00 0.9000E+01
        1 -1    0    0  502    0 -.00000000E+00 -.00000000E+00 -.18892466E+04 0.18892467E+04 0.32000000E+00 0.0000E+00 0.9000E+01
       25  1    1    2    0    0 0.42759118E+03 -.17108096E+03 -.45690479E+03 0.66067382E+03 0.12500000E+03 0.0000E+00 0.9000E+01
        1  1    1    2  501    0 -.77799240E+02 0.10069238E+03 0.10225305E+04 0.10304175E+04 0.32000000E+00 0.0000E+00 0.9000E+01
        1  1    1    2  502    0 -.34979194E+03 0.70388577E+02 -.13025207E+04 0.13505070E+04 0.32000000E+00 0.0000E+00 0.9000E+01
#aMCatNLO 1  0  0  5  2 0.23709490D+02 0.00000000D+00  -5  6  0 0.00000000D+00 0.00000000D+00 0.00000000D+00 0.00000000D+00 0.00000000D+00
  <mgrwgt>
 0.4407147003D-02    4    2    0
 0.147549197703461D+04 0.000000000000000D+00 0.000000000000000D+00 0.147549197703461D+04
 0.147549197703461D+04 -.000000000000000D+00 -.000000000000000D+00 -.147549197703461D+04
 0.566869406109699D+03 0.427615960092446D+03 -.171085936549051D+03 -.305925017892478D+03
 0.131737414711258D+04 -.777979638645116D+02 0.100690731014943D+03 0.131121451219349D+04
 0.106674040084694D+04 -.349817996227934D+03 0.703952055341080D+02 -.100528949430101D+04
 0.000000000000000D+00 0.000000000000000D+00 0.000000000000000D+00 0.000000000000000D+00
 0.147549197703461D+04 0.000000000000000D+00 0.000000000000000D+00 0.147549197703461D+04
 0.147549197703461D+04 -.000000000000000D+00 -.000000000000000D+00 -.147549197703461D+04
 0.569214897648474D+03 0.424528020628293D+03 -.170464538749052D+03 -.314798984171581D+03
 0.129760303957896D+04 -.849056153177808D+02 0.102121030743124D+03 0.129078889826804D+04
 0.105421589979033D+04 -.366418533321767D+03 0.602596632430948D+02 -.986649580547665D+03
 0.299501170514587D+02 0.267961280112544D+02 0.808384476283357D+01 0.106596664512054D+02
0.178412386678D-01 0.000000000000D+00 0.000000000000D+00 0.445285578360D-04 0.000000000000D+00  6 1 1 25 1 1 21 0 0.17728487D+00 0.29065334D+00 0.23102804D+06 0.23102804D+06 0.23102804D+06 0.10930470D+01  1  2  2  3  6  5        1 0.994244310296D-02 0.100000000000D+01
0.367219348737D-02 0.000000000000D+00 -.685150541904D-04 0.445285578360D-04 0.000000000000D+00  6 1 1 25 1 1 21 2 0.17728487D+00 0.29065334D+00 0.23102804D+06 0.23102804D+06 0.23102804D+06 0.10930470D+01  1  2  3  3  6  5        1 0.244495779382D-02 0.100000000000D+01
-.119319485932D-01 0.000000000000D+00 0.000000000000D+00 0.445285578360D-04 0.000000000000D+00  6 1 1 25 1 1 21 2 0.17728487D+00 0.29065334D+00 0.23102804D+06 0.23102804D+06 0.23102804D+06 0.10930470D+01  1  2 15  3  6  5        1 -.794432831735D-02 0.100000000000D+01
-.539582603470D-04 0.000000000000D+00 0.000000000000D+00 0.445285578360D-04 0.000000000000D+00  6 1 1 25 1 1 21 2 0.17728487D+00 0.29065334D+00 0.23102804D+06 0.23102804D+06 0.23102804D+06 0.10930470D+01  1  2  4  3  6  5        1 -.359255768059D-04 0.100000000000D+01
  </mgrwgt>
  </event>
  <event>
  6     66 0.18982733E-05 0.61107061E+02 0.75467711E-02 0.93473055E-01
        1 -1    0    0  501    0 0.00000000E+00 0.00000000E+00 0.28136347E+04 0.28136347E+04 0.32000000E+00 0.0000E+00 0.9000E+01
        1 -1    0    0  503    0 0.00000000E+00 0.00000000E+00 -.25092377E+03 0.25092397E+03 0.32000000E+00 0.0000E+00 0.9000E+01
       25  1    1    2    0    0 -.13477035E+03 0.50757053E+03 0.21241689E+04 0.21916910E+04 0.12500000E+03 0.0000E+00 0.9000E+01
        1  1    1    2  501    0 0.26432623E+02 0.18135091E+01 0.31110761E+03 0.31223391E+03 0.32000000E+00 0.0000E+00 0.9000E+01
        1  1    1    2  502    0 0.14607606E+03 -.42834386E+03 0.13105701E+03 0.47116104E+03 0.32000000E+00 0.0000E+00 0.9000E+01
       21  1    1    2  503  502 -.37738330E+02 -.81040180E+02 -.36225528E+01 0.89472777E+02 0.75000000E+00 0.0000E+00 0.9000E+01
#aMCatNLO 2  0  0  2  4 0.17789312D+03 0.00000000D+00  -5  6  0 0.00000000D+00 0.00000000D+00 0.00000000D+00 0.00000000D+00 0.00000000D+00
  <mgrwgt>
 0.1087438886D-02    1    2    0
 0.751178564361078D+03 0.000000000000000D+00 0.000000000000000D+00 0.751178564361078D+03
 0.751178564361078D+03 0.000000000000000D+00 0.000000000000000D+00 -.751178564361078D+03
 0.687871761494282D+03 -.152273991445275D+03 0.469989414457160D+03 0.462022880481895D+03
 0.858328049554289D+02 0.241850328210016D+02 -.283465493236506D+01 0.823062532580495D+02
 0.728652562272444D+03 0.128088958624273D+03 -.467154759524795D+03 -.544329133739944D+03
 0.000000000000000D+00 -.000000000000000D+00 -.000000000000000D+00 -.000000000000000D+00
 0.764164679183737D+03 0.000000000000000D+00 0.000000000000000D+00 0.764164679183737D+03
 0.923893473889263D+03 0.000000000000000D+00 0.000000000000000D+00 -.923893473889263D+03
 0.710615613944701D+03 -.134724920366782D+03 0.507674703452301D+03 0.462022880481895D+03
 0.864392327610149D+02 0.263468072408627D+02 0.180759042583005D+01 0.823062532580495D+02
 0.707959649764860D+03 0.146116443365321D+03 -.428442113750941D+03 -.544329133739944D+03
 0.183043656602423D+03 -.377383302394020D+02 -.810401801271898D+02 -.159728794705527D+03
0.761435544897D-03 0.000000000000D+00 0.000000000000D+00 0.744155401877D-06 0.109258283997D-08  6 1 1 25 1 1 21 2 0.43286647D+00 0.38603635D-01 0.30713427D+06 0.30713427D+06 0.30713427D+06 0.10837975D+01  1  2  1  2  6  2        1 0.108743888551D-02 0.100000000000D+01
  </mgrwgt>
  </event>
</LesHouchesEvents>
