<event>
 5    0  0.1856407E+000  0.2529790E+03  0.7546771E-02  0.1111436E+00
         21   -1    0    0  502  501  0.00000000000E+00  0.00000000000E+00  0.34331282584E+03  0.34331282584E+03  0.00000000000E+00 0. -1.
         21   -1    0    0  503  502 -0.00000000000E+00 -0.00000000000E+00 -0.18453776341E+03  0.18453776341E+03  0.00000000000E+00 0. -1.
         25    1    1    2    0    0 -0.80343789956E+02  0.20473948497E+03  0.12578614112E+03  0.28252528133E+03  0.12500000000E+03 0.  0.
         21    1    1    2  503  504  0.94555139898E+02 -0.13628287768E+03  0.50236775234E+02  0.17331310053E+03  0.00000000000E+00 0. -1.
         21    1    1    2  504  501 -0.14211349943E+02 -0.68456607286E+02 -0.17247853934E+02  0.72012207393E+02  0.00000000000E+00 0. -1.
<mgrwt>
<rscale>  4 0.25297901E+03</rscale>
<asrwt>0</asrwt>
<pdfrwt beam="1">  1       21 0.52817358E-01 0.25297901E+03</pdfrwt>
<pdfrwt beam="2">  1       21 0.28390425E-01 0.25297901E+03</pdfrwt>
<totfact> 0.39172274E+04</totfact>
</mgrwt>
</event>
<event>
 5    0  0.1856407E+000  0.2939506E+03  0.7546771E-02  0.1088304E+00
         21   -1    0    0  502  501  0.00000000000E+00  0.00000000000E+00  0.53400436288E+03  0.53400436288E+03  0.00000000000E+00 0. -1.
         21   -1    0    0  503  502 -0.00000000000E+00 -0.00000000000E+00 -0.56311195004E+03  0.56311195004E+03  0.00000000000E+00 0. -1.
         25    1    1    2    0    0  0.25759951081E+03 -0.66516690474E+02  0.44918690450E+03  0.53682013120E+03  0.12500000000E+03 0.  0.
         21    1    1    2  503  504 -0.13690905854E+03  0.89110551062E+02 -0.21722353497E+03  0.27179191446E+03  0.00000000000E+00 0. -1.
         21    1    1    2  504  501 -0.12069045227E+03 -0.22593860589E+02 -0.26107095668E+03  0.28850426726E+03  0.00000000000E+00 0. -1.
<mgrwt>
<rscale>  4 0.29395064E+03</rscale>
<asrwt>0</asrwt>
<pdfrwt beam="1">  1       21 0.82154518E-01 0.29395064E+03</pdfrwt>
<pdfrwt beam="2">  1       21 0.86632607E-01 0.29395064E+03</pdfrwt>
<totfact> 0.13725628E+03</totfact>
</mgrwt>
</event>
<event>
 5    0  0.4830548E+000  0.2851916E+03  0.7546771E-02  0.1092887E+00
         21   -1    0    0  502  501  0.00000000000E+00  0.00000000000E+00  0.12790744471E+04  0.12790744471E+04  0.00000000000E+00 0. -1.
         21   -1    0    0  503  502 -0.00000000000E+00 -0.00000000000E+00 -0.63311808970E+02  0.63311808970E+02  0.00000000000E+00 0. -1.
         25    1    1    2    0    0 -0.36587615748E+01 -0.25631209087E+03  0.82634469818E+03  0.87417380118E+03  0.12500000000E+03 0.  0.
         21    1    1    2  503  504  0.25110765743E+01  0.22130720466E+02  0.15951526199E+02  0.27395720140E+02  0.00000000000E+00 0. -1.
         21    1    1    2  504  501  0.11476850006E+01  0.23418137041E+03  0.37346641371E+03  0.44081673470E+03  0.00000000000E+00 0. -1.
<mgrwt>
<rscale>  4 0.28519165E+03</rscale>
<asrwt>0</asrwt>
<pdfrwt beam="1">  1       21 0.19678066E+00 0.28519165E+03</pdfrwt>
<pdfrwt beam="2">  1       21 0.97402793E-02 0.28519165E+03</pdfrwt>
<totfact> 0.11233609E+04</totfact>
</mgrwt>
</event>
<event>
 5    0  0.2764098E+000  0.2291930E+03  0.7546771E-02  0.1127209E+00
         21   -1    0    0  502  501  0.00000000000E+00  0.00000000000E+00  0.85521265394E+02  0.85521265394E+02  0.00000000000E+00 0.  1.
         21   -1    0    0  503  502 -0.00000000000E+00 -0.00000000000E+00 -0.13817659048E+04  0.13817659048E+04  0.00000000000E+00 0. -1.
         25    1    1    2    0    0 -0.60481284584E+02 -0.19226362490E+03 -0.11503139512E+03  0.26359155735E+03  0.12500000000E+03 0.  0.
         21    1    1    2  503  504  0.47419943385E+02  0.13172454673E+03 -0.10415467322E+04  0.10509136990E+04  0.00000000000E+00 0. -1.
         21    1    1    2  504  501  0.13061341200E+02  0.60539078169E+02 -0.13966651206E+03  0.15278191388E+03  0.00000000000E+00 0.  1.
<mgrwt>
<rscale>  4 0.22919298E+03</rscale>
<asrwt>0</asrwt>
<pdfrwt beam="1">  1       21 0.13157119E-01 0.22919298E+03</pdfrwt>
<pdfrwt beam="2">  1       21 0.21257935E+00 0.22919298E+03</pdfrwt>
<totfact> 0.53845755E+03</totfact>
</mgrwt>
</event>
<event>
 5    0  0.1856407E+000  0.2984377E+03  0.7546771E-02  0.1086024E+00
         21   -1    0    0  502  501  0.00000000000E+00  0.00000000000E+00  0.16764436342E+03  0.16764436342E+03  0.00000000000E+00 0. -1.
         21   -1    0    0  503  502 -0.00000000000E+00 -0.00000000000E+00 -0.74943405069E+03  0.74943405069E+03  0.00000000000E+00 0. -1.
         25    1    1    2    0    0  0.18101023320E+03 -0.20168132016E+03 -0.34349637237E+02  0.30040798425E+03  0.12500000000E+03 0.  0.
         21    1    1    2  503  504 -0.16355918727E+03  0.13127586054E+03 -0.37639748900E+03  0.43088284837E+03  0.00000000000E+00 0. -1.
         21    1    1    2  504  501 -0.17451045931E+02  0.70405459623E+02 -0.17104256104E+03  0.18578758149E+03  0.00000000000E+00 0.  1.
<mgrwt>
<rscale>  4 0.29843770E+03</rscale>
<asrwt>0</asrwt>
<pdfrwt beam="1">  1       21 0.25791440E-01 0.29843770E+03</pdfrwt>
<pdfrwt beam="2">  1       21 0.11529755E+00 0.29843770E+03</pdfrwt>
<totfact> 0.77928748E+03</totfact>
</mgrwt>
</event>
<event>
 5    0  0.1856407E+000  0.2953786E+03  0.7546771E-02  0.1087574E+00
         21   -1    0    0  502  501  0.00000000000E+00  0.00000000000E+00  0.56094923918E+03  0.56094923918E+03  0.00000000000E+00 0.  1.
         21   -1    0    0  503  502 -0.00000000000E+00 -0.00000000000E+00 -0.36134667957E+03  0.36134667957E+03  0.00000000000E+00 0.  1.
         25    1    1    2    0    0  0.15678766714E+03 -0.21688964991E+03  0.45731516906E+03  0.54441313050E+03  0.12500000000E+03 0.  0.
         21    1    1    2  503  504 -0.13836960264E+03  0.20855785226E+03 -0.25530720727E+03  0.35752523654E+03  0.00000000000E+00 0.  1.
         21    1    1    2  504  501 -0.18418064507E+02  0.83317976502E+01 -0.24054021761E+01  0.20357551717E+02  0.00000000000E+00 0.  1.
<mgrwt>
<rscale>  4 0.29537856E+03</rscale>
<asrwt>0</asrwt>
<pdfrwt beam="1">  1       21 0.86299883E-01 0.29537856E+03</pdfrwt>
<pdfrwt beam="2">  1       21 0.55591797E-01 0.29537856E+03</pdfrwt>
<totfact> 0.32890521E+03</totfact>
</mgrwt>
</event>
<event>
 5    0  0.1956582E+000  0.2610489E+03  0.7546771E-02  0.1106515E+00
         21   -1    0    0  502  501  0.00000000000E+00  0.00000000000E+00  0.25602420510E+03  0.25602420510E+03  0.00000000000E+00 0. -1.
         21   -1    0    0  503  502 -0.00000000000E+00 -0.00000000000E+00 -0.24422997772E+03  0.24422997772E+03  0.00000000000E+00 0. -1.
         25    1    1    2    0    0  0.17885044116E+03  0.14329697392E+03 -0.19840004327E+02  0.26180169749E+03  0.12500000000E+03 0.  0.
         21    1    1    2  503  504 -0.13444971275E+03 -0.12876698972E+03  0.41427287324E+02  0.19071938296E+03  0.00000000000E+00 0. -1.
         21    1    1    2  504  501 -0.44400728412E+02 -0.14529984199E+02 -0.97930556159E+01  0.47733102378E+02  0.00000000000E+00 0. -1.
<mgrwt>
<rscale>  4 0.26104885E+03</rscale>
<asrwt>0</asrwt>
<pdfrwt beam="1">  1       21 0.39388339E-01 0.26104885E+03</pdfrwt>
<pdfrwt beam="2">  1       21 0.37573843E-01 0.26104885E+03</pdfrwt>
<totfact> 0.41149628E+04</totfact>
</mgrwt>
</event>
<event>
 5    0  0.1856407E+000  0.7347808E+03  0.7546771E-02  0.9660476E-01
         21   -1    0    0  502  501  0.00000000000E+00  0.00000000000E+00  0.73759821010E+03  0.73759821010E+03  0.00000000000E+00 0. -1.
         21   -1    0    0  503  502 -0.00000000000E+00 -0.00000000000E+00 -0.11392446775E+04  0.11392446775E+04  0.00000000000E+00 0. -1.
         25    1    1    2    0    0 -0.65685757303E+03  0.29897657882E+03  0.36206922997E+03  0.81704834204E+03  0.12500000000E+03 0.  0.
         21    1    1    2  503  504  0.14051203397E+03 -0.69369527184E+01 -0.16746438481E+03  0.21871459298E+03  0.00000000000E+00 0. -1.
         21    1    1    2  504  501  0.51634553906E+03 -0.29203962610E+03 -0.59625131256E+03  0.84107995259E+03  0.00000000000E+00 0. -1.
<mgrwt>
<rscale>  4 0.73419584E+03</rscale>
<asrwt>0</asrwt>
<pdfrwt beam="1">  1       21 0.11347665E+00 0.73478079E+03</pdfrwt>
<pdfrwt beam="2">  1       21 0.17526841E+00 0.73478079E+03</pdfrwt>
<totfact> 0.83885245E+01</totfact>
</mgrwt>
</event>
<event>
 5    0  0.1856407E+000  0.2070350E+03  0.7546771E-02  0.1143936E+00
         21   -1    0    0  502  501  0.00000000000E+00  0.00000000000E+00  0.11967986605E+04  0.11967986605E+04  0.00000000000E+00 0.  1.
         21   -1    0    0  503  502 -0.00000000000E+00 -0.00000000000E+00 -0.50621543557E+02  0.50621543557E+02  0.00000000000E+00 0.  1.
         25    1    1    2    0    0 -0.18156784554E+03 -0.91492294186E+02  0.65219542820E+03  0.69449377174E+03  0.12500000000E+03 0.  0.
         21    1    1    2  503  504  0.37570285671E+02  0.39593854412E+02  0.30445848910E+03  0.30931241691E+03  0.00000000000E+00 0. -1.
         21    1    1    2  504  501  0.14399755987E+03  0.51898439774E+02  0.18952319968E+03  0.24361401543E+03  0.00000000000E+00 0.  1.
<mgrwt>
<rscale>  4 0.20703498E+03</rscale>
<asrwt>0</asrwt>
<pdfrwt beam="1">  1       21 0.18412285E+00 0.20703498E+03</pdfrwt>
<pdfrwt beam="2">  1       21 0.77879307E-02 0.20703498E+03</pdfrwt>
<totfact> 0.21238693E+04</totfact>
</mgrwt>
</event>
<event>
 5    0  0.1856407E+000  0.3947509E+03  0.7546771E-02  0.1045613E+00
         21   -1    0    0  502  501  0.00000000000E+00  0.00000000000E+00  0.44162204282E+03  0.44162204282E+03  0.00000000000E+00 0. -1.
         21   -1    0    0  503  502 -0.00000000000E+00 -0.00000000000E+00 -0.37156817126E+03  0.37156817126E+03  0.00000000000E+00 0. -1.
         25    1    1    2    0    0 -0.34575089590E+03 -0.14373450695E+03  0.13699045146E+03  0.41784527554E+03  0.12500000000E+03 0.  0.
         21    1    1    2  503  504  0.36282891705E+02  0.33287396903E+02  0.23472311637E+02  0.54547671230E+02  0.00000000000E+00 0.  1.
         21    1    1    2  504  501  0.30946800419E+03  0.11044711004E+03 -0.90408891542E+02  0.34079726731E+03  0.00000000000E+00 0. -1.
<mgrwt>
<rscale>  4 0.39475092E+03</rscale>
<asrwt>0</asrwt>
<pdfrwt beam="1">  1       21 0.67941853E-01 0.39475092E+03</pdfrwt>
<pdfrwt beam="2">  1       21 0.57164334E-01 0.39475092E+03</pdfrwt>
<totfact> 0.51023968E+03</totfact>
</mgrwt>
</event>
<event>
 5    0  0.1856407E+000  0.2383937E+03  0.7546771E-02  0.1120868E+00
         21   -1    0    0  502  501  0.00000000000E+00  0.00000000000E+00  0.69861981757E+02  0.69861981757E+02  0.00000000000E+00 0. -1.
         21   -1    0    0  503  502 -0.00000000000E+00 -0.00000000000E+00 -0.12398652161E+04  0.12398652161E+04  0.00000000000E+00 0. -1.
         25    1    1    2    0    0 -0.31694906340E+02  0.20050436360E+03 -0.18060440959E+03  0.29908112557E+03  0.12500000000E+03 0.  0.
         21    1    1    2  503  504  0.18027137818E+02 -0.18285962383E+03 -0.89063938767E+03  0.90939602957E+03  0.00000000000E+00 0. -1.
         21    1    1    2  504  501  0.13667768522E+02 -0.17644739768E+02 -0.98759437084E+02  0.10125004272E+03  0.00000000000E+00 0. -1.
<mgrwt>
<rscale>  4 0.23839372E+03</rscale>
<asrwt>0</asrwt>
<pdfrwt beam="1">  1       21 0.10747998E-01 0.23839372E+03</pdfrwt>
<pdfrwt beam="2">  1       21 0.19074849E+00 0.23839372E+03</pdfrwt>
<totfact> 0.10638726E+04</totfact>
</mgrwt>
</event>
<event>
 5    0  0.1856407E+000  0.2439204E+03  0.7546771E-02  0.1117208E+00
         21   -1    0    0  502  501  0.00000000000E+00  0.00000000000E+00  0.12429006755E+04  0.12429006755E+04  0.00000000000E+00 0.  1.
         21   -1    0    0  503  502 -0.00000000000E+00 -0.00000000000E+00 -0.61602586617E+02  0.61602586617E+02  0.00000000000E+00 0.  1.
         25    1    1    2    0    0  0.17731363315E+03  0.11149908050E+03  0.25292433002E+03  0.35137997406E+03  0.12500000000E+03 0.  0.
         21    1    1    2  503  504 -0.11659785330E+03 -0.48276280711E+02  0.60906949874E+03  0.62200587856E+03  0.00000000000E+00 0.  1.
         21    1    1    2  504  501 -0.60715779851E+02 -0.63222799792E+02  0.31930426008E+03  0.33111740945E+03  0.00000000000E+00 0.  1.
<mgrwt>
<rscale>  4 0.24392042E+03</rscale>
<asrwt>0</asrwt>
<pdfrwt beam="1">  1       21 0.19121547E+00 0.24392042E+03</pdfrwt>
<pdfrwt beam="2">  1       21 0.94773220E-02 0.24392042E+03</pdfrwt>
<totfact> 0.13161593E+04</totfact>
</mgrwt>
</event>
<event>
 5    0  0.1856407E+000  0.3095052E+03  0.7546771E-02  0.1080583E+00
         21   -1    0    0  502  501  0.00000000000E+00  0.00000000000E+00  0.40236492404E+03  0.40236492404E+03  0.00000000000E+00 0. -1.
         21   -1    0    0  503  502 -0.00000000000E+00 -0.00000000000E+00 -0.42136120536E+03  0.42136120536E+03  0.00000000000E+00 0. -1.
         25    1    1    2    0    0 -0.23000858139E+03  0.16511980046E+03  0.27060651895E+03  0.41112210366E+03  0.12500000000E+03 0.  0.
         21    1    1    2  503  504  0.12035595447E+03 -0.39688672999E+02 -0.11261172860E+03  0.16953509359E+03  0.00000000000E+00 0. -1.
         21    1    1    2  504  501  0.10965262692E+03 -0.12543112746E+03 -0.17699107167E+03  0.24306893215E+03  0.00000000000E+00 0.  1.
<mgrwt>
<rscale>  4 0.30950524E+03</rscale>
<asrwt>0</asrwt>
<pdfrwt beam="1">  1       21 0.61902296E-01 0.30950524E+03</pdfrwt>
<pdfrwt beam="2">  1       21 0.64824801E-01 0.30950524E+03</pdfrwt>
<totfact> 0.49389513E+03</totfact>
</mgrwt>
</event>
<event>
 5    0  0.1857836E+000  0.2536390E+03  0.7546771E-02  0.1111026E+00
         21   -1    0    0  502  501  0.00000000000E+00  0.00000000000E+00  0.32331345912E+03  0.32331345912E+03  0.00000000000E+00 0. -1.
         21   -1    0    0  503  502 -0.00000000000E+00 -0.00000000000E+00 -0.32079738568E+03  0.32079738568E+03  0.00000000000E+00 0. -1.
         25    1    1    2    0    0  0.64983232618E+02 -0.21091449505E+03  0.20659760542E+03  0.32713195397E+03  0.12500000000E+03 0.  0.
         21    1    1    2  503  504 -0.62942710585E+01  0.11959059133E+03 -0.15990600189E+03  0.19977851942E+03  0.00000000000E+00 0. -1.
         21    1    1    2  504  501 -0.58688961559E+02  0.91323903722E+02 -0.44175530098E+02  0.11720037141E+03  0.00000000000E+00 0. -1.
<mgrwt>
<rscale>  4 0.25363900E+03</rscale>
<asrwt>0</asrwt>
<pdfrwt beam="1">  1       21 0.49740532E-01 0.25363900E+03</pdfrwt>
<pdfrwt beam="2">  1       21 0.49353444E-01 0.25363900E+03</pdfrwt>
<totfact> 0.14560787E+04</totfact>
</mgrwt>
</event>
<event>
 5    0  0.1856407E+000  0.3552606E+03  0.7546771E-02  0.1060476E+00
         21   -1    0    0  502  501  0.00000000000E+00  0.00000000000E+00  0.26222162956E+03  0.26222162956E+03  0.00000000000E+00 0. -1.
         21   -1    0    0  503  502 -0.00000000000E+00 -0.00000000000E+00 -0.54768676156E+03  0.54768676156E+03  0.00000000000E+00 0. -1.
         25    1    1    2    0    0 -0.30351565767E+03  0.13587988372E+03 -0.31062278765E+03  0.47190742043E+03  0.12500000000E+03 0.  0.
         21    1    1    2  503  504  0.25855483952E+03 -0.12078171142E+03  0.40317652959E+02  0.28820884787E+03  0.00000000000E+00 0. -1.
         21    1    1    2  504  501  0.44960818155E+02 -0.15098172297E+02 -0.15159997314E+02  0.49792122815E+02  0.00000000000E+00 0. -1.
<mgrwt>
<rscale>  4 0.35526060E+03</rscale>
<asrwt>0</asrwt>
<pdfrwt beam="1">  1       21 0.40341790E-01 0.35526060E+03</pdfrwt>
<pdfrwt beam="2">  1       21 0.84259500E-01 0.35526060E+03</pdfrwt>
<totfact> 0.66173406E+03</totfact>
</mgrwt>
</event>
