<event>
 5    0  0.3419369E+000  0.2676773E+03  0.7546771E-02  0.1102616E+00
         21   -1    0    0  502  501  0.00000000000E+00  0.00000000000E+00  0.37448337967E+03  0.37448337967E+03  0.00000000000E+00 0. -1.
         21   -1    0    0  503  502 -0.00000000000E+00 -0.00000000000E+00 -0.21927418889E+03  0.21927418889E+03  0.00000000000E+00 0. -1.
         25    1    1    2    0    0 -0.18928508563E+03  0.16319132607E+03  0.13425331481E+03  0.31001484656E+03  0.12500000000E+03 0.  0.
         21    1    1    2  503  504  0.19046863583E+03 -0.11903255896E+03  0.50997213184E+02  0.23032100877E+03  0.00000000000E+00 0. -1.
         21    1    1    2  504  501 -0.11835501965E+01 -0.44158767110E+02 -0.30041337214E+02  0.53421713239E+02  0.00000000000E+00 0. -1.
<mgrwt>
<rscale>  4 0.26767725E+03</rscale>
<asrwt>0</asrwt>
<pdfrwt beam="1">  1       21 0.57612828E-01 0.26767725E+03</pdfrwt>
<pdfrwt beam="2">  1       21 0.33734491E-01 0.26767725E+03</pdfrwt>
<totfact> 0.23024795E+04</totfact>
</mgrwt>
</event>
<event>
 5    0  0.1856407E+000  0.5471331E+03  0.7546771E-02  0.1002160E+00
         21   -1    0    0  502  501  0.00000000000E+00  0.00000000000E+00  0.33684944785E+03  0.33684944785E+03  0.00000000000E+00 0. -1.
         21   -1    0    0  503  502 -0.00000000000E+00 -0.00000000000E+00 -0.94244679276E+03  0.94244679276E+03  0.00000000000E+00 0.  1.
         25    1    1    2    0    0  0.46914497140E+03 -0.25225497320E+03 -0.13624960926E+03  0.56384264801E+03  0.12500000000E+03 0.  0.
         21    1    1    2  503  504 -0.35794903549E+03  0.23307755357E+03 -0.37254824903E+03  0.56678466444E+03  0.00000000000E+00 0.  1.
         21    1    1    2  504  501 -0.11119593591E+03  0.19177419628E+02 -0.96799486627E+02  0.14866892815E+03  0.00000000000E+00 0.  1.
<mgrwt>
<rscale>  4 0.54713305E+03</rscale>
<asrwt>0</asrwt>
<pdfrwt beam="1">  1       21 0.51822993E-01 0.54713305E+03</pdfrwt>
<pdfrwt beam="2">  1       21 0.14499181E+00 0.54713305E+03</pdfrwt>
<totfact> 0.94028243E+02</totfact>
</mgrwt>
</event>
<event>
 5    0  0.1856407E+000  0.2715839E+03  0.7546771E-02  0.1100376E+00
         21   -1    0    0  502  501  0.00000000000E+00  0.00000000000E+00  0.11709626698E+04  0.11709626698E+04  0.00000000000E+00 0.  1.
         21   -1    0    0  503  502 -0.00000000000E+00 -0.00000000000E+00 -0.71928478150E+02  0.71928478150E+02  0.00000000000E+00 0.  1.
         25    1    1    2    0    0  0.14480318863E+03 -0.18409310657E+03  0.66968059439E+03  0.72038554526E+03  0.12500000000E+03 0.  0.
         21    1    1    2  503  504 -0.18632967492E+03  0.17272068263E+03  0.35433848784E+03  0.43601255249E+03  0.00000000000E+00 0.  1.
         21    1    1    2  504  501  0.41526486291E+02  0.11372423934E+02  0.75015109380E+02  0.86493050155E+02  0.00000000000E+00 0.  1.
<mgrwt>
<rscale>  4 0.27158393E+03</rscale>
<asrwt>0</asrwt>
<pdfrwt beam="1">  1       21 0.18014809E+00 0.27158393E+03</pdfrwt>
<pdfrwt beam="2">  1       21 0.11065921E-01 0.27158393E+03</pdfrwt>
<totfact> 0.11668854E+04</totfact>
</mgrwt>
</event>
<event>
 5    0  0.1856407E+000  0.2953001E+03  0.7546771E-02  0.1087614E+00
         21   -1    0    0  502  501  0.00000000000E+00  0.00000000000E+00  0.48332899327E+03  0.48332899327E+03  0.00000000000E+00 0.  1.
         21   -1    0    0  503  502 -0.00000000000E+00 -0.00000000000E+00 -0.76413977766E+03  0.76413977766E+03  0.00000000000E+00 0.  1.
         25    1    1    2    0    0  0.25753562397E+03  0.72474626376E+02  0.40980404431E+03  0.50511535694E+03  0.12500000000E+03 0.  0.
         21    1    1    2  503  504 -0.23778019168E+02 -0.18378567189E+02 -0.50728776819E+02  0.58962485743E+02  0.00000000000E+00 0. -1.
         21    1    1    2  504  501 -0.23375760480E+03 -0.54096059188E+02 -0.63988605189E+03  0.68339092825E+03  0.00000000000E+00 0.  1.
<mgrwt>
<rscale>  4 0.29530013E+03</rscale>
<asrwt>0</asrwt>
<pdfrwt beam="1">  1       21 0.74358307E-01 0.29530013E+03</pdfrwt>
<pdfrwt beam="2">  1       21 0.11755996E+00 0.29530013E+03</pdfrwt>
<totfact> 0.82574354E+02</totfact>
</mgrwt>
</event>
<event>
 5    0  0.1856407E+000  0.4049962E+03  0.7546771E-02  0.1042063E+00
         21   -1    0    0  502  501  0.00000000000E+00  0.00000000000E+00  0.75606943629E+03  0.75606943629E+03  0.00000000000E+00 0.  1.
         21   -1    0    0  503  502 -0.00000000000E+00 -0.00000000000E+00 -0.43001679551E+03  0.43001679551E+03  0.00000000000E+00 0. -1.
         25    1    1    2    0    0  0.25676817328E+03  0.28848444564E+03  0.57967087275E+03  0.70766976119E+03  0.12500000000E+03 0.  0.
         21    1    1    2  503  504 -0.23524528030E+03 -0.29900464057E+03 -0.24686399511E+03  0.45352612832E+03  0.00000000000E+00 0. -1.
         21    1    1    2  504  501 -0.21522892978E+02  0.10520194935E+02 -0.67542368617E+01  0.24890342287E+02  0.00000000000E+00 0.  1.
<mgrwt>
<rscale>  4 0.40499621E+03</rscale>
<asrwt>0</asrwt>
<pdfrwt beam="1">  1       21 0.11631837E+00 0.40499621E+03</pdfrwt>
<pdfrwt beam="2">  1       21 0.66156430E-01 0.40499621E+03</pdfrwt>
<totfact> 0.10358264E+03</totfact>
</mgrwt>
</event>
<event>
 5    0  0.1856407E+000  0.2899739E+03  0.7546771E-02  0.1090363E+00
         21   -1    0    0  502  501  0.00000000000E+00  0.00000000000E+00  0.37337759575E+03  0.37337759575E+03  0.00000000000E+00 0.  1.
         21   -1    0    0  503  502 -0.00000000000E+00 -0.00000000000E+00 -0.58267983460E+03  0.58267983460E+03  0.00000000000E+00 0.  1.
         25    1    1    2    0    0 -0.20644902742E+03  0.16474378354E+03  0.26919110460E+03  0.39730412273E+03  0.12500000000E+03 0.  0.
         21    1    1    2  503  504  0.20700435222E+03 -0.12968073628E+03 -0.45536750450E+03  0.51674699743E+03  0.00000000000E+00 0.  1.
         21    1    1    2  504  501 -0.55532479937E+00 -0.35063047259E+02 -0.23125838949E+02  0.42006310190E+02  0.00000000000E+00 0.  1.
<mgrwt>
<rscale>  4 0.28997388E+03</rscale>
<asrwt>0</asrwt>
<pdfrwt beam="1">  1       21 0.57442707E-01 0.28997388E+03</pdfrwt>
<pdfrwt beam="2">  1       21 0.89643052E-01 0.28997388E+03</pdfrwt>
<totfact> 0.28143443E+03</totfact>
</mgrwt>
</event>
<event>
 5    0  0.1856407E+000  0.3006876E+03  0.7546771E-02  0.1084897E+00
         21   -1    0    0  502  501  0.00000000000E+00  0.00000000000E+00  0.52780367016E+03  0.52780367016E+03  0.00000000000E+00 0. -1.
         21   -1    0    0  503  502 -0.00000000000E+00 -0.00000000000E+00 -0.16637381222E+03  0.16637381222E+03  0.00000000000E+00 0. -1.
         25    1    1    2    0    0  0.26799713527E+03 -0.54457177572E+02  0.16199631651E+03  0.34154919890E+03  0.12500000000E+03 0.  0.
         21    1    1    2  503  504 -0.21155536773E+03  0.63470037965E+00  0.15992137396E+03  0.26519977811E+03  0.00000000000E+00 0. -1.
         21    1    1    2  504  501 -0.56441767542E+02  0.53822477192E+02  0.39512167468E+02  0.87428505377E+02  0.00000000000E+00 0.  1.
<mgrwt>
<rscale>  4 0.30068763E+03</rscale>
<asrwt>0</asrwt>
<pdfrwt beam="1">  1       21 0.81200564E-01 0.30068763E+03</pdfrwt>
<pdfrwt beam="2">  1       21 0.25595971E-01 0.30068763E+03</pdfrwt>
<totfact> 0.18225581E+04</totfact>
</mgrwt>
</event>
<event>
 5    0  0.1856407E+000  0.4051215E+03  0.7546771E-02  0.1042021E+00
         21   -1    0    0  502  501  0.00000000000E+00  0.00000000000E+00  0.10439345335E+04  0.10439345335E+04  0.00000000000E+00 0.  1.
         21   -1    0    0  503  502 -0.00000000000E+00 -0.00000000000E+00 -0.44643549766E+03  0.44643549766E+03  0.00000000000E+00 0. -1.
         25    1    1    2    0    0 -0.26475891854E+03  0.28000206433E+03  0.90125446448E+03  0.98812096967E+03  0.12500000000E+03 0.  0.
         21    1    1    2  503  504  0.67243759545E+02 -0.14725578013E+03 -0.11689814437E+03  0.19967765057E+03  0.00000000000E+00 0.  1.
         21    1    1    2  504  501  0.19751515899E+03 -0.13274628420E+03 -0.18685728428E+03  0.30257141089E+03  0.00000000000E+00 0. -1.
<mgrwt>
<rscale>  4 0.40512151E+03</rscale>
<asrwt>0</asrwt>
<pdfrwt beam="1">  1       21 0.16060531E+00 0.40512151E+03</pdfrwt>
<pdfrwt beam="2">  1       21 0.68682384E-01 0.40512151E+03</pdfrwt>
<totfact> 0.40738507E+02</totfact>
</mgrwt>
</event>
<event>
 5    0  0.1856407E+000  0.2451870E+03  0.7546771E-02  0.1116385E+00
         21   -1    0    0  502  501  0.00000000000E+00  0.00000000000E+00  0.47698135987E+02  0.47698135987E+02  0.00000000000E+00 0. -1.
         21   -1    0    0  503  502 -0.00000000000E+00 -0.00000000000E+00 -0.13707982836E+04  0.13707982836E+04  0.00000000000E+00 0. -1.
         25    1    1    2    0    0  0.50933330406E+02  0.20468863969E+03 -0.41502340587E+03  0.48203845363E+03  0.12500000000E+03 0.  0.
         21    1    1    2  503  504 -0.30872443764E+01 -0.74835178879E+02 -0.17376435697E+03  0.18921915027E+03  0.00000000000E+00 0. -1.
         21    1    1    2  504  501 -0.47846086030E+02 -0.12985346081E+03 -0.73431238476E+03  0.74723881567E+03  0.00000000000E+00 0. -1.
<mgrwt>
<rscale>  4 0.24518696E+03</rscale>
<asrwt>0</asrwt>
<pdfrwt beam="1">  1       21 0.73381762E-02 0.24518696E+03</pdfrwt>
<pdfrwt beam="2">  1       21 0.21089200E+00 0.24518696E+03</pdfrwt>
<totfact> 0.15361832E+04</totfact>
</mgrwt>
</event>
<event>
 5    0  0.1856407E+000  0.1852691E+03  0.7546771E-02  0.1162799E+00
         21   -1    0    0  502  501  0.00000000000E+00  0.00000000000E+00  0.65425736072E+02  0.65425736072E+02  0.00000000000E+00 0. -1.
         21   -1    0    0  503  502 -0.00000000000E+00 -0.00000000000E+00 -0.11560158764E+04  0.11560158764E+04  0.00000000000E+00 0. -1.
         25    1    1    2    0    0  0.17875559659E+03  0.14680025180E+03 -0.47173446281E+03  0.54005766418E+03  0.12500000000E+03 0.  0.
         21    1    1    2  503  504 -0.81889228369E+02 -0.85266516920E+02 -0.50889798700E+03  0.52244940981E+03  0.00000000000E+00 0. -1.
         21    1    1    2  504  501 -0.96866368217E+02 -0.61533734876E+02 -0.10995769050E+03  0.15893453847E+03  0.00000000000E+00 0. -1.
<mgrwt>
<rscale>  4 0.18526914E+03</rscale>
<asrwt>0</asrwt>
<pdfrwt beam="1">  1       21 0.10065498E-01 0.18526914E+03</pdfrwt>
<pdfrwt beam="2">  1       21 0.17784859E+00 0.18526914E+03</pdfrwt>
<totfact> 0.15182487E+04</totfact>
</mgrwt>
</event>
<event>
 5    0  0.1856407E+000  0.2487728E+03  0.7546771E-02  0.1114083E+00
         21   -1    0    0  502  501  0.00000000000E+00  0.00000000000E+00  0.29979935753E+02  0.29979935753E+02  0.00000000000E+00 0.  1.
         21   -1    0    0  503  502 -0.00000000000E+00 -0.00000000000E+00 -0.20741782054E+04  0.20741782054E+04  0.00000000000E+00 0.  1.
         25    1    1    2    0    0  0.37055483295E+02 -0.21187216242E+03 -0.74639340878E+03  0.78675983802E+03  0.12500000000E+03 0.  0.
         21    1    1    2  503  504  0.19443613141E+02  0.28884970307E+02 -0.20802216031E+03  0.21091613211E+03  0.00000000000E+00 0.  1.
         21    1    1    2  504  501 -0.56499096436E+02  0.18298719211E+03 -0.10897827006E+04  0.11064821710E+04  0.00000000000E+00 0.  1.
<mgrwt>
<rscale>  4 0.24877283E+03</rscale>
<asrwt>0</asrwt>
<pdfrwt beam="1">  1       21 0.46122982E-02 0.24877283E+03</pdfrwt>
<pdfrwt beam="2">  1       21 0.31910431E+00 0.24877283E+03</pdfrwt>
<totfact> 0.77129855E+03</totfact>
</mgrwt>
</event>
<event>
 5    0  0.1856407E+000  0.3299838E+03  0.7546771E-02  0.1071144E+00
         21   -1    0    0  502  501  0.00000000000E+00  0.00000000000E+00  0.78663922783E+02  0.78663922783E+02  0.00000000000E+00 0.  1.
         21   -1    0    0  503  502 -0.00000000000E+00 -0.00000000000E+00 -0.13683948969E+04  0.13683948969E+04  0.00000000000E+00 0. -1.
         25    1    1    2    0    0  0.13650492670E+03  0.27499804870E+03 -0.63924017374E+03  0.72007674697E+03  0.12500000000E+03 0.  0.
         21    1    1    2  503  504 -0.15296792101E+03 -0.26291531342E+03 -0.61002184796E+03  0.68165262552E+03  0.00000000000E+00 0. -1.
         21    1    1    2  504  501  0.16462994302E+02 -0.12082735271E+02 -0.40468952388E+02  0.45329447167E+02  0.00000000000E+00 0. -1.
<mgrwt>
<rscale>  4 0.32998375E+03</rscale>
<asrwt>0</asrwt>
<pdfrwt beam="1">  1       21 0.12102143E-01 0.32998375E+03</pdfrwt>
<pdfrwt beam="2">  1       21 0.21052228E+00 0.32998375E+03</pdfrwt>
<totfact> 0.60418945E+03</totfact>
</mgrwt>
</event>
<event>
 5    0  0.2386064E+000  0.2776201E+03  0.7546771E-02  0.1096996E+00
         21   -1    0    0  502  501  0.00000000000E+00  0.00000000000E+00  0.56957447858E+02  0.56957447858E+02  0.00000000000E+00 0. -1.
         21   -1    0    0  503  502 -0.00000000000E+00 -0.00000000000E+00 -0.16729898659E+04  0.16729898659E+04  0.00000000000E+00 0. -1.
         25    1    1    2    0    0  0.18729364488E+03 -0.16238545263E+03 -0.39956177942E+03  0.48654142703E+03  0.12500000000E+03 0.  0.
         21    1    1    2  503  504 -0.16534542330E+03  0.12545306563E+03 -0.87686994673E+03  0.90109848749E+03  0.00000000000E+00 0. -1.
         21    1    1    2  504  501 -0.21948221582E+02  0.36932387008E+02 -0.33960069185E+03  0.34230739920E+03  0.00000000000E+00 0. -1.
<mgrwt>
<rscale>  4 0.27762014E+03</rscale>
<asrwt>0</asrwt>
<pdfrwt beam="1">  1       21 0.87626846E-02 0.27762014E+03</pdfrwt>
<pdfrwt beam="2">  1       21 0.25738305E+00 0.27762014E+03</pdfrwt>
<totfact> 0.57215835E+03</totfact>
</mgrwt>
</event>
