<event>
 5    0  0.5280776E+000  0.2553625E+03  0.7546771E-02  0.1109962E+00
         21   -1    0    0  502  501  0.00000000000E+00  0.00000000000E+00  0.85597315337E+03  0.85597315337E+03  0.00000000000E+00 0.  1.
         21   -1    0    0  503  502 -0.00000000000E+00 -0.00000000000E+00 -0.70835136132E+02  0.70835136132E+02  0.00000000000E+00 0.  1.
         25    1    1    2    0    0  0.19635477093E+03  0.10502289164E+03  0.51727984133E+03  0.57687818305E+03  0.12500000000E+03 0.  0.
         21    1    1    2  503  504 -0.17661305967E+03 -0.81707079621E+02  0.22970879061E+03  0.30105539056E+03  0.00000000000E+00 0.  1.
         21    1    1    2  504  501 -0.19741711266E+02 -0.23315812023E+02  0.38149385304E+02  0.48874715888E+02  0.00000000000E+00 0. -1.
<mgrwt>
<rscale>  4 0.25536249E+03</rscale>
<asrwt>0</asrwt>
<pdfrwt beam="1">  1       21 0.13168817E+00 0.25536249E+03</pdfrwt>
<pdfrwt beam="2">  1       21 0.10897714E-01 0.25536249E+03</pdfrwt>
<totfact> 0.28167841E+04</totfact>
</mgrwt>
</event>
<event>
 5    0  0.2159162E+000  0.2360339E+03  0.7546771E-02  0.1122463E+00
         21   -1    0    0  502  501  0.00000000000E+00  0.00000000000E+00  0.19758578117E+03  0.19758578117E+03  0.00000000000E+00 0. -1.
         21   -1    0    0  503  502 -0.00000000000E+00 -0.00000000000E+00 -0.25962898229E+03  0.25962898229E+03  0.00000000000E+00 0. -1.
         25    1    1    2    0    0 -0.17999626399E+03  0.87683277245E+02  0.16295454683E+02  0.23659576074E+03  0.12500000000E+03 0.  0.
         21    1    1    2  503  504  0.66306324599E+02 -0.51543318907E+02 -0.50914168654E+02  0.98211480874E+02  0.00000000000E+00 0. -1.
         21    1    1    2  504  501  0.11368993939E+03 -0.36139958337E+02 -0.27424487155E+02  0.12240752184E+03  0.00000000000E+00 0. -1.
<mgrwt>
<rscale>  4 0.23603392E+03</rscale>
<asrwt>0</asrwt>
<pdfrwt beam="1">  1       21 0.30397813E-01 0.23603392E+03</pdfrwt>
<pdfrwt beam="2">  1       21 0.39942920E-01 0.23603392E+03</pdfrwt>
<totfact> 0.61571166E+04</totfact>
</mgrwt>
</event>
<event>
 5    0  0.2159162E+000  0.2517447E+03  0.7546771E-02  0.1112207E+00
         21   -1    0    0  502  501  0.00000000000E+00  0.00000000000E+00  0.59057221238E+03  0.59057221238E+03  0.00000000000E+00 0.  1.
         21   -1    0    0  503  502 -0.00000000000E+00 -0.00000000000E+00 -0.53258199415E+03  0.53258199415E+03  0.00000000000E+00 0. -1.
         25    1    1    2    0    0 -0.20690026824E+03  0.70304227674E+02  0.53694598243E+03  0.59303152823E+03  0.12500000000E+03 0.  0.
         21    1    1    2  503  504  0.11812196937E+03 -0.73179414702E+01 -0.24558738257E+03  0.27261605674E+03  0.00000000000E+00 0. -1.
         21    1    1    2  504  501  0.88778298862E+02 -0.62986286204E+02 -0.23336838164E+03  0.25750662156E+03  0.00000000000E+00 0.  1.
<mgrwt>
<rscale>  4 0.25174472E+03</rscale>
<asrwt>0</asrwt>
<pdfrwt beam="1">  1       21 0.90857264E-01 0.25174472E+03</pdfrwt>
<pdfrwt beam="2">  1       21 0.81935691E-01 0.25174472E+03</pdfrwt>
<totfact> 0.12724172E+03</totfact>
</mgrwt>
</event>
<event>
 5    0  0.2159162E+000  0.2428535E+03  0.7546771E-02  0.1117906E+00
         21   -1    0    0  502  501  0.00000000000E+00  0.00000000000E+00  0.94116609131E+03  0.94116609131E+03  0.00000000000E+00 0.  1.
         21   -1    0    0  503  502 -0.00000000000E+00 -0.00000000000E+00 -0.58460181252E+02  0.58460181252E+02  0.00000000000E+00 0. -1.
         25    1    1    2    0    0  0.20613816991E+03 -0.29323465196E+02  0.59217460554E+03  0.64003794743E+03  0.12500000000E+03 0.  0.
         21    1    1    2  503  504 -0.15151585714E+03  0.33748057587E+02  0.23441836746E+03  0.28115468582E+03  0.00000000000E+00 0. -1.
         21    1    1    2  504  501 -0.54622312774E+02 -0.44245923911E+01  0.56112937068E+02  0.78433639320E+02  0.00000000000E+00 0. -1.
<mgrwt>
<rscale>  4 0.24285348E+03</rscale>
<asrwt>0</asrwt>
<pdfrwt beam="1">  1       21 0.14479477E+00 0.24285348E+03</pdfrwt>
<pdfrwt beam="2">  1       21 0.89938747E-02 0.24285348E+03</pdfrwt>
<totfact> 0.31164218E+04</totfact>
</mgrwt>
</event>
<event>
 5    0  0.2159162E+000  0.2363516E+03  0.7546771E-02  0.1122247E+00
         21   -1    0    0  502  501  0.00000000000E+00  0.00000000000E+00  0.15281181093E+04  0.15281181093E+04  0.00000000000E+00 0. -1.
         21   -1    0    0  503  502 -0.00000000000E+00 -0.00000000000E+00 -0.49774468042E+02  0.49774468042E+02  0.00000000000E+00 0. -1.
         25    1    1    2    0    0 -0.17208650721E+03 -0.10306946521E+03  0.12435182044E+04  0.12657802358E+04  0.12500000000E+03 0.  0.
         21    1    1    2  503  504  0.30845797284E+02  0.28582068238E+02  0.26791458747E+02  0.49861609447E+02  0.00000000000E+00 0. -1.
         21    1    1    2  504  501  0.14124070992E+03  0.74487396975E+02  0.20803397813E+03  0.26225073213E+03  0.00000000000E+00 0. -1.
<mgrwt>
<rscale>  4 0.23635160E+03</rscale>
<asrwt>0</asrwt>
<pdfrwt beam="1">  1       21 0.23509506E+00 0.23635160E+03</pdfrwt>
<pdfrwt beam="2">  1       21 0.76576116E-02 0.23635160E+03</pdfrwt>
<totfact> 0.10168760E+04</totfact>
</mgrwt>
</event>
<event>
 5    0  0.2159162E+000  0.3530256E+03  0.7546771E-02  0.1061380E+00
         21   -1    0    0  502  501  0.00000000000E+00  0.00000000000E+00  0.93025378739E+03  0.93025378739E+03  0.00000000000E+00 0. -1.
         21   -1    0    0  503  502 -0.00000000000E+00 -0.00000000000E+00 -0.29142741254E+03  0.29142741254E+03  0.00000000000E+00 0.  1.
         25    1    1    2    0    0 -0.46360485001E+02  0.32688347550E+03  0.78241244060E+03  0.85836841060E+03  0.12500000000E+03 0.  0.
         21    1    1    2  503  504  0.32060822360E+01 -0.42560905323E+02 -0.18970243807E+01  0.42723627265E+02  0.00000000000E+00 0. -1.
         21    1    1    2  504  501  0.43154402765E+02 -0.28432257017E+03 -0.14168904136E+03  0.32058916206E+03  0.00000000000E+00 0.  1.
<mgrwt>
<rscale>  4 0.35302564E+03</rscale>
<asrwt>0</asrwt>
<pdfrwt beam="1">  1       21 0.14311597E+00 0.35302564E+03</pdfrwt>
<pdfrwt beam="2">  1       21 0.44834987E-01 0.35302564E+03</pdfrwt>
<totfact> 0.14369280E+03</totfact>
</mgrwt>
</event>
<event>
 5    0  0.2563661E+000  0.2909104E+03  0.7546771E-02  0.1089875E+00
         21   -1    0    0  502  501  0.00000000000E+00  0.00000000000E+00  0.25522615881E+03  0.25522615881E+03  0.00000000000E+00 0.  1.
         21   -1    0    0  503  502 -0.00000000000E+00 -0.00000000000E+00 -0.33079295701E+03  0.33079295701E+03  0.00000000000E+00 0.  1.
         25    1    1    2    0    0  0.24716968374E+03 -0.88943775151E+02 -0.46510036951E+02  0.29460487307E+03  0.12500000000E+03 0.  0.
         21    1    1    2  503  504 -0.13663295455E+03  0.38393198450E+02  0.45237035749E+02  0.14895969710E+03  0.00000000000E+00 0.  1.
         21    1    1    2  504  501 -0.11053672920E+03  0.50550576701E+02 -0.74293797001E+02  0.14245454566E+03  0.00000000000E+00 0.  1.
<mgrwt>
<rscale>  4 0.29091038E+03</rscale>
<asrwt>0</asrwt>
<pdfrwt beam="1">  1       21 0.39265563E-01 0.29091038E+03</pdfrwt>
<pdfrwt beam="2">  1       21 0.50891224E-01 0.29091038E+03</pdfrwt>
<totfact> 0.21879316E+04</totfact>
</mgrwt>
</event>
<event>
 5    0  0.2159162E+000  0.2782759E+03  0.7546771E-02  0.1096634E+00
         21   -1    0    0  502  501  0.00000000000E+00  0.00000000000E+00  0.32453423661E+03  0.32453423661E+03  0.00000000000E+00 0.  1.
         21   -1    0    0  503  502 -0.00000000000E+00 -0.00000000000E+00 -0.22518875510E+03  0.22518875510E+03  0.00000000000E+00 0.  1.
         25    1    1    2    0    0 -0.24302773928E+03  0.52440225963E+02  0.58826483938E+01  0.27833804072E+03  0.12500000000E+03 0.  0.
         21    1    1    2  503  504  0.14450188805E+03 -0.58503035260E+02  0.52305024082E+02  0.16443605544E+03  0.00000000000E+00 0.  1.
         21    1    1    2  504  501  0.98525851229E+02  0.60628092972E+01  0.41157809031E+02  0.10694889556E+03  0.00000000000E+00 0.  1.
<mgrwt>
<rscale>  4 0.27827587E+03</rscale>
<asrwt>0</asrwt>
<pdfrwt beam="1">  1       21 0.49928344E-01 0.27827587E+03</pdfrwt>
<pdfrwt beam="2">  1       21 0.34644424E-01 0.27827587E+03</pdfrwt>
<totfact> 0.29469573E+04</totfact>
</mgrwt>
</event>
<event>
 5    0  0.2159162E+000  0.2384838E+03  0.7546771E-02  0.1120807E+00
         21   -1    0    0  502  501  0.00000000000E+00  0.00000000000E+00  0.12438908581E+04  0.12438908581E+04  0.00000000000E+00 0.  1.
         21   -1    0    0  503  502 -0.00000000000E+00 -0.00000000000E+00 -0.49951535399E+02  0.49951535399E+02  0.00000000000E+00 0.  1.
         25    1    1    2    0    0 -0.16969799419E+03 -0.11280632610E+03  0.78561367673E+03  0.82117995927E+03  0.12500000000E+03 0.  0.
         21    1    1    2  503  504  0.18389055511E+03  0.86928917623E+02  0.38347393737E+03  0.43407906378E+03  0.00000000000E+00 0.  1.
         21    1    1    2  504  501 -0.14192560918E+02  0.25877408476E+02  0.24851708626E+02  0.38583370466E+02  0.00000000000E+00 0.  1.
<mgrwt>
<rscale>  4 0.23848376E+03</rscale>
<asrwt>0</asrwt>
<pdfrwt beam="1">  1       21 0.19136780E+00 0.23848376E+03</pdfrwt>
<pdfrwt beam="2">  1       21 0.76848526E-02 0.23848376E+03</pdfrwt>
<totfact> 0.19043627E+04</totfact>
</mgrwt>
</event>
<event>
 5    0  0.2159162E+000  0.2593402E+03  0.7546771E-02  0.1107540E+00
         21   -1    0    0  502  501  0.00000000000E+00  0.00000000000E+00  0.77310981464E+03  0.77310981464E+03  0.00000000000E+00 0. -1.
         21   -1    0    0  503  502 -0.00000000000E+00 -0.00000000000E+00 -0.61303734727E+03  0.61303734727E+03  0.00000000000E+00 0. -1.
         25    1    1    2    0    0  0.72085740417E+02  0.21702825194E+03  0.72014951528E+03  0.76585765027E+03  0.12500000000E+03 0.  0.
         21    1    1    2  503  504  0.16287838464E+02 -0.43869626194E+02 -0.29747619071E+02  0.55450506081E+02  0.00000000000E+00 0.  1.
         21    1    1    2  504  501 -0.88373578880E+02 -0.17315862574E+03 -0.53032942884E+03  0.56483900557E+03  0.00000000000E+00 0. -1.
<mgrwt>
<rscale>  4 0.25934015E+03</rscale>
<asrwt>0</asrwt>
<pdfrwt beam="1">  1       21 0.11893997E+00 0.25934015E+03</pdfrwt>
<pdfrwt beam="2">  1       21 0.94313438E-01 0.25934015E+03</pdfrwt>
<totfact> 0.47655334E+02</totfact>
</mgrwt>
</event>
<event>
 5    0  0.2159162E+000  0.2792774E+03  0.7546771E-02  0.1096084E+00
         21   -1    0    0  502  501  0.00000000000E+00  0.00000000000E+00  0.27580067889E+03  0.27580067889E+03  0.00000000000E+00 0.  1.
         21   -1    0    0  503  502 -0.00000000000E+00 -0.00000000000E+00 -0.73622805998E+03  0.73622805998E+03  0.00000000000E+00 0.  1.
         25    1    1    2    0    0 -0.10833683902E+03  0.22501998624E+03  0.17344538693E+03  0.32875396141E+03  0.12500000000E+03 0.  0.
         21    1    1    2  503  504  0.66404430635E+02 -0.10531864281E+03 -0.37243991134E+03  0.39269969760E+03  0.00000000000E+00 0.  1.
         21    1    1    2  504  501  0.41932408387E+02 -0.11970134342E+03 -0.26143285667E+03  0.29057507986E+03  0.00000000000E+00 0.  1.
<mgrwt>
<rscale>  4 0.27927740E+03</rscale>
<asrwt>0</asrwt>
<pdfrwt beam="1">  1       21 0.42430874E-01 0.27927740E+03</pdfrwt>
<pdfrwt beam="2">  1       21 0.11326585E+00 0.27927740E+03</pdfrwt>
<totfact> 0.30518662E+03</totfact>
</mgrwt>
</event>
