<event>
 4    0  0.1775285E-001  0.4636423E+03  0.7546771E-02  0.1023730E+00
         21   -1    0    0  503  501  0.00000000000E+00  0.00000000000E+00  0.89176079295E+02  0.89176079295E+02  0.00000000000E+00 0. -1.
         21   -1    0    0  501  502 -0.00000000000E+00 -0.00000000000E+00 -0.60263957378E+03  0.60263957378E+03  0.00000000000E+00 0. -1.
         25    1    1    2    0    0  0.20810146352E+03 -0.35933675555E+02 -0.33535744634E+03  0.41555633189E+03  0.12500000000E+03 0.  0.
         21    1    1    2  503  502 -0.20810146352E+03  0.35933675555E+02 -0.17810604815E+03  0.27625932119E+03  0.00000000000E+00 0. -1.
<mgrwt>
<rscale>  3 0.46364225E+03</rscale>
<asrwt>0</asrwt>
<pdfrwt beam="1">  1       21 0.13719397E-01 0.46364225E+03</pdfrwt>
<pdfrwt beam="2">  1       21 0.92713779E-01 0.46364225E+03</pdfrwt>
<totfact> 0.41233679E+04</totfact>
</mgrwt>
</event>
<event>
 4    0  0.1775285E-001  0.6749674E+03  0.7546771E-02  0.9761026E-01
         21   -1    0    0  503  501  0.00000000000E+00  0.00000000000E+00  0.13136109490E+03  0.13136109490E+03  0.00000000000E+00 0. -1.
         21   -1    0    0  501  502 -0.00000000000E+00 -0.00000000000E+00 -0.86703943199E+03  0.86703943199E+03  0.00000000000E+00 0. -1.
         25    1    1    2    0    0 -0.22945819468E+03  0.20858732064E+03 -0.23211568842E+03  0.40701649383E+03  0.12500000000E+03 0.  0.
         21    1    1    2  503  502  0.22945819468E+03 -0.20858732064E+03 -0.50356264866E+03  0.59138403306E+03  0.00000000000E+00 0. -1.
<mgrwt>
<rscale>  3 0.67496740E+03</rscale>
<asrwt>0</asrwt>
<pdfrwt beam="1">  1       21 0.20209399E-01 0.67496740E+03</pdfrwt>
<pdfrwt beam="2">  1       21 0.13339068E+00 0.67496740E+03</pdfrwt>
<totfact> 0.76267431E+03</totfact>
</mgrwt>
</event>
<event>
 4    0  0.1775285E-001  0.5879364E+03  0.7546771E-02  0.9930755E-01
         21   -1    0    0  503  501  0.00000000000E+00  0.00000000000E+00  0.23777874052E+03  0.23777874052E+03  0.00000000000E+00 0. -1.
         21   -1    0    0  501  502 -0.00000000000E+00 -0.00000000000E+00 -0.36343574988E+03  0.36343574988E+03  0.00000000000E+00 0. -1.
         25    1    1    2    0    0  0.79747017450E+02  0.26592291902E+03 -0.10791471532E+03  0.32302503221E+03  0.12500000000E+03 0.  0.
         21    1    1    2  503  502 -0.79747017450E+02 -0.26592291902E+03 -0.17742294035E+02  0.27818945819E+03  0.00000000000E+00 0. -1.
<mgrwt>
<rscale>  3 0.58793637E+03</rscale>
<asrwt>0</asrwt>
<pdfrwt beam="1">  1       21 0.36581345E-01 0.58793637E+03</pdfrwt>
<pdfrwt beam="2">  1       21 0.55913193E-01 0.58793637E+03</pdfrwt>
<totfact> 0.19028047E+04</totfact>
</mgrwt>
</event>
<event>
 4    0  0.1775285E-001  0.5510383E+03  0.7546771E-02  0.1001254E+00
         21   -1    0    0  502  501  0.00000000000E+00  0.00000000000E+00  0.11452553995E+03  0.11452553995E+03  0.00000000000E+00 0. -1.
         21   -1    0    0  503  502 -0.00000000000E+00 -0.00000000000E+00 -0.66282856169E+03  0.66282856169E+03  0.00000000000E+00 0. -1.
         25    1    1    2    0    0  0.23143681235E+03  0.55455001211E+02 -0.13592170279E+03  0.30122742996E+03  0.12500000000E+03 0.  0.
         21    1    1    2  503  501 -0.23143681235E+03 -0.55455001211E+02 -0.41238131894E+03  0.47612667168E+03  0.00000000000E+00 0. -1.
<mgrwt>
<rscale>  3 0.55103829E+03</rscale>
<asrwt>0</asrwt>
<pdfrwt beam="1">  1       21 0.17619314E-01 0.55103829E+03</pdfrwt>
<pdfrwt beam="2">  1       21 0.10197363E+00 0.55103829E+03</pdfrwt>
<totfact> 0.20142772E+04</totfact>
</mgrwt>
</event>
<event>
 4    0  0.1775285E-001  0.7222377E+03  0.7546771E-02  0.9679941E-01
         21   -1    0    0  503  501  0.00000000000E+00  0.00000000000E+00  0.80131899107E+03  0.80131899107E+03  0.00000000000E+00 0.  1.
         21   -1    0    0  501  502 -0.00000000000E+00 -0.00000000000E+00 -0.16274019960E+03  0.16274019960E+03  0.00000000000E+00 0.  1.
         25    1    1    2    0    0  0.31391991432E+03 -0.12868390653E+03  0.21243996475E+03  0.41935784126E+03  0.12500000000E+03 0.  0.
         21    1    1    2  503  502 -0.31391991432E+03  0.12868390653E+03  0.42613882673E+03  0.54470134941E+03  0.00000000000E+00 0.  1.
<mgrwt>
<rscale>  3 0.72223767E+03</rscale>
<asrwt>0</asrwt>
<pdfrwt beam="1">  1       21 0.12327984E+00 0.72223767E+03</pdfrwt>
<pdfrwt beam="2">  1       21 0.25036954E-01 0.72223767E+03</pdfrwt>
<totfact> 0.61248247E+03</totfact>
</mgrwt>
</event>
<event>
 4    0  0.1775285E-001  0.4520087E+03  0.7546771E-02  0.1027125E+00
         21   -1    0    0  503  501  0.00000000000E+00  0.00000000000E+00  0.64601364693E+02  0.64601364693E+02  0.00000000000E+00 0. -1.
         21   -1    0    0  501  502 -0.00000000000E+00 -0.00000000000E+00 -0.79066394910E+03  0.79066394910E+03  0.00000000000E+00 0. -1.
         25    1    1    2    0    0  0.62330654180E+02 -0.19876327766E+03 -0.41562812251E+03  0.48141841180E+03  0.12500000000E+03 0.  0.
         21    1    1    2  503  502 -0.62330654180E+02  0.19876327766E+03 -0.31043446190E+03  0.37384690200E+03  0.00000000000E+00 0. -1.
<mgrwt>
<rscale>  3 0.45200872E+03</rscale>
<asrwt>0</asrwt>
<pdfrwt beam="1">  1       21 0.99386718E-02 0.45200872E+03</pdfrwt>
<pdfrwt beam="2">  1       21 0.12164060E+00 0.45200872E+03</pdfrwt>
<totfact> 0.38069328E+04</totfact>
</mgrwt>
</event>
<event>
 4    0  0.1775285E-001  0.4677854E+03  0.7546771E-02  0.1022547E+00
         21   -1    0    0  502  501  0.00000000000E+00  0.00000000000E+00  0.65959078652E+03  0.65959078652E+03  0.00000000000E+00 0. -1.
         21   -1    0    0  503  502 -0.00000000000E+00 -0.00000000000E+00 -0.82938998556E+02  0.82938998556E+02  0.00000000000E+00 0. -1.
         25    1    1    2    0    0 -0.20707312059E+03 -0.19068328855E+02  0.40841467869E+03  0.47504781676E+03  0.12500000000E+03 0.  0.
         21    1    1    2  503  501  0.20707312059E+03  0.19068328855E+02  0.16823710927E+03  0.26748196832E+03  0.00000000000E+00 0. -1.
<mgrwt>
<rscale>  3 0.46778542E+03</rscale>
<asrwt>0</asrwt>
<pdfrwt beam="1">  1       21 0.10147550E+00 0.46778542E+03</pdfrwt>
<pdfrwt beam="2">  1       21 0.12759846E-01 0.46778542E+03</pdfrwt>
<totfact> 0.37853542E+04</totfact>
</mgrwt>
</event>
<event>
 4    0  0.1775285E-001  0.4822588E+03  0.7546771E-02  0.1018516E+00
         21   -1    0    0  503  501  0.00000000000E+00  0.00000000000E+00  0.85415647427E+02  0.85415647427E+02  0.00000000000E+00 0. -1.
         21   -1    0    0  501  502 -0.00000000000E+00 -0.00000000000E+00 -0.68071119529E+03  0.68071119529E+03  0.00000000000E+00 0. -1.
         25    1    1    2    0    0 -0.14428058308E+03  0.17178888450E+03 -0.34350621872E+03  0.42889372785E+03  0.12500000000E+03 0.  0.
         21    1    1    2  503  502  0.14428058308E+03 -0.17178888450E+03 -0.25178932915E+03  0.33723311487E+03  0.00000000000E+00 0. -1.
<mgrwt>
<rscale>  3 0.48225880E+03</rscale>
<asrwt>0</asrwt>
<pdfrwt beam="1">  1       21 0.13140869E-01 0.48225880E+03</pdfrwt>
<pdfrwt beam="2">  1       21 0.10472479E+00 0.48225880E+03</pdfrwt>
<totfact> 0.33080666E+04</totfact>
</mgrwt>
</event>
<event>
 4    0  0.1775285E-001  0.4562801E+03  0.7546771E-02  0.1025866E+00
         21   -1    0    0  502  501  0.00000000000E+00  0.00000000000E+00  0.21523528553E+03  0.21523528553E+03  0.00000000000E+00 0.  1.
         21   -1    0    0  503  502 -0.00000000000E+00 -0.00000000000E+00 -0.24181857142E+03  0.24181857142E+03  0.00000000000E+00 0.  1.
         25    1    1    2    0    0  0.11326718262E+03  0.17067120080E+03 -0.65074714843E+02  0.24863192062E+03  0.12500000000E+03 0.  0.
         21    1    1    2  503  501 -0.11326718262E+03 -0.17067120080E+03  0.38491428953E+02  0.20842193633E+03  0.00000000000E+00 0.  1.
<mgrwt>
<rscale>  3 0.45628013E+03</rscale>
<asrwt>0</asrwt>
<pdfrwt beam="1">  1       21 0.33113121E-01 0.45628013E+03</pdfrwt>
<pdfrwt beam="2">  1       21 0.37202857E-01 0.45628013E+03</pdfrwt>
<totfact> 0.56421388E+04</totfact>
</mgrwt>
</event>
<event>
 4    0  0.1775285E-001  0.5211934E+03  0.7546771E-02  0.1008391E+00
         21   -1    0    0  503  501  0.00000000000E+00  0.00000000000E+00  0.10160738588E+03  0.10160738588E+03  0.00000000000E+00 0.  1.
         21   -1    0    0  501  502 -0.00000000000E+00 -0.00000000000E+00 -0.66836310757E+03  0.66836310757E+03  0.00000000000E+00 0.  1.
         25    1    1    2    0    0  0.18367262888E+03 -0.14937796529E+03 -0.39625234760E+03  0.47821578194E+03  0.12500000000E+03 0.  0.
         21    1    1    2  503  502 -0.18367262888E+03  0.14937796529E+03 -0.17050337409E+03  0.29175471151E+03  0.00000000000E+00 0.  1.
<mgrwt>
<rscale>  3 0.52119335E+03</rscale>
<asrwt>0</asrwt>
<pdfrwt beam="1">  1       21 0.15631906E-01 0.52119335E+03</pdfrwt>
<pdfrwt beam="2">  1       21 0.10282509E+00 0.52119335E+03</pdfrwt>
<totfact> 0.24869444E+04</totfact>
</mgrwt>
</event>
<event>
 4    0  0.1775285E-001  0.4840727E+03  0.7546771E-02  0.1018022E+00
         21   -1    0    0  503  501  0.00000000000E+00  0.00000000000E+00  0.21408077359E+03  0.21408077359E+03  0.00000000000E+00 0.  1.
         21   -1    0    0  501  502 -0.00000000000E+00 -0.00000000000E+00 -0.27364245588E+03  0.27364245588E+03  0.00000000000E+00 0.  1.
         25    1    1    2    0    0  0.12369636803E+03  0.18900221059E+03 -0.34419424732E+02  0.26044639346E+03  0.12500000000E+03 0.  0.
         21    1    1    2  503  502 -0.12369636803E+03 -0.18900221059E+03 -0.25142257555E+02  0.22727683601E+03  0.00000000000E+00 0.  1.
<mgrwt>
<rscale>  3 0.48407267E+03</rscale>
<asrwt>0</asrwt>
<pdfrwt beam="1">  1       21 0.32935504E-01 0.48407267E+03</pdfrwt>
<pdfrwt beam="2">  1       21 0.42098839E-01 0.48407267E+03</pdfrwt>
<totfact> 0.43962772E+04</totfact>
</mgrwt>
</event>
<event>
 4    0  0.1775285E-001  0.4507132E+03  0.7546771E-02  0.1027510E+00
         21   -1    0    0  503  501  0.00000000000E+00  0.00000000000E+00  0.19352798892E+02  0.19352798892E+02  0.00000000000E+00 0.  1.
         21   -1    0    0  501  502 -0.00000000000E+00 -0.00000000000E+00 -0.26241990730E+04  0.26241990730E+04  0.00000000000E+00 0.  1.
         25    1    1    2    0    0  0.19640177122E+03  0.46755072022E+02 -0.16966759245E+04  0.17132115705E+04  0.12500000000E+03 0.  0.
         21    1    1    2  503  502 -0.19640177122E+03 -0.46755072022E+02 -0.90817034968E+03  0.93034030147E+03  0.00000000000E+00 0.  1.
<mgrwt>
<rscale>  3 0.45071320E+03</rscale>
<asrwt>0</asrwt>
<pdfrwt beam="1">  1       21 0.29773517E-02 0.45071320E+03</pdfrwt>
<pdfrwt beam="2">  1       21 0.40372320E+00 0.45071320E+03</pdfrwt>
<totfact> 0.42581462E+03</totfact>
</mgrwt>
</event>
<event>
 4    0  0.1775285E-001  0.4428889E+03  0.7546771E-02  0.1029864E+00
         21   -1    0    0  503  501  0.00000000000E+00  0.00000000000E+00  0.64669866065E+03  0.64669866065E+03  0.00000000000E+00 0.  1.
         21   -1    0    0  501  502 -0.00000000000E+00 -0.00000000000E+00 -0.75827672079E+02  0.75827672079E+02  0.00000000000E+00 0.  1.
         25    1    1    2    0    0  0.17033530355E+03  0.11183813317E+03  0.31437099890E+03  0.39493798072E+03  0.12500000000E+03 0.  0.
         21    1    1    2  503  502 -0.17033530355E+03 -0.11183813317E+03  0.25649998967E+03  0.32758835200E+03  0.00000000000E+00 0.  1.
<mgrwt>
<rscale>  3 0.44288894E+03</rscale>
<asrwt>0</asrwt>
<pdfrwt beam="1">  1       21 0.99492098E-01 0.44288894E+03</pdfrwt>
<pdfrwt beam="2">  1       21 0.11665796E-01 0.44288894E+03</pdfrwt>
<totfact> 0.47050578E+04</totfact>
</mgrwt>
</event>
<event>
 4    0  0.1775285E-001  0.4724506E+03  0.7546771E-02  0.1021231E+00
         21   -1    0    0  502  501  0.00000000000E+00  0.00000000000E+00  0.84522792515E+02  0.84522792515E+02  0.00000000000E+00 0.  1.
         21   -1    0    0  503  502 -0.00000000000E+00 -0.00000000000E+00 -0.66020529826E+03  0.66020529826E+03  0.00000000000E+00 0.  1.
         25    1    1    2    0    0 -0.59479887272E+02  0.21097363106E+03 -0.33113648654E+03  0.41632211412E+03  0.12500000000E+03 0.  0.
         21    1    1    2  503  501  0.59479887272E+02 -0.21097363106E+03 -0.24454601920E+03  0.32840597665E+03  0.00000000000E+00 0.  1.
<mgrwt>
<rscale>  3 0.47245061E+03</rscale>
<asrwt>0</asrwt>
<pdfrwt beam="1">  1       21 0.13003506E-01 0.47245061E+03</pdfrwt>
<pdfrwt beam="2">  1       21 0.10157005E+00 0.47245061E+03</pdfrwt>
<totfact> 0.36440193E+04</totfact>
</mgrwt>
</event>
<event>
 4    0  0.1775285E-001  0.6784126E+03  0.7546771E-02  0.9754879E-01
         21   -1    0    0  503  501  0.00000000000E+00  0.00000000000E+00  0.31705392398E+04  0.31705392398E+04  0.00000000000E+00 0. -1.
         21   -1    0    0  501  502 -0.00000000000E+00 -0.00000000000E+00 -0.36290644834E+02  0.36290644834E+02  0.00000000000E+00 0. -1.
         25    1    1    2    0    0 -0.31134010841E+03  0.92165592275E+02  0.18292711537E+04  0.18620647446E+04  0.12500000000E+03 0.  0.
         21    1    1    2  503  502  0.31134010841E+03 -0.92165592275E+02  0.13049774413E+04  0.13447651400E+04  0.00000000000E+00 0. -1.
<mgrwt>
<rscale>  3 0.67841260E+03</rscale>
<asrwt>0</asrwt>
<pdfrwt beam="1">  1       21 0.48777505E+00 0.67841260E+03</pdfrwt>
<pdfrwt beam="2">  1       21 0.55831786E-02 0.67841260E+03</pdfrwt>
<totfact> 0.35137341E+02</totfact>
</mgrwt>
</event>
<event>
 4    0  0.1775285E-001  0.4614185E+03  0.7546771E-02  0.1024371E+00
         21   -1    0    0  502  501  0.00000000000E+00  0.00000000000E+00  0.75144804434E+03  0.75144804434E+03  0.00000000000E+00 0.  1.
         21   -1    0    0  503  502 -0.00000000000E+00 -0.00000000000E+00 -0.70832254287E+02  0.70832254287E+02  0.00000000000E+00 0.  1.
         25    1    1    2    0    0 -0.10445833108E+03  0.18571959114E+03  0.39602662186E+03  0.46676053249E+03  0.12500000000E+03 0.  0.
         21    1    1    2  503  501  0.10445833108E+03 -0.18571959114E+03  0.28458916819E+03  0.35551976614E+03  0.00000000000E+00 0.  1.
<mgrwt>
<rscale>  3 0.46141850E+03</rscale>
<asrwt>0</asrwt>
<pdfrwt beam="1">  1       21 0.11560739E+00 0.46141850E+03</pdfrwt>
<pdfrwt beam="2">  1       21 0.10897270E-01 0.46141850E+03</pdfrwt>
<totfact> 0.36586519E+04</totfact>
</mgrwt>
</event>
<event>
 4    0  0.1775285E-001  0.1139757E+04  0.7546771E-02  0.9167286E-01
         21   -1    0    0  502  501  0.00000000000E+00  0.00000000000E+00  0.25367141551E+03  0.25367141551E+03  0.00000000000E+00 0. -1.
         21   -1    0    0  503  502 -0.00000000000E+00 -0.00000000000E+00 -0.12802447078E+04  0.12802447078E+04  0.00000000000E+00 0. -1.
         25    1    1    2    0    0  0.48390667965E+03  0.25657172234E+03 -0.69494135168E+03  0.89362363755E+03  0.12500000000E+03 0.  0.
         21    1    1    2  503  501 -0.48390667965E+03 -0.25657172234E+03 -0.33163194066E+03  0.64029248581E+03  0.00000000000E+00 0. -1.
<mgrwt>
<rscale>  3 0.11397570E+04</rscale>
<asrwt>0</asrwt>
<pdfrwt beam="1">  1       21 0.39026372E-01 0.11397570E+04</pdfrwt>
<pdfrwt beam="2">  1       21 0.19696072E+00 0.11397570E+04</pdfrwt>
<totfact> 0.61031599E+02</totfact>
</mgrwt>
</event>
<event>
 4    0  0.1775285E-001  0.4402782E+03  0.7546771E-02  0.1030661E+00
         21   -1    0    0  502  501  0.00000000000E+00  0.00000000000E+00  0.24631927902E+03  0.24631927902E+03  0.00000000000E+00 0.  1.
         21   -1    0    0  503  502 -0.00000000000E+00 -0.00000000000E+00 -0.19674146552E+03  0.19674146552E+03  0.00000000000E+00 0.  1.
         25    1    1    2    0    0 -0.37347739193E+02  0.19885756985E+03  0.21816665684E+02  0.23883080541E+03  0.12500000000E+03 0.  0.
         21    1    1    2  503  501  0.37347739193E+02 -0.19885756985E+03  0.27761147815E+02  0.20422993913E+03  0.00000000000E+00 0.  1.
<mgrwt>
<rscale>  3 0.44027817E+03</rscale>
<asrwt>0</asrwt>
<pdfrwt beam="1">  1       21 0.37895274E-01 0.44027817E+03</pdfrwt>
<pdfrwt beam="2">  1       21 0.30267918E-01 0.44027817E+03</pdfrwt>
<totfact> 0.65244637E+04</totfact>
</mgrwt>
</event>
<event>
 4    0  0.1775285E-001  0.8405312E+03  0.7546771E-02  0.9503135E-01
         21   -1    0    0  502  501  0.00000000000E+00  0.00000000000E+00  0.19693811511E+03  0.19693811511E+03  0.00000000000E+00 0. -1.
         21   -1    0    0  503  502 -0.00000000000E+00 -0.00000000000E+00 -0.89684605983E+03  0.89684605983E+03  0.00000000000E+00 0. -1.
         25    1    1    2    0    0  0.25187309224E+03  0.27952300440E+03 -0.14258933313E+03  0.42134295118E+03  0.12500000000E+03 0.  0.
         21    1    1    2  503  501 -0.25187309224E+03 -0.27952300440E+03 -0.55731861160E+03  0.67244122377E+03  0.00000000000E+00 0. -1.
<mgrwt>
<rscale>  3 0.84053120E+03</rscale>
<asrwt>0</asrwt>
<pdfrwt beam="1">  1       21 0.30298171E-01 0.84053120E+03</pdfrwt>
<pdfrwt beam="2">  1       21 0.13797632E+00 0.84053120E+03</pdfrwt>
<totfact> 0.30422510E+03</totfact>
</mgrwt>
</event>
<event>
 4    0  0.1775285E-001  0.5314983E+03  0.7546771E-02  0.1005869E+00
         21   -1    0    0  503  501  0.00000000000E+00  0.00000000000E+00  0.22435512576E+03  0.22435512576E+03  0.00000000000E+00 0. -1.
         21   -1    0    0  501  502 -0.00000000000E+00 -0.00000000000E+00 -0.31478044886E+03  0.31478044886E+03  0.00000000000E+00 0. -1.
         25    1    1    2    0    0 -0.18893970008E+03  0.16366498014E+03 -0.71323035981E+02  0.28843788144E+03  0.12500000000E+03 0.  0.
         21    1    1    2  503  502  0.18893970008E+03 -0.16366498014E+03 -0.19102287117E+02  0.25069769317E+03  0.00000000000E+00 0. -1.
<mgrwt>
<rscale>  3 0.53149829E+03</rscale>
<asrwt>0</asrwt>
<pdfrwt beam="1">  1       21 0.34516173E-01 0.53149829E+03</pdfrwt>
<pdfrwt beam="2">  1       21 0.48427761E-01 0.53149829E+03</pdfrwt>
<totfact> 0.29508722E+04</totfact>
</mgrwt>
</event>
<event>
 4    0  0.1775285E-001  0.6513016E+03  0.7546771E-02  0.9804340E-01
         21   -1    0    0  502  501  0.00000000000E+00  0.00000000000E+00  0.27732106564E+03  0.27732106564E+03  0.00000000000E+00 0.  1.
         21   -1    0    0  503  502 -0.00000000000E+00 -0.00000000000E+00 -0.38240316571E+03  0.38240316571E+03  0.00000000000E+00 0.  1.
         25    1    1    2    0    0  0.18912337617E+03  0.22265075710E+03  0.61187977311E+02  0.32358921431E+03  0.12500000000E+03 0.  0.
         21    1    1    2  503  501 -0.18912337617E+03 -0.22265075710E+03 -0.16627007738E+03  0.33613501704E+03  0.00000000000E+00 0.  1.
<mgrwt>
<rscale>  3 0.65130163E+03</rscale>
<asrwt>0</asrwt>
<pdfrwt beam="1">  1       21 0.42664779E-01 0.65130163E+03</pdfrwt>
<pdfrwt beam="2">  1       21 0.58831256E-01 0.65130163E+03</pdfrwt>
<totfact> 0.12227874E+04</totfact>
</mgrwt>
</event>
<event>
 4    0  0.1775285E-001  0.4820714E+03  0.7546771E-02  0.1018567E+00
         21   -1    0    0  502  501  0.00000000000E+00  0.00000000000E+00  0.39100758170E+02  0.39100758170E+02  0.00000000000E+00 0. -1.
         21   -1    0    0  503  502 -0.00000000000E+00 -0.00000000000E+00 -0.14858590842E+04  0.14858590842E+04  0.00000000000E+00 0. -1.
         25    1    1    2    0    0 -0.13988040164E+03 -0.16402057500E+03 -0.97405143685E+03  0.10054205475E+04  0.12500000000E+03 0.  0.
         21    1    1    2  503  501  0.13988040164E+03  0.16402057500E+03 -0.47270688913E+03  0.51953929478E+03  0.00000000000E+00 0. -1.
<mgrwt>
<rscale>  3 0.48207143E+03</rscale>
<asrwt>0</asrwt>
<pdfrwt beam="1">  1       21 0.60155013E-02 0.48207143E+03</pdfrwt>
<pdfrwt beam="2">  1       21 0.22859370E+00 0.48207143E+03</pdfrwt>
<totfact> 0.15052349E+04</totfact>
</mgrwt>
</event>
<event>
 4    0  0.1775285E-001  0.5310145E+03  0.7546771E-02  0.1005986E+00
         21   -1    0    0  503  501  0.00000000000E+00  0.00000000000E+00  0.57736319753E+02  0.57736319753E+02  0.00000000000E+00 0.  1.
         21   -1    0    0  501  502 -0.00000000000E+00 -0.00000000000E+00 -0.12209664899E+04  0.12209664899E+04  0.00000000000E+00 0.  1.
         25    1    1    2    0    0 -0.21193927023E+03  0.68332365426E+02 -0.89166179492E+03  0.92750920370E+03  0.12500000000E+03 0.  0.
         21    1    1    2  503  502  0.21193927023E+03 -0.68332365426E+02 -0.27156837518E+03  0.35119360590E+03  0.00000000000E+00 0.  1.
<mgrwt>
<rscale>  3 0.53101454E+03</rscale>
<asrwt>0</asrwt>
<pdfrwt beam="1">  1       21 0.88825104E-02 0.53101454E+03</pdfrwt>
<pdfrwt beam="2">  1       21 0.18784100E+00 0.53101454E+03</pdfrwt>
<totfact> 0.13828436E+04</totfact>
</mgrwt>
</event>
<event>
 4    0  0.1775285E-001  0.4376928E+03  0.7546771E-02  0.1031457E+00
         21   -1    0    0  502  501  0.00000000000E+00  0.00000000000E+00  0.46233802938E+03  0.46233802938E+03  0.00000000000E+00 0. -1.
         21   -1    0    0  503  502 -0.00000000000E+00 -0.00000000000E+00 -0.10359031156E+03  0.10359031156E+03  0.00000000000E+00 0. -1.
         25    1    1    2    0    0  0.18907238888E+03 -0.65715344974E+02  0.21759708200E+03  0.32099901074E+03  0.12500000000E+03 0.  0.
         21    1    1    2  503  501 -0.18907238888E+03  0.65715344974E+02  0.14115063581E+03  0.24492933020E+03  0.00000000000E+00 0. -1.
<mgrwt>
<rscale>  3 0.43769277E+03</rscale>
<asrwt>0</asrwt>
<pdfrwt beam="1">  1       21 0.71128926E-01 0.43769277E+03</pdfrwt>
<pdfrwt beam="2">  1       21 0.15936971E-01 0.43769277E+03</pdfrwt>
<totfact> 0.58087213E+04</totfact>
</mgrwt>
</event>
<event>
 4    0  0.1775285E-001  0.6666684E+03  0.7546771E-02  0.9775995E-01
         21   -1    0    0  502  501  0.00000000000E+00  0.00000000000E+00  0.77847803183E+03  0.77847803183E+03  0.00000000000E+00 0.  1.
         21   -1    0    0  503  502 -0.00000000000E+00 -0.00000000000E+00 -0.14272940350E+03  0.14272940350E+03  0.00000000000E+00 0.  1.
         25    1    1    2    0    0  0.81651345292E+02  0.31092081639E+03  0.34271735496E+03  0.48622924803E+03  0.12500000000E+03 0.  0.
         21    1    1    2  503  501 -0.81651345292E+02 -0.31092081639E+03  0.29303127338E+03  0.43497818730E+03  0.00000000000E+00 0.  1.
<mgrwt>
<rscale>  3 0.66666845E+03</rscale>
<asrwt>0</asrwt>
<pdfrwt beam="1">  1       21 0.11976585E+00 0.66666845E+03</pdfrwt>
<pdfrwt beam="2">  1       21 0.21958370E-01 0.66666845E+03</pdfrwt>
<totfact> 0.86227207E+03</totfact>
</mgrwt>
</event>
<event>
 4    0  0.1775285E-001  0.4858073E+03  0.7546771E-02  0.1017551E+00
         21   -1    0    0  503  501  0.00000000000E+00  0.00000000000E+00  0.72216842740E+02  0.72216842740E+02  0.00000000000E+00 0.  1.
         21   -1    0    0  501  502 -0.00000000000E+00 -0.00000000000E+00 -0.81701402852E+03  0.81701402852E+03  0.00000000000E+00 0.  1.
         25    1    1    2    0    0 -0.18683532222E+03 -0.12183947820E+03 -0.32167222872E+03  0.41091400415E+03  0.12500000000E+03 0.  0.
         21    1    1    2  503  502  0.18683532222E+03  0.12183947820E+03 -0.42312495706E+03  0.47831686711E+03  0.00000000000E+00 0.  1.
<mgrwt>
<rscale>  3 0.48580726E+03</rscale>
<asrwt>0</asrwt>
<pdfrwt beam="1">  1       21 0.11110284E-01 0.48580726E+03</pdfrwt>
<pdfrwt beam="2">  1       21 0.12569446E+00 0.48580726E+03</pdfrwt>
<totfact> 0.28375408E+04</totfact>
</mgrwt>
</event>
<event>
 4    0  0.1775285E-001  0.5253945E+03  0.7546771E-02  0.1007355E+00
         21   -1    0    0  502  501  0.00000000000E+00  0.00000000000E+00  0.46540642514E+02  0.46540642514E+02  0.00000000000E+00 0.  1.
         21   -1    0    0  503  502 -0.00000000000E+00 -0.00000000000E+00 -0.14827864170E+04  0.14827864170E+04  0.00000000000E+00 0.  1.
         25    1    1    2    0    0 -0.17700583405E+02 -0.23898306252E+03 -0.57485440456E+03  0.63522342626E+03  0.12500000000E+03 0.  0.
         21    1    1    2  503  501  0.17700583405E+02  0.23898306252E+03 -0.86139136993E+03  0.89410363326E+03  0.00000000000E+00 0.  1.
<mgrwt>
<rscale>  3 0.52539445E+03</rscale>
<asrwt>0</asrwt>
<pdfrwt beam="1">  1       21 0.71600996E-02 0.52539445E+03</pdfrwt>
<pdfrwt beam="2">  1       21 0.22812096E+00 0.52539445E+03</pdfrwt>
<totfact> 0.11008205E+04</totfact>
</mgrwt>
</event>
<event>
 4    0  0.1775285E-001  0.4698520E+03  0.7546771E-02  0.1021962E+00
         21   -1    0    0  502  501  0.00000000000E+00  0.00000000000E+00  0.32304535480E+03  0.32304535480E+03  0.00000000000E+00 0. -1.
         21   -1    0    0  503  502 -0.00000000000E+00 -0.00000000000E+00 -0.17084356792E+03  0.17084356792E+03  0.00000000000E+00 0. -1.
         25    1    1    2    0    0 -0.48101611634E+02 -0.19799526507E+03 -0.86832871288E+00  0.23904318444E+03  0.12500000000E+03 0.  0.
         21    1    1    2  503  501  0.48101611634E+02  0.19799526507E+03  0.15307011559E+03  0.25484573828E+03  0.00000000000E+00 0. -1.
<mgrwt>
<rscale>  3 0.46985198E+03</rscale>
<asrwt>0</asrwt>
<pdfrwt beam="1">  1       21 0.49699285E-01 0.46985198E+03</pdfrwt>
<pdfrwt beam="2">  1       21 0.26283626E-01 0.46985198E+03</pdfrwt>
<totfact> 0.48674485E+04</totfact>
</mgrwt>
</event>
<event>
 4    0  0.1775285E-001  0.9054157E+03  0.7546771E-02  0.9418837E-01
         21   -1    0    0  503  501  0.00000000000E+00  0.00000000000E+00  0.58669317638E+03  0.58669317638E+03  0.00000000000E+00 0.  1.
         21   -1    0    0  501  502 -0.00000000000E+00 -0.00000000000E+00 -0.34932122636E+03  0.34932122636E+03  0.00000000000E+00 0.  1.
         25    1    1    2    0    0  0.31960420123E+03  0.30683687415E+03  0.89751826171E+02  0.46901610109E+03  0.12500000000E+03 0.  0.
         21    1    1    2  503  502 -0.31960420123E+03 -0.30683687415E+03  0.14762012384E+03  0.46699830165E+03  0.00000000000E+00 0.  1.
<mgrwt>
<rscale>  3 0.90541566E+03</rscale>
<asrwt>0</asrwt>
<pdfrwt beam="1">  1       21 0.90260489E-01 0.90541566E+03</pdfrwt>
<pdfrwt beam="2">  1       21 0.53741727E-01 0.90541566E+03</pdfrwt>
<totfact> 0.26648206E+03</totfact>
</mgrwt>
</event>
<event>
 4    0  0.1775285E-001  0.6870137E+03  0.7546771E-02  0.9739702E-01
         21   -1    0    0  503  501  0.00000000000E+00  0.00000000000E+00  0.54963211677E+03  0.54963211677E+03  0.00000000000E+00 0. -1.
         21   -1    0    0  501  502 -0.00000000000E+00 -0.00000000000E+00 -0.21468350043E+03  0.21468350043E+03  0.00000000000E+00 0. -1.
         25    1    1    2    0    0 -0.29784221210E+03 -0.10590772697E+03  0.59632509821E+02  0.34511949549E+03  0.12500000000E+03 0.  0.
         21    1    1    2  503  502  0.29784221210E+03  0.10590772697E+03  0.27531610652E+03  0.41919612171E+03  0.00000000000E+00 0. -1.
<mgrwt>
<rscale>  3 0.68701367E+03</rscale>
<asrwt>0</asrwt>
<pdfrwt beam="1">  1       21 0.84558787E-01 0.68701367E+03</pdfrwt>
<pdfrwt beam="2">  1       21 0.33028231E-01 0.68701367E+03</pdfrwt>
<totfact> 0.90068253E+03</totfact>
</mgrwt>
</event>
<event>
 4    0  0.1775285E-001  0.6095826E+03  0.7546771E-02  0.9885722E-01
         21   -1    0    0  502  501  0.00000000000E+00  0.00000000000E+00  0.19540921820E+04  0.19540921820E+04  0.00000000000E+00 0. -1.
         21   -1    0    0  503  502 -0.00000000000E+00 -0.00000000000E+00 -0.47540102738E+02  0.47540102738E+02  0.00000000000E+00 0. -1.
         25    1    1    2    0    0  0.28139755543E+03 -0.33694209396E+02  0.12239065515E+04  0.12624944082E+04  0.12500000000E+03 0.  0.
         21    1    1    2  503  501 -0.28139755543E+03  0.33694209396E+02  0.68264552771E+03  0.73913787649E+03  0.00000000000E+00 0. -1.
<mgrwt>
<rscale>  3 0.60958262E+03</rscale>
<asrwt>0</asrwt>
<pdfrwt beam="1">  1       21 0.30062950E+00 0.60958262E+03</pdfrwt>
<pdfrwt beam="2">  1       21 0.73138635E-02 0.60958262E+03</pdfrwt>
<totfact> 0.36824651E+03</totfact>
</mgrwt>
</event>
<event>
 4    0  0.1775285E-001  0.6272754E+03  0.7546771E-02  0.9850380E-01
         21   -1    0    0  502  501  0.00000000000E+00  0.00000000000E+00  0.31426015930E+03  0.31426015930E+03  0.00000000000E+00 0. -1.
         21   -1    0    0  503  502 -0.00000000000E+00 -0.00000000000E+00 -0.31301646758E+03  0.31301646758E+03  0.00000000000E+00 0. -1.
         25    1    1    2    0    0 -0.25257919065E+03 -0.15774724444E+03  0.45710835411E+02  0.32618234340E+03  0.12500000000E+03 0.  0.
         21    1    1    2  503  501  0.25257919065E+03  0.15774724444E+03 -0.44467143697E+02  0.30109428348E+03  0.00000000000E+00 0. -1.
<mgrwt>
<rscale>  3 0.62727539E+03</rscale>
<asrwt>0</asrwt>
<pdfrwt beam="1">  1       21 0.48347717E-01 0.62727539E+03</pdfrwt>
<pdfrwt beam="2">  1       21 0.48156380E-01 0.62727539E+03</pdfrwt>
<totfact> 0.14548198E+04</totfact>
</mgrwt>
</event>
<event>
 4    0  0.1775285E-001  0.5009917E+03  0.7546771E-02  0.1013520E+00
         21   -1    0    0  503  501  0.00000000000E+00  0.00000000000E+00  0.39101471434E+03  0.39101471434E+03  0.00000000000E+00 0. -1.
         21   -1    0    0  501  502 -0.00000000000E+00 -0.00000000000E+00 -0.16047521472E+03  0.16047521472E+03  0.00000000000E+00 0. -1.
         25    1    1    2    0    0 -0.22254313139E+03 -0.51391955280E+02  0.18286186801E+03  0.31816668771E+03  0.12500000000E+03 0.  0.
         21    1    1    2  503  502  0.22254313139E+03  0.51391955280E+02  0.47677631619E+02  0.23332324135E+03  0.00000000000E+00 0. -1.
<mgrwt>
<rscale>  3 0.50099170E+03</rscale>
<asrwt>0</asrwt>
<pdfrwt beam="1">  1       21 0.60156110E-01 0.50099170E+03</pdfrwt>
<pdfrwt beam="2">  1       21 0.24688495E-01 0.50099170E+03</pdfrwt>
<totfact> 0.36168884E+04</totfact>
</mgrwt>
</event>
<event>
 4    0  0.1775285E-001  0.6714991E+03  0.7546771E-02  0.9767253E-01
         21   -1    0    0  503  501  0.00000000000E+00  0.00000000000E+00  0.24032805890E+04  0.24032805890E+04  0.00000000000E+00 0. -1.
         21   -1    0    0  501  502 -0.00000000000E+00 -0.00000000000E+00 -0.46905783246E+02  0.46905783246E+02  0.00000000000E+00 0. -1.
         25    1    1    2    0    0 -0.21105141289E+03 -0.10363452695E+03  0.40500743058E+03  0.48470489257E+03  0.12500000000E+03 0.  0.
         21    1    1    2  503  502  0.21105141289E+03  0.10363452695E+03  0.19513673752E+04  0.19654814797E+04  0.00000000000E+00 0. -1.
<mgrwt>
<rscale>  3 0.67149909E+03</rscale>
<asrwt>0</asrwt>
<pdfrwt beam="1">  1       21 0.36973538E+00 0.67149909E+03</pdfrwt>
<pdfrwt beam="2">  1       21 0.72162762E-02 0.67149909E+03</pdfrwt>
<totfact> 0.13800289E+03</totfact>
</mgrwt>
</event>
<event>
 4    0  0.1775285E-001  0.5175488E+03  0.7546771E-02  0.1009297E+00
         21   -1    0    0  503  501  0.00000000000E+00  0.00000000000E+00  0.34756223199E+03  0.34756223199E+03  0.00000000000E+00 0. -1.
         21   -1    0    0  501  502 -0.00000000000E+00 -0.00000000000E+00 -0.19266817228E+03  0.19266817228E+03  0.00000000000E+00 0. -1.
         25    1    1    2    0    0 -0.19783641786E+03  0.13355090982E+03  0.30780602470E+02  0.27119649561E+03  0.12500000000E+03 0.  0.
         21    1    1    2  503  502  0.19783641786E+03 -0.13355090982E+03  0.12411345724E+03  0.26903390866E+03  0.00000000000E+00 0.  1.
<mgrwt>
<rscale>  3 0.51754876E+03</rscale>
<asrwt>0</asrwt>
<pdfrwt beam="1">  1       21 0.53471113E-01 0.51754876E+03</pdfrwt>
<pdfrwt beam="2">  1       21 0.29641257E-01 0.51754876E+03</pdfrwt>
<totfact> 0.32502286E+04</totfact>
</mgrwt>
</event>
<event>
 4    0  0.1775285E-001  0.5209866E+03  0.7546771E-02  0.1008442E+00
         21   -1    0    0  502  501  0.00000000000E+00  0.00000000000E+00  0.31492311315E+03  0.31492311315E+03  0.00000000000E+00 0.  1.
         21   -1    0    0  503  502 -0.00000000000E+00 -0.00000000000E+00 -0.21547085854E+03  0.21547085854E+03  0.00000000000E+00 0.  1.
         25    1    1    2    0    0  0.16236330640E+03  0.16168327278E+03 -0.37126334003E+02  0.26364121195E+03  0.12500000000E+03 0.  0.
         21    1    1    2  503  501 -0.16236330640E+03 -0.16168327278E+03  0.13657858861E+03  0.26675275974E+03  0.00000000000E+00 0.  1.
<mgrwt>
<rscale>  3 0.52098658E+03</rscale>
<asrwt>0</asrwt>
<pdfrwt beam="1">  1       21 0.48449710E-01 0.52098658E+03</pdfrwt>
<pdfrwt beam="2">  1       21 0.33149363E-01 0.52098658E+03</pdfrwt>
<totfact> 0.32058094E+04</totfact>
</mgrwt>
</event>
<event>
 4    0  0.1775285E-001  0.4590874E+03  0.7546771E-02  0.1025046E+00
         21   -1    0    0  503  501  0.00000000000E+00  0.00000000000E+00  0.34131644436E+03  0.34131644436E+03  0.00000000000E+00 0.  1.
         21   -1    0    0  501  502 -0.00000000000E+00 -0.00000000000E+00 -0.15437378195E+03  0.15437378195E+03  0.00000000000E+00 0.  1.
         25    1    1    2    0    0  0.50669862770E+02 -0.19595494825E+03  0.30412896494E+02  0.23982435450E+03  0.12500000000E+03 0.  0.
         21    1    1    2  503  502 -0.50669862770E+02  0.19595494825E+03  0.15652976592E+03  0.25586587181E+03  0.00000000000E+00 0. -1.
<mgrwt>
<rscale>  3 0.45908740E+03</rscale>
<asrwt>0</asrwt>
<pdfrwt beam="1">  1       21 0.52510222E-01 0.45908740E+03</pdfrwt>
<pdfrwt beam="2">  1       21 0.23749813E-01 0.45908740E+03</pdfrwt>
<totfact> 0.52840986E+04</totfact>
</mgrwt>
</event>
<event>
 4    0  0.1775285E-001  0.1136261E+04  0.7546771E-02  0.9170553E-01
         21   -1    0    0  502  501  0.00000000000E+00  0.00000000000E+00  0.47374505720E+03  0.47374505720E+03  0.00000000000E+00 0.  1.
         21   -1    0    0  503  502 -0.00000000000E+00 -0.00000000000E+00 -0.68132040848E+03  0.68132040848E+03  0.00000000000E+00 0.  1.
         25    1    1    2    0    0 -0.17801799814E+03 -0.50480051508E+03 -0.27663592234E+03  0.61535875814E+03  0.12500000000E+03 0.  0.
         21    1    1    2  503  501  0.17801799814E+03  0.50480051508E+03  0.69060571063E+02  0.53970670754E+03  0.00000000000E+00 0.  1.
<mgrwt>
<rscale>  3 0.11362608E+04</rscale>
<asrwt>0</asrwt>
<pdfrwt beam="1">  1       21 0.72883855E-01 0.11362608E+04</pdfrwt>
<pdfrwt beam="2">  1       21 0.10481852E+00 0.11362608E+04</pdfrwt>
<totfact> 0.89604385E+02</totfact>
</mgrwt>
</event>
<event>
 4    0  0.1775285E-001  0.4959075E+03  0.7546771E-02  0.1014853E+00
         21   -1    0    0  503  501  0.00000000000E+00  0.00000000000E+00  0.38579401468E+03  0.38579401468E+03  0.00000000000E+00 0. -1.
         21   -1    0    0  501  502 -0.00000000000E+00 -0.00000000000E+00 -0.15936242141E+03  0.15936242141E+03  0.00000000000E+00 0. -1.
         25    1    1    2    0    0 -0.21258122903E+03  0.37440083982E+02  0.21448986027E+03  0.32897331045E+03  0.12500000000E+03 0.  0.
         21    1    1    2  503  502  0.21258122903E+03 -0.37440083982E+02  0.11941733001E+02  0.21618312564E+03  0.00000000000E+00 0. -1.
<mgrwt>
<rscale>  3 0.49590753E+03</rscale>
<asrwt>0</asrwt>
<pdfrwt beam="1">  1       21 0.59352925E-01 0.49590753E+03</pdfrwt>
<pdfrwt beam="2">  1       21 0.24517296E-01 0.49590753E+03</pdfrwt>
<totfact> 0.37799988E+04</totfact>
</mgrwt>
</event>
<event>
 4    0  0.1775285E-001  0.4943227E+03  0.7546771E-02  0.1015271E+00
         21   -1    0    0  502  501  0.00000000000E+00  0.00000000000E+00  0.62728370407E+03  0.62728370407E+03  0.00000000000E+00 0.  1.
         21   -1    0    0  503  502 -0.00000000000E+00 -0.00000000000E+00 -0.97386126700E+02  0.97386126700E+02  0.00000000000E+00 0.  1.
         25    1    1    2    0    0  0.21865526640E+03  0.75143038236E+02  0.26967718602E+03  0.37657321517E+03  0.12500000000E+03 0.  0.
         21    1    1    2  503  501 -0.21865526640E+03 -0.75143038236E+02  0.26022039135E+03  0.34809661560E+03  0.00000000000E+00 0.  1.
<mgrwt>
<rscale>  3 0.49432269E+03</rscale>
<asrwt>0</asrwt>
<pdfrwt beam="1">  1       21 0.96505183E-01 0.49432269E+03</pdfrwt>
<pdfrwt beam="2">  1       21 0.14982481E-01 0.49432269E+03</pdfrwt>
<totfact> 0.31599887E+04</totfact>
</mgrwt>
</event>
<event>
 4    0  0.1775285E-001  0.7726450E+03  0.7546771E-02  0.9600479E-01
         21   -1    0    0  502  501  0.00000000000E+00  0.00000000000E+00  0.19986490630E+03  0.19986490630E+03  0.00000000000E+00 0.  1.
         21   -1    0    0  503  502 -0.00000000000E+00 -0.00000000000E+00 -0.74672983255E+03  0.74672983255E+03  0.00000000000E+00 0.  1.
         25    1    1    2    0    0 -0.15896621738E+03 -0.34080396237E+03 -0.29385393310E+03  0.49334849046E+03  0.12500000000E+03 0.  0.
         21    1    1    2  503  501  0.15896621738E+03  0.34080396237E+03 -0.25301099314E+03  0.45324624839E+03  0.00000000000E+00 0.  1.
<mgrwt>
<rscale>  3 0.77264504E+03</rscale>
<asrwt>0</asrwt>
<pdfrwt beam="1">  1       21 0.30748447E-01 0.77264504E+03</pdfrwt>
<pdfrwt beam="2">  1       21 0.11488151E+00 0.77264504E+03</pdfrwt>
<totfact> 0.48312661E+03</totfact>
</mgrwt>
</event>
<event>
 4    0  0.1775285E-001  0.5324596E+03  0.7546771E-02  0.1005637E+00
         21   -1    0    0  502  501  0.00000000000E+00  0.00000000000E+00  0.21771712057E+04  0.21771712057E+04  0.00000000000E+00 0. -1.
         21   -1    0    0  503  502 -0.00000000000E+00 -0.00000000000E+00 -0.32555223216E+02  0.32555223216E+02  0.00000000000E+00 0. -1.
         25    1    1    2    0    0  0.18729420193E+03  0.16755935608E+03  0.11779559111E+04  0.12109336829E+04  0.12500000000E+03 0.  0.
         21    1    1    2  503  501 -0.18729420193E+03 -0.16755935608E+03  0.96666007130E+03  0.99879274594E+03  0.00000000000E+00 0. -1.
<mgrwt>
<rscale>  3 0.53245956E+03</rscale>
<asrwt>0</asrwt>
<pdfrwt beam="1">  1       21 0.33494930E+00 0.53245956E+03</pdfrwt>
<pdfrwt beam="2">  1       21 0.50084976E-02 0.53245956E+03</pdfrwt>
<totfact> 0.45451803E+03</totfact>
</mgrwt>
</event>
<event>
 4    0  0.1775285E-001  0.4618228E+03  0.7546771E-02  0.1024254E+00
         21   -1    0    0  503  501  0.00000000000E+00  0.00000000000E+00  0.12110728566E+04  0.12110728566E+04  0.00000000000E+00 0.  1.
         21   -1    0    0  501  502 -0.00000000000E+00 -0.00000000000E+00 -0.44027134184E+02  0.44027134184E+02  0.00000000000E+00 0.  1.
         25    1    1    2    0    0  0.17455281159E+03  0.12358726212E+03  0.64572692130E+03  0.69161459808E+03  0.12500000000E+03 0.  0.
         21    1    1    2  503  502 -0.17455281159E+03 -0.12358726212E+03  0.52131880115E+03  0.56348539274E+03  0.00000000000E+00 0.  1.
<mgrwt>
<rscale>  3 0.46182277E+03</rscale>
<asrwt>0</asrwt>
<pdfrwt beam="1">  1       21 0.18631888E+00 0.46182277E+03</pdfrwt>
<pdfrwt beam="2">  1       21 0.67734062E-02 0.46182277E+03</pdfrwt>
<totfact> 0.23369980E+04</totfact>
</mgrwt>
</event>
<event>
 4    0  0.1775285E-001  0.7938557E+03  0.7546771E-02  0.9568954E-01
         21   -1    0    0  502  501  0.00000000000E+00  0.00000000000E+00  0.74126802762E+02  0.74126802762E+02  0.00000000000E+00 0. -1.
         21   -1    0    0  503  502 -0.00000000000E+00 -0.00000000000E+00 -0.21254351063E+04  0.21254351063E+04  0.00000000000E+00 0. -1.
         25    1    1    2    0    0 -0.36710513940E+02  0.38389365580E+03 -0.95860352185E+03  0.10408014762E+04  0.12500000000E+03 0.  0.
         21    1    1    2  503  501  0.36710513940E+02 -0.38389365580E+03 -0.10927047817E+04  0.11587604329E+04  0.00000000000E+00 0. -1.
<mgrwt>
<rscale>  3 0.79385568E+03</rscale>
<asrwt>0</asrwt>
<pdfrwt beam="1">  1       21 0.11404126E-01 0.79385568E+03</pdfrwt>
<pdfrwt beam="2">  1       21 0.32698994E+00 0.79385568E+03</pdfrwt>
<totfact> 0.10740434E+03</totfact>
</mgrwt>
</event>
<event>
 4    0  0.1775285E-001  0.7832616E+03  0.7546771E-02  0.9584566E-01
         21   -1    0    0  502  501  0.00000000000E+00  0.00000000000E+00  0.87156513121E+03  0.87156513121E+03  0.00000000000E+00 0. -1.
         21   -1    0    0  503  502 -0.00000000000E+00 -0.00000000000E+00 -0.17597617672E+03  0.17597617672E+03  0.00000000000E+00 0. -1.
         25    1    1    2    0    0  0.10614572394E+03 -0.26858182478E+03  0.22946438431E+02  0.31552282065E+03  0.12500000000E+03 0.  0.
         21    1    1    2  503  501 -0.10614572394E+03  0.26858182478E+03  0.67264251606E+03  0.73201848729E+03  0.00000000000E+00 0. -1.
<mgrwt>
<rscale>  3 0.78326164E+03</rscale>
<asrwt>0</asrwt>
<pdfrwt beam="1">  1       21 0.13408694E+00 0.78326164E+03</pdfrwt>
<pdfrwt beam="2">  1       21 0.27073258E-01 0.78326164E+03</pdfrwt>
<totfact> 0.41587701E+03</totfact>
</mgrwt>
</event>
<event>
 4    0  0.1775285E-001  0.4531013E+03  0.7546771E-02  0.1026801E+00
         21   -1    0    0  503  501  0.00000000000E+00  0.00000000000E+00  0.24538110177E+03  0.24538110177E+03  0.00000000000E+00 0. -1.
         21   -1    0    0  501  502 -0.00000000000E+00 -0.00000000000E+00 -0.20916522883E+03  0.20916522883E+03  0.00000000000E+00 0. -1.
         25    1    1    2    0    0 -0.55213978973E+02  0.19285367764E+03 -0.40444419457E+02  0.23979548686E+03  0.12500000000E+03 0.  0.
         21    1    1    2  503  502  0.55213978973E+02 -0.19285367764E+03  0.76660292397E+02  0.21475084374E+03  0.00000000000E+00 0. -1.
<mgrwt>
<rscale>  3 0.45310129E+03</rscale>
<asrwt>0</asrwt>
<pdfrwt beam="1">  1       21 0.37750939E-01 0.45310129E+03</pdfrwt>
<pdfrwt beam="2">  1       21 0.32179266E-01 0.45310129E+03</pdfrwt>
<totfact> 0.58036241E+04</totfact>
</mgrwt>
</event>
<event>
 4    0  0.1775285E-001  0.4437325E+03  0.7546771E-02  0.1029608E+00
         21   -1    0    0  502  501  0.00000000000E+00  0.00000000000E+00  0.15963363362E+03  0.15963363362E+03  0.00000000000E+00 0.  1.
         21   -1    0    0  503  502 -0.00000000000E+00 -0.00000000000E+00 -0.30836006054E+03  0.30836006054E+03  0.00000000000E+00 0.  1.
         25    1    1    2    0    0  0.16497775026E+03  0.11971131855E+03 -0.66365754252E+02  0.24814888919E+03  0.12500000000E+03 0.  0.
         21    1    1    2  503  501 -0.16497775026E+03 -0.11971131855E+03 -0.82360672669E+02  0.21984480497E+03  0.00000000000E+00 0.  1.
<mgrwt>
<rscale>  3 0.44373252E+03</rscale>
<asrwt>0</asrwt>
<pdfrwt beam="1">  1       21 0.24559021E-01 0.44373252E+03</pdfrwt>
<pdfrwt beam="2">  1       21 0.47440008E-01 0.44373252E+03</pdfrwt>
<totfact> 0.61652562E+04</totfact>
</mgrwt>
</event>
<event>
 4    0  0.1775285E-001  0.5004997E+03  0.7546771E-02  0.1013649E+00
         21   -1    0    0  503  501  0.00000000000E+00  0.00000000000E+00  0.10927358290E+04  0.10927358290E+04  0.00000000000E+00 0. -1.
         21   -1    0    0  501  502 -0.00000000000E+00 -0.00000000000E+00 -0.57310277678E+02  0.57310277678E+02  0.00000000000E+00 0. -1.
         25    1    1    2    0    0  0.29343477477E+02 -0.23257879809E+03  0.57323573390E+03  0.63180546343E+03  0.12500000000E+03 0.  0.
         21    1    1    2  503  502 -0.29343477477E+02  0.23257879809E+03  0.46218981738E+03  0.51824064322E+03  0.00000000000E+00 0. -1.
<mgrwt>
<rscale>  3 0.50049973E+03</rscale>
<asrwt>0</asrwt>
<pdfrwt beam="1">  1       21 0.16811319E+00 0.50049973E+03</pdfrwt>
<pdfrwt beam="2">  1       21 0.88169667E-02 0.50049973E+03</pdfrwt>
<totfact> 0.19536945E+04</totfact>
</mgrwt>
</event>
<event>
 4    0  0.1775285E-001  0.5694876E+03  0.7546771E-02  0.9970813E-01
         21   -1    0    0  503  501  0.00000000000E+00  0.00000000000E+00  0.53776575630E+02  0.53776575630E+02  0.00000000000E+00 0. -1.
         21   -1    0    0  501  502 -0.00000000000E+00 -0.00000000000E+00 -0.15077018925E+04  0.15077018925E+04  0.00000000000E+00 0. -1.
         25    1    1    2    0    0 -0.15586655989E+03  0.21759193367E+03 -0.64520252648E+03  0.70961393325E+03  0.12500000000E+03 0.  0.
         21    1    1    2  503  502  0.15586655989E+03 -0.21759193367E+03 -0.80872279043E+03  0.85186453491E+03  0.00000000000E+00 0. -1.
<mgrwt>
<rscale>  3 0.56948765E+03</rscale>
<asrwt>0</asrwt>
<pdfrwt beam="1">  1       21 0.82733206E-02 0.56948765E+03</pdfrwt>
<pdfrwt beam="2">  1       21 0.23195410E+00 0.56948765E+03</pdfrwt>
<totfact> 0.79442131E+03</totfact>
</mgrwt>
</event>
<event>
 4    0  0.1775285E-001  0.5085152E+03  0.7546771E-02  0.1011580E+00
         21   -1    0    0  502  501  0.00000000000E+00  0.00000000000E+00  0.15850209143E+04  0.15850209143E+04  0.00000000000E+00 0. -1.
         21   -1    0    0  503  502 -0.00000000000E+00 -0.00000000000E+00 -0.40786160316E+02  0.40786160316E+02  0.00000000000E+00 0. -1.
         25    1    1    2    0    0  0.20610709925E+03 -0.31142761122E+02  0.44564163240E+03  0.50761350697E+03  0.12500000000E+03 0.  0.
         21    1    1    2  503  501 -0.20610709925E+03  0.31142761122E+02  0.10985931216E+04  0.11181935676E+04  0.00000000000E+00 0. -1.
<mgrwt>
<rscale>  3 0.50851516E+03</rscale>
<asrwt>0</asrwt>
<pdfrwt beam="1">  1       21 0.24384932E+00 0.50851516E+03</pdfrwt>
<pdfrwt beam="2">  1       21 0.62747951E-02 0.50851516E+03</pdfrwt>
<totfact> 0.11119397E+04</totfact>
</mgrwt>
</event>
<event>
 4    0  0.1775285E-001  0.4872052E+03  0.7546771E-02  0.1017174E+00
         21   -1    0    0  502  501  0.00000000000E+00  0.00000000000E+00  0.32507262754E+03  0.32507262754E+03  0.00000000000E+00 0. -1.
         21   -1    0    0  503  502 -0.00000000000E+00 -0.00000000000E+00 -0.18255065864E+03  0.18255065864E+03  0.00000000000E+00 0. -1.
         25    1    1    2    0    0  0.46941097265E+02 -0.20419750435E+03 -0.16577474561E+02  0.24454018086E+03  0.12500000000E+03 0.  0.
         21    1    1    2  503  501 -0.46941097265E+02  0.20419750435E+03  0.15909944346E+03  0.26308310532E+03  0.00000000000E+00 0. -1.
<mgrwt>
<rscale>  3 0.48720518E+03</rscale>
<asrwt>0</asrwt>
<pdfrwt beam="1">  1       21 0.50011173E-01 0.48720518E+03</pdfrwt>
<pdfrwt beam="2">  1       21 0.28084717E-01 0.48720518E+03</pdfrwt>
<totfact> 0.42008581E+04</totfact>
</mgrwt>
</event>
<event>
 4    0  0.1775285E-001  0.4610766E+03  0.7546771E-02  0.1024469E+00
         21   -1    0    0  503  501  0.00000000000E+00  0.00000000000E+00  0.11944181424E+03  0.11944181424E+03  0.00000000000E+00 0. -1.
         21   -1    0    0  501  502 -0.00000000000E+00 -0.00000000000E+00 -0.44496902323E+03  0.44496902323E+03  0.00000000000E+00 0. -1.
         25    1    1    2    0    0  0.11027240613E+03 -0.16802798771E+03 -0.26324520025E+03  0.35400062664E+03  0.12500000000E+03 0.  0.
         21    1    1    2  503  502 -0.11027240613E+03  0.16802798771E+03 -0.62282008736E+02  0.21041021083E+03  0.00000000000E+00 0. -1.
<mgrwt>
<rscale>  3 0.46107660E+03</rscale>
<asrwt>0</asrwt>
<pdfrwt beam="1">  1       21 0.18375664E-01 0.46107660E+03</pdfrwt>
<pdfrwt beam="2">  1       21 0.68456773E-01 0.46107660E+03</pdfrwt>
<totfact> 0.48230053E+04</totfact>
</mgrwt>
</event>
<event>
 4    0  0.1775285E-001  0.5804123E+03  0.7546771E-02  0.9946899E-01
         21   -1    0    0  503  501  0.00000000000E+00  0.00000000000E+00  0.13670484107E+03  0.13670484107E+03  0.00000000000E+00 0.  1.
         21   -1    0    0  501  502 -0.00000000000E+00 -0.00000000000E+00 -0.61606894903E+03  0.61606894903E+03  0.00000000000E+00 0.  1.
         25    1    1    2    0    0 -0.22850337492E+03  0.32671100859E+01 -0.45324089977E+03  0.52275881588E+03  0.12500000000E+03 0.  0.
         21    1    1    2  503  502  0.22850337492E+03 -0.32671100859E+01 -0.26123208190E+02  0.23001497421E+03  0.00000000000E+00 0.  1.
<mgrwt>
<rscale>  3 0.58041229E+03</rscale>
<asrwt>0</asrwt>
<pdfrwt beam="1">  1       21 0.21031514E-01 0.58041229E+03</pdfrwt>
<pdfrwt beam="2">  1       21 0.94779838E-01 0.58041229E+03</pdfrwt>
<totfact> 0.17068985E+04</totfact>
</mgrwt>
</event>
<event>
 4    0  0.1775285E-001  0.6379243E+03  0.7546771E-02  0.9829706E-01
         21   -1    0    0  502  501  0.00000000000E+00  0.00000000000E+00  0.10744649321E+04  0.10744649321E+04  0.00000000000E+00 0.  1.
         21   -1    0    0  503  502 -0.00000000000E+00 -0.00000000000E+00 -0.94686055839E+02  0.94686055839E+02  0.00000000000E+00 0.  1.
         25    1    1    2    0    0  0.25676311841E+03  0.16776814370E+03  0.51041876614E+03  0.60846180311E+03  0.12500000000E+03 0.  0.
         21    1    1    2  503  501 -0.25676311841E+03 -0.16776814370E+03  0.46936011014E+03  0.56068918485E+03  0.00000000000E+00 0.  1.
<mgrwt>
<rscale>  3 0.63792428E+03</rscale>
<asrwt>0</asrwt>
<pdfrwt beam="1">  1       21 0.16530229E+00 0.63792428E+03</pdfrwt>
<pdfrwt beam="2">  1       21 0.14567086E-01 0.63792428E+03</pdfrwt>
<totfact> 0.79246895E+03</totfact>
</mgrwt>
</event>
<event>
 4    0  0.1775285E-001  0.4453129E+03  0.7546771E-02  0.1029129E+00
         21   -1    0    0  502  501  0.00000000000E+00  0.00000000000E+00  0.51620735383E+02  0.51620735383E+02  0.00000000000E+00 0.  1.
         21   -1    0    0  503  502 -0.00000000000E+00 -0.00000000000E+00 -0.96038740151E+03  0.96038740151E+03  0.00000000000E+00 0.  1.
         25    1    1    2    0    0  0.17904937448E+03 -0.99071111320E+02 -0.52211737541E+03  0.57454792429E+03  0.12500000000E+03 0.  0.
         21    1    1    2  503  501 -0.17904937448E+03  0.99071111320E+02 -0.38664929072E+03  0.43746021261E+03  0.00000000000E+00 0.  1.
<mgrwt>
<rscale>  3 0.44531294E+03</rscale>
<asrwt>0</asrwt>
<pdfrwt beam="1">  1       21 0.79416524E-02 0.44531294E+03</pdfrwt>
<pdfrwt beam="2">  1       21 0.14775189E+00 0.44531294E+03</pdfrwt>
<totfact> 0.34169321E+04</totfact>
</mgrwt>
</event>
<event>
 4    0  0.1775285E-001  0.4491073E+03  0.7546771E-02  0.1027989E+00
         21   -1    0    0  502  501  0.00000000000E+00  0.00000000000E+00  0.41130813499E+03  0.41130813499E+03  0.00000000000E+00 0. -1.
         21   -1    0    0  503  502 -0.00000000000E+00 -0.00000000000E+00 -0.12259502641E+03  0.12259502641E+03  0.00000000000E+00 0. -1.
         25    1    1    2    0    0 -0.18646770795E+03  0.89442097662E+02  0.14125673682E+03  0.27990812893E+03  0.12500000000E+03 0.  0.
         21    1    1    2  503  501  0.18646770795E+03 -0.89442097662E+02  0.14745637177E+03  0.25399503247E+03  0.00000000000E+00 0. -1.
<mgrwt>
<rscale>  3 0.44910726E+03</rscale>
<asrwt>0</asrwt>
<pdfrwt beam="1">  1       21 0.63278174E-01 0.44910726E+03</pdfrwt>
<pdfrwt beam="2">  1       21 0.18860773E-01 0.44910726E+03</pdfrwt>
<totfact> 0.54846850E+04</totfact>
</mgrwt>
</event>
<event>
 4    0  0.1775285E-001  0.5587075E+03  0.7546771E-02  0.9994983E-01
         21   -1    0    0  503  501  0.00000000000E+00  0.00000000000E+00  0.10695575102E+03  0.10695575102E+03  0.00000000000E+00 0. -1.
         21   -1    0    0  501  502 -0.00000000000E+00 -0.00000000000E+00 -0.72963373906E+03  0.72963373906E+03  0.00000000000E+00 0. -1.
         25    1    1    2    0    0 -0.16517132484E+03  0.19945954421E+03 -0.24018089842E+03  0.37466990844E+03  0.12500000000E+03 0.  0.
         21    1    1    2  503  502  0.16517132484E+03 -0.19945954421E+03 -0.38249708962E+03  0.46191958163E+03  0.00000000000E+00 0. -1.
<mgrwt>
<rscale>  3 0.55870752E+03</rscale>
<asrwt>0</asrwt>
<pdfrwt beam="1">  1       21 0.16454731E-01 0.55870752E+03</pdfrwt>
<pdfrwt beam="2">  1       21 0.11225134E+00 0.55870752E+03</pdfrwt>
<totfact> 0.18019309E+04</totfact>
</mgrwt>
</event>
<event>
 4    0  0.1775285E-001  0.5101695E+03  0.7546771E-02  0.1011158E+00
         21   -1    0    0  503  501  0.00000000000E+00  0.00000000000E+00  0.10772091267E+03  0.10772091267E+03  0.00000000000E+00 0. -1.
         21   -1    0    0  501  502 -0.00000000000E+00 -0.00000000000E+00 -0.60404443391E+03  0.60404443391E+03  0.00000000000E+00 0. -1.
         25    1    1    2    0    0 -0.18866673191E+03  0.13477726787E+03 -0.34826898620E+03  0.43666501395E+03  0.12500000000E+03 0.  0.
         21    1    1    2  503  502  0.18866673191E+03 -0.13477726787E+03 -0.14805453504E+03  0.27510033262E+03  0.00000000000E+00 0. -1.
<mgrwt>
<rscale>  3 0.51016945E+03</rscale>
<asrwt>0</asrwt>
<pdfrwt beam="1">  1       21 0.16572448E-01 0.51016945E+03</pdfrwt>
<pdfrwt beam="2">  1       21 0.92929913E-01 0.51016945E+03</pdfrwt>
<totfact> 0.28561403E+04</totfact>
</mgrwt>
</event>
<event>
 4    0  0.1775285E-001  0.4972129E+03  0.7546771E-02  0.1014509E+00
         21   -1    0    0  503  501  0.00000000000E+00  0.00000000000E+00  0.36796925450E+03  0.36796925450E+03  0.00000000000E+00 0.  1.
         21   -1    0    0  501  502 -0.00000000000E+00 -0.00000000000E+00 -0.16796283910E+03  0.16796283910E+03  0.00000000000E+00 0.  1.
         25    1    1    2    0    0  0.19241734629E+03  0.13097853756E+03  0.97993067505E+02  0.28179328191E+03  0.12500000000E+03 0.  0.
         21    1    1    2  503  502 -0.19241734629E+03 -0.13097853756E+03  0.10201334790E+03  0.25413881168E+03  0.00000000000E+00 0.  1.
<mgrwt>
<rscale>  3 0.49721287E+03</rscale>
<asrwt>0</asrwt>
<pdfrwt beam="1">  1       21 0.56610655E-01 0.49721287E+03</pdfrwt>
<pdfrwt beam="2">  1       21 0.25840437E-01 0.49721287E+03</pdfrwt>
<totfact> 0.37817640E+04</totfact>
</mgrwt>
</event>
<event>
 4    0  0.1775285E-001  0.4508684E+03  0.7546771E-02  0.1027463E+00
         21   -1    0    0  502  501  0.00000000000E+00  0.00000000000E+00  0.15410793437E+04  0.15410793437E+04  0.00000000000E+00 0. -1.
         21   -1    0    0  503  502 -0.00000000000E+00 -0.00000000000E+00 -0.32977268213E+02  0.32977268213E+02  0.00000000000E+00 0. -1.
         25    1    1    2    0    0 -0.12733843900E+03  0.16450236766E+03  0.83182932550E+03  0.86651089651E+03  0.12500000000E+03 0.  0.
         21    1    1    2  503  501  0.12733843900E+03 -0.16450236766E+03  0.67627275003E+03  0.70754571544E+03  0.00000000000E+00 0. -1.
<mgrwt>
<rscale>  3 0.45086844E+03</rscale>
<asrwt>0</asrwt>
<pdfrwt beam="1">  1       21 0.23708907E+00 0.45086844E+03</pdfrwt>
<pdfrwt beam="2">  1       21 0.50734271E-02 0.45086844E+03</pdfrwt>
<totfact> 0.18086879E+04</totfact>
</mgrwt>
</event>
<event>
 4    0  0.1775285E-001  0.5783560E+03  0.7546771E-02  0.9951357E-01
         21   -1    0    0  503  501  0.00000000000E+00  0.00000000000E+00  0.50792356458E+03  0.50792356458E+03  0.00000000000E+00 0.  1.
         21   -1    0    0  501  502 -0.00000000000E+00 -0.00000000000E+00 -0.16463878481E+03  0.16463878481E+03  0.00000000000E+00 0.  1.
         25    1    1    2    0    0 -0.27480178358E+03 -0.47296885728E+00  0.20507512224E+03  0.36496170994E+03  0.12500000000E+03 0.  0.
         21    1    1    2  503  502  0.27480178358E+03  0.47296885728E+00  0.13820965753E+03  0.30760063945E+03  0.00000000000E+00 0.  1.
<mgrwt>
<rscale>  3 0.57835601E+03</rscale>
<asrwt>0</asrwt>
<pdfrwt beam="1">  1       21 0.78142086E-01 0.57835601E+03</pdfrwt>
<pdfrwt beam="2">  1       21 0.25329044E-01 0.57835601E+03</pdfrwt>
<totfact> 0.18778085E+04</totfact>
</mgrwt>
</event>
<event>
 4    0  0.1775285E-001  0.6123825E+03  0.7546771E-02  0.9880044E-01
         21   -1    0    0  502  501  0.00000000000E+00  0.00000000000E+00  0.24368063040E+03  0.24368063040E+03  0.00000000000E+00 0.  1.
         21   -1    0    0  503  502 -0.00000000000E+00 -0.00000000000E+00 -0.38473750688E+03  0.38473750688E+03  0.00000000000E+00 0.  1.
         25    1    1    2    0    0 -0.17876699782E+03  0.14363654913E+03  0.11439569338E+03  0.28513237701E+03  0.12500000000E+03 0.  0.
         21    1    1    2  503  501  0.17876699782E+03 -0.14363654913E+03 -0.25545256986E+03  0.34328576027E+03  0.00000000000E+00 0.  1.
<mgrwt>
<rscale>  3 0.61238249E+03</rscale>
<asrwt>0</asrwt>
<pdfrwt beam="1">  1       21 0.37489328E-01 0.61238249E+03</pdfrwt>
<pdfrwt beam="2">  1       21 0.59190386E-01 0.61238249E+03</pdfrwt>
<totfact> 0.15897022E+04</totfact>
</mgrwt>
</event>
<event>
 4    0  0.1775285E-001  0.4939841E+03  0.7546771E-02  0.1015361E+00
         21   -1    0    0  502  501  0.00000000000E+00  0.00000000000E+00  0.51882552498E+03  0.51882552498E+03  0.00000000000E+00 0.  1.
         21   -1    0    0  503  502 -0.00000000000E+00 -0.00000000000E+00 -0.11758303650E+03  0.11758303650E+03  0.00000000000E+00 0.  1.
         25    1    1    2    0    0  0.94252753869E+02  0.20566757758E+03  0.27471285498E+03  0.37719343415E+03  0.12500000000E+03 0.  0.
         21    1    1    2  503  501 -0.94252753869E+02 -0.20566757758E+03  0.12652963351E+03  0.25921512733E+03  0.00000000000E+00 0.  1.
<mgrwt>
<rscale>  3 0.49398413E+03</rscale>
<asrwt>0</asrwt>
<pdfrwt beam="1">  1       21 0.79819310E-01 0.49398413E+03</pdfrwt>
<pdfrwt beam="2">  1       21 0.18089698E-01 0.49398413E+03</pdfrwt>
<totfact> 0.34763588E+04</totfact>
</mgrwt>
</event>
<event>
 4    0  0.1775285E-001  0.4557966E+03  0.7546771E-02  0.1026007E+00
         21   -1    0    0  502  501  0.00000000000E+00  0.00000000000E+00  0.15719700951E+03  0.15719700951E+03  0.00000000000E+00 0.  1.
         21   -1    0    0  503  502 -0.00000000000E+00 -0.00000000000E+00 -0.33039832510E+03  0.33039832510E+03  0.00000000000E+00 0.  1.
         25    1    1    2    0    0  0.19742574830E+03 -0.51193544678E+02 -0.36293236420E+02  0.24195021000E+03  0.12500000000E+03 0.  0.
         21    1    1    2  503  501 -0.19742574830E+03  0.51193544678E+02 -0.13690807917E+03  0.24564512462E+03  0.00000000000E+00 0.  1.
<mgrwt>
<rscale>  3 0.45579657E+03</rscale>
<asrwt>0</asrwt>
<pdfrwt beam="1">  1       21 0.24184155E-01 0.45579657E+03</pdfrwt>
<pdfrwt beam="2">  1       21 0.50830511E-01 0.45579657E+03</pdfrwt>
<totfact> 0.54728382E+04</totfact>
</mgrwt>
</event>
<event>
 4    0  0.1775285E-001  0.7995960E+03  0.7546771E-02  0.9560602E-01
         21   -1    0    0  502  501  0.00000000000E+00  0.00000000000E+00  0.28092727827E+03  0.28092727827E+03  0.00000000000E+00 0. -1.
         21   -1    0    0  503  502 -0.00000000000E+00 -0.00000000000E+00 -0.56896735281E+03  0.56896735281E+03  0.00000000000E+00 0. -1.
         25    1    1    2    0    0 -0.15164680628E+03 -0.32486188736E+03 -0.31078964751E+03  0.49065996852E+03  0.12500000000E+03 0.  0.
         21    1    1    2  503  501  0.15164680628E+03  0.32486188736E+03  0.22749572972E+02  0.35923466256E+03  0.00000000000E+00 0. -1.
<mgrwt>
<rscale>  3 0.79959602E+03</rscale>
<asrwt>0</asrwt>
<pdfrwt beam="1">  1       21 0.43219581E-01 0.79959602E+03</pdfrwt>
<pdfrwt beam="2">  1       21 0.87533439E-01 0.79959602E+03</pdfrwt>
<totfact> 0.46620288E+03</totfact>
</mgrwt>
</event>
<event>
 4    0  0.1775285E-001  0.5720234E+03  0.7546771E-02  0.9965211E-01
         21   -1    0    0  502  501  0.00000000000E+00  0.00000000000E+00  0.49655962101E+03  0.49655962101E+03  0.00000000000E+00 0.  1.
         21   -1    0    0  503  502 -0.00000000000E+00 -0.00000000000E+00 -0.16473892891E+03  0.16473892891E+03  0.00000000000E+00 0.  1.
         25    1    1    2    0    0  0.23569285462E+03 -0.10419101932E+02  0.16518075997E+02  0.26750238548E+03  0.12500000000E+03 0.  0.
         21    1    1    2  503  501 -0.23569285462E+03  0.10419101932E+02  0.31530261610E+03  0.39379616444E+03  0.00000000000E+00 0.  1.
<mgrwt>
<rscale>  3 0.57202343E+03</rscale>
<asrwt>0</asrwt>
<pdfrwt beam="1">  1       21 0.76393787E-01 0.57202343E+03</pdfrwt>
<pdfrwt beam="2">  1       21 0.25344451E-01 0.57202343E+03</pdfrwt>
<totfact> 0.19786838E+04</totfact>
</mgrwt>
</event>
<event>
 4    0  0.1775285E-001  0.4432293E+03  0.7546771E-02  0.1029761E+00
         21   -1    0    0  503  501  0.00000000000E+00  0.00000000000E+00  0.30749391780E+03  0.30749391780E+03  0.00000000000E+00 0. -1.
         21   -1    0    0  501  502 -0.00000000000E+00 -0.00000000000E+00 -0.15972039808E+03  0.15972039808E+03  0.00000000000E+00 0. -1.
         25    1    1    2    0    0 -0.23107730773E+02 -0.20207027626E+03  0.96258671588E+02  0.25740453692E+03  0.12500000000E+03 0.  0.
         21    1    1    2  503  502  0.23107730773E+02  0.20207027626E+03  0.51514848128E+02  0.20980977896E+03  0.00000000000E+00 0. -1.
<mgrwt>
<rscale>  3 0.44322929E+03</rscale>
<asrwt>0</asrwt>
<pdfrwt beam="1">  1       21 0.47306756E-01 0.44322929E+03</pdfrwt>
<pdfrwt beam="2">  1       21 0.24572369E-01 0.44322929E+03</pdfrwt>
<totfact> 0.61960639E+04</totfact>
</mgrwt>
</event>
<event>
 4    0  0.1775285E-001  0.4969037E+03  0.7546771E-02  0.1014590E+00
         21   -1    0    0  502  501  0.00000000000E+00  0.00000000000E+00  0.63636007048E+03  0.63636007048E+03  0.00000000000E+00 0.  1.
         21   -1    0    0  503  502 -0.00000000000E+00 -0.00000000000E+00 -0.97002177320E+02  0.97002177320E+02  0.00000000000E+00 0.  1.
         25    1    1    2    0    0 -0.22959395308E+02 -0.22179252963E+03  0.18835918173E+03  0.31752675694E+03  0.12500000000E+03 0.  0.
         21    1    1    2  503  501  0.22959395308E+02  0.22179252963E+03  0.35099871142E+03  0.41583549085E+03  0.00000000000E+00 0.  1.
<mgrwt>
<rscale>  3 0.49690366E+03</rscale>
<asrwt>0</asrwt>
<pdfrwt beam="1">  1       21 0.97901547E-01 0.49690366E+03</pdfrwt>
<pdfrwt beam="2">  1       21 0.14923412E-01 0.49690366E+03</pdfrwt>
<totfact> 0.30729403E+04</totfact>
</mgrwt>
</event>
<event>
 4    0  0.1775285E-001  0.5307102E+03  0.7546771E-02  0.1006060E+00
         21   -1    0    0  502  501  0.00000000000E+00  0.00000000000E+00  0.16950438500E+04  0.16950438500E+04  0.00000000000E+00 0. -1.
         21   -1    0    0  503  502 -0.00000000000E+00 -0.00000000000E+00 -0.41540717054E+02  0.41540717054E+02  0.00000000000E+00 0. -1.
         25    1    1    2    0    0 -0.10819709517E+03  0.22596511191E+03  0.89591499217E+03  0.93864557550E+03  0.12500000000E+03 0.  0.
         21    1    1    2  503  501  0.10819709517E+03 -0.22596511191E+03  0.75758814079E+03  0.79793899157E+03  0.00000000000E+00 0. -1.
<mgrwt>
<rscale>  3 0.53071023E+03</rscale>
<asrwt>0</asrwt>
<pdfrwt beam="1">  1       21 0.26077592E+00 0.53071023E+03</pdfrwt>
<pdfrwt beam="2">  1       21 0.63908809E-02 0.53071023E+03</pdfrwt>
<totfact> 0.84026106E+03</totfact>
</mgrwt>
</event>
<event>
 4    0  0.1775285E-001  0.7017434E+03  0.7546771E-02  0.9714255E-01
         21   -1    0    0  503  501  0.00000000000E+00  0.00000000000E+00  0.12999204223E+04  0.12999204223E+04  0.00000000000E+00 0. -1.
         21   -1    0    0  501  502 -0.00000000000E+00 -0.00000000000E+00 -0.94706522995E+02  0.94706522995E+02  0.00000000000E+00 0. -1.
         25    1    1    2    0    0 -0.15281477609E+02 -0.33872616065E+03  0.57940743245E+03  0.68286668409E+03  0.12500000000E+03 0.  0.
         21    1    1    2  503  502  0.15281477609E+02  0.33872616065E+03  0.62580646682E+03  0.71176026116E+03  0.00000000000E+00 0. -1.
<mgrwt>
<rscale>  3 0.70174338E+03</rscale>
<asrwt>0</asrwt>
<pdfrwt beam="1">  1       21 0.19998774E+00 0.70174338E+03</pdfrwt>
<pdfrwt beam="2">  1       21 0.14570235E-01 0.70174338E+03</pdfrwt>
<totfact> 0.44209129E+03</totfact>
</mgrwt>
</event>
<event>
 4    0  0.1775285E-001  0.4707711E+03  0.7546771E-02  0.1021703E+00
         21   -1    0    0  502  501  0.00000000000E+00  0.00000000000E+00  0.26671237775E+03  0.26671237775E+03  0.00000000000E+00 0. -1.
         21   -1    0    0  503  502 -0.00000000000E+00 -0.00000000000E+00 -0.20773820144E+03  0.20773820144E+03  0.00000000000E+00 0. -1.
         25    1    1    2    0    0  0.13450544608E+03  0.16184964167E+03 -0.28753513759E+02  0.24645240126E+03  0.12500000000E+03 0.  0.
         21    1    1    2  503  501 -0.13450544608E+03 -0.16184964167E+03  0.87727690076E+02  0.22799817793E+03  0.00000000000E+00 0. -1.
<mgrwt>
<rscale>  3 0.47077107E+03</rscale>
<asrwt>0</asrwt>
<pdfrwt beam="1">  1       21 0.41032673E-01 0.47077107E+03</pdfrwt>
<pdfrwt beam="2">  1       21 0.31959723E-01 0.47077107E+03</pdfrwt>
<totfact> 0.49387137E+04</totfact>
</mgrwt>
</event>
<event>
 4    0  0.1775285E-001  0.4848075E+03  0.7546771E-02  0.1017822E+00
         21   -1    0    0  503  501  0.00000000000E+00  0.00000000000E+00  0.68914930841E+03  0.68914930841E+03  0.00000000000E+00 0. -1.
         21   -1    0    0  501  502 -0.00000000000E+00 -0.00000000000E+00 -0.85263939013E+02  0.85263939013E+02  0.00000000000E+00 0. -1.
         25    1    1    2    0    0 -0.11431589532E+03  0.17642290213E+03  0.45579008393E+03  0.51726469523E+03  0.12500000000E+03 0.  0.
         21    1    1    2  503  502  0.11431589532E+03 -0.17642290213E+03  0.14809528547E+03  0.25714855220E+03  0.00000000000E+00 0. -1.
<mgrwt>
<rscale>  3 0.48480753E+03</rscale>
<asrwt>0</asrwt>
<pdfrwt beam="1">  1       21 0.10602297E+00 0.48480753E+03</pdfrwt>
<pdfrwt beam="2">  1       21 0.13117530E-01 0.48480753E+03</pdfrwt>
<totfact> 0.32176071E+04</totfact>
</mgrwt>
</event>
<event>
 4    0  0.1775285E-001  0.4372037E+03  0.7546771E-02  0.1031608E+00
         21   -1    0    0  503  501  0.00000000000E+00  0.00000000000E+00  0.97102736384E+03  0.97102736384E+03  0.00000000000E+00 0. -1.
         21   -1    0    0  501  502 -0.00000000000E+00 -0.00000000000E+00 -0.49212584081E+02  0.49212584081E+02  0.00000000000E+00 0. -1.
         25    1    1    2    0    0 -0.43066748632E+02 -0.19565518617E+03  0.46926237068E+03  0.52532644065E+03  0.12500000000E+03 0.  0.
         21    1    1    2  503  502  0.43066748632E+02  0.19565518617E+03  0.45255240908E+03  0.49491350727E+03  0.00000000000E+00 0. -1.
<mgrwt>
<rscale>  3 0.43720369E+03</rscale>
<asrwt>0</asrwt>
<pdfrwt beam="1">  1       21 0.14938881E+00 0.43720369E+03</pdfrwt>
<pdfrwt beam="2">  1       21 0.75711675E-02 0.43720369E+03</pdfrwt>
<totfact> 0.36168658E+04</totfact>
</mgrwt>
</event>
<event>
 4    0  0.1775285E-001  0.4367090E+03  0.7546771E-02  0.1031761E+00
         21   -1    0    0  502  501  0.00000000000E+00  0.00000000000E+00  0.18124634550E+02  0.18124634550E+02  0.00000000000E+00 0. -1.
         21   -1    0    0  503  502 -0.00000000000E+00 -0.00000000000E+00 -0.26306010849E+04  0.26306010849E+04  0.00000000000E+00 0. -1.
         25    1    1    2    0    0 -0.15542104069E+03 -0.12661143890E+03 -0.14147513163E+04  0.14343404210E+04  0.12500000000E+03 0.  0.
         21    1    1    2  503  501  0.15542104069E+03  0.12661143890E+03 -0.11977251341E+04  0.12143852985E+04  0.00000000000E+00 0.  1.
<mgrwt>
<rscale>  3 0.43670898E+03</rscale>
<asrwt>0</asrwt>
<pdfrwt beam="1">  1       21 0.27884066E-02 0.43670898E+03</pdfrwt>
<pdfrwt beam="2">  1       21 0.40470767E+00 0.43670898E+03</pdfrwt>
<totfact> 0.47208960E+03</totfact>
</mgrwt>
</event>
<event>
 4    0  0.1775285E-001  0.6522859E+03  0.7546771E-02  0.9802499E-01
         21   -1    0    0  502  501  0.00000000000E+00  0.00000000000E+00  0.12459850886E+04  0.12459850886E+04  0.00000000000E+00 0.  1.
         21   -1    0    0  503  502 -0.00000000000E+00 -0.00000000000E+00 -0.85369591327E+02  0.85369591327E+02  0.00000000000E+00 0.  1.
         25    1    1    2    0    0  0.80067513840E+02 -0.21254648726E+03  0.10446432830E+04  0.10763323858E+04  0.12500000000E+03 0.  0.
         21    1    1    2  503  501 -0.80067513840E+02  0.21254648726E+03  0.11597221428E+03  0.25502229413E+03  0.00000000000E+00 0.  1.
<mgrwt>
<rscale>  3 0.65228594E+03</rscale>
<asrwt>0</asrwt>
<pdfrwt beam="1">  1       21 0.19169000E+00 0.65228594E+03</pdfrwt>
<pdfrwt beam="2">  1       21 0.13133784E-01 0.65228594E+03</pdfrwt>
<totfact> 0.61864257E+03</totfact>
</mgrwt>
</event>
<event>
 4    0  0.1775285E-001  0.4507746E+03  0.7546771E-02  0.1027491E+00
         21   -1    0    0  503  501  0.00000000000E+00  0.00000000000E+00  0.14965726103E+03  0.14965726103E+03  0.00000000000E+00 0.  1.
         21   -1    0    0  501  502 -0.00000000000E+00 -0.00000000000E+00 -0.33943847450E+03  0.33943847450E+03  0.00000000000E+00 0.  1.
         25    1    1    2    0    0  0.16791816993E+03  0.12146963636E+03 -0.12207353512E+03  0.27106887008E+03  0.12500000000E+03 0.  0.
         21    1    1    2  503  502 -0.16791816993E+03 -0.12146963636E+03 -0.67707678341E+02  0.21802686545E+03  0.00000000000E+00 0.  1.
<mgrwt>
<rscale>  3 0.45077459E+03</rscale>
<asrwt>0</asrwt>
<pdfrwt beam="1">  1       21 0.23024194E-01 0.45077459E+03</pdfrwt>
<pdfrwt beam="2">  1       21 0.52221303E-01 0.45077459E+03</pdfrwt>
<totfact> 0.56874099E+04</totfact>
</mgrwt>
</event>
<event>
 4    0  0.1775285E-001  0.4931974E+03  0.7546771E-02  0.1015570E+00
         21   -1    0    0  502  501  0.00000000000E+00  0.00000000000E+00  0.11608383426E+03  0.11608383426E+03  0.00000000000E+00 0. -1.
         21   -1    0    0  503  502 -0.00000000000E+00 -0.00000000000E+00 -0.52385346770E+03  0.52385346770E+03  0.00000000000E+00 0. -1.
         25    1    1    2    0    0 -0.13562317505E+03  0.17462623269E+03 -0.13129192021E+03  0.28592050481E+03  0.12500000000E+03 0.  0.
         21    1    1    2  503  501  0.13562317505E+03 -0.17462623269E+03 -0.27647771323E+03  0.35401679715E+03  0.00000000000E+00 0. -1.
<mgrwt>
<rscale>  3 0.49319740E+03</rscale>
<asrwt>0</asrwt>
<pdfrwt beam="1">  1       21 0.17859052E-01 0.49319740E+03</pdfrwt>
<pdfrwt beam="2">  1       21 0.80592840E-01 0.49319740E+03</pdfrwt>
<totfact> 0.34834802E+04</totfact>
</mgrwt>
</event>
<event>
 4    0  0.1775285E-001  0.5765173E+03  0.7546771E-02  0.9955359E-01
         21   -1    0    0  503  501  0.00000000000E+00  0.00000000000E+00  0.14124592693E+03  0.14124592693E+03  0.00000000000E+00 0.  1.
         21   -1    0    0  501  502 -0.00000000000E+00 -0.00000000000E+00 -0.58828643820E+03  0.58828643820E+03  0.00000000000E+00 0.  1.
         25    1    1    2    0    0 -0.14000790784E+03 -0.21091037922E+03 -0.36901145593E+03  0.46462873020E+03  0.12500000000E+03 0.  0.
         21    1    1    2  503  502  0.14000790784E+03  0.21091037922E+03 -0.78029055338E+02  0.26490363493E+03  0.00000000000E+00 0.  1.
<mgrwt>
<rscale>  3 0.57651735E+03</rscale>
<asrwt>0</asrwt>
<pdfrwt beam="1">  1       21 0.21730142E-01 0.57651735E+03</pdfrwt>
<pdfrwt beam="2">  1       21 0.90505607E-01 0.57651735E+03</pdfrwt>
<totfact> 0.17918763E+04</totfact>
</mgrwt>
</event>
<event>
 4    0  0.1775285E-001  0.5363470E+03  0.7546771E-02  0.1004704E+00
         21   -1    0    0  503  501  0.00000000000E+00  0.00000000000E+00  0.10400371289E+04  0.10400371289E+04  0.00000000000E+00 0. -1.
         21   -1    0    0  501  502 -0.00000000000E+00 -0.00000000000E+00 -0.69148527002E+02  0.69148527002E+02  0.00000000000E+00 0. -1.
         25    1    1    2    0    0 -0.14288810860E+03 -0.20756693710E+03  0.45274897501E+03  0.53301752253E+03  0.12500000000E+03 0.  0.
         21    1    1    2  503  502  0.14288810860E+03  0.20756693710E+03  0.51813962692E+03  0.57616813340E+03  0.00000000000E+00 0. -1.
<mgrwt>
<rscale>  3 0.53634704E+03</rscale>
<asrwt>0</asrwt>
<pdfrwt beam="1">  1       21 0.16000570E+00 0.53634704E+03</pdfrwt>
<pdfrwt beam="2">  1       21 0.10638236E-01 0.53634704E+03</pdfrwt>
<totfact> 0.15871606E+04</totfact>
</mgrwt>
</event>
<event>
 4    0  0.1775285E-001  0.4494861E+03  0.7546771E-02  0.1027875E+00
         21   -1    0    0  503  501  0.00000000000E+00  0.00000000000E+00  0.96459458290E+02  0.96459458290E+02  0.00000000000E+00 0. -1.
         21   -1    0    0  501  502 -0.00000000000E+00 -0.00000000000E+00 -0.52363397294E+03  0.52363397294E+03  0.00000000000E+00 0. -1.
         25    1    1    2    0    0  0.18339255082E+03  0.93575977971E+02 -0.19603964457E+03  0.31055729519E+03  0.12500000000E+03 0.  0.
         21    1    1    2  503  502 -0.18339255082E+03 -0.93575977971E+02 -0.23113487008E+03  0.30953613604E+03  0.00000000000E+00 0. -1.
<mgrwt>
<rscale>  3 0.44948615E+03</rscale>
<asrwt>0</asrwt>
<pdfrwt beam="1">  1       21 0.14839916E-01 0.44948615E+03</pdfrwt>
<pdfrwt beam="2">  1       21 0.80559074E-01 0.44948615E+03</pdfrwt>
<totfact> 0.49771605E+04</totfact>
</mgrwt>
</event>
<event>
 4    0  0.1775285E-001  0.4822471E+03  0.7546771E-02  0.1018519E+00
         21   -1    0    0  503  501  0.00000000000E+00  0.00000000000E+00  0.77043856104E+02  0.77043856104E+02  0.00000000000E+00 0.  1.
         21   -1    0    0  501  502 -0.00000000000E+00 -0.00000000000E+00 -0.75464235268E+03  0.75464235268E+03  0.00000000000E+00 0.  1.
         25    1    1    2    0    0  0.18533708358E+03 -0.12742058337E+03 -0.35783750257E+03  0.44074768049E+03  0.12500000000E+03 0.  0.
         21    1    1    2  503  502 -0.18533708358E+03  0.12742058337E+03 -0.31976099401E+03  0.39093852829E+03  0.00000000000E+00 0.  1.
<mgrwt>
<rscale>  3 0.48224706E+03</rscale>
<asrwt>0</asrwt>
<pdfrwt beam="1">  1       21 0.11852901E-01 0.48224706E+03</pdfrwt>
<pdfrwt beam="2">  1       21 0.11609882E+00 0.48224706E+03</pdfrwt>
<totfact> 0.30916686E+04</totfact>
</mgrwt>
</event>
<event>
 4    0  0.1775285E-001  0.5518025E+03  0.7546771E-02  0.1001078E+00
         21   -1    0    0  502  501  0.00000000000E+00  0.00000000000E+00  0.37084074361E+03  0.37084074361E+03  0.00000000000E+00 0. -1.
         21   -1    0    0  503  502 -0.00000000000E+00 -0.00000000000E+00 -0.20526736752E+03  0.20526736752E+03  0.00000000000E+00 0. -1.
         25    1    1    2    0    0 -0.25035776549E+03  0.72127925854E+02  0.60871046086E+02  0.29531632647E+03  0.12500000000E+03 0.  0.
         21    1    1    2  503  501  0.25035776549E+03 -0.72127925854E+02  0.10470233001E+03  0.28079178467E+03  0.00000000000E+00 0. -1.
<mgrwt>
<rscale>  3 0.55180251E+03</rscale>
<asrwt>0</asrwt>
<pdfrwt beam="1">  1       21 0.57052422E-01 0.55180251E+03</pdfrwt>
<pdfrwt beam="2">  1       21 0.31579595E-01 0.55180251E+03</pdfrwt>
<totfact> 0.24709210E+04</totfact>
</mgrwt>
</event>
<event>
 4    0  0.1775285E-001  0.4604805E+03  0.7546771E-02  0.1024642E+00
         21   -1    0    0  502  501  0.00000000000E+00  0.00000000000E+00  0.51056100538E+02  0.51056100538E+02  0.00000000000E+00 0.  1.
         21   -1    0    0  503  502 -0.00000000000E+00 -0.00000000000E+00 -0.10382807455E+04  0.10382807455E+04  0.00000000000E+00 0.  1.
         25    1    1    2    0    0  0.18087679633E+03 -0.11110664166E+03 -0.57874392366E+03  0.62899175706E+03  0.12500000000E+03 0.  0.
         21    1    1    2  503  501 -0.18087679633E+03  0.11110664166E+03 -0.40848072131E+03  0.46034508899E+03  0.00000000000E+00 0.  1.
<mgrwt>
<rscale>  3 0.46048047E+03</rscale>
<asrwt>0</asrwt>
<pdfrwt beam="1">  1       21 0.78547850E-02 0.46048047E+03</pdfrwt>
<pdfrwt beam="2">  1       21 0.15973549E+00 0.46048047E+03</pdfrwt>
<totfact> 0.28018707E+04</totfact>
</mgrwt>
</event>
<event>
 4    0  0.1775285E-001  0.4917422E+03  0.7546771E-02  0.1015957E+00
         21   -1    0    0  503  501  0.00000000000E+00  0.00000000000E+00  0.35456718340E+03  0.35456718340E+03  0.00000000000E+00 0.  1.
         21   -1    0    0  501  502 -0.00000000000E+00 -0.00000000000E+00 -0.17049689481E+03  0.17049689481E+03  0.00000000000E+00 0.  1.
         25    1    1    2    0    0  0.10563782527E+03  0.20250119111E+03  0.12676089682E+03  0.28958488823E+03  0.12500000000E+03 0.  0.
         21    1    1    2  503  502 -0.10563782527E+03 -0.20250119111E+03  0.57309391775E+02  0.23547918998E+03  0.00000000000E+00 0.  1.
<mgrwt>
<rscale>  3 0.49174222E+03</rscale>
<asrwt>0</asrwt>
<pdfrwt beam="1">  1       21 0.54548798E-01 0.49174222E+03</pdfrwt>
<pdfrwt beam="2">  1       21 0.26230291E-01 0.49174222E+03</pdfrwt>
<totfact> 0.39844449E+04</totfact>
</mgrwt>
</event>
<event>
 4    0  0.1775285E-001  0.5314513E+03  0.7546771E-02  0.1005881E+00
         21   -1    0    0  502  501  0.00000000000E+00  0.00000000000E+00  0.31310511124E+03  0.31310511124E+03  0.00000000000E+00 0.  1.
         21   -1    0    0  503  502 -0.00000000000E+00 -0.00000000000E+00 -0.22551566771E+03  0.22551566771E+03  0.00000000000E+00 0.  1.
         25    1    1    2    0    0  0.26661630685E+02 -0.24449373769E+03 -0.47165868449E+01  0.27592621570E+03  0.12500000000E+03 0.  0.
         21    1    1    2  503  501 -0.26661630685E+02  0.24449373769E+03  0.92306030369E+02  0.26269456325E+03  0.00000000000E+00 0.  1.
<mgrwt>
<rscale>  3 0.53145125E+03</rscale>
<asrwt>0</asrwt>
<pdfrwt beam="1">  1       21 0.48170017E-01 0.53145125E+03</pdfrwt>
<pdfrwt beam="2">  1       21 0.34694718E-01 0.53145125E+03</pdfrwt>
<totfact> 0.29534721E+04</totfact>
</mgrwt>
</event>
<event>
 4    0  0.1775285E-001  0.4629589E+03  0.7546771E-02  0.1023927E+00
         21   -1    0    0  502  501  0.00000000000E+00  0.00000000000E+00  0.21866090521E+03  0.21866090521E+03  0.00000000000E+00 0. -1.
         21   -1    0    0  503  502 -0.00000000000E+00 -0.00000000000E+00 -0.24504944932E+03  0.24504944932E+03  0.00000000000E+00 0. -1.
         25    1    1    2    0    0 -0.17780123004E+03  0.94955286233E+02  0.59619506141E+02  0.24455933697E+03  0.12500000000E+03 0.  0.
         21    1    1    2  503  501  0.17780123004E+03 -0.94955286233E+02 -0.86008050252E+02  0.21915101756E+03  0.00000000000E+00 0.  1.
<mgrwt>
<rscale>  3 0.46295889E+03</rscale>
<asrwt>0</asrwt>
<pdfrwt beam="1">  1       21 0.33640139E-01 0.46295889E+03</pdfrwt>
<pdfrwt beam="2">  1       21 0.37699915E-01 0.46295889E+03</pdfrwt>
<totfact> 0.53121232E+04</totfact>
</mgrwt>
</event>
<event>
 4    0  0.1775285E-001  0.5894323E+03  0.7546771E-02  0.9927576E-01
         21   -1    0    0  502  501  0.00000000000E+00  0.00000000000E+00  0.66401890925E+02  0.66401890925E+02  0.00000000000E+00 0.  1.
         21   -1    0    0  503  502 -0.00000000000E+00 -0.00000000000E+00 -0.13080592746E+04  0.13080592746E+04  0.00000000000E+00 0.  1.
         25    1    1    2    0    0 -0.10759490827E+03  0.25886479464E+03 -0.70742356131E+03  0.77114249091E+03  0.12500000000E+03 0.  0.
         21    1    1    2  503  501  0.10759490827E+03 -0.25886479464E+03 -0.53423382240E+03  0.60331867466E+03  0.00000000000E+00 0.  1.
<mgrwt>
<rscale>  3 0.58943230E+03</rscale>
<asrwt>0</asrwt>
<pdfrwt beam="1">  1       21 0.10215676E-01 0.58943230E+03</pdfrwt>
<pdfrwt beam="2">  1       21 0.20123988E+00 0.58943230E+03</pdfrwt>
<totfact> 0.85694314E+03</totfact>
</mgrwt>
</event>
<event>
 4    0  0.1775285E-001  0.6207523E+03  0.7546771E-02  0.9863263E-01
         21   -1    0    0  502  501  0.00000000000E+00  0.00000000000E+00  0.14017418260E+03  0.14017418260E+03  0.00000000000E+00 0.  1.
         21   -1    0    0  503  502 -0.00000000000E+00 -0.00000000000E+00 -0.68724027078E+03  0.68724027078E+03  0.00000000000E+00 0.  1.
         25    1    1    2    0    0  0.26675284783E+03  0.54365240567E+01 -0.46091636897E+03  0.54704253656E+03  0.12500000000E+03 0.  0.
         21    1    1    2  503  501 -0.26675284783E+03 -0.54365240567E+01 -0.86149719211E+02  0.28037191682E+03  0.00000000000E+00 0.  1.
<mgrwt>
<rscale>  3 0.62075226E+03</rscale>
<asrwt>0</asrwt>
<pdfrwt beam="1">  1       21 0.21565259E-01 0.62075226E+03</pdfrwt>
<pdfrwt beam="2">  1       21 0.10572927E+00 0.62075226E+03</pdfrwt>
<totfact> 0.12339099E+04</totfact>
</mgrwt>
</event>
<event>
 4    0  0.1775285E-001  0.4940941E+03  0.7546771E-02  0.1015332E+00
         21   -1    0    0  502  501  0.00000000000E+00  0.00000000000E+00  0.29400027963E+03  0.29400027963E+03  0.00000000000E+00 0.  1.
         21   -1    0    0  503  502 -0.00000000000E+00 -0.00000000000E+00 -0.20759248604E+03  0.20759248604E+03  0.00000000000E+00 0.  1.
         25    1    1    2    0    0  0.21662680440E+03 -0.80705537007E+02  0.51455237590E+02  0.26779319925E+03  0.12500000000E+03 0.  0.
         21    1    1    2  503  501 -0.21662680440E+03  0.80705537007E+02  0.34952555998E+02  0.23379956642E+03  0.00000000000E+00 0.  1.
<mgrwt>
<rscale>  3 0.49409412E+03</rscale>
<asrwt>0</asrwt>
<pdfrwt beam="1">  1       21 0.45230813E-01 0.49409412E+03</pdfrwt>
<pdfrwt beam="2">  1       21 0.31937305E-01 0.49409412E+03</pdfrwt>
<totfact> 0.40171143E+04</totfact>
</mgrwt>
</event>
<event>
 4    0  0.1775285E-001  0.5442320E+03  0.7546771E-02  0.1002838E+00
         21   -1    0    0  502  501  0.00000000000E+00  0.00000000000E+00  0.37521159991E+02  0.37521159991E+02  0.00000000000E+00 0. -1.
         21   -1    0    0  503  502 -0.00000000000E+00 -0.00000000000E+00 -0.19734759080E+04  0.19734759080E+04  0.00000000000E+00 0. -1.
         25    1    1    2    0    0 -0.70268656070E+02  0.24718278194E+03 -0.94480190318E+03  0.98707276731E+03  0.12500000000E+03 0.  0.
         21    1    1    2  503  501  0.70268656070E+02 -0.24718278194E+03 -0.99115284488E+03  0.10239243007E+04  0.00000000000E+00 0. -1.
<mgrwt>
<rscale>  3 0.54423196E+03</rscale>
<asrwt>0</asrwt>
<pdfrwt beam="1">  1       21 0.57724854E-02 0.54423196E+03</pdfrwt>
<pdfrwt beam="2">  1       21 0.30361172E+00 0.54423196E+03</pdfrwt>
<totfact> 0.54841096E+03</totfact>
</mgrwt>
</event>
<event>
 4    0  0.1775285E-001  0.4893694E+03  0.7546771E-02  0.1016592E+00
         21   -1    0    0  502  501  0.00000000000E+00  0.00000000000E+00  0.33896487861E+03  0.33896487861E+03  0.00000000000E+00 0. -1.
         21   -1    0    0  503  502 -0.00000000000E+00 -0.00000000000E+00 -0.17662775414E+03  0.17662775414E+03  0.00000000000E+00 0. -1.
         25    1    1    2    0    0  0.21065653524E+03 -0.89082972449E+02  0.87526482842E+02  0.27495060832E+03  0.12500000000E+03 0.  0.
         21    1    1    2  503  501 -0.21065653524E+03  0.89082972449E+02  0.74810641634E+02  0.24064202443E+03  0.00000000000E+00 0. -1.
<mgrwt>
<rscale>  3 0.48936941E+03</rscale>
<asrwt>0</asrwt>
<pdfrwt beam="1">  1       21 0.52148443E-01 0.48936941E+03</pdfrwt>
<pdfrwt beam="2">  1       21 0.27173501E-01 0.48936941E+03</pdfrwt>
<totfact> 0.40976385E+04</totfact>
</mgrwt>
</event>
<event>
 4    0  0.1775285E-001  0.1073680E+04  0.7546771E-02  0.9231232E-01
         21   -1    0    0  503  501  0.00000000000E+00  0.00000000000E+00  0.21116598373E+04  0.21116598373E+04  0.00000000000E+00 0. -1.
         21   -1    0    0  501  502 -0.00000000000E+00 -0.00000000000E+00 -0.13647889378E+03  0.13647889378E+03  0.00000000000E+00 0. -1.
         25    1    1    2    0    0  0.37048156536E+03  0.27664201237E+03  0.15415422466E+04  0.16142381768E+04  0.12500000000E+03 0.  0.
         21    1    1    2  503  502 -0.37048156536E+03 -0.27664201237E+03  0.43363869690E+03  0.63390055429E+03  0.00000000000E+00 0. -1.
<mgrwt>
<rscale>  3 0.10736797E+04</rscale>
<asrwt>0</asrwt>
<pdfrwt beam="1">  1       21 0.32487072E+00 0.10736797E+04</pdfrwt>
<pdfrwt beam="2">  1       21 0.20996754E-01 0.10736797E+04</pdfrwt>
<totfact> 0.32544274E+02</totfact>
</mgrwt>
</event>
<event>
 4    0  0.1775285E-001  0.5853930E+03  0.7546771E-02  0.9936183E-01
         21   -1    0    0  503  501  0.00000000000E+00  0.00000000000E+00  0.33623023774E+03  0.33623023774E+03  0.00000000000E+00 0. -1.
         21   -1    0    0  501  502 -0.00000000000E+00 -0.00000000000E+00 -0.25479934888E+03  0.25479934888E+03  0.00000000000E+00 0. -1.
         25    1    1    2    0    0 -0.46894942614E+02  0.25779648451E+03 -0.55204222953E+02  0.29551762942E+03  0.12500000000E+03 0.  0.
         21    1    1    2  503  502  0.46894942614E+02 -0.25779648451E+03  0.13663511180E+03  0.29551195720E+03  0.00000000000E+00 0. -1.
<mgrwt>
<rscale>  3 0.58539302E+03</rscale>
<asrwt>0</asrwt>
<pdfrwt beam="1">  1       21 0.51727729E-01 0.58539302E+03</pdfrwt>
<pdfrwt beam="2">  1       21 0.39199900E-01 0.58539302E+03</pdfrwt>
<totfact> 0.19543837E+04</totfact>
</mgrwt>
</event>
<event>
 4    0  0.1775285E-001  0.5434160E+03  0.7546771E-02  0.1003029E+00
         21   -1    0    0  503  501  0.00000000000E+00  0.00000000000E+00  0.10598829432E+04  0.10598829432E+04  0.00000000000E+00 0.  1.
         21   -1    0    0  501  502 -0.00000000000E+00 -0.00000000000E+00 -0.69654154723E+02  0.69654154723E+02  0.00000000000E+00 0.  1.
         25    1    1    2    0    0  0.16581542930E+03  0.12620228732E+03  0.20746838530E+03  0.31951510890E+03  0.12500000000E+03 0.  0.
         21    1    1    2  503  502 -0.16581542930E+03 -0.12620228732E+03  0.78276040315E+03  0.81002198900E+03  0.00000000000E+00 0. -1.
<mgrwt>
<rscale>  3 0.54341605E+03</rscale>
<asrwt>0</asrwt>
<pdfrwt beam="1">  1       21 0.16305890E+00 0.54341605E+03</pdfrwt>
<pdfrwt beam="2">  1       21 0.10716025E-01 0.54341605E+03</pdfrwt>
<totfact> 0.14825128E+04</totfact>
</mgrwt>
</event>
<event>
 4    0  0.1775285E-001  0.4992607E+03  0.7546771E-02  0.1013972E+00
         21   -1    0    0  502  501  0.00000000000E+00  0.00000000000E+00  0.16288123636E+03  0.16288123636E+03  0.00000000000E+00 0. -1.
         21   -1    0    0  503  502 -0.00000000000E+00 -0.00000000000E+00 -0.38258132292E+03  0.38258132292E+03  0.00000000000E+00 0. -1.
         25    1    1    2    0    0 -0.24163441462E+02  0.23269483924E+03 -0.11224157878E+03  0.28801724274E+03  0.12500000000E+03 0.  0.
         21    1    1    2  503  501  0.24163441462E+02 -0.23269483924E+03 -0.10745850779E+03  0.25744531654E+03  0.00000000000E+00 0. -1.
<mgrwt>
<rscale>  3 0.49926073E+03</rscale>
<asrwt>0</asrwt>
<pdfrwt beam="1">  1       21 0.25058652E-01 0.49926073E+03</pdfrwt>
<pdfrwt beam="2">  1       21 0.58858664E-01 0.49926073E+03</pdfrwt>
<totfact> 0.36869724E+04</totfact>
</mgrwt>
</event>
<event>
 4    0  0.1775285E-001  0.5393380E+03  0.7546771E-02  0.1003992E+00
         21   -1    0    0  503  501  0.00000000000E+00  0.00000000000E+00  0.31451728438E+03  0.31451728438E+03  0.00000000000E+00 0.  1.
         21   -1    0    0  501  502 -0.00000000000E+00 -0.00000000000E+00 -0.23121583568E+03  0.23121583568E+03  0.00000000000E+00 0.  1.
         25    1    1    2    0    0  0.10078866490E+03 -0.21267028200E+03  0.14370709089E+03  0.30276018858E+03  0.12500000000E+03 0.  0.
         21    1    1    2  503  502 -0.10078866490E+03  0.21267028200E+03 -0.60405642195E+02  0.24297293147E+03  0.00000000000E+00 0.  1.
<mgrwt>
<rscale>  3 0.53933803E+03</rscale>
<asrwt>0</asrwt>
<pdfrwt beam="1">  1       21 0.48387274E-01 0.53933803E+03</pdfrwt>
<pdfrwt beam="2">  1       21 0.35571667E-01 0.53933803E+03</pdfrwt>
<totfact> 0.27762598E+04</totfact>
</mgrwt>
</event>
<event>
 4    0  0.1775285E-001  0.5764937E+03  0.7546771E-02  0.9955411E-01
         21   -1    0    0  503  501  0.00000000000E+00  0.00000000000E+00  0.69833895636E+02  0.69833895636E+02  0.00000000000E+00 0. -1.
         21   -1    0    0  501  502 -0.00000000000E+00 -0.00000000000E+00 -0.11897696079E+04  0.11897696079E+04  0.00000000000E+00 0. -1.
         25    1    1    2    0    0 -0.14192096309E+03  0.18531050076E+03 -0.90274006010E+03  0.94076891827E+03  0.12500000000E+03 0.  0.
         21    1    1    2  503  502  0.14192096309E+03 -0.18531050076E+03 -0.21719565220E+03  0.31883458531E+03  0.00000000000E+00 0. -1.
<mgrwt>
<rscale>  3 0.57649370E+03</rscale>
<asrwt>0</asrwt>
<pdfrwt beam="1">  1       21 0.10743677E-01 0.57649370E+03</pdfrwt>
<pdfrwt beam="2">  1       21 0.18304147E+00 0.57649370E+03</pdfrwt>
<totfact> 0.10469809E+04</totfact>
</mgrwt>
</event>
<event>
 4    0  0.1775285E-001  0.6863670E+03  0.7546771E-02  0.9740835E-01
         21   -1    0    0  502  501  0.00000000000E+00  0.00000000000E+00  0.53562794778E+02  0.53562794778E+02  0.00000000000E+00 0.  1.
         21   -1    0    0  503  502 -0.00000000000E+00 -0.00000000000E+00 -0.21988192940E+04  0.21988192940E+04  0.00000000000E+00 0.  1.
         25    1    1    2    0    0  0.33158238796E+03 -0.12035602499E+02 -0.11066311655E+04  0.11620452969E+04  0.12500000000E+03 0.  0.
         21    1    1    2  503  501 -0.33158238796E+03  0.12035602499E+02 -0.10386253337E+04  0.10903367918E+04  0.00000000000E+00 0.  1.
<mgrwt>
<rscale>  3 0.68636698E+03</rscale>
<asrwt>0</asrwt>
<pdfrwt beam="1">  1       21 0.82404286E-02 0.68636698E+03</pdfrwt>
<pdfrwt beam="2">  1       21 0.33827995E+00 0.68636698E+03</pdfrwt>
<totfact> 0.17043550E+03</totfact>
</mgrwt>
</event>
<event>
 4    0  0.1775285E-001  0.4483394E+03  0.7546771E-02  0.1028218E+00
         21   -1    0    0  502  501  0.00000000000E+00  0.00000000000E+00  0.92187825469E+02  0.92187825469E+02  0.00000000000E+00 0. -1.
         21   -1    0    0  503  502 -0.00000000000E+00 -0.00000000000E+00 -0.54510502270E+03  0.54510502270E+03  0.00000000000E+00 0. -1.
         25    1    1    2    0    0  0.11250138406E+03 -0.17240107291E+03 -0.21692372825E+03  0.32412897931E+03  0.12500000000E+03 0.  0.
         21    1    1    2  503  501 -0.11250138406E+03  0.17240107291E+03 -0.23599346898E+03  0.31316386886E+03  0.00000000000E+00 0. -1.
<mgrwt>
<rscale>  3 0.44833937E+03</rscale>
<asrwt>0</asrwt>
<pdfrwt beam="1">  1       21 0.14182742E-01 0.44833937E+03</pdfrwt>
<pdfrwt beam="2">  1       21 0.83862313E-01 0.44833937E+03</pdfrwt>
<totfact> 0.49311107E+04</totfact>
</mgrwt>
</event>
<event>
 4    0  0.1775285E-001  0.5982218E+03  0.7546771E-02  0.9909102E-01
         21   -1    0    0  503  501  0.00000000000E+00  0.00000000000E+00  0.50047846421E+03  0.50047846421E+03  0.00000000000E+00 0. -1.
         21   -1    0    0  501  502 -0.00000000000E+00 -0.00000000000E+00 -0.17876362348E+03  0.17876362348E+03  0.00000000000E+00 0. -1.
         25    1    1    2    0    0 -0.35858028752E+02  0.25124082366E+03  0.18030542896E+02  0.28347460235E+03  0.12500000000E+03 0.  0.
         21    1    1    2  503  502  0.35858028752E+02 -0.25124082366E+03  0.30368429784E+03  0.39576748534E+03  0.00000000000E+00 0. -1.
<mgrwt>
<rscale>  3 0.59822184E+03</rscale>
<asrwt>0</asrwt>
<pdfrwt beam="1">  1       21 0.76996686E-01 0.59822184E+03</pdfrwt>
<pdfrwt beam="2">  1       21 0.27502096E-01 0.59822184E+03</pdfrwt>
<totfact> 0.16457244E+04</totfact>
</mgrwt>
</event>
<event>
 4    0  0.1775285E-001  0.6298268E+03  0.7546771E-02  0.9845387E-01
         21   -1    0    0  503  501  0.00000000000E+00  0.00000000000E+00  0.15803725540E+04  0.15803725540E+04  0.00000000000E+00 0.  1.
         21   -1    0    0  501  502 -0.00000000000E+00 -0.00000000000E+00 -0.62751316270E+02  0.62751316270E+02  0.00000000000E+00 0.  1.
         25    1    1    2    0    0  0.73284583199E+02  0.29089275859E+03  0.89049809631E+03  0.94794571926E+03  0.12500000000E+03 0.  0.
         21    1    1    2  503  502 -0.73284583199E+02 -0.29089275859E+03  0.62712314145E+03  0.69517815104E+03  0.00000000000E+00 0.  1.
<mgrwt>
<rscale>  3 0.62982683E+03</rscale>
<asrwt>0</asrwt>
<pdfrwt beam="1">  1       21 0.24313421E+00 0.62982683E+03</pdfrwt>
<pdfrwt beam="2">  1       21 0.96540499E-02 0.62982683E+03</pdfrwt>
<totfact> 0.50282476E+03</totfact>
</mgrwt>
</event>
<event>
 4    0  0.1775285E-001  0.4465525E+03  0.7546771E-02  0.1028755E+00
         21   -1    0    0  503  501  0.00000000000E+00  0.00000000000E+00  0.44513458342E+03  0.44513458342E+03  0.00000000000E+00 0.  1.
         21   -1    0    0  501  502 -0.00000000000E+00 -0.00000000000E+00 -0.11199372872E+03  0.11199372872E+03  0.00000000000E+00 0.  1.
         25    1    1    2    0    0 -0.81960949001E+02 -0.18872221571E+03  0.17526634026E+03  0.29778677253E+03  0.12500000000E+03 0.  0.
         21    1    1    2  503  502  0.81960949001E+02  0.18872221571E+03  0.15787451443E+03  0.25934153962E+03  0.00000000000E+00 0.  1.
<mgrwt>
<rscale>  3 0.44655249E+03</rscale>
<asrwt>0</asrwt>
<pdfrwt beam="1">  1       21 0.68482243E-01 0.44655249E+03</pdfrwt>
<pdfrwt beam="2">  1       21 0.17229805E-01 0.44655249E+03</pdfrwt>
<totfact> 0.54570030E+04</totfact>
</mgrwt>
</event>
<event>
 4    0  0.1775285E-001  0.5005424E+03  0.7546771E-02  0.1013637E+00
         21   -1    0    0  503  501  0.00000000000E+00  0.00000000000E+00  0.92910401873E+02  0.92910401873E+02  0.00000000000E+00 0.  1.
         21   -1    0    0  501  502 -0.00000000000E+00 -0.00000000000E+00 -0.67415131338E+03  0.67415131338E+03  0.00000000000E+00 0.  1.
         25    1    1    2    0    0 -0.18833631631E+03  0.13878553273E+03 -0.33678470498E+03  0.42869678054E+03  0.12500000000E+03 0.  0.
         21    1    1    2  503  502  0.18833631631E+03 -0.13878553273E+03 -0.24445620652E+03  0.33836493471E+03  0.00000000000E+00 0.  1.
<mgrwt>
<rscale>  3 0.50054238E+03</rscale>
<asrwt>0</asrwt>
<pdfrwt beam="1">  1       21 0.14293909E-01 0.50054238E+03</pdfrwt>
<pdfrwt beam="2">  1       21 0.10371558E+00 0.50054238E+03</pdfrwt>
<totfact> 0.28887612E+04</totfact>
</mgrwt>
</event>
<event>
 4    0  0.1775285E-001  0.5670016E+03  0.7546771E-02  0.9976336E-01
         21   -1    0    0  502  501  0.00000000000E+00  0.00000000000E+00  0.83761220441E+02  0.83761220441E+02  0.00000000000E+00 0.  1.
         21   -1    0    0  503  502 -0.00000000000E+00 -0.00000000000E+00 -0.95954543169E+03  0.95954543169E+03  0.00000000000E+00 0.  1.
         25    1    1    2    0    0  0.21263355102E+03  0.12862342118E+03 -0.26625029011E+03  0.38506003230E+03  0.12500000000E+03 0.  0.
         21    1    1    2  503  501 -0.21263355102E+03 -0.12862342118E+03 -0.60953392114E+03  0.65824661983E+03  0.00000000000E+00 0. -1.
<mgrwt>
<rscale>  3 0.56700157E+03</rscale>
<asrwt>0</asrwt>
<pdfrwt beam="1">  1       21 0.12886341E-01 0.56700157E+03</pdfrwt>
<pdfrwt beam="2">  1       21 0.14762238E+00 0.56700157E+03</pdfrwt>
<totfact> 0.13861890E+04</totfact>
</mgrwt>
</event>
<event>
 4    0  0.1775285E-001  0.6206071E+03  0.7546771E-02  0.9863552E-01
         21   -1    0    0  502  501  0.00000000000E+00  0.00000000000E+00  0.10589219828E+04  0.10589219828E+04  0.00000000000E+00 0. -1.
         21   -1    0    0  503  502 -0.00000000000E+00 -0.00000000000E+00 -0.90930502541E+02  0.90930502541E+02  0.00000000000E+00 0. -1.
         25    1    1    2    0    0  0.16955352773E+03 -0.23544554273E+03  0.62724459027E+03  0.70231316261E+03  0.12500000000E+03 0.  0.
         21    1    1    2  503  501 -0.16955352773E+03  0.23544554273E+03  0.34074689001E+03  0.44753932274E+03  0.00000000000E+00 0. -1.
<mgrwt>
<rscale>  3 0.62060715E+03</rscale>
<asrwt>0</asrwt>
<pdfrwt beam="1">  1       21 0.16291107E+00 0.62060715E+03</pdfrwt>
<pdfrwt beam="2">  1       21 0.13989309E-01 0.62060715E+03</pdfrwt>
<totfact> 0.89421630E+03</totfact>
</mgrwt>
</event>
<event>
 4    0  0.1775285E-001  0.8472263E+03  0.7546771E-02  0.9494067E-01
         21   -1    0    0  503  501  0.00000000000E+00  0.00000000000E+00  0.51329035730E+03  0.51329035730E+03  0.00000000000E+00 0. -1.
         21   -1    0    0  501  502 -0.00000000000E+00 -0.00000000000E+00 -0.34960350061E+03  0.34960350061E+03  0.00000000000E+00 0. -1.
         25    1    1    2    0    0 -0.24170397414E+03 -0.33438923250E+03  0.12285572394E+03  0.44828060278E+03  0.12500000000E+03 0.  0.
         21    1    1    2  503  502  0.24170397414E+03  0.33438923250E+03  0.40831132751E+02  0.41461325513E+03  0.00000000000E+00 0. -1.
<mgrwt>
<rscale>  3 0.84722631E+03</rscale>
<asrwt>0</asrwt>
<pdfrwt beam="1">  1       21 0.78967748E-01 0.84722631E+03</pdfrwt>
<pdfrwt beam="2">  1       21 0.53785154E-01 0.84722631E+03</pdfrwt>
<totfact> 0.36898740E+03</totfact>
</mgrwt>
</event>
<event>
 4    0  0.1775285E-001  0.5245658E+03  0.7546771E-02  0.1007559E+00
         21   -1    0    0  502  501  0.00000000000E+00  0.00000000000E+00  0.50480124401E+02  0.50480124401E+02  0.00000000000E+00 0. -1.
         21   -1    0    0  503  502 -0.00000000000E+00 -0.00000000000E+00 -0.13627603567E+04  0.13627603567E+04  0.00000000000E+00 0. -1.
         25    1    1    2    0    0  0.18034780926E+03 -0.16845656682E+03 -0.73995812276E+03  0.78997846214E+03  0.12500000000E+03 0.  0.
         21    1    1    2  503  501 -0.18034780926E+03  0.16845656682E+03 -0.57232210953E+03  0.62326201895E+03  0.00000000000E+00 0. -1.
<mgrwt>
<rscale>  3 0.52456577E+03</rscale>
<asrwt>0</asrwt>
<pdfrwt beam="1">  1       21 0.77661728E-02 0.52456577E+03</pdfrwt>
<pdfrwt beam="2">  1       21 0.20965544E+00 0.52456577E+03</pdfrwt>
<totfact> 0.12547169E+04</totfact>
</mgrwt>
</event>
<event>
 4    0  0.1775285E-001  0.4640939E+03  0.7546771E-02  0.1023601E+00
         21   -1    0    0  502  501  0.00000000000E+00  0.00000000000E+00  0.43811352773E+02  0.43811352773E+02  0.00000000000E+00 0. -1.
         21   -1    0    0  503  502 -0.00000000000E+00 -0.00000000000E+00 -0.12290372417E+04  0.12290372417E+04  0.00000000000E+00 0. -1.
         25    1    1    2    0    0 -0.21189185228E+03 -0.18310394292E+02 -0.54533641977E+03  0.59854008916E+03  0.12500000000E+03 0.  0.
         21    1    1    2  503  501  0.21189185228E+03  0.18310394292E+02 -0.63988946919E+03  0.67430850535E+03  0.00000000000E+00 0. -1.
<mgrwt>
<rscale>  3 0.46409389E+03</rscale>
<asrwt>0</asrwt>
<pdfrwt beam="1">  1       21 0.67402088E-02 0.46409389E+03</pdfrwt>
<pdfrwt beam="2">  1       21 0.18908263E+00 0.46409389E+03</pdfrwt>
<totfact> 0.22545800E+04</totfact>
</mgrwt>
</event>
<event>
 4    0  0.1775285E-001  0.4475874E+03  0.7546771E-02  0.1028444E+00
         21   -1    0    0  502  501  0.00000000000E+00  0.00000000000E+00  0.13245972609E+03  0.13245972609E+03  0.00000000000E+00 0.  1.
         21   -1    0    0  503  502 -0.00000000000E+00 -0.00000000000E+00 -0.37810455482E+03  0.37810455482E+03  0.00000000000E+00 0.  1.
         25    1    1    2    0    0  0.19575835228E+02 -0.20332888725E+03 -0.99146103862E+02  0.25919259177E+03  0.12500000000E+03 0.  0.
         21    1    1    2  503  501 -0.19575835228E+02  0.20332888725E+03 -0.14649872487E+03  0.25137168915E+03  0.00000000000E+00 0.  1.
<mgrwt>
<rscale>  3 0.44758743E+03</rscale>
<asrwt>0</asrwt>
<pdfrwt beam="1">  1       21 0.20378420E-01 0.44758743E+03</pdfrwt>
<pdfrwt beam="2">  1       21 0.58169931E-01 0.44758743E+03</pdfrwt>
<totfact> 0.56977812E+04</totfact>
</mgrwt>
</event>
<event>
 4    0  0.1775285E-001  0.8252796E+03  0.7546771E-02  0.9524130E-01
         21   -1    0    0  502  501  0.00000000000E+00  0.00000000000E+00  0.16829544896E+03  0.16829544896E+03  0.00000000000E+00 0.  1.
         21   -1    0    0  503  502 -0.00000000000E+00 -0.00000000000E+00 -0.10117420601E+04  0.10117420601E+04  0.00000000000E+00 0.  1.
         25    1    1    2    0    0 -0.22646257206E+03  0.30223627679E+03 -0.22960675578E+03  0.45932159306E+03  0.12500000000E+03 0.  0.
         21    1    1    2  503  501  0.22646257206E+03 -0.30223627679E+03 -0.61383985534E+03  0.72071591598E+03  0.00000000000E+00 0.  1.
<mgrwt>
<rscale>  3 0.82527955E+03</rscale>
<asrwt>0</asrwt>
<pdfrwt beam="1">  1       21 0.25891608E-01 0.82527955E+03</pdfrwt>
<pdfrwt beam="2">  1       21 0.15565262E+00 0.82527955E+03</pdfrwt>
<totfact> 0.29967636E+03</totfact>
</mgrwt>
</event>
<event>
 4    0  0.1775285E-001  0.4609187E+03  0.7546771E-02  0.1024515E+00
         21   -1    0    0  502  501  0.00000000000E+00  0.00000000000E+00  0.88223581865E+02  0.88223581865E+02  0.00000000000E+00 0.  1.
         21   -1    0    0  503  502 -0.00000000000E+00 -0.00000000000E+00 -0.60201037802E+03  0.60201037802E+03  0.00000000000E+00 0.  1.
         25    1    1    2    0    0 -0.19863536629E+03  0.53853477645E+02 -0.36089733902E+03  0.43385261911E+03  0.12500000000E+03 0.  0.
         21    1    1    2  503  501  0.19863536629E+03 -0.53853477645E+02 -0.15288945714E+03  0.25638134078E+03  0.00000000000E+00 0.  1.
<mgrwt>
<rscale>  3 0.46091870E+03</rscale>
<asrwt>0</asrwt>
<pdfrwt beam="1">  1       21 0.13572859E-01 0.46091870E+03</pdfrwt>
<pdfrwt beam="2">  1       21 0.92616981E-01 0.46091870E+03</pdfrwt>
<totfact> 0.42188639E+04</totfact>
</mgrwt>
</event>
<event>
 4    0  0.1775285E-001  0.6697851E+03  0.7546771E-02  0.9770346E-01
         21   -1    0    0  502  501  0.00000000000E+00  0.00000000000E+00  0.92766165321E+03  0.92766165321E+03  0.00000000000E+00 0. -1.
         21   -1    0    0  503  502 -0.00000000000E+00 -0.00000000000E+00 -0.12089861853E+03  0.12089861853E+03  0.00000000000E+00 0. -1.
         25    1    1    2    0    0  0.16871392882E+02 -0.30609905202E+03  0.25704931182E+03  0.41914272301E+03  0.12500000000E+03 0.  0.
         21    1    1    2  503  501 -0.16871392882E+02  0.30609905202E+03  0.54971372286E+03  0.62941754873E+03  0.00000000000E+00 0. -1.
<mgrwt>
<rscale>  3 0.66978508E+03</rscale>
<asrwt>0</asrwt>
<pdfrwt beam="1">  1       21 0.14271717E+00 0.66978508E+03</pdfrwt>
<pdfrwt beam="2">  1       21 0.18599788E-01 0.66978508E+03</pdfrwt>
<totfact> 0.74675753E+03</totfact>
</mgrwt>
</event>
<event>
 4    0  0.1775285E-001  0.5241529E+03  0.7546771E-02  0.1007660E+00
         21   -1    0    0  503  501  0.00000000000E+00  0.00000000000E+00  0.13666804395E+04  0.13666804395E+04  0.00000000000E+00 0.  1.
         21   -1    0    0  501  502 -0.00000000000E+00 -0.00000000000E+00 -0.50256125363E+02  0.50256125363E+02  0.00000000000E+00 0.  1.
         25    1    1    2    0    0 -0.97551094210E+02  0.21001032025E+03  0.92933905051E+03  0.96587609009E+03  0.12500000000E+03 0.  0.
         21    1    1    2  503  502  0.97551094210E+02 -0.21001032025E+03  0.38708526363E+03  0.45106047478E+03  0.00000000000E+00 0.  1.
<mgrwt>
<rscale>  3 0.52415289E+03</rscale>
<asrwt>0</asrwt>
<pdfrwt beam="1">  1       21 0.21025850E+00 0.52415289E+03</pdfrwt>
<pdfrwt beam="2">  1       21 0.77317126E-02 0.52415289E+03</pdfrwt>
<totfact> 0.12533478E+04</totfact>
</mgrwt>
</event>
<event>
 4    0  0.1775285E-001  0.4576951E+03  0.7546771E-02  0.1025452E+00
         21   -1    0    0  503  501  0.00000000000E+00  0.00000000000E+00  0.40729514896E+03  0.40729514896E+03  0.00000000000E+00 0.  1.
         21   -1    0    0  501  502 -0.00000000000E+00 -0.00000000000E+00 -0.12858292150E+03  0.12858292150E+03  0.00000000000E+00 0.  1.
         25    1    1    2    0    0  0.13335180341E+03  0.16451500404E+03  0.14802623035E+03  0.28702727205E+03  0.12500000000E+03 0.  0.
         21    1    1    2  503  502 -0.13335180341E+03 -0.16451500404E+03  0.13068599711E+03  0.24885079841E+03  0.00000000000E+00 0.  1.
<mgrwt>
<rscale>  3 0.45769510E+03</rscale>
<asrwt>0</asrwt>
<pdfrwt beam="1">  1       21 0.62660791E-01 0.45769510E+03</pdfrwt>
<pdfrwt beam="2">  1       21 0.19781988E-01 0.45769510E+03</pdfrwt>
<totfact> 0.51104822E+04</totfact>
</mgrwt>
</event>
<event>
 4    0  0.1775285E-001  0.5244159E+03  0.7546771E-02  0.1007595E+00
         21   -1    0    0  503  501  0.00000000000E+00  0.00000000000E+00  0.69434549214E+02  0.69434549214E+02  0.00000000000E+00 0.  1.
         21   -1    0    0  501  502 -0.00000000000E+00 -0.00000000000E+00 -0.99018436907E+03  0.99018436907E+03  0.00000000000E+00 0.  1.
         25    1    1    2    0    0  0.17973619673E+03 -0.10867306813E+03 -0.75034934696E+03  0.78915402719E+03  0.12500000000E+03 0.  0.
         21    1    1    2  503  502 -0.17973619673E+03  0.10867306813E+03 -0.17040047290E+03  0.27046489110E+03  0.00000000000E+00 0.  1.
<mgrwt>
<rscale>  3 0.52441589E+03</rscale>
<asrwt>0</asrwt>
<pdfrwt beam="1">  1       21 0.10682239E-01 0.52441589E+03</pdfrwt>
<pdfrwt beam="2">  1       21 0.15233605E+00 0.52441589E+03</pdfrwt>
<totfact> 0.18107704E+04</totfact>
</mgrwt>
</event>
<event>
 4    0  0.1775285E-001  0.5967154E+03  0.7546771E-02  0.9912244E-01
         21   -1    0    0  503  501  0.00000000000E+00  0.00000000000E+00  0.14158925880E+03  0.14158925880E+03  0.00000000000E+00 0.  1.
         21   -1    0    0  501  502 -0.00000000000E+00 -0.00000000000E+00 -0.62870110193E+03  0.62870110193E+03  0.00000000000E+00 0.  1.
         25    1    1    2    0    0  0.27132916535E+03 -0.84056279253E+02 -0.28818337955E+03  0.42350871809E+03  0.12500000000E+03 0.  0.
         21    1    1    2  503  502 -0.27132916535E+03  0.84056279253E+02 -0.19892846359E+03  0.34678164264E+03  0.00000000000E+00 0.  1.
<mgrwt>
<rscale>  3 0.59671542E+03</rscale>
<asrwt>0</asrwt>
<pdfrwt beam="1">  1       21 0.21782963E-01 0.59671542E+03</pdfrwt>
<pdfrwt beam="2">  1       21 0.96723245E-01 0.59671542E+03</pdfrwt>
<totfact> 0.15136661E+04</totfact>
</mgrwt>
</event>
<event>
 4    0  0.1775285E-001  0.5900412E+03  0.7546771E-02  0.9926285E-01
         21   -1    0    0  502  501  0.00000000000E+00  0.00000000000E+00  0.13848552068E+03  0.13848552068E+03  0.00000000000E+00 0. -1.
         21   -1    0    0  503  502 -0.00000000000E+00 -0.00000000000E+00 -0.62849288586E+03  0.62849288586E+03  0.00000000000E+00 0. -1.
         25    1    1    2    0    0  0.26088295641E+03  0.55359069085E+02 -0.13775086346E+03  0.32515356965E+03  0.12500000000E+03 0.  0.
         21    1    1    2  503  501 -0.26088295641E+03 -0.55359069085E+02 -0.35225650173E+03  0.44182483689E+03  0.00000000000E+00 0. -1.
<mgrwt>
<rscale>  3 0.59004123E+03</rscale>
<asrwt>0</asrwt>
<pdfrwt beam="1">  1       21 0.21305465E-01 0.59004123E+03</pdfrwt>
<pdfrwt beam="2">  1       21 0.96691214E-01 0.59004123E+03</pdfrwt>
<totfact> 0.15832443E+04</totfact>
</mgrwt>
</event>
<event>
 4    0  0.1775285E-001  0.5323454E+03  0.7546771E-02  0.1005665E+00
         21   -1    0    0  502  501  0.00000000000E+00  0.00000000000E+00  0.46576094131E+02  0.46576094131E+02  0.00000000000E+00 0.  1.
         21   -1    0    0  503  502 -0.00000000000E+00 -0.00000000000E+00 -0.15211216865E+04  0.15211216865E+04  0.00000000000E+00 0.  1.
         25    1    1    2    0    0  0.14913303382E+03  0.20068753619E+03 -0.85774138289E+03  0.90214268765E+03  0.12500000000E+03 0.  0.
         21    1    1    2  503  501 -0.14913303382E+03 -0.20068753619E+03 -0.61680420947E+03  0.66555509297E+03  0.00000000000E+00 0.  1.
<mgrwt>
<rscale>  3 0.53234540E+03</rscale>
<asrwt>0</asrwt>
<pdfrwt beam="1">  1       21 0.71655538E-02 0.53234540E+03</pdfrwt>
<pdfrwt beam="2">  1       21 0.23401869E+00 0.53234540E+03</pdfrwt>
<totfact> 0.10065598E+04</totfact>
</mgrwt>
</event>
<event>
 4    0  0.1775285E-001  0.4643153E+03  0.7546771E-02  0.1023537E+00
         21   -1    0    0  503  501  0.00000000000E+00  0.00000000000E+00  0.19161402383E+03  0.19161402383E+03  0.00000000000E+00 0.  1.
         21   -1    0    0  501  502 -0.00000000000E+00 -0.00000000000E+00 -0.28127988235E+03  0.28127988235E+03  0.00000000000E+00 0.  1.
         25    1    1    2    0    0 -0.18563456575E+03  0.86332835263E+02 -0.11605532860E+03  0.26647211814E+03  0.12500000000E+03 0.  0.
         21    1    1    2  503  502  0.18563456575E+03 -0.86332835263E+02  0.26389470080E+02  0.20642178804E+03  0.00000000000E+00 0.  1.
<mgrwt>
<rscale>  3 0.46431528E+03</rscale>
<asrwt>0</asrwt>
<pdfrwt beam="1">  1       21 0.29479081E-01 0.46431528E+03</pdfrwt>
<pdfrwt beam="2">  1       21 0.43273828E-01 0.46431528E+03</pdfrwt>
<totfact> 0.52021388E+04</totfact>
</mgrwt>
</event>
<event>
 4    0  0.1775285E-001  0.4960046E+03  0.7546771E-02  0.1014827E+00
         21   -1    0    0  503  501  0.00000000000E+00  0.00000000000E+00  0.53416368310E+03  0.53416368310E+03  0.00000000000E+00 0. -1.
         21   -1    0    0  501  502 -0.00000000000E+00 -0.00000000000E+00 -0.11514287262E+03  0.11514287262E+03  0.00000000000E+00 0. -1.
         25    1    1    2    0    0  0.23204991749E+03  0.96496895464E+01  0.22369462694E+03  0.34583893193E+03  0.12500000000E+03 0.  0.
         21    1    1    2  503  502 -0.23204991749E+03 -0.96496895464E+01  0.19532618354E+03  0.30346762379E+03  0.00000000000E+00 0. -1.
<mgrwt>
<rscale>  3 0.49600460E+03</rscale>
<asrwt>0</asrwt>
<pdfrwt beam="1">  1       21 0.82179027E-01 0.49600460E+03</pdfrwt>
<pdfrwt beam="2">  1       21 0.17714288E-01 0.49600460E+03</pdfrwt>
<totfact> 0.33786765E+04</totfact>
</mgrwt>
</event>
<event>
 4    0  0.1775285E-001  0.5926687E+03  0.7546771E-02  0.9920734E-01
         21   -1    0    0  503  501  0.00000000000E+00  0.00000000000E+00  0.15355472685E+03  0.15355472685E+03  0.00000000000E+00 0. -1.
         21   -1    0    0  501  502 -0.00000000000E+00 -0.00000000000E+00 -0.57187465841E+03  0.57187465841E+03  0.00000000000E+00 0. -1.
         25    1    1    2    0    0  0.14296428170E+03 -0.19990855272E+03 -0.39057979620E+03  0.47810019086E+03  0.12500000000E+03 0.  0.
         21    1    1    2  503  502 -0.14296428170E+03  0.19990855272E+03 -0.27740135359E+02  0.24732919440E+03  0.00000000000E+00 0. -1.
<mgrwt>
<rscale>  3 0.59266873E+03</rscale>
<asrwt>0</asrwt>
<pdfrwt beam="1">  1       21 0.23623804E-01 0.59266873E+03</pdfrwt>
<pdfrwt beam="2">  1       21 0.87980717E-01 0.59266873E+03</pdfrwt>
<totfact> 0.16247974E+04</totfact>
</mgrwt>
</event>
<event>
 4    0  0.1775285E-001  0.5213950E+03  0.7546771E-02  0.1008341E+00
         21   -1    0    0  503  501  0.00000000000E+00  0.00000000000E+00  0.16036966421E+03  0.16036966421E+03  0.00000000000E+00 0. -1.
         21   -1    0    0  501  502 -0.00000000000E+00 -0.00000000000E+00 -0.42379084698E+03  0.42379084698E+03  0.00000000000E+00 0. -1.
         25    1    1    2    0    0  0.22561772444E+03 -0.37260608192E+02 -0.24001222514E+03  0.35429165770E+03  0.12500000000E+03 0.  0.
         21    1    1    2  503  502 -0.22561772444E+03  0.37260608192E+02 -0.23408957627E+02  0.22986885348E+03  0.00000000000E+00 0. -1.
<mgrwt>
<rscale>  3 0.52139504E+03</rscale>
<asrwt>0</asrwt>
<pdfrwt beam="1">  1       21 0.24672256E-01 0.52139504E+03</pdfrwt>
<pdfrwt beam="2">  1       21 0.65198592E-01 0.52139504E+03</pdfrwt>
<totfact> 0.30174981E+04</totfact>
</mgrwt>
</event>
<event>
 4    0  0.1775285E-001  0.4883942E+03  0.7546771E-02  0.1016853E+00
         21   -1    0    0  502  501  0.00000000000E+00  0.00000000000E+00  0.10493085101E+03  0.10493085101E+03  0.00000000000E+00 0.  1.
         21   -1    0    0  503  502 -0.00000000000E+00 -0.00000000000E+00 -0.56830022186E+03  0.56830022186E+03  0.00000000000E+00 0.  1.
         25    1    1    2    0    0  0.13150618966E+03 -0.17402954011E+03 -0.33928437380E+03  0.42227839757E+03  0.12500000000E+03 0.  0.
         21    1    1    2  503  501 -0.13150618966E+03  0.17402954011E+03 -0.12408499705E+03  0.25095267530E+03  0.00000000000E+00 0.  1.
<mgrwt>
<rscale>  3 0.48839421E+03</rscale>
<asrwt>0</asrwt>
<pdfrwt beam="1">  1       21 0.16143207E-01 0.48839421E+03</pdfrwt>
<pdfrwt beam="2">  1       21 0.87430806E-01 0.48839421E+03</pdfrwt>
<totfact> 0.34844079E+04</totfact>
</mgrwt>
</event>
<event>
 4    0  0.1775285E-001  0.8377948E+03  0.7546771E-02  0.9506866E-01
         21   -1    0    0  502  501  0.00000000000E+00  0.00000000000E+00  0.15265710269E+04  0.15265710269E+04  0.00000000000E+00 0.  1.
         21   -1    0    0  503  502 -0.00000000000E+00 -0.00000000000E+00 -0.11494717386E+03  0.11494717386E+03  0.00000000000E+00 0.  1.
         25    1    1    2    0    0 -0.20359936175E+02  0.40157239194E+03  0.56881459891E+03  0.70770753910E+03  0.12500000000E+03 0.  0.
         21    1    1    2  503  501  0.20359936175E+02 -0.40157239194E+03  0.84280925415E+03  0.93381066167E+03  0.00000000000E+00 0.  1.
<mgrwt>
<rscale>  3 0.83779478E+03</rscale>
<asrwt>0</asrwt>
<pdfrwt beam="1">  1       21 0.23485707E+00 0.83779478E+03</pdfrwt>
<pdfrwt beam="2">  1       21 0.17684182E-01 0.83779478E+03</pdfrwt>
<totfact> 0.17516451E+03</totfact>
</mgrwt>
</event>
<event>
 4    0  0.1775285E-001  0.1577679E+04  0.7546771E-02  0.8834379E-01
         21   -1    0    0  503  501  0.00000000000E+00  0.00000000000E+00  0.45914334161E+03  0.45914334161E+03  0.00000000000E+00 0. -1.
         21   -1    0    0  501  502 -0.00000000000E+00 -0.00000000000E+00 -0.13552795870E+04  0.13552795870E+04  0.00000000000E+00 0. -1.
         25    1    1    2    0    0 -0.63313350651E+03 -0.20733279785E+03 -0.92594646748E+03  0.11475394489E+04  0.12500000000E+03 0.  0.
         21    1    1    2  503  502  0.63313350651E+03  0.20733279785E+03  0.29810222130E+02  0.66688347968E+03  0.00000000000E+00 0. -1.
<mgrwt>
<rscale>  3 0.15776788E+04</rscale>
<asrwt>0</asrwt>
<pdfrwt beam="1">  1       21 0.70637438E-01 0.15776788E+04</pdfrwt>
<pdfrwt beam="2">  1       21 0.20850455E+00 0.15776788E+04</pdfrwt>
<totfact> 0.12892776E+02</totfact>
</mgrwt>
</event>
<event>
 4    0  0.1775285E-001  0.4372899E+03  0.7546771E-02  0.1031582E+00
         21   -1    0    0  502  501  0.00000000000E+00  0.00000000000E+00  0.37531371492E+02  0.37531371492E+02  0.00000000000E+00 0. -1.
         21   -1    0    0  503  502 -0.00000000000E+00 -0.00000000000E+00 -0.12737508477E+04  0.12737508477E+04  0.00000000000E+00 0. -1.
         25    1    1    2    0    0  0.12722875222E+02 -0.20031031075E+03 -0.65326488608E+03  0.69474175312E+03  0.12500000000E+03 0.  0.
         21    1    1    2  503  501 -0.12722875222E+02  0.20031031075E+03 -0.58295459011E+03  0.61654046605E+03  0.00000000000E+00 0. -1.
<mgrwt>
<rscale>  3 0.43728991E+03</rscale>
<asrwt>0</asrwt>
<pdfrwt beam="1">  1       21 0.57740571E-02 0.43728991E+03</pdfrwt>
<pdfrwt beam="2">  1       21 0.19596167E+00 0.43728991E+03</pdfrwt>
<totfact> 0.26746118E+04</totfact>
</mgrwt>
</event>
<event>
 4    0  0.1775285E-001  0.5808127E+03  0.7546771E-02  0.9946033E-01
         21   -1    0    0  502  501  0.00000000000E+00  0.00000000000E+00  0.30357095646E+03  0.30357095646E+03  0.00000000000E+00 0. -1.
         21   -1    0    0  503  502 -0.00000000000E+00 -0.00000000000E+00 -0.27781266407E+03  0.27781266407E+03  0.00000000000E+00 0. -1.
         25    1    1    2    0    0  0.25986236914E+03  0.13805816009E+02  0.10835932303E+03  0.30835984553E+03  0.12500000000E+03 0.  0.
         21    1    1    2  503  501 -0.25986236914E+03 -0.13805816009E+02 -0.82601030652E+02  0.27302377500E+03  0.00000000000E+00 0.  1.
<mgrwt>
<rscale>  3 0.58081273E+03</rscale>
<asrwt>0</asrwt>
<pdfrwt beam="1">  1       21 0.46703224E-01 0.58081273E+03</pdfrwt>
<pdfrwt beam="2">  1       21 0.42740410E-01 0.58081273E+03</pdfrwt>
<totfact> 0.20325226E+04</totfact>
</mgrwt>
</event>
<event>
 4    0  0.1775285E-001  0.6874270E+03  0.7546771E-02  0.9738979E-01
         21   -1    0    0  502  501  0.00000000000E+00  0.00000000000E+00  0.81034108534E+02  0.81034108534E+02  0.00000000000E+00 0.  1.
         21   -1    0    0  503  502 -0.00000000000E+00 -0.00000000000E+00 -0.14578920342E+04  0.14578920342E+04  0.00000000000E+00 0.  1.
         25    1    1    2    0    0 -0.27315399479E+03 -0.12562502749E+02 -0.28829700559E+03  0.41654661777E+03  0.12500000000E+03 0.  0.
         21    1    1    2  503  501  0.27315399479E+03  0.12562502749E+02 -0.10885609200E+04  0.11223795249E+04  0.00000000000E+00 0.  1.
<mgrwt>
<rscale>  3 0.68742703E+03</rscale>
<asrwt>0</asrwt>
<pdfrwt beam="1">  1       21 0.12466785E-01 0.68742703E+03</pdfrwt>
<pdfrwt beam="2">  1       21 0.22429109E+00 0.68742703E+03</pdfrwt>
<totfact> 0.40918903E+03</totfact>
</mgrwt>
</event>
<event>
 4    0  0.1775285E-001  0.4944434E+03  0.7546771E-02  0.1015240E+00
         21   -1    0    0  502  501  0.00000000000E+00  0.00000000000E+00  0.15555279865E+03  0.15555279865E+03  0.00000000000E+00 0.  1.
         21   -1    0    0  503  502 -0.00000000000E+00 -0.00000000000E+00 -0.39291197834E+03  0.39291197834E+03  0.00000000000E+00 0.  1.
         25    1    1    2    0    0 -0.20745881430E+03  0.25496201900E+02 -0.16081926619E+02  0.24407548895E+03  0.12500000000E+03 0.  0.
         21    1    1    2  503  501  0.20745881430E+03 -0.25496201900E+02 -0.22127725307E+03  0.30438928804E+03  0.00000000000E+00 0.  1.
<mgrwt>
<rscale>  3 0.49444336E+03</rscale>
<asrwt>0</asrwt>
<pdfrwt beam="1">  1       21 0.23931200E-01 0.49444336E+03</pdfrwt>
<pdfrwt beam="2">  1       21 0.60447996E-01 0.49444336E+03</pdfrwt>
<totfact> 0.38072280E+04</totfact>
</mgrwt>
</event>
<event>
 4    0  0.1775285E-001  0.4565179E+03  0.7546771E-02  0.1025796E+00
         21   -1    0    0  503  501  0.00000000000E+00  0.00000000000E+00  0.64657913312E+02  0.64657913312E+02  0.00000000000E+00 0. -1.
         21   -1    0    0  501  502 -0.00000000000E+00 -0.00000000000E+00 -0.80581231027E+03  0.80581231027E+03  0.00000000000E+00 0. -1.
         25    1    1    2    0    0 -0.15617545858E+03 -0.13970281495E+03 -0.34882668211E+03  0.42569085557E+03  0.12500000000E+03 0.  0.
         21    1    1    2  503  502  0.15617545858E+03  0.13970281495E+03 -0.39232771485E+03  0.44477936801E+03  0.00000000000E+00 0. -1.
<mgrwt>
<rscale>  3 0.45651787E+03</rscale>
<asrwt>0</asrwt>
<pdfrwt beam="1">  1       21 0.99473711E-02 0.45651787E+03</pdfrwt>
<pdfrwt beam="2">  1       21 0.12397113E+00 0.45651787E+03</pdfrwt>
<totfact> 0.36165001E+04</totfact>
</mgrwt>
</event>
<event>
 4    0  0.1775285E-001  0.4752967E+03  0.7546771E-02  0.1020436E+00
         21   -1    0    0  502  501  0.00000000000E+00  0.00000000000E+00  0.29207144233E+02  0.29207144233E+02  0.00000000000E+00 0.  1.
         21   -1    0    0  503  502 -0.00000000000E+00 -0.00000000000E+00 -0.19336616807E+04  0.19336616807E+04  0.00000000000E+00 0.  1.
         25    1    1    2    0    0 -0.20769996735E+03 -0.40716416560E+02 -0.12837238496E+04  0.13070459154E+04  0.12500000000E+03 0.  0.
         21    1    1    2  503  501  0.20769996735E+03  0.40716416560E+02 -0.62073068693E+03  0.65582290957E+03  0.00000000000E+00 0.  1.
<mgrwt>
<rscale>  3 0.47529669E+03</rscale>
<asrwt>0</asrwt>
<pdfrwt beam="1">  1       21 0.44934066E-02 0.47529669E+03</pdfrwt>
<pdfrwt beam="2">  1       21 0.29748643E+00 0.47529669E+03</pdfrwt>
<totfact> 0.94676420E+03</totfact>
</mgrwt>
</event>
<event>
 4    0  0.1775285E-001  0.5575296E+03  0.7546771E-02  0.9997660E-01
         21   -1    0    0  502  501  0.00000000000E+00  0.00000000000E+00  0.19804298142E+04  0.19804298142E+04  0.00000000000E+00 0.  1.
         21   -1    0    0  503  502 -0.00000000000E+00 -0.00000000000E+00 -0.39238861831E+02  0.39238861831E+02  0.00000000000E+00 0.  1.
         25    1    1    2    0    0  0.21235424387E+02  0.26287305932E+03  0.93516715299E+03  0.97965085240E+03  0.12500000000E+03 0.  0.
         21    1    1    2  503  501 -0.21235424387E+02 -0.26287305932E+03  0.10060237993E+04  0.10400178236E+04  0.00000000000E+00 0.  1.
<mgrwt>
<rscale>  3 0.55752959E+03</rscale>
<asrwt>0</asrwt>
<pdfrwt beam="1">  1       21 0.30468143E+00 0.55752959E+03</pdfrwt>
<pdfrwt beam="2">  1       21 0.60367495E-02 0.55752959E+03</pdfrwt>
<totfact> 0.49712918E+03</totfact>
</mgrwt>
</event>
<event>
 4    0  0.1775285E-001  0.6303258E+03  0.7546771E-02  0.9844413E-01
         21   -1    0    0  503  501  0.00000000000E+00  0.00000000000E+00  0.17990108732E+03  0.17990108732E+03  0.00000000000E+00 0. -1.
         21   -1    0    0  501  502 -0.00000000000E+00 -0.00000000000E+00 -0.55212371195E+03  0.55212371195E+03  0.00000000000E+00 0. -1.
         25    1    1    2    0    0  0.29867905697E+03 -0.48994116741E+02 -0.18449687852E+03  0.37586393912E+03  0.12500000000E+03 0.  0.
         21    1    1    2  503  502 -0.29867905697E+03  0.48994116741E+02 -0.18772574612E+03  0.35616086015E+03  0.00000000000E+00 0. -1.
<mgrwt>
<rscale>  3 0.63032581E+03</rscale>
<asrwt>0</asrwt>
<pdfrwt beam="1">  1       21 0.27677091E-01 0.63032581E+03</pdfrwt>
<pdfrwt beam="2">  1       21 0.84942108E-01 0.63032581E+03</pdfrwt>
<totfact> 0.12841880E+04</totfact>
</mgrwt>
</event>
<event>
 4    0  0.1775285E-001  0.5120969E+03  0.7546771E-02  0.1010669E+00
         21   -1    0    0  503  501  0.00000000000E+00  0.00000000000E+00  0.30952387546E+03  0.30952387546E+03  0.00000000000E+00 0.  1.
         21   -1    0    0  501  502 -0.00000000000E+00 -0.00000000000E+00 -0.21181175731E+03  0.21181175731E+03  0.00000000000E+00 0.  1.
         25    1    1    2    0    0  0.73508712292E+02 -0.21933913639E+03 -0.16280881780E+02  0.26344497461E+03  0.12500000000E+03 0.  0.
         21    1    1    2  503  502 -0.73508712292E+02  0.21933913639E+03  0.11399299992E+03  0.25789065816E+03  0.00000000000E+00 0.  1.
<mgrwt>
<rscale>  3 0.51209685E+03</rscale>
<asrwt>0</asrwt>
<pdfrwt beam="1">  1       21 0.47619058E-01 0.51209685E+03</pdfrwt>
<pdfrwt beam="2">  1       21 0.32586424E-01 0.51209685E+03</pdfrwt>
<totfact> 0.34485313E+04</totfact>
</mgrwt>
</event>
<event>
 4    0  0.1775285E-001  0.6560541E+03  0.7546771E-02  0.9795485E-01
         21   -1    0    0  502  501  0.00000000000E+00  0.00000000000E+00  0.56860134899E+02  0.56860134899E+02  0.00000000000E+00 0.  1.
         21   -1    0    0  503  502 -0.00000000000E+00 -0.00000000000E+00 -0.18923935047E+04  0.18923935047E+04  0.00000000000E+00 0.  1.
         25    1    1    2    0    0 -0.17643014802E+03  0.25732292971E+03 -0.79992247424E+03  0.86766563380E+03  0.12500000000E+03 0.  0.
         21    1    1    2  503  501  0.17643014802E+03 -0.25732292971E+03 -0.10356108956E+04  0.10815880058E+04  0.00000000000E+00 0. -1.
<mgrwt>
<rscale>  3 0.65605411E+03</rscale>
<asrwt>0</asrwt>
<pdfrwt beam="1">  1       21 0.87477133E-02 0.65605411E+03</pdfrwt>
<pdfrwt beam="2">  1       21 0.29113745E+00 0.65605411E+03</pdfrwt>
<totfact> 0.30114246E+03</totfact>
</mgrwt>
</event>
<event>
 4    0  0.1775285E-001  0.6510634E+03  0.7546771E-02  0.9804786E-01
         21   -1    0    0  502  501  0.00000000000E+00  0.00000000000E+00  0.38765934350E+03  0.38765934350E+03  0.00000000000E+00 0.  1.
         21   -1    0    0  503  502 -0.00000000000E+00 -0.00000000000E+00 -0.27336088806E+03  0.27336088806E+03  0.00000000000E+00 0.  1.
         25    1    1    2    0    0  0.26350179590E+03  0.16600735924E+03  0.22497836131E+02  0.33633731936E+03  0.12500000000E+03 0.  0.
         21    1    1    2  503  501 -0.26350179590E+03 -0.16600735924E+03  0.91800619316E+02  0.32468291220E+03  0.00000000000E+00 0.  1.
<mgrwt>
<rscale>  3 0.65106345E+03</rscale>
<asrwt>0</asrwt>
<pdfrwt beam="1">  1       21 0.59639899E-01 0.65106345E+03</pdfrwt>
<pdfrwt beam="2">  1       21 0.42055521E-01 0.65106345E+03</pdfrwt>
<totfact> 0.12228521E+04</totfact>
</mgrwt>
</event>
<event>
 4    0  0.1775285E-001  0.4477823E+03  0.7546771E-02  0.1028385E+00
         21   -1    0    0  503  501  0.00000000000E+00  0.00000000000E+00  0.83586529383E+03  0.83586529383E+03  0.00000000000E+00 0. -1.
         21   -1    0    0  501  502 -0.00000000000E+00 -0.00000000000E+00 -0.59970486170E+02  0.59970486170E+02  0.00000000000E+00 0. -1.
         25    1    1    2    0    0 -0.11461344285E+03 -0.16595258573E+03  0.50635649042E+03  0.55919441823E+03  0.12500000000E+03 0.  0.
         21    1    1    2  503  502  0.11461344285E+03  0.16595258573E+03  0.26953831724E+03  0.33664136177E+03  0.00000000000E+00 0. -1.
<mgrwt>
<rscale>  3 0.44778230E+03</rscale>
<asrwt>0</asrwt>
<pdfrwt beam="1">  1       21 0.12859465E+00 0.44778230E+03</pdfrwt>
<pdfrwt beam="2">  1       21 0.92262292E-02 0.44778230E+03</pdfrwt>
<totfact> 0.37747313E+04</totfact>
</mgrwt>
</event>
<event>
 4    0  0.1775285E-001  0.4611843E+03  0.7546771E-02  0.1024438E+00
         21   -1    0    0  503  501  0.00000000000E+00  0.00000000000E+00  0.32757673080E+03  0.32757673080E+03  0.00000000000E+00 0.  1.
         21   -1    0    0  501  502 -0.00000000000E+00 -0.00000000000E+00 -0.16232146230E+03  0.16232146230E+03  0.00000000000E+00 0.  1.
         25    1    1    2    0    0  0.20499017907E+02  0.21263493643E+03  0.92582548054E+02  0.26425433606E+03  0.12500000000E+03 0.  0.
         21    1    1    2  503  502 -0.20499017907E+02 -0.21263493643E+03  0.72672720443E+02  0.22564385704E+03  0.00000000000E+00 0.  1.
<mgrwt>
<rscale>  3 0.46118428E+03</rscale>
<asrwt>0</asrwt>
<pdfrwt beam="1">  1       21 0.50396420E-01 0.46118428E+03</pdfrwt>
<pdfrwt beam="2">  1       21 0.24972533E-01 0.46118428E+03</pdfrwt>
<totfact> 0.52310863E+04</totfact>
</mgrwt>
</event>
<event>
 4    0  0.1775285E-001  0.5492091E+03  0.7546771E-02  0.1001677E+00
         21   -1    0    0  502  501  0.00000000000E+00  0.00000000000E+00  0.15864621954E+03  0.15864621954E+03  0.00000000000E+00 0. -1.
         21   -1    0    0  503  502 -0.00000000000E+00 -0.00000000000E+00 -0.47531966355E+03  0.47531966355E+03  0.00000000000E+00 0. -1.
         25    1    1    2    0    0  0.20736948755E+03  0.15655225722E+03 -0.18608769623E+03  0.34316809918E+03  0.12500000000E+03 0.  0.
         21    1    1    2  503  501 -0.20736948755E+03 -0.15655225722E+03 -0.13058574778E+03  0.29079778392E+03  0.00000000000E+00 0. -1.
<mgrwt>
<rscale>  3 0.54920913E+03</rscale>
<asrwt>0</asrwt>
<pdfrwt beam="1">  1       21 0.24407111E-01 0.54920913E+03</pdfrwt>
<pdfrwt beam="2">  1       21 0.73126102E-01 0.54920913E+03</pdfrwt>
<totfact> 0.23653532E+04</totfact>
</mgrwt>
</event>
<event>
 4    0  0.1775285E-001  0.7879979E+03  0.7546771E-02  0.9577554E-01
         21   -1    0    0  502  501  0.00000000000E+00  0.00000000000E+00  0.24246118744E+03  0.24246118744E+03  0.00000000000E+00 0.  1.
         21   -1    0    0  503  502 -0.00000000000E+00 -0.00000000000E+00 -0.64024744804E+03  0.64024744804E+03  0.00000000000E+00 0.  1.
         25    1    1    2    0    0  0.31969444847E+03  0.21087796045E+03 -0.17129872070E+03  0.43776969550E+03  0.12500000000E+03 0.  0.
         21    1    1    2  503  501 -0.31969444847E+03 -0.21087796045E+03 -0.22648753990E+03  0.44493893998E+03  0.00000000000E+00 0.  1.
<mgrwt>
<rscale>  3 0.78799786E+03</rscale>
<asrwt>0</asrwt>
<pdfrwt beam="1">  1       21 0.37301722E-01 0.78799786E+03</pdfrwt>
<pdfrwt beam="2">  1       21 0.98499605E-01 0.78799786E+03</pdfrwt>
<totfact> 0.47739158E+03</totfact>
</mgrwt>
</event>
<event>
 4    0  0.1775285E-001  0.4415872E+03  0.7546771E-02  0.1030261E+00
         21   -1    0    0  503  501  0.00000000000E+00  0.00000000000E+00  0.16429459255E+03  0.16429459255E+03  0.00000000000E+00 0.  1.
         21   -1    0    0  501  502 -0.00000000000E+00 -0.00000000000E+00 -0.29672193667E+03  0.29672193667E+03  0.00000000000E+00 0.  1.
         25    1    1    2    0    0 -0.18743806374E+03  0.74888049802E+02 -0.47964106865E+02  0.24221231036E+03  0.12500000000E+03 0.  0.
         21    1    1    2  503  502  0.18743806374E+03 -0.74888049802E+02 -0.84463237253E+02  0.21880421886E+03  0.00000000000E+00 0.  1.
<mgrwt>
<rscale>  3 0.44158718E+03</rscale>
<asrwt>0</asrwt>
<pdfrwt beam="1">  1       21 0.25276091E-01 0.44158718E+03</pdfrwt>
<pdfrwt beam="2">  1       21 0.45649529E-01 0.44158718E+03</pdfrwt>
<totfact> 0.63241164E+04</totfact>
</mgrwt>
</event>
<event>
 4    0  0.1775285E-001  0.5052044E+03  0.7546771E-02  0.1012429E+00
         21   -1    0    0  503  501  0.00000000000E+00  0.00000000000E+00  0.75455016248E+03  0.75455016248E+03  0.00000000000E+00 0. -1.
         21   -1    0    0  501  502 -0.00000000000E+00 -0.00000000000E+00 -0.84564118905E+02  0.84564118905E+02  0.00000000000E+00 0. -1.
         25    1    1    2    0    0 -0.12211029447E+03  0.20325545745E+03  0.36095963202E+03  0.44960044590E+03  0.12500000000E+03 0.  0.
         21    1    1    2  503  502  0.12211029447E+03 -0.20325545745E+03  0.30902641155E+03  0.38951383549E+03  0.00000000000E+00 0. -1.
<mgrwt>
<rscale>  3 0.50520439E+03</rscale>
<asrwt>0</asrwt>
<pdfrwt beam="1">  1       21 0.11608464E+00 0.50520439E+03</pdfrwt>
<pdfrwt beam="2">  1       21 0.13009865E-01 0.50520439E+03</pdfrwt>
<totfact> 0.25938417E+04</totfact>
</mgrwt>
</event>
<event>
 4    0  0.1775285E-001  0.5053781E+03  0.7546771E-02  0.1012385E+00
         21   -1    0    0  503  501  0.00000000000E+00  0.00000000000E+00  0.53594700763E+03  0.53594700763E+03  0.00000000000E+00 0.  1.
         21   -1    0    0  501  502 -0.00000000000E+00 -0.00000000000E+00 -0.11913820595E+03  0.11913820595E+03  0.00000000000E+00 0.  1.
         25    1    1    2    0    0 -0.28493936369E+02 -0.22567612983E+03  0.13384725908E+03  0.29203032163E+03  0.12500000000E+03 0.  0.
         21    1    1    2  503  502  0.28493936369E+02  0.22567612983E+03  0.28296154259E+03  0.36305489195E+03  0.00000000000E+00 0.  1.
<mgrwt>
<rscale>  3 0.50537814E+03</rscale>
<asrwt>0</asrwt>
<pdfrwt beam="1">  1       21 0.82453384E-01 0.50537814E+03</pdfrwt>
<pdfrwt beam="2">  1       21 0.18328955E-01 0.50537814E+03</pdfrwt>
<totfact> 0.31371058E+04</totfact>
</mgrwt>
</event>
<event>
 4    0  0.1775285E-001  0.4517366E+03  0.7546771E-02  0.1027205E+00
         21   -1    0    0  502  501  0.00000000000E+00  0.00000000000E+00  0.72093343875E+03  0.72093343875E+03  0.00000000000E+00 0.  1.
         21   -1    0    0  503  502 -0.00000000000E+00 -0.00000000000E+00 -0.70764485605E+02  0.70764485605E+02  0.00000000000E+00 0.  1.
         25    1    1    2    0    0 -0.12483217432E+03  0.16187834472E+03  0.27738879809E+03  0.36654769886E+03  0.12500000000E+03 0.  0.
         21    1    1    2  503  501  0.12483217432E+03 -0.16187834472E+03  0.37278015506E+03  0.42515022550E+03  0.00000000000E+00 0.  1.
<mgrwt>
<rscale>  3 0.45173658E+03</rscale>
<asrwt>0</asrwt>
<pdfrwt beam="1">  1       21 0.11091283E+00 0.45173658E+03</pdfrwt>
<pdfrwt beam="2">  1       21 0.10886844E-01 0.45173658E+03</pdfrwt>
<totfact> 0.40738777E+04</totfact>
</mgrwt>
</event>
<event>
 4    0  0.1775285E-001  0.5610671E+03  0.7546771E-02  0.9989643E-01
         21   -1    0    0  503  501  0.00000000000E+00  0.00000000000E+00  0.50201220095E+03  0.50201220095E+03  0.00000000000E+00 0. -1.
         21   -1    0    0  501  502 -0.00000000000E+00 -0.00000000000E+00 -0.15676722301E+03  0.15676722301E+03  0.00000000000E+00 0. -1.
         25    1    1    2    0    0  0.23746649512E+03  0.86958776730E+01  0.39246628023E+02  0.27135079216E+03  0.12500000000E+03 0.  0.
         21    1    1    2  503  502 -0.23746649512E+03 -0.86958776730E+01  0.30599834991E+03  0.38742863181E+03  0.00000000000E+00 0. -1.
<mgrwt>
<rscale>  3 0.56106705E+03</rscale>
<asrwt>0</asrwt>
<pdfrwt beam="1">  1       21 0.77232646E-01 0.56106705E+03</pdfrwt>
<pdfrwt beam="2">  1       21 0.24118035E-01 0.56106705E+03</pdfrwt>
<totfact> 0.21305631E+04</totfact>
</mgrwt>
</event>
<event>
 4    0  0.1775285E-001  0.6651216E+03  0.7546771E-02  0.9778811E-01
         21   -1    0    0  502  501  0.00000000000E+00  0.00000000000E+00  0.95088700826E+02  0.95088700826E+02  0.00000000000E+00 0.  1.
         21   -1    0    0  503  502 -0.00000000000E+00 -0.00000000000E+00 -0.11630895032E+04  0.11630895032E+04  0.00000000000E+00 0.  1.
         25    1    1    2    0    0 -0.23127315827E+03 -0.21853290673E+03 -0.47536733116E+03  0.58552797081E+03  0.12500000000E+03 0.  0.
         21    1    1    2  503  501  0.23127315827E+03  0.21853290673E+03 -0.59263347124E+03  0.67265023325E+03  0.00000000000E+00 0.  1.
<mgrwt>
<rscale>  3 0.66512155E+03</rscale>
<asrwt>0</asrwt>
<pdfrwt beam="1">  1       21 0.14629031E-01 0.66512155E+03</pdfrwt>
<pdfrwt beam="2">  1       21 0.17893684E+00 0.66512155E+03</pdfrwt>
<totfact> 0.62064100E+03</totfact>
</mgrwt>
</event>
<event>
 4    0  0.1775285E-001  0.5543799E+03  0.7546771E-02  0.1000485E+00
         21   -1    0    0  502  501  0.00000000000E+00  0.00000000000E+00  0.98891084642E+02  0.98891084642E+02  0.00000000000E+00 0. -1.
         21   -1    0    0  503  502 -0.00000000000E+00 -0.00000000000E+00 -0.77695844319E+03  0.77695844319E+03  0.00000000000E+00 0. -1.
         25    1    1    2    0    0  0.22711943953E+03  0.12718714281E+03 -0.29589197075E+03  0.41344512025E+03  0.12500000000E+03 0.  0.
         21    1    1    2  503  501 -0.22711943953E+03 -0.12718714281E+03 -0.38217538779E+03  0.46240440757E+03  0.00000000000E+00 0. -1.
<mgrwt>
<rscale>  3 0.55437988E+03</rscale>
<asrwt>0</asrwt>
<pdfrwt beam="1">  1       21 0.15214012E-01 0.55437988E+03</pdfrwt>
<pdfrwt beam="2">  1       21 0.11953207E+00 0.55437988E+03</pdfrwt>
<totfact> 0.17823881E+04</totfact>
</mgrwt>
</event>
<event>
 4    0  0.1775285E-001  0.4801713E+03  0.7546771E-02  0.1019088E+00
         21   -1    0    0  502  501  0.00000000000E+00  0.00000000000E+00  0.71877696696E+02  0.71877696696E+02  0.00000000000E+00 0. -1.
         21   -1    0    0  503  502 -0.00000000000E+00 -0.00000000000E+00 -0.80193340874E+03  0.80193340874E+03  0.00000000000E+00 0. -1.
         25    1    1    2    0    0  0.14555228021E+03  0.16904952629E+03 -0.35670017465E+03  0.43888862278E+03  0.12500000000E+03 0.  0.
         21    1    1    2  503  501 -0.14555228021E+03 -0.16904952629E+03 -0.37335553739E+03  0.43492248265E+03  0.00000000000E+00 0. -1.
<mgrwt>
<rscale>  3 0.48017133E+03</rscale>
<asrwt>0</asrwt>
<pdfrwt beam="1">  1       21 0.11058106E-01 0.48017133E+03</pdfrwt>
<pdfrwt beam="2">  1       21 0.12337438E+00 0.48017133E+03</pdfrwt>
<totfact> 0.30066864E+04</totfact>
</mgrwt>
</event>
<event>
 4    0  0.1775285E-001  0.7832279E+03  0.7546771E-02  0.9584616E-01
         21   -1    0    0  502  501  0.00000000000E+00  0.00000000000E+00  0.21223562894E+03  0.21223562894E+03  0.00000000000E+00 0. -1.
         21   -1    0    0  503  502 -0.00000000000E+00 -0.00000000000E+00 -0.72260007232E+03  0.72260007232E+03  0.00000000000E+00 0. -1.
         25    1    1    2    0    0 -0.32452740372E+03  0.79675986328E+02 -0.41656568608E+02  0.35920268411E+03  0.12500000000E+03 0.  0.
         21    1    1    2  503  501  0.32452740372E+03 -0.79675986328E+02 -0.46870787478E+03  0.57563301716E+03  0.00000000000E+00 0. -1.
<mgrwt>
<rscale>  3 0.78322789E+03</rscale>
<asrwt>0</asrwt>
<pdfrwt beam="1">  1       21 0.32651635E-01 0.78322789E+03</pdfrwt>
<pdfrwt beam="2">  1       21 0.11116924E+00 0.78322789E+03</pdfrwt>
<totfact> 0.46403498E+03</totfact>
</mgrwt>
</event>
<event>
 4    0  0.1775285E-001  0.6372767E+03  0.7546771E-02  0.9830951E-01
         21   -1    0    0  502  501  0.00000000000E+00  0.00000000000E+00  0.56329222221E+03  0.56329222221E+03  0.00000000000E+00 0.  1.
         21   -1    0    0  503  502 -0.00000000000E+00 -0.00000000000E+00 -0.18024462987E+03  0.18024462987E+03  0.00000000000E+00 0.  1.
         25    1    1    2    0    0 -0.22755694437E+03 -0.19657784205E+03  0.13042972693E+03  0.35080183093E+03  0.12500000000E+03 0.  0.
         21    1    1    2  503  501  0.22755694437E+03  0.19657784205E+03  0.25261786541E+03  0.39273502115E+03  0.00000000000E+00 0.  1.
<mgrwt>
<rscale>  3 0.63727670E+03</rscale>
<asrwt>0</asrwt>
<pdfrwt beam="1">  1       21 0.86660341E-01 0.63727670E+03</pdfrwt>
<pdfrwt beam="2">  1       21 0.27729943E-01 0.63727670E+03</pdfrwt>
<totfact> 0.12184944E+04</totfact>
</mgrwt>
</event>
<event>
 4    0  0.1775285E-001  0.4659912E+03  0.7546771E-02  0.1023058E+00
         21   -1    0    0  502  501  0.00000000000E+00  0.00000000000E+00  0.28790963729E+03  0.28790963729E+03  0.00000000000E+00 0. -1.
         21   -1    0    0  503  502 -0.00000000000E+00 -0.00000000000E+00 -0.18855555048E+03  0.18855555048E+03  0.00000000000E+00 0. -1.
         25    1    1    2    0    0  0.32968969877E+02  0.21345917543E+03  0.63667008958E+02  0.25754661826E+03  0.12500000000E+03 0.  0.
         21    1    1    2  503  501 -0.32968969877E+02 -0.21345917543E+03  0.35687077856E+02  0.21891856950E+03  0.00000000000E+00 0. -1.
<mgrwt>
<rscale>  3 0.46599125E+03</rscale>
<asrwt>0</asrwt>
<pdfrwt beam="1">  1       21 0.44293790E-01 0.46599125E+03</pdfrwt>
<pdfrwt beam="2">  1       21 0.29008546E-01 0.46599125E+03</pdfrwt>
<totfact> 0.51139600E+04</totfact>
</mgrwt>
</event>
<event>
 4    0  0.1775285E-001  0.4955740E+03  0.7546771E-02  0.1014941E+00
         21   -1    0    0  502  501  0.00000000000E+00  0.00000000000E+00  0.16726152294E+03  0.16726152294E+03  0.00000000000E+00 0.  1.
         21   -1    0    0  503  502 -0.00000000000E+00 -0.00000000000E+00 -0.36708020257E+03  0.36708020257E+03  0.00000000000E+00 0.  1.
         25    1    1    2    0    0 -0.89813975272E+01 -0.20545691588E+03  0.95683204630E+01  0.24085215909E+03  0.12500000000E+03 0.  0.
         21    1    1    2  503  501  0.89813975272E+01  0.20545691588E+03 -0.20938700009E+03  0.29348956641E+03  0.00000000000E+00 0.  1.
<mgrwt>
<rscale>  3 0.49557399E+03</rscale>
<asrwt>0</asrwt>
<pdfrwt beam="1">  1       21 0.25732542E-01 0.49557399E+03</pdfrwt>
<pdfrwt beam="2">  1       21 0.56473876E-01 0.49557399E+03</pdfrwt>
<totfact> 0.38342360E+04</totfact>
</mgrwt>
</event>
<event>
 4    0  0.1775285E-001  0.5219718E+03  0.7546771E-02  0.1008198E+00
         21   -1    0    0  503  501  0.00000000000E+00  0.00000000000E+00  0.84592165740E+02  0.84592165740E+02  0.00000000000E+00 0. -1.
         21   -1    0    0  501  502 -0.00000000000E+00 -0.00000000000E+00 -0.80520023270E+03  0.80520023270E+03  0.00000000000E+00 0. -1.
         25    1    1    2    0    0  0.20009661221E+03  0.71451269961E+02 -0.59238268748E+03  0.64162776329E+03  0.12500000000E+03 0.  0.
         21    1    1    2  503  502 -0.20009661221E+03 -0.71451269961E+02 -0.12822537948E+03  0.24816463515E+03  0.00000000000E+00 0. -1.
<mgrwt>
<rscale>  3 0.52197177E+03</rscale>
<asrwt>0</asrwt>
<pdfrwt beam="1">  1       21 0.13014178E-01 0.52197177E+03</pdfrwt>
<pdfrwt beam="2">  1       21 0.12387697E+00 0.52197177E+03</pdfrwt>
<totfact> 0.21879641E+04</totfact>
</mgrwt>
</event>
<event>
 4    0  0.1775285E-001  0.5135844E+03  0.7546771E-02  0.1010293E+00
         21   -1    0    0  503  501  0.00000000000E+00  0.00000000000E+00  0.98308954680E+02  0.98308954680E+02  0.00000000000E+00 0.  1.
         21   -1    0    0  501  502 -0.00000000000E+00 -0.00000000000E+00 -0.67076521696E+03  0.67076521696E+03  0.00000000000E+00 0.  1.
         25    1    1    2    0    0  0.19678271998E+02  0.24041495375E+03 -0.32296705244E+03  0.42204182416E+03  0.12500000000E+03 0.  0.
         21    1    1    2  503  502 -0.19678271998E+02 -0.24041495375E+03 -0.24948920984E+03  0.34703234749E+03  0.00000000000E+00 0.  1.
<mgrwt>
<rscale>  3 0.51358437E+03</rscale>
<asrwt>0</asrwt>
<pdfrwt beam="1">  1       21 0.15124455E-01 0.51358437E+03</pdfrwt>
<pdfrwt beam="2">  1       21 0.10319465E+00 0.51358437E+03</pdfrwt>
<totfact> 0.26259374E+04</totfact>
</mgrwt>
</event>
<event>
 4    0  0.1775285E-001  0.5524238E+03  0.7546771E-02  0.1000934E+00
         21   -1    0    0  502  501  0.00000000000E+00  0.00000000000E+00  0.85579879078E+03  0.85579879078E+03  0.00000000000E+00 0. -1.
         21   -1    0    0  503  502 -0.00000000000E+00 -0.00000000000E+00 -0.89148313840E+02  0.89148313840E+02  0.00000000000E+00 0. -1.
         25    1    1    2    0    0 -0.15220388243E+03  0.21333941898E+03  0.40142934813E+03  0.49542936032E+03  0.12500000000E+03 0.  0.
         21    1    1    2  503  501  0.15220388243E+03 -0.21333941898E+03  0.36522112881E+03  0.44951774431E+03  0.00000000000E+00 0. -1.
<mgrwt>
<rscale>  3 0.55242382E+03</rscale>
<asrwt>0</asrwt>
<pdfrwt beam="1">  1       21 0.13166135E+00 0.55242382E+03</pdfrwt>
<pdfrwt beam="2">  1       21 0.13715126E-01 0.55242382E+03</pdfrwt>
<totfact> 0.16832933E+04</totfact>
</mgrwt>
</event>
<event>
 4    0  0.1775285E-001  0.5373957E+03  0.7546771E-02  0.1004454E+00
         21   -1    0    0  503  501  0.00000000000E+00  0.00000000000E+00  0.10855627861E+04  0.10855627861E+04  0.00000000000E+00 0. -1.
         21   -1    0    0  501  502 -0.00000000000E+00 -0.00000000000E+00 -0.66507939207E+02  0.66507939207E+02  0.00000000000E+00 0. -1.
         25    1    1    2    0    0 -0.36506010128E+02  0.21440231495E+03  0.25515151234E+03  0.35781047453E+03  0.12500000000E+03 0.  0.
         21    1    1    2  503  502  0.36506010128E+02 -0.21440231495E+03  0.76390333458E+03  0.79426025081E+03  0.00000000000E+00 0. -1.
<mgrwt>
<rscale>  3 0.53739573E+03</rscale>
<asrwt>0</asrwt>
<pdfrwt beam="1">  1       21 0.16700965E+00 0.53739573E+03</pdfrwt>
<pdfrwt beam="2">  1       21 0.10231991E-01 0.53739573E+03</pdfrwt>
<totfact> 0.15085320E+04</totfact>
</mgrwt>
</event>
<event>
 4    0  0.1775285E-001  0.4495486E+03  0.7546771E-02  0.1027857E+00
         21   -1    0    0  503  501  0.00000000000E+00  0.00000000000E+00  0.57838417276E+03  0.57838417276E+03  0.00000000000E+00 0. -1.
         21   -1    0    0  501  502 -0.00000000000E+00 -0.00000000000E+00 -0.87352816225E+02  0.87352816225E+02  0.00000000000E+00 0. -1.
         25    1    1    2    0    0  0.28532979971E+02  0.20501752106E+03  0.28361726801E+03  0.37270641207E+03  0.12500000000E+03 0.  0.
         21    1    1    2  503  502 -0.28532979971E+02 -0.20501752106E+03  0.20741408853E+03  0.29303057691E+03  0.00000000000E+00 0. -1.
<mgrwt>
<rscale>  3 0.44954860E+03</rscale>
<asrwt>0</asrwt>
<pdfrwt beam="1">  1       21 0.88982178E-01 0.44954860E+03</pdfrwt>
<pdfrwt beam="2">  1       21 0.13438895E-01 0.44954860E+03</pdfrwt>
<totfact> 0.47371681E+04</totfact>
</mgrwt>
</event>
<event>
 4    0  0.1775285E-001  0.7342687E+03  0.7546771E-02  0.9660359E-01
         21   -1    0    0  502  501  0.00000000000E+00  0.00000000000E+00  0.13647842235E+04  0.13647842235E+04  0.00000000000E+00 0. -1.
         21   -1    0    0  503  502 -0.00000000000E+00 -0.00000000000E+00 -0.98761140512E+02  0.98761140512E+02  0.00000000000E+00 0. -1.
         25    1    1    2    0    0 -0.53444639975E+02  0.31713077799E+03  0.95794768086E+03  0.10181930167E+04  0.12500000000E+03 0.  0.
         21    1    1    2  503  501  0.53444639975E+02 -0.31713077799E+03  0.30807540209E+03  0.44535234732E+03  0.00000000000E+00 0. -1.
<mgrwt>
<rscale>  3 0.73426874E+03</rscale>
<asrwt>0</asrwt>
<pdfrwt beam="1">  1       21 0.20996679E+00 0.73426874E+03</pdfrwt>
<pdfrwt beam="2">  1       21 0.15194023E-01 0.73426874E+03</pdfrwt>
<totfact> 0.34755317E+03</totfact>
</mgrwt>
</event>
<event>
 4    0  0.1775285E-001  0.5470282E+03  0.7546771E-02  0.1002184E+00
         21   -1    0    0  502  501  0.00000000000E+00  0.00000000000E+00  0.16512000214E+03  0.16512000214E+03  0.00000000000E+00 0. -1.
         21   -1    0    0  503  502 -0.00000000000E+00 -0.00000000000E+00 -0.45306427455E+03  0.45306427455E+03  0.00000000000E+00 0. -1.
         25    1    1    2    0    0 -0.14072793773E+03 -0.17121454470E+03  0.47383088005E+00  0.25444841774E+03  0.12500000000E+03 0.  0.
         21    1    1    2  503  501  0.14072793773E+03  0.17121454470E+03 -0.28841810329E+03  0.36373585894E+03  0.00000000000E+00 0. -1.
<mgrwt>
<rscale>  3 0.54702824E+03</rscale>
<asrwt>0</asrwt>
<pdfrwt beam="1">  1       21 0.25403077E-01 0.54702824E+03</pdfrwt>
<pdfrwt beam="2">  1       21 0.69702196E-01 0.54702824E+03</pdfrwt>
<totfact> 0.24403621E+04</totfact>
</mgrwt>
</event>
<event>
 4    0  0.1775285E-001  0.5822497E+03  0.7546771E-02  0.9942932E-01
         21   -1    0    0  503  501  0.00000000000E+00  0.00000000000E+00  0.53104535635E+03  0.53104535635E+03  0.00000000000E+00 0.  1.
         21   -1    0    0  501  502 -0.00000000000E+00 -0.00000000000E+00 -0.15959779087E+03  0.15959779087E+03  0.00000000000E+00 0.  1.
         25    1    1    2    0    0  0.74655627974E+02  0.24576968654E+03  0.69060569501E+02  0.29388869299E+03  0.12500000000E+03 0.  0.
         21    1    1    2  503  502 -0.74655627974E+02 -0.24576968654E+03  0.30238699598E+03  0.39675445422E+03  0.00000000000E+00 0.  1.
<mgrwt>
<rscale>  3 0.58224966E+03</rscale>
<asrwt>0</asrwt>
<pdfrwt beam="1">  1       21 0.81699285E-01 0.58224966E+03</pdfrwt>
<pdfrwt beam="2">  1       21 0.24553507E-01 0.58224966E+03</pdfrwt>
<totfact> 0.17979957E+04</totfact>
</mgrwt>
</event>
<event>
 4    0  0.1775285E-001  0.5087688E+03  0.7546771E-02  0.1011515E+00
         21   -1    0    0  503  501  0.00000000000E+00  0.00000000000E+00  0.57389035703E+02  0.57389035703E+02  0.00000000000E+00 0. -1.
         21   -1    0    0  501  502 -0.00000000000E+00 -0.00000000000E+00 -0.11275919716E+04  0.11275919716E+04  0.00000000000E+00 0. -1.
         25    1    1    2    0    0 -0.49310700924E+01  0.21514158771E+03 -0.32507934301E+03  0.40940419815E+03  0.12500000000E+03 0.  0.
         21    1    1    2  503  502  0.49310700924E+01 -0.21514158771E+03 -0.74512359290E+03  0.77557680916E+03  0.00000000000E+00 0.  1.
<mgrwt>
<rscale>  3 0.50876877E+03</rscale>
<asrwt>0</asrwt>
<pdfrwt beam="1">  1       21 0.88290837E-02 0.50876877E+03</pdfrwt>
<pdfrwt beam="2">  1       21 0.17347566E+00 0.50876877E+03</pdfrwt>
<totfact> 0.17773563E+04</totfact>
</mgrwt>
</event>
<event>
 4    0  0.1775285E-001  0.5419154E+03  0.7546771E-02  0.1003383E+00
         21   -1    0    0  503  501  0.00000000000E+00  0.00000000000E+00  0.22649653465E+03  0.22649653465E+03  0.00000000000E+00 0.  1.
         21   -1    0    0  501  502 -0.00000000000E+00 -0.00000000000E+00 -0.32414653890E+03  0.32414653890E+03  0.00000000000E+00 0.  1.
         25    1    1    2    0    0  0.23166131326E+03 -0.69743025341E+01  0.60338642099E+02  0.27015061852E+03  0.12500000000E+03 0.  0.
         21    1    1    2  503  502 -0.23166131326E+03  0.69743025341E+01 -0.15798864635E+03  0.28049245503E+03  0.00000000000E+00 0.  1.
<mgrwt>
<rscale>  3 0.54191537E+03</rscale>
<asrwt>0</asrwt>
<pdfrwt beam="1">  1       21 0.34845621E-01 0.54191537E+03</pdfrwt>
<pdfrwt beam="2">  1       21 0.49868698E-01 0.54191537E+03</pdfrwt>
<totfact> 0.27135927E+04</totfact>
</mgrwt>
</event>
<event>
 4    0  0.1775285E-001  0.4550066E+03  0.7546771E-02  0.1026239E+00
         21   -1    0    0  503  501  0.00000000000E+00  0.00000000000E+00  0.12495587907E+04  0.12495587907E+04  0.00000000000E+00 0. -1.
         21   -1    0    0  501  502 -0.00000000000E+00 -0.00000000000E+00 -0.41420821870E+02  0.41420821870E+02  0.00000000000E+00 0. -1.
         25    1    1    2    0    0  0.10348881712E+03  0.17945632669E+03  0.75295921815E+03  0.79087741949E+03  0.12500000000E+03 0.  0.
         21    1    1    2  503  502 -0.10348881712E+03 -0.17945632669E+03  0.45517875071E+03  0.50010219311E+03  0.00000000000E+00 0. -1.
<mgrwt>
<rscale>  3 0.45500660E+03</rscale>
<asrwt>0</asrwt>
<pdfrwt beam="1">  1       21 0.19223979E+00 0.45500660E+03</pdfrwt>
<pdfrwt beam="2">  1       21 0.63724351E-02 0.45500660E+03</pdfrwt>
<totfact> 0.23736291E+04</totfact>
</mgrwt>
</event>
<event>
 4    0  0.1775285E-001  0.4462656E+03  0.7546771E-02  0.1028842E+00
         21   -1    0    0  503  501  0.00000000000E+00  0.00000000000E+00  0.81314176111E+02  0.81314176111E+02  0.00000000000E+00 0. -1.
         21   -1    0    0  501  502 -0.00000000000E+00 -0.00000000000E+00 -0.61229474105E+03  0.61229474105E+03  0.00000000000E+00 0. -1.
         25    1    1    2    0    0 -0.19794395989E+03  0.52567585847E+02 -0.31485446886E+03  0.39585792767E+03  0.12500000000E+03 0.  0.
         21    1    1    2  503  502  0.19794395989E+03 -0.52567585847E+02 -0.21612609608E+03  0.29775098949E+03  0.00000000000E+00 0. -1.
<mgrwt>
<rscale>  3 0.44626558E+03</rscale>
<asrwt>0</asrwt>
<pdfrwt beam="1">  1       21 0.12509874E-01 0.44626558E+03</pdfrwt>
<pdfrwt beam="2">  1       21 0.94199188E-01 0.44626558E+03</pdfrwt>
<totfact> 0.47212805E+04</totfact>
</mgrwt>
</event>
<event>
 4    0  0.1775285E-001  0.4847883E+03  0.7546771E-02  0.1017827E+00
         21   -1    0    0  502  501  0.00000000000E+00  0.00000000000E+00  0.50837639818E+03  0.50837639818E+03  0.00000000000E+00 0.  1.
         21   -1    0    0  503  502 -0.00000000000E+00 -0.00000000000E+00 -0.11557365100E+03  0.11557365100E+03  0.00000000000E+00 0.  1.
         25    1    1    2    0    0 -0.13281986637E+03 -0.15727440636E+03  0.88545645064E+02  0.25659635044E+03  0.12500000000E+03 0.  0.
         21    1    1    2  503  501  0.13281986637E+03  0.15727440636E+03  0.30425710212E+03  0.36735369875E+03  0.00000000000E+00 0.  1.
<mgrwt>
<rscale>  3 0.48478827E+03</rscale>
<asrwt>0</asrwt>
<pdfrwt beam="1">  1       21 0.78211753E-01 0.48478827E+03</pdfrwt>
<pdfrwt beam="2">  1       21 0.17780562E-01 0.48478827E+03</pdfrwt>
<totfact> 0.37715622E+04</totfact>
</mgrwt>
</event>
<event>
 4    0  0.1775285E-001  0.5998928E+03  0.7546771E-02  0.9905628E-01
         21   -1    0    0  502  501  0.00000000000E+00  0.00000000000E+00  0.62479100676E+03  0.62479100676E+03  0.00000000000E+00 0. -1.
         21   -1    0    0  503  502 -0.00000000000E+00 -0.00000000000E+00 -0.14399669688E+03  0.14399669688E+03  0.00000000000E+00 0. -1.
         25    1    1    2    0    0  0.26675967668E+03  0.10505002822E+03  0.26537395769E+03  0.41017626814E+03  0.12500000000E+03 0.  0.
         21    1    1    2  503  501 -0.26675967668E+03 -0.10505002822E+03  0.21542035219E+03  0.35861143550E+03  0.00000000000E+00 0. -1.
<mgrwt>
<rscale>  3 0.59989279E+03</rscale>
<asrwt>0</asrwt>
<pdfrwt beam="1">  1       21 0.96121692E-01 0.59989279E+03</pdfrwt>
<pdfrwt beam="2">  1       21 0.22153338E-01 0.59989279E+03</pdfrwt>
<totfact> 0.14864981E+04</totfact>
</mgrwt>
</event>
<event>
 4    0  0.1775285E-001  0.4854035E+03  0.7546771E-02  0.1017661E+00
         21   -1    0    0  503  501  0.00000000000E+00  0.00000000000E+00  0.92993699764E+03  0.92993699764E+03  0.00000000000E+00 0.  1.
         21   -1    0    0  501  502 -0.00000000000E+00 -0.00000000000E+00 -0.63342083160E+02  0.63342083160E+02  0.00000000000E+00 0.  1.
         25    1    1    2    0    0 -0.20640247839E+03 -0.90116907804E+02  0.51329749967E+03  0.57430163097E+03  0.12500000000E+03 0.  0.
         21    1    1    2  503  502  0.20640247839E+03  0.90116907804E+02  0.35329741481E+03  0.41897744984E+03  0.00000000000E+00 0.  1.
<mgrwt>
<rscale>  3 0.48540353E+03</rscale>
<asrwt>0</asrwt>
<pdfrwt beam="1">  1       21 0.14306722E+00 0.48540353E+03</pdfrwt>
<pdfrwt beam="2">  1       21 0.97449365E-02 0.48540353E+03</pdfrwt>
<totfact> 0.25593881E+04</totfact>
</mgrwt>
</event>
<event>
 4    0  0.1775285E-001  0.5385209E+03  0.7546771E-02  0.1004186E+00
         21   -1    0    0  502  501  0.00000000000E+00  0.00000000000E+00  0.43497542426E+03  0.43497542426E+03  0.00000000000E+00 0.  1.
         21   -1    0    0  503  502 -0.00000000000E+00 -0.00000000000E+00 -0.16667882824E+03  0.16667882824E+03  0.00000000000E+00 0.  1.
         25    1    1    2    0    0 -0.15026066589E+03  0.20095535814E+03  0.19055758873E+03  0.33896683953E+03  0.12500000000E+03 0.  0.
         21    1    1    2  503  501  0.15026066589E+03 -0.20095535814E+03  0.77739007293E+02  0.26268741297E+03  0.00000000000E+00 0.  1.
<mgrwt>
<rscale>  3 0.53852092E+03</rscale>
<asrwt>0</asrwt>
<pdfrwt beam="1">  1       21 0.66919296E-01 0.53852092E+03</pdfrwt>
<pdfrwt beam="2">  1       21 0.25642897E-01 0.53852092E+03</pdfrwt>
<totfact> 0.26306773E+04</totfact>
</mgrwt>
</event>
<event>
 4    0  0.1775285E-001  0.4762518E+03  0.7546771E-02  0.1020170E+00
         21   -1    0    0  502  501  0.00000000000E+00  0.00000000000E+00  0.14466563545E+04  0.14466563545E+04  0.00000000000E+00 0. -1.
         21   -1    0    0  503  502 -0.00000000000E+00 -0.00000000000E+00 -0.39196560001E+02  0.39196560001E+02  0.00000000000E+00 0. -1.
         25    1    1    2    0    0 -0.17043020846E+03 -0.14075549732E+03  0.80642509487E+03  0.84546141225E+03  0.12500000000E+03 0.  0.
         21    1    1    2  503  501  0.17043020846E+03  0.14075549732E+03  0.60103469959E+03  0.64039150220E+03  0.00000000000E+00 0. -1.
<mgrwt>
<rscale>  3 0.47625184E+03</rscale>
<asrwt>0</asrwt>
<pdfrwt beam="1">  1       21 0.22256247E+00 0.47625184E+03</pdfrwt>
<pdfrwt beam="2">  1       21 0.60302411E-02 0.47625184E+03</pdfrwt>
<totfact> 0.16401869E+04</totfact>
</mgrwt>
</event>
<event>
 4    0  0.1775285E-001  0.4674019E+03  0.7546771E-02  0.1022656E+00
         21   -1    0    0  502  501  0.00000000000E+00  0.00000000000E+00  0.32639505379E+03  0.32639505379E+03  0.00000000000E+00 0.  1.
         21   -1    0    0  503  502 -0.00000000000E+00 -0.00000000000E+00 -0.16733140048E+03  0.16733140048E+03  0.00000000000E+00 0.  1.
         25    1    1    2    0    0  0.15529232174E+03  0.13257732883E+03  0.16277571157E+03  0.28950541547E+03  0.12500000000E+03 0.  0.
         21    1    1    2  503  501 -0.15529232174E+03 -0.13257732883E+03 -0.37120582562E+01  0.20422103880E+03  0.00000000000E+00 0.  1.
<mgrwt>
<rscale>  3 0.46740193E+03</rscale>
<asrwt>0</asrwt>
<pdfrwt beam="1">  1       21 0.50214624E-01 0.46740193E+03</pdfrwt>
<pdfrwt beam="2">  1       21 0.25743292E-01 0.46740193E+03</pdfrwt>
<totfact> 0.49616731E+04</totfact>
</mgrwt>
</event>
<event>
 4    0  0.1775285E-001  0.4843967E+03  0.7546771E-02  0.1017934E+00
         21   -1    0    0  503  501  0.00000000000E+00  0.00000000000E+00  0.32847648100E+03  0.32847648100E+03  0.00000000000E+00 0.  1.
         21   -1    0    0  501  502 -0.00000000000E+00 -0.00000000000E+00 -0.17858215813E+03  0.17858215813E+03  0.00000000000E+00 0.  1.
         25    1    1    2    0    0  0.19233685138E+03  0.65524188674E+02  0.18367410172E+03  0.30107816151E+03  0.12500000000E+03 0.  0.
         21    1    1    2  503  502 -0.19233685138E+03 -0.65524188674E+02 -0.33779778851E+02  0.20598047761E+03  0.00000000000E+00 0. -1.
<mgrwt>
<rscale>  3 0.48439669E+03</rscale>
<asrwt>0</asrwt>
<pdfrwt beam="1">  1       21 0.50534843E-01 0.48439669E+03</pdfrwt>
<pdfrwt beam="2">  1       21 0.27474178E-01 0.48439669E+03</pdfrwt>
<totfact> 0.42931551E+04</totfact>
</mgrwt>
</event>
<event>
 4    0  0.1775285E-001  0.5169238E+03  0.7546771E-02  0.1009454E+00
         21   -1    0    0  502  501  0.00000000000E+00  0.00000000000E+00  0.14158946434E+04  0.14158946434E+04  0.00000000000E+00 0. -1.
         21   -1    0    0  503  502 -0.00000000000E+00 -0.00000000000E+00 -0.47180452817E+02  0.47180452817E+02  0.00000000000E+00 0. -1.
         25    1    1    2    0    0  0.14365122889E+03 -0.19497586427E+03  0.79178228311E+03  0.83737413804E+03  0.12500000000E+03 0.  0.
         21    1    1    2  503  501 -0.14365122889E+03  0.19497586427E+03  0.57693190752E+03  0.62570095822E+03  0.00000000000E+00 0. -1.
<mgrwt>
<rscale>  3 0.51692379E+03</rscale>
<asrwt>0</asrwt>
<pdfrwt beam="1">  1       21 0.21782991E+00 0.51692379E+03</pdfrwt>
<pdfrwt beam="2">  1       21 0.72585323E-02 0.51692379E+03</pdfrwt>
<totfact> 0.12538975E+04</totfact>
</mgrwt>
</event>
<event>
 4    0  0.1775285E-001  0.6399184E+03  0.7546771E-02  0.9825883E-01
         21   -1    0    0  502  501  0.00000000000E+00  0.00000000000E+00  0.44478704439E+02  0.44478704439E+02  0.00000000000E+00 0. -1.
         21   -1    0    0  503  502 -0.00000000000E+00 -0.00000000000E+00 -0.23016383716E+04  0.23016383716E+04  0.00000000000E+00 0. -1.
         25    1    1    2    0    0  0.23958550701E+03 -0.17583980528E+03 -0.14647061126E+04  0.14997699319E+04  0.12500000000E+03 0.  0.
         21    1    1    2  503  501 -0.23958550701E+03  0.17583980528E+03 -0.79245355456E+03  0.84634714416E+03  0.00000000000E+00 0. -1.
<mgrwt>
<rscale>  3 0.63991841E+03</rscale>
<asrwt>0</asrwt>
<pdfrwt beam="1">  1       21 0.68428747E-02 0.63991841E+03</pdfrwt>
<pdfrwt beam="2">  1       21 0.35409836E+00 0.63991841E+03</pdfrwt>
<totfact> 0.19230104E+03</totfact>
</mgrwt>
</event>
<event>
 4    0  0.1775285E-001  0.4718811E+03  0.7546771E-02  0.1021391E+00
         21   -1    0    0  502  501  0.00000000000E+00  0.00000000000E+00  0.28898874875E+03  0.28898874875E+03  0.00000000000E+00 0. -1.
         21   -1    0    0  503  502 -0.00000000000E+00 -0.00000000000E+00 -0.19263016410E+03  0.19263016410E+03  0.00000000000E+00 0. -1.
         25    1    1    2    0    0  0.12835973966E+03  0.16390643943E+03 -0.19063313187E+02  0.24357740774E+03  0.12500000000E+03 0.  0.
         21    1    1    2  503  501 -0.12835973966E+03 -0.16390643943E+03  0.11542189784E+03  0.23804150511E+03  0.00000000000E+00 0. -1.
<mgrwt>
<rscale>  3 0.47188113E+03</rscale>
<asrwt>0</asrwt>
<pdfrwt beam="1">  1       21 0.44459808E-01 0.47188113E+03</pdfrwt>
<pdfrwt beam="2">  1       21 0.29635410E-01 0.47188113E+03</pdfrwt>
<totfact> 0.48574589E+04</totfact>
</mgrwt>
</event>
<event>
 4    0  0.1775285E-001  0.6503700E+03  0.7546771E-02  0.9806085E-01
         21   -1    0    0  503  501  0.00000000000E+00  0.00000000000E+00  0.39783475360E+03  0.39783475360E+03  0.00000000000E+00 0. -1.
         21   -1    0    0  501  502 -0.00000000000E+00 -0.00000000000E+00 -0.26580203404E+03  0.26580203404E+03  0.00000000000E+00 0. -1.
         25    1    1    2    0    0 -0.22626922867E+03 -0.21071448503E+03  0.11925741620E+03  0.35418312969E+03  0.12500000000E+03 0.  0.
         21    1    1    2  503  502  0.22626922867E+03  0.21071448503E+03  0.12775303362E+02  0.30945365795E+03  0.00000000000E+00 0. -1.
<mgrwt>
<rscale>  3 0.65037001E+03</rscale>
<asrwt>0</asrwt>
<pdfrwt beam="1">  1       21 0.61205346E-01 0.65037001E+03</pdfrwt>
<pdfrwt beam="2">  1       21 0.40892621E-01 0.65037001E+03</pdfrwt>
<totfact> 0.12244888E+04</totfact>
</mgrwt>
</event>
<event>
 4    0  0.1775285E-001  0.5557587E+03  0.7546771E-02  0.1000170E+00
         21   -1    0    0  503  501  0.00000000000E+00  0.00000000000E+00  0.12393166408E+04  0.12393166408E+04  0.00000000000E+00 0. -1.
         21   -1    0    0  501  502 -0.00000000000E+00 -0.00000000000E+00 -0.62306055730E+02  0.62306055730E+02  0.00000000000E+00 0. -1.
         25    1    1    2    0    0  0.98526985946E+02  0.24472777410E+03  0.61436410165E+03  0.68019666257E+03  0.12500000000E+03 0.  0.
         21    1    1    2  503  502 -0.98526985946E+02 -0.24472777410E+03  0.56264648343E+03  0.62142603397E+03  0.00000000000E+00 0. -1.
<mgrwt>
<rscale>  3 0.55575869E+03</rscale>
<asrwt>0</asrwt>
<pdfrwt beam="1">  1       21 0.19066408E+00 0.55575869E+03</pdfrwt>
<pdfrwt beam="2">  1       21 0.95855480E-02 0.55575869E+03</pdfrwt>
<totfact> 0.11452795E+04</totfact>
</mgrwt>
</event>
<event>
 4    0  0.1775285E-001  0.5343076E+03  0.7546771E-02  0.1005193E+00
         21   -1    0    0  503  501  0.00000000000E+00  0.00000000000E+00  0.14152262479E+03  0.14152262479E+03  0.00000000000E+00 0. -1.
         21   -1    0    0  501  502 -0.00000000000E+00 -0.00000000000E+00 -0.50430906177E+03  0.50430906177E+03  0.00000000000E+00 0. -1.
         25    1    1    2    0    0 -0.16343627300E+03  0.11598968426E+03 -0.37703839316E+03  0.44491344338E+03  0.12500000000E+03 0.  0.
         21    1    1    2  503  502  0.16343627300E+03 -0.11598968426E+03  0.14251956177E+02  0.20091824318E+03  0.00000000000E+00 0. -1.
<mgrwt>
<rscale>  3 0.53430756E+03</rscale>
<asrwt>0</asrwt>
<pdfrwt beam="1">  1       21 0.21772711E-01 0.53430756E+03</pdfrwt>
<pdfrwt beam="2">  1       21 0.77586011E-01 0.53430756E+03</pdfrwt>
<totfact> 0.25845377E+04</totfact>
</mgrwt>
</event>
<event>
 4    0  0.1775285E-001  0.4565485E+03  0.7546771E-02  0.1025787E+00
         21   -1    0    0  503  501  0.00000000000E+00  0.00000000000E+00  0.10766381728E+03  0.10766381728E+03  0.00000000000E+00 0. -1.
         21   -1    0    0  501  502 -0.00000000000E+00 -0.00000000000E+00 -0.48399863800E+03  0.48399863800E+03  0.00000000000E+00 0. -1.
         25    1    1    2    0    0 -0.17032285798E+03  0.11137564061E+03 -0.12924946637E+03  0.27156000042E+03  0.12500000000E+03 0.  0.
         21    1    1    2  503  502  0.17032285798E+03 -0.11137564061E+03 -0.24708535436E+03  0.32010245486E+03  0.00000000000E+00 0. -1.
<mgrwt>
<rscale>  3 0.45654853E+03</rscale>
<asrwt>0</asrwt>
<pdfrwt beam="1">  1       21 0.16563664E-01 0.45654853E+03</pdfrwt>
<pdfrwt beam="2">  1       21 0.74461331E-01 0.45654853E+03</pdfrwt>
<totfact> 0.48519492E+04</totfact>
</mgrwt>
</event>
<event>
 4    0  0.1775285E-001  0.4590765E+03  0.7546771E-02  0.1025049E+00
         21   -1    0    0  502  501  0.00000000000E+00  0.00000000000E+00  0.15212595385E+03  0.15212595385E+03  0.00000000000E+00 0. -1.
         21   -1    0    0  503  502 -0.00000000000E+00 -0.00000000000E+00 -0.34634339309E+03  0.34634339309E+03  0.00000000000E+00 0. -1.
         25    1    1    2    0    0 -0.50646546883E+02  0.20044591988E+03 -0.15773724584E+03  0.28853020333E+03  0.12500000000E+03 0.  0.
         21    1    1    2  503  501  0.50646546883E+02 -0.20044591988E+03 -0.36480193393E+02  0.20993914360E+03  0.00000000000E+00 0. -1.
<mgrwt>
<rscale>  3 0.45907655E+03</rscale>
<asrwt>0</asrwt>
<pdfrwt beam="1">  1       21 0.23403993E-01 0.45907655E+03</pdfrwt>
<pdfrwt beam="2">  1       21 0.53283598E-01 0.45907655E+03</pdfrwt>
<totfact> 0.52682789E+04</totfact>
</mgrwt>
</event>
<event>
 4    0  0.1775285E-001  0.4557617E+03  0.7546771E-02  0.1026018E+00
         21   -1    0    0  502  501  0.00000000000E+00  0.00000000000E+00  0.63174971718E+03  0.63174971718E+03  0.00000000000E+00 0.  1.
         21   -1    0    0  503  502 -0.00000000000E+00 -0.00000000000E+00 -0.82199756545E+02  0.82199756545E+02  0.00000000000E+00 0.  1.
         25    1    1    2    0    0 -0.20466344166E+03  0.21935599814E+01  0.21682100848E+03  0.32330834473E+03  0.12500000000E+03 0.  0.
         21    1    1    2  503  501  0.20466344166E+03 -0.21935599814E+01  0.33272895216E+03  0.39064112900E+03  0.00000000000E+00 0.  1.
<mgrwt>
<rscale>  3 0.45576166E+03</rscale>
<asrwt>0</asrwt>
<pdfrwt beam="1">  1       21 0.97192261E-01 0.45576166E+03</pdfrwt>
<pdfrwt beam="2">  1       21 0.12646117E-01 0.45576166E+03</pdfrwt>
<totfact> 0.42844002E+04</totfact>
</mgrwt>
</event>
<event>
 4    0  0.1775285E-001  0.4638949E+03  0.7546771E-02  0.1023658E+00
         21   -1    0    0  502  501  0.00000000000E+00  0.00000000000E+00  0.89711705390E+03  0.89711705390E+03  0.00000000000E+00 0. -1.
         21   -1    0    0  503  502 -0.00000000000E+00 -0.00000000000E+00 -0.59969459859E+02  0.59969459859E+02  0.00000000000E+00 0. -1.
         25    1    1    2    0    0  0.19446908756E+02 -0.20543421514E+03  0.57428131807E+03  0.62290081979E+03  0.12500000000E+03 0.  0.
         21    1    1    2  503  501 -0.19446908756E+02  0.20543421514E+03  0.26286627597E+03  0.33418569397E+03  0.00000000000E+00 0. -1.
<mgrwt>
<rscale>  3 0.46389492E+03</rscale>
<asrwt>0</asrwt>
<pdfrwt beam="1">  1       21 0.13801800E+00 0.46389492E+03</pdfrwt>
<pdfrwt beam="2">  1       21 0.92260714E-02 0.46389492E+03</pdfrwt>
<totfact> 0.31250323E+04</totfact>
</mgrwt>
</event>
<event>
 4    0  0.1775285E-001  0.6280382E+03  0.7546771E-02  0.9848885E-01
         21   -1    0    0  502  501  0.00000000000E+00  0.00000000000E+00  0.24589929480E+03  0.24589929480E+03  0.00000000000E+00 0. -1.
         21   -1    0    0  503  502 -0.00000000000E+00 -0.00000000000E+00 -0.40100969838E+03  0.40100969838E+03  0.00000000000E+00 0. -1.
         25    1    1    2    0    0  0.18654634922E+03 -0.23597189509E+03 -0.10291003930E+03  0.34161052658E+03  0.12500000000E+03 0.  0.
         21    1    1    2  503  501 -0.18654634922E+03  0.23597189509E+03 -0.52200364286E+02  0.30529846660E+03  0.00000000000E+00 0. -1.
<mgrwt>
<rscale>  3 0.62803822E+03</rscale>
<asrwt>0</asrwt>
<pdfrwt beam="1">  1       21 0.37830661E-01 0.62803822E+03</pdfrwt>
<pdfrwt beam="2">  1       21 0.61693799E-01 0.62803822E+03</pdfrwt>
<totfact> 0.14195227E+04</totfact>
</mgrwt>
</event>
<event>
 4    0  0.1775285E-001  0.5002548E+03  0.7546771E-02  0.1013712E+00
         21   -1    0    0  503  501  0.00000000000E+00  0.00000000000E+00  0.20788239794E+03  0.20788239794E+03  0.00000000000E+00 0.  1.
         21   -1    0    0  501  502 -0.00000000000E+00 -0.00000000000E+00 -0.30095728671E+03  0.30095728671E+03  0.00000000000E+00 0.  1.
         25    1    1    2    0    0 -0.22168631425E+03  0.75488686061E+02 -0.36912955381E+02  0.26801292865E+03  0.12500000000E+03 0.  0.
         21    1    1    2  503  502  0.22168631425E+03 -0.75488686061E+02 -0.56161933386E+02  0.24082675601E+03  0.00000000000E+00 0.  1.
<mgrwt>
<rscale>  3 0.50025482E+03</rscale>
<asrwt>0</asrwt>
<pdfrwt beam="1">  1       21 0.31981907E-01 0.50025482E+03</pdfrwt>
<pdfrwt beam="2">  1       21 0.46301121E-01 0.50025482E+03</pdfrwt>
<totfact> 0.38087030E+04</totfact>
</mgrwt>
</event>
<event>
 4    0  0.1775285E-001  0.4772661E+03  0.7546771E-02  0.1019889E+00
         21   -1    0    0  502  501  0.00000000000E+00  0.00000000000E+00  0.24304019033E+03  0.24304019033E+03  0.00000000000E+00 0. -1.
         21   -1    0    0  503  502 -0.00000000000E+00 -0.00000000000E+00 -0.23430578161E+03  0.23430578161E+03  0.00000000000E+00 0. -1.
         25    1    1    2    0    0  0.19470008208E+03  0.10398225085E+03 -0.21428672885E+02  0.25456751261E+03  0.12500000000E+03 0.  0.
         21    1    1    2  503  501 -0.19470008208E+03 -0.10398225085E+03  0.30163081604E+02  0.22277845934E+03  0.00000000000E+00 0. -1.
<mgrwt>
<rscale>  3 0.47726605E+03</rscale>
<asrwt>0</asrwt>
<pdfrwt beam="1">  1       21 0.37390798E-01 0.47726605E+03</pdfrwt>
<pdfrwt beam="2">  1       21 0.36047044E-01 0.47726605E+03</pdfrwt>
<totfact> 0.46830993E+04</totfact>
</mgrwt>
</event>
<event>
 4    0  0.1775285E-001  0.5603680E+03  0.7546771E-02  0.9991222E-01
         21   -1    0    0  503  501  0.00000000000E+00  0.00000000000E+00  0.29234894689E+03  0.29234894689E+03  0.00000000000E+00 0. -1.
         21   -1    0    0  501  502 -0.00000000000E+00 -0.00000000000E+00 -0.26852528202E+03  0.26852528202E+03  0.00000000000E+00 0. -1.
         25    1    1    2    0    0  0.16745059713E+03  0.18058364030E+03 -0.88754027747E+02  0.29009038431E+03  0.12500000000E+03 0.  0.
         21    1    1    2  503  502 -0.16745059713E+03 -0.18058364030E+03  0.11257769261E+03  0.27078384461E+03  0.00000000000E+00 0. -1.
<mgrwt>
<rscale>  3 0.56036803E+03</rscale>
<asrwt>0</asrwt>
<pdfrwt beam="1">  1       21 0.44976761E-01 0.56036803E+03</pdfrwt>
<pdfrwt beam="2">  1       21 0.41311582E-01 0.56036803E+03</pdfrwt>
<totfact> 0.23721042E+04</totfact>
</mgrwt>
</event>
<event>
 4    0  0.1775285E-001  0.5200405E+03  0.7546771E-02  0.1008676E+00
         21   -1    0    0  502  501  0.00000000000E+00  0.00000000000E+00  0.46160387557E+02  0.46160387557E+02  0.00000000000E+00 0. -1.
         21   -1    0    0  503  502 -0.00000000000E+00 -0.00000000000E+00 -0.14646873981E+04  0.14646873981E+04  0.00000000000E+00 0. -1.
         25    1    1    2    0    0 -0.87675801992E+02 -0.18059928638E+03 -0.11582259170E+04  0.11821232691E+04  0.12500000000E+03 0.  0.
         21    1    1    2  503  501  0.87675801992E+02  0.18059928638E+03 -0.26030109353E+03  0.32872451656E+03  0.00000000000E+00 0. -1.
<mgrwt>
<rscale>  3 0.52004053E+03</rscale>
<asrwt>0</asrwt>
<pdfrwt beam="1">  1       21 0.71015984E-02 0.52004053E+03</pdfrwt>
<pdfrwt beam="2">  1       21 0.22533651E+00 0.52004053E+03</pdfrwt>
<totfact> 0.11653102E+04</totfact>
</mgrwt>
</event>
<event>
 4    0  0.1775285E-001  0.4548602E+03  0.7546771E-02  0.1026283E+00
         21   -1    0    0  502  501  0.00000000000E+00  0.00000000000E+00  0.43583355682E+03  0.43583355682E+03  0.00000000000E+00 0.  1.
         21   -1    0    0  503  502 -0.00000000000E+00 -0.00000000000E+00 -0.11867935635E+03  0.11867935635E+03  0.00000000000E+00 0.  1.
         25    1    1    2    0    0 -0.19023208215E+03 -0.74343482587E+02  0.10969935734E+03  0.26338972547E+03  0.12500000000E+03 0.  0.
         21    1    1    2  503  501  0.19023208215E+03  0.74343482587E+02  0.20745484313E+03  0.29112318770E+03  0.00000000000E+00 0.  1.
<mgrwt>
<rscale>  3 0.45486018E+03</rscale>
<asrwt>0</asrwt>
<pdfrwt beam="1">  1       21 0.67051316E-01 0.45486018E+03</pdfrwt>
<pdfrwt beam="2">  1       21 0.18258363E-01 0.45486018E+03</pdfrwt>
<totfact> 0.51206656E+04</totfact>
</mgrwt>
</event>
<event>
 4    0  0.1775285E-001  0.5966183E+03  0.7546771E-02  0.9912447E-01
         21   -1    0    0  502  501  0.00000000000E+00  0.00000000000E+00  0.55171824685E+03  0.55171824685E+03  0.00000000000E+00 0.  1.
         21   -1    0    0  503  502 -0.00000000000E+00 -0.00000000000E+00 -0.16129311452E+03  0.16129311452E+03  0.00000000000E+00 0.  1.
         25    1    1    2    0    0 -0.22111596689E+03  0.81379432509E+02  0.39586185058E+03  0.47733268020E+03  0.12500000000E+03 0.  0.
         21    1    1    2  503  501  0.22111596689E+03 -0.81379432509E+02 -0.54367182454E+01  0.23567868116E+03  0.00000000000E+00 0.  1.
<mgrwt>
<rscale>  3 0.59661832E+03</rscale>
<asrwt>0</asrwt>
<pdfrwt beam="1">  1       21 0.84879730E-01 0.59661832E+03</pdfrwt>
<pdfrwt beam="2">  1       21 0.24814326E-01 0.59661832E+03</pdfrwt>
<totfact> 0.16056157E+04</totfact>
</mgrwt>
</event>
<event>
 4    0  0.1775285E-001  0.7779314E+03  0.7546771E-02  0.9592521E-01
         21   -1    0    0  503  501  0.00000000000E+00  0.00000000000E+00  0.46400499365E+03  0.46400499365E+03  0.00000000000E+00 0. -1.
         21   -1    0    0  501  502 -0.00000000000E+00 -0.00000000000E+00 -0.32606184708E+03  0.32606184708E+03  0.00000000000E+00 0. -1.
         25    1    1    2    0    0 -0.18815511919E+03  0.27460052203E+03  0.25461481875E+03  0.43733454186E+03  0.12500000000E+03 0.  0.
         21    1    1    2  503  502  0.18815511919E+03 -0.27460052203E+03 -0.11667167218E+03  0.35273229887E+03  0.00000000000E+00 0. -1.
<mgrwt>
<rscale>  3 0.77793142E+03</rscale>
<asrwt>0</asrwt>
<pdfrwt beam="1">  1       21 0.71385384E-01 0.77793142E+03</pdfrwt>
<pdfrwt beam="2">  1       21 0.50163361E-01 0.77793142E+03</pdfrwt>
<totfact> 0.54866509E+03</totfact>
</mgrwt>
</event>
<event>
 4    0  0.1775285E-001  0.4843166E+03  0.7546771E-02  0.1017956E+00
         21   -1    0    0  503  501  0.00000000000E+00  0.00000000000E+00  0.10623819934E+04  0.10623819934E+04  0.00000000000E+00 0.  1.
         21   -1    0    0  501  502 -0.00000000000E+00 -0.00000000000E+00 -0.55197321118E+02  0.55197321118E+02  0.00000000000E+00 0.  1.
         25    1    1    2    0    0 -0.13252594560E+03 -0.18302586071E+03  0.54907445151E+03  0.60676959816E+03  0.12500000000E+03 0.  0.
         21    1    1    2  503  502  0.13252594560E+03  0.18302586071E+03  0.45811022073E+03  0.51080971632E+03  0.00000000000E+00 0.  1.
<mgrwt>
<rscale>  3 0.48431659E+03</rscale>
<asrwt>0</asrwt>
<pdfrwt beam="1">  1       21 0.16344337E+00 0.48431659E+03</pdfrwt>
<pdfrwt beam="2">  1       21 0.84918964E-02 0.48431659E+03</pdfrwt>
<totfact> 0.22725256E+04</totfact>
</mgrwt>
</event>
<event>
 4    0  0.1775285E-001  0.4972173E+03  0.7546771E-02  0.1014508E+00
         21   -1    0    0  502  501  0.00000000000E+00  0.00000000000E+00  0.21530139855E+03  0.21530139855E+03  0.00000000000E+00 0.  1.
         21   -1    0    0  503  502 -0.00000000000E+00 -0.00000000000E+00 -0.28706855525E+03  0.28706855525E+03  0.00000000000E+00 0.  1.
         25    1    1    2    0    0 -0.71728469560E+02  0.22133165267E+03 -0.48649946996E+02  0.26856003270E+03  0.12500000000E+03 0.  0.
         21    1    1    2  503  501  0.71728469560E+02 -0.22133165267E+03 -0.23117209713E+02  0.23380992110E+03  0.00000000000E+00 0.  1.
<mgrwt>
<rscale>  3 0.49721730E+03</rscale>
<asrwt>0</asrwt>
<pdfrwt beam="1">  1       21 0.33123292E-01 0.49721730E+03</pdfrwt>
<pdfrwt beam="2">  1       21 0.44164393E-01 0.49721730E+03</pdfrwt>
<totfact> 0.39222961E+04</totfact>
</mgrwt>
</event>
<event>
 4    0  0.1775285E-001  0.4979708E+03  0.7546771E-02  0.1014310E+00
         21   -1    0    0  503  501  0.00000000000E+00  0.00000000000E+00  0.35743238611E+03  0.35743238611E+03  0.00000000000E+00 0. -1.
         21   -1    0    0  501  502 -0.00000000000E+00 -0.00000000000E+00 -0.17344184457E+03  0.17344184457E+03  0.00000000000E+00 0. -1.
         25    1    1    2    0    0  0.18845927773E+03  0.94684327517E+02 -0.85238415904E+01  0.24531546448E+03  0.12500000000E+03 0.  0.
         21    1    1    2  503  502 -0.18845927773E+03 -0.94684327517E+02  0.19251438313E+03  0.28555876619E+03  0.00000000000E+00 0. -1.
<mgrwt>
<rscale>  3 0.49797081E+03</rscale>
<asrwt>0</asrwt>
<pdfrwt beam="1">  1       21 0.54989598E-01 0.49797081E+03</pdfrwt>
<pdfrwt beam="2">  1       21 0.26683361E-01 0.49797081E+03</pdfrwt>
<totfact> 0.37814973E+04</totfact>
</mgrwt>
</event>
<event>
 4    0  0.1775285E-001  0.5512425E+03  0.7546771E-02  0.1001207E+00
         21   -1    0    0  503  501  0.00000000000E+00  0.00000000000E+00  0.43125717013E+02  0.43125717013E+02  0.00000000000E+00 0.  1.
         21   -1    0    0  501  502 -0.00000000000E+00 -0.00000000000E+00 -0.17615263046E+04  0.17615263046E+04  0.00000000000E+00 0.  1.
         25    1    1    2    0    0 -0.23791664081E+03  0.13058415021E+02 -0.12556835028E+04  0.12841888138E+04  0.12500000000E+03 0.  0.
         21    1    1    2  503  502  0.23791664081E+03 -0.13058415021E+02 -0.46271708482E+03  0.52046320788E+03  0.00000000000E+00 0.  1.
<mgrwt>
<rscale>  3 0.55124254E+03</rscale>
<asrwt>0</asrwt>
<pdfrwt beam="1">  1       21 0.66347257E-02 0.55124254E+03</pdfrwt>
<pdfrwt beam="2">  1       21 0.27100405E+00 0.55124254E+03</pdfrwt>
<totfact> 0.67637225E+03</totfact>
</mgrwt>
</event>
<event>
 4    0  0.1775285E-001  0.7126112E+03  0.7546771E-02  0.9695905E-01
         21   -1    0    0  502  501  0.00000000000E+00  0.00000000000E+00  0.24851034137E+03  0.24851034137E+03  0.00000000000E+00 0.  1.
         21   -1    0    0  503  502 -0.00000000000E+00 -0.00000000000E+00 -0.51085876183E+03  0.51085876183E+03  0.00000000000E+00 0.  1.
         25    1    1    2    0    0  0.33999336589E+03 -0.34329384772E+02 -0.18835643121E+03  0.40972813022E+03  0.12500000000E+03 0.  0.
         21    1    1    2  503  501 -0.33999336589E+03  0.34329384772E+02 -0.73991989245E+02  0.34964097298E+03  0.00000000000E+00 0.  1.
<mgrwt>
<rscale>  3 0.71261121E+03</rscale>
<asrwt>0</asrwt>
<pdfrwt beam="1">  1       21 0.38232361E-01 0.71261121E+03</pdfrwt>
<pdfrwt beam="2">  1       21 0.78593655E-01 0.71261121E+03</pdfrwt>
<totfact> 0.78864371E+03</totfact>
</mgrwt>
</event>
<event>
 4    0  0.1775285E-001  0.6253913E+03  0.7546771E-02  0.9854084E-01
         21   -1    0    0  502  501  0.00000000000E+00  0.00000000000E+00  0.44174653721E+02  0.44174653721E+02  0.00000000000E+00 0.  1.
         21   -1    0    0  503  502 -0.00000000000E+00 -0.00000000000E+00 -0.22134540066E+04  0.22134540066E+04  0.00000000000E+00 0.  1.
         25    1    1    2    0    0 -0.13692006464E+03  0.25633324605E+03 -0.13997565630E+04  0.14350600241E+04  0.12500000000E+03 0.  0.
         21    1    1    2  503  501  0.13692006464E+03 -0.25633324605E+03 -0.76952278984E+03  0.82256863617E+03  0.00000000000E+00 0.  1.
<mgrwt>
<rscale>  3 0.62539128E+03</rscale>
<asrwt>0</asrwt>
<pdfrwt beam="1">  1       21 0.67961010E-02 0.62539128E+03</pdfrwt>
<pdfrwt beam="2">  1       21 0.34053136E+00 0.62539128E+03</pdfrwt>
<totfact> 0.23755218E+03</totfact>
</mgrwt>
</event>
<event>
 4    0  0.1775285E-001  0.4988072E+03  0.7546771E-02  0.1014091E+00
         21   -1    0    0  503  501  0.00000000000E+00  0.00000000000E+00  0.20824651756E+03  0.20824651756E+03  0.00000000000E+00 0. -1.
         21   -1    0    0  501  502 -0.00000000000E+00 -0.00000000000E+00 -0.29869482699E+03  0.29869482699E+03  0.00000000000E+00 0. -1.
         25    1    1    2    0    0  0.20838188969E+03 -0.94310529406E+02 -0.96989433663E+02  0.27811766961E+03  0.12500000000E+03 0.  0.
         21    1    1    2  503  502 -0.20838188969E+03  0.94310529406E+02  0.65411242310E+01  0.22882367494E+03  0.00000000000E+00 0. -1.
<mgrwt>
<rscale>  3 0.49880721E+03</rscale>
<asrwt>0</asrwt>
<pdfrwt beam="1">  1       21 0.32037926E-01 0.49880721E+03</pdfrwt>
<pdfrwt beam="2">  1       21 0.45953051E-01 0.49880721E+03</pdfrwt>
<totfact> 0.38573186E+04</totfact>
</mgrwt>
</event>
<event>
 4    0  0.1775285E-001  0.5097061E+03  0.7546771E-02  0.1011276E+00
         21   -1    0    0  503  501  0.00000000000E+00  0.00000000000E+00  0.33538382075E+03  0.33538382075E+03  0.00000000000E+00 0. -1.
         21   -1    0    0  501  502 -0.00000000000E+00 -0.00000000000E+00 -0.19365894036E+03  0.19365894036E+03  0.00000000000E+00 0. -1.
         25    1    1    2    0    0  0.16779670655E+02  0.19950499739E+03  0.21159898482E+03  0.31699042842E+03  0.12500000000E+03 0.  0.
         21    1    1    2  503  502 -0.16779670655E+02 -0.19950499739E+03 -0.69874104426E+02  0.21205233269E+03  0.00000000000E+00 0. -1.
<mgrwt>
<rscale>  3 0.50970609E+03</rscale>
<asrwt>0</asrwt>
<pdfrwt beam="1">  1       21 0.51597511E-01 0.50970609E+03</pdfrwt>
<pdfrwt beam="2">  1       21 0.29793683E-01 0.50970609E+03</pdfrwt>
<totfact> 0.34791410E+04</totfact>
</mgrwt>
</event>
<event>
 4    0  0.1775285E-001  0.5250988E+03  0.7546771E-02  0.1007428E+00
         21   -1    0    0  503  501  0.00000000000E+00  0.00000000000E+00  0.43503578336E+02  0.43503578336E+02  0.00000000000E+00 0.  1.
         21   -1    0    0  501  502 -0.00000000000E+00 -0.00000000000E+00 -0.15845177768E+04  0.15845177768E+04  0.00000000000E+00 0.  1.
         25    1    1    2    0    0 -0.20962856041E+03 -0.13052733268E+03 -0.87295830671E+03  0.91578530408E+03  0.12500000000E+03 0.  0.
         21    1    1    2  503  502  0.20962856041E+03  0.13052733268E+03 -0.66805589172E+03  0.71223605103E+03  0.00000000000E+00 0.  1.
<mgrwt>
<rscale>  3 0.52509882E+03</rscale>
<asrwt>0</asrwt>
<pdfrwt beam="1">  1       21 0.66928584E-02 0.52509882E+03</pdfrwt>
<pdfrwt beam="2">  1       21 0.24377196E+00 0.52509882E+03</pdfrwt>
<totfact> 0.98859540E+03</totfact>
</mgrwt>
</event>
<event>
 4    0  0.1775285E-001  0.8762466E+03  0.7546771E-02  0.9455771E-01
         21   -1    0    0  502  501  0.00000000000E+00  0.00000000000E+00  0.27462276905E+03  0.27462276905E+03  0.00000000000E+00 0. -1.
         21   -1    0    0  503  502 -0.00000000000E+00 -0.00000000000E+00 -0.69896613783E+03  0.69896613783E+03  0.00000000000E+00 0. -1.
         25    1    1    2    0    0 -0.42095889582E+02  0.41988081747E+03 -0.30360230287E+03  0.53466935867E+03  0.12500000000E+03 0.  0.
         21    1    1    2  503  501  0.42095889582E+02 -0.41988081747E+03 -0.12074106592E+03  0.43891954820E+03  0.00000000000E+00 0. -1.
<mgrwt>
<rscale>  3 0.87624658E+03</rscale>
<asrwt>0</asrwt>
<pdfrwt beam="1">  1       21 0.42249657E-01 0.87624658E+03</pdfrwt>
<pdfrwt beam="2">  1       21 0.10753325E+00 0.87624658E+03</pdfrwt>
<totfact> 0.29134558E+03</totfact>
</mgrwt>
</event>
<event>
 4    0  0.1775285E-001  0.8205485E+03  0.7546771E-02  0.9530741E-01
         21   -1    0    0  502  501  0.00000000000E+00  0.00000000000E+00  0.42365293946E+03  0.42365293946E+03  0.00000000000E+00 0.  1.
         21   -1    0    0  503  502 -0.00000000000E+00 -0.00000000000E+00 -0.39731801898E+03  0.39731801898E+03  0.00000000000E+00 0.  1.
         25    1    1    2    0    0  0.10469414773E+02  0.39603216339E+03  0.73936046415E+02  0.42195097113E+03  0.12500000000E+03 0.  0.
         21    1    1    2  503  501 -0.10469414773E+02 -0.39603216339E+03 -0.47601125940E+02  0.39901998731E+03  0.00000000000E+00 0.  1.
<mgrwt>
<rscale>  3 0.82054847E+03</rscale>
<asrwt>0</asrwt>
<pdfrwt beam="1">  1       21 0.65177375E-01 0.82054847E+03</pdfrwt>
<pdfrwt beam="2">  1       21 0.61125850E-01 0.82054847E+03</pdfrwt>
<totfact> 0.43435302E+03</totfact>
</mgrwt>
</event>
<event>
 4    0  0.1775285E-001  0.4755505E+03  0.7546771E-02  0.1020365E+00
         21   -1    0    0  503  501  0.00000000000E+00  0.00000000000E+00  0.52072412520E+03  0.52072412520E+03  0.00000000000E+00 0.  1.
         21   -1    0    0  501  502 -0.00000000000E+00 -0.00000000000E+00 -0.10857394369E+03  0.10857394369E+03  0.00000000000E+00 0.  1.
         25    1    1    2    0    0  0.17047348510E+03 -0.10673395401E+03  0.98015845396E+02  0.25629173223E+03  0.12500000000E+03 0.  0.
         21    1    1    2  503  502 -0.17047348510E+03  0.10673395401E+03  0.31413433612E+03  0.37300633666E+03  0.00000000000E+00 0.  1.
<mgrwt>
<rscale>  3 0.47555051E+03</rscale>
<asrwt>0</asrwt>
<pdfrwt beam="1">  1       21 0.80111402E-01 0.47555051E+03</pdfrwt>
<pdfrwt beam="2">  1       21 0.16703684E-01 0.47555051E+03</pdfrwt>
<totfact> 0.40209180E+04</totfact>
</mgrwt>
</event>
<event>
 4    0  0.1775285E-001  0.4472261E+03  0.7546771E-02  0.1028552E+00
         21   -1    0    0  502  501  0.00000000000E+00  0.00000000000E+00  0.12797639106E+03  0.12797639106E+03  0.00000000000E+00 0.  1.
         21   -1    0    0  503  502 -0.00000000000E+00 -0.00000000000E+00 -0.39071882856E+03  0.39071882856E+03  0.00000000000E+00 0.  1.
         25    1    1    2    0    0  0.12960170702E+03 -0.15978042020E+03 -0.15671413664E+03  0.28724676806E+03  0.12500000000E+03 0.  0.
         21    1    1    2  503  501 -0.12960170702E+03  0.15978042020E+03 -0.10602830087E+03  0.23144845156E+03  0.00000000000E+00 0.  1.
<mgrwt>
<rscale>  3 0.44722605E+03</rscale>
<asrwt>0</asrwt>
<pdfrwt beam="1">  1       21 0.19688675E-01 0.44722605E+03</pdfrwt>
<pdfrwt beam="2">  1       21 0.60110590E-01 0.44722605E+03</pdfrwt>
<totfact> 0.56630066E+04</totfact>
</mgrwt>
</event>
<event>
 4    0  0.1775285E-001  0.4946663E+03  0.7546771E-02  0.1015181E+00
         21   -1    0    0  502  501  0.00000000000E+00  0.00000000000E+00  0.28556656009E+03  0.28556656009E+03  0.00000000000E+00 0. -1.
         21   -1    0    0  503  502 -0.00000000000E+00 -0.00000000000E+00 -0.21421863457E+03  0.21421863457E+03  0.00000000000E+00 0. -1.
         25    1    1    2    0    0 -0.11684684828E+03  0.19517361841E+03  0.81580785358E+02  0.27207784147E+03  0.12500000000E+03 0.  0.
         21    1    1    2  503  501  0.11684684828E+03 -0.19517361841E+03 -0.10232859846E+02  0.22770735319E+03  0.00000000000E+00 0. -1.
<mgrwt>
<rscale>  3 0.49466627E+03</rscale>
<asrwt>0</asrwt>
<pdfrwt beam="1">  1       21 0.43933317E-01 0.49466627E+03</pdfrwt>
<pdfrwt beam="2">  1       21 0.32956713E-01 0.49466627E+03</pdfrwt>
<totfact> 0.40081505E+04</totfact>
</mgrwt>
</event>
<event>
 4    0  0.1775285E-001  0.5242807E+03  0.7546771E-02  0.1007629E+00
         21   -1    0    0  503  501  0.00000000000E+00  0.00000000000E+00  0.72315800608E+03  0.72315800608E+03  0.00000000000E+00 0.  1.
         21   -1    0    0  501  502 -0.00000000000E+00 -0.00000000000E+00 -0.95024264988E+02  0.95024264988E+02  0.00000000000E+00 0.  1.
         25    1    1    2    0    0  0.33274363425E+02  0.24083399781E+03  0.40204047095E+03  0.48617870999E+03  0.12500000000E+03 0.  0.
         21    1    1    2  503  502 -0.33274363425E+02 -0.24083399781E+03  0.22609327014E+03  0.33200356108E+03  0.00000000000E+00 0.  1.
<mgrwt>
<rscale>  3 0.52428068E+03</rscale>
<asrwt>0</asrwt>
<pdfrwt beam="1">  1       21 0.11125507E+00 0.52428068E+03</pdfrwt>
<pdfrwt beam="2">  1       21 0.14619118E-01 0.52428068E+03</pdfrwt>
<totfact> 0.23157333E+04</totfact>
</mgrwt>
</event>
<event>
 4    0  0.1775285E-001  0.4797790E+03  0.7546771E-02  0.1019196E+00
         21   -1    0    0  502  501  0.00000000000E+00  0.00000000000E+00  0.27517896790E+03  0.27517896790E+03  0.00000000000E+00 0. -1.
         21   -1    0    0  503  502 -0.00000000000E+00 -0.00000000000E+00 -0.20912562507E+03  0.20912562507E+03  0.00000000000E+00 0. -1.
         25    1    1    2    0    0 -0.21074918006E+03  0.71440655229E+02  0.13138126357E+02  0.25557111433E+03  0.12500000000E+03 0.  0.
         21    1    1    2  503  501  0.21074918006E+03 -0.71440655229E+02  0.52915216475E+02  0.22873347864E+03  0.00000000000E+00 0. -1.
<mgrwt>
<rscale>  3 0.47977901E+03</rscale>
<asrwt>0</asrwt>
<pdfrwt beam="1">  1       21 0.42335226E-01 0.47977901E+03</pdfrwt>
<pdfrwt beam="2">  1       21 0.32173173E-01 0.47977901E+03</pdfrwt>
<totfact> 0.45587607E+04</totfact>
</mgrwt>
</event>
<event>
 4    0  0.1775285E-001  0.4885308E+03  0.7546771E-02  0.1016817E+00
         21   -1    0    0  503  501  0.00000000000E+00  0.00000000000E+00  0.24297642529E+03  0.24297642529E+03  0.00000000000E+00 0.  1.
         21   -1    0    0  501  502 -0.00000000000E+00 -0.00000000000E+00 -0.24556117662E+03  0.24556117662E+03  0.00000000000E+00 0.  1.
         25    1    1    2    0    0 -0.16204268280E+03  0.12846756224E+03 -0.98058584904E+02  0.26077237520E+03  0.12500000000E+03 0.  0.
         21    1    1    2  503  502  0.16204268280E+03 -0.12846756224E+03  0.95473833575E+02  0.22776522670E+03  0.00000000000E+00 0.  1.
<mgrwt>
<rscale>  3 0.48853076E+03</rscale>
<asrwt>0</asrwt>
<pdfrwt beam="1">  1       21 0.37380989E-01 0.48853076E+03</pdfrwt>
<pdfrwt beam="2">  1       21 0.37778642E-01 0.48853076E+03</pdfrwt>
<totfact> 0.42479663E+04</totfact>
</mgrwt>
</event>
<event>
 4    0  0.1775285E-001  0.6302613E+03  0.7546771E-02  0.9844539E-01
         21   -1    0    0  502  501  0.00000000000E+00  0.00000000000E+00  0.44035345725E+02  0.44035345725E+02  0.00000000000E+00 0. -1.
         21   -1    0    0  503  502 -0.00000000000E+00 -0.00000000000E+00 -0.22551728674E+04  0.22551728674E+04  0.00000000000E+00 0. -1.
         25    1    1    2    0    0 -0.22654743663E+03 -0.15599512259E+03 -0.68775430426E+03  0.75119185455E+03  0.12500000000E+03 0.  0.
         21    1    1    2  503  501  0.22654743663E+03  0.15599512259E+03 -0.15233832174E+04  0.15480163586E+04  0.00000000000E+00 0. -1.
<mgrwt>
<rscale>  3 0.63026127E+03</rscale>
<asrwt>0</asrwt>
<pdfrwt beam="1">  1       21 0.67746699E-02 0.63026127E+03</pdfrwt>
<pdfrwt beam="2">  1       21 0.34694961E+00 0.63026127E+03</pdfrwt>
<totfact> 0.21760454E+03</totfact>
</mgrwt>
</event>
<event>
 4    0  0.1775285E-001  0.4900316E+03  0.7546771E-02  0.1016414E+00
         21   -1    0    0  502  501  0.00000000000E+00  0.00000000000E+00  0.76161423744E+02  0.76161423744E+02  0.00000000000E+00 0. -1.
         21   -1    0    0  503  502 -0.00000000000E+00 -0.00000000000E+00 -0.78823040267E+03  0.78823040267E+03  0.00000000000E+00 0. -1.
         25    1    1    2    0    0  0.73266177000E+02 -0.19597169170E+03 -0.21465575896E+03  0.32476904331E+03  0.12500000000E+03 0.  0.
         21    1    1    2  503  501 -0.73266177000E+02  0.19597169170E+03 -0.49741321997E+03  0.53962278310E+03  0.00000000000E+00 0. -1.
<mgrwt>
<rscale>  3 0.49003163E+03</rscale>
<asrwt>0</asrwt>
<pdfrwt beam="1">  1       21 0.11717142E-01 0.49003163E+03</pdfrwt>
<pdfrwt beam="2">  1       21 0.12126622E+00 0.49003163E+03</pdfrwt>
<totfact> 0.28218596E+04</totfact>
</mgrwt>
</event>
<event>
 4    0  0.1775285E-001  0.4913180E+03  0.7546771E-02  0.1016070E+00
         21   -1    0    0  502  501  0.00000000000E+00  0.00000000000E+00  0.54650180415E+02  0.54650180415E+02  0.00000000000E+00 0.  1.
         21   -1    0    0  503  502 -0.00000000000E+00 -0.00000000000E+00 -0.11042663658E+04  0.11042663658E+04  0.00000000000E+00 0.  1.
         25    1    1    2    0    0 -0.13621313791E+03  0.17384246078E+03 -0.70821227843E+03  0.75230635477E+03  0.12500000000E+03 0.  0.
         21    1    1    2  503  501  0.13621313791E+03 -0.17384246078E+03 -0.34140390698E+03  0.40661019147E+03  0.00000000000E+00 0.  1.
<mgrwt>
<rscale>  3 0.49131805E+03</rscale>
<asrwt>0</asrwt>
<pdfrwt beam="1">  1       21 0.84077204E-02 0.49131805E+03</pdfrwt>
<pdfrwt beam="2">  1       21 0.16988713E+00 0.49131805E+03</pdfrwt>
<totfact> 0.20690241E+04</totfact>
</mgrwt>
</event>
<event>
 4    0  0.1775285E-001  0.4824639E+03  0.7546771E-02  0.1018460E+00
         21   -1    0    0  503  501  0.00000000000E+00  0.00000000000E+00  0.49551735040E+02  0.49551735040E+02  0.00000000000E+00 0. -1.
         21   -1    0    0  501  502 -0.00000000000E+00 -0.00000000000E+00 -0.11743860336E+04  0.11743860336E+04  0.00000000000E+00 0. -1.
         25    1    1    2    0    0  0.13731156157E+03 -0.14900441450E+03 -0.35179453572E+03  0.42478368123E+03  0.12500000000E+03 0.  0.
         21    1    1    2  503  502 -0.13731156157E+03  0.14900441450E+03 -0.77303976284E+03  0.79915408740E+03  0.00000000000E+00 0. -1.
<mgrwt>
<rscale>  3 0.48246395E+03</rscale>
<asrwt>0</asrwt>
<pdfrwt beam="1">  1       21 0.76233445E-02 0.48246395E+03</pdfrwt>
<pdfrwt beam="2">  1       21 0.18067476E+00 0.48246395E+03</pdfrwt>
<totfact> 0.20650696E+04</totfact>
</mgrwt>
</event>
<event>
 4    0  0.1775285E-001  0.4630907E+03  0.7546771E-02  0.1023889E+00
         21   -1    0    0  503  501  0.00000000000E+00  0.00000000000E+00  0.49358734242E+03  0.49358734242E+03  0.00000000000E+00 0.  1.
         21   -1    0    0  501  502 -0.00000000000E+00 -0.00000000000E+00 -0.10861958566E+03  0.10861958566E+03  0.00000000000E+00 0.  1.
         25    1    1    2    0    0  0.18972921895E+03  0.98953917448E+02  0.22889287316E+03  0.33735145129E+03  0.12500000000E+03 0.  0.
         21    1    1    2  503  502 -0.18972921895E+03 -0.98953917448E+02  0.15607488360E+03  0.26485547680E+03  0.00000000000E+00 0.  1.
<mgrwt>
<rscale>  3 0.46309072E+03</rscale>
<asrwt>0</asrwt>
<pdfrwt beam="1">  1       21 0.75936513E-01 0.46309072E+03</pdfrwt>
<pdfrwt beam="2">  1       21 0.16710706E-01 0.46309072E+03</pdfrwt>
<totfact> 0.45567346E+04</totfact>
</mgrwt>
</event>
<event>
 4    0  0.1775285E-001  0.4492862E+03  0.7546771E-02  0.1027935E+00
         21   -1    0    0  502  501  0.00000000000E+00  0.00000000000E+00  0.20410525983E+03  0.20410525983E+03  0.00000000000E+00 0. -1.
         21   -1    0    0  503  502 -0.00000000000E+00 -0.00000000000E+00 -0.24724749162E+03  0.24724749162E+03  0.00000000000E+00 0. -1.
         25    1    1    2    0    0  0.19634048605E+03  0.60887305809E+02  0.32914238977E+01  0.24060898558E+03  0.12500000000E+03 0.  0.
         21    1    1    2  503  501 -0.19634048605E+03 -0.60887305809E+02 -0.46433655686E+02  0.21074376587E+03  0.00000000000E+00 0. -1.
<mgrwt>
<rscale>  3 0.44928616E+03</rscale>
<asrwt>0</asrwt>
<pdfrwt beam="1">  1       21 0.31400809E-01 0.44928616E+03</pdfrwt>
<pdfrwt beam="2">  1       21 0.38038076E-01 0.44928616E+03</pdfrwt>
<totfact> 0.60060925E+04</totfact>
</mgrwt>
</event>
<event>
 4    0  0.1775285E-001  0.4640045E+03  0.7546771E-02  0.1023626E+00
         21   -1    0    0  503  501  0.00000000000E+00  0.00000000000E+00  0.40733125112E+02  0.40733125112E+02  0.00000000000E+00 0. -1.
         21   -1    0    0  501  502 -0.00000000000E+00 -0.00000000000E+00 -0.13214072177E+04  0.13214072177E+04  0.00000000000E+00 0. -1.
         25    1    1    2    0    0  0.20130969475E+03 -0.36268137879E+02 -0.88274985833E+03  0.91472033070E+03  0.12500000000E+03 0.  0.
         21    1    1    2  503  502 -0.20130969475E+03  0.36268137879E+02 -0.39792423426E+03  0.44742001211E+03  0.00000000000E+00 0. -1.
<mgrwt>
<rscale>  3 0.46400451E+03</rscale>
<asrwt>0</asrwt>
<pdfrwt beam="1">  1       21 0.62666355E-02 0.46400451E+03</pdfrwt>
<pdfrwt beam="2">  1       21 0.20329339E+00 0.46400451E+03</pdfrwt>
<totfact> 0.20542812E+04</totfact>
</mgrwt>
</event>
<event>
 4    0  0.1775285E-001  0.5019494E+03  0.7546771E-02  0.1013271E+00
         21   -1    0    0  503  501  0.00000000000E+00  0.00000000000E+00  0.82566747027E+02  0.82566747027E+02  0.00000000000E+00 0.  1.
         21   -1    0    0  501  502 -0.00000000000E+00 -0.00000000000E+00 -0.76287736720E+03  0.76287736720E+03  0.00000000000E+00 0.  1.
         25    1    1    2    0    0  0.45386287206E+02 -0.23079874260E+03 -0.37723581933E+03  0.46180064751E+03  0.12500000000E+03 0.  0.
         21    1    1    2  503  502 -0.45386287206E+02  0.23079874260E+03 -0.30307480085E+03  0.38364346672E+03  0.00000000000E+00 0.  1.
<mgrwt>
<rscale>  3 0.50194941E+03</rscale>
<asrwt>0</asrwt>
<pdfrwt beam="1">  1       21 0.12702576E-01 0.50194941E+03</pdfrwt>
<pdfrwt beam="2">  1       21 0.11736575E+00 0.50194941E+03</pdfrwt>
<totfact> 0.26383877E+04</totfact>
</mgrwt>
</event>
<event>
 4    0  0.1775285E-001  0.4718547E+03  0.7546771E-02  0.1021398E+00
         21   -1    0    0  502  501  0.00000000000E+00  0.00000000000E+00  0.10008084198E+03  0.10008084198E+03  0.00000000000E+00 0. -1.
         21   -1    0    0  503  502 -0.00000000000E+00 -0.00000000000E+00 -0.55616743975E+03  0.55616743975E+03  0.00000000000E+00 0. -1.
         25    1    1    2    0    0 -0.19939164795E+03 -0.87926507176E+02 -0.27910031344E+03  0.37551309551E+03  0.12500000000E+03 0.  0.
         21    1    1    2  503  501  0.19939164795E+03  0.87926507176E+02 -0.17698628433E+03  0.28073518621E+03  0.00000000000E+00 0. -1.
<mgrwt>
<rscale>  3 0.47185466E+03</rscale>
<asrwt>0</asrwt>
<pdfrwt beam="1">  1       21 0.15397053E-01 0.47185466E+03</pdfrwt>
<pdfrwt beam="2">  1       21 0.85564222E-01 0.47185466E+03</pdfrwt>
<totfact> 0.40189173E+04</totfact>
</mgrwt>
</event>
<event>
 4    0  0.1775285E-001  0.5529024E+03  0.7546771E-02  0.1000824E+00
         21   -1    0    0  503  501  0.00000000000E+00  0.00000000000E+00  0.82123682035E+03  0.82123682035E+03  0.00000000000E+00 0. -1.
         21   -1    0    0  501  502 -0.00000000000E+00 -0.00000000000E+00 -0.93061186845E+02  0.93061186845E+02  0.00000000000E+00 0. -1.
         25    1    1    2    0    0  0.24226273736E+03 -0.96433477146E+02  0.33529285163E+03  0.44276059646E+03  0.12500000000E+03 0.  0.
         21    1    1    2  503  502 -0.24226273736E+03  0.96433477146E+02  0.39288278188E+03  0.47153741073E+03  0.00000000000E+00 0.  1.
<mgrwt>
<rscale>  3 0.55290243E+03</rscale>
<asrwt>0</asrwt>
<pdfrwt beam="1">  1       21 0.12634412E+00 0.55290243E+03</pdfrwt>
<pdfrwt beam="2">  1       21 0.14317106E-01 0.55290243E+03</pdfrwt>
<totfact> 0.17306279E+04</totfact>
</mgrwt>
</event>
<event>
 4    0  0.1775285E-001  0.5639399E+03  0.7546771E-02  0.9983179E-01
         21   -1    0    0  502  501  0.00000000000E+00  0.00000000000E+00  0.44418682696E+03  0.44418682696E+03  0.00000000000E+00 0.  1.
         21   -1    0    0  503  502 -0.00000000000E+00 -0.00000000000E+00 -0.17899460102E+03  0.17899460102E+03  0.00000000000E+00 0.  1.
         25    1    1    2    0    0 -0.76311654120E+02 -0.23637904181E+03  0.25064920625E+03  0.37436418706E+03  0.12500000000E+03 0.  0.
         21    1    1    2  503  501  0.76311654120E+02  0.23637904181E+03  0.14543019685E+02  0.24881724092E+03  0.00000000000E+00 0.  1.
<mgrwt>
<rscale>  3 0.56393987E+03</rscale>
<asrwt>0</asrwt>
<pdfrwt beam="1">  1       21 0.68336435E-01 0.56393987E+03</pdfrwt>
<pdfrwt beam="2">  1       21 0.27537631E-01 0.56393987E+03</pdfrwt>
<totfact> 0.21699476E+04</totfact>
</mgrwt>
</event>
<event>
 4    0  0.1775285E-001  0.4753916E+03  0.7546771E-02  0.1020409E+00
         21   -1    0    0  503  501  0.00000000000E+00  0.00000000000E+00  0.54612317784E+03  0.54612317784E+03  0.00000000000E+00 0. -1.
         21   -1    0    0  501  502 -0.00000000000E+00 -0.00000000000E+00 -0.10345520260E+03  0.10345520260E+03  0.00000000000E+00 0. -1.
         25    1    1    2    0    0  0.11346342192E+03  0.18965243775E+03  0.22199247428E+03  0.33726496096E+03  0.12500000000E+03 0.  0.
         21    1    1    2  503  502 -0.11346342192E+03 -0.18965243775E+03  0.22067550097E+03  0.31231341947E+03  0.00000000000E+00 0. -1.
<mgrwt>
<rscale>  3 0.47539156E+03</rscale>
<asrwt>0</asrwt>
<pdfrwt beam="1">  1       21 0.84018949E-01 0.47539156E+03</pdfrwt>
<pdfrwt beam="2">  1       21 0.15916185E-01 0.47539156E+03</pdfrwt>
<totfact> 0.39397133E+04</totfact>
</mgrwt>
</event>
<event>
 4    0  0.1775285E-001  0.6266250E+03  0.7546771E-02  0.9851657E-01
         21   -1    0    0  503  501  0.00000000000E+00  0.00000000000E+00  0.22968008140E+03  0.22968008140E+03  0.00000000000E+00 0. -1.
         21   -1    0    0  501  502 -0.00000000000E+00 -0.00000000000E+00 -0.42739757432E+03  0.42739757432E+03  0.00000000000E+00 0. -1.
         25    1    1    2    0    0 -0.69196578850E+01 -0.29843104042E+03 -0.63576132703E+02  0.32981190427E+03  0.12500000000E+03 0.  0.
         21    1    1    2  503  502  0.69196578850E+01  0.29843104042E+03 -0.13414136022E+03  0.32726575145E+03  0.00000000000E+00 0. -1.
<mgrwt>
<rscale>  3 0.62662496E+03</rscale>
<asrwt>0</asrwt>
<pdfrwt beam="1">  1       21 0.35335397E-01 0.62662496E+03</pdfrwt>
<pdfrwt beam="2">  1       21 0.65753473E-01 0.62662496E+03</pdfrwt>
<totfact> 0.14165570E+04</totfact>
</mgrwt>
</event>
<event>
 4    0  0.1775285E-001  0.5801095E+03  0.7546771E-02  0.9947554E-01
         21   -1    0    0  503  501  0.00000000000E+00  0.00000000000E+00  0.87884468325E+03  0.87884468325E+03  0.00000000000E+00 0.  1.
         21   -1    0    0  501  502 -0.00000000000E+00 -0.00000000000E+00 -0.95729937452E+02  0.95729937452E+02  0.00000000000E+00 0.  1.
         25    1    1    2    0    0  0.25545363768E+03 -0.43996416333E+02  0.24765277347E+03  0.37966978003E+03  0.12500000000E+03 0.  0.
         21    1    1    2  503  502 -0.25545363768E+03  0.43996416333E+02  0.53546197232E+03  0.59490484067E+03  0.00000000000E+00 0.  1.
<mgrwt>
<rscale>  3 0.58010946E+03</rscale>
<asrwt>0</asrwt>
<pdfrwt beam="1">  1       21 0.13520687E+00 0.58010946E+03</pdfrwt>
<pdfrwt beam="2">  1       21 0.14727683E-01 0.58010946E+03</pdfrwt>
<totfact> 0.13665353E+04</totfact>
</mgrwt>
</event>
<event>
 4    0  0.1775285E-001  0.5027179E+03  0.7546771E-02  0.1013072E+00
         21   -1    0    0  502  501  0.00000000000E+00  0.00000000000E+00  0.32637125941E+03  0.32637125941E+03  0.00000000000E+00 0. -1.
         21   -1    0    0  503  502 -0.00000000000E+00 -0.00000000000E+00 -0.19358726275E+03  0.19358726275E+03  0.00000000000E+00 0. -1.
         25    1    1    2    0    0  0.48746927354E+02  0.20114100124E+03  0.18740575447E+03  0.30590829037E+03  0.12500000000E+03 0.  0.
         21    1    1    2  503  501 -0.48746927354E+02 -0.20114100124E+03 -0.54621757808E+02  0.21405023180E+03  0.00000000000E+00 0. -1.
<mgrwt>
<rscale>  3 0.50271789E+03</rscale>
<asrwt>0</asrwt>
<pdfrwt beam="1">  1       21 0.50210963E-01 0.50271789E+03</pdfrwt>
<pdfrwt beam="2">  1       21 0.29782656E-01 0.50271789E+03</pdfrwt>
<totfact> 0.36958228E+04</totfact>
</mgrwt>
</event>
<event>
 4    0  0.1775285E-001  0.4780926E+03  0.7546771E-02  0.1019661E+00
         21   -1    0    0  502  501  0.00000000000E+00  0.00000000000E+00  0.53097254731E+03  0.53097254731E+03  0.00000000000E+00 0.  1.
         21   -1    0    0  503  502 -0.00000000000E+00 -0.00000000000E+00 -0.10761974490E+03  0.10761974490E+03  0.00000000000E+00 0.  1.
         25    1    1    2    0    0 -0.16126936511E+03  0.14667467458E+03  0.16528161828E+03  0.30077280733E+03  0.12500000000E+03 0.  0.
         21    1    1    2  503  501  0.16126936511E+03 -0.14667467458E+03  0.25807118413E+03  0.33781948488E+03  0.00000000000E+00 0.  1.
<mgrwt>
<rscale>  3 0.47809259E+03</rscale>
<asrwt>0</asrwt>
<pdfrwt beam="1">  1       21 0.81688082E-01 0.47809259E+03</pdfrwt>
<pdfrwt beam="2">  1       21 0.16556884E-01 0.47809259E+03</pdfrwt>
<totfact> 0.39051494E+04</totfact>
</mgrwt>
</event>
<event>
 4    0  0.1775285E-001  0.5308607E+03  0.7546771E-02  0.1006024E+00
         21   -1    0    0  503  501  0.00000000000E+00  0.00000000000E+00  0.26086508604E+03  0.26086508604E+03  0.00000000000E+00 0. -1.
         21   -1    0    0  501  502 -0.00000000000E+00 -0.00000000000E+00 -0.27007551476E+03  0.27007551476E+03  0.00000000000E+00 0. -1.
         25    1    1    2    0    0 -0.21226004936E+03 -0.12724580481E+03  0.35289350492E+02  0.27949268623E+03  0.12500000000E+03 0.  0.
         21    1    1    2  503  502  0.21226004936E+03  0.12724580481E+03 -0.44499779209E+02  0.25144791458E+03  0.00000000000E+00 0. -1.
<mgrwt>
<rscale>  3 0.53086071E+03</rscale>
<asrwt>0</asrwt>
<pdfrwt beam="1">  1       21 0.40133090E-01 0.53086071E+03</pdfrwt>
<pdfrwt beam="2">  1       21 0.41550079E-01 0.53086071E+03</pdfrwt>
<totfact> 0.29906639E+04</totfact>
</mgrwt>
</event>
<event>
 4    0  0.1775285E-001  0.5106238E+03  0.7546771E-02  0.1011043E+00
         21   -1    0    0  502  501  0.00000000000E+00  0.00000000000E+00  0.87738208846E+03  0.87738208846E+03  0.00000000000E+00 0. -1.
         21   -1    0    0  503  502 -0.00000000000E+00 -0.00000000000E+00 -0.74293922042E+02  0.74293922042E+02  0.00000000000E+00 0. -1.
         25    1    1    2    0    0  0.23884906809E+03  0.12426242454E+02  0.38821791021E+03  0.47280168637E+03  0.12500000000E+03 0.  0.
         21    1    1    2  503  501 -0.23884906809E+03 -0.12426242454E+02  0.41487025621E+03  0.47887432413E+03  0.00000000000E+00 0. -1.
<mgrwt>
<rscale>  3 0.51062376E+03</rscale>
<asrwt>0</asrwt>
<pdfrwt beam="1">  1       21 0.13498185E+00 0.51062376E+03</pdfrwt>
<pdfrwt beam="2">  1       21 0.11429835E-01 0.51062376E+03</pdfrwt>
<totfact> 0.22249596E+04</totfact>
</mgrwt>
</event>
<event>
 4    0  0.1775285E-001  0.4860402E+03  0.7546771E-02  0.1017488E+00
         21   -1    0    0  503  501  0.00000000000E+00  0.00000000000E+00  0.73920683111E+03  0.73920683111E+03  0.00000000000E+00 0.  1.
         21   -1    0    0  501  502 -0.00000000000E+00 -0.00000000000E+00 -0.79894776567E+02  0.79894776567E+02  0.00000000000E+00 0.  1.
         25    1    1    2    0    0  0.29001821732E+02 -0.22486875147E+03  0.36810656505E+03  0.45003833646E+03  0.12500000000E+03 0.  0.
         21    1    1    2  503  502 -0.29001821732E+02  0.22486875147E+03  0.29120548949E+03  0.36906327122E+03  0.00000000000E+00 0. -1.
<mgrwt>
<rscale>  3 0.48604018E+03</rscale>
<asrwt>0</asrwt>
<pdfrwt beam="1">  1       21 0.11372412E+00 0.48604018E+03</pdfrwt>
<pdfrwt beam="2">  1       21 0.12291505E-01 0.48604018E+03</pdfrwt>
<totfact> 0.30442379E+04</totfact>
</mgrwt>
</event>
<event>
 4    0  0.1775285E-001  0.1018624E+04  0.7546771E-02  0.9288351E-01
         21   -1    0    0  502  501  0.00000000000E+00  0.00000000000E+00  0.85046657473E+02  0.85046657473E+02  0.00000000000E+00 0. -1.
         21   -1    0    0  503  502 -0.00000000000E+00 -0.00000000000E+00 -0.30500751676E+04  0.30500751676E+04  0.00000000000E+00 0. -1.
         25    1    1    2    0    0  0.29563783186E+03 -0.12095065031E+03 -0.31434585146E+03  0.46526240098E+03  0.12500000000E+03 0.  0.
         21    1    1    2  503  501 -0.29563783186E+03  0.12095065031E+03 -0.26506826586E+04  0.26698594241E+04  0.00000000000E+00 0. -1.
<mgrwt>
<rscale>  3 0.10186240E+04</rscale>
<asrwt>0</asrwt>
<pdfrwt beam="1">  1       21 0.13084101E-01 0.10186240E+04</pdfrwt>
<pdfrwt beam="2">  1       21 0.46924236E+00 0.10186240E+04</pdfrwt>
<totfact> 0.91204619E+01</totfact>
</mgrwt>
</event>
<event>
 4    0  0.1775285E-001  0.5059252E+03  0.7546771E-02  0.1012244E+00
         21   -1    0    0  503  501  0.00000000000E+00  0.00000000000E+00  0.14751798863E+03  0.14751798863E+03  0.00000000000E+00 0. -1.
         21   -1    0    0  501  502 -0.00000000000E+00 -0.00000000000E+00 -0.43377805381E+03  0.43377805381E+03  0.00000000000E+00 0. -1.
         25    1    1    2    0    0  0.11171639442E+03 -0.20958843008E+03 -0.14858546162E+03  0.30677435064E+03  0.12500000000E+03 0.  0.
         21    1    1    2  503  502 -0.11171639442E+03  0.20958843008E+03 -0.13767460355E+03  0.27452169180E+03  0.00000000000E+00 0. -1.
<mgrwt>
<rscale>  3 0.50592516E+03</rscale>
<asrwt>0</asrwt>
<pdfrwt beam="1">  1       21 0.22695075E-01 0.50592516E+03</pdfrwt>
<pdfrwt beam="2">  1       21 0.66735085E-01 0.50592516E+03</pdfrwt>
<totfact> 0.33792653E+04</totfact>
</mgrwt>
</event>
<event>
 4    0  0.1775285E-001  0.5962533E+03  0.7546771E-02  0.9913210E-01
         21   -1    0    0  502  501  0.00000000000E+00  0.00000000000E+00  0.27873333236E+03  0.27873333236E+03  0.00000000000E+00 0.  1.
         21   -1    0    0  503  502 -0.00000000000E+00 -0.00000000000E+00 -0.31886930124E+03  0.31886930124E+03  0.00000000000E+00 0.  1.
         25    1    1    2    0    0 -0.20669175214E+03 -0.11767156219E+03  0.13647426761E+03  0.30136075171E+03  0.12500000000E+03 0.  0.
         21    1    1    2  503  501  0.20669175214E+03  0.11767156219E+03 -0.17661023648E+03  0.29624188189E+03  0.00000000000E+00 0.  1.
<mgrwt>
<rscale>  3 0.59625331E+03</rscale>
<asrwt>0</asrwt>
<pdfrwt beam="1">  1       21 0.42882052E-01 0.59625331E+03</pdfrwt>
<pdfrwt beam="2">  1       21 0.49056815E-01 0.59625331E+03</pdfrwt>
<totfact> 0.18126235E+04</totfact>
</mgrwt>
</event>
<event>
 4    0  0.1775285E-001  0.4611805E+03  0.7546771E-02  0.1024439E+00
         21   -1    0    0  503  501  0.00000000000E+00  0.00000000000E+00  0.56390978113E+02  0.56390978113E+02  0.00000000000E+00 0.  1.
         21   -1    0    0  501  502 -0.00000000000E+00 -0.00000000000E+00 -0.94291432621E+03  0.94291432621E+03  0.00000000000E+00 0.  1.
         25    1    1    2    0    0 -0.39419477143E+02  0.20964170726E+03 -0.50171850023E+03  0.55932995099E+03  0.12500000000E+03 0.  0.
         21    1    1    2  503  502  0.39419477143E+02 -0.20964170726E+03 -0.38480484787E+03  0.43997535334E+03  0.00000000000E+00 0.  1.
<mgrwt>
<rscale>  3 0.46118049E+03</rscale>
<asrwt>0</asrwt>
<pdfrwt beam="1">  1       21 0.86755352E-02 0.46118049E+03</pdfrwt>
<pdfrwt beam="2">  1       21 0.14506374E+00 0.46118049E+03</pdfrwt>
<totfact> 0.30556600E+04</totfact>
</mgrwt>
</event>
<event>
 4    0  0.1775285E-001  0.8986895E+03  0.7546771E-02  0.9427221E-01
         21   -1    0    0  502  501  0.00000000000E+00  0.00000000000E+00  0.18492209287E+03  0.18492209287E+03  0.00000000000E+00 0.  1.
         21   -1    0    0  503  502 -0.00000000000E+00 -0.00000000000E+00 -0.10918690584E+04  0.10918690584E+04  0.00000000000E+00 0.  1.
         25    1    1    2    0    0 -0.14565139419E+03 -0.24606168328E+03  0.14095187056E+02  0.31238494667E+03  0.12500000000E+03 0.  0.
         21    1    1    2  503  501  0.14565139419E+03  0.24606168328E+03 -0.92104215261E+03  0.96440620461E+03  0.00000000000E+00 0.  1.
<mgrwt>
<rscale>  3 0.89868952E+03</rscale>
<asrwt>0</asrwt>
<pdfrwt beam="1">  1       21 0.28449552E-01 0.89868952E+03</pdfrwt>
<pdfrwt beam="2">  1       21 0.16797986E+00 0.89868952E+03</pdfrwt>
<totfact> 0.19696543E+03</totfact>
</mgrwt>
</event>
<event>
 4    0  0.1775285E-001  0.5407331E+03  0.7546771E-02  0.1003662E+00
         21   -1    0    0  502  501  0.00000000000E+00  0.00000000000E+00  0.11082363439E+04  0.11082363439E+04  0.00000000000E+00 0.  1.
         21   -1    0    0  503  502 -0.00000000000E+00 -0.00000000000E+00 -0.65958926627E+02  0.65958926627E+02  0.00000000000E+00 0.  1.
         25    1    1    2    0    0  0.14615648609E+03 -0.19087592241E+03  0.73952230035E+03  0.78759987868E+03  0.12500000000E+03 0.  0.
         21    1    1    2  503  501 -0.14615648609E+03  0.19087592241E+03  0.30275511696E+03  0.38659539189E+03  0.00000000000E+00 0.  1.
<mgrwt>
<rscale>  3 0.54073313E+03</rscale>
<asrwt>0</asrwt>
<pdfrwt beam="1">  1       21 0.17049788E+00 0.54073313E+03</pdfrwt>
<pdfrwt beam="2">  1       21 0.10147528E-01 0.54073313E+03</pdfrwt>
<totfact> 0.14422163E+04</totfact>
</mgrwt>
</event>
<event>
 4    0  0.1775285E-001  0.4740797E+03  0.7546771E-02  0.1020775E+00
         21   -1    0    0  503  501  0.00000000000E+00  0.00000000000E+00  0.78225413036E+03  0.78225413036E+03  0.00000000000E+00 0.  1.
         21   -1    0    0  501  502 -0.00000000000E+00 -0.00000000000E+00 -0.71828184503E+02  0.71828184503E+02  0.00000000000E+00 0.  1.
         25    1    1    2    0    0  0.11327643400E+03  0.18673589794E+03  0.32452299080E+03  0.41066046516E+03  0.12500000000E+03 0.  0.
         21    1    1    2  503  502 -0.11327643400E+03 -0.18673589794E+03  0.38590295506E+03  0.44342184971E+03  0.00000000000E+00 0.  1.
<mgrwt>
<rscale>  3 0.47407971E+03</rscale>
<asrwt>0</asrwt>
<pdfrwt beam="1">  1       21 0.12034678E+00 0.47407971E+03</pdfrwt>
<pdfrwt beam="2">  1       21 0.11050490E-01 0.47407971E+03</pdfrwt>
<totfact> 0.32130280E+04</totfact>
</mgrwt>
</event>
<event>
 4    0  0.1775285E-001  0.4396214E+03  0.7546771E-02  0.1030863E+00
         21   -1    0    0  503  501  0.00000000000E+00  0.00000000000E+00  0.34953833421E+02  0.34953833421E+02  0.00000000000E+00 0. -1.
         21   -1    0    0  501  502 -0.00000000000E+00 -0.00000000000E+00 -0.13823017746E+04  0.13823017746E+04  0.00000000000E+00 0. -1.
         25    1    1    2    0    0  0.67461897272E+02 -0.18956388555E+03 -0.78709780588E+03  0.82196930010E+03  0.12500000000E+03 0.  0.
         21    1    1    2  503  502 -0.67461897272E+02  0.18956388555E+03 -0.56025013526E+03  0.59528630788E+03  0.00000000000E+00 0. -1.
<mgrwt>
<rscale>  3 0.43962141E+03</rscale>
<asrwt>0</asrwt>
<pdfrwt beam="1">  1       21 0.53775139E-02 0.43962141E+03</pdfrwt>
<pdfrwt beam="2">  1       21 0.21266177E+00 0.43962141E+03</pdfrwt>
<totfact> 0.23460972E+04</totfact>
</mgrwt>
</event>
<event>
 4    0  0.1775285E-001  0.5513213E+03  0.7546771E-02  0.1001189E+00
         21   -1    0    0  502  501  0.00000000000E+00  0.00000000000E+00  0.15968877017E+03  0.15968877017E+03  0.00000000000E+00 0. -1.
         21   -1    0    0  503  502 -0.00000000000E+00 -0.00000000000E+00 -0.47585557418E+03  0.47585557418E+03  0.00000000000E+00 0. -1.
         25    1    1    2    0    0  0.18228684597E+03  0.17841142667E+03 -0.23261112030E+03  0.36714038823E+03  0.12500000000E+03 0.  0.
         21    1    1    2  503  501 -0.18228684597E+03 -0.17841142667E+03 -0.83555683707E+02  0.26840395612E+03  0.00000000000E+00 0. -1.
<mgrwt>
<rscale>  3 0.55132129E+03</rscale>
<asrwt>0</asrwt>
<pdfrwt beam="1">  1       21 0.24567503E-01 0.55132129E+03</pdfrwt>
<pdfrwt beam="2">  1       21 0.73208550E-01 0.55132129E+03</pdfrwt>
<totfact> 0.23283269E+04</totfact>
</mgrwt>
</event>
<event>
 4    0  0.1775285E-001  0.5203179E+03  0.7546771E-02  0.1008608E+00
         21   -1    0    0  503  501  0.00000000000E+00  0.00000000000E+00  0.71408293679E+03  0.71408293679E+03  0.00000000000E+00 0. -1.
         21   -1    0    0  501  502 -0.00000000000E+00 -0.00000000000E+00 -0.94782674569E+02  0.94782674569E+02  0.00000000000E+00 0. -1.
         25    1    1    2    0    0  0.22643107815E+03 -0.31523936397E+02  0.46508757359E+03  0.53310059354E+03  0.12500000000E+03 0.  0.
         21    1    1    2  503  502 -0.22643107815E+03  0.31523936397E+02  0.15421268863E+03  0.27576501782E+03  0.00000000000E+00 0. -1.
<mgrwt>
<rscale>  3 0.52031794E+03</rscale>
<asrwt>0</asrwt>
<pdfrwt beam="1">  1       21 0.10985891E+00 0.52031794E+03</pdfrwt>
<pdfrwt beam="2">  1       21 0.14581950E-01 0.52031794E+03</pdfrwt>
<totfact> 0.24032985E+04</totfact>
</mgrwt>
</event>
<event>
 4    0  0.1775285E-001  0.7476485E+03  0.7546771E-02  0.9639047E-01
         21   -1    0    0  502  501  0.00000000000E+00  0.00000000000E+00  0.57958904260E+02  0.57958904260E+02  0.00000000000E+00 0.  1.
         21   -1    0    0  503  502 -0.00000000000E+00 -0.00000000000E+00 -0.24110976499E+04  0.24110976499E+04  0.00000000000E+00 0.  1.
         25    1    1    2    0    0  0.21124537758E+03 -0.29071050290E+03 -0.10314919717E+04  0.10994261656E+04  0.12500000000E+03 0.  0.
         21    1    1    2  503  501 -0.21124537758E+03  0.29071050290E+03 -0.13216467740E+04  0.13696303885E+04  0.00000000000E+00 0.  1.
<mgrwt>
<rscale>  3 0.74764852E+03</rscale>
<asrwt>0</asrwt>
<pdfrwt beam="1">  1       21 0.89167550E-02 0.74764852E+03</pdfrwt>
<pdfrwt beam="2">  1       21 0.37093808E+00 0.74764852E+03</pdfrwt>
<totfact> 0.90444741E+02</totfact>
</mgrwt>
</event>
<event>
 4    0  0.1775285E-001  0.4693445E+03  0.7546771E-02  0.1022105E+00
         21   -1    0    0  503  501  0.00000000000E+00  0.00000000000E+00  0.11322775106E+03  0.11322775106E+03  0.00000000000E+00 0. -1.
         21   -1    0    0  501  502 -0.00000000000E+00 -0.00000000000E+00 -0.48637430078E+03  0.48637430078E+03  0.00000000000E+00 0. -1.
         25    1    1    2    0    0  0.10754601648E+03 -0.18729095546E+03 -0.16166057336E+03  0.29732673718E+03  0.12500000000E+03 0.  0.
         21    1    1    2  503  502 -0.10754601648E+03  0.18729095546E+03 -0.21148597635E+03  0.30227531466E+03  0.00000000000E+00 0. -1.
<mgrwt>
<rscale>  3 0.46934451E+03</rscale>
<asrwt>0</asrwt>
<pdfrwt beam="1">  1       21 0.17419654E-01 0.46934451E+03</pdfrwt>
<pdfrwt beam="2">  1       21 0.74826816E-01 0.46934451E+03</pdfrwt>
<totfact> 0.43532224E+04</totfact>
</mgrwt>
</event>
<event>
 4    0  0.1775285E-001  0.5130029E+03  0.7546771E-02  0.1010440E+00
         21   -1    0    0  503  501  0.00000000000E+00  0.00000000000E+00  0.27066010364E+04  0.27066010364E+04  0.00000000000E+00 0. -1.
         21   -1    0    0  501  502 -0.00000000000E+00 -0.00000000000E+00 -0.24308344872E+02  0.24308344872E+02  0.00000000000E+00 0. -1.
         25    1    1    2    0    0  0.12858672569E+03  0.20330770743E+03  0.13220612376E+04  0.13495701115E+04  0.12500000000E+03 0.  0.
         21    1    1    2  503  502 -0.12858672569E+03 -0.20330770743E+03  0.13602314540E+04  0.13813392698E+04  0.00000000000E+00 0.  1.
<mgrwt>
<rscale>  3 0.51300289E+03</rscale>
<asrwt>0</asrwt>
<pdfrwt beam="1">  1       21 0.41639992E+00 0.51300289E+03</pdfrwt>
<pdfrwt beam="2">  1       21 0.37397475E-02 0.51300289E+03</pdfrwt>
<totfact> 0.23182405E+03</totfact>
</mgrwt>
</event>
<event>
 4    0  0.1775285E-001  0.4739604E+03  0.7546771E-02  0.1020808E+00
         21   -1    0    0  503  501  0.00000000000E+00  0.00000000000E+00  0.27722401667E+03  0.27722401667E+03  0.00000000000E+00 0. -1.
         21   -1    0    0  501  502 -0.00000000000E+00 -0.00000000000E+00 -0.20257844176E+03  0.20257844176E+03  0.00000000000E+00 0. -1.
         25    1    1    2    0    0  0.86992565195E+02 -0.19758224882E+03 -0.54934778063E+01  0.24952280406E+03  0.12500000000E+03 0.  0.
         21    1    1    2  503  502 -0.86992565195E+02  0.19758224882E+03  0.80139052715E+02  0.23027965437E+03  0.00000000000E+00 0. -1.
<mgrwt>
<rscale>  3 0.47396038E+03</rscale>
<asrwt>0</asrwt>
<pdfrwt beam="1">  1       21 0.42649849E-01 0.47396038E+03</pdfrwt>
<pdfrwt beam="2">  1       21 0.31165914E-01 0.47396038E+03</pdfrwt>
<totfact> 0.47899950E+04</totfact>
</mgrwt>
</event>
<event>
 4    0  0.1775285E-001  0.4771754E+03  0.7546771E-02  0.1019914E+00
         21   -1    0    0  502  501  0.00000000000E+00  0.00000000000E+00  0.21397973198E+03  0.21397973198E+03  0.00000000000E+00 0. -1.
         21   -1    0    0  503  502 -0.00000000000E+00 -0.00000000000E+00 -0.26602562659E+03  0.26602562659E+03  0.00000000000E+00 0. -1.
         25    1    1    2    0    0 -0.18825191196E+03 -0.11589306475E+03 -0.50518290223E+02  0.25893451385E+03  0.12500000000E+03 0.  0.
         21    1    1    2  503  501  0.18825191196E+03  0.11589306475E+03 -0.15276043904E+01  0.22107084473E+03  0.00000000000E+00 0. -1.
<mgrwt>
<rscale>  3 0.47717541E+03</rscale>
<asrwt>0</asrwt>
<pdfrwt beam="1">  1       21 0.32919959E-01 0.47717541E+03</pdfrwt>
<pdfrwt beam="2">  1       21 0.40927020E-01 0.47717541E+03</pdfrwt>
<totfact> 0.46724838E+04</totfact>
</mgrwt>
</event>
<event>
 4    0  0.1775285E-001  0.4805529E+03  0.7546771E-02  0.1018983E+00
         21   -1    0    0  503  501  0.00000000000E+00  0.00000000000E+00  0.45465540439E+02  0.45465540439E+02  0.00000000000E+00 0.  1.
         21   -1    0    0  501  502 -0.00000000000E+00 -0.00000000000E+00 -0.12698138056E+04  0.12698138056E+04  0.00000000000E+00 0.  1.
         25    1    1    2    0    0 -0.21593129164E+03 -0.58440207019E+02 -0.68632322208E+03  0.73260231072E+03  0.12500000000E+03 0.  0.
         21    1    1    2  503  502  0.21593129164E+03  0.58440207019E+02 -0.53802504305E+03  0.58267703529E+03  0.00000000000E+00 0.  1.
<mgrwt>
<rscale>  3 0.48055289E+03</rscale>
<asrwt>0</asrwt>
<pdfrwt beam="1">  1       21 0.69946996E-02 0.48055289E+03</pdfrwt>
<pdfrwt beam="2">  1       21 0.19535594E+00 0.48055289E+03</pdfrwt>
<totfact> 0.19047075E+04</totfact>
</mgrwt>
</event>
<event>
 4    0  0.1775285E-001  0.5018391E+03  0.7546771E-02  0.1013300E+00
         21   -1    0    0  503  501  0.00000000000E+00  0.00000000000E+00  0.18127499231E+04  0.18127499231E+04  0.00000000000E+00 0.  1.
         21   -1    0    0  501  502 -0.00000000000E+00 -0.00000000000E+00 -0.34732098944E+02  0.34732098944E+02  0.00000000000E+00 0.  1.
         25    1    1    2    0    0  0.21258257977E+03 -0.49354026858E+02  0.12685339966E+04  0.12932249123E+04  0.12500000000E+03 0.  0.
         21    1    1    2  503  502 -0.21258257977E+03  0.49354026858E+02  0.50948382755E+03  0.55425710976E+03  0.00000000000E+00 0.  1.
<mgrwt>
<rscale>  3 0.50183906E+03</rscale>
<asrwt>0</asrwt>
<pdfrwt beam="1">  1       21 0.27888453E+00 0.50183906E+03</pdfrwt>
<pdfrwt beam="2">  1       21 0.53434012E-02 0.50183906E+03</pdfrwt>
<totfact> 0.89976881E+03</totfact>
</mgrwt>
</event>
<event>
 4    0  0.1775285E-001  0.5101213E+03  0.7546771E-02  0.1011170E+00
         21   -1    0    0  503  501  0.00000000000E+00  0.00000000000E+00  0.18751441009E+04  0.18751441009E+04  0.00000000000E+00 0. -1.
         21   -1    0    0  501  502 -0.00000000000E+00 -0.00000000000E+00 -0.34693826889E+02  0.34693826889E+02  0.00000000000E+00 0. -1.
         25    1    1    2    0    0  0.11479665622E+03  0.18239383811E+03  0.13687161959E+04  0.13912062425E+04  0.12500000000E+03 0.  0.
         21    1    1    2  503  502 -0.11479665622E+03 -0.18239383811E+03  0.47173407814E+03  0.51863168524E+03  0.00000000000E+00 0. -1.
<mgrwt>
<rscale>  3 0.51012126E+03</rscale>
<asrwt>0</asrwt>
<pdfrwt beam="1">  1       21 0.28848363E+00 0.51012126E+03</pdfrwt>
<pdfrwt beam="2">  1       21 0.53375133E-02 0.51012126E+03</pdfrwt>
<totfact> 0.78614466E+03</totfact>
</mgrwt>
</event>
<event>
 4    0  0.1775285E-001  0.4854846E+03  0.7546771E-02  0.1017639E+00
         21   -1    0    0  503  501  0.00000000000E+00  0.00000000000E+00  0.42023886384E+02  0.42023886384E+02  0.00000000000E+00 0.  1.
         21   -1    0    0  501  502 -0.00000000000E+00 -0.00000000000E+00 -0.14021508368E+04  0.14021508368E+04  0.00000000000E+00 0.  1.
         25    1    1    2    0    0 -0.62177647308E+01  0.22655844047E+03 -0.73021088135E+03  0.77472596367E+03  0.12500000000E+03 0.  0.
         21    1    1    2  503  502  0.62177647308E+01 -0.22655844047E+03 -0.62991606905E+03  0.66944875950E+03  0.00000000000E+00 0.  1.
<mgrwt>
<rscale>  3 0.48548461E+03</rscale>
<asrwt>0</asrwt>
<pdfrwt beam="1">  1       21 0.64652121E-02 0.48548461E+03</pdfrwt>
<pdfrwt beam="2">  1       21 0.21571555E+00 0.48548461E+03</pdfrwt>
<totfact> 0.16019913E+04</totfact>
</mgrwt>
</event>
<event>
 4    0  0.1775285E-001  0.5994504E+03  0.7546771E-02  0.9906547E-01
         21   -1    0    0  502  501  0.00000000000E+00  0.00000000000E+00  0.19545228563E+04  0.19545228563E+04  0.00000000000E+00 0. -1.
         21   -1    0    0  503  502 -0.00000000000E+00 -0.00000000000E+00 -0.45962719407E+02  0.45962719407E+02  0.00000000000E+00 0. -1.
         25    1    1    2    0    0  0.28011781098E+03  0.33787465984E+02  0.82610294990E+03  0.88186091007E+03  0.12500000000E+03 0.  0.
         21    1    1    2  503  501 -0.28011781098E+03 -0.33787465984E+02  0.10824571870E+04  0.11186246656E+04  0.00000000000E+00 0. -1.
<mgrwt>
<rscale>  3 0.59945037E+03</rscale>
<asrwt>0</asrwt>
<pdfrwt beam="1">  1       21 0.30069576E+00 0.59945037E+03</pdfrwt>
<pdfrwt beam="2">  1       21 0.70711891E-02 0.59945037E+03</pdfrwt>
<totfact> 0.39189912E+03</totfact>
</mgrwt>
</event>
<event>
 4    0  0.1775285E-001  0.4506394E+03  0.7546771E-02  0.1027532E+00
         21   -1    0    0  503  501  0.00000000000E+00  0.00000000000E+00  0.56490058486E+02  0.56490058486E+02  0.00000000000E+00 0. -1.
         21   -1    0    0  501  502 -0.00000000000E+00 -0.00000000000E+00 -0.89872389284E+03  0.89872389284E+03  0.00000000000E+00 0. -1.
         25    1    1    2    0    0  0.17389337728E+03  0.11351967585E+03 -0.47781585293E+03  0.53577851094E+03  0.12500000000E+03 0.  0.
         21    1    1    2  503  502 -0.17389337728E+03 -0.11351967585E+03 -0.36441798142E+03  0.41943544039E+03  0.00000000000E+00 0. -1.
<mgrwt>
<rscale>  3 0.45063939E+03</rscale>
<asrwt>0</asrwt>
<pdfrwt beam="1">  1       21 0.86907784E-02 0.45063939E+03</pdfrwt>
<pdfrwt beam="2">  1       21 0.13826521E+00 0.45063939E+03</pdfrwt>
<totfact> 0.34725648E+04</totfact>
</mgrwt>
</event>
<event>
 4    0  0.1775285E-001  0.4490998E+03  0.7546771E-02  0.1027991E+00
         21   -1    0    0  502  501  0.00000000000E+00  0.00000000000E+00  0.22613251631E+03  0.22613251631E+03  0.00000000000E+00 0. -1.
         21   -1    0    0  503  502 -0.00000000000E+00 -0.00000000000E+00 -0.22297835055E+03  0.22297835055E+03  0.00000000000E+00 0. -1.
         25    1    1    2    0    0  0.10679453528E+03  0.17737836732E+03  0.83788894911E+01  0.24199868543E+03  0.12500000000E+03 0.  0.
         21    1    1    2  503  501 -0.10679453528E+03 -0.17737836732E+03 -0.52247237257E+01  0.20711218143E+03  0.00000000000E+00 0. -1.
<mgrwt>
<rscale>  3 0.44909979E+03</rscale>
<asrwt>0</asrwt>
<pdfrwt beam="1">  1       21 0.34789618E-01 0.44909979E+03</pdfrwt>
<pdfrwt beam="2">  1       21 0.34304362E-01 0.44909979E+03</pdfrwt>
<totfact> 0.60300671E+04</totfact>
</mgrwt>
</event>
<event>
 4    0  0.1775285E-001  0.7137420E+03  0.7546771E-02  0.9694016E-01
         21   -1    0    0  503  501  0.00000000000E+00  0.00000000000E+00  0.13114303394E+04  0.13114303394E+04  0.00000000000E+00 0.  1.
         21   -1    0    0  501  502 -0.00000000000E+00 -0.00000000000E+00 -0.97112990830E+02  0.97112990830E+02  0.00000000000E+00 0.  1.
         25    1    1    2    0    0 -0.30962790620E+03  0.14633475781E+03  0.52948653401E+03  0.64285635358E+03  0.12500000000E+03 0.  0.
         21    1    1    2  503  502  0.30962790620E+03 -0.14633475781E+03  0.68483081452E+03  0.76568697661E+03  0.00000000000E+00 0. -1.
<mgrwt>
<rscale>  3 0.71374203E+03</rscale>
<asrwt>0</asrwt>
<pdfrwt beam="1">  1       21 0.20175850E+00 0.71374203E+03</pdfrwt>
<pdfrwt beam="2">  1       21 0.14940461E-01 0.71374203E+03</pdfrwt>
<totfact> 0.40913228E+03</totfact>
</mgrwt>
</event>
<event>
 4    0  0.1775285E-001  0.4992432E+03  0.7546771E-02  0.1013977E+00
         21   -1    0    0  502  501  0.00000000000E+00  0.00000000000E+00  0.10092177495E+04  0.10092177495E+04  0.00000000000E+00 0.  1.
         21   -1    0    0  503  502 -0.00000000000E+00 -0.00000000000E+00 -0.61741831398E+02  0.61741831398E+02  0.00000000000E+00 0.  1.
         25    1    1    2    0    0  0.13326806677E+03  0.18500448264E+03  0.61605858914E+03  0.66868544284E+03  0.12500000000E+03 0.  0.
         21    1    1    2  503  501 -0.13326806677E+03 -0.18500448264E+03  0.33141732901E+03  0.40227413810E+03  0.00000000000E+00 0.  1.
<mgrwt>
<rscale>  3 0.49924324E+03</rscale>
<asrwt>0</asrwt>
<pdfrwt beam="1">  1       21 0.15526426E+00 0.49924324E+03</pdfrwt>
<pdfrwt beam="2">  1       21 0.94987440E-02 0.49924324E+03</pdfrwt>
<totfact> 0.21377118E+04</totfact>
</mgrwt>
</event>
<event>
 4    0  0.1775285E-001  0.4587263E+03  0.7546771E-02  0.1025151E+00
         21   -1    0    0  502  501  0.00000000000E+00  0.00000000000E+00  0.16858067319E+03  0.16858067319E+03  0.00000000000E+00 0.  1.
         21   -1    0    0  503  502 -0.00000000000E+00 -0.00000000000E+00 -0.31206105549E+03  0.31206105549E+03  0.00000000000E+00 0.  1.
         25    1    1    2    0    0 -0.36138498306E+02  0.20909817267E+03 -0.84975945573E+02  0.26052629081E+03  0.12500000000E+03 0.  0.
         21    1    1    2  503  501  0.36138498306E+02 -0.20909817267E+03 -0.58504436733E+02  0.22011543788E+03  0.00000000000E+00 0.  1.
<mgrwt>
<rscale>  3 0.45872634E+03</rscale>
<asrwt>0</asrwt>
<pdfrwt beam="1">  1       21 0.25935488E-01 0.45872634E+03</pdfrwt>
<pdfrwt beam="2">  1       21 0.48009393E-01 0.45872634E+03</pdfrwt>
<totfact> 0.53890084E+04</totfact>
</mgrwt>
</event>
<event>
 4    0  0.1775285E-001  0.4951776E+03  0.7546771E-02  0.1015045E+00
         21   -1    0    0  503  501  0.00000000000E+00  0.00000000000E+00  0.69706899103E+03  0.69706899103E+03  0.00000000000E+00 0.  1.
         21   -1    0    0  501  502 -0.00000000000E+00 -0.00000000000E+00 -0.87939942966E+02  0.87939942966E+02  0.00000000000E+00 0.  1.
         25    1    1    2    0    0 -0.20373689002E+03 -0.10138477271E+03  0.39396033151E+03  0.47182341537E+03  0.12500000000E+03 0.  0.
         21    1    1    2  503  502  0.20373689002E+03  0.10138477271E+03  0.21516871656E+03  0.31318551863E+03  0.00000000000E+00 0.  1.
<mgrwt>
<rscale>  3 0.49517757E+03</rscale>
<asrwt>0</asrwt>
<pdfrwt beam="1">  1       21 0.10724138E+00 0.49517757E+03</pdfrwt>
<pdfrwt beam="2">  1       21 0.13529222E-01 0.49517757E+03</pdfrwt>
<totfact> 0.29478260E+04</totfact>
</mgrwt>
</event>
<event>
 4    0  0.1775285E-001  0.4868103E+03  0.7546771E-02  0.1017280E+00
         21   -1    0    0  503  501  0.00000000000E+00  0.00000000000E+00  0.37212442254E+03  0.37212442254E+03  0.00000000000E+00 0. -1.
         21   -1    0    0  501  502 -0.00000000000E+00 -0.00000000000E+00 -0.15921038308E+03  0.15921038308E+03  0.00000000000E+00 0. -1.
         25    1    1    2    0    0  0.40388325958E+02  0.20342073121E+03  0.21516317096E+03  0.32393116691E+03  0.12500000000E+03 0.  0.
         21    1    1    2  503  502 -0.40388325958E+02 -0.20342073121E+03 -0.22491315076E+01  0.20740363871E+03  0.00000000000E+00 0. -1.
<mgrwt>
<rscale>  3 0.48681032E+03</rscale>
<asrwt>0</asrwt>
<pdfrwt beam="1">  1       21 0.57249911E-01 0.48681032E+03</pdfrwt>
<pdfrwt beam="2">  1       21 0.24493905E-01 0.48681032E+03</pdfrwt>
<totfact> 0.41055296E+04</totfact>
</mgrwt>
</event>
<event>
 4    0  0.1775285E-001  0.5342749E+03  0.7546771E-02  0.1005201E+00
         21   -1    0    0  502  501  0.00000000000E+00  0.00000000000E+00  0.16166469777E+03  0.16166469777E+03  0.00000000000E+00 0. -1.
         21   -1    0    0  503  502 -0.00000000000E+00 -0.00000000000E+00 -0.44142234648E+03  0.44142234648E+03  0.00000000000E+00 0. -1.
         25    1    1    2    0    0 -0.11346300806E+03  0.19192213029E+03 -0.28136219262E+03  0.38012845425E+03  0.12500000000E+03 0.  0.
         21    1    1    2  503  501  0.11346300806E+03 -0.19192213029E+03  0.16045439164E+01  0.22295859000E+03  0.00000000000E+00 0. -1.
<mgrwt>
<rscale>  3 0.53427487E+03</rscale>
<asrwt>0</asrwt>
<pdfrwt beam="1">  1       21 0.24871492E-01 0.53427487E+03</pdfrwt>
<pdfrwt beam="2">  1       21 0.67911130E-01 0.53427487E+03</pdfrwt>
<totfact> 0.27041540E+04</totfact>
</mgrwt>
</event>
<event>
 4    0  0.1775285E-001  0.6634207E+03  0.7546771E-02  0.9781917E-01
         21   -1    0    0  503  501  0.00000000000E+00  0.00000000000E+00  0.53562958708E+03  0.53562958708E+03  0.00000000000E+00 0.  1.
         21   -1    0    0  501  502 -0.00000000000E+00 -0.00000000000E+00 -0.20542509957E+03  0.20542509957E+03  0.00000000000E+00 0.  1.
         25    1    1    2    0    0 -0.23264361511E+03  0.11258294242E+03 -0.39676956050E+02  0.28982275863E+03  0.12500000000E+03 0.  0.
         21    1    1    2  503  502  0.23264361511E+03 -0.11258294242E+03  0.36988144356E+03  0.45123192803E+03  0.00000000000E+00 0.  1.
<mgrwt>
<rscale>  3 0.66342071E+03</rscale>
<asrwt>0</asrwt>
<pdfrwt beam="1">  1       21 0.82404551E-01 0.66342071E+03</pdfrwt>
<pdfrwt beam="2">  1       21 0.31603862E-01 0.66342071E+03</pdfrwt>
<totfact> 0.10510678E+04</totfact>
</mgrwt>
</event>
<event>
 4    0  0.1775285E-001  0.5817119E+03  0.7546771E-02  0.9944092E-01
         21   -1    0    0  502  501  0.00000000000E+00  0.00000000000E+00  0.37625747403E+03  0.37625747403E+03  0.00000000000E+00 0.  1.
         21   -1    0    0  503  502 -0.00000000000E+00 -0.00000000000E+00 -0.22483857773E+03  0.22483857773E+03  0.00000000000E+00 0.  1.
         25    1    1    2    0    0 -0.83061792771E+02 -0.24241217264E+03 -0.30648794369E+02  0.28675297986E+03  0.12500000000E+03 0.  0.
         21    1    1    2  503  501  0.83061792771E+02  0.24241217264E+03  0.18206769067E+03  0.31434307190E+03  0.00000000000E+00 0.  1.
<mgrwt>
<rscale>  3 0.58171194E+03</rscale>
<asrwt>0</asrwt>
<pdfrwt beam="1">  1       21 0.57885765E-01 0.58171194E+03</pdfrwt>
<pdfrwt beam="2">  1       21 0.34590550E-01 0.58171194E+03</pdfrwt>
<totfact> 0.19797239E+04</totfact>
</mgrwt>
</event>
<event>
 4    0  0.1775285E-001  0.5160475E+03  0.7546771E-02  0.1009673E+00
         21   -1    0    0  502  501  0.00000000000E+00  0.00000000000E+00  0.12504944535E+03  0.12504944535E+03  0.00000000000E+00 0.  1.
         21   -1    0    0  503  502 -0.00000000000E+00 -0.00000000000E+00 -0.53239942781E+03  0.53239942781E+03  0.00000000000E+00 0.  1.
         25    1    1    2    0    0 -0.21758735286E+03  0.86009458791E+02 -0.29869085359E+03  0.39947854654E+03  0.12500000000E+03 0.  0.
         21    1    1    2  503  501  0.21758735286E+03 -0.86009458791E+02 -0.10865912887E+03  0.25797032662E+03  0.00000000000E+00 0.  1.
<mgrwt>
<rscale>  3 0.51604749E+03</rscale>
<asrwt>0</asrwt>
<pdfrwt beam="1">  1       21 0.19238377E-01 0.51604749E+03</pdfrwt>
<pdfrwt beam="2">  1       21 0.81907603E-01 0.51604749E+03</pdfrwt>
<totfact> 0.28998091E+04</totfact>
</mgrwt>
</event>
<event>
 4    0  0.1775285E-001  0.4537322E+03  0.7546771E-02  0.1026615E+00
         21   -1    0    0  502  501  0.00000000000E+00  0.00000000000E+00  0.42881846947E+03  0.42881846947E+03  0.00000000000E+00 0. -1.
         21   -1    0    0  503  502 -0.00000000000E+00 -0.00000000000E+00 -0.12002336101E+03  0.12002336101E+03  0.00000000000E+00 0. -1.
         25    1    1    2    0    0  0.13264406089E+02 -0.20507292598E+03  0.11592974324E+03  0.26701227464E+03  0.12500000000E+03 0.  0.
         21    1    1    2  503  501 -0.13264406089E+02  0.20507292598E+03  0.19286536523E+03  0.28182955584E+03  0.00000000000E+00 0. -1.
<mgrwt>
<rscale>  3 0.45373223E+03</rscale>
<asrwt>0</asrwt>
<pdfrwt beam="1">  1       21 0.65972072E-01 0.45373223E+03</pdfrwt>
<pdfrwt beam="2">  1       21 0.18465133E-01 0.45373223E+03</pdfrwt>
<totfact> 0.51991038E+04</totfact>
</mgrwt>
</event>
<event>
 4    0  0.1775285E-001  0.5665578E+03  0.7546771E-02  0.9977325E-01
         21   -1    0    0  503  501  0.00000000000E+00  0.00000000000E+00  0.23891598433E+03  0.23891598433E+03  0.00000000000E+00 0.  1.
         21   -1    0    0  501  502 -0.00000000000E+00 -0.00000000000E+00 -0.33587924860E+03  0.33587924860E+03  0.00000000000E+00 0.  1.
         25    1    1    2    0    0  0.23209149628E+03  0.12498278005E+03  0.59853811065E+01  0.29180127268E+03  0.12500000000E+03 0.  0.
         21    1    1    2  503  502 -0.23209149628E+03 -0.12498278005E+03 -0.10294864537E+03  0.28299396025E+03  0.00000000000E+00 0.  1.
<mgrwt>
<rscale>  3 0.56655775E+03</rscale>
<asrwt>0</asrwt>
<pdfrwt beam="1">  1       21 0.36756305E-01 0.56655775E+03</pdfrwt>
<pdfrwt beam="2">  1       21 0.51673730E-01 0.56655775E+03</pdfrwt>
<totfact> 0.22442300E+04</totfact>
</mgrwt>
</event>
<event>
 4    0  0.1775285E-001  0.4459247E+03  0.7546771E-02  0.1028944E+00
         21   -1    0    0  503  501  0.00000000000E+00  0.00000000000E+00  0.29641073659E+02  0.29641073659E+02  0.00000000000E+00 0. -1.
         21   -1    0    0  501  502 -0.00000000000E+00 -0.00000000000E+00 -0.16771389352E+04  0.16771389352E+04  0.00000000000E+00 0. -1.
         25    1    1    2    0    0 -0.20091284771E+03  0.30147946557E+02 -0.10053112230E+04  0.10332233670E+04  0.12500000000E+03 0.  0.
         21    1    1    2  503  502  0.20091284771E+03 -0.30147946557E+02 -0.64218663863E+03  0.67355664193E+03  0.00000000000E+00 0. -1.
<mgrwt>
<rscale>  3 0.44592465E+03</rscale>
<asrwt>0</asrwt>
<pdfrwt beam="1">  1       21 0.45601657E-02 0.44592465E+03</pdfrwt>
<pdfrwt beam="2">  1       21 0.25802135E+00 0.44592465E+03</pdfrwt>
<totfact> 0.16181324E+04</totfact>
</mgrwt>
</event>
<event>
 4    0  0.1775285E-001  0.4990083E+03  0.7546771E-02  0.1014038E+00
         21   -1    0    0  503  501  0.00000000000E+00  0.00000000000E+00  0.31358424442E+03  0.31358424442E+03  0.00000000000E+00 0. -1.
         21   -1    0    0  501  502 -0.00000000000E+00 -0.00000000000E+00 -0.19851865739E+03  0.19851865739E+03  0.00000000000E+00 0. -1.
         25    1    1    2    0    0 -0.17879807539E+03  0.13891134340E+03  0.11290872832E+01  0.25863369449E+03  0.12500000000E+03 0.  0.
         21    1    1    2  503  502  0.17879807539E+03 -0.13891134340E+03  0.11393649974E+03  0.25346920732E+03  0.00000000000E+00 0. -1.
<mgrwt>
<rscale>  3 0.49900831E+03</rscale>
<asrwt>0</asrwt>
<pdfrwt beam="1">  1       21 0.48243730E-01 0.49900831E+03</pdfrwt>
<pdfrwt beam="2">  1       21 0.30541332E-01 0.49900831E+03</pdfrwt>
<totfact> 0.38299709E+04</totfact>
</mgrwt>
</event>
<event>
 4    0  0.1775285E-001  0.5326309E+03  0.7546771E-02  0.1005596E+00
         21   -1    0    0  503  501  0.00000000000E+00  0.00000000000E+00  0.11460193531E+03  0.11460193531E+03  0.00000000000E+00 0. -1.
         21   -1    0    0  501  502 -0.00000000000E+00 -0.00000000000E+00 -0.61887195784E+03  0.61887195784E+03  0.00000000000E+00 0. -1.
         25    1    1    2    0    0 -0.21394058219E+03 -0.10182003530E+03 -0.38277869590E+03  0.46720704439E+03  0.12500000000E+03 0.  0.
         21    1    1    2  503  502  0.21394058219E+03  0.10182003530E+03 -0.12149132664E+03  0.26626684876E+03  0.00000000000E+00 0. -1.
<mgrwt>
<rscale>  3 0.53263092E+03</rscale>
<asrwt>0</asrwt>
<pdfrwt beam="1">  1       21 0.17631067E-01 0.53263092E+03</pdfrwt>
<pdfrwt beam="2">  1       21 0.95211072E-01 0.53263092E+03</pdfrwt>
<totfact> 0.23866402E+04</totfact>
</mgrwt>
</event>
<event>
 4    0  0.1775285E-001  0.5520216E+03  0.7546771E-02  0.1001027E+00
         21   -1    0    0  503  501  0.00000000000E+00  0.00000000000E+00  0.24843388329E+03  0.24843388329E+03  0.00000000000E+00 0.  1.
         21   -1    0    0  501  502 -0.00000000000E+00 -0.00000000000E+00 -0.30664878403E+03  0.30664878403E+03  0.00000000000E+00 0.  1.
         25    1    1    2    0    0  0.11274598459E+03 -0.16970532028E+03  0.13480595859E+03  0.27442521612E+03  0.12500000000E+03 0.  0.
         21    1    1    2  503  502 -0.11274598459E+03  0.16970532028E+03 -0.19302085933E+03  0.28065745119E+03  0.00000000000E+00 0.  1.
<mgrwt>
<rscale>  3 0.55202155E+03</rscale>
<asrwt>0</asrwt>
<pdfrwt beam="1">  1       21 0.38220597E-01 0.55202155E+03</pdfrwt>
<pdfrwt beam="2">  1       21 0.47176736E-01 0.55202155E+03</pdfrwt>
<totfact> 0.25228922E+04</totfact>
</mgrwt>
</event>
<event>
 4    0  0.1775285E-001  0.5534173E+03  0.7546771E-02  0.1000706E+00
         21   -1    0    0  502  501  0.00000000000E+00  0.00000000000E+00  0.38711792598E+03  0.38711792598E+03  0.00000000000E+00 0.  1.
         21   -1    0    0  503  502 -0.00000000000E+00 -0.00000000000E+00 -0.19778904592E+03  0.19778904592E+03  0.00000000000E+00 0.  1.
         25    1    1    2    0    0  0.23135915327E+03 -0.92027052844E+02  0.11330233327E+02  0.27883581270E+03  0.12500000000E+03 0.  0.
         21    1    1    2  503  501 -0.23135915327E+03  0.92027052844E+02  0.17799864673E+03  0.30607115920E+03  0.00000000000E+00 0.  1.
<mgrwt>
<rscale>  3 0.55341733E+03</rscale>
<asrwt>0</asrwt>
<pdfrwt beam="1">  1       21 0.59556604E-01 0.55341733E+03</pdfrwt>
<pdfrwt beam="2">  1       21 0.30429084E-01 0.55341733E+03</pdfrwt>
<totfact> 0.24217240E+04</totfact>
</mgrwt>
</event>
<event>
 4    0  0.1775285E-001  0.4531771E+03  0.7546771E-02  0.1026779E+00
         21   -1    0    0  502  501  0.00000000000E+00  0.00000000000E+00  0.40188615966E+03  0.40188615966E+03  0.00000000000E+00 0. -1.
         21   -1    0    0  503  502 -0.00000000000E+00 -0.00000000000E+00 -0.12775351330E+03  0.12775351330E+03  0.00000000000E+00 0. -1.
         25    1    1    2    0    0  0.18955330512E+03 -0.87325110940E+02  0.16673200727E+03  0.29492489337E+03  0.12500000000E+03 0.  0.
         21    1    1    2  503  501 -0.18955330512E+03  0.87325110940E+02  0.10740063909E+03  0.23471477959E+03  0.00000000000E+00 0. -1.
<mgrwt>
<rscale>  3 0.45317709E+03</rscale>
<asrwt>0</asrwt>
<pdfrwt beam="1">  1       21 0.61828639E-01 0.45317709E+03</pdfrwt>
<pdfrwt beam="2">  1       21 0.19654387E-01 0.45317709E+03</pdfrwt>
<totfact> 0.53337814E+04</totfact>
</mgrwt>
</event>
<event>
 4    0  0.1775285E-001  0.5169074E+03  0.7546771E-02  0.1009458E+00
         21   -1    0    0  503  501  0.00000000000E+00  0.00000000000E+00  0.48498872483E+03  0.48498872483E+03  0.00000000000E+00 0. -1.
         21   -1    0    0  501  502 -0.00000000000E+00 -0.00000000000E+00 -0.13773167546E+03  0.13773167546E+03  0.00000000000E+00 0. -1.
         25    1    1    2    0    0  0.80951463901E+02 -0.22889015976E+03  0.16397221508E+03  0.31852116423E+03  0.12500000000E+03 0.  0.
         21    1    1    2  503  502 -0.80951463901E+02  0.22889015976E+03  0.18328483430E+03  0.30419923607E+03  0.00000000000E+00 0. -1.
<mgrwt>
<rscale>  3 0.51690738E+03</rscale>
<asrwt>0</asrwt>
<pdfrwt beam="1">  1       21 0.74613649E-01 0.51690738E+03</pdfrwt>
<pdfrwt beam="2">  1       21 0.21189489E-01 0.51690738E+03</pdfrwt>
<totfact> 0.29894551E+04</totfact>
</mgrwt>
</event>
<event>
 4    0  0.1775285E-001  0.4949879E+03  0.7546771E-02  0.1015095E+00
         21   -1    0    0  503  501  0.00000000000E+00  0.00000000000E+00  0.50079254653E+03  0.50079254653E+03  0.00000000000E+00 0.  1.
         21   -1    0    0  501  502 -0.00000000000E+00 -0.00000000000E+00 -0.12231262814E+03  0.12231262814E+03  0.00000000000E+00 0.  1.
         25    1    1    2    0    0  0.22365006596E+03 -0.74905985555E+00  0.27756819599E+03  0.37774199729E+03  0.12500000000E+03 0.  0.
         21    1    1    2  503  502 -0.22365006596E+03  0.74905985555E+00  0.10091172241E+03  0.24536317738E+03  0.00000000000E+00 0.  1.
<mgrwt>
<rscale>  3 0.49498789E+03</rscale>
<asrwt>0</asrwt>
<pdfrwt beam="1">  1       21 0.77045006E-01 0.49498789E+03</pdfrwt>
<pdfrwt beam="2">  1       21 0.18817328E-01 0.49498789E+03</pdfrwt>
<totfact> 0.34999638E+04</totfact>
</mgrwt>
</event>
<event>
 4    0  0.1775285E-001  0.5106689E+03  0.7546771E-02  0.1011031E+00
         21   -1    0    0  503  501  0.00000000000E+00  0.00000000000E+00  0.43653467839E+03  0.43653467839E+03  0.00000000000E+00 0. -1.
         21   -1    0    0  501  502 -0.00000000000E+00 -0.00000000000E+00 -0.14934825203E+03  0.14934825203E+03  0.00000000000E+00 0. -1.
         25    1    1    2    0    0 -0.18974865597E+03 -0.14543890407E+03  0.12758457116E+03  0.29842896987E+03  0.12500000000E+03 0.  0.
         21    1    1    2  503  502  0.18974865597E+03  0.14543890407E+03  0.15960185519E+03  0.28745396056E+03  0.00000000000E+00 0. -1.
<mgrwt>
<rscale>  3 0.51066894E+03</rscale>
<asrwt>0</asrwt>
<pdfrwt beam="1">  1       21 0.67159181E-01 0.51066894E+03</pdfrwt>
<pdfrwt beam="2">  1       21 0.22976654E-01 0.51066894E+03</pdfrwt>
<totfact> 0.32499651E+04</totfact>
</mgrwt>
</event>
<event>
 4    0  0.1775285E-001  0.5114472E+03  0.7546771E-02  0.1010833E+00
         21   -1    0    0  503  501  0.00000000000E+00  0.00000000000E+00  0.30098308067E+03  0.30098308067E+03  0.00000000000E+00 0.  1.
         21   -1    0    0  501  502 -0.00000000000E+00 -0.00000000000E+00 -0.21726986103E+03  0.21726986103E+03  0.00000000000E+00 0.  1.
         25    1    1    2    0    0  0.19951571679E+03 -0.13386868021E+03  0.53864760837E+02  0.27614082865E+03  0.12500000000E+03 0.  0.
         21    1    1    2  503  502 -0.19951571679E+03  0.13386868021E+03  0.29848458810E+02  0.24211211305E+03  0.00000000000E+00 0.  1.
<mgrwt>
<rscale>  3 0.51144717E+03</rscale>
<asrwt>0</asrwt>
<pdfrwt beam="1">  1       21 0.46305090E-01 0.51144717E+03</pdfrwt>
<pdfrwt beam="2">  1       21 0.33426132E-01 0.51144717E+03</pdfrwt>
<totfact> 0.34762684E+04</totfact>
</mgrwt>
</event>
<event>
 4    0  0.1775285E-001  0.4976514E+03  0.7546771E-02  0.1014394E+00
         21   -1    0    0  502  501  0.00000000000E+00  0.00000000000E+00  0.28112823018E+03  0.28112823018E+03  0.00000000000E+00 0. -1.
         21   -1    0    0  503  502 -0.00000000000E+00 -0.00000000000E+00 -0.22023486911E+03  0.22023486911E+03  0.00000000000E+00 0. -1.
         25    1    1    2    0    0  0.16952078574E+03  0.15543641361E+03 -0.60007447588E+01  0.26183732433E+03  0.12500000000E+03 0.  0.
         21    1    1    2  503  501 -0.16952078574E+03 -0.15543641361E+03  0.66894105832E+02  0.23952577496E+03  0.00000000000E+00 0. -1.
<mgrwt>
<rscale>  3 0.49765144E+03</rscale>
<asrwt>0</asrwt>
<pdfrwt beam="1">  1       21 0.43250497E-01 0.49765144E+03</pdfrwt>
<pdfrwt beam="2">  1       21 0.33882287E-01 0.49765144E+03</pdfrwt>
<totfact> 0.39141736E+04</totfact>
</mgrwt>
</event>
<event>
 4    0  0.1775285E-001  0.5103810E+03  0.7546771E-02  0.1011104E+00
         21   -1    0    0  503  501  0.00000000000E+00  0.00000000000E+00  0.68846625388E+03  0.68846625388E+03  0.00000000000E+00 0.  1.
         21   -1    0    0  501  502 -0.00000000000E+00 -0.00000000000E+00 -0.94590260832E+02  0.94590260832E+02  0.00000000000E+00 0.  1.
         25    1    1    2    0    0  0.82917460721E+02 -0.20115023203E+03  0.46975724090E+03  0.53257261150E+03  0.12500000000E+03 0.  0.
         21    1    1    2  503  502 -0.82917460721E+02  0.20115023203E+03  0.12411875215E+03  0.25048390322E+03  0.00000000000E+00 0.  1.
<mgrwt>
<rscale>  3 0.51038104E+03</rscale>
<asrwt>0</asrwt>
<pdfrwt beam="1">  1       21 0.10591788E+00 0.51038104E+03</pdfrwt>
<pdfrwt beam="2">  1       21 0.14552348E-01 0.51038104E+03</pdfrwt>
<totfact> 0.26472967E+04</totfact>
</mgrwt>
</event>
<event>
 4    0  0.1775285E-001  0.1060072E+04  0.7546771E-02  0.9245006E-01
         21   -1    0    0  502  501  0.00000000000E+00  0.00000000000E+00  0.87934503345E+03  0.87934503345E+03  0.00000000000E+00 0. -1.
         21   -1    0    0  503  502 -0.00000000000E+00 -0.00000000000E+00 -0.31948597509E+03  0.31948597509E+03  0.00000000000E+00 0. -1.
         25    1    1    2    0    0 -0.23637118919E+03 -0.22307254506E+03  0.74672626674E+03  0.82392828382E+03  0.12500000000E+03 0.  0.
         21    1    1    2  503  501  0.23637118919E+03  0.22307254506E+03 -0.18686720838E+03  0.37490272472E+03  0.00000000000E+00 0. -1.
<mgrwt>
<rscale>  3 0.10600725E+04</rscale>
<asrwt>0</asrwt>
<pdfrwt beam="1">  1       21 0.13528385E+00 0.10600725E+04</pdfrwt>
<pdfrwt beam="2">  1       21 0.49151689E-01 0.10600725E+04</pdfrwt>
<totfact> 0.11267817E+03</totfact>
</mgrwt>
</event>
<event>
 4    0  0.1775285E-001  0.5994083E+03  0.7546771E-02  0.9906634E-01
         21   -1    0    0  503  501  0.00000000000E+00  0.00000000000E+00  0.75063038848E+02  0.75063038848E+02  0.00000000000E+00 0.  1.
         21   -1    0    0  501  502 -0.00000000000E+00 -0.00000000000E+00 -0.11966284633E+04  0.11966284633E+04  0.00000000000E+00 0.  1.
         25    1    1    2    0    0  0.34582043757E+02 -0.23084798894E+03 -0.23211246546E+03  0.35211916785E+03  0.12500000000E+03 0.  0.
         21    1    1    2  503  502 -0.34582043757E+02  0.23084798894E+03 -0.88945295905E+03  0.91957233435E+03  0.00000000000E+00 0. -1.
<mgrwt>
<rscale>  3 0.59940827E+03</rscale>
<asrwt>0</asrwt>
<pdfrwt beam="1">  1       21 0.11548160E-01 0.59940827E+03</pdfrwt>
<pdfrwt beam="2">  1       21 0.18409668E+00 0.59940827E+03</pdfrwt>
<totfact> 0.89693850E+03</totfact>
</mgrwt>
</event>
<event>
 4    0  0.1775285E-001  0.4982180E+03  0.7546771E-02  0.1014245E+00
         21   -1    0    0  503  501  0.00000000000E+00  0.00000000000E+00  0.60499967741E+02  0.60499967741E+02  0.00000000000E+00 0.  1.
         21   -1    0    0  501  502 -0.00000000000E+00 -0.00000000000E+00 -0.10257080284E+04  0.10257080284E+04  0.00000000000E+00 0.  1.
         25    1    1    2    0    0 -0.22473234915E+03 -0.61804273473E+02 -0.54092810700E+03  0.60212342083E+03  0.12500000000E+03 0.  0.
         21    1    1    2  503  502  0.22473234915E+03  0.61804273473E+02 -0.42427995364E+03  0.48408457529E+03  0.00000000000E+00 0.  1.
<mgrwt>
<rscale>  3 0.49821804E+03</rscale>
<asrwt>0</asrwt>
<pdfrwt beam="1">  1       21 0.93076884E-02 0.49821804E+03</pdfrwt>
<pdfrwt beam="2">  1       21 0.15780122E+00 0.49821804E+03</pdfrwt>
<totfact> 0.21201655E+04</totfact>
</mgrwt>
</event>
<event>
 4    0  0.1775285E-001  0.5169566E+03  0.7546771E-02  0.1009445E+00
         21   -1    0    0  502  501  0.00000000000E+00  0.00000000000E+00  0.60952475237E+03  0.60952475237E+03  0.00000000000E+00 0.  1.
         21   -1    0    0  503  502 -0.00000000000E+00 -0.00000000000E+00 -0.10961166449E+03  0.10961166449E+03  0.00000000000E+00 0.  1.
         25    1    1    2    0    0 -0.23177926701E+03 -0.37292693827E+02  0.35380218424E+03  0.44262101080E+03  0.12500000000E+03 0.  0.
         21    1    1    2  503  501  0.23177926701E+03  0.37292693827E+02  0.14611090364E+03  0.27651540607E+03  0.00000000000E+00 0.  1.
<mgrwt>
<rscale>  3 0.51695657E+03</rscale>
<asrwt>0</asrwt>
<pdfrwt beam="1">  1       21 0.93773037E-01 0.51695657E+03</pdfrwt>
<pdfrwt beam="2">  1       21 0.16863333E-01 0.51695657E+03</pdfrwt>
<totfact> 0.27011945E+04</totfact>
</mgrwt>
</event>
<event>
 4    0  0.1775285E-001  0.4961463E+03  0.7546771E-02  0.1014790E+00
         21   -1    0    0  503  501  0.00000000000E+00  0.00000000000E+00  0.34277187628E+03  0.34277187628E+03  0.00000000000E+00 0.  1.
         21   -1    0    0  501  502 -0.00000000000E+00 -0.00000000000E+00 -0.17953714164E+03  0.17953714164E+03  0.00000000000E+00 0.  1.
         25    1    1    2    0    0  0.55007585596E+02 -0.22425672974E+03  0.11381889798E+03  0.28617591940E+03  0.12500000000E+03 0.  0.
         21    1    1    2  503  502 -0.55007585596E+02  0.22425672974E+03  0.49415836656E+02  0.23613309852E+03  0.00000000000E+00 0.  1.
<mgrwt>
<rscale>  3 0.49614628E+03</rscale>
<asrwt>0</asrwt>
<pdfrwt beam="1">  1       21 0.52734135E-01 0.49614628E+03</pdfrwt>
<pdfrwt beam="2">  1       21 0.27621099E-01 0.49614628E+03</pdfrwt>
<totfact> 0.38683700E+04</totfact>
</mgrwt>
</event>
<event>
 4    0  0.1775285E-001  0.5938318E+03  0.7546771E-02  0.9918286E-01
         21   -1    0    0  503  501  0.00000000000E+00  0.00000000000E+00  0.22191155701E+03  0.22191155701E+03  0.00000000000E+00 0.  1.
         21   -1    0    0  501  502 -0.00000000000E+00 -0.00000000000E+00 -0.39727114168E+03  0.39727114168E+03  0.00000000000E+00 0.  1.
         25    1    1    2    0    0 -0.28055820647E+03  0.39764523543E+02 -0.75906543296E+02  0.31887447039E+03  0.12500000000E+03 0.  0.
         21    1    1    2  503  502  0.28055820647E+03 -0.39764523543E+02 -0.99453041379E+02  0.30030822831E+03  0.00000000000E+00 0.  1.
<mgrwt>
<rscale>  3 0.59383182E+03</rscale>
<asrwt>0</asrwt>
<pdfrwt beam="1">  1       21 0.34140240E-01 0.59383182E+03</pdfrwt>
<pdfrwt beam="2">  1       21 0.61118637E-01 0.59383182E+03</pdfrwt>
<totfact> 0.17994624E+04</totfact>
</mgrwt>
</event>
<event>
 4    0  0.1775285E-001  0.5013808E+03  0.7546771E-02  0.1013419E+00
         21   -1    0    0  503  501  0.00000000000E+00  0.00000000000E+00  0.24350039010E+03  0.24350039010E+03  0.00000000000E+00 0.  1.
         21   -1    0    0  501  502 -0.00000000000E+00 -0.00000000000E+00 -0.25809267490E+03  0.25809267490E+03  0.00000000000E+00 0.  1.
         25    1    1    2    0    0 -0.13559390536E+03  0.18821023534E+03  0.30570165344E+02  0.26527030528E+03  0.12500000000E+03 0.  0.
         21    1    1    2  503  502  0.13559390536E+03 -0.18821023534E+03 -0.45162450143E+02  0.23632275971E+03  0.00000000000E+00 0.  1.
<mgrwt>
<rscale>  3 0.50138076E+03</rscale>
<asrwt>0</asrwt>
<pdfrwt beam="1">  1       21 0.37461598E-01 0.50138076E+03</pdfrwt>
<pdfrwt beam="2">  1       21 0.39706565E-01 0.50138076E+03</pdfrwt>
<totfact> 0.38081694E+04</totfact>
</mgrwt>
</event>
<event>
 4    0  0.1775285E-001  0.5111135E+03  0.7546771E-02  0.1010918E+00
         21   -1    0    0  502  501  0.00000000000E+00  0.00000000000E+00  0.98035998948E+02  0.98035998948E+02  0.00000000000E+00 0.  1.
         21   -1    0    0  503  502 -0.00000000000E+00 -0.00000000000E+00 -0.66617635767E+03  0.66617635767E+03  0.00000000000E+00 0.  1.
         25    1    1    2    0    0 -0.16417806175E+03  0.16827602916E+03 -0.22691468196E+03  0.34983786364E+03  0.12500000000E+03 0.  0.
         21    1    1    2  503  501  0.16417806175E+03 -0.16827602916E+03 -0.34122567676E+03  0.41437449298E+03  0.00000000000E+00 0.  1.
<mgrwt>
<rscale>  3 0.51111355E+03</rscale>
<asrwt>0</asrwt>
<pdfrwt beam="1">  1       21 0.15082462E-01 0.51111355E+03</pdfrwt>
<pdfrwt beam="2">  1       21 0.10248867E+00 0.51111355E+03</pdfrwt>
<totfact> 0.26859915E+04</totfact>
</mgrwt>
</event>
<event>
 4    0  0.1775285E-001  0.4835732E+03  0.7546771E-02  0.1018158E+00
         21   -1    0    0  502  501  0.00000000000E+00  0.00000000000E+00  0.28285068688E+03  0.28285068688E+03  0.00000000000E+00 0.  1.
         21   -1    0    0  503  502 -0.00000000000E+00 -0.00000000000E+00 -0.20668414338E+03  0.20668414338E+03  0.00000000000E+00 0.  1.
         25    1    1    2    0    0 -0.11589938533E+03 -0.19356569021E+03  0.43650896237E+02  0.26159270764E+03  0.12500000000E+03 0.  0.
         21    1    1    2  503  501  0.11589938533E+03  0.19356569021E+03  0.32515647270E+02  0.22794212262E+03  0.00000000000E+00 0.  1.
<mgrwt>
<rscale>  3 0.48357317E+03</rscale>
<asrwt>0</asrwt>
<pdfrwt beam="1">  1       21 0.43515490E-01 0.48357317E+03</pdfrwt>
<pdfrwt beam="2">  1       21 0.31797561E-01 0.48357317E+03</pdfrwt>
<totfact> 0.44039559E+04</totfact>
</mgrwt>
</event>
<event>
 4    0  0.1775285E-001  0.4662132E+03  0.7546771E-02  0.1022994E+00
         21   -1    0    0  503  501  0.00000000000E+00  0.00000000000E+00  0.49509330275E+02  0.49509330275E+02  0.00000000000E+00 0.  1.
         21   -1    0    0  501  502 -0.00000000000E+00 -0.00000000000E+00 -0.10975445427E+04  0.10975445427E+04  0.00000000000E+00 0.  1.
         25    1    1    2    0    0 -0.14910381149E+02  0.21111266907E+03 -0.67216117519E+03  0.71569303751E+03  0.12500000000E+03 0.  0.
         21    1    1    2  503  502  0.14910381149E+02 -0.21111266907E+03 -0.37587403725E+03  0.43136083548E+03  0.00000000000E+00 0.  1.
<mgrwt>
<rscale>  3 0.46621324E+03</rscale>
<asrwt>0</asrwt>
<pdfrwt beam="1">  1       21 0.76168209E-02 0.46621324E+03</pdfrwt>
<pdfrwt beam="2">  1       21 0.16885299E+00 0.46621324E+03</pdfrwt>
<totfact> 0.25265713E+04</totfact>
</mgrwt>
</event>
<event>
 4    0  0.1775285E-001  0.4504220E+03  0.7546771E-02  0.1027596E+00
         21   -1    0    0  503  501  0.00000000000E+00  0.00000000000E+00  0.42947901732E+03  0.42947901732E+03  0.00000000000E+00 0. -1.
         21   -1    0    0  501  502 -0.00000000000E+00 -0.00000000000E+00 -0.11809653744E+03  0.11809653744E+03  0.00000000000E+00 0. -1.
         25    1    1    2    0    0 -0.84009751865E+02 -0.18351091131E+03  0.22815510322E+03  0.32926227252E+03  0.12500000000E+03 0.  0.
         21    1    1    2  503  502  0.84009751865E+02  0.18351091131E+03  0.83227376649E+02  0.21831328224E+03  0.00000000000E+00 0. -1.
<mgrwt>
<rscale>  3 0.45042196E+03</rscale>
<asrwt>0</asrwt>
<pdfrwt beam="1">  1       21 0.66073694E-01 0.45042196E+03</pdfrwt>
<pdfrwt beam="2">  1       21 0.18168698E-01 0.45042196E+03</pdfrwt>
<totfact> 0.53457814E+04</totfact>
</mgrwt>
</event>
<event>
 4    0  0.1775285E-001  0.4633125E+03  0.7546771E-02  0.1023825E+00
         21   -1    0    0  503  501  0.00000000000E+00  0.00000000000E+00  0.44884741791E+03  0.44884741791E+03  0.00000000000E+00 0.  1.
         21   -1    0    0  501  502 -0.00000000000E+00 -0.00000000000E+00 -0.11956094592E+03  0.11956094592E+03  0.00000000000E+00 0.  1.
         25    1    1    2    0    0 -0.16765927681E+03 -0.11440400561E+03  0.26284326899E+03  0.35483727771E+03  0.12500000000E+03 0.  0.
         21    1    1    2  503  502  0.16765927681E+03  0.11440400561E+03  0.66443202997E+02  0.21357108612E+03  0.00000000000E+00 0.  1.
<mgrwt>
<rscale>  3 0.46331252E+03</rscale>
<asrwt>0</asrwt>
<pdfrwt beam="1">  1       21 0.69053448E-01 0.46331252E+03</pdfrwt>
<pdfrwt beam="2">  1       21 0.18393992E-01 0.46331252E+03</pdfrwt>
<totfact> 0.47187327E+04</totfact>
</mgrwt>
</event>
<event>
 4    0  0.1775285E-001  0.4467279E+03  0.7546771E-02  0.1028702E+00
         21   -1    0    0  502  501  0.00000000000E+00  0.00000000000E+00  0.31035665552E+03  0.31035665552E+03  0.00000000000E+00 0.  1.
         21   -1    0    0  503  502 -0.00000000000E+00 -0.00000000000E+00 -0.16075519816E+03  0.16075519816E+03  0.00000000000E+00 0.  1.
         25    1    1    2    0    0  0.19546372862E+03 -0.43530275722E+02  0.13105521618E+03  0.27000263665E+03  0.12500000000E+03 0.  0.
         21    1    1    2  503  501 -0.19546372862E+03  0.43530275722E+02  0.18546241179E+02  0.20110921703E+03  0.00000000000E+00 0.  1.
<mgrwt>
<rscale>  3 0.44672786E+03</rscale>
<asrwt>0</asrwt>
<pdfrwt beam="1">  1       21 0.47747178E-01 0.44672786E+03</pdfrwt>
<pdfrwt beam="2">  1       21 0.24731569E-01 0.44672786E+03</pdfrwt>
<totfact> 0.59958974E+04</totfact>
</mgrwt>
</event>
<event>
 4    0  0.1775285E-001  0.4726612E+03  0.7546771E-02  0.1021172E+00
         21   -1    0    0  502  501  0.00000000000E+00  0.00000000000E+00  0.15401888377E+03  0.15401888377E+03  0.00000000000E+00 0.  1.
         21   -1    0    0  503  502 -0.00000000000E+00 -0.00000000000E+00 -0.36263183366E+03  0.36263183366E+03  0.00000000000E+00 0.  1.
         25    1    1    2    0    0  0.10757170244E+03 -0.17166051653E+03 -0.20482587900E+03  0.31403446437E+03  0.12500000000E+03 0.  0.
         21    1    1    2  503  501 -0.10757170244E+03  0.17166051653E+03 -0.37870708896E+01  0.20261625307E+03  0.00000000000E+00 0.  1.
<mgrwt>
<rscale>  3 0.47266119E+03</rscale>
<asrwt>0</asrwt>
<pdfrwt beam="1">  1       21 0.23695213E-01 0.47266119E+03</pdfrwt>
<pdfrwt beam="2">  1       21 0.55789513E-01 0.47266119E+03</pdfrwt>
<totfact> 0.46448642E+04</totfact>
</mgrwt>
</event>
<event>
 4    0  0.1775285E-001  0.4739822E+03  0.7546771E-02  0.1020802E+00
         21   -1    0    0  503  501  0.00000000000E+00  0.00000000000E+00  0.10493710001E+03  0.10493710001E+03  0.00000000000E+00 0.  1.
         21   -1    0    0  501  502 -0.00000000000E+00 -0.00000000000E+00 -0.53522341230E+03  0.53522341230E+03  0.00000000000E+00 0.  1.
         25    1    1    2    0    0 -0.55501348675E+02  0.21098078325E+03 -0.27346628679E+03  0.37148633975E+03  0.12500000000E+03 0.  0.
         21    1    1    2  503  502  0.55501348675E+02 -0.21098078325E+03 -0.15682002549E+03  0.26867417256E+03  0.00000000000E+00 0.  1.
<mgrwt>
<rscale>  3 0.47398225E+03</rscale>
<asrwt>0</asrwt>
<pdfrwt beam="1">  1       21 0.16144170E-01 0.47398225E+03</pdfrwt>
<pdfrwt beam="2">  1       21 0.82342061E-01 0.47398225E+03</pdfrwt>
<totfact> 0.40224079E+04</totfact>
</mgrwt>
</event>
<event>
 4    0  0.1775285E-001  0.6787246E+03  0.7546771E-02  0.9754324E-01
         21   -1    0    0  503  501  0.00000000000E+00  0.00000000000E+00  0.22297281145E+04  0.22297281145E+04  0.00000000000E+00 0. -1.
         21   -1    0    0  501  502 -0.00000000000E+00 -0.00000000000E+00 -0.51650584965E+02  0.51650584965E+02  0.00000000000E+00 0. -1.
         25    1    1    2    0    0  0.62606835225E+02  0.32151953076E+03  0.10793618380E+04  0.11348750600E+04  0.12500000000E+03 0.  0.
         21    1    1    2  503  502 -0.62606835225E+02 -0.32151953076E+03  0.10987156916E+04  0.11465036395E+04  0.00000000000E+00 0. -1.
<mgrwt>
<rscale>  3 0.67872457E+03</rscale>
<asrwt>0</asrwt>
<pdfrwt beam="1">  1       21 0.34303502E+00 0.67872457E+03</pdfrwt>
<pdfrwt beam="2">  1       21 0.79462456E-02 0.67872457E+03</pdfrwt>
<totfact> 0.17039095E+03</totfact>
</mgrwt>
</event>
<event>
 4    0  0.1775285E-001  0.4643553E+03  0.7546771E-02  0.1023526E+00
         21   -1    0    0  503  501  0.00000000000E+00  0.00000000000E+00  0.14454633820E+03  0.14454633820E+03  0.00000000000E+00 0. -1.
         21   -1    0    0  501  502 -0.00000000000E+00 -0.00000000000E+00 -0.37293555797E+03  0.37293555797E+03  0.00000000000E+00 0. -1.
         25    1    1    2    0    0  0.97764196863E+01 -0.20853632498E+03 -0.18137588303E+03  0.30348836578E+03  0.12500000000E+03 0.  0.
         21    1    1    2  503  502 -0.97764196863E+01  0.20853632498E+03 -0.47013336730E+02  0.21399353039E+03  0.00000000000E+00 0. -1.
<mgrwt>
<rscale>  3 0.46435534E+03</rscale>
<asrwt>0</asrwt>
<pdfrwt beam="1">  1       21 0.22237898E-01 0.46435534E+03</pdfrwt>
<pdfrwt beam="2">  1       21 0.57374701E-01 0.46435534E+03</pdfrwt>
<totfact> 0.49493157E+04</totfact>
</mgrwt>
</event>
<event>
 4    0  0.1775285E-001  0.4888313E+03  0.7546771E-02  0.1016736E+00
         21   -1    0    0  503  501  0.00000000000E+00  0.00000000000E+00  0.26808033203E+03  0.26808033203E+03  0.00000000000E+00 0. -1.
         21   -1    0    0  501  502 -0.00000000000E+00 -0.00000000000E+00 -0.22283997038E+03  0.22283997038E+03  0.00000000000E+00 0. -1.
         25    1    1    2    0    0  0.21360018714E+03 -0.14131160920E+02 -0.55973547440E+02  0.25413139843E+03  0.12500000000E+03 0.  0.
         21    1    1    2  503  502 -0.21360018714E+03  0.14131160920E+02  0.10121390909E+03  0.23678890398E+03  0.00000000000E+00 0. -1.
<mgrwt>
<rscale>  3 0.48883131E+03</rscale>
<asrwt>0</asrwt>
<pdfrwt beam="1">  1       21 0.41243128E-01 0.48883131E+03</pdfrwt>
<pdfrwt beam="2">  1       21 0.34283072E-01 0.48883131E+03</pdfrwt>
<totfact> 0.42271161E+04</totfact>
</mgrwt>
</event>
<event>
 4    0  0.1775285E-001  0.6085828E+03  0.7546771E-02  0.9887758E-01
         21   -1    0    0  503  501  0.00000000000E+00  0.00000000000E+00  0.90519004030E+03  0.90519004030E+03  0.00000000000E+00 0.  1.
         21   -1    0    0  501  502 -0.00000000000E+00 -0.00000000000E+00 -0.10229150576E+03  0.10229150576E+03  0.00000000000E+00 0.  1.
         25    1    1    2    0    0  0.24722464852E+03  0.23878055912E+02  0.16593321185E+03  0.32380398265E+03  0.12500000000E+03 0.  0.
         21    1    1    2  503  502 -0.24722464852E+03 -0.23878055912E+02  0.63696532269E+03  0.68367756340E+03  0.00000000000E+00 0.  1.
<mgrwt>
<rscale>  3 0.60858279E+03</rscale>
<asrwt>0</asrwt>
<pdfrwt beam="1">  1       21 0.13926000E+00 0.60858279E+03</pdfrwt>
<pdfrwt beam="2">  1       21 0.15737155E-01 0.60858279E+03</pdfrwt>
<totfact> 0.11088101E+04</totfact>
</mgrwt>
</event>
<event>
 4    0  0.1775285E-001  0.5448538E+03  0.7546771E-02  0.1002692E+00
         21   -1    0    0  503  501  0.00000000000E+00  0.00000000000E+00  0.14521074010E+04  0.14521074010E+04  0.00000000000E+00 0. -1.
         21   -1    0    0  501  502 -0.00000000000E+00 -0.00000000000E+00 -0.51109445570E+02  0.51109445570E+02  0.00000000000E+00 0. -1.
         25    1    1    2    0    0  0.24729784513E+03 -0.35723662742E+02  0.55905713812E+03  0.62498183011E+03  0.12500000000E+03 0.  0.
         21    1    1    2  503  502 -0.24729784513E+03  0.35723662742E+02  0.84194081733E+03  0.87823501648E+03  0.00000000000E+00 0. -1.
<mgrwt>
<rscale>  3 0.54485376E+03</rscale>
<asrwt>0</asrwt>
<pdfrwt beam="1">  1       21 0.22340111E+00 0.54485376E+03</pdfrwt>
<pdfrwt beam="2">  1       21 0.78629927E-02 0.54485376E+03</pdfrwt>
<totfact> 0.99348830E+03</totfact>
</mgrwt>
</event>
<event>
 4    0  0.1775285E-001  0.4756411E+03  0.7546771E-02  0.1020340E+00
         21   -1    0    0  502  501  0.00000000000E+00  0.00000000000E+00  0.98018988891E+02  0.98018988891E+02  0.00000000000E+00 0.  1.
         21   -1    0    0  503  502 -0.00000000000E+00 -0.00000000000E+00 -0.57701700494E+03  0.57701700494E+03  0.00000000000E+00 0.  1.
         25    1    1    2    0    0  0.17987342293E+03  0.12907635989E+03 -0.25727376244E+03  0.36170422143E+03  0.12500000000E+03 0.  0.
         21    1    1    2  503  501 -0.17987342293E+03 -0.12907635989E+03 -0.22172425360E+03  0.31333177240E+03  0.00000000000E+00 0.  1.
<mgrwt>
<rscale>  3 0.47564114E+03</rscale>
<asrwt>0</asrwt>
<pdfrwt beam="1">  1       21 0.15079844E-01 0.47564114E+03</pdfrwt>
<pdfrwt beam="2">  1       21 0.88771848E-01 0.47564114E+03</pdfrwt>
<totfact> 0.38274177E+04</totfact>
</mgrwt>
</event>
<event>
 4    0  0.1775285E-001  0.5415896E+03  0.7546771E-02  0.1003460E+00
         21   -1    0    0  503  501  0.00000000000E+00  0.00000000000E+00  0.75493285325E+02  0.75493285325E+02  0.00000000000E+00 0.  1.
         21   -1    0    0  501  502 -0.00000000000E+00 -0.00000000000E+00 -0.97134245436E+03  0.97134245436E+03  0.00000000000E+00 0.  1.
         25    1    1    2    0    0 -0.16045547483E+03  0.18028354277E+03 -0.63892544500E+03  0.69433337775E+03  0.12500000000E+03 0.  0.
         21    1    1    2  503  502  0.16045547483E+03 -0.18028354277E+03 -0.25692372403E+03  0.35250236193E+03  0.00000000000E+00 0.  1.
<mgrwt>
<rscale>  3 0.54158963E+03</rscale>
<asrwt>0</asrwt>
<pdfrwt beam="1">  1       21 0.11614352E-01 0.54158963E+03</pdfrwt>
<pdfrwt beam="2">  1       21 0.14943729E+00 0.54158963E+03</pdfrwt>
<totfact> 0.16321191E+04</totfact>
</mgrwt>
</event>
<event>
 4    0  0.1775285E-001  0.5352889E+03  0.7546771E-02  0.1004957E+00
         21   -1    0    0  502  501  0.00000000000E+00  0.00000000000E+00  0.23696961602E+03  0.23696961602E+03  0.00000000000E+00 0.  1.
         21   -1    0    0  503  502 -0.00000000000E+00 -0.00000000000E+00 -0.30229005988E+03  0.30229005988E+03  0.00000000000E+00 0.  1.
         25    1    1    2    0    0 -0.17454811100E+03 -0.14011457292E+03 -0.15336320222E+03  0.29873802636E+03  0.12500000000E+03 0.  0.
         21    1    1    2  503  501  0.17454811100E+03  0.14011457292E+03  0.88042758356E+02  0.24052164954E+03  0.00000000000E+00 0.  1.
<mgrwt>
<rscale>  3 0.53528893E+03</rscale>
<asrwt>0</asrwt>
<pdfrwt beam="1">  1       21 0.36456864E-01 0.53528893E+03</pdfrwt>
<pdfrwt beam="2">  1       21 0.46506163E-01 0.53528893E+03</pdfrwt>
<totfact> 0.28743667E+04</totfact>
</mgrwt>
</event>
<event>
 4    0  0.1775285E-001  0.9130112E+03  0.7546771E-02  0.9409461E-01
         21   -1    0    0  503  501  0.00000000000E+00  0.00000000000E+00  0.29366640966E+03  0.29366640966E+03  0.00000000000E+00 0.  1.
         21   -1    0    0  501  502 -0.00000000000E+00 -0.00000000000E+00 -0.70963970067E+03  0.70963970067E+03  0.00000000000E+00 0.  1.
         25    1    1    2    0    0 -0.81535127594E+02  0.44045765526E+03 -0.21482146169E+03  0.51227354364E+03  0.12500000000E+03 0.  0.
         21    1    1    2  503  502  0.81535127594E+02 -0.44045765526E+03 -0.20115182932E+03  0.49103256669E+03  0.00000000000E+00 0.  1.
<mgrwt>
<rscale>  3 0.91301116E+03</rscale>
<asrwt>0</asrwt>
<pdfrwt beam="1">  1       21 0.45179448E-01 0.91301116E+03</pdfrwt>
<pdfrwt beam="2">  1       21 0.10917534E+00 0.91301116E+03</pdfrwt>
<totfact> 0.24180448E+03</totfact>
</mgrwt>
</event>
<event>
 4    0  0.1775285E-001  0.5417519E+03  0.7546771E-02  0.1003421E+00
         21   -1    0    0  502  501  0.00000000000E+00  0.00000000000E+00  0.98352234205E+02  0.98352234205E+02  0.00000000000E+00 0.  1.
         21   -1    0    0  503  502 -0.00000000000E+00 -0.00000000000E+00 -0.74603064496E+03  0.74603064496E+03  0.00000000000E+00 0.  1.
         25    1    1    2    0    0  0.86549929889E+02 -0.22092030634E+03 -0.18938410185E+03  0.32831084379E+03  0.12500000000E+03 0.  0.
         21    1    1    2  503  501 -0.86549929889E+02  0.22092030634E+03 -0.45829430891E+03  0.51607203537E+03  0.00000000000E+00 0.  1.
<mgrwt>
<rscale>  3 0.54175190E+03</rscale>
<asrwt>0</asrwt>
<pdfrwt beam="1">  1       21 0.15131113E-01 0.54175190E+03</pdfrwt>
<pdfrwt beam="2">  1       21 0.11477395E+00 0.54175190E+03</pdfrwt>
<totfact> 0.20012082E+04</totfact>
</mgrwt>
</event>
<event>
 4    0  0.1775285E-001  0.6532220E+03  0.7546771E-02  0.9800752E-01
         21   -1    0    0  503  501  0.00000000000E+00  0.00000000000E+00  0.72357911401E+02  0.72357911401E+02  0.00000000000E+00 0.  1.
         21   -1    0    0  501  502 -0.00000000000E+00 -0.00000000000E+00 -0.14742649116E+04  0.14742649116E+04  0.00000000000E+00 0.  1.
         25    1    1    2    0    0  0.25723926236E+03  0.83793861301E+02 -0.11070146362E+04  0.11464291753E+04  0.12500000000E+03 0.  0.
         21    1    1    2  503  502 -0.25723926236E+03 -0.83793861301E+02 -0.29489236402E+03  0.40019364769E+03  0.00000000000E+00 0.  1.
<mgrwt>
<rscale>  3 0.65322195E+03</rscale>
<asrwt>0</asrwt>
<pdfrwt beam="1">  1       21 0.11131986E-01 0.65322195E+03</pdfrwt>
<pdfrwt beam="2">  1       21 0.22680999E+00 0.65322195E+03</pdfrwt>
<totfact> 0.48963505E+03</totfact>
</mgrwt>
</event>
<event>
 4    0  0.1775285E-001  0.4521395E+03  0.7546771E-02  0.1027086E+00
         21   -1    0    0  503  501  0.00000000000E+00  0.00000000000E+00  0.71967274743E+03  0.71967274743E+03  0.00000000000E+00 0. -1.
         21   -1    0    0  501  502 -0.00000000000E+00 -0.00000000000E+00 -0.71014971203E+02  0.71014971203E+02  0.00000000000E+00 0. -1.
         25    1    1    2    0    0 -0.11840192315E+03  0.17119734899E+03  0.37764244917E+03  0.44896143166E+03  0.12500000000E+03 0.  0.
         21    1    1    2  503  502  0.11840192315E+03 -0.17119734899E+03  0.27101532706E+03  0.34172628698E+03  0.00000000000E+00 0. -1.
<mgrwt>
<rscale>  3 0.45213953E+03</rscale>
<asrwt>0</asrwt>
<pdfrwt beam="1">  1       21 0.11071888E+00 0.45213953E+03</pdfrwt>
<pdfrwt beam="2">  1       21 0.10925381E-01 0.45213953E+03</pdfrwt>
<totfact> 0.40651553E+04</totfact>
</mgrwt>
</event>
<event>
 4    0  0.1775285E-001  0.8817030E+03  0.7546771E-02  0.9448747E-01
         21   -1    0    0  503  501  0.00000000000E+00  0.00000000000E+00  0.26427017800E+03  0.26427017800E+03  0.00000000000E+00 0. -1.
         21   -1    0    0  501  502 -0.00000000000E+00 -0.00000000000E+00 -0.73542183603E+03  0.73542183603E+03  0.00000000000E+00 0. -1.
         25    1    1    2    0    0  0.29927759113E+03 -0.27228569422E+03 -0.68697097318E+02  0.42901149986E+03  0.12500000000E+03 0.  0.
         21    1    1    2  503  502 -0.29927759113E+03  0.27228569422E+03 -0.40245456071E+03  0.57068051418E+03  0.00000000000E+00 0. -1.
<mgrwt>
<rscale>  3 0.88170303E+03</rscale>
<asrwt>0</asrwt>
<pdfrwt beam="1">  1       21 0.40656951E-01 0.88170303E+03</pdfrwt>
<pdfrwt beam="2">  1       21 0.11314182E+00 0.88170303E+03</pdfrwt>
<totfact> 0.27748455E+03</totfact>
</mgrwt>
</event>
<event>
 4    0  0.1775285E-001  0.4512637E+03  0.7546771E-02  0.1027346E+00
         21   -1    0    0  502  501  0.00000000000E+00  0.00000000000E+00  0.19185661990E+03  0.19185661990E+03  0.00000000000E+00 0.  1.
         21   -1    0    0  503  502 -0.00000000000E+00 -0.00000000000E+00 -0.26535304482E+03  0.26535304482E+03  0.00000000000E+00 0.  1.
         25    1    1    2    0    0 -0.28240328664E+02 -0.20598187716E+03 -0.26322322568E+02  0.24401621779E+03  0.12500000000E+03 0.  0.
         21    1    1    2  503  501  0.28240328664E+02  0.20598187716E+03 -0.47174102355E+02  0.21319344693E+03  0.00000000000E+00 0.  1.
<mgrwt>
<rscale>  3 0.45126373E+03</rscale>
<asrwt>0</asrwt>
<pdfrwt beam="1">  1       21 0.29516403E-01 0.45126373E+03</pdfrwt>
<pdfrwt beam="2">  1       21 0.40823545E-01 0.45126373E+03</pdfrwt>
<totfact> 0.58723838E+04</totfact>
</mgrwt>
</event>
<event>
 4    0  0.1775285E-001  0.6280500E+03  0.7546771E-02  0.9848861E-01
         21   -1    0    0  502  501  0.00000000000E+00  0.00000000000E+00  0.16511468918E+03  0.16511468918E+03  0.00000000000E+00 0. -1.
         21   -1    0    0  503  502 -0.00000000000E+00 -0.00000000000E+00 -0.59723154342E+03  0.59723154342E+03  0.00000000000E+00 0. -1.
         25    1    1    2    0    0 -0.59906799566E+02  0.29384695575E+03 -0.18586790311E+03  0.37430834274E+03  0.12500000000E+03 0.  0.
         21    1    1    2  503  501  0.59906799566E+02 -0.29384695575E+03 -0.24624895113E+03  0.38803788986E+03  0.00000000000E+00 0. -1.
<mgrwt>
<rscale>  3 0.62805000E+03</rscale>
<asrwt>0</asrwt>
<pdfrwt beam="1">  1       21 0.25402260E-01 0.62805000E+03</pdfrwt>
<pdfrwt beam="2">  1       21 0.91881776E-01 0.62805000E+03</pdfrwt>
<totfact> 0.12622241E+04</totfact>
</mgrwt>
</event>
<event>
 4    0  0.1775285E-001  0.4365512E+03  0.7546771E-02  0.1031810E+00
         21   -1    0    0  503  501  0.00000000000E+00  0.00000000000E+00  0.75168238353E+02  0.75168238353E+02  0.00000000000E+00 0. -1.
         21   -1    0    0  501  502 -0.00000000000E+00 -0.00000000000E+00 -0.63383469361E+03  0.63383469361E+03  0.00000000000E+00 0. -1.
         25    1    1    2    0    0 -0.16059015192E+03  0.11968923049E+03 -0.31215331374E+03  0.39138139974E+03  0.12500000000E+03 0.  0.
         21    1    1    2  503  502  0.16059015192E+03 -0.11968923049E+03 -0.24651314152E+03  0.31762153222E+03  0.00000000000E+00 0. -1.
<mgrwt>
<rscale>  3 0.43655120E+03</rscale>
<asrwt>0</asrwt>
<pdfrwt beam="1">  1       21 0.11564345E-01 0.43655120E+03</pdfrwt>
<pdfrwt beam="2">  1       21 0.97513029E-01 0.43655120E+03</pdfrwt>
<totfact> 0.50254703E+04</totfact>
</mgrwt>
</event>
<event>
 4    0  0.1775285E-001  0.4835329E+03  0.7546771E-02  0.1018169E+00
         21   -1    0    0  503  501  0.00000000000E+00  0.00000000000E+00  0.53525863497E+03  0.53525863497E+03  0.00000000000E+00 0.  1.
         21   -1    0    0  501  502 -0.00000000000E+00 -0.00000000000E+00 -0.10920143396E+03  0.10920143396E+03  0.00000000000E+00 0.  1.
         25    1    1    2    0    0 -0.74609394892E+02 -0.19891945311E+03  0.32845434360E+03  0.41066137688E+03  0.12500000000E+03 0.  0.
         21    1    1    2  503  502  0.74609394892E+02  0.19891945311E+03  0.97602857416E+02  0.23379869205E+03  0.00000000000E+00 0.  1.
<mgrwt>
<rscale>  3 0.48353288E+03</rscale>
<asrwt>0</asrwt>
<pdfrwt beam="1">  1       21 0.82347481E-01 0.48353288E+03</pdfrwt>
<pdfrwt beam="2">  1       21 0.16800221E-01 0.48353288E+03</pdfrwt>
<totfact> 0.37249672E+04</totfact>
</mgrwt>
</event>
<event>
 4    0  0.1775285E-001  0.6353442E+03  0.7546771E-02  0.9834675E-01
         21   -1    0    0  503  501  0.00000000000E+00  0.00000000000E+00  0.31259064232E+04  0.31259064232E+04  0.00000000000E+00 0.  1.
         21   -1    0    0  501  502 -0.00000000000E+00 -0.00000000000E+00 -0.32283621115E+02  0.32283621115E+02  0.00000000000E+00 0.  1.
         25    1    1    2    0    0  0.22083205732E+03  0.30049945296E+02  0.26444412048E+04  0.26567581904E+04  0.12500000000E+03 0.  0.
         21    1    1    2  503  502 -0.22083205732E+03 -0.30049945296E+02  0.44918159728E+03  0.50143185389E+03  0.00000000000E+00 0.  1.
<mgrwt>
<rscale>  3 0.63534425E+03</rscale>
<asrwt>0</asrwt>
<pdfrwt beam="1">  1       21 0.48090844E+00 0.63534425E+03</pdfrwt>
<pdfrwt beam="2">  1       21 0.49667134E-02 0.63534425E+03</pdfrwt>
<totfact> 0.49044116E+02</totfact>
</mgrwt>
</event>
<event>
 4    0  0.1775285E-001  0.5851590E+03  0.7546771E-02  0.9936684E-01
         21   -1    0    0  503  501  0.00000000000E+00  0.00000000000E+00  0.17187040755E+03  0.17187040755E+03  0.00000000000E+00 0. -1.
         21   -1    0    0  501  502 -0.00000000000E+00 -0.00000000000E+00 -0.49806578701E+03  0.49806578701E+03  0.00000000000E+00 0. -1.
         25    1    1    2    0    0 -0.22076672639E+03  0.17040115396E+03 -0.18648735593E+03  0.35801820439E+03  0.12500000000E+03 0.  0.
         21    1    1    2  503  502  0.22076672639E+03 -0.17040115396E+03 -0.13970802353E+03  0.31191799017E+03  0.00000000000E+00 0. -1.
<mgrwt>
<rscale>  3 0.58515902E+03</rscale>
<asrwt>0</asrwt>
<pdfrwt beam="1">  1       21 0.26441601E-01 0.58515902E+03</pdfrwt>
<pdfrwt beam="2">  1       21 0.76625505E-01 0.58515902E+03</pdfrwt>
<totfact> 0.18032164E+04</totfact>
</mgrwt>
</event>
<event>
 4    0  0.1775285E-001  0.4881347E+03  0.7546771E-02  0.1016923E+00
         21   -1    0    0  503  501  0.00000000000E+00  0.00000000000E+00  0.98535906265E+03  0.98535906265E+03  0.00000000000E+00 0. -1.
         21   -1    0    0  501  502 -0.00000000000E+00 -0.00000000000E+00 -0.60453966280E+02  0.60453966280E+02  0.00000000000E+00 0. -1.
         25    1    1    2    0    0 -0.20084471801E+03  0.10267228430E+03  0.42068411041E+03  0.49343724977E+03  0.12500000000E+03 0.  0.
         21    1    1    2  503  502  0.20084471801E+03 -0.10267228430E+03  0.50422098596E+03  0.55237577915E+03  0.00000000000E+00 0. -1.
<mgrwt>
<rscale>  3 0.48813467E+03</rscale>
<asrwt>0</asrwt>
<pdfrwt beam="1">  1       21 0.15159369E+00 0.48813467E+03</pdfrwt>
<pdfrwt beam="2">  1       21 0.93006109E-02 0.48813467E+03</pdfrwt>
<totfact> 0.23776421E+04</totfact>
</mgrwt>
</event>
<event>
 4    0  0.1775285E-001  0.5591771E+03  0.7546771E-02  0.9993918E-01
         21   -1    0    0  502  501  0.00000000000E+00  0.00000000000E+00  0.16445283347E+04  0.16445283347E+04  0.00000000000E+00 0. -1.
         21   -1    0    0  503  502 -0.00000000000E+00 -0.00000000000E+00 -0.47533234702E+02  0.47533234702E+02  0.00000000000E+00 0. -1.
         25    1    1    2    0    0 -0.23370590947E+03 -0.64320404502E+02  0.11670623187E+04  0.11985053285E+04  0.12500000000E+03 0.  0.
         21    1    1    2  503  501  0.23370590947E+03  0.64320404502E+02  0.42993278125E+03  0.49355624092E+03  0.00000000000E+00 0.  1.
<mgrwt>
<rscale>  3 0.55917708E+03</rscale>
<asrwt>0</asrwt>
<pdfrwt beam="1">  1       21 0.25300432E+00 0.55917708E+03</pdfrwt>
<pdfrwt beam="2">  1       21 0.73128066E-02 0.55917708E+03</pdfrwt>
<totfact> 0.73281892E+03</totfact>
</mgrwt>
</event>
<event>
 4    0  0.1775285E-001  0.4488081E+03  0.7546771E-02  0.1028078E+00
         21   -1    0    0  503  501  0.00000000000E+00  0.00000000000E+00  0.10017692730E+03  0.10017692730E+03  0.00000000000E+00 0. -1.
         21   -1    0    0  501  502 -0.00000000000E+00 -0.00000000000E+00 -0.50268239756E+03  0.50268239756E+03  0.00000000000E+00 0. -1.
         25    1    1    2    0    0  0.15825926075E+03 -0.13173664993E+03 -0.18845990629E+03  0.30584746987E+03  0.12500000000E+03 0.  0.
         21    1    1    2  503  502 -0.15825926075E+03  0.13173664993E+03 -0.21404556397E+03  0.29701185498E+03  0.00000000000E+00 0. -1.
<mgrwt>
<rscale>  3 0.44880810E+03</rscale>
<asrwt>0</asrwt>
<pdfrwt beam="1">  1       21 0.15411835E-01 0.44880810E+03</pdfrwt>
<pdfrwt beam="2">  1       21 0.77335754E-01 0.44880810E+03</pdfrwt>
<totfact> 0.50982251E+04</totfact>
</mgrwt>
</event>
<event>
 4    0  0.1775285E-001  0.4779446E+03  0.7546771E-02  0.1019702E+00
         21   -1    0    0  503  501  0.00000000000E+00  0.00000000000E+00  0.61272348938E+02  0.61272348938E+02  0.00000000000E+00 0.  1.
         21   -1    0    0  501  502 -0.00000000000E+00 -0.00000000000E+00 -0.93203162172E+03  0.93203162172E+03  0.00000000000E+00 0.  1.
         25    1    1    2    0    0 -0.17842886971E+03 -0.94065084751E+02 -0.26934498051E+03  0.35896632188E+03  0.12500000000E+03 0.  0.
         21    1    1    2  503  502  0.17842886971E+03  0.94065084751E+02 -0.60141429227E+03  0.63433764878E+03  0.00000000000E+00 0.  1.
<mgrwt>
<rscale>  3 0.47794463E+03</rscale>
<asrwt>0</asrwt>
<pdfrwt beam="1">  1       21 0.94265161E-02 0.47794463E+03</pdfrwt>
<pdfrwt beam="2">  1       21 0.14338947E+00 0.47794463E+03</pdfrwt>
<totfact> 0.27056498E+04</totfact>
</mgrwt>
</event>
<event>
 4    0  0.1775285E-001  0.4760922E+03  0.7546771E-02  0.1020215E+00
         21   -1    0    0  502  501  0.00000000000E+00  0.00000000000E+00  0.91617328072E+02  0.91617328072E+02  0.00000000000E+00 0.  1.
         21   -1    0    0  503  502 -0.00000000000E+00 -0.00000000000E+00 -0.61850679922E+03  0.61850679922E+03  0.00000000000E+00 0.  1.
         25    1    1    2    0    0  0.77425262504E+02 -0.20545634124E+03 -0.23646864329E+03  0.34604826063E+03  0.12500000000E+03 0.  0.
         21    1    1    2  503  501 -0.77425262504E+02  0.20545634124E+03 -0.29042082786E+03  0.36407586666E+03  0.00000000000E+00 0. -1.
<mgrwt>
<rscale>  3 0.47609218E+03</rscale>
<asrwt>0</asrwt>
<pdfrwt beam="1">  1       21 0.14094974E-01 0.47609218E+03</pdfrwt>
<pdfrwt beam="2">  1       21 0.95154887E-01 0.47609218E+03</pdfrwt>
<totfact> 0.36758499E+04</totfact>
</mgrwt>
</event>
<event>
 4    0  0.1775285E-001  0.5115291E+03  0.7546771E-02  0.1010813E+00
         21   -1    0    0  503  501  0.00000000000E+00  0.00000000000E+00  0.54630052832E+02  0.54630052832E+02  0.00000000000E+00 0.  1.
         21   -1    0    0  501  502 -0.00000000000E+00 -0.00000000000E+00 -0.11974271145E+04  0.11974271145E+04  0.00000000000E+00 0.  1.
         25    1    1    2    0    0 -0.61379038956E+02 -0.21652748748E+03 -0.39804753678E+03  0.47404470337E+03  0.12500000000E+03 0.  0.
         21    1    1    2  503  502  0.61379038956E+02  0.21652748748E+03 -0.74474952487E+03  0.77801246394E+03  0.00000000000E+00 0.  1.
<mgrwt>
<rscale>  3 0.51152911E+03</rscale>
<asrwt>0</asrwt>
<pdfrwt beam="1">  1       21 0.84046242E-02 0.51152911E+03</pdfrwt>
<pdfrwt beam="2">  1       21 0.18421954E+00 0.51152911E+03</pdfrwt>
<totfact> 0.16263334E+04</totfact>
</mgrwt>
</event>
<event>
 4    0  0.1775285E-001  0.5020941E+03  0.7546771E-02  0.1013234E+00
         21   -1    0    0  503  501  0.00000000000E+00  0.00000000000E+00  0.10896069695E+03  0.10896069695E+03  0.00000000000E+00 0. -1.
         21   -1    0    0  501  502 -0.00000000000E+00 -0.00000000000E+00 -0.57841614434E+03  0.57841614434E+03  0.00000000000E+00 0. -1.
         25    1    1    2    0    0 -0.22525896282E+03  0.34325833350E+02 -0.33066511372E+03  0.42057612937E+03  0.12500000000E+03 0.  0.
         21    1    1    2  503  502  0.22525896282E+03 -0.34325833350E+02 -0.13879033366E+03  0.26680071192E+03  0.00000000000E+00 0. -1.
<mgrwt>
<rscale>  3 0.50209412E+03</rscale>
<asrwt>0</asrwt>
<pdfrwt beam="1">  1       21 0.16763184E-01 0.50209412E+03</pdfrwt>
<pdfrwt beam="2">  1       21 0.88987098E-01 0.50209412E+03</pdfrwt>
<totfact> 0.31049373E+04</totfact>
</mgrwt>
</event>
<event>
 4    0  0.1775285E-001  0.4531366E+03  0.7546771E-02  0.1026791E+00
         21   -1    0    0  502  501  0.00000000000E+00  0.00000000000E+00  0.58256468413E+03  0.58256468413E+03  0.00000000000E+00 0. -1.
         21   -1    0    0  503  502 -0.00000000000E+00 -0.00000000000E+00 -0.88115877944E+02  0.88115877944E+02  0.00000000000E+00 0. -1.
         25    1    1    2    0    0 -0.19247464461E+03 -0.78806307202E+02  0.30109444196E+03  0.38670374430E+03  0.12500000000E+03 0.  0.
         21    1    1    2  503  501  0.19247464461E+03  0.78806307202E+02  0.19335436423E+03  0.28397681778E+03  0.00000000000E+00 0. -1.
<mgrwt>
<rscale>  3 0.45313662E+03</rscale>
<asrwt>0</asrwt>
<pdfrwt beam="1">  1       21 0.89625333E-01 0.45313662E+03</pdfrwt>
<pdfrwt beam="2">  1       21 0.13556289E-01 0.45313662E+03</pdfrwt>
<totfact> 0.45795131E+04</totfact>
</mgrwt>
</event>
<event>
 4    0  0.1775285E-001  0.4759844E+03  0.7546771E-02  0.1020245E+00
         21   -1    0    0  503  501  0.00000000000E+00  0.00000000000E+00  0.55753053662E+02  0.55753053662E+02  0.00000000000E+00 0. -1.
         21   -1    0    0  501  502 -0.00000000000E+00 -0.00000000000E+00 -0.10159134811E+04  0.10159134811E+04  0.00000000000E+00 0. -1.
         25    1    1    2    0    0  0.15185182787E+03  0.15218079003E+03 -0.63399953774E+03  0.68102744756E+03  0.12500000000E+03 0.  0.
         21    1    1    2  503  502 -0.15185182787E+03 -0.15218079003E+03 -0.32616088972E+03  0.39063908722E+03  0.00000000000E+00 0. -1.
<mgrwt>
<rscale>  3 0.47598436E+03</rscale>
<asrwt>0</asrwt>
<pdfrwt beam="1">  1       21 0.85773934E-02 0.47598436E+03</pdfrwt>
<pdfrwt beam="2">  1       21 0.15629437E+00 0.47598436E+03</pdfrwt>
<totfact> 0.25350255E+04</totfact>
</mgrwt>
</event>
<event>
 4    0  0.1775285E-001  0.4722273E+03  0.7546771E-02  0.1021293E+00
         21   -1    0    0  502  501  0.00000000000E+00  0.00000000000E+00  0.42025152935E+02  0.42025152935E+02  0.00000000000E+00 0.  1.
         21   -1    0    0  503  502 -0.00000000000E+00 -0.00000000000E+00 -0.13265780389E+04  0.13265780389E+04  0.00000000000E+00 0.  1.
         25    1    1    2    0    0  0.20383459614E+03 -0.30062901145E+02 -0.90720812078E+03  0.93867134558E+03  0.12500000000E+03 0.  0.
         21    1    1    2  503  501 -0.20383459614E+03  0.30062901145E+02 -0.37734476519E+03  0.42993184625E+03  0.00000000000E+00 0.  1.
<mgrwt>
<rscale>  3 0.47222725E+03</rscale>
<asrwt>0</asrwt>
<pdfrwt beam="1">  1       21 0.64654085E-02 0.47222725E+03</pdfrwt>
<pdfrwt beam="2">  1       21 0.20408892E+00 0.47222725E+03</pdfrwt>
<totfact> 0.19165747E+04</totfact>
</mgrwt>
</event>
<event>
 4    0  0.1775285E-001  0.4914582E+03  0.7546771E-02  0.1016033E+00
         21   -1    0    0  503  501  0.00000000000E+00  0.00000000000E+00  0.44083181067E+02  0.44083181067E+02  0.00000000000E+00 0.  1.
         21   -1    0    0  501  502 -0.00000000000E+00 -0.00000000000E+00 -0.13697467845E+04  0.13697467845E+04  0.00000000000E+00 0.  1.
         25    1    1    2    0    0  0.14288158515E+03  0.15859467964E+03 -0.46066594996E+03  0.52288195345E+03  0.12500000000E+03 0.  0.
         21    1    1    2  503  502 -0.14288158515E+03 -0.15859467964E+03 -0.86499765344E+03  0.89094801209E+03  0.00000000000E+00 0.  1.
<mgrwt>
<rscale>  3 0.49145822E+03</rscale>
<asrwt>0</asrwt>
<pdfrwt beam="1">  1       21 0.67820287E-02 0.49145822E+03</pdfrwt>
<pdfrwt beam="2">  1       21 0.21073025E+00 0.49145822E+03</pdfrwt>
<totfact> 0.15841131E+04</totfact>
</mgrwt>
</event>
<event>
 4    0  0.1775285E-001  0.5344183E+03  0.7546771E-02  0.1005166E+00
         21   -1    0    0  502  501  0.00000000000E+00  0.00000000000E+00  0.22056981896E+03  0.22056981896E+03  0.00000000000E+00 0. -1.
         21   -1    0    0  503  502 -0.00000000000E+00 -0.00000000000E+00 -0.32371030583E+03  0.32371030583E+03  0.00000000000E+00 0. -1.
         25    1    1    2    0    0 -0.20454453470E+03  0.21262732557E+02  0.94982440325E+02  0.25872231145E+03  0.12500000000E+03 0.  0.
         21    1    1    2  503  501  0.20454453470E+03 -0.21262732557E+02 -0.19812292720E+03  0.28555781333E+03  0.00000000000E+00 0. -1.
<mgrwt>
<rscale>  3 0.53441828E+03</rscale>
<asrwt>0</asrwt>
<pdfrwt beam="1">  1       21 0.33933818E-01 0.53441828E+03</pdfrwt>
<pdfrwt beam="2">  1       21 0.49801586E-01 0.53441828E+03</pdfrwt>
<totfact> 0.28760208E+04</totfact>
</mgrwt>
</event>
<event>
 4    0  0.1775285E-001  0.5600978E+03  0.7546771E-02  0.9991833E-01
         21   -1    0    0  503  501  0.00000000000E+00  0.00000000000E+00  0.24990887739E+03  0.24990887739E+03  0.00000000000E+00 0. -1.
         21   -1    0    0  501  502 -0.00000000000E+00 -0.00000000000E+00 -0.31382398301E+03  0.31382398301E+03  0.00000000000E+00 0. -1.
         25    1    1    2    0    0 -0.20073338565E+03  0.12339715297E+03 -0.15799925735E+03  0.31001534607E+03  0.12500000000E+03 0.  0.
         21    1    1    2  503  502  0.20073338565E+03 -0.12339715297E+03  0.94084151730E+02  0.25371751434E+03  0.00000000000E+00 0. -1.
<mgrwt>
<rscale>  3 0.56009785E+03</rscale>
<asrwt>0</asrwt>
<pdfrwt beam="1">  1       21 0.38447520E-01 0.56009785E+03</pdfrwt>
<pdfrwt beam="2">  1       21 0.48280613E-01 0.56009785E+03</pdfrwt>
<totfact> 0.23691391E+04</totfact>
</mgrwt>
</event>
<event>
 4    0  0.1775285E-001  0.7095250E+03  0.7546771E-02  0.9701080E-01
         21   -1    0    0  503  501  0.00000000000E+00  0.00000000000E+00  0.11360833030E+04  0.11360833030E+04  0.00000000000E+00 0.  1.
         21   -1    0    0  501  502 -0.00000000000E+00 -0.00000000000E+00 -0.11078098166E+03  0.11078098166E+03  0.00000000000E+00 0.  1.
         25    1    1    2    0    0  0.28424499707E+03  0.19324018499E+03  0.53789050816E+03  0.65045229358E+03  0.12500000000E+03 0.  0.
         21    1    1    2  503  502 -0.28424499707E+03 -0.19324018499E+03  0.48741181314E+03  0.59641199103E+03  0.00000000000E+00 0.  1.
<mgrwt>
<rscale>  3 0.70952498E+03</rscale>
<asrwt>0</asrwt>
<pdfrwt beam="1">  1       21 0.17478204E+00 0.70952498E+03</pdfrwt>
<pdfrwt beam="2">  1       21 0.17043229E-01 0.70952498E+03</pdfrwt>
<totfact> 0.49407207E+03</totfact>
</mgrwt>
</event>
<event>
 4    0  0.1775285E-001  0.5270684E+03  0.7546771E-02  0.1006946E+00
         21   -1    0    0  503  501  0.00000000000E+00  0.00000000000E+00  0.22679985089E+03  0.22679985089E+03  0.00000000000E+00 0.  1.
         21   -1    0    0  501  502 -0.00000000000E+00 -0.00000000000E+00 -0.30621830653E+03  0.30621830653E+03  0.00000000000E+00 0.  1.
         25    1    1    2    0    0 -0.21069194832E+03 -0.12882747016E+03 -0.71769012903E+02  0.28594301070E+03  0.12500000000E+03 0.  0.
         21    1    1    2  503  502  0.21069194832E+03  0.12882747016E+03 -0.76494427299E+01  0.24707514672E+03  0.00000000000E+00 0.  1.
<mgrwt>
<rscale>  3 0.52706837E+03</rscale>
<asrwt>0</asrwt>
<pdfrwt beam="1">  1       21 0.34892285E-01 0.52706837E+03</pdfrwt>
<pdfrwt beam="2">  1       21 0.47110509E-01 0.52706837E+03</pdfrwt>
<totfact> 0.30632769E+04</totfact>
</mgrwt>
</event>
<event>
 4    0  0.1775285E-001  0.4622992E+03  0.7546771E-02  0.1024116E+00
         21   -1    0    0  502  501  0.00000000000E+00  0.00000000000E+00  0.78429648958E+02  0.78429648958E+02  0.00000000000E+00 0. -1.
         21   -1    0    0  503  502 -0.00000000000E+00 -0.00000000000E+00 -0.68124921880E+03  0.68124921880E+03  0.00000000000E+00 0. -1.
         25    1    1    2    0    0  0.10713178283E+03  0.17631059341E+03 -0.41842252247E+03  0.48297520801E+03  0.12500000000E+03 0.  0.
         21    1    1    2  503  501 -0.10713178283E+03 -0.17631059341E+03 -0.18439704737E+03  0.27670365975E+03  0.00000000000E+00 0. -1.
<mgrwt>
<rscale>  3 0.46229920E+03</rscale>
<asrwt>0</asrwt>
<pdfrwt beam="1">  1       21 0.12066100E-01 0.46229920E+03</pdfrwt>
<pdfrwt beam="2">  1       21 0.10480757E+00 0.46229920E+03</pdfrwt>
<totfact> 0.38779288E+04</totfact>
</mgrwt>
</event>
<event>
 4    0  0.1775285E-001  0.4968149E+03  0.7546771E-02  0.1014614E+00
         21   -1    0    0  502  501  0.00000000000E+00  0.00000000000E+00  0.42107299932E+03  0.42107299932E+03  0.00000000000E+00 0. -1.
         21   -1    0    0  503  502 -0.00000000000E+00 -0.00000000000E+00 -0.14654529419E+03  0.14654529419E+03  0.00000000000E+00 0. -1.
         25    1    1    2    0    0 -0.45658166019E+02 -0.22623825038E+03  0.17970350065E+03  0.31809866740E+03  0.12500000000E+03 0.  0.
         21    1    1    2  503  501  0.45658166019E+02  0.22623825038E+03  0.94824204483E+02  0.24951962611E+03  0.00000000000E+00 0. -1.
<mgrwt>
<rscale>  3 0.49681492E+03</rscale>
<asrwt>0</asrwt>
<pdfrwt beam="1">  1       21 0.64780461E-01 0.49681492E+03</pdfrwt>
<pdfrwt beam="2">  1       21 0.22545430E-01 0.49681492E+03</pdfrwt>
<totfact> 0.36644943E+04</totfact>
</mgrwt>
</event>
<event>
 4    0  0.1775285E-001  0.5951705E+03  0.7546771E-02  0.9915477E-01
         21   -1    0    0  503  501  0.00000000000E+00  0.00000000000E+00  0.26018575714E+02  0.26018575714E+02  0.00000000000E+00 0.  1.
         21   -1    0    0  501  502 -0.00000000000E+00 -0.00000000000E+00 -0.34036059574E+04  0.34036059574E+04  0.00000000000E+00 0.  1.
         25    1    1    2    0    0  0.39707831256E+02 -0.28082533074E+03 -0.18891667924E+04  0.19144230848E+04  0.12500000000E+03 0.  0.
         21    1    1    2  503  502 -0.39707831256E+02  0.28082533074E+03 -0.14884205893E+04  0.15152014483E+04  0.00000000000E+00 0.  1.
<mgrwt>
<rscale>  3 0.59517049E+03</rscale>
<asrwt>0</asrwt>
<pdfrwt beam="1">  1       21 0.40028576E-02 0.59517049E+03</pdfrwt>
<pdfrwt beam="2">  1       21 0.52363171E+00 0.59517049E+03</pdfrwt>
<totfact> 0.35747385E+02</totfact>
</mgrwt>
</event>
