<event>
 5    0  0.2720079E+000  0.4487905E+03  0.7546771E-02  0.1028083E+00
         21   -1    0    0  503  501  0.00000000000E+00  0.00000000000E+00  0.22692880875E+03  0.22692880875E+03  0.00000000000E+00 0. -1.
         21   -1    0    0  504  502 -0.00000000000E+00 -0.00000000000E+00 -0.27067013891E+03  0.27067013891E+03  0.00000000000E+00 0. -1.
         25    1    1    2    0    0 -0.20418435720E+03 -0.17896838700E+01 -0.19416256395E+02  0.24020084452E+03  0.12500000000E+03 0.  0.
         21    1    1    2  503  502  0.20455253493E+03 -0.43138573053E+02 -0.32994480885E+02  0.21163957995E+03  0.00000000000E+00 0. -1.
         21    1    1    2  504  501 -0.36817773320E+00  0.44928256923E+02  0.86694071135E+01  0.45758523192E+02  0.00000000000E+00 0. -1.
<mgrwt>
<rscale>  4 0.44879047E+03</rscale>
<asrwt>0</asrwt>
<pdfrwt beam="1">  1       21 0.34912125E-01 0.44879047E+03</pdfrwt>
<pdfrwt beam="2">  1       21 0.41641560E-01 0.44879047E+03</pdfrwt>
<totfact> 0.40288664E+04</totfact>
</mgrwt>
</event>
<event>
 5    0  0.2720079E+000  0.5681176E+03  0.7546771E-02  0.9973853E-01
         21   -1    0    0  504  501  0.00000000000E+00  0.00000000000E+00  0.10166418886E+04  0.10166418886E+04  0.00000000000E+00 0.  1.
         21   -1    0    0  503  502 -0.00000000000E+00 -0.00000000000E+00 -0.15184664276E+03  0.15184664276E+03  0.00000000000E+00 0.  1.
         25    1    1    2    0    0  0.63877756463E+01  0.21227062733E+03  0.38671106533E+03  0.45855214639E+03  0.12500000000E+03 0.  0.
         21    1    1    2  503  501 -0.46847473342E+02 -0.22203653577E+03 -0.31092949243E+01  0.22694619779E+03  0.00000000000E+00 0.  1.
         21    1    1    2  504  502  0.40459697695E+02  0.97659084393E+01  0.48119347546E+03  0.48299018720E+03  0.00000000000E+00 0.  1.
<mgrwt>
<rscale>  4 0.56811765E+03</rscale>
<asrwt>0</asrwt>
<pdfrwt beam="1">  1       21 0.15640644E+00 0.56811765E+03</pdfrwt>
<pdfrwt beam="2">  1       21 0.23361023E-01 0.56811765E+03</pdfrwt>
<totfact> 0.38436697E+03</totfact>
</mgrwt>
</event>
<event>
 5    0  0.2720079E+000  0.5381051E+03  0.7546771E-02  0.1004285E+00
         21   -1    0    0  503  501  0.00000000000E+00  0.00000000000E+00  0.21047234742E+04  0.21047234742E+04  0.00000000000E+00 0.  1.
         21   -1    0    0  504  502 -0.00000000000E+00 -0.00000000000E+00 -0.98455554147E+02  0.98455554147E+02  0.00000000000E+00 0.  1.
         25    1    1    2    0    0 -0.23314465136E+03 -0.62813614265E+02  0.52396283091E+03  0.59030841665E+03  0.12500000000E+03 0.  0.
         21    1    1    2  503  502  0.20872923369E+03  0.55581436370E+02  0.11383391817E+03  0.24416254830E+03  0.00000000000E+00 0.  1.
         21    1    1    2  504  501  0.24415417670E+02  0.72321778950E+01  0.13684711710E+04  0.13687080634E+04  0.00000000000E+00 0.  1.
<mgrwt>
<rscale>  4 0.53810510E+03</rscale>
<asrwt>0</asrwt>
<pdfrwt beam="1">  1       21 0.32380358E+00 0.53810510E+03</pdfrwt>
<pdfrwt beam="2">  1       21 0.15147010E-01 0.53810510E+03</pdfrwt>
<totfact> 0.73054681E+02</totfact>
</mgrwt>
</event>
<event>
 5    0  0.2720079E+000  0.4398729E+03  0.7546771E-02  0.1030786E+00
         21   -1    0    0  503  501  0.00000000000E+00  0.00000000000E+00  0.36637539181E+03  0.36637539181E+03  0.00000000000E+00 0. -1.
         21   -1    0    0  504  502 -0.00000000000E+00 -0.00000000000E+00 -0.15209090884E+03  0.15209090884E+03  0.00000000000E+00 0. -1.
         25    1    1    2    0    0  0.14916905270E+02  0.20528573667E+03  0.17845541869E+03  0.29972668250E+03  0.12500000000E+03 0.  0.
         21    1    1    2  503  502 -0.19433613948E+02 -0.25091619610E+02  0.20621765117E+02  0.37848539236E+02  0.00000000000E+00 0.  1.
         21    1    1    2  504  501  0.45167086778E+01 -0.18019411706E+03  0.15207299170E+02  0.18089107891E+03  0.00000000000E+00 0. -1.
<mgrwt>
<rscale>  4 0.43987292E+03</rscale>
<asrwt>0</asrwt>
<pdfrwt beam="1">  1       21 0.56365445E-01 0.43987292E+03</pdfrwt>
<pdfrwt beam="2">  1       21 0.23398601E-01 0.43987292E+03</pdfrwt>
<totfact> 0.46880917E+04</totfact>
</mgrwt>
</event>
<event>
 5    0  0.2720079E+000  0.4523155E+03  0.7546771E-02  0.1027034E+00
         21   -1    0    0  502  501  0.00000000000E+00  0.00000000000E+00  0.34709735052E+03  0.34709735052E+03  0.00000000000E+00 0.  1.
         21   -1    0    0  503  502 -0.00000000000E+00 -0.00000000000E+00 -0.49667732139E+03  0.49667732139E+03  0.00000000000E+00 0. -1.
         25    1    1    2    0    0 -0.18837514256E+02 -0.27608460502E+03 -0.30900988885E+03  0.43323166145E+03  0.12500000000E+03 0.  0.
         21    1    1    2  503  504  0.96290201290E+02  0.84304628400E+02 -0.28466810890E+02  0.13110847629E+03  0.00000000000E+00 0.  1.
         21    1    1    2  504  501 -0.77452687034E+02  0.19177997662E+03  0.18789672887E+03  0.27943453416E+03  0.00000000000E+00 0.  1.
<mgrwt>
<rscale>  4 0.45231545E+03</rscale>
<asrwt>0</asrwt>
<pdfrwt beam="1">  1       21 0.53399592E-01 0.45231545E+03</pdfrwt>
<pdfrwt beam="2">  1       21 0.76411896E-01 0.45231545E+03</pdfrwt>
<totfact> 0.44404042E+03</totfact>
</mgrwt>
</event>
<event>
 5    0  0.2720079E+000  0.5472735E+03  0.7546771E-02  0.1002127E+00
         21   -1    0    0  503  501  0.00000000000E+00  0.00000000000E+00  0.12373416463E+04  0.12373416463E+04  0.00000000000E+00 0. -1.
         21   -1    0    0  504  502 -0.00000000000E+00 -0.00000000000E+00 -0.34622301704E+03  0.34622301704E+03  0.00000000000E+00 0. -1.
         25    1    1    2    0    0 -0.63481641285E+01  0.26314790352E+03 -0.14033522266E+02  0.29173456782E+03  0.12500000000E+03 0.  0.
         21    1    1    2  503  502  0.20597711623E+03  0.15164744873E+03 -0.21963263343E+02  0.25672145616E+03  0.00000000000E+00 0. -1.
         21    1    1    2  504  501 -0.19962895210E+03 -0.41479535226E+03  0.92711541488E+03  0.10351086394E+04  0.00000000000E+00 0. -1.
<mgrwt>
<rscale>  4 0.54727346E+03</rscale>
<asrwt>0</asrwt>
<pdfrwt beam="1">  1       21 0.19036025E+00 0.54727346E+03</pdfrwt>
<pdfrwt beam="2">  1       21 0.53265080E-01 0.54727346E+03</pdfrwt>
<totfact> 0.40800595E+02</totfact>
</mgrwt>
</event>
<event>
 5    0  0.2720079E+000  0.4871808E+03  0.7546771E-02  0.1017180E+00
         21   -1    0    0  503  501  0.00000000000E+00  0.00000000000E+00  0.11313392983E+04  0.11313392983E+04  0.00000000000E+00 0.  1.
         21   -1    0    0  504  502 -0.00000000000E+00 -0.00000000000E+00 -0.13400261352E+03  0.13400261352E+03  0.00000000000E+00 0.  1.
         25    1    1    2    0    0  0.19758552630E+03  0.12140834709E+03  0.95872134098E+02  0.28035066086E+03  0.12500000000E+03 0.  0.
         21    1    1    2  503  502 -0.18238095736E+03 -0.95551058134E+02  0.21433588569E+03  0.29720815973E+03  0.00000000000E+00 0.  1.
         21    1    1    2  504  501 -0.15204568950E+02 -0.25857288961E+02  0.68712866498E+03  0.68778309120E+03  0.00000000000E+00 0.  1.
<mgrwt>
<rscale>  4 0.48718084E+03</rscale>
<asrwt>0</asrwt>
<pdfrwt beam="1">  1       21 0.17405219E+00 0.48718084E+03</pdfrwt>
<pdfrwt beam="2">  1       21 0.20615787E-01 0.48718084E+03</pdfrwt>
<totfact> 0.37062421E+03</totfact>
</mgrwt>
</event>
<event>
 5    0  0.2720079E+000  0.4037276E+03  0.7546771E-02  0.1042497E+00
         21   -1    0    0  502  501  0.00000000000E+00  0.00000000000E+00  0.98761485118E+02  0.98761485118E+02  0.00000000000E+00 0.  1.
         21   -1    0    0  503  502 -0.00000000000E+00 -0.00000000000E+00 -0.20283179438E+04  0.20283179438E+04  0.00000000000E+00 0. -1.
         25    1    1    2    0    0 -0.21327256764E+03 -0.36485725117E+02 -0.12633591903E+04  0.12878345546E+04  0.12500000000E+03 0.  0.
         21    1    1    2  503  504  0.15199865874E+03  0.22695228390E+02 -0.73218834484E+03  0.74814332715E+03  0.00000000000E+00 0. -1.
         21    1    1    2  504  501  0.61273908900E+02  0.13790496727E+02  0.65991076509E+02  0.91101547136E+02  0.00000000000E+00 0.  1.
<mgrwt>
<rscale>  4 0.40372759E+03</rscale>
<asrwt>0</asrwt>
<pdfrwt beam="1">  1       21 0.15194075E-01 0.40372759E+03</pdfrwt>
<pdfrwt beam="2">  1       21 0.31204891E+00 0.40372759E+03</pdfrwt>
<totfact> 0.91926130E+02</totfact>
</mgrwt>
</event>
<event>
 5    0  0.2720079E+000  0.4685945E+03  0.7546771E-02  0.1022318E+00
         21   -1    0    0  502  501  0.00000000000E+00  0.00000000000E+00  0.13590440109E+03  0.13590440109E+03  0.00000000000E+00 0. -1.
         21   -1    0    0  504  502 -0.00000000000E+00 -0.00000000000E+00 -0.49549202674E+03  0.49549202674E+03  0.00000000000E+00 0.  1.
         25    1    1    2    0    0 -0.19705837535E+03  0.46471895909E+02 -0.15218409884E+03  0.28244758866E+03  0.12500000000E+03 0.  0.
         21    1    1    2  503  501 -0.28137693729E+02 -0.17446561611E+02  0.10007589760E+02  0.34587052104E+02  0.00000000000E+00 0. -1.
         21    1    1    2  504  503  0.22519606908E+03 -0.29025334298E+02 -0.21741111657E+03  0.31436178706E+03  0.00000000000E+00 0.  1.
<mgrwt>
<rscale>  4 0.46859450E+03</rscale>
<asrwt>0</asrwt>
<pdfrwt beam="1">  1       21 0.20908370E-01 0.46859450E+03</pdfrwt>
<pdfrwt beam="2">  1       21 0.76229540E-01 0.46859450E+03</pdfrwt>
<totfact> 0.29518169E+04</totfact>
</mgrwt>
</event>
<event>
 5    0  0.2720079E+000  0.7907304E+03  0.7546771E-02  0.9573532E-01
         21   -1    0    0  503  501  0.00000000000E+00  0.00000000000E+00  0.39603661969E+03  0.39603661969E+03  0.00000000000E+00 0.  1.
         21   -1    0    0  504  502 -0.00000000000E+00 -0.00000000000E+00 -0.85718717101E+03  0.85718717101E+03  0.00000000000E+00 0. -1.
         25    1    1    2    0    0  0.25409777957E+03 -0.26358892138E+03 -0.33297657438E+03  0.51043432500E+03  0.12500000000E+03 0.  0.
         21    1    1    2  503  502 -0.24297560255E+03  0.32253864973E+03 -0.33672174048E+03  0.52578498886E+03  0.00000000000E+00 0. -1.
         21    1    1    2  504  501 -0.11122177020E+02 -0.58949728354E+02  0.20854776353E+03  0.21700447684E+03  0.00000000000E+00 0.  1.
<mgrwt>
<rscale>  4 0.79073044E+03</rscale>
<asrwt>0</asrwt>
<pdfrwt beam="1">  1       21 0.60928712E-01 0.79073044E+03</pdfrwt>
<pdfrwt beam="2">  1       21 0.13187495E+00 0.79073044E+03</pdfrwt>
<totfact> 0.79420934E+02</totfact>
</mgrwt>
</event>
<event>
 5    0  0.2720079E+000  0.3907199E+03  0.7546771E-02  0.1047041E+00
         21   -1    0    0  502  501  0.00000000000E+00  0.00000000000E+00  0.30366079394E+03  0.30366079394E+03  0.00000000000E+00 0. -1.
         21   -1    0    0  504  502 -0.00000000000E+00 -0.00000000000E+00 -0.11335507353E+04  0.11335507353E+04  0.00000000000E+00 0.  1.
         25    1    1    2    0    0  0.20847995497E+03  0.18998686484E+02 -0.96643053626E+03  0.99671351106E+03  0.12500000000E+03 0.  0.
         21    1    1    2  503  501 -0.10559578410E+03 -0.99346124282E+01  0.25925089742E+03  0.28010746859E+03  0.00000000000E+00 0. -1.
         21    1    1    2  504  503 -0.10288417087E+03 -0.90640740563E+01 -0.12271030249E+03  0.16039054957E+03  0.00000000000E+00 0. -1.
<mgrwt>
<rscale>  4 0.39071990E+03</rscale>
<asrwt>0</asrwt>
<pdfrwt beam="1">  1       21 0.46717046E-01 0.39071990E+03</pdfrwt>
<pdfrwt beam="2">  1       21 0.17439242E+00 0.39071990E+03</pdfrwt>
<totfact> 0.74997423E+02</totfact>
</mgrwt>
</event>
<event>
 5    0  0.2720079E+000  0.3825831E+03  0.7546771E-02  0.1049983E+00
         21   -1    0    0  503  501  0.00000000000E+00  0.00000000000E+00  0.54567984235E+03  0.54567984235E+03  0.00000000000E+00 0. -1.
         21   -1    0    0  504  502 -0.00000000000E+00 -0.00000000000E+00 -0.35249332410E+03  0.35249332410E+03  0.00000000000E+00 0. -1.
         25    1    1    2    0    0  0.19626772258E+03 -0.74907524195E+02 -0.25609409330E+03  0.35403579018E+03  0.12500000000E+03 0.  0.
         21    1    1    2  503  502 -0.10221170394E+03  0.73083572616E+02  0.43016522980E+03  0.44814123437E+03  0.00000000000E+00 0. -1.
         21    1    1    2  504  501 -0.94056018631E+02  0.18239515790E+01  0.19115381754E+02  0.95996141900E+02  0.00000000000E+00 0.  1.
<mgrwt>
<rscale>  4 0.38258310E+03</rscale>
<asrwt>0</asrwt>
<pdfrwt beam="1">  1       21 0.83950745E-01 0.38258310E+03</pdfrwt>
<pdfrwt beam="2">  1       21 0.54229742E-01 0.38258310E+03</pdfrwt>
<totfact> 0.35480213E+03</totfact>
</mgrwt>
</event>
<event>
 5    0  0.2720079E+000  0.7456154E+03  0.7546771E-02  0.9642254E-01
         21   -1    0    0  503  501  0.00000000000E+00  0.00000000000E+00  0.60469335303E+03  0.60469335303E+03  0.00000000000E+00 0. -1.
         21   -1    0    0  504  502 -0.00000000000E+00 -0.00000000000E+00 -0.29079184895E+03  0.29079184895E+03  0.00000000000E+00 0.  1.
         25    1    1    2    0    0  0.26825821353E+03 -0.22653325665E+03  0.10002521214E+03  0.38588836282E+03  0.12500000000E+03 0.  0.
         21    1    1    2  503  502  0.21045095424E+02 -0.86716412558E+01  0.12399299716E+03  0.12606489102E+03  0.00000000000E+00 0. -1.
         21    1    1    2  504  501 -0.28930330895E+03  0.23520489791E+03  0.89883294782E+02  0.38353194815E+03  0.00000000000E+00 0. -1.
<mgrwt>
<rscale>  4 0.74561543E+03</rscale>
<asrwt>0</asrwt>
<pdfrwt beam="1">  1       21 0.93029747E-01 0.74561543E+03</pdfrwt>
<pdfrwt beam="2">  1       21 0.44737208E-01 0.74561543E+03</pdfrwt>
<totfact> 0.37831233E+03</totfact>
</mgrwt>
</event>
<event>
 5    0  0.2720079E+000  0.5785251E+03  0.7546771E-02  0.9950989E-01
         21   -1    0    0  502  501  0.00000000000E+00  0.00000000000E+00  0.24088018309E+03  0.24088018309E+03  0.00000000000E+00 0. -1.
         21   -1    0    0  503  502 -0.00000000000E+00 -0.00000000000E+00 -0.50446958300E+03  0.50446958300E+03  0.00000000000E+00 0. -1.
         25    1    1    2    0    0 -0.24703960881E+03  0.51623135758E+02 -0.23253139408E+03  0.36522508909E+03  0.12500000000E+03 0.  0.
         21    1    1    2  503  504  0.28063579313E+03 -0.50811592816E+02 -0.10097848744E+03  0.30254738683E+03  0.00000000000E+00 0. -1.
         21    1    1    2  504  501 -0.33596184319E+02 -0.81154294155E+00  0.69920481607E+02  0.77577290175E+02  0.00000000000E+00 0. -1.
<mgrwt>
<rscale>  4 0.57852505E+03</rscale>
<asrwt>0</asrwt>
<pdfrwt beam="1">  1       21 0.37058490E-01 0.57852505E+03</pdfrwt>
<pdfrwt beam="2">  1       21 0.77610703E-01 0.57852505E+03</pdfrwt>
<totfact> 0.89026780E+03</totfact>
</mgrwt>
</event>
<event>
 5    0  0.2720079E+000  0.5562481E+03  0.7546771E-02  0.1000058E+00
         21   -1    0    0  504  501  0.00000000000E+00  0.00000000000E+00  0.25067279909E+03  0.25067279909E+03  0.00000000000E+00 0.  1.
         21   -1    0    0  501  502 -0.00000000000E+00 -0.00000000000E+00 -0.16077211450E+04  0.16077211450E+04  0.00000000000E+00 0. -1.
         25    1    1    2    0    0  0.19947208966E+03  0.22755705809E+02 -0.52801712757E+03  0.57856203099E+03  0.12500000000E+03 0.  0.
         21    1    1    2  503  502 -0.28891096552E+03  0.11842678744E+03 -0.99587568230E+03  0.10436775482E+04  0.00000000000E+00 0. -1.
         21    1    1    2  504  503  0.89438875862E+02 -0.14118249325E+03  0.16684446395E+03  0.23615436491E+03  0.00000000000E+00 0.  1.
<mgrwt>
<rscale>  4 0.55624811E+03</rscale>
<asrwt>0</asrwt>
<pdfrwt beam="1">  1       21 0.38565045E-01 0.55624811E+03</pdfrwt>
<pdfrwt beam="2">  1       21 0.24734172E+00 0.55624811E+03</pdfrwt>
<totfact> 0.34231238E+02</totfact>
</mgrwt>
</event>
<event>
 5    0  0.2720079E+000  0.5559070E+03  0.7546771E-02  0.1000136E+00
         21   -1    0    0  503  501  0.00000000000E+00  0.00000000000E+00  0.74355860838E+02  0.74355860838E+02  0.00000000000E+00 0. -1.
         21   -1    0    0  504  502 -0.00000000000E+00 -0.00000000000E+00 -0.14427436060E+04  0.14427436060E+04  0.00000000000E+00 0. -1.
         25    1    1    2    0    0 -0.28556444361E+02 -0.23784499382E+03 -0.11095631337E+04  0.11419899559E+04  0.12500000000E+03 0.  0.
         21    1    1    2  503  502  0.50849085388E+01  0.23182685100E+02  0.13698418706E+02  0.27403281890E+02  0.00000000000E+00 0. -1.
         21    1    1    2  504  501  0.23471535822E+02  0.21466230872E+03 -0.27252303014E+03  0.34770622907E+03  0.00000000000E+00 0. -1.
<mgrwt>
<rscale>  4 0.55590697E+03</rscale>
<asrwt>0</asrwt>
<pdfrwt beam="1">  1       21 0.11439363E-01 0.55590697E+03</pdfrwt>
<pdfrwt beam="2">  1       21 0.22196056E+00 0.55590697E+03</pdfrwt>
<totfact> 0.51508808E+03</totfact>
</mgrwt>
</event>
<event>
 5    0  0.2720079E+000  0.6628634E+03  0.7546771E-02  0.9782937E-01
         21   -1    0    0  502  501  0.00000000000E+00  0.00000000000E+00  0.13731180925E+03  0.13731180925E+03  0.00000000000E+00 0.  1.
         21   -1    0    0  504  502 -0.00000000000E+00 -0.00000000000E+00 -0.17497313361E+04  0.17497313361E+04  0.00000000000E+00 0. -1.
         25    1    1    2    0    0  0.38448669898E+02 -0.22174223355E+03 -0.15562052266E+04  0.15773546290E+04  0.12500000000E+03 0.  0.
         21    1    1    2  503  501 -0.32003910684E+02  0.29396246300E+02  0.67950052718E+02  0.80657295144E+02  0.00000000000E+00 0.  1.
         21    1    1    2  504  503 -0.64447592144E+01  0.19234598725E+03 -0.12416435298E+03  0.22903122120E+03  0.00000000000E+00 0.  1.
<mgrwt>
<rscale>  4 0.66286342E+03</rscale>
<asrwt>0</asrwt>
<pdfrwt beam="1">  1       21 0.21124896E-01 0.66286342E+03</pdfrwt>
<pdfrwt beam="2">  1       21 0.26918940E+00 0.66286342E+03</pdfrwt>
<totfact> 0.79712382E+02</totfact>
</mgrwt>
</event>
<event>
 5    0  0.2720079E+000  0.4469153E+03  0.7546771E-02  0.1028646E+00
         21   -1    0    0  502  501  0.00000000000E+00  0.00000000000E+00  0.10037056527E+04  0.10037056527E+04  0.00000000000E+00 0.  1.
         21   -1    0    0  503  502 -0.00000000000E+00 -0.00000000000E+00 -0.10488361823E+03  0.10488361823E+03  0.00000000000E+00 0.  1.
         25    1    1    2    0    0  0.12705122241E+03  0.15680445431E+03  0.92919172374E+02  0.25492866179E+03  0.12500000000E+03 0.  0.
         21    1    1    2  503  504 -0.11201831017E+03 -0.12599467848E+03  0.28139335399E+03  0.32803198089E+03  0.00000000000E+00 0.  1.
         21    1    1    2  504  501 -0.15032912247E+02 -0.30809775829E+02  0.52450950810E+03  0.52562862824E+03  0.00000000000E+00 0.  1.
<mgrwt>
<rscale>  4 0.44691525E+03</rscale>
<asrwt>0</asrwt>
<pdfrwt beam="1">  1       21 0.15441625E+00 0.44691525E+03</pdfrwt>
<pdfrwt beam="2">  1       21 0.16135942E-01 0.44691525E+03</pdfrwt>
<totfact> 0.83602876E+03</totfact>
</mgrwt>
</event>
<event>
 5    0  0.2720079E+000  0.4766362E+03  0.7546771E-02  0.1020064E+00
         21   -1    0    0  502  501  0.00000000000E+00  0.00000000000E+00  0.33145526150E+03  0.33145526150E+03  0.00000000000E+00 0.  1.
         21   -1    0    0  504  502 -0.00000000000E+00 -0.00000000000E+00 -0.46222475193E+03  0.46222475193E+03  0.00000000000E+00 0.  1.
         25    1    1    2    0    0  0.24076287500E+03  0.23641639618E+03 -0.10567683327E+03  0.37503608820E+03  0.12500000000E+03 0.  0.
         21    1    1    2  503  501 -0.21216727904E+03 -0.14234301090E+03  0.86664499276E+02  0.26979107191E+03  0.00000000000E+00 0.  1.
         21    1    1    2  504  503 -0.28595595954E+02 -0.94073385283E+02 -0.11175715644E+03  0.14885285332E+03  0.00000000000E+00 0. -1.
<mgrwt>
<rscale>  4 0.47663622E+03</rscale>
<asrwt>0</asrwt>
<pdfrwt beam="1">  1       21 0.50993117E-01 0.47663622E+03</pdfrwt>
<pdfrwt beam="2">  1       21 0.71111501E-01 0.47663622E+03</pdfrwt>
<totfact> 0.57280919E+03</totfact>
</mgrwt>
</event>
<event>
 5    0  0.2720079E+000  0.6449626E+03  0.7546771E-02  0.9816278E-01
         21   -1    0    0  503  501  0.00000000000E+00  0.00000000000E+00  0.11872237328E+04  0.11872237328E+04  0.00000000000E+00 0.  1.
         21   -1    0    0  504  502 -0.00000000000E+00 -0.00000000000E+00 -0.26342146016E+03  0.26342146016E+03  0.00000000000E+00 0.  1.
         25    1    1    2    0    0 -0.25680913750E+03  0.13614828926E+03  0.11588799393E+03  0.33696040852E+03  0.12500000000E+03 0.  0.
         21    1    1    2  503  502  0.27591666696E+03 -0.16405931170E+03  0.16376290416E+02  0.32142440441E+03  0.00000000000E+00 0.  1.
         21    1    1    2  504  501 -0.19107529453E+02  0.27911022438E+02  0.79153798832E+03  0.79226038005E+03  0.00000000000E+00 0.  1.
<mgrwt>
<rscale>  4 0.64496257E+03</rscale>
<asrwt>0</asrwt>
<pdfrwt beam="1">  1       21 0.18264980E+00 0.64496257E+03</pdfrwt>
<pdfrwt beam="2">  1       21 0.40526379E-01 0.64496257E+03</pdfrwt>
<totfact> 0.79603171E+02</totfact>
</mgrwt>
</event>
<event>
 5    0  0.2720079E+000  0.3552215E+03  0.7546771E-02  0.1060492E+00
         21   -1    0    0  503  501  0.00000000000E+00  0.00000000000E+00  0.19412821436E+04  0.19412821436E+04  0.00000000000E+00 0.  1.
         21   -1    0    0  504  502 -0.00000000000E+00 -0.00000000000E+00 -0.36468964131E+02  0.36468964131E+02  0.00000000000E+00 0.  1.
         25    1    1    2    0    0  0.10755364550E+03 -0.17552863067E+03  0.73633801316E+03  0.77472366459E+03  0.12500000000E+03 0.  0.
         21    1    1    2  503  502 -0.10856094043E+03  0.28542488219E+02  0.26683137180E+03  0.28948079798E+03  0.00000000000E+00 0.  1.
         21    1    1    2  504  501  0.10072949298E+01  0.14698614245E+03  0.90164379446E+03  0.91354664512E+03  0.00000000000E+00 0.  1.
<mgrwt>
<rscale>  4 0.35522151E+03</rscale>
<asrwt>0</asrwt>
<pdfrwt beam="1">  1       21 0.29865871E+00 0.35522151E+03</pdfrwt>
<pdfrwt beam="2">  1       21 0.56106114E-02 0.35522151E+03</pdfrwt>
<totfact> 0.67409434E+03</totfact>
</mgrwt>
</event>
<event>
 5    0  0.2720079E+000  0.8268731E+03  0.7546771E-02  0.9521914E-01
         21   -1    0    0  502  501  0.00000000000E+00  0.00000000000E+00  0.30879560574E+03  0.30879560574E+03  0.00000000000E+00 0. -1.
         21   -1    0    0  504  502 -0.00000000000E+00 -0.00000000000E+00 -0.83088409849E+03  0.83088409849E+03  0.00000000000E+00 0.  1.
         25    1    1    2    0    0  0.36931356471E+02 -0.43544295575E+03 -0.43167712310E+03  0.62685295836E+03  0.12500000000E+03 0.  0.
         21    1    1    2  503  501 -0.35389424659E+02  0.78043921655E+02  0.79680655530E+02  0.11701398186E+03  0.00000000000E+00 0. -1.
         21    1    1    2  504  503 -0.15419318119E+01  0.35739903409E+03 -0.17009202518E+03  0.39581276401E+03  0.00000000000E+00 0. -1.
<mgrwt>
<rscale>  4 0.82687307E+03</rscale>
<asrwt>0</asrwt>
<pdfrwt beam="1">  1       21 0.47507017E-01 0.82687307E+03</pdfrwt>
<pdfrwt beam="2">  1       21 0.12782832E+00 0.82687307E+03</pdfrwt>
<totfact> 0.14712023E+03</totfact>
</mgrwt>
</event>
<event>
 5    0  0.2720079E+000  0.5353697E+03  0.7546771E-02  0.1004938E+00
         21   -1    0    0  502  501  0.00000000000E+00  0.00000000000E+00  0.92989347994E+03  0.92989347994E+03  0.00000000000E+00 0. -1.
         21   -1    0    0  504  502 -0.00000000000E+00 -0.00000000000E+00 -0.17684262274E+03  0.17684262274E+03  0.00000000000E+00 0. -1.
         25    1    1    2    0    0  0.26490237096E+03  0.24780265411E+01  0.22877084168E+03  0.37167257736E+03  0.12500000000E+03 0.  0.
         21    1    1    2  503  501 -0.52934982152E+02 -0.11591750618E+02  0.52004229584E+03  0.52285798309E+03  0.00000000000E+00 0. -1.
         21    1    1    2  504  503 -0.21196738881E+03  0.91137240771E+01  0.42377196761E+01  0.21220554223E+03  0.00000000000E+00 0. -1.
<mgrwt>
<rscale>  4 0.53536966E+03</rscale>
<asrwt>0</asrwt>
<pdfrwt beam="1">  1       21 0.14306053E+00 0.53536966E+03</pdfrwt>
<pdfrwt beam="2">  1       21 0.27206558E-01 0.53536966E+03</pdfrwt>
<totfact> 0.36760827E+03</totfact>
</mgrwt>
</event>
<event>
 5    0  0.2720079E+000  0.4910682E+03  0.7546771E-02  0.1016137E+00
         21   -1    0    0  503  501  0.00000000000E+00  0.00000000000E+00  0.11122046809E+03  0.11122046809E+03  0.00000000000E+00 0.  1.
         21   -1    0    0  504  502 -0.00000000000E+00 -0.00000000000E+00 -0.69016202182E+03  0.69016202182E+03  0.00000000000E+00 0.  1.
         25    1    1    2    0    0 -0.20431435756E+03 -0.79914844766E+02 -0.26495334944E+03  0.36600002254E+03  0.12500000000E+03 0.  0.
         21    1    1    2  503  502  0.20656112597E+03  0.11425149411E+03 -0.32276313687E+03  0.39987116074E+03  0.00000000000E+00 0.  1.
         21    1    1    2  504  501 -0.22467684077E+01 -0.34336649348E+02  0.87749325789E+01  0.35511306629E+02  0.00000000000E+00 0. -1.
<mgrwt>
<rscale>  4 0.49106822E+03</rscale>
<asrwt>0</asrwt>
<pdfrwt beam="1">  1       21 0.17110841E-01 0.49106822E+03</pdfrwt>
<pdfrwt beam="2">  1       21 0.10617877E+00 0.49106822E+03</pdfrwt>
<totfact> 0.19535549E+04</totfact>
</mgrwt>
</event>
<event>
 5    0  0.2720079E+000  0.6137401E+03  0.7546771E-02  0.9877303E-01
         21   -1    0    0  503  501  0.00000000000E+00  0.00000000000E+00  0.94031126165E+03  0.94031126165E+03  0.00000000000E+00 0.  1.
         21   -1    0    0  504  502 -0.00000000000E+00 -0.00000000000E+00 -0.46291804089E+03  0.46291804089E+03  0.00000000000E+00 0. -1.
         25    1    1    2    0    0 -0.70314901364E+02 -0.22804770570E+03  0.88575785710E+02  0.28358528037E+03  0.12500000000E+03 0.  0.
         21    1    1    2  503  502  0.57601620225E+02  0.15225594423E+03 -0.34517705918E+03  0.38163729036E+03  0.00000000000E+00 0. -1.
         21    1    1    2  504  501  0.12713281140E+02  0.75791761467E+02  0.73399449423E+03  0.73800673180E+03  0.00000000000E+00 0.  1.
<mgrwt>
<rscale>  4 0.61374005E+03</rscale>
<asrwt>0</asrwt>
<pdfrwt beam="1">  1       21 0.14466327E+00 0.61374005E+03</pdfrwt>
<pdfrwt beam="2">  1       21 0.71218160E-01 0.61374005E+03</pdfrwt>
<totfact> 0.45818359E+02</totfact>
</mgrwt>
</event>
<event>
 5    0  0.2720079E+000  0.3933562E+03  0.7546771E-02  0.1046105E+00
         21   -1    0    0  503  501  0.00000000000E+00  0.00000000000E+00  0.74543021270E+02  0.74543021270E+02  0.00000000000E+00 0. -1.
         21   -1    0    0  504  502 -0.00000000000E+00 -0.00000000000E+00 -0.79863405365E+03  0.79863405365E+03  0.00000000000E+00 0. -1.
         25    1    1    2    0    0  0.18311627739E+03 -0.81730004248E+02 -0.26711994509E+03  0.35663627087E+03  0.12500000000E+03 0.  0.
         21    1    1    2  503  502 -0.83582715871E+02 -0.31550722313E+02 -0.18908621947E+03  0.20912942611E+03  0.00000000000E+00 0.  1.
         21    1    1    2  504  501 -0.99533561515E+02  0.11328072656E+03 -0.26788486782E+03  0.30741137794E+03  0.00000000000E+00 0. -1.
<mgrwt>
<rscale>  4 0.39335624E+03</rscale>
<asrwt>0</asrwt>
<pdfrwt beam="1">  1       21 0.11468157E-01 0.39335624E+03</pdfrwt>
<pdfrwt beam="2">  1       21 0.12286678E+00 0.39335624E+03</pdfrwt>
<totfact> 0.29119378E+04</totfact>
</mgrwt>
</event>
<event>
 5    0  0.2720079E+000  0.9148866E+03  0.7546771E-02  0.9407161E-01
         21   -1    0    0  504  501  0.00000000000E+00  0.00000000000E+00  0.29955097565E+03  0.29955097565E+03  0.00000000000E+00 0. -1.
         21   -1    0    0  501  502 -0.00000000000E+00 -0.00000000000E+00 -0.19398073995E+04  0.19398073995E+04  0.00000000000E+00 0.  1.
         25    1    1    2    0    0  0.75719802110E+02  0.34275558252E+03 -0.32555844561E+03  0.49480115126E+03  0.12500000000E+03 0.  0.
         21    1    1    2  503  502 -0.11088216155E+03 -0.36122610425E+03 -0.15042017493E+04  0.15509358642E+04  0.00000000000E+00 0.  1.
         21    1    1    2  504  503  0.35162359444E+02  0.18470521735E+02  0.18950377106E+03  0.19362135973E+03  0.00000000000E+00 0. -1.
<mgrwt>
<rscale>  4 0.91488664E+03</rscale>
<asrwt>0</asrwt>
<pdfrwt beam="1">  1       21 0.46084765E-01 0.91488664E+03</pdfrwt>
<pdfrwt beam="2">  1       21 0.29843191E+00 0.91488664E+03</pdfrwt>
<totfact> 0.10038107E+02</totfact>
</mgrwt>
</event>
<event>
 5    0  0.2720079E+000  0.5494914E+03  0.7546771E-02  0.1001612E+00
         21   -1    0    0  504  501  0.00000000000E+00  0.00000000000E+00  0.22047057618E+03  0.22047057618E+03  0.00000000000E+00 0. -1.
         21   -1    0    0  501  502 -0.00000000000E+00 -0.00000000000E+00 -0.16018516740E+04  0.16018516740E+04  0.00000000000E+00 0.  1.
         25    1    1    2    0    0  0.94896323261E+02  0.26319460489E+03 -0.13667682039E+04  0.14006987669E+04  0.12500000000E+03 0.  0.
         21    1    1    2  503  502  0.18559145508E+01 -0.15240592088E+03 -0.15564596241E+03  0.21784552956E+03  0.00000000000E+00 0. -1.
         21    1    1    2  504  503 -0.96752237812E+02 -0.11078868401E+03  0.14103306851E+03  0.20377795377E+03  0.00000000000E+00 0. -1.
<mgrwt>
<rscale>  4 0.54949135E+03</rscale>
<asrwt>0</asrwt>
<pdfrwt beam="1">  1       21 0.33918550E-01 0.54949135E+03</pdfrwt>
<pdfrwt beam="2">  1       21 0.24643872E+00 0.54949135E+03</pdfrwt>
<totfact> 0.45195315E+02</totfact>
</mgrwt>
</event>
<event>
 5    0  0.2720079E+000  0.3826858E+03  0.7546771E-02  0.1049946E+00
         21   -1    0    0  503  501  0.00000000000E+00  0.00000000000E+00  0.21813880268E+03  0.21813880268E+03  0.00000000000E+00 0.  1.
         21   -1    0    0  504  502 -0.00000000000E+00 -0.00000000000E+00 -0.26727956755E+03  0.26727956755E+03  0.00000000000E+00 0. -1.
         25    1    1    2    0    0 -0.36933004335E+02 -0.20296901737E+03 -0.58721240365E+02  0.24826125934E+03  0.12500000000E+03 0.  0.
         21    1    1    2  503  502 -0.27528186780E+02  0.13811932954E+03 -0.17191733501E+02  0.14188130941E+03  0.00000000000E+00 0. -1.
         21    1    1    2  504  501  0.64461191115E+02  0.64849687828E+02  0.26772208999E+02  0.95275801472E+02  0.00000000000E+00 0.  1.
<mgrwt>
<rscale>  4 0.38268583E+03</rscale>
<asrwt>0</asrwt>
<pdfrwt beam="1">  1       21 0.33559816E-01 0.38268583E+03</pdfrwt>
<pdfrwt beam="2">  1       21 0.41119934E-01 0.38268583E+03</pdfrwt>
<totfact> 0.45502201E+04</totfact>
</mgrwt>
</event>
<event>
 5    0  0.2720079E+000  0.4260217E+03  0.7546771E-02  0.1035124E+00
         21   -1    0    0  503  501  0.00000000000E+00  0.00000000000E+00  0.27899323392E+03  0.27899323392E+03  0.00000000000E+00 0.  1.
         21   -1    0    0  504  502 -0.00000000000E+00 -0.00000000000E+00 -0.11320653331E+04  0.11320653331E+04  0.00000000000E+00 0. -1.
         25    1    1    2    0    0 -0.89038928776E+02 -0.18172546243E+03 -0.95375294942E+03  0.98296579953E+03  0.12500000000E+03 0.  0.
         21    1    1    2  503  502  0.10113906817E+03  0.57665109245E+02  0.22418950390E+03  0.25261692262E+03  0.00000000000E+00 0.  1.
         21    1    1    2  504  501 -0.12100139393E+02  0.12406035318E+03 -0.12350865366E+03  0.17547584487E+03  0.00000000000E+00 0.  1.
<mgrwt>
<rscale>  4 0.42602169E+03</rscale>
<asrwt>0</asrwt>
<pdfrwt beam="1">  1       21 0.42922035E-01 0.42602169E+03</pdfrwt>
<pdfrwt beam="2">  1       21 0.17416390E+00 0.42602169E+03</pdfrwt>
<totfact> 0.88268934E+02</totfact>
</mgrwt>
</event>
<event>
 5    0  0.2720079E+000  0.6437730E+03  0.7546771E-02  0.9818534E-01
         21   -1    0    0  504  501  0.00000000000E+00  0.00000000000E+00  0.71836568768E+03  0.71836568768E+03  0.00000000000E+00 0.  1.
         21   -1    0    0  501  502 -0.00000000000E+00 -0.00000000000E+00 -0.27383232296E+04  0.27383232296E+04  0.00000000000E+00 0.  1.
         25    1    1    2    0    0 -0.94289776927E+02 -0.20989848613E+03 -0.26570611176E+04  0.26699338417E+04  0.12500000000E+03 0.  0.
         21    1    1    2  503  502 -0.68259239308E+02 -0.30457779850E+02 -0.12043147660E+02  0.75710220644E+02  0.00000000000E+00 0. -1.
         21    1    1    2  504  503  0.16254901624E+03  0.24035626598E+03  0.64914672334E+03  0.71104485491E+03  0.00000000000E+00 0.  1.
<mgrwt>
<rscale>  4 0.64377305E+03</rscale>
<asrwt>0</asrwt>
<pdfrwt beam="1">  1       21 0.11051780E+00 0.64377305E+03</pdfrwt>
<pdfrwt beam="2">  1       21 0.42128050E+00 0.64377305E+03</pdfrwt>
<totfact> 0.25074280E+00</totfact>
</mgrwt>
</event>
<event>
 5    0  0.2720079E+000  0.5783653E+03  0.7546771E-02  0.9951336E-01
         21   -1    0    0  504  501  0.00000000000E+00  0.00000000000E+00  0.24974431381E+04  0.24974431381E+04  0.00000000000E+00 0.  1.
         21   -1    0    0  501  502 -0.00000000000E+00 -0.00000000000E+00 -0.80064713612E+02  0.80064713612E+02  0.00000000000E+00 0.  1.
         25    1    1    2    0    0  0.23921066326E+03 -0.82716926803E+02  0.67244821551E+03  0.72929790480E+03  0.12500000000E+03 0.  0.
         21    1    1    2  503  502 -0.24116546054E+03  0.11420120890E+03  0.29438806302E+03  0.39732483828E+03  0.00000000000E+00 0.  1.
         21    1    1    2  504  503  0.19547972770E+01 -0.31484282093E+02  0.14505421460E+04  0.14508851086E+04  0.00000000000E+00 0.  1.
<mgrwt>
<rscale>  4 0.57836530E+03</rscale>
<asrwt>0</asrwt>
<pdfrwt beam="1">  1       21 0.38422196E+00 0.57836530E+03</pdfrwt>
<pdfrwt beam="2">  1       21 0.12317650E-01 0.57836530E+03</pdfrwt>
<totfact> 0.44249552E+02</totfact>
</mgrwt>
</event>
<event>
 5    0  0.2720079E+000  0.4084792E+03  0.7546771E-02  0.1040883E+00
         21   -1    0    0  503  501  0.00000000000E+00  0.00000000000E+00  0.23277198102E+03  0.23277198102E+03  0.00000000000E+00 0.  1.
         21   -1    0    0  504  502 -0.00000000000E+00 -0.00000000000E+00 -0.45903714901E+03  0.45903714901E+03  0.00000000000E+00 0.  1.
         25    1    1    2    0    0  0.66754301257E+02 -0.20414247078E+03 -0.22629779690E+03  0.33610411779E+03  0.12500000000E+03 0.  0.
         21    1    1    2  503  502  0.31888969660E+02 -0.20409359563E+02  0.87477676190E+02  0.95319421816E+02  0.00000000000E+00 0. -1.
         21    1    1    2  504  501 -0.98643270917E+02  0.22455183035E+03 -0.87445047281E+02  0.26038559043E+03  0.00000000000E+00 0.  1.
<mgrwt>
<rscale>  4 0.40847919E+03</rscale>
<asrwt>0</asrwt>
<pdfrwt beam="1">  1       21 0.35811074E-01 0.40847919E+03</pdfrwt>
<pdfrwt beam="2">  1       21 0.70621099E-01 0.40847919E+03</pdfrwt>
<totfact> 0.12389453E+04</totfact>
</mgrwt>
</event>
<event>
 5    0  0.2720079E+000  0.9443356E+03  0.7546771E-02  0.9371796E-01
         21   -1    0    0  502  501  0.00000000000E+00  0.00000000000E+00  0.11430263868E+04  0.11430263868E+04  0.00000000000E+00 0. -1.
         21   -1    0    0  504  502 -0.00000000000E+00 -0.00000000000E+00 -0.20065008896E+04  0.20065008896E+04  0.00000000000E+00 0. -1.
         25    1    1    2    0    0  0.55419736727E+02 -0.43616911013E+03 -0.89654326277E+03  0.10063447033E+04  0.12500000000E+03 0.  0.
         21    1    1    2  503  501 -0.50032504827E+02 -0.50860640643E+02  0.10306147497E+04  0.10330812255E+04  0.00000000000E+00 0. -1.
         21    1    1    2  504  503 -0.53872319002E+01  0.48702975078E+03 -0.99754598967E+03  0.11101013476E+04  0.00000000000E+00 0. -1.
<mgrwt>
<rscale>  4 0.94433563E+03</rscale>
<asrwt>0</asrwt>
<pdfrwt beam="1">  1       21 0.17585021E+00 0.94433563E+03</pdfrwt>
<pdfrwt beam="2">  1       21 0.30869244E+00 0.94433563E+03</pdfrwt>
<totfact> 0.32149904E+00</totfact>
</mgrwt>
</event>
<event>
 5    0  0.2720079E+000  0.5239417E+03  0.7546771E-02  0.1007712E+00
         21   -1    0    0  503  501  0.00000000000E+00  0.00000000000E+00  0.61682033419E+03  0.61682033419E+03  0.00000000000E+00 0. -1.
         21   -1    0    0  504  502 -0.00000000000E+00 -0.00000000000E+00 -0.23188378613E+03  0.23188378613E+03  0.00000000000E+00 0. -1.
         25    1    1    2    0    0  0.97992288640E+02 -0.20960829098E+03  0.70055311345E+02  0.27215964235E+03  0.12500000000E+03 0.  0.
         21    1    1    2  503  502  0.23266319757E+01 -0.25684151722E+02  0.31967510291E+03  0.32071367337E+03  0.00000000000E+00 0. -1.
         21    1    1    2  504  501 -0.10031892062E+03  0.23529244270E+03 -0.47938661963E+01  0.25583080459E+03  0.00000000000E+00 0. -1.
<mgrwt>
<rscale>  4 0.52394165E+03</rscale>
<asrwt>0</asrwt>
<pdfrwt beam="1">  1       21 0.94895435E-01 0.52394165E+03</pdfrwt>
<pdfrwt beam="2">  1       21 0.35674429E-01 0.52394165E+03</pdfrwt>
<totfact> 0.60736974E+03</totfact>
</mgrwt>
</event>
<event>
 5    0  0.2720079E+000  0.4920731E+03  0.7546771E-02  0.1015869E+00
         21   -1    0    0  504  501  0.00000000000E+00  0.00000000000E+00  0.18176188518E+04  0.18176188518E+04  0.00000000000E+00 0. -1.
         21   -1    0    0  503  502 -0.00000000000E+00 -0.00000000000E+00 -0.89433906931E+02  0.89433906931E+02  0.00000000000E+00 0.  1.
         25    1    1    2    0    0 -0.18167251793E+03  0.11309946131E+03  0.31595507401E+03  0.40155821584E+03  0.12500000000E+03 0.  0.
         21    1    1    2  503  501  0.17785788558E+03 -0.16668603245E+03  0.27694491011E+03  0.36893921466E+03  0.00000000000E+00 0. -1.
         21    1    1    2  504  502  0.38146323497E+01  0.53586571143E+02  0.11352849608E+04  0.11365553283E+04  0.00000000000E+00 0. -1.
<mgrwt>
<rscale>  4 0.49207306E+03</rscale>
<asrwt>0</asrwt>
<pdfrwt beam="1">  1       21 0.27963364E+00 0.49207306E+03</pdfrwt>
<pdfrwt beam="2">  1       21 0.13759064E-01 0.49207306E+03</pdfrwt>
<totfact> 0.16508137E+03</totfact>
</mgrwt>
</event>
<event>
 5    0  0.2720079E+000  0.6124422E+03  0.7546771E-02  0.9879924E-01
         21   -1    0    0  503  501  0.00000000000E+00  0.00000000000E+00  0.10318538842E+04  0.10318538842E+04  0.00000000000E+00 0.  1.
         21   -1    0    0  504  502 -0.00000000000E+00 -0.00000000000E+00 -0.33617510067E+03  0.33617510067E+03  0.00000000000E+00 0. -1.
         25    1    1    2    0    0 -0.33955580301E+03  0.16329233817E+03 -0.94178850682E+02  0.40799165062E+03  0.12500000000E+03 0.  0.
         21    1    1    2  503  502  0.13797253567E+03 -0.13831919168E+03  0.62913759031E+02  0.20524804618E+03  0.00000000000E+00 0.  1.
         21    1    1    2  504  501  0.20158326734E+03 -0.24973146487E+02  0.72694387522E+03  0.75478928811E+03  0.00000000000E+00 0.  1.
<mgrwt>
<rscale>  4 0.61244218E+03</rscale>
<asrwt>0</asrwt>
<pdfrwt beam="1">  1       21 0.15874675E+00 0.61244218E+03</pdfrwt>
<pdfrwt beam="2">  1       21 0.51719247E-01 0.61244218E+03</pdfrwt>
<totfact> 0.71995145E+02</totfact>
</mgrwt>
</event>
<event>
 5    0  0.2720079E+000  0.4736980E+03  0.7546771E-02  0.1020882E+00
         21   -1    0    0  504  501  0.00000000000E+00  0.00000000000E+00  0.13973457871E+03  0.13973457871E+03  0.00000000000E+00 0. -1.
         21   -1    0    0  503  502 -0.00000000000E+00 -0.00000000000E+00 -0.46374399886E+03  0.46374399886E+03  0.00000000000E+00 0. -1.
         25    1    1    2    0    0 -0.20547953430E+03  0.14711644499E+02 -0.12920582869E+03  0.27341802732E+03  0.12500000000E+03 0.  0.
         21    1    1    2  503  501  0.22701665022E+03 -0.16484511741E+02 -0.20485698019E+03  0.30622651900E+03  0.00000000000E+00 0. -1.
         21    1    1    2  504  502 -0.21537115928E+02  0.17728672418E+01  0.10053388725E+02  0.23834031249E+02  0.00000000000E+00 0. -1.
<mgrwt>
<rscale>  4 0.47369805E+03</rscale>
<asrwt>0</asrwt>
<pdfrwt beam="1">  1       21 0.21497628E-01 0.47369805E+03</pdfrwt>
<pdfrwt beam="2">  1       21 0.71345230E-01 0.47369805E+03</pdfrwt>
<totfact> 0.32502328E+04</totfact>
</mgrwt>
</event>
<event>
 5    0  0.2720079E+000  0.5881571E+03  0.7546771E-02  0.9930286E-01
         21   -1    0    0  504  501  0.00000000000E+00  0.00000000000E+00  0.10830199395E+04  0.10830199395E+04  0.00000000000E+00 0.  1.
         21   -1    0    0  501  502 -0.00000000000E+00 -0.00000000000E+00 -0.14779431641E+03  0.14779431641E+03  0.00000000000E+00 0.  1.
         25    1    1    2    0    0  0.44178065737E+02  0.28339108774E+03  0.17874355182E+03  0.36032827730E+03  0.12500000000E+03 0.  0.
         21    1    1    2  503  502 -0.96990405255E+02 -0.24855486898E+03  0.26886259217E+03  0.37877929599E+03  0.00000000000E+00 0.  1.
         21    1    1    2  504  503  0.52812339518E+02 -0.34836218766E+02  0.48761947909E+03  0.49170668261E+03  0.00000000000E+00 0.  1.
<mgrwt>
<rscale>  4 0.58815707E+03</rscale>
<asrwt>0</asrwt>
<pdfrwt beam="1">  1       21 0.16661845E+00 0.58815707E+03</pdfrwt>
<pdfrwt beam="2">  1       21 0.22737588E-01 0.58815707E+03</pdfrwt>
<totfact> 0.33693424E+03</totfact>
</mgrwt>
</event>
<event>
 5    0  0.2720079E+000  0.5650801E+03  0.7546771E-02  0.9980625E-01
         21   -1    0    0  503  501  0.00000000000E+00  0.00000000000E+00  0.26068543964E+03  0.26068543964E+03  0.00000000000E+00 0.  1.
         21   -1    0    0  504  502 -0.00000000000E+00 -0.00000000000E+00 -0.39002354489E+03  0.39002354489E+03  0.00000000000E+00 0.  1.
         25    1    1    2    0    0  0.12856356634E+03 -0.18465167226E+03  0.31272342035E+02  0.25928322358E+03  0.12500000000E+03 0.  0.
         21    1    1    2  503  502 -0.16662445313E+03  0.20163267284E+03 -0.20366011205E+03  0.33150698994E+03  0.00000000000E+00 0.  1.
         21    1    1    2  504  501  0.38060886792E+02 -0.16981000584E+02  0.43049664763E+02  0.59918771019E+02  0.00000000000E+00 0. -1.
<mgrwt>
<rscale>  4 0.56508011E+03</rscale>
<asrwt>0</asrwt>
<pdfrwt beam="1">  1       21 0.40105453E-01 0.56508011E+03</pdfrwt>
<pdfrwt beam="2">  1       21 0.60003622E-01 0.56508011E+03</pdfrwt>
<totfact> 0.13555324E+04</totfact>
</mgrwt>
</event>
<event>
 5    0  0.2720079E+000  0.1122334E+04  0.7546771E-02  0.9183693E-01
         21   -1    0    0  502  501  0.00000000000E+00  0.00000000000E+00  0.48345519062E+03  0.48345519062E+03  0.00000000000E+00 0.  1.
         21   -1    0    0  503  502 -0.00000000000E+00 -0.00000000000E+00 -0.85531487059E+03  0.85531487059E+03  0.00000000000E+00 0.  1.
         25    1    1    2    0    0 -0.20677712972E+03  0.11159011532E+03  0.29722909427E+03  0.39897276811E+03  0.12500000000E+03 0.  0.
         21    1    1    2  503  504  0.21954434032E+03 -0.13653232346E+03 -0.78191264256E+03  0.82354609665E+03  0.00000000000E+00 0.  1.
         21    1    1    2  504  501 -0.12767210593E+02  0.24942208148E+02  0.11282386832E+03  0.11625119645E+03  0.00000000000E+00 0.  1.
<mgrwt>
<rscale>  4 0.11223343E+04</rscale>
<asrwt>0</asrwt>
<pdfrwt beam="1">  1       21 0.74377722E-01 0.11223343E+04</pdfrwt>
<pdfrwt beam="2">  1       21 0.13158690E+00 0.11223343E+04</pdfrwt>
<totfact> 0.47545825E+02</totfact>
</mgrwt>
</event>
<event>
 5    0  0.2720079E+000  0.6106301E+03  0.7546771E-02  0.9883594E-01
         21   -1    0    0  502  501  0.00000000000E+00  0.00000000000E+00  0.11155829706E+03  0.11155829706E+03  0.00000000000E+00 0. -1.
         21   -1    0    0  504  502 -0.00000000000E+00 -0.00000000000E+00 -0.96140025969E+03  0.96140025969E+03  0.00000000000E+00 0.  1.
         25    1    1    2    0    0  0.96248762832E+02  0.25190254804E+03 -0.29706311920E+03  0.42022638523E+03  0.12500000000E+03 0.  0.
         21    1    1    2  503  501 -0.12011682021E+02  0.31913460661E+02 -0.11872968521E+02  0.36107019509E+02  0.00000000000E+00 0. -1.
         21    1    1    2  504  503 -0.84237080811E+02 -0.28381600870E+03 -0.54090587491E+03  0.61662515202E+03  0.00000000000E+00 0.  1.
<mgrwt>
<rscale>  4 0.61063006E+03</rscale>
<asrwt>0</asrwt>
<pdfrwt beam="1">  1       21 0.17162815E-01 0.61063006E+03</pdfrwt>
<pdfrwt beam="2">  1       21 0.14790773E+00 0.61063006E+03</pdfrwt>
<totfact> 0.79981728E+03</totfact>
</mgrwt>
</event>
<event>
 5    0  0.2720079E+000  0.1178446E+04  0.7546771E-02  0.9131935E-01
         21   -1    0    0  504  501  0.00000000000E+00  0.00000000000E+00  0.98094127521E+03  0.98094127521E+03  0.00000000000E+00 0. -1.
         21   -1    0    0  503  502 -0.00000000000E+00 -0.00000000000E+00 -0.42607080517E+03  0.42607080517E+03  0.00000000000E+00 0. -1.
         25    1    1    2    0    0  0.19788142687E+03  0.11041813277E+03  0.90521020139E+03  0.94147741972E+03  0.12500000000E+03 0.  0.
         21    1    1    2  503  501 -0.10059969785E+03 -0.10839925717E+03 -0.33609763904E+03  0.36719520848E+03  0.00000000000E+00 0. -1.
         21    1    1    2  504  502 -0.97281729027E+02 -0.20188756051E+01 -0.14242092309E+02  0.98339452177E+02  0.00000000000E+00 0. -1.
<mgrwt>
<rscale>  4 0.11784460E+04</rscale>
<asrwt>0</asrwt>
<pdfrwt beam="1">  1       21 0.15091404E+00 0.11784460E+04</pdfrwt>
<pdfrwt beam="2">  1       21 0.65549355E-01 0.11784460E+04</pdfrwt>
<totfact> 0.43260203E+02</totfact>
</mgrwt>
</event>
<event>
 5    0  0.2720079E+000  0.5299950E+03  0.7546771E-02  0.1006233E+00
         21   -1    0    0  502  501  0.00000000000E+00  0.00000000000E+00  0.15963233214E+04  0.15963233214E+04  0.00000000000E+00 0. -1.
         21   -1    0    0  504  502 -0.00000000000E+00 -0.00000000000E+00 -0.17059023124E+03  0.17059023124E+03  0.00000000000E+00 0. -1.
         25    1    1    2    0    0 -0.18860999632E+03  0.82519346781E+02  0.16407403421E+03  0.29142488227E+03  0.12500000000E+03 0.  0.
         21    1    1    2  503  501 -0.93488196289E+02 -0.93352744224E+02  0.11718028291E+04  0.11792271402E+04  0.00000000000E+00 0. -1.
         21    1    1    2  504  503  0.28209819260E+03  0.10833397443E+02  0.89856226771E+02  0.29626153017E+03  0.00000000000E+00 0. -1.
<mgrwt>
<rscale>  4 0.52999504E+03</rscale>
<asrwt>0</asrwt>
<pdfrwt beam="1">  1       21 0.24558819E+00 0.52999504E+03</pdfrwt>
<pdfrwt beam="2">  1       21 0.26244652E-01 0.52999504E+03</pdfrwt>
<totfact> 0.76915209E+02</totfact>
</mgrwt>
</event>
<event>
 5    0  0.2720079E+000  0.5167149E+03  0.7546771E-02  0.1009506E+00
         21   -1    0    0  502  501  0.00000000000E+00  0.00000000000E+00  0.81362765618E+03  0.81362765618E+03  0.00000000000E+00 0.  1.
         21   -1    0    0  504  502 -0.00000000000E+00 -0.00000000000E+00 -0.31501307234E+03  0.31501307234E+03  0.00000000000E+00 0.  1.
         25    1    1    2    0    0  0.22751206107E+03 -0.18230851855E+03 -0.14249784539E+03  0.34774814135E+03  0.12500000000E+03 0.  0.
         21    1    1    2  503  501 -0.84096845037E+02  0.91292368798E+02  0.59085985013E+03  0.60375652248E+03  0.00000000000E+00 0.  1.
         21    1    1    2  504  503 -0.14341521603E+03  0.91016149755E+02  0.50252579117E+02  0.17713606469E+03  0.00000000000E+00 0.  1.
<mgrwt>
<rscale>  4 0.51671485E+03</rscale>
<asrwt>0</asrwt>
<pdfrwt beam="1">  1       21 0.12517348E+00 0.51671485E+03</pdfrwt>
<pdfrwt beam="2">  1       21 0.48463550E-01 0.51671485E+03</pdfrwt>
<totfact> 0.16159509E+03</totfact>
</mgrwt>
</event>
<event>
 5    0  0.2720079E+000  0.5339850E+03  0.7546771E-02  0.1005270E+00
         21   -1    0    0  503  501  0.00000000000E+00  0.00000000000E+00  0.11293010541E+03  0.11293010541E+03  0.00000000000E+00 0. -1.
         21   -1    0    0  504  502 -0.00000000000E+00 -0.00000000000E+00 -0.83882117523E+03  0.83882117523E+03  0.00000000000E+00 0. -1.
         25    1    1    2    0    0  0.44257754128E+02  0.20440392370E+03 -0.21161480183E+03  0.32271587686E+03  0.12500000000E+03 0.  0.
         21    1    1    2  503  502 -0.95082378647E+02 -0.25377764886E+03 -0.47788245559E+03  0.54937727943E+03  0.00000000000E+00 0. -1.
         21    1    1    2  504  501  0.50824624520E+02  0.49373725159E+02 -0.36393812402E+02  0.79658124349E+02  0.00000000000E+00 0. -1.
<mgrwt>
<rscale>  4 0.53398502E+03</rscale>
<asrwt>0</asrwt>
<pdfrwt beam="1">  1       21 0.17373863E-01 0.53398502E+03</pdfrwt>
<pdfrwt beam="2">  1       21 0.12904941E+00 0.53398502E+03</pdfrwt>
<totfact> 0.11458765E+04</totfact>
</mgrwt>
</event>
<event>
 5    0  0.2720079E+000  0.5568978E+03  0.7546771E-02  0.9999098E-01
         21   -1    0    0  502  501  0.00000000000E+00  0.00000000000E+00  0.20011226653E+03  0.20011226653E+03  0.00000000000E+00 0.  1.
         21   -1    0    0  504  502 -0.00000000000E+00 -0.00000000000E+00 -0.11411537116E+04  0.11411537116E+04  0.00000000000E+00 0.  1.
         25    1    1    2    0    0  0.44605136545E+02 -0.20310521851E+03 -0.18348251424E+03  0.30419102719E+03  0.12500000000E+03 0.  0.
         21    1    1    2  503  501 -0.81882977664E+01  0.40315994275E+02  0.12877161025E+03  0.13518341327E+03  0.00000000000E+00 0.  1.
         21    1    1    2  504  503 -0.36416838779E+02  0.16278922423E+03 -0.88633054107E+03  0.90189153766E+03  0.00000000000E+00 0.  1.
<mgrwt>
<rscale>  4 0.55689782E+03</rscale>
<asrwt>0</asrwt>
<pdfrwt beam="1">  1       21 0.30786502E-01 0.55689782E+03</pdfrwt>
<pdfrwt beam="2">  1       21 0.17556211E+00 0.55689782E+03</pdfrwt>
<totfact> 0.16116964E+03</totfact>
</mgrwt>
</event>
<event>
 5    0  0.2720079E+000  0.6617407E+03  0.7546771E-02  0.9784995E-01
         21   -1    0    0  502  501  0.00000000000E+00  0.00000000000E+00  0.22508245972E+04  0.22508245972E+04  0.00000000000E+00 0.  1.
         21   -1    0    0  503  502 -0.00000000000E+00 -0.00000000000E+00 -0.65862188276E+02  0.65862188276E+02  0.00000000000E+00 0.  1.
         25    1    1    2    0    0  0.28149965083E+03  0.17101311129E+03  0.10364144214E+04  0.10946540049E+04  0.12500000000E+03 0.  0.
         21    1    1    2  503  504 -0.28565445185E+03 -0.96493251352E+02  0.63335090805E+03  0.70145761537E+03  0.00000000000E+00 0.  1.
         21    1    1    2  504  501  0.41548010233E+01 -0.74519859935E+02  0.51519707947E+03  0.52057516517E+03  0.00000000000E+00 0.  1.
<mgrwt>
<rscale>  4 0.66174066E+03</rscale>
<asrwt>0</asrwt>
<pdfrwt beam="1">  1       21 0.34628065E+00 0.66174066E+03</pdfrwt>
<pdfrwt beam="2">  1       21 0.10132646E-01 0.66174066E+03</pdfrwt>
<totfact> 0.10567767E+03</totfact>
</mgrwt>
</event>
<event>
 5    0  0.2720079E+000  0.4179123E+03  0.7546771E-02  0.1037748E+00
         21   -1    0    0  503  501  0.00000000000E+00  0.00000000000E+00  0.12507460744E+04  0.12507460744E+04  0.00000000000E+00 0.  1.
         21   -1    0    0  504  502 -0.00000000000E+00 -0.00000000000E+00 -0.13478826573E+03  0.13478826573E+03  0.00000000000E+00 0. -1.
         25    1    1    2    0    0  0.17883999956E+03 -0.16457169221E+03  0.11334731015E+03  0.29587193182E+03  0.12500000000E+03 0.  0.
         21    1    1    2  503  502 -0.50272200506E+02  0.10166568246E+03  0.91466660046E+03  0.92167141386E+03  0.00000000000E+00 0.  1.
         21    1    1    2  504  501 -0.12856779906E+03  0.62906009754E+02  0.87943898101E+02  0.16799099449E+03  0.00000000000E+00 0.  1.
<mgrwt>
<rscale>  4 0.41791227E+03</rscale>
<asrwt>0</asrwt>
<pdfrwt beam="1">  1       21 0.19242247E+00 0.41791227E+03</pdfrwt>
<pdfrwt beam="2">  1       21 0.20736657E-01 0.41791227E+03</pdfrwt>
<totfact> 0.28029558E+03</totfact>
</mgrwt>
</event>
<event>
 5    0  0.2720079E+000  0.1154428E+04  0.7546771E-02  0.9153709E-01
         21   -1    0    0  503  501  0.00000000000E+00  0.00000000000E+00  0.23995993138E+04  0.23995993138E+04  0.00000000000E+00 0.  1.
         21   -1    0    0  504  502 -0.00000000000E+00 -0.00000000000E+00 -0.41111630467E+03  0.41111630467E+03  0.00000000000E+00 0.  1.
         25    1    1    2    0    0  0.48578738099E+03  0.23071465564E+03  0.15839210845E+03  0.57439680698E+03  0.12500000000E+03 0.  0.
         21    1    1    2  503  502  0.73991366468E+02 -0.13371155430E+02  0.15865326354E+04  0.15883133549E+04  0.00000000000E+00 0.  1.
         21    1    1    2  504  501 -0.55977874746E+03 -0.21734350021E+03  0.24355826525E+03  0.64800545658E+03  0.00000000000E+00 0.  1.
<mgrwt>
<rscale>  4 0.11544276E+04</rscale>
<asrwt>0</asrwt>
<pdfrwt beam="1">  1       21 0.36916912E+00 0.11544276E+04</pdfrwt>
<pdfrwt beam="2">  1       21 0.63248664E-01 0.11544276E+04</pdfrwt>
<totfact> 0.16862573E+01</totfact>
</mgrwt>
</event>
<event>
 5    0  0.2720079E+000  0.5026983E+03  0.7546771E-02  0.1013077E+00
         21   -1    0    0  503  501  0.00000000000E+00  0.00000000000E+00  0.34034255195E+03  0.34034255195E+03  0.00000000000E+00 0. -1.
         21   -1    0    0  504  502 -0.00000000000E+00 -0.00000000000E+00 -0.40869937579E+03  0.40869937579E+03  0.00000000000E+00 0. -1.
         25    1    1    2    0    0  0.21461424933E+02  0.31890981835E+03 -0.38233946793E+02  0.34532723566E+03  0.12500000000E+03 0.  0.
         21    1    1    2  503  502  0.54269511325E+02 -0.12723551874E+03 -0.11592056346E+03  0.18047613172E+03  0.00000000000E+00 0. -1.
         21    1    1    2  504  501 -0.75730936258E+02 -0.19167429962E+03  0.85797686408E+02  0.22323856036E+03  0.00000000000E+00 0. -1.
<mgrwt>
<rscale>  4 0.50269829E+03</rscale>
<asrwt>0</asrwt>
<pdfrwt beam="1">  1       21 0.52360393E-01 0.50269829E+03</pdfrwt>
<pdfrwt beam="2">  1       21 0.62876827E-01 0.50269829E+03</pdfrwt>
<totfact> 0.70751375E+03</totfact>
</mgrwt>
</event>
<event>
 5    0  0.2720079E+000  0.4088713E+03  0.7546771E-02  0.1040750E+00
         21   -1    0    0  503  501  0.00000000000E+00  0.00000000000E+00  0.87568843702E+02  0.87568843702E+02  0.00000000000E+00 0. -1.
         21   -1    0    0  504  502 -0.00000000000E+00 -0.00000000000E+00 -0.15385985048E+04  0.15385985048E+04  0.00000000000E+00 0.  1.
         25    1    1    2    0    0 -0.21888453605E+03 -0.11951577699E+03 -0.12062026707E+04  0.12380405259E+04  0.12500000000E+03 0.  0.
         21    1    1    2  503  502  0.10233542305E+03 -0.38358487076E+01 -0.17876197837E+03  0.20601722611E+03  0.00000000000E+00 0. -1.
         21    1    1    2  504  501  0.11654911300E+03  0.12335162569E+03 -0.66065012025E+02  0.18210959644E+03  0.00000000000E+00 0. -1.
<mgrwt>
<rscale>  4 0.40887127E+03</rscale>
<asrwt>0</asrwt>
<pdfrwt beam="1">  1       21 0.13472131E-01 0.40887127E+03</pdfrwt>
<pdfrwt beam="2">  1       21 0.23670743E+00 0.40887127E+03</pdfrwt>
<totfact> 0.32633886E+03</totfact>
</mgrwt>
</event>
<event>
 5    0  0.2720079E+000  0.6156333E+03  0.7546771E-02  0.9873493E-01
         21   -1    0    0  503  501  0.00000000000E+00  0.00000000000E+00  0.54923458028E+03  0.54923458028E+03  0.00000000000E+00 0. -1.
         21   -1    0    0  504  502 -0.00000000000E+00 -0.00000000000E+00 -0.30403597545E+03  0.30403597545E+03  0.00000000000E+00 0. -1.
         25    1    1    2    0    0 -0.83049760751E+02  0.24401596222E+03  0.14079954173E+03  0.31920301303E+03  0.12500000000E+03 0.  0.
         21    1    1    2  503  502 -0.24374120775E+02 -0.27788102278E+03 -0.10357092256E+03  0.29755486316E+03  0.00000000000E+00 0. -1.
         21    1    1    2  504  501  0.10742388153E+03  0.33865060565E+02  0.20796998566E+03  0.23651267955E+03  0.00000000000E+00 0. -1.
<mgrwt>
<rscale>  4 0.61563326E+03</rscale>
<asrwt>0</asrwt>
<pdfrwt beam="1">  1       21 0.84497628E-01 0.61563326E+03</pdfrwt>
<pdfrwt beam="2">  1       21 0.46774765E-01 0.61563326E+03</pdfrwt>
<totfact> 0.44551251E+03</totfact>
</mgrwt>
</event>
<event>
 5    0  0.2720079E+000  0.3948090E+03  0.7546771E-02  0.1045592E+00
         21   -1    0    0  504  501  0.00000000000E+00  0.00000000000E+00  0.32259700771E+03  0.32259700771E+03  0.00000000000E+00 0. -1.
         21   -1    0    0  503  502 -0.00000000000E+00 -0.00000000000E+00 -0.23327072309E+03  0.23327072309E+03  0.00000000000E+00 0. -1.
         25    1    1    2    0    0 -0.19011617777E+03  0.77064888103E+02  0.26196132991E+02  0.24164932322E+03  0.12500000000E+03 0.  0.
         21    1    1    2  503  501  0.14281167079E+03  0.21477691123E+02 -0.53836544318E+02  0.15412604593E+03  0.00000000000E+00 0. -1.
         21    1    1    2  504  502  0.47304506985E+02 -0.98542579226E+02  0.11696669594E+03  0.16009236166E+03  0.00000000000E+00 0. -1.
<mgrwt>
<rscale>  4 0.39480901E+03</rscale>
<asrwt>0</asrwt>
<pdfrwt beam="1">  1       21 0.49630309E-01 0.39480901E+03</pdfrwt>
<pdfrwt beam="2">  1       21 0.35887804E-01 0.39480901E+03</pdfrwt>
<totfact> 0.26742337E+04</totfact>
</mgrwt>
</event>
<event>
 5    0  0.2720079E+000  0.5353485E+03  0.7546771E-02  0.1004943E+00
         21   -1    0    0  503  501  0.00000000000E+00  0.00000000000E+00  0.21916318580E+03  0.21916318580E+03  0.00000000000E+00 0. -1.
         21   -1    0    0  504  502 -0.00000000000E+00 -0.00000000000E+00 -0.43719645785E+03  0.43719645785E+03  0.00000000000E+00 0. -1.
         25    1    1    2    0    0  0.26855463117E+02 -0.20877404248E+03  0.50962901254E+02  0.25006006082E+03  0.12500000000E+03 0.  0.
         21    1    1    2  503  502 -0.69898723670E+02  0.30288673001E+02  0.51482665505E+01  0.76352733621E+02  0.00000000000E+00 0. -1.
         21    1    1    2  504  501  0.43043260553E+02  0.17848536948E+03 -0.27414443986E+03  0.32994684921E+03  0.00000000000E+00 0. -1.
<mgrwt>
<rscale>  4 0.53534850E+03</rscale>
<asrwt>0</asrwt>
<pdfrwt beam="1">  1       21 0.33717413E-01 0.53534850E+03</pdfrwt>
<pdfrwt beam="2">  1       21 0.67260993E-01 0.53534850E+03</pdfrwt>
<totfact> 0.15095891E+04</totfact>
</mgrwt>
</event>
<event>
 5    0  0.2720079E+000  0.3666929E+03  0.7546771E-02  0.1055965E+00
         21   -1    0    0  502  501  0.00000000000E+00  0.00000000000E+00  0.68267686573E+03  0.68267686573E+03  0.00000000000E+00 0.  1.
         21   -1    0    0  503  502 -0.00000000000E+00 -0.00000000000E+00 -0.15035161731E+03  0.15035161731E+03  0.00000000000E+00 0.  1.
         25    1    1    2    0    0 -0.17758755586E+03  0.10454718666E+03  0.63912185744E+02  0.24935360780E+03  0.12500000000E+03 0.  0.
         21    1    1    2  503  504  0.75876942957E+02 -0.99907074766E+02  0.23976364237E+02  0.12772470436E+03  0.00000000000E+00 0.  1.
         21    1    1    2  504  501  0.10171061290E+03 -0.46401118916E+01  0.44443669844E+03  0.45595017089E+03  0.00000000000E+00 0.  1.
<mgrwt>
<rscale>  4 0.36669286E+03</rscale>
<asrwt>0</asrwt>
<pdfrwt beam="1">  1       21 0.10502721E+00 0.36669286E+03</pdfrwt>
<pdfrwt beam="2">  1       21 0.23131018E-01 0.36669286E+03</pdfrwt>
<totfact> 0.11748457E+04</totfact>
</mgrwt>
</event>
<event>
 5    0  0.2720079E+000  0.5086284E+03  0.7546771E-02  0.1011551E+00
         21   -1    0    0  504  501  0.00000000000E+00  0.00000000000E+00  0.14007037948E+03  0.14007037948E+03  0.00000000000E+00 0.  1.
         21   -1    0    0  503  502 -0.00000000000E+00 -0.00000000000E+00 -0.52023596543E+03  0.52023596543E+03  0.00000000000E+00 0. -1.
         25    1    1    2    0    0 -0.18899018894E+03 -0.14721223776E+03 -0.28704968483E+03  0.39422234339E+03  0.12500000000E+03 0.  0.
         21    1    1    2  503  501  0.17587629271E+03  0.12049298380E+03 -0.59824013377E+02  0.22142705810E+03  0.00000000000E+00 0.  1.
         21    1    1    2  504  502  0.13113896224E+02  0.26719253958E+02 -0.33291887743E+02  0.44656943421E+02  0.00000000000E+00 0. -1.
<mgrwt>
<rscale>  4 0.50862837E+03</rscale>
<asrwt>0</asrwt>
<pdfrwt beam="1">  1       21 0.21549289E-01 0.50862837E+03</pdfrwt>
<pdfrwt beam="2">  1       21 0.80036303E-01 0.50862837E+03</pdfrwt>
<totfact> 0.24671660E+04</totfact>
</mgrwt>
</event>
<event>
 5    0  0.2720079E+000  0.5163428E+03  0.7546771E-02  0.1009599E+00
         21   -1    0    0  504  501  0.00000000000E+00  0.00000000000E+00  0.17002014098E+03  0.17002014098E+03  0.00000000000E+00 0.  1.
         21   -1    0    0  501  502 -0.00000000000E+00 -0.00000000000E+00 -0.53178497633E+03  0.53178497633E+03  0.00000000000E+00 0.  1.
         25    1    1    2    0    0 -0.22456319192E+02  0.20996566850E+03 -0.68579309523E+02  0.25479008990E+03  0.12500000000E+03 0.  0.
         21    1    1    2  503  502  0.41785916163E+02 -0.21557667102E+03 -0.33503074492E+03  0.40058078326E+03  0.00000000000E+00 0.  1.
         21    1    1    2  504  503 -0.19329596971E+02  0.56110025269E+01  0.41845219093E+02  0.46434244146E+02  0.00000000000E+00 0.  1.
<mgrwt>
<rscale>  4 0.51634282E+03</rscale>
<asrwt>0</asrwt>
<pdfrwt beam="1">  1       21 0.26156945E-01 0.51634282E+03</pdfrwt>
<pdfrwt beam="2">  1       21 0.81813073E-01 0.51634282E+03</pdfrwt>
<totfact> 0.16067424E+04</totfact>
</mgrwt>
</event>
<event>
 5    0  0.2720079E+000  0.6623378E+03  0.7546771E-02  0.9783900E-01
         21   -1    0    0  502  501  0.00000000000E+00  0.00000000000E+00  0.16052601776E+04  0.16052601776E+04  0.00000000000E+00 0. -1.
         21   -1    0    0  504  502 -0.00000000000E+00 -0.00000000000E+00 -0.15952735115E+03  0.15952735115E+03  0.00000000000E+00 0. -1.
         25    1    1    2    0    0  0.19015663106E+03 -0.12762370274E+03  0.61619074465E+03  0.66915124422E+03  0.12500000000E+03 0.  0.
         21    1    1    2  503  501 -0.54133085812E+02  0.38696012539E+02  0.91129316804E+03  0.91371932806E+03  0.00000000000E+00 0. -1.
         21    1    1    2  504  503 -0.13602354525E+03  0.88927690198E+02 -0.81751086241E+02  0.18191695646E+03  0.00000000000E+00 0. -1.
<mgrwt>
<rscale>  4 0.66233778E+03</rscale>
<asrwt>0</asrwt>
<pdfrwt beam="1">  1       21 0.24696309E+00 0.66233778E+03</pdfrwt>
<pdfrwt beam="2">  1       21 0.24542670E-01 0.66233778E+03</pdfrwt>
<totfact> 0.81864528E+02</totfact>
</mgrwt>
</event>
<event>
 5    0  0.2720079E+000  0.4934286E+03  0.7546771E-02  0.1015509E+00
         21   -1    0    0  502  501  0.00000000000E+00  0.00000000000E+00  0.38407360030E+03  0.38407360030E+03  0.00000000000E+00 0.  1.
         21   -1    0    0  504  502 -0.00000000000E+00 -0.00000000000E+00 -0.22330015858E+03  0.22330015858E+03  0.00000000000E+00 0.  1.
         25    1    1    2    0    0 -0.21151083068E+03 -0.39577841664E+02  0.12955698930E+03  0.28055881829E+03  0.12500000000E+03 0.  0.
         21    1    1    2  503  501  0.18263783593E+02 -0.17161002360E+02  0.10830116072E+03  0.11116297588E+03  0.00000000000E+00 0.  1.
         21    1    1    2  504  503  0.19324704709E+03  0.56738844024E+02 -0.77084708294E+02  0.21565196471E+03  0.00000000000E+00 0.  1.
<mgrwt>
<rscale>  4 0.49342862E+03</rscale>
<asrwt>0</asrwt>
<pdfrwt beam="1">  1       21 0.59088246E-01 0.49342862E+03</pdfrwt>
<pdfrwt beam="2">  1       21 0.34353871E-01 0.49342862E+03</pdfrwt>
<totfact> 0.19561466E+04</totfact>
</mgrwt>
</event>
<event>
 5    0  0.2720079E+000  0.7835061E+03  0.7546771E-02  0.9584203E-01
         21   -1    0    0  504  501  0.00000000000E+00  0.00000000000E+00  0.36434464470E+03  0.36434464470E+03  0.00000000000E+00 0.  1.
         21   -1    0    0  503  502 -0.00000000000E+00 -0.00000000000E+00 -0.50457704225E+03  0.50457704225E+03  0.00000000000E+00 0.  1.
         25    1    1    2    0    0 -0.14435542212E+03 -0.13871951537E+03  0.22768199523E+03  0.32794158442E+03  0.12500000000E+03 0.  0.
         21    1    1    2  503  501  0.16702996671E+03  0.15101734878E+03 -0.42353233334E+03  0.47967164477E+03  0.00000000000E+00 0.  1.
         21    1    1    2  504  502 -0.22674544588E+02 -0.12297833406E+02  0.55617940575E+02  0.61308457757E+02  0.00000000000E+00 0.  1.
<mgrwt>
<rscale>  4 0.78350608E+03</rscale>
<asrwt>0</asrwt>
<pdfrwt beam="1">  1       21 0.56053022E-01 0.78350608E+03</pdfrwt>
<pdfrwt beam="2">  1       21 0.77627237E-01 0.78350608E+03</pdfrwt>
<totfact> 0.35497587E+03</totfact>
</mgrwt>
</event>
<event>
 5    0  0.2720079E+000  0.5677587E+03  0.7546771E-02  0.9974651E-01
         21   -1    0    0  503  501  0.00000000000E+00  0.00000000000E+00  0.42825704166E+03  0.42825704166E+03  0.00000000000E+00 0. -1.
         21   -1    0    0  504  502 -0.00000000000E+00 -0.00000000000E+00 -0.39196999629E+03  0.39196999629E+03  0.00000000000E+00 0. -1.
         25    1    1    2    0    0  0.19931051443E+03 -0.16230807478E+03 -0.13678070149E+03  0.31686361830E+03  0.12500000000E+03 0.  0.
         21    1    1    2  503  502  0.21506332632E+02 -0.35596465836E+01  0.22184621250E+03  0.22291463709E+03  0.00000000000E+00 0. -1.
         21    1    1    2  504  501 -0.22081684706E+03  0.16586772136E+03 -0.48778465643E+02  0.28044878257E+03  0.00000000000E+00 0. -1.
<mgrwt>
<rscale>  4 0.56775866E+03</rscale>
<asrwt>0</asrwt>
<pdfrwt beam="1">  1       21 0.65885699E-01 0.56775866E+03</pdfrwt>
<pdfrwt beam="2">  1       21 0.60303076E-01 0.56775866E+03</pdfrwt>
<totfact> 0.46086186E+03</totfact>
</mgrwt>
</event>
<event>
 5    0  0.2720079E+000  0.4818449E+03  0.7546771E-02  0.1018629E+00
         21   -1    0    0  502  501  0.00000000000E+00  0.00000000000E+00  0.11939919457E+03  0.11939919457E+03  0.00000000000E+00 0. -1.
         21   -1    0    0  504  502 -0.00000000000E+00 -0.00000000000E+00 -0.89539823041E+03  0.89539823041E+03  0.00000000000E+00 0. -1.
         25    1    1    2    0    0 -0.26593883944E+03 -0.13405091580E+03 -0.48800318985E+03  0.58520528676E+03  0.12500000000E+03 0.  0.
         21    1    1    2  503  501  0.11490333000E+03  0.12141944570E+03 -0.14820153996E+03  0.22340356641E+03  0.00000000000E+00 0.  1.
         21    1    1    2  504  503  0.15103550943E+03  0.12631470099E+02 -0.13979430603E+03  0.20618857181E+03  0.00000000000E+00 0. -1.
<mgrwt>
<rscale>  4 0.48184494E+03</rscale>
<asrwt>0</asrwt>
<pdfrwt beam="1">  1       21 0.18369108E-01 0.48184494E+03</pdfrwt>
<pdfrwt beam="2">  1       21 0.13775357E+00 0.48184494E+03</pdfrwt>
<totfact> 0.88185882E+03</totfact>
</mgrwt>
</event>
<event>
 5    0  0.2720079E+000  0.5162539E+03  0.7546771E-02  0.1009621E+00
         21   -1    0    0  502  501  0.00000000000E+00  0.00000000000E+00  0.46754970348E+03  0.46754970348E+03  0.00000000000E+00 0. -1.
         21   -1    0    0  504  502 -0.00000000000E+00 -0.00000000000E+00 -0.11409535348E+04  0.11409535348E+04  0.00000000000E+00 0. -1.
         25    1    1    2    0    0  0.31534493490E+03 -0.14047652064E+03 -0.73737190935E+03  0.82372229151E+03  0.12500000000E+03 0.  0.
         21    1    1    2  503  501 -0.16643989034E+03  0.14602218733E+03  0.37749947933E+03  0.43764206057E+03  0.00000000000E+00 0. -1.
         21    1    1    2  504  503 -0.14890504456E+03 -0.55456666941E+01 -0.31353140127E+03  0.34713888618E+03  0.00000000000E+00 0. -1.
<mgrwt>
<rscale>  4 0.51625394E+03</rscale>
<asrwt>0</asrwt>
<pdfrwt beam="1">  1       21 0.71930724E-01 0.51625394E+03</pdfrwt>
<pdfrwt beam="2">  1       21 0.17553131E+00 0.51625394E+03</pdfrwt>
<totfact> 0.27034513E+02</totfact>
</mgrwt>
</event>
<event>
 5    0  0.2720079E+000  0.3651365E+03  0.7546771E-02  0.1056568E+00
         21   -1    0    0  502  501  0.00000000000E+00  0.00000000000E+00  0.43631264320E+03  0.43631264320E+03  0.00000000000E+00 0. -1.
         21   -1    0    0  504  502 -0.00000000000E+00 -0.00000000000E+00 -0.33417164262E+03  0.33417164262E+03  0.00000000000E+00 0. -1.
         25    1    1    2    0    0 -0.34913246302E+02 -0.21406740976E+03 -0.58687650758E+02  0.25712454383E+03  0.12500000000E+03 0.  0.
         21    1    1    2  503  501 -0.34005905699E+02  0.18546299030E+03  0.30064303144E+03  0.35487907059E+03  0.00000000000E+00 0. -1.
         21    1    1    2  504  503  0.68919152001E+02  0.28604419458E+02 -0.13981438009E+03  0.15848067139E+03  0.00000000000E+00 0. -1.
<mgrwt>
<rscale>  4 0.36513647E+03</rscale>
<asrwt>0</asrwt>
<pdfrwt beam="1">  1       21 0.67125022E-01 0.36513647E+03</pdfrwt>
<pdfrwt beam="2">  1       21 0.51411022E-01 0.36513647E+03</pdfrwt>
<totfact> 0.66570932E+03</totfact>
</mgrwt>
</event>
