<event>
 5    0  0.1911311E+001  0.2644384E+03  0.7546771E-02  0.1104505E+00
         21   -1    0    0  504  501  0.00000000000E+00  0.00000000000E+00  0.88158680687E+03  0.88158680687E+03  0.00000000000E+00 0.  1.
         21   -1    0    0  503  502 -0.00000000000E+00 -0.00000000000E+00 -0.29423244484E+03  0.29423244484E+03  0.00000000000E+00 0.  1.
         25    1    1    2    0    0  0.24432737792E+03  0.25318249125E+03 -0.42473515642E+02  0.37580079964E+03  0.12500000000E+03 0.  0.
         21    1    1    2  503  501 -0.11128715475E+03 -0.74974807028E+02  0.22538765066E+01  0.13420556046E+03  0.00000000000E+00 0.  1.
         21    1    1    2  504  502 -0.13304022317E+03 -0.17820768422E+03  0.62757400117E+03  0.66581289161E+03  0.00000000000E+00 0.  1.
<mgrwt>
<rscale>  4 0.26443841E+03</rscale>
<asrwt>0</asrwt>
<pdfrwt beam="1">  1       21 0.13562874E+00 0.26443841E+03</pdfrwt>
<pdfrwt beam="2">  1       21 0.45266530E-01 0.26443841E+03</pdfrwt>
<totfact> 0.17121333E+03</totfact>
</mgrwt>
</event>
<event>
 5    0  0.1911311E+001  0.2122816E+03  0.7546771E-02  0.1139772E+00
         21   -1    0    0  502  501  0.00000000000E+00  0.00000000000E+00  0.18049022369E+03  0.18049022369E+03  0.00000000000E+00 0.  1.
         21   -1    0    0  504  502 -0.00000000000E+00 -0.00000000000E+00 -0.37286852257E+03  0.37286852257E+03  0.00000000000E+00 0.  1.
         25    1    1    2    0    0  0.13435458771E+02  0.20391494686E+03 -0.59418288593E+02  0.24681440421E+03  0.12500000000E+03 0.  0.
         21    1    1    2  503  501  0.64859407491E+01 -0.44237506953E+02  0.47179416150E+02  0.64999398128E+02  0.00000000000E+00 0.  1.
         21    1    1    2  504  503 -0.19921399520E+02 -0.15967743991E+03 -0.18013942643E+03  0.24154494392E+03  0.00000000000E+00 0.  1.
<mgrwt>
<rscale>  4 0.21228157E+03</rscale>
<asrwt>0</asrwt>
<pdfrwt beam="1">  1       21 0.27767727E-01 0.21228157E+03</pdfrwt>
<pdfrwt beam="2">  1       21 0.57364388E-01 0.21228157E+03</pdfrwt>
<totfact> 0.34955907E+04</totfact>
</mgrwt>
</event>
<event>
 5    0  0.1911311E+001  0.2978936E+03  0.7546771E-02  0.1086298E+00
         21   -1    0    0  502  501  0.00000000000E+00  0.00000000000E+00  0.32753479208E+03  0.32753479208E+03  0.00000000000E+00 0. -1.
         21   -1    0    0  504  502 -0.00000000000E+00 -0.00000000000E+00 -0.28744392874E+03  0.28744392874E+03  0.00000000000E+00 0.  1.
         25    1    1    2    0    0 -0.87878719301E+02 -0.23709529295E+03  0.60537938619E+01  0.28213205359E+03  0.12500000000E+03 0.  0.
         21    1    1    2  503  501  0.10692782223E+03  0.26440640989E+03  0.58978256006E+02  0.29124344359E+03  0.00000000000E+00 0. -1.
         21    1    1    2  504  503 -0.19049102925E+02 -0.27311116936E+02 -0.24941186533E+02  0.41603223627E+02  0.00000000000E+00 0.  1.
<mgrwt>
<rscale>  4 0.29789361E+03</rscale>
<asrwt>0</asrwt>
<pdfrwt beam="1">  1       21 0.50389968E-01 0.29789361E+03</pdfrwt>
<pdfrwt beam="2">  1       21 0.44222143E-01 0.29789361E+03</pdfrwt>
<totfact> 0.17454043E+04</totfact>
</mgrwt>
</event>
