<event>
 5    0  0.1943430E+001  0.4676100E+03  0.7546771E-02  0.1022597E+00
         21   -1    0    0  503  501  0.00000000000E+00  0.00000000000E+00  0.20471035460E+03  0.20471035460E+03  0.00000000000E+00 0.  1.
         21   -1    0    0  504  502 -0.00000000000E+00 -0.00000000000E+00 -0.16296910552E+04  0.16296910552E+04  0.00000000000E+00 0. -1.
         25    1    1    2    0    0  0.26981194292E+03  0.34398309792E+03 -0.31794162760E+03  0.55482856339E+03  0.12500000000E+03 0.  0.
         21    1    1    2  503  502 -0.29257172245E+03 -0.36838786792E+03 -0.55938557321E+03  0.73090358703E+03  0.00000000000E+00 0.  1.
         21    1    1    2  504  501  0.22759779537E+02  0.24404769995E+02 -0.54765349980E+03  0.54866925940E+03  0.00000000000E+00 0. -1.
<mgrwt>
<rscale>  4 0.46761002E+03</rscale>
<asrwt>0</asrwt>
<pdfrwt beam="1">  1       21 0.31493900E-01 0.46761002E+03</pdfrwt>
<pdfrwt beam="2">  1       21 0.25072171E+00 0.46761002E+03</pdfrwt>
<totfact> 0.51276616E+02</totfact>
</mgrwt>
</event>
<event>
 5    0  0.1943430E+001  0.2498498E+03  0.7546771E-02  0.1113400E+00
         21   -1    0    0  504  501  0.00000000000E+00  0.00000000000E+00  0.13944690019E+04  0.13944690019E+04  0.00000000000E+00 0. -1.
         21   -1    0    0  501  502 -0.00000000000E+00 -0.00000000000E+00 -0.14194854062E+03  0.14194854062E+03  0.00000000000E+00 0. -1.
         25    1    1    2    0    0 -0.96777343425E+02 -0.20364953840E+03  0.12105246800E+04  0.12376728120E+04  0.12500000000E+03 0.  0.
         21    1    1    2  503  502  0.14601318413E+03  0.11689584508E+03  0.61917110389E+02  0.19702339226E+03  0.00000000000E+00 0. -1.
         21    1    1    2  504  503 -0.49235840710E+02  0.86753693325E+02 -0.19921329049E+02  0.10172133831E+03  0.00000000000E+00 0. -1.
<mgrwt>
<rscale>  4 0.24984981E+03</rscale>
<asrwt>0</asrwt>
<pdfrwt beam="1">  1       21 0.21453368E+00 0.24984981E+03</pdfrwt>
<pdfrwt beam="2">  1       21 0.21838238E-01 0.24984981E+03</pdfrwt>
<totfact> 0.20155704E+03</totfact>
</mgrwt>
</event>
<event>
 5    0  0.1943430E+001  0.2674615E+03  0.7546771E-02  0.1102741E+00
         21   -1    0    0  503  501  0.00000000000E+00  0.00000000000E+00  0.16858469683E+04  0.16858469683E+04  0.00000000000E+00 0. -1.
         21   -1    0    0  504  502 -0.00000000000E+00 -0.00000000000E+00 -0.98900490876E+02  0.98900490876E+02  0.00000000000E+00 0. -1.
         25    1    1    2    0    0  0.11701851972E+03 -0.16869784755E+03  0.70262514614E+03  0.74260311992E+03  0.12500000000E+03 0.  0.
         21    1    1    2  503  502 -0.58245421983E+02  0.27413976548E+03  0.87757539892E+03  0.92124031663E+03  0.00000000000E+00 0. -1.
         21    1    1    2  504  501 -0.58773097739E+02 -0.10544191793E+03  0.67459323243E+01  0.12090402258E+03  0.00000000000E+00 0. -1.
<mgrwt>
<rscale>  4 0.26746147E+03</rscale>
<asrwt>0</asrwt>
<pdfrwt beam="1">  1       21 0.25936105E+00 0.26746147E+03</pdfrwt>
<pdfrwt beam="2">  1       21 0.15215461E-01 0.26746147E+03</pdfrwt>
<totfact> 0.20798478E+03</totfact>
</mgrwt>
</event>
<event>
 5    0  0.1943430E+001  0.2519297E+03  0.7546771E-02  0.1112091E+00
         21   -1    0    0  504  501  0.00000000000E+00  0.00000000000E+00  0.48081454640E+03  0.48081454640E+03  0.00000000000E+00 0.  1.
         21   -1    0    0  501  502 -0.00000000000E+00 -0.00000000000E+00 -0.18076193234E+03  0.18076193234E+03  0.00000000000E+00 0. -1.
         25    1    1    2    0    0 -0.16825771909E+03  0.13976018194E+03  0.34760298296E+03  0.42929756842E+03  0.12500000000E+03 0.  0.
         21    1    1    2  503  502  0.30711546780E+02 -0.47412384655E+02 -0.34277953294E+02  0.66076557162E+02  0.00000000000E+00 0.  1.
         21    1    1    2  504  503  0.13754617231E+03 -0.92347797284E+02 -0.13272415601E+02  0.16620235316E+03  0.00000000000E+00 0. -1.
<mgrwt>
<rscale>  4 0.25192969E+03</rscale>
<asrwt>0</asrwt>
<pdfrwt beam="1">  1       21 0.73971468E-01 0.25192969E+03</pdfrwt>
<pdfrwt beam="2">  1       21 0.27809528E-01 0.25192969E+03</pdfrwt>
<totfact> 0.19592540E+04</totfact>
</mgrwt>
</event>
<event>
 5    0  0.1943430E+001  0.2400574E+03  0.7546771E-02  0.1119755E+00
         21   -1    0    0  503  501  0.00000000000E+00  0.00000000000E+00  0.57125490877E+03  0.57125490877E+03  0.00000000000E+00 0. -1.
         21   -1    0    0  504  502 -0.00000000000E+00 -0.00000000000E+00 -0.20748387948E+03  0.20748387948E+03  0.00000000000E+00 0. -1.
         25    1    1    2    0    0 -0.15880399597E+03 -0.17196383213E+03  0.14696377229E+03  0.30333746729E+03  0.12500000000E+03 0.  0.
         21    1    1    2  503  502  0.11556648641E+03  0.15697250603E+03  0.31308189614E+03  0.36880381522E+03  0.00000000000E+00 0. -1.
         21    1    1    2  504  501  0.43237509558E+02  0.14991326108E+02 -0.96274639127E+02  0.10659750574E+03  0.00000000000E+00 0. -1.
<mgrwt>
<rscale>  4 0.24005737E+03</rscale>
<asrwt>0</asrwt>
<pdfrwt beam="1">  1       21 0.87885370E-01 0.24005737E+03</pdfrwt>
<pdfrwt beam="2">  1       21 0.31920597E-01 0.24005737E+03</pdfrwt>
<totfact> 0.10160210E+04</totfact>
</mgrwt>
</event>
<event>
 5    0  0.1943430E+001  0.1910099E+03  0.7546771E-02  0.1157554E+00
         21   -1    0    0  503  501  0.00000000000E+00  0.00000000000E+00  0.26054219544E+03  0.26054219544E+03  0.00000000000E+00 0.  1.
         21   -1    0    0  504  502 -0.00000000000E+00 -0.00000000000E+00 -0.40584744708E+03  0.40584744708E+03  0.00000000000E+00 0.  1.
         25    1    1    2    0    0 -0.14219231791E+03 -0.14086399874E+03 -0.13079838352E+03  0.26980463033E+03  0.12500000000E+03 0.  0.
         21    1    1    2  503  502  0.53266849715E+02  0.11835325531E+03 -0.17130889334E+03  0.21492228190E+03  0.00000000000E+00 0.  1.
         21    1    1    2  504  501  0.88925468198E+02  0.22510743424E+02  0.15680202522E+03  0.18166273029E+03  0.00000000000E+00 0.  1.
<mgrwt>
<rscale>  4 0.19100995E+03</rscale>
<asrwt>0</asrwt>
<pdfrwt beam="1">  1       21 0.40083415E-01 0.19100995E+03</pdfrwt>
<pdfrwt beam="2">  1       21 0.62438069E-01 0.19100995E+03</pdfrwt>
<totfact> 0.14279983E+04</totfact>
</mgrwt>
</event>
<event>
 5    0  0.1943430E+001  0.3477750E+03  0.7546771E-02  0.1063532E+00
         21   -1    0    0  504  501  0.00000000000E+00  0.00000000000E+00  0.49087132517E+03  0.49087132517E+03  0.00000000000E+00 0.  1.
         21   -1    0    0  501  502 -0.00000000000E+00 -0.00000000000E+00 -0.36265596408E+03  0.36265596408E+03  0.00000000000E+00 0. -1.
         25    1    1    2    0    0  0.31467451583E+03  0.28622699381E+02  0.24460271256E+03  0.41868221461E+03  0.12500000000E+03 0.  0.
         21    1    1    2  503  502 -0.31721456318E+03 -0.84501294297E+02 -0.15877994937E+03  0.36465959490E+03  0.00000000000E+00 0. -1.
         21    1    1    2  504  503  0.25400473468E+01  0.55878594916E+02  0.42392597898E+02  0.70185479744E+02  0.00000000000E+00 0.  1.
<mgrwt>
<rscale>  4 0.34777503E+03</rscale>
<asrwt>0</asrwt>
<pdfrwt beam="1">  1       21 0.75518666E-01 0.34777503E+03</pdfrwt>
<pdfrwt beam="2">  1       21 0.55793225E-01 0.34777503E+03</pdfrwt>
<totfact> 0.43199312E+03</totfact>
</mgrwt>
</event>
<event>
 5    0  0.1943430E+001  0.3194268E+03  0.7546771E-02  0.1075913E+00
         21   -1    0    0  503  501  0.00000000000E+00  0.00000000000E+00  0.54925850347E+03  0.54925850347E+03  0.00000000000E+00 0. -1.
         21   -1    0    0  504  502 -0.00000000000E+00 -0.00000000000E+00 -0.38405791312E+03  0.38405791312E+03  0.00000000000E+00 0. -1.
         25    1    1    2    0    0 -0.15569835337E+03 -0.23564608358E+03  0.33355020726E+03  0.45458969930E+03  0.12500000000E+03 0.  0.
         21    1    1    2  503  502  0.15938817700E+03  0.28765495471E+03 -0.29230654437E+02  0.33015813650E+03  0.00000000000E+00 0. -1.
         21    1    1    2  504  501 -0.36898236296E+01 -0.52008871137E+02 -0.13911896248E+03  0.14856858079E+03  0.00000000000E+00 0. -1.
<mgrwt>
<rscale>  4 0.31942684E+03</rscale>
<asrwt>0</asrwt>
<pdfrwt beam="1">  1       21 0.84501309E-01 0.31942684E+03</pdfrwt>
<pdfrwt beam="2">  1       21 0.59085832E-01 0.31942684E+03</pdfrwt>
<totfact> 0.29900007E+03</totfact>
</mgrwt>
</event>
<event>
 5    0  0.1943430E+001  0.3155123E+03  0.7546771E-02  0.1077733E+00
         21   -1    0    0  504  501  0.00000000000E+00  0.00000000000E+00  0.85051975759E+03  0.85051975759E+03  0.00000000000E+00 0. -1.
         21   -1    0    0  501  502 -0.00000000000E+00 -0.00000000000E+00 -0.14095235305E+03  0.14095235305E+03  0.00000000000E+00 0. -1.
         25    1    1    2    0    0  0.25048380707E+03  0.12698193209E+03  0.42428094131E+03  0.52393307382E+03  0.12500000000E+03 0.  0.
         21    1    1    2  503  502 -0.85493250043E+01  0.61935006887E+02  0.61208719361E+02  0.87495961975E+02  0.00000000000E+00 0.  1.
         21    1    1    2  504  503 -0.24193448206E+03 -0.18891693898E+03  0.22407774386E+03  0.38004307485E+03  0.00000000000E+00 0. -1.
<mgrwt>
<rscale>  4 0.31551226E+03</rscale>
<asrwt>0</asrwt>
<pdfrwt beam="1">  1       21 0.13084919E+00 0.31551226E+03</pdfrwt>
<pdfrwt beam="2">  1       21 0.21684978E-01 0.31551226E+03</pdfrwt>
<totfact> 0.78310136E+03</totfact>
</mgrwt>
</event>
