<event>
 5    0  0.1972558E-002  0.2868371E+03  0.7546771E-02  0.1092012E+00
         21   -1    0    0  501  502  0.00000000000E+00  0.00000000000E+00  0.29030180208E+03  0.29030180208E+03  0.00000000000E+00 0.  1.
         21   -1    0    0  502  503 -0.00000000000E+00 -0.00000000000E+00 -0.67720516382E+03  0.67720516382E+03  0.00000000000E+00 0. -1.
         25    1    1    2    0    0 -0.13844055330E+03 -0.24113606711E+03 -0.30710137521E+03  0.43272236401E+03  0.12500000000E+03 0.  0.
          4    1    1    2  501    0  0.11611804017E+03  0.21336135004E+03 -0.25723866593E+03  0.35380530832E+03  0.00000000000E+00 0. -1.
         -4    1    1    2    0  503  0.22322513123E+02  0.27774717062E+02  0.17743667941E+03  0.18097929357E+03  0.00000000000E+00 0.  1.
<mgrwt>
<rscale>  4 0.28683713E+03</rscale>
<asrwt>0</asrwt>
<pdfrwt beam="1">  1       21 0.44661816E-01 0.28683713E+03</pdfrwt>
<pdfrwt beam="2">  1       21 0.10418541E+00 0.28683713E+03</pdfrwt>
<totfact> 0.33527544E+03</totfact>
</mgrwt>
</event>
<event>
 5    0  0.1972558E-002  0.3155979E+03  0.7546771E-02  0.1077693E+00
         21   -1    0    0  501  502  0.00000000000E+00  0.00000000000E+00  0.15653943939E+04  0.15653943939E+04  0.00000000000E+00 0. -1.
         21   -1    0    0  502  503 -0.00000000000E+00 -0.00000000000E+00 -0.16886214399E+03  0.16886214399E+03  0.00000000000E+00 0.  1.
         25    1    1    2    0    0 -0.15254473490E+03 -0.32632353458E+03  0.20224037856E+03  0.43160527810E+03  0.12500000000E+03 0.  0.
          2    1    1    2  501    0  0.15350011024E+03  0.23432674371E+03  0.11759297416E+04  0.12088350027E+04  0.00000000000E+00 0. -1.
         -2    1    1    2    0  503 -0.95537534004E+00  0.91996790871E+02  0.18362129730E+02  0.93816257018E+02  0.00000000000E+00 0.  1.
<mgrwt>
<rscale>  4 0.31559792E+03</rscale>
<asrwt>0</asrwt>
<pdfrwt beam="1">  1       21 0.24082990E+00 0.31559792E+03</pdfrwt>
<pdfrwt beam="2">  1       21 0.25978792E-01 0.31559792E+03</pdfrwt>
<totfact> 0.94427744E+02</totfact>
</mgrwt>
</event>
<event>
 5    0  0.1972558E-002  0.3325763E+03  0.7546771E-02  0.1070003E+00
         21   -1    0    0  501  502  0.00000000000E+00  0.00000000000E+00  0.16571266231E+04  0.16571266231E+04  0.00000000000E+00 0. -1.
         21   -1    0    0  502  503 -0.00000000000E+00 -0.00000000000E+00 -0.11305048199E+04  0.11305048199E+04  0.00000000000E+00 0.  1.
         25    1    1    2    0    0  0.26674499931E+03 -0.17234319134E+03 -0.10170642516E+04  0.10727999638E+04  0.12500000000E+03 0.  0.
          2    1    1    2  501    0 -0.21544786308E+03  0.12203361713E+03  0.96320010883E+02  0.26568313817E+03  0.00000000000E+00 0.  1.
         -2    1    1    2    0  503 -0.51297136231E+02  0.50309574213E+02  0.14473660439E+04  0.14491483411E+04  0.00000000000E+00 0. -1.
<mgrwt>
<rscale>  4 0.33257628E+03</rscale>
<asrwt>0</asrwt>
<pdfrwt beam="1">  1       21 0.25494256E+00 0.33257628E+03</pdfrwt>
<pdfrwt beam="2">  1       21 0.17392382E+00 0.33257628E+03</pdfrwt>
<totfact> 0.10206510E+01</totfact>
</mgrwt>
</event>
<event>
 5    0  0.1972558E-002  0.2727996E+03  0.7546771E-02  0.1099688E+00
         21   -1    0    0  501  502  0.00000000000E+00  0.00000000000E+00  0.12044418385E+04  0.12044418385E+04  0.00000000000E+00 0.  1.
         21   -1    0    0  502  503 -0.00000000000E+00 -0.00000000000E+00 -0.97157328183E+02  0.97157328183E+02  0.00000000000E+00 0. -1.
         25    1    1    2    0    0 -0.33604651182E+02 -0.21553602009E+03  0.25292519778E+03  0.35662473864E+03  0.12500000000E+03 0.  0.
          1    1    1    2  501    0  0.63248706284E+02  0.27170421081E+03  0.40882298799E+03  0.49493414969E+03  0.00000000000E+00 0. -1.
         -1    1    1    2    0  503 -0.29644055102E+02 -0.56168190718E+02  0.44553632454E+03  0.45004027835E+03  0.00000000000E+00 0.  1.
<mgrwt>
<rscale>  4 0.27279962E+03</rscale>
<asrwt>0</asrwt>
<pdfrwt beam="1">  1       21 0.18529873E+00 0.27279962E+03</pdfrwt>
<pdfrwt beam="2">  1       21 0.14947282E-01 0.27279962E+03</pdfrwt>
<totfact> 0.62327189E+03</totfact>
</mgrwt>
</event>
<event>
 5    0  0.1972558E-002  0.3385962E+03  0.7546771E-02  0.1067395E+00
         21   -1    0    0  501  502  0.00000000000E+00  0.00000000000E+00  0.14688126487E+04  0.14688126487E+04  0.00000000000E+00 0.  1.
         21   -1    0    0  502  503 -0.00000000000E+00 -0.00000000000E+00 -0.82663373754E+02  0.82663373754E+02  0.00000000000E+00 0. -1.
         25    1    1    2    0    0 -0.17700906202E+03  0.27126881807E+03  0.59598390282E+03  0.68973965532E+03  0.12500000000E+03 0.  0.
          2    1    1    2  501    0  0.10103467136E+01 -0.21881919667E+02  0.16050017791E+03  0.16198810548E+03  0.00000000000E+00 0. -1.
         -2    1    1    2    0  503  0.17599871531E+03 -0.24938689841E+03  0.62966519426E+03  0.69974826170E+03  0.00000000000E+00 0.  1.
<mgrwt>
<rscale>  4 0.33859622E+03</rscale>
<asrwt>0</asrwt>
<pdfrwt beam="1">  1       21 0.22597116E+00 0.33859622E+03</pdfrwt>
<pdfrwt beam="2">  1       21 0.12717443E-01 0.33859622E+03</pdfrwt>
<totfact> 0.43866736E+03</totfact>
</mgrwt>
</event>
<event>
 5    0  0.1972558E-002  0.5320634E+03  0.7546771E-02  0.1005733E+00
         21   -1    0    0  501  502  0.00000000000E+00  0.00000000000E+00  0.88471412073E+03  0.88471412073E+03  0.00000000000E+00 0.  1.
         21   -1    0    0  502  503 -0.00000000000E+00 -0.00000000000E+00 -0.50706975687E+03  0.50706975687E+03  0.00000000000E+00 0.  1.
         25    1    1    2    0    0 -0.43538385677E+03 -0.26581501078E+03  0.32096547023E+03  0.61551649512E+03  0.12500000000E+03 0.  0.
          3    1    1    2  501    0  0.73878500983E+01 -0.29954228398E+02  0.22681551781E+03  0.22890416171E+03  0.00000000000E+00 0. -1.
         -3    1    1    2    0  503  0.42799600667E+03  0.29576923917E+03 -0.17013662418E+03  0.54736322077E+03  0.00000000000E+00 0.  1.
<mgrwt>
<rscale>  4 0.53206337E+03</rscale>
<asrwt>0</asrwt>
<pdfrwt beam="1">  1       21 0.13610986E+00 0.53206337E+03</pdfrwt>
<pdfrwt beam="2">  1       21 0.78010732E-01 0.53206337E+03</pdfrwt>
<totfact> 0.45093846E+02</totfact>
</mgrwt>
</event>
<event>
 5    0  0.1972558E-002  0.3281636E+03  0.7546771E-02  0.1071952E+00
         21   -1    0    0  501  502  0.00000000000E+00  0.00000000000E+00  0.65016439326E+03  0.65016439326E+03  0.00000000000E+00 0.  1.
         21   -1    0    0  502  503 -0.00000000000E+00 -0.00000000000E+00 -0.35064554006E+03  0.35064554006E+03  0.00000000000E+00 0. -1.
         25    1    1    2    0    0 -0.25862102166E+03  0.16446136555E+03 -0.21101393048E+03  0.39253567031E+03  0.12500000000E+03 0.  0.
          4    1    1    2  501    0  0.84507621975E+00 -0.33138105213E+02  0.10513086277E+03  0.11023314600E+03  0.00000000000E+00 0. -1.
         -4    1    1    2    0  503  0.25777594544E+03 -0.13132326034E+03  0.40540192091E+03  0.49804111701E+03  0.00000000000E+00 0.  1.
<mgrwt>
<rscale>  4 0.32816365E+03</rscale>
<asrwt>0</asrwt>
<pdfrwt beam="1">  1       21 0.10002529E+00 0.32816365E+03</pdfrwt>
<pdfrwt beam="2">  1       21 0.53945468E-01 0.32816365E+03</pdfrwt>
<totfact> 0.24319092E+03</totfact>
</mgrwt>
</event>
<event>
 5    0  0.1972558E-002  0.2543508E+03  0.7546771E-02  0.1110586E+00
         21   -1    0    0  501  502  0.00000000000E+00  0.00000000000E+00  0.22570280408E+03  0.22570280408E+03  0.00000000000E+00 0.  1.
         21   -1    0    0  502  503 -0.00000000000E+00 -0.00000000000E+00 -0.29917709582E+03  0.29917709582E+03  0.00000000000E+00 0.  1.
         25    1    1    2    0    0 -0.22489436759E+03  0.15200161345E+02 -0.56033004798E+02  0.26376735792E+03  0.12500000000E+03 0.  0.
          2    1    1    2  501    0  0.21857239396E+03  0.42232668659E+01 -0.48509863779E+02  0.22393064612E+03  0.00000000000E+00 0.  1.
         -2    1    1    2    0  503  0.63219736266E+01 -0.19423428211E+02  0.31068576834E+02  0.37181895871E+02  0.00000000000E+00 0. -1.
<mgrwt>
<rscale>  4 0.25435083E+03</rscale>
<asrwt>0</asrwt>
<pdfrwt beam="1">  1       21 0.34723508E-01 0.25435083E+03</pdfrwt>
<pdfrwt beam="2">  1       21 0.46027245E-01 0.25435083E+03</pdfrwt>
<totfact> 0.35111554E+04</totfact>
</mgrwt>
</event>
<event>
 5    0  0.1972558E-002  0.3233451E+03  0.7546771E-02  0.1074120E+00
         21   -1    0    0  501  502  0.00000000000E+00  0.00000000000E+00  0.37298381116E+03  0.37298381116E+03  0.00000000000E+00 0.  1.
         21   -1    0    0  502  503 -0.00000000000E+00 -0.00000000000E+00 -0.19866076367E+04  0.19866076367E+04  0.00000000000E+00 0.  1.
         25    1    1    2    0    0  0.16656313342E+03 -0.24761893954E+03 -0.18380520637E+04  0.18663115511E+04  0.12500000000E+03 0.  0.
          2    1    1    2  501    0 -0.18720688641E+03  0.23025457523E+03  0.31440511201E+02  0.29841597390E+03  0.00000000000E+00 0. -1.
         -2    1    1    2    0  503  0.20643752989E+02  0.17364364312E+02  0.19298772699E+03  0.19486392291E+03  0.00000000000E+00 0.  1.
<mgrwt>
<rscale>  4 0.32334505E+03</rscale>
<asrwt>0</asrwt>
<pdfrwt beam="1">  1       21 0.57382123E-01 0.32334505E+03</pdfrwt>
<pdfrwt beam="2">  1       21 0.30563196E+00 0.32334505E+03</pdfrwt>
<totfact> 0.76522285E+01</totfact>
</mgrwt>
</event>
<event>
 5    0  0.1972558E-002  0.3876644E+03  0.7546771E-02  0.1048137E+00
         21   -1    0    0  503  502  0.00000000000E+00  0.00000000000E+00  0.10846527089E+04  0.10846527089E+04  0.00000000000E+00 0.  1.
         21   -1    0    0  501  503 -0.00000000000E+00 -0.00000000000E+00 -0.15114249970E+03  0.15114249970E+03  0.00000000000E+00 0. -1.
         25    1    1    2    0    0 -0.79055169886E+02 -0.35834201651E+03  0.26548529581E+03  0.46985759861E+03  0.12500000000E+03 0.  0.
          2    1    1    2  501    0  0.28800240284E+02  0.50482865153E+02  0.66324775436E+02  0.88187013507E+02  0.00000000000E+00 0. -1.
         -2    1    1    2    0  502  0.50254929602E+02  0.30785915135E+03  0.60170013793E+03  0.67775059646E+03  0.00000000000E+00 0.  1.
<mgrwt>
<rscale>  4 0.38766444E+03</rscale>
<asrwt>0</asrwt>
<pdfrwt beam="1">  1       21 0.16686964E+00 0.38766444E+03</pdfrwt>
<pdfrwt beam="2">  1       21 0.23252693E-01 0.38766444E+03</pdfrwt>
<totfact> 0.34501621E+03</totfact>
</mgrwt>
</event>
<event>
 5    0  0.1972558E-002  0.2427889E+03  0.7546771E-02  0.1117949E+00
         21   -1    0    0  501  502  0.00000000000E+00  0.00000000000E+00  0.18291451479E+04  0.18291451479E+04  0.00000000000E+00 0.  1.
         21   -1    0    0  502  503 -0.00000000000E+00 -0.00000000000E+00 -0.17630904209E+03  0.17630904209E+03  0.00000000000E+00 0.  1.
         25    1    1    2    0    0 -0.97032540082E+02 -0.19892049184E+03 -0.37112373207E+02  0.25687935720E+03  0.12500000000E+03 0.  0.
          3    1    1    2  501    0  0.63887375740E+02  0.16435692873E+03  0.23990161865E+03  0.29773744043E+03  0.00000000000E+00 0. -1.
         -3    1    1    2    0  503  0.33145164341E+02  0.34563563117E+02  0.14500468603E+04  0.14508373923E+04  0.00000000000E+00 0.  1.
<mgrwt>
<rscale>  4 0.24278893E+03</rscale>
<asrwt>0</asrwt>
<pdfrwt beam="1">  1       21 0.28140693E+00 0.24278893E+03</pdfrwt>
<pdfrwt beam="2">  1       21 0.27124469E-01 0.24278893E+03</pdfrwt>
<totfact> 0.53166007E+02</totfact>
</mgrwt>
</event>
<event>
 5    0  0.1972558E-002  0.2489986E+03  0.7546771E-02  0.1113939E+00
         21   -1    0    0  501  502  0.00000000000E+00  0.00000000000E+00  0.46588932543E+03  0.46588932543E+03  0.00000000000E+00 0.  1.
         21   -1    0    0  502  503 -0.00000000000E+00 -0.00000000000E+00 -0.20571020408E+03  0.20571020408E+03  0.00000000000E+00 0. -1.
         25    1    1    2    0    0  0.18911069264E+02 -0.21451735315E+03 -0.83289847657E+02  0.26255955909E+03  0.12500000000E+03 0.  0.
          3    1    1    2  501    0 -0.61833502795E+00  0.19118615092E+03  0.28074166858E+03  0.33965925737E+03  0.00000000000E+00 0.  1.
         -3    1    1    2    0  503 -0.18292734236E+02  0.23331202234E+02  0.62727300439E+02  0.69380713054E+02  0.00000000000E+00 0. -1.
<mgrwt>
<rscale>  4 0.24899864E+03</rscale>
<asrwt>0</asrwt>
<pdfrwt beam="1">  1       21 0.71675281E-01 0.24899864E+03</pdfrwt>
<pdfrwt beam="2">  1       21 0.31647724E-01 0.24899864E+03</pdfrwt>
<totfact> 0.16343804E+04</totfact>
</mgrwt>
</event>
<event>
 5    0  0.1972558E-002  0.3020527E+03  0.7546771E-02  0.1084219E+00
         21   -1    0    0  503  502  0.00000000000E+00  0.00000000000E+00  0.20250778769E+04  0.20250778769E+04  0.00000000000E+00 0. -1.
         21   -1    0    0  501  503 -0.00000000000E+00 -0.00000000000E+00 -0.73428205565E+02  0.73428205565E+02  0.00000000000E+00 0.  1.
         25    1    1    2    0    0 -0.18097294661E+03 -0.12169217075E+03  0.58792412485E+03  0.63940594962E+03  0.12500000000E+03 0.  0.
          4    1    1    2  501    0 -0.63404533130E+02 -0.13160099883E+03  0.60999495382E+03  0.62724221908E+03  0.00000000000E+00 0. -1.
         -4    1    1    2    0  502  0.24437747974E+03  0.25329316958E+03  0.75373059263E+03  0.83185791373E+03  0.00000000000E+00 0.  1.
<mgrwt>
<rscale>  4 0.30205266E+03</rscale>
<asrwt>0</asrwt>
<pdfrwt beam="1">  1       21 0.31155040E+00 0.30205266E+03</pdfrwt>
<pdfrwt beam="2">  1       21 0.11296649E-01 0.30205266E+03</pdfrwt>
<totfact> 0.17096716E+03</totfact>
</mgrwt>
</event>
<event>
 5    0  0.1972558E-002  0.2774552E+03  0.7546771E-02  0.1097087E+00
         21   -1    0    0  501  502  0.00000000000E+00  0.00000000000E+00  0.47067844165E+03  0.47067844165E+03  0.00000000000E+00 0.  1.
         21   -1    0    0  502  503 -0.00000000000E+00 -0.00000000000E+00 -0.46876325704E+03  0.46876325704E+03  0.00000000000E+00 0. -1.
         25    1    1    2    0    0  0.15672597326E+03 -0.18598742929E+03 -0.27278673666E+03  0.38625374852E+03  0.12500000000E+03 0.  0.
          2    1    1    2  501    0 -0.16807535731E+02 -0.31621812034E+02  0.29172833806E+03  0.29391811016E+03  0.00000000000E+00 0.  1.
         -2    1    1    2    0  503 -0.13991843753E+03  0.21760924132E+03 -0.17026416786E+02  0.25926984001E+03  0.00000000000E+00 0. -1.
<mgrwt>
<rscale>  4 0.27745522E+03</rscale>
<asrwt>0</asrwt>
<pdfrwt beam="1">  1       21 0.72412068E-01 0.27745522E+03</pdfrwt>
<pdfrwt beam="2">  1       21 0.72117425E-01 0.27745522E+03</pdfrwt>
<totfact> 0.28041942E+03</totfact>
</mgrwt>
</event>
<event>
 5    0  0.1972558E-002  0.3178737E+03  0.7546771E-02  0.1076632E+00
         21   -1    0    0  501  502  0.00000000000E+00  0.00000000000E+00  0.20168769194E+03  0.20168769194E+03  0.00000000000E+00 0.  1.
         21   -1    0    0  502  503 -0.00000000000E+00 -0.00000000000E+00 -0.10975480693E+04  0.10975480693E+04  0.00000000000E+00 0. -1.
         25    1    1    2    0    0 -0.13322716158E+03  0.26013308072E+03 -0.94778763269E+03  0.99967249284E+03  0.12500000000E+03 0.  0.
          2    1    1    2  501    0  0.13895203243E+02 -0.18212328062E+02  0.14790505257E+02  0.27267647724E+02  0.00000000000E+00 0. -1.
         -2    1    1    2    0  503  0.11933195833E+03 -0.24192075266E+03  0.37136750041E+02  0.27229562070E+03  0.00000000000E+00 0.  1.
<mgrwt>
<rscale>  4 0.31787371E+03</rscale>
<asrwt>0</asrwt>
<pdfrwt beam="1">  1       21 0.31028876E-01 0.31787371E+03</pdfrwt>
<pdfrwt beam="2">  1       21 0.16885355E+00 0.31787371E+03</pdfrwt>
<totfact> 0.19702754E+03</totfact>
</mgrwt>
</event>
<event>
 5    0  0.1972558E-002  0.2847850E+03  0.7546771E-02  0.1093104E+00
         21   -1    0    0  501  502  0.00000000000E+00  0.00000000000E+00  0.33805021051E+03  0.33805021051E+03  0.00000000000E+00 0. -1.
         21   -1    0    0  502  503 -0.00000000000E+00 -0.00000000000E+00 -0.71989772757E+03  0.71989772757E+03  0.00000000000E+00 0.  1.
         25    1    1    2    0    0  0.20312114748E+03 -0.15876991769E+03 -0.61168631333E+03  0.67546371719E+03  0.12500000000E+03 0.  0.
          2    1    1    2  501    0  0.20824982409E+02  0.55179839127E+02  0.43699801355E+02  0.73404135966E+02  0.00000000000E+00 0.  1.
         -2    1    1    2    0  503 -0.22394612989E+03  0.10359007856E+03  0.18613899492E+03  0.30908008493E+03  0.00000000000E+00 0. -1.
<mgrwt>
<rscale>  4 0.28478497E+03</rscale>
<asrwt>0</asrwt>
<pdfrwt beam="1">  1       21 0.52007725E-01 0.28478497E+03</pdfrwt>
<pdfrwt beam="2">  1       21 0.11075350E+00 0.28478497E+03</pdfrwt>
<totfact> 0.21021541E+03</totfact>
</mgrwt>
</event>
<event>
 5    0  0.1972558E-002  0.2255210E+03  0.7546771E-02  0.1129833E+00
         21   -1    0    0  501  502  0.00000000000E+00  0.00000000000E+00  0.12155056726E+04  0.12155056726E+04  0.00000000000E+00 0. -1.
         21   -1    0    0  502  503 -0.00000000000E+00 -0.00000000000E+00 -0.13322760628E+03  0.13322760628E+03  0.00000000000E+00 0. -1.
         25    1    1    2    0    0 -0.12571170876E+03  0.20677059708E+03  0.79379771277E+02  0.28369642512E+03  0.12500000000E+03 0.  0.
          1    1    1    2  501    0  0.12766588215E+03 -0.13189145442E+03  0.96266842045E+03  0.98001245959E+03  0.00000000000E+00 0. -1.
         -1    1    1    2    0  503 -0.19541733952E+01 -0.74879142661E+02  0.40229874630E+02  0.85024394217E+02  0.00000000000E+00 0.  1.
<mgrwt>
<rscale>  4 0.22552105E+03</rscale>
<asrwt>0</asrwt>
<pdfrwt beam="1">  1       21 0.18700087E+00 0.22552105E+03</pdfrwt>
<pdfrwt beam="2">  1       21 0.20496556E-01 0.22552105E+03</pdfrwt>
<totfact> 0.34952465E+03</totfact>
</mgrwt>
</event>
<event>
 5    0  0.1972558E-002  0.1983331E+03  0.7546771E-02  0.1151153E+00
         21   -1    0    0  503  502  0.00000000000E+00  0.00000000000E+00  0.16902317641E+04  0.16902317641E+04  0.00000000000E+00 0.  1.
         21   -1    0    0  501  503 -0.00000000000E+00 -0.00000000000E+00 -0.55795769051E+02  0.55795769051E+02  0.00000000000E+00 0.  1.
         25    1    1    2    0    0 -0.20064712777E+03  0.41863541037E+02  0.27435471260E+03  0.36456458176E+03  0.12500000000E+03 0.  0.
          2    1    1    2  501    0  0.51578097053E+02 -0.40513112452E+02  0.17225797432E+03  0.18432151826E+03  0.00000000000E+00 0. -1.
         -2    1    1    2    0  502  0.14906903072E+03 -0.13504285855E+01  0.11878233081E+04  0.11971414331E+04  0.00000000000E+00 0.  1.
<mgrwt>
<rscale>  4 0.19833313E+03</rscale>
<asrwt>0</asrwt>
<pdfrwt beam="1">  1       21 0.26003562E+00 0.19833313E+03</pdfrwt>
<pdfrwt beam="2">  1       21 0.85839658E-02 0.19833313E+03</pdfrwt>
<totfact> 0.61277986E+03</totfact>
</mgrwt>
</event>
<event>
 5    0  0.1972558E-002  0.2675027E+03  0.7546771E-02  0.1102717E+00
         21   -1    0    0  501  502  0.00000000000E+00  0.00000000000E+00  0.52394770742E+03  0.52394770742E+03  0.00000000000E+00 0. -1.
         21   -1    0    0  502  503 -0.00000000000E+00 -0.00000000000E+00 -0.37003764728E+03  0.37003764728E+03  0.00000000000E+00 0. -1.
         25    1    1    2    0    0  0.23773368472E+03 -0.49333085144E+02 -0.24594130799E+03  0.36750943542E+03  0.12500000000E+03 0.  0.
          2    1    1    2  501    0 -0.17366335165E+03  0.14538248430E+03  0.27865043103E+03  0.35908367988E+03  0.00000000000E+00 0. -1.
         -2    1    1    2    0  503 -0.64070333078E+02 -0.96049399157E+02  0.12120093710E+03  0.16739223941E+03  0.00000000000E+00 0.  1.
<mgrwt>
<rscale>  4 0.26750274E+03</rscale>
<asrwt>0</asrwt>
<pdfrwt beam="1">  1       21 0.80607339E-01 0.26750274E+03</pdfrwt>
<pdfrwt beam="2">  1       21 0.56928869E-01 0.26750274E+03</pdfrwt>
<totfact> 0.37168065E+03</totfact>
</mgrwt>
</event>
<event>
 5    0  0.1972558E-002  0.2716105E+03  0.7546771E-02  0.1100361E+00
         21   -1    0    0  501  502  0.00000000000E+00  0.00000000000E+00  0.48068272348E+03  0.48068272348E+03  0.00000000000E+00 0.  1.
         21   -1    0    0  502  503 -0.00000000000E+00 -0.00000000000E+00 -0.22100712551E+03  0.22100712551E+03  0.00000000000E+00 0.  1.
         25    1    1    2    0    0 -0.13421147182E+03 -0.21427462788E+03 -0.35406227829E+02  0.28426209084E+03  0.12500000000E+03 0.  0.
          1    1    1    2  501    0  0.41910135672E+02  0.12020007483E+02  0.13929146462E+03  0.14595565138E+03  0.00000000000E+00 0. -1.
         -1    1    1    2    0  503  0.92301336145E+02  0.20225462039E+03  0.15579036117E+03  0.27147210678E+03  0.00000000000E+00 0.  1.
<mgrwt>
<rscale>  4 0.27161054E+03</rscale>
<asrwt>0</asrwt>
<pdfrwt beam="1">  1       21 0.73951188E-01 0.27161054E+03</pdfrwt>
<pdfrwt beam="2">  1       21 0.34001096E-01 0.27161054E+03</pdfrwt>
<totfact> 0.13071523E+04</totfact>
</mgrwt>
</event>
<event>
 5    0  0.1972558E-002  0.2278961E+03  0.7546771E-02  0.1128129E+00
         21   -1    0    0  501  502  0.00000000000E+00  0.00000000000E+00  0.15849883921E+03  0.15849883921E+03  0.00000000000E+00 0.  1.
         21   -1    0    0  502  503 -0.00000000000E+00 -0.00000000000E+00 -0.72537895200E+03  0.72537895200E+03  0.00000000000E+00 0. -1.
         25    1    1    2    0    0 -0.18321161606E+03  0.85798808648E+02 -0.56992031755E+03  0.61754522117E+03  0.12500000000E+03 0.  0.
          3    1    1    2  501    0  0.88661149215E+02  0.33903481888E+02 -0.46832465508E+02  0.10584670656E+03  0.00000000000E+00 0. -1.
         -3    1    1    2    0  503  0.94550466845E+02 -0.11970229054E+03  0.49872670271E+02  0.16048586349E+03  0.00000000000E+00 0.  1.
<mgrwt>
<rscale>  4 0.22789611E+03</rscale>
<asrwt>0</asrwt>
<pdfrwt beam="1">  1       21 0.24384437E-01 0.22789611E+03</pdfrwt>
<pdfrwt beam="2">  1       21 0.11159676E+00 0.22789611E+03</pdfrwt>
<totfact> 0.97799675E+03</totfact>
</mgrwt>
</event>
<event>
 5    0  0.1972558E-002  0.2428607E+03  0.7546771E-02  0.1117902E+00
         21   -1    0    0  503  502  0.00000000000E+00  0.00000000000E+00  0.61413752203E+03  0.61413752203E+03  0.00000000000E+00 0. -1.
         21   -1    0    0  501  503 -0.00000000000E+00 -0.00000000000E+00 -0.11143111545E+03  0.11143111545E+03  0.00000000000E+00 0. -1.
         25    1    1    2    0    0  0.16597235013E+03 -0.11625408418E+03  0.10354258265E+03  0.25963031317E+03  0.12500000000E+03 0.  0.
          3    1    1    2  501    0  0.17184873872E+02  0.12769923334E+02  0.10168545751E+02  0.23702112873E+02  0.00000000000E+00 0.  1.
         -3    1    1    2    0  502 -0.18315722400E+03  0.10348416085E+03  0.38899527818E+03  0.44223621143E+03  0.00000000000E+00 0. -1.
<mgrwt>
<rscale>  4 0.24286069E+03</rscale>
<asrwt>0</asrwt>
<pdfrwt beam="1">  1       21 0.94482694E-01 0.24286069E+03</pdfrwt>
<pdfrwt beam="2">  1       21 0.17143249E-01 0.24286069E+03</pdfrwt>
<totfact> 0.28061616E+04</totfact>
</mgrwt>
</event>
<event>
 5    0  0.1972558E-002  0.2740772E+03  0.7546771E-02  0.1098969E+00
         21   -1    0    0  501  502  0.00000000000E+00  0.00000000000E+00  0.99469759545E+03  0.99469759545E+03  0.00000000000E+00 0.  1.
         21   -1    0    0  502  503 -0.00000000000E+00 -0.00000000000E+00 -0.30443002026E+03  0.30443002026E+03  0.00000000000E+00 0.  1.
         25    1    1    2    0    0  0.56848297571E+02  0.23699651484E+03 -0.18532192996E+03  0.33070877628E+03  0.12500000000E+03 0.  0.
          1    1    1    2  501    0 -0.10568836765E+03 -0.22548444189E+03  0.29668558487E+03  0.38734429241E+03  0.00000000000E+00 0. -1.
         -1    1    1    2    0  503  0.48840070084E+02 -0.11512072946E+02  0.57890392029E+03  0.58107454702E+03  0.00000000000E+00 0.  1.
<mgrwt>
<rscale>  4 0.27407722E+03</rscale>
<asrwt>0</asrwt>
<pdfrwt beam="1">  1       21 0.15303040E+00 0.27407722E+03</pdfrwt>
<pdfrwt beam="2">  1       21 0.46835388E-01 0.27407722E+03</pdfrwt>
<totfact> 0.11523486E+03</totfact>
</mgrwt>
</event>
<event>
 5    0  0.1972558E-002  0.2597108E+03  0.7546771E-02  0.1107317E+00
         21   -1    0    0  501  502  0.00000000000E+00  0.00000000000E+00  0.38221982584E+03  0.38221982584E+03  0.00000000000E+00 0. -1.
         21   -1    0    0  502  503 -0.00000000000E+00 -0.00000000000E+00 -0.70015146619E+03  0.70015146619E+03  0.00000000000E+00 0.  1.
         25    1    1    2    0    0  0.22004940518E+03 -0.42713197513E+02 -0.60541173784E+03  0.65756712986E+03  0.12500000000E+03 0.  0.
          2    1    1    2  501    0 -0.26455790367E+03  0.42740330500E+02  0.24036390363E+03  0.35998948098E+03  0.00000000000E+00 0. -1.
         -2    1    1    2    0  503  0.44508498497E+02 -0.27132987456E-01  0.47116193852E+02  0.64814681190E+02  0.00000000000E+00 0.  1.
<mgrwt>
<rscale>  4 0.25971078E+03</rscale>
<asrwt>0</asrwt>
<pdfrwt beam="1">  1       21 0.58803051E-01 0.25971078E+03</pdfrwt>
<pdfrwt beam="2">  1       21 0.10771561E+00 0.25971078E+03</pdfrwt>
<totfact> 0.17598454E+03</totfact>
</mgrwt>
</event>
<event>
 5    0  0.1972558E-002  0.2875770E+03  0.7546771E-02  0.1091621E+00
         21   -1    0    0  501  502  0.00000000000E+00  0.00000000000E+00  0.40992952583E+03  0.40992952583E+03  0.00000000000E+00 0. -1.
         21   -1    0    0  502  503 -0.00000000000E+00 -0.00000000000E+00 -0.13384722470E+04  0.13384722470E+04  0.00000000000E+00 0.  1.
         25    1    1    2    0    0  0.25214686317E+03 -0.61437603126E+02 -0.12433267191E+04  0.12762597503E+04  0.12500000000E+03 0.  0.
          4    1    1    2  501    0 -0.22106245652E+03  0.13916116623E+03  0.27557558326E+03  0.37970559907E+03  0.00000000000E+00 0. -1.
         -4    1    1    2    0  503 -0.31084406648E+02 -0.77723563101E+02  0.39208414722E+02  0.92436423464E+02  0.00000000000E+00 0.  1.
<mgrwt>
<rscale>  4 0.28757703E+03</rscale>
<asrwt>0</asrwt>
<pdfrwt beam="1">  1       21 0.63066081E-01 0.28757703E+03</pdfrwt>
<pdfrwt beam="2">  1       21 0.20591881E+00 0.28757703E+03</pdfrwt>
<totfact> 0.25878115E+02</totfact>
</mgrwt>
</event>
<event>
 5    0  0.1972558E-002  0.3056249E+03  0.7546771E-02  0.1082462E+00
         21   -1    0    0  501  502  0.00000000000E+00  0.00000000000E+00  0.26833992114E+03  0.26833992114E+03  0.00000000000E+00 0. -1.
         21   -1    0    0  502  503 -0.00000000000E+00 -0.00000000000E+00 -0.97728330089E+03  0.97728330089E+03  0.00000000000E+00 0. -1.
         25    1    1    2    0    0  0.10385442992E+03 -0.25977734532E+03 -0.59806922260E+03  0.67199836814E+03  0.12500000000E+03 0.  0.
          3    1    1    2  501    0  0.18225569514E+02  0.99934984141E+01  0.17419400299E+03  0.17542973543E+03  0.00000000000E+00 0. -1.
         -3    1    1    2    0  503 -0.12207999944E+03  0.24978384691E+03 -0.28506816014E+03  0.39819511846E+03  0.00000000000E+00 0.  1.
<mgrwt>
<rscale>  4 0.30562492E+03</rscale>
<asrwt>0</asrwt>
<pdfrwt beam="1">  1       21 0.41283066E-01 0.30562492E+03</pdfrwt>
<pdfrwt beam="2">  1       21 0.15035127E+00 0.30562492E+03</pdfrwt>
<totfact> 0.15354964E+03</totfact>
</mgrwt>
</event>
<event>
 5    0  0.1972558E-002  0.3769212E+03  0.7546771E-02  0.1052078E+00
         21   -1    0    0  501  502  0.00000000000E+00  0.00000000000E+00  0.10327437290E+03  0.10327437290E+03  0.00000000000E+00 0.  1.
         21   -1    0    0  502  503 -0.00000000000E+00 -0.00000000000E+00 -0.18792305374E+04  0.18792305374E+04  0.00000000000E+00 0.  1.
         25    1    1    2    0    0  0.56769654943E+02 -0.37788994448E+03 -0.12523762435E+04  0.13153307033E+04  0.12500000000E+03 0.  0.
          4    1    1    2  501    0 -0.21117480391E+02  0.62499056894E+02 -0.14962339818E+02  0.67645781121E+02  0.00000000000E+00 0. -1.
         -4    1    1    2    0  503 -0.35652174552E+02  0.31539088758E+03 -0.50861758126E+03  0.59952842592E+03  0.00000000000E+00 0.  1.
<mgrwt>
<rscale>  4 0.37692121E+03</rscale>
<asrwt>0</asrwt>
<pdfrwt beam="1">  1       21 0.15888365E-01 0.37692121E+03</pdfrwt>
<pdfrwt beam="2">  1       21 0.28911239E+00 0.37692121E+03</pdfrwt>
<totfact> 0.11801280E+03</totfact>
</mgrwt>
</event>
<event>
 5    0  0.1972558E-002  0.3168419E+03  0.7546771E-02  0.1077112E+00
         21   -1    0    0  501  502  0.00000000000E+00  0.00000000000E+00  0.68762848574E+03  0.68762848574E+03  0.00000000000E+00 0.  1.
         21   -1    0    0  502  503 -0.00000000000E+00 -0.00000000000E+00 -0.22236011593E+03  0.22236011593E+03  0.00000000000E+00 0.  1.
         25    1    1    2    0    0 -0.12387487620E+03  0.27165479859E+03 -0.16749704880E+02  0.32410934445E+03  0.12500000000E+03 0.  0.
          2    1    1    2  501    0 -0.24347286579E+02 -0.40901894057E+02  0.13763370807E+03  0.14563238959E+03  0.00000000000E+00 0. -1.
         -2    1    1    2    0  503  0.14822216278E+03 -0.23075290453E+03  0.34438436662E+03  0.44024686763E+03  0.00000000000E+00 0.  1.
<mgrwt>
<rscale>  4 0.31684186E+03</rscale>
<asrwt>0</asrwt>
<pdfrwt beam="1">  1       21 0.10578900E+00 0.31684186E+03</pdfrwt>
<pdfrwt beam="2">  1       21 0.34209249E-01 0.31684186E+03</pdfrwt>
<totfact> 0.54722159E+03</totfact>
</mgrwt>
</event>
<event>
 5    0  0.1972558E-002  0.2475326E+03  0.7546771E-02  0.1114874E+00
         21   -1    0    0  501  502  0.00000000000E+00  0.00000000000E+00  0.14799772216E+03  0.14799772216E+03  0.00000000000E+00 0. -1.
         21   -1    0    0  502  503 -0.00000000000E+00 -0.00000000000E+00 -0.62280589132E+03  0.62280589132E+03  0.00000000000E+00 0.  1.
         25    1    1    2    0    0  0.19467213031E+03  0.99584581291E+02 -0.47240811151E+03  0.53535852564E+03  0.12500000000E+03 0.  0.
          2    1    1    2  501    0 -0.18176140010E+03 -0.83403827480E+02 -0.28638994965E+02  0.20202375364E+03  0.00000000000E+00 0. -1.
         -2    1    1    2    0  503 -0.12910730211E+02 -0.16180753811E+02  0.26238937314E+02  0.33421334202E+02  0.00000000000E+00 0.  1.
<mgrwt>
<rscale>  4 0.24753263E+03</rscale>
<asrwt>0</asrwt>
<pdfrwt beam="1">  1       21 0.22768880E-01 0.24753263E+03</pdfrwt>
<pdfrwt beam="2">  1       21 0.95816294E-01 0.24753263E+03</pdfrwt>
<totfact> 0.15903565E+04</totfact>
</mgrwt>
</event>
<event>
 5    0  0.1972558E-002  0.2236795E+03  0.7546771E-02  0.1131169E+00
         21   -1    0    0  501  502  0.00000000000E+00  0.00000000000E+00  0.55267059805E+03  0.55267059805E+03  0.00000000000E+00 0.  1.
         21   -1    0    0  502  503 -0.00000000000E+00 -0.00000000000E+00 -0.21790169997E+03  0.21790169997E+03  0.00000000000E+00 0.  1.
         25    1    1    2    0    0 -0.21594378857E+03  0.24264055914E+02 -0.64153985080E+02  0.25876861872E+03  0.12500000000E+03 0.  0.
          3    1    1    2  501    0  0.18088594562E+03  0.23022172660E+02  0.41283977744E+03  0.45131632764E+03  0.00000000000E+00 0.  1.
         -3    1    1    2    0  503  0.35057842947E+02 -0.47286228574E+02 -0.13916894273E+02  0.60487351662E+02  0.00000000000E+00 0. -1.
<mgrwt>
<rscale>  4 0.22367949E+03</rscale>
<asrwt>0</asrwt>
<pdfrwt beam="1">  1       21 0.85026245E-01 0.22367949E+03</pdfrwt>
<pdfrwt beam="2">  1       21 0.33523339E-01 0.22367949E+03</pdfrwt>
<totfact> 0.10051790E+04</totfact>
</mgrwt>
</event>
<event>
 5    0  0.1972558E-002  0.2477084E+03  0.7546771E-02  0.1114762E+00
         21   -1    0    0  501  502  0.00000000000E+00  0.00000000000E+00  0.94571058724E+02  0.94571058724E+02  0.00000000000E+00 0. -1.
         21   -1    0    0  502  503 -0.00000000000E+00 -0.00000000000E+00 -0.96053281184E+03  0.96053281184E+03  0.00000000000E+00 0.  1.
         25    1    1    2    0    0 -0.19650720150E+03 -0.85538585124E+02 -0.64907510606E+03  0.69487799152E+03  0.12500000000E+03 0.  0.
          1    1    1    2  501    0  0.17975838532E+03  0.11799523595E+03 -0.23577990097E+03  0.31910517780E+03  0.00000000000E+00 0. -1.
         -1    1    1    2    0  503  0.16748816189E+02 -0.32456650831E+02  0.18893253918E+02  0.41120701240E+02  0.00000000000E+00 0.  1.
<mgrwt>
<rscale>  4 0.24770838E+03</rscale>
<asrwt>0</asrwt>
<pdfrwt beam="1">  1       21 0.14549394E-01 0.24770838E+03</pdfrwt>
<pdfrwt beam="2">  1       21 0.14777427E+00 0.24770838E+03</pdfrwt>
<totfact> 0.12429670E+04</totfact>
</mgrwt>
</event>
<event>
 5    0  0.1972558E-002  0.2830954E+03  0.7546771E-02  0.1094010E+00
         21   -1    0    0  503  502  0.00000000000E+00  0.00000000000E+00  0.12130558088E+04  0.12130558088E+04  0.00000000000E+00 0. -1.
         21   -1    0    0  501  503 -0.00000000000E+00 -0.00000000000E+00 -0.89164774835E+02  0.89164774835E+02  0.00000000000E+00 0. -1.
         25    1    1    2    0    0 -0.58986370170E+02  0.23365990285E+03  0.48083084201E+03  0.55217718234E+03  0.12500000000E+03 0.  0.
          3    1    1    2  501    0 -0.80495768538E+02 -0.47580879740E+01  0.32127146155E+03  0.33123641128E+03  0.00000000000E+00 0.  1.
         -3    1    1    2    0  502  0.13948213871E+03 -0.22890181488E+03  0.32178873044E+03  0.41880699004E+03  0.00000000000E+00 0. -1.
<mgrwt>
<rscale>  4 0.28309537E+03</rscale>
<asrwt>0</asrwt>
<pdfrwt beam="1">  1       21 0.18662396E+00 0.28309537E+03</pdfrwt>
<pdfrwt beam="2">  1       21 0.13717659E-01 0.28309537E+03</pdfrwt>
<totfact> 0.70981954E+03</totfact>
</mgrwt>
</event>
<event>
 5    0  0.1972558E-002  0.2527864E+03  0.7546771E-02  0.1111556E+00
         21   -1    0    0  501  502  0.00000000000E+00  0.00000000000E+00  0.35090397455E+03  0.35090397455E+03  0.00000000000E+00 0.  1.
         21   -1    0    0  502  503 -0.00000000000E+00 -0.00000000000E+00 -0.16090685444E+04  0.16090685444E+04  0.00000000000E+00 0.  1.
         25    1    1    2    0    0  0.85613820420E+02 -0.20282004497E+03 -0.15090865426E+04  0.15301741371E+04  0.12500000000E+03 0.  0.
          3    1    1    2  501    0 -0.44987517854E+02 -0.12030305603E+02  0.19991912403E+03  0.20527118933E+03  0.00000000000E+00 0.  1.
         -3    1    1    2    0  503 -0.40626302566E+02  0.21485035057E+03  0.51002848699E+02  0.22452719251E+03  0.00000000000E+00 0. -1.
<mgrwt>
<rscale>  4 0.25278637E+03</rscale>
<asrwt>0</asrwt>
<pdfrwt beam="1">  1       21 0.53985228E-01 0.25278637E+03</pdfrwt>
<pdfrwt beam="2">  1       21 0.24754900E+00 0.25278637E+03</pdfrwt>
<totfact> 0.20686442E+02</totfact>
</mgrwt>
</event>
<event>
 5    0  0.1972558E-002  0.2612999E+03  0.7546771E-02  0.1106365E+00
         21   -1    0    0  501  502  0.00000000000E+00  0.00000000000E+00  0.38425763949E+03  0.38425763949E+03  0.00000000000E+00 0.  1.
         21   -1    0    0  502  503 -0.00000000000E+00 -0.00000000000E+00 -0.70044742501E+03  0.70044742501E+03  0.00000000000E+00 0.  1.
         25    1    1    2    0    0 -0.21219456175E+03  0.13384582752E+03 -0.54133419152E+03  0.60959736260E+03  0.12500000000E+03 0.  0.
          4    1    1    2  501    0  0.13005618512E+03  0.45611780684E+02  0.24045499556E+03  0.27715275700E+03  0.00000000000E+00 0.  1.
         -4    1    1    2    0  503  0.82138376629E+02 -0.17945760821E+03 -0.15310589560E+02  0.19795494490E+03  0.00000000000E+00 0. -1.
<mgrwt>
<rscale>  4 0.26129992E+03</rscale>
<asrwt>0</asrwt>
<pdfrwt beam="1">  1       21 0.59116561E-01 0.26129992E+03</pdfrwt>
<pdfrwt beam="2">  1       21 0.10776114E+00 0.26129992E+03</pdfrwt>
<totfact> 0.17360443E+03</totfact>
</mgrwt>
</event>
<event>
 5    0  0.1972558E-002  0.2835373E+03  0.7546771E-02  0.1093772E+00
         21   -1    0    0  501  502  0.00000000000E+00  0.00000000000E+00  0.28313057441E+03  0.28313057441E+03  0.00000000000E+00 0. -1.
         21   -1    0    0  502  503 -0.00000000000E+00 -0.00000000000E+00 -0.10740576882E+04  0.10740576882E+04  0.00000000000E+00 0. -1.
         25    1    1    2    0    0  0.11943705564E+03  0.22254987344E+03 -0.96238675536E+03  0.10027995429E+04  0.12500000000E+03 0.  0.
          4    1    1    2  501    0 -0.14311849308E+03 -0.23537931959E+03  0.12918065204E+03  0.30425970488E+03  0.00000000000E+00 0. -1.
         -4    1    1    2    0  503  0.23681437441E+02  0.12829446142E+02  0.42278989529E+02  0.50129014784E+02  0.00000000000E+00 0.  1.
<mgrwt>
<rscale>  4 0.28353729E+03</rscale>
<asrwt>0</asrwt>
<pdfrwt beam="1">  1       21 0.43558551E-01 0.28353729E+03</pdfrwt>
<pdfrwt beam="2">  1       21 0.16523964E+00 0.28353729E+03</pdfrwt>
<totfact> 0.10786851E+03</totfact>
</mgrwt>
</event>
<event>
 5    0  0.1972558E-002  0.2447166E+03  0.7546771E-02  0.1116690E+00
         21   -1    0    0  501  502  0.00000000000E+00  0.00000000000E+00  0.11048225325E+03  0.11048225325E+03  0.00000000000E+00 0. -1.
         21   -1    0    0  502  503 -0.00000000000E+00 -0.00000000000E+00 -0.13815943029E+04  0.13815943029E+04  0.00000000000E+00 0.  1.
         25    1    1    2    0    0  0.19936392313E+03  0.78527192141E+02 -0.11837628088E+04  0.12094758705E+04  0.12500000000E+03 0.  0.
          2    1    1    2  501    0 -0.17525989879E+03 -0.85566928256E+02 -0.12909301527E+03  0.23388616447E+03  0.00000000000E+00 0.  1.
         -2    1    1    2    0  503 -0.24104024342E+02  0.70397361156E+01  0.41743774425E+02  0.48714521216E+02  0.00000000000E+00 0. -1.
<mgrwt>
<rscale>  4 0.24471658E+03</rscale>
<asrwt>0</asrwt>
<pdfrwt beam="1">  1       21 0.16997269E-01 0.24471658E+03</pdfrwt>
<pdfrwt beam="2">  1       21 0.21255297E+00 0.24471658E+03</pdfrwt>
<totfact> 0.33300402E+03</totfact>
</mgrwt>
</event>
<event>
 5    0  0.1972558E-002  0.3329021E+03  0.7546771E-02  0.1069860E+00
         21   -1    0    0  501  502  0.00000000000E+00  0.00000000000E+00  0.13331979210E+04  0.13331979210E+04  0.00000000000E+00 0.  1.
         21   -1    0    0  502  503 -0.00000000000E+00 -0.00000000000E+00 -0.25032234905E+03  0.25032234905E+03  0.00000000000E+00 0.  1.
         25    1    1    2    0    0 -0.20620117370E+03  0.51502344840E+00 -0.64628134481E+02  0.24964171336E+03  0.12500000000E+03 0.  0.
          4    1    1    2  501    0  0.25689727050E+03  0.21130552910E+03  0.10382029741E+04  0.10901888138E+04  0.00000000000E+00 0.  1.
         -4    1    1    2    0  503 -0.50696096804E+02 -0.21182055255E+03  0.10930073229E+03  0.24368974289E+03  0.00000000000E+00 0. -1.
<mgrwt>
<rscale>  4 0.33290208E+03</rscale>
<asrwt>0</asrwt>
<pdfrwt beam="1">  1       21 0.20510737E+00 0.33290208E+03</pdfrwt>
<pdfrwt beam="2">  1       21 0.38511131E-01 0.33290208E+03</pdfrwt>
<totfact> 0.71544674E+02</totfact>
</mgrwt>
</event>
<event>
 5    0  0.1972558E-002  0.2682651E+03  0.7546771E-02  0.1102277E+00
         21   -1    0    0  501  502  0.00000000000E+00  0.00000000000E+00  0.16869672947E+03  0.16869672947E+03  0.00000000000E+00 0.  1.
         21   -1    0    0  502  503 -0.00000000000E+00 -0.00000000000E+00 -0.10479895490E+04  0.10479895490E+04  0.00000000000E+00 0. -1.
         25    1    1    2    0    0  0.23694721232E+03 -0.22014800002E+02 -0.84042543564E+03  0.88236531308E+03  0.12500000000E+03 0.  0.
          3    1    1    2  501    0 -0.12023647417E+00  0.35333504767E+02  0.66085202067E+02  0.74938140811E+02  0.00000000000E+00 0. -1.
         -3    1    1    2    0  503 -0.23682697585E+03 -0.13318704765E+02 -0.10495258595E+03  0.25938282457E+03  0.00000000000E+00 0.  1.
<mgrwt>
<rscale>  4 0.26826507E+03</rscale>
<asrwt>0</asrwt>
<pdfrwt beam="1">  1       21 0.25953343E-01 0.26826507E+03</pdfrwt>
<pdfrwt beam="2">  1       21 0.16122916E+00 0.26826507E+03</pdfrwt>
<totfact> 0.32761172E+03</totfact>
</mgrwt>
</event>
<event>
 5    0  0.1972558E-002  0.2416478E+03  0.7546771E-02  0.1118700E+00
         21   -1    0    0  501  502  0.00000000000E+00  0.00000000000E+00  0.23955628291E+02  0.23955628291E+02  0.00000000000E+00 0. -1.
         21   -1    0    0  502  503 -0.00000000000E+00 -0.00000000000E+00 -0.30191162524E+04  0.30191162524E+04  0.00000000000E+00 0. -1.
         25    1    1    2    0    0 -0.87396144106E+02  0.19295140956E+03 -0.19074386636E+04  0.19232305082E+04  0.12500000000E+03 0.  0.
          2    1    1    2  501    0 -0.34756687090E+02 -0.30634515110E+02 -0.85574222829E+02  0.97311090972E+02  0.00000000000E+00 0.  1.
         -2    1    1    2    0  503  0.12215283120E+03 -0.16231689445E+03 -0.10021477377E+04  0.10225302815E+04  0.00000000000E+00 0. -1.
<mgrwt>
<rscale>  4 0.24164783E+03</rscale>
<asrwt>0</asrwt>
<pdfrwt beam="1">  1       21 0.36854843E-02 0.24164783E+03</pdfrwt>
<pdfrwt beam="2">  1       21 0.46447905E+00 0.24164783E+03</pdfrwt>
<totfact> 0.13974127E+03</totfact>
</mgrwt>
</event>
<event>
 5    0  0.1972558E-002  0.2490382E+03  0.7546771E-02  0.1113914E+00
         21   -1    0    0  501  502  0.00000000000E+00  0.00000000000E+00  0.88100286852E+02  0.88100286852E+02  0.00000000000E+00 0.  1.
         21   -1    0    0  502  503 -0.00000000000E+00 -0.00000000000E+00 -0.92381145375E+03  0.92381145375E+03  0.00000000000E+00 0.  1.
         25    1    1    2    0    0 -0.86413832822E+02  0.19730099427E+03 -0.68675807888E+03  0.73051809816E+03  0.12500000000E+03 0.  0.
          3    1    1    2  501    0  0.25916747276E+02 -0.13505518931E+03 -0.13639575885E+03  0.19368888709E+03  0.00000000000E+00 0.  1.
         -3    1    1    2    0  503  0.60497085546E+02 -0.62245804956E+02 -0.12557329168E+02  0.87704755344E+02  0.00000000000E+00 0. -1.
<mgrwt>
<rscale>  4 0.24903822E+03</rscale>
<asrwt>0</asrwt>
<pdfrwt beam="1">  1       21 0.13553891E-01 0.24903822E+03</pdfrwt>
<pdfrwt beam="2">  1       21 0.14212483E+00 0.24903822E+03</pdfrwt>
<totfact> 0.15660025E+04</totfact>
</mgrwt>
</event>
<event>
 5    0  0.1972558E-002  0.2268453E+03  0.7546771E-02  0.1128880E+00
         21   -1    0    0  503  502  0.00000000000E+00  0.00000000000E+00  0.13161601933E+03  0.13161601933E+03  0.00000000000E+00 0. -1.
         21   -1    0    0  501  503 -0.00000000000E+00 -0.00000000000E+00 -0.60495661954E+03  0.60495661954E+03  0.00000000000E+00 0. -1.
         25    1    1    2    0    0 -0.20712353895E+03  0.39488062696E+01 -0.39980759636E+03  0.46731880721E+03  0.12500000000E+03 0.  0.
          1    1    1    2  501    0  0.21526258990E+02 -0.78586680633E+01 -0.80286190047E+02  0.83492579324E+02  0.00000000000E+00 0.  1.
         -1    1    1    2    0  502  0.18559727996E+03  0.39098617937E+01  0.67531862008E+01  0.18576125235E+03  0.00000000000E+00 0. -1.
<mgrwt>
<rscale>  4 0.22684526E+03</rscale>
<asrwt>0</asrwt>
<pdfrwt beam="1">  1       21 0.20248618E-01 0.22684526E+03</pdfrwt>
<pdfrwt beam="2">  1       21 0.93070250E-01 0.22684526E+03</pdfrwt>
<totfact> 0.21489679E+04</totfact>
</mgrwt>
</event>
<event>
 5    0  0.1972558E-002  0.2646301E+03  0.7546771E-02  0.1104393E+00
         21   -1    0    0  501  502  0.00000000000E+00  0.00000000000E+00  0.14150134245E+03  0.14150134245E+03  0.00000000000E+00 0. -1.
         21   -1    0    0  502  503 -0.00000000000E+00 -0.00000000000E+00 -0.15148400596E+04  0.15148400596E+04  0.00000000000E+00 0. -1.
         25    1    1    2    0    0 -0.12515298531E+02 -0.24093724650E+03 -0.10650994561E+04  0.10992130097E+04  0.12500000000E+03 0.  0.
          1    1    1    2  501    0 -0.19672195445E+02  0.22037962842E+03 -0.40034569092E+03  0.45741758617E+03  0.00000000000E+00 0.  1.
         -1    1    1    2    0  503  0.32187493975E+02  0.20557618078E+02  0.92106429878E+02  0.99710806106E+02  0.00000000000E+00 0. -1.
<mgrwt>
<rscale>  4 0.26463013E+03</rscale>
<asrwt>0</asrwt>
<pdfrwt beam="1">  1       21 0.21769438E-01 0.26463013E+03</pdfrwt>
<pdfrwt beam="2">  1       21 0.23305231E+00 0.26463013E+03</pdfrwt>
<totfact> 0.15382041E+03</totfact>
</mgrwt>
</event>
<event>
 5    0  0.1972558E-002  0.2116761E+03  0.7546771E-02  0.1140246E+00
         21   -1    0    0  503  502  0.00000000000E+00  0.00000000000E+00  0.21308780655E+04  0.21308780655E+04  0.00000000000E+00 0. -1.
         21   -1    0    0  501  503 -0.00000000000E+00 -0.00000000000E+00 -0.44600571666E+02  0.44600571666E+02  0.00000000000E+00 0.  1.
         25    1    1    2    0    0 -0.10787624930E+02 -0.20556140455E+03  0.35530558702E+03  0.42923061874E+03  0.12500000000E+03 0.  0.
          1    1    1    2  501    0  0.20175934050E+02  0.11662526370E+03  0.58866039858E+03  0.60044115891E+03  0.00000000000E+00 0.  1.
         -1    1    1    2    0  502 -0.93883091204E+01  0.88936140855E+02  0.11423115082E+04  0.11458068595E+04  0.00000000000E+00 0. -1.
<mgrwt>
<rscale>  4 0.21167614E+03</rscale>
<asrwt>0</asrwt>
<pdfrwt beam="1">  1       21 0.32782732E+00 0.21167614E+03</pdfrwt>
<pdfrwt beam="2">  1       21 0.68616281E-02 0.21167614E+03</pdfrwt>
<totfact> 0.36073858E+03</totfact>
</mgrwt>
</event>
<event>
 5    0  0.1972558E-002  0.3536829E+03  0.7546771E-02  0.1061113E+00
         21   -1    0    0  501  502  0.00000000000E+00  0.00000000000E+00  0.66126653069E+03  0.66126653069E+03  0.00000000000E+00 0.  1.
         21   -1    0    0  502  503 -0.00000000000E+00 -0.00000000000E+00 -0.54423671821E+03  0.54423671821E+03  0.00000000000E+00 0. -1.
         25    1    1    2    0    0 -0.32973039861E+03 -0.18021141401E+02 -0.42075652888E+03  0.54927948614E+03  0.12500000000E+03 0.  0.
          1    1    1    2  501    0 -0.65324077356E+01  0.21296855552E+02  0.10924724112E+03  0.11149523801E+03  0.00000000000E+00 0. -1.
         -1    1    1    2    0  503  0.33626280634E+03 -0.32757141512E+01  0.42853910024E+03  0.54472852474E+03  0.00000000000E+00 0.  1.
<mgrwt>
<rscale>  4 0.35368294E+03</rscale>
<asrwt>0</asrwt>
<pdfrwt beam="1">  1       21 0.10173331E+00 0.35368294E+03</pdfrwt>
<pdfrwt beam="2">  1       21 0.83728726E-01 0.35368294E+03</pdfrwt>
<totfact> 0.86658523E+02</totfact>
</mgrwt>
</event>
<event>
 5    0  0.1972558E-002  0.2688674E+03  0.7546771E-02  0.1101930E+00
         21   -1    0    0  503  502  0.00000000000E+00  0.00000000000E+00  0.22421045732E+03  0.22421045732E+03  0.00000000000E+00 0.  1.
         21   -1    0    0  501  503 -0.00000000000E+00 -0.00000000000E+00 -0.85563925044E+03  0.85563925044E+03  0.00000000000E+00 0. -1.
         25    1    1    2    0    0 -0.23672956048E+03 -0.38194729980E+02 -0.69884865838E+03  0.74934249147E+03  0.12500000000E+03 0.  0.
          4    1    1    2  501    0  0.54005688074E+01  0.62436682935E+02 -0.39955446802E+02  0.74323234917E+02  0.00000000000E+00 0.  1.
         -4    1    1    2    0  502  0.23132899168E+03 -0.24241952955E+02  0.10737531205E+03  0.25618398137E+03  0.00000000000E+00 0. -1.
<mgrwt>
<rscale>  4 0.26886738E+03</rscale>
<asrwt>0</asrwt>
<pdfrwt beam="1">  1       21 0.34493917E-01 0.26886738E+03</pdfrwt>
<pdfrwt beam="2">  1       21 0.13163681E+00 0.26886738E+03</pdfrwt>
<totfact> 0.32027392E+03</totfact>
</mgrwt>
</event>
<event>
 5    0  0.1972558E-002  0.2900363E+03  0.7546771E-02  0.1090330E+00
         21   -1    0    0  501  502  0.00000000000E+00  0.00000000000E+00  0.34041473464E+03  0.34041473464E+03  0.00000000000E+00 0. -1.
         21   -1    0    0  502  503 -0.00000000000E+00 -0.00000000000E+00 -0.29217335550E+03  0.29217335550E+03  0.00000000000E+00 0.  1.
         25    1    1    2    0    0 -0.22679690325E+03 -0.17248679429E+03  0.18920099206E+02  0.31172343460E+03  0.12500000000E+03 0.  0.
          1    1    1    2  501    0  0.21127749508E+03  0.12741998820E+03 -0.25708667250E+02  0.24806242942E+03  0.00000000000E+00 0. -1.
         -1    1    1    2    0  503  0.15519408175E+02  0.45066806082E+02  0.55029947180E+02  0.72802226114E+02  0.00000000000E+00 0.  1.
<mgrwt>
<rscale>  4 0.29003632E+03</rscale>
<asrwt>0</asrwt>
<pdfrwt beam="1">  1       21 0.52371498E-01 0.29003632E+03</pdfrwt>
<pdfrwt beam="2">  1       21 0.44949747E-01 0.29003632E+03</pdfrwt>
<totfact> 0.15602938E+04</totfact>
</mgrwt>
</event>
<event>
 5    0  0.1972558E-002  0.3196221E+03  0.7546771E-02  0.1075823E+00
         21   -1    0    0  501  502  0.00000000000E+00  0.00000000000E+00  0.91394832823E+03  0.91394832823E+03  0.00000000000E+00 0. -1.
         21   -1    0    0  502  503 -0.00000000000E+00 -0.00000000000E+00 -0.14830037415E+03  0.14830037415E+03  0.00000000000E+00 0.  1.
         25    1    1    2    0    0 -0.12977708985E+03  0.27793237715E+03  0.23218898048E+03  0.40450614578E+03  0.12500000000E+03 0.  0.
          1    1    1    2  501    0  0.27936988854E+02 -0.15289030135E+02  0.27055417588E+03  0.27242208405E+03  0.00000000000E+00 0. -1.
         -1    1    1    2    0  503  0.10184010099E+03 -0.26264334702E+03  0.26290479771E+03  0.38532047254E+03  0.00000000000E+00 0.  1.
<mgrwt>
<rscale>  4 0.31962211E+03</rscale>
<asrwt>0</asrwt>
<pdfrwt beam="1">  1       21 0.14060743E+00 0.31962211E+03</pdfrwt>
<pdfrwt beam="2">  1       21 0.22815443E-01 0.31962211E+03</pdfrwt>
<totfact> 0.58835652E+03</totfact>
</mgrwt>
</event>
<event>
 5    0  0.1972558E-002  0.2503281E+03  0.7546771E-02  0.1113098E+00
         21   -1    0    0  503  502  0.00000000000E+00  0.00000000000E+00  0.17015901066E+03  0.17015901066E+03  0.00000000000E+00 0.  1.
         21   -1    0    0  501  503 -0.00000000000E+00 -0.00000000000E+00 -0.82151181845E+03  0.82151181845E+03  0.00000000000E+00 0.  1.
         25    1    1    2    0    0  0.42402642440E+02  0.21225153080E+03 -0.68122284387E+03  0.72562956074E+03  0.12500000000E+03 0.  0.
          2    1    1    2  501    0  0.20253264184E+02 -0.16609399286E+01  0.41301714249E+02  0.46030262126E+02  0.00000000000E+00 0. -1.
         -2    1    1    2    0  502 -0.62655906624E+02 -0.21059059087E+03 -0.11431678171E+02  0.22001100623E+03  0.00000000000E+00 0.  1.
<mgrwt>
<rscale>  4 0.25032808E+03</rscale>
<asrwt>0</asrwt>
<pdfrwt beam="1">  1       21 0.26178310E-01 0.25032808E+03</pdfrwt>
<pdfrwt beam="2">  1       21 0.12638643E+00 0.25032808E+03</pdfrwt>
<totfact> 0.61775770E+03</totfact>
</mgrwt>
</event>
<event>
 5    0  0.1972558E-002  0.6622095E+03  0.7546771E-02  0.9784135E-01
         21   -1    0    0  501  502  0.00000000000E+00  0.00000000000E+00  0.32931817869E+03  0.32931817869E+03  0.00000000000E+00 0.  1.
         21   -1    0    0  502  503 -0.00000000000E+00 -0.00000000000E+00 -0.30448328215E+04  0.30448328215E+04  0.00000000000E+00 0. -1.
         25    1    1    2    0    0  0.29090025089E+03 -0.65191255394E+03 -0.23125522306E+04  0.24234553334E+04  0.12500000000E+03 0.  0.
          2    1    1    2  501    0  0.60152839360E+02  0.25907211209E+03  0.31496193128E+02  0.26782220507E+03  0.00000000000E+00 0.  1.
         -2    1    1    2    0  503 -0.35105309025E+03  0.39284044185E+03 -0.43445860537E+03  0.68287346171E+03  0.00000000000E+00 0. -1.
<mgrwt>
<rscale>  4 0.66220955E+03</rscale>
<asrwt>0</asrwt>
<pdfrwt beam="1">  1       21 0.50664338E-01 0.66220955E+03</pdfrwt>
<pdfrwt beam="2">  1       21 0.46843580E+00 0.66220955E+03</pdfrwt>
<totfact> 0.72024507E+00</totfact>
</mgrwt>
</event>
<event>
 5    0  0.1972558E-002  0.5606585E+03  0.7546771E-02  0.9990566E-01
         21   -1    0    0  501  502  0.00000000000E+00  0.00000000000E+00  0.57867185475E+03  0.57867185475E+03  0.00000000000E+00 0. -1.
         21   -1    0    0  502  503 -0.00000000000E+00 -0.00000000000E+00 -0.90086107493E+03  0.90086107493E+03  0.00000000000E+00 0. -1.
         25    1    1    2    0    0  0.47823636007E+03  0.27581652046E+03 -0.56141379208E+03  0.79724225615E+03  0.12500000000E+03 0.  0.
          1    1    1    2  501    0 -0.16143729768E+02 -0.13094453995E+02  0.14002177426E+03  0.14155628563E+03  0.00000000000E+00 0.  1.
         -1    1    1    2    0  503 -0.46209263031E+03 -0.26272206647E+03  0.99202797650E+02  0.54073438790E+03  0.00000000000E+00 0. -1.
<mgrwt>
<rscale>  4 0.56065852E+03</rscale>
<asrwt>0</asrwt>
<pdfrwt beam="1">  1       21 0.89026440E-01 0.56065852E+03</pdfrwt>
<pdfrwt beam="2">  1       21 0.13859401E+00 0.56065852E+03</pdfrwt>
<totfact> 0.31200448E+02</totfact>
</mgrwt>
</event>
<event>
 5    0  0.1972558E-002  0.3128357E+03  0.7546771E-02  0.1078995E+00
         21   -1    0    0  501  502  0.00000000000E+00  0.00000000000E+00  0.17681351505E+04  0.17681351505E+04  0.00000000000E+00 0.  1.
         21   -1    0    0  502  503 -0.00000000000E+00 -0.00000000000E+00 -0.49376981802E+03  0.49376981802E+03  0.00000000000E+00 0.  1.
         25    1    1    2    0    0 -0.28307704771E+03 -0.36465727971E+02 -0.40806823476E+03  0.51342677031E+03  0.12500000000E+03 0.  0.
          3    1    1    2  501    0 -0.21477223860E+02  0.12756206788E+02  0.10055091116E+04  0.10058193503E+04  0.00000000000E+00 0.  1.
         -3    1    1    2    0  503  0.30455427157E+03  0.23709521183E+02  0.67692445571E+03  0.74265884796E+03  0.00000000000E+00 0. -1.
<mgrwt>
<rscale>  4 0.31283568E+03</rscale>
<asrwt>0</asrwt>
<pdfrwt beam="1">  1       21 0.27202079E+00 0.31283568E+03</pdfrwt>
<pdfrwt beam="2">  1       21 0.75964588E-01 0.31283568E+03</pdfrwt>
<totfact> 0.65743417E+01</totfact>
</mgrwt>
</event>
<event>
 5    0  0.1972558E-002  0.3086189E+03  0.7546771E-02  0.1081010E+00
         21   -1    0    0  501  502  0.00000000000E+00  0.00000000000E+00  0.19686275891E+03  0.19686275891E+03  0.00000000000E+00 0.  1.
         21   -1    0    0  502  503 -0.00000000000E+00 -0.00000000000E+00 -0.88903225000E+03  0.88903225000E+03  0.00000000000E+00 0.  1.
         25    1    1    2    0    0 -0.74516853261E+02 -0.28364203023E+03 -0.66425350229E+03  0.73679256106E+03  0.12500000000E+03 0.  0.
          2    1    1    2  501    0  0.68254041010E+02  0.24575592240E+03 -0.94695438262E+02  0.27206950130E+03  0.00000000000E+00 0.  1.
         -2    1    1    2    0  503  0.62628122516E+01  0.37886107836E+02  0.66779449463E+02  0.77032946554E+02  0.00000000000E+00 0. -1.
<mgrwt>
<rscale>  4 0.30861889E+03</rscale>
<asrwt>0</asrwt>
<pdfrwt beam="1">  1       21 0.30286578E-01 0.30861889E+03</pdfrwt>
<pdfrwt beam="2">  1       21 0.13677420E+00 0.30861889E+03</pdfrwt>
<totfact> 0.36700844E+03</totfact>
</mgrwt>
</event>
<event>
 5    0  0.1972558E-002  0.3393808E+03  0.7546771E-02  0.1067060E+00
         21   -1    0    0  501  502  0.00000000000E+00  0.00000000000E+00  0.59164342481E+03  0.59164342481E+03  0.00000000000E+00 0.  1.
         21   -1    0    0  502  503 -0.00000000000E+00 -0.00000000000E+00 -0.46654992894E+03  0.46654992894E+03  0.00000000000E+00 0.  1.
         25    1    1    2    0    0 -0.16101294065E+03 -0.27870422080E+03 -0.32799438685E+03  0.47624208923E+03  0.12500000000E+03 0.  0.
          3    1    1    2  501    0  0.12584894616E+03  0.25865922834E+03  0.27024994799E+03  0.39468669606E+03  0.00000000000E+00 0.  1.
         -3    1    1    2    0  503  0.35163994495E+02  0.20044992453E+02  0.18283793472E+03  0.18726456847E+03  0.00000000000E+00 0. -1.
<mgrwt>
<rscale>  4 0.33938083E+03</rscale>
<asrwt>0</asrwt>
<pdfrwt beam="1">  1       21 0.91022066E-01 0.33938083E+03</pdfrwt>
<pdfrwt beam="2">  1       21 0.71776912E-01 0.33938083E+03</pdfrwt>
<totfact> 0.16187257E+03</totfact>
</mgrwt>
</event>
<event>
 5    0  0.1972558E-002  0.2525993E+03  0.7546771E-02  0.1111673E+00
         21   -1    0    0  501  502  0.00000000000E+00  0.00000000000E+00  0.10600673005E+03  0.10600673005E+03  0.00000000000E+00 0.  1.
         21   -1    0    0  502  503 -0.00000000000E+00 -0.00000000000E+00 -0.69798320461E+03  0.69798320461E+03  0.00000000000E+00 0. -1.
         25    1    1    2    0    0  0.19617669758E+03  0.11780629460E+03 -0.29259398968E+03  0.39191818345E+03  0.12500000000E+03 0.  0.
          1    1    1    2  501    0  0.12895561775E+02 -0.63336278900E+02 -0.47431071706E+02  0.80171605333E+02  0.00000000000E+00 0. -1.
         -1    1    1    2    0  503 -0.20907225935E+03 -0.54470015697E+02 -0.25195141317E+03  0.33190014588E+03  0.00000000000E+00 0.  1.
<mgrwt>
<rscale>  4 0.25259934E+03</rscale>
<asrwt>0</asrwt>
<pdfrwt beam="1">  1       21 0.16308728E-01 0.25259934E+03</pdfrwt>
<pdfrwt beam="2">  1       21 0.10738203E+00 0.25259934E+03</pdfrwt>
<totfact> 0.22545780E+04</totfact>
</mgrwt>
</event>
<event>
 5    0  0.1972558E-002  0.2879665E+03  0.7546771E-02  0.1091416E+00
         21   -1    0    0  501  502  0.00000000000E+00  0.00000000000E+00  0.33221212451E+03  0.33221212451E+03  0.00000000000E+00 0. -1.
         21   -1    0    0  502  503 -0.00000000000E+00 -0.00000000000E+00 -0.61543599778E+03  0.61543599778E+03  0.00000000000E+00 0. -1.
         25    1    1    2    0    0  0.82387864944E+02 -0.26355354047E+03 -0.38714699562E+03  0.49168691787E+03  0.12500000000E+03 0.  0.
          4    1    1    2  501    0 -0.35541152232E+02  0.33520536419E+02  0.19734359432E+03  0.20330099381E+03  0.00000000000E+00 0. -1.
         -4    1    1    2    0  503 -0.46846712712E+02  0.23003300405E+03 -0.93420471971E+02  0.25266021062E+03  0.00000000000E+00 0.  1.
<mgrwt>
<rscale>  4 0.28796650E+03</rscale>
<asrwt>0</asrwt>
<pdfrwt beam="1">  1       21 0.51109557E-01 0.28796650E+03</pdfrwt>
<pdfrwt beam="2">  1       21 0.94682462E-01 0.28796650E+03</pdfrwt>
<totfact> 0.31780062E+03</totfact>
</mgrwt>
</event>
<event>
 5    0  0.1972558E-002  0.3723385E+03  0.7546771E-02  0.1053802E+00
         21   -1    0    0  501  502  0.00000000000E+00  0.00000000000E+00  0.18714194727E+04  0.18714194727E+04  0.00000000000E+00 0.  1.
         21   -1    0    0  502  503 -0.00000000000E+00 -0.00000000000E+00 -0.17233161083E+03  0.17233161083E+03  0.00000000000E+00 0.  1.
         25    1    1    2    0    0 -0.74482020467E+02 -0.34835879877E+03  0.15738767935E+04  0.16185223462E+04  0.12500000000E+03 0.  0.
          1    1    1    2  501    0 -0.38543960849E+02  0.49455353605E+02  0.81294611950E+02  0.10266587968E+03  0.00000000000E+00 0. -1.
         -1    1    1    2    0  503  0.11302598132E+03  0.29890344517E+03  0.43916456412E+02  0.32256285764E+03  0.00000000000E+00 0.  1.
<mgrwt>
<rscale>  4 0.37233854E+03</rscale>
<asrwt>0</asrwt>
<pdfrwt beam="1">  1       21 0.28791067E+00 0.37233854E+03</pdfrwt>
<pdfrwt beam="2">  1       21 0.26512557E-01 0.37233854E+03</pdfrwt>
<totfact> 0.45454946E+02</totfact>
</mgrwt>
</event>
<event>
 5    0  0.1972558E-002  0.2546168E+03  0.7546771E-02  0.1110421E+00
         21   -1    0    0  503  502  0.00000000000E+00  0.00000000000E+00  0.54367615399E+03  0.54367615399E+03  0.00000000000E+00 0.  1.
         21   -1    0    0  501  503 -0.00000000000E+00 -0.00000000000E+00 -0.20779179554E+03  0.20779179554E+03  0.00000000000E+00 0.  1.
         25    1    1    2    0    0  0.11136597584E+03 -0.20318601703E+03 -0.38084626658E+02  0.26601198635E+03  0.12500000000E+03 0.  0.
          2    1    1    2  501    0 -0.90527081619E+02 -0.75971151798E+01  0.16239352434E+03  0.18607666541E+03  0.00000000000E+00 0. -1.
         -2    1    1    2    0  502 -0.20838894225E+02  0.21078313221E+03  0.21157546077E+03  0.29937929777E+03  0.00000000000E+00 0.  1.
<mgrwt>
<rscale>  4 0.25461681E+03</rscale>
<asrwt>0</asrwt>
<pdfrwt beam="1">  1       21 0.83642484E-01 0.25461681E+03</pdfrwt>
<pdfrwt beam="2">  1       21 0.31967969E-01 0.25461681E+03</pdfrwt>
<totfact> 0.11264957E+04</totfact>
</mgrwt>
</event>
<event>
 5    0  0.1972558E-002  0.3002431E+03  0.7546771E-02  0.1085119E+00
         21   -1    0    0  501  502  0.00000000000E+00  0.00000000000E+00  0.64003563089E+03  0.64003563089E+03  0.00000000000E+00 0. -1.
         21   -1    0    0  502  503 -0.00000000000E+00 -0.00000000000E+00 -0.23432672747E+03  0.23432672747E+03  0.00000000000E+00 0. -1.
         25    1    1    2    0    0  0.97640694400E+02 -0.26130457872E+03  0.23988669389E+02  0.30661742339E+03  0.12500000000E+03 0.  0.
          4    1    1    2  501    0 -0.10725408023E+03  0.24376279000E+03  0.98696781282E+02  0.28401547519E+03  0.00000000000E+00 0. -1.
         -4    1    1    2    0  503  0.96133858322E+01  0.17541788727E+02  0.28302345275E+03  0.28372945978E+03  0.00000000000E+00 0.  1.
<mgrwt>
<rscale>  4 0.30024309E+03</rscale>
<asrwt>0</asrwt>
<pdfrwt beam="1">  1       21 0.98467020E-01 0.30024309E+03</pdfrwt>
<pdfrwt beam="2">  1       21 0.36050266E-01 0.30024309E+03</pdfrwt>
<totfact> 0.59067801E+03</totfact>
</mgrwt>
</event>
<event>
 5    0  0.1972558E-002  0.3051020E+03  0.7546771E-02  0.1082718E+00
         21   -1    0    0  501  502  0.00000000000E+00  0.00000000000E+00  0.16808023871E+03  0.16808023871E+03  0.00000000000E+00 0. -1.
         21   -1    0    0  502  503 -0.00000000000E+00 -0.00000000000E+00 -0.17591548389E+04  0.17591548389E+04  0.00000000000E+00 0.  1.
         25    1    1    2    0    0 -0.15145544257E+03  0.25001483580E+03 -0.14172571242E+04  0.14524768243E+04  0.12500000000E+03 0.  0.
          2    1    1    2  501    0  0.15001812461E+03 -0.19072795725E+03 -0.26921156241E+03  0.36243269268E+03  0.00000000000E+00 0.  1.
         -2    1    1    2    0  503  0.14373179593E+01 -0.59286878549E+02  0.95394086379E+02  0.11232556061E+03  0.00000000000E+00 0. -1.
<mgrwt>
<rscale>  4 0.30510201E+03</rscale>
<asrwt>0</asrwt>
<pdfrwt beam="1">  1       21 0.25858499E-01 0.30510201E+03</pdfrwt>
<pdfrwt beam="2">  1       21 0.27063920E+00 0.30510201E+03</pdfrwt>
<totfact> 0.63608603E+02</totfact>
</mgrwt>
</event>
<event>
 5    0  0.1972558E-002  0.2446817E+03  0.7546771E-02  0.1116713E+00
         21   -1    0    0  503  502  0.00000000000E+00  0.00000000000E+00  0.97745001972E+03  0.97745001972E+03  0.00000000000E+00 0.  1.
         21   -1    0    0  501  503 -0.00000000000E+00 -0.00000000000E+00 -0.32434479047E+03  0.32434479047E+03  0.00000000000E+00 0.  1.
         25    1    1    2    0    0  0.18898732305E+03 -0.92928399596E+02 -0.25761486592E+03  0.35544664138E+03  0.12500000000E+03 0.  0.
          4    1    1    2  501    0  0.55232925134E+01  0.22699282391E+02  0.16687651714E+02  0.28709613390E+02  0.00000000000E+00 0. -1.
         -4    1    1    2    0  502 -0.19451061556E+03  0.70229117205E+02  0.89403244345E+03  0.91763855543E+03  0.00000000000E+00 0.  1.
<mgrwt>
<rscale>  4 0.24468171E+03</rscale>
<asrwt>0</asrwt>
<pdfrwt beam="1">  1       21 0.15037692E+00 0.24468171E+03</pdfrwt>
<pdfrwt beam="2">  1       21 0.49899199E-01 0.24468171E+03</pdfrwt>
<totfact> 0.10821815E+03</totfact>
</mgrwt>
</event>
<event>
 5    0  0.1972558E-002  0.4294235E+03  0.7546771E-02  0.1034042E+00
         21   -1    0    0  503  502  0.00000000000E+00  0.00000000000E+00  0.15615813062E+04  0.15615813062E+04  0.00000000000E+00 0. -1.
         21   -1    0    0  501  503 -0.00000000000E+00 -0.00000000000E+00 -0.14535710111E+03  0.14535710111E+03  0.00000000000E+00 0.  1.
         25    1    1    2    0    0  0.12540891954E+03 -0.38731409127E+03  0.49982673474E+03  0.65665163303E+03  0.12500000000E+03 0.  0.
          2    1    1    2  501    0  0.85031570970E+02  0.22769383164E+02  0.21435753246E+03  0.23172821277E+03  0.00000000000E+00 0.  1.
         -2    1    1    2    0  502 -0.21044049051E+03  0.36454470811E+03  0.70203993792E+03  0.81855856156E+03  0.00000000000E+00 0. -1.
<mgrwt>
<rscale>  4 0.42942352E+03</rscale>
<asrwt>0</asrwt>
<pdfrwt beam="1">  1       21 0.24024327E+00 0.42942352E+03</pdfrwt>
<pdfrwt beam="2">  1       21 0.22362632E-01 0.42942352E+03</pdfrwt>
<totfact> 0.11867368E+03</totfact>
</mgrwt>
</event>
<event>
 5    0  0.1972558E-002  0.2591042E+03  0.7546771E-02  0.1107683E+00
         21   -1    0    0  501  502  0.00000000000E+00  0.00000000000E+00  0.48743023512E+03  0.48743023512E+03  0.00000000000E+00 0. -1.
         21   -1    0    0  502  503 -0.00000000000E+00 -0.00000000000E+00 -0.25243301802E+03  0.25243301802E+03  0.00000000000E+00 0.  1.
         25    1    1    2    0    0 -0.15482153135E+03 -0.14580655782E+03  0.17111505278E+02  0.24727932078E+03  0.12500000000E+03 0.  0.
          1    1    1    2  501    0  0.12506201735E+03  0.20818933517E+03 -0.21123338043E+02  0.24378167050E+03  0.00000000000E+00 0.  1.
         -1    1    1    2    0  503  0.29759514007E+02 -0.62382777356E+02  0.23900904987E+03  0.24880226185E+03  0.00000000000E+00 0. -1.
<mgrwt>
<rscale>  4 0.25910422E+03</rscale>
<asrwt>0</asrwt>
<pdfrwt beam="1">  1       21 0.74989266E-01 0.25910422E+03</pdfrwt>
<pdfrwt beam="2">  1       21 0.38835849E-01 0.25910422E+03</pdfrwt>
<totfact> 0.97597375E+03</totfact>
</mgrwt>
</event>
<event>
 5    0  0.1972558E-002  0.2995480E+03  0.7546771E-02  0.1085467E+00
         21   -1    0    0  501  502  0.00000000000E+00  0.00000000000E+00  0.15765844291E+03  0.15765844291E+03  0.00000000000E+00 0.  1.
         21   -1    0    0  502  503 -0.00000000000E+00 -0.00000000000E+00 -0.11271682887E+04  0.11271682887E+04  0.00000000000E+00 0.  1.
         25    1    1    2    0    0  0.89517602093E+02 -0.24774976638E+03 -0.83480871210E+03  0.88426462873E+03  0.12500000000E+03 0.  0.
          1    1    1    2  501    0 -0.73247115766E+02  0.29836867582E+03 -0.15442157599E+03  0.34385320968E+03  0.00000000000E+00 0.  1.
         -1    1    1    2    0  503 -0.16270486327E+02 -0.50618909439E+02  0.19720442337E+02  0.56708893166E+02  0.00000000000E+00 0. -1.
<mgrwt>
<rscale>  4 0.29954799E+03</rscale>
<asrwt>0</asrwt>
<pdfrwt beam="1">  1       21 0.24255146E-01 0.29954799E+03</pdfrwt>
<pdfrwt beam="2">  1       21 0.17341050E+00 0.29954799E+03</pdfrwt>
<totfact> 0.29883071E+03</totfact>
</mgrwt>
</event>
<event>
 5    0  0.1972558E-002  0.2513030E+03  0.7546771E-02  0.1112484E+00
         21   -1    0    0  501  502  0.00000000000E+00  0.00000000000E+00  0.12860792779E+03  0.12860792779E+03  0.00000000000E+00 0.  1.
         21   -1    0    0  502  503 -0.00000000000E+00 -0.00000000000E+00 -0.50452956410E+03  0.50452956410E+03  0.00000000000E+00 0.  1.
         25    1    1    2    0    0 -0.31706297883E+02 -0.22777249060E+03 -0.21032831003E+03  0.33578057538E+03  0.12500000000E+03 0.  0.
          4    1    1    2  501    0  0.30116379115E+02  0.20659488941E+03 -0.17658636196E+03  0.27344320773E+03  0.00000000000E+00 0.  1.
         -4    1    1    2    0  503  0.15899187681E+01  0.21177601196E+02  0.10993035689E+02  0.23913708783E+02  0.00000000000E+00 0. -1.
<mgrwt>
<rscale>  4 0.25130298E+03</rscale>
<asrwt>0</asrwt>
<pdfrwt beam="1">  1       21 0.19785835E-01 0.25130298E+03</pdfrwt>
<pdfrwt beam="2">  1       21 0.77619932E-01 0.25130298E+03</pdfrwt>
<totfact> 0.33682365E+04</totfact>
</mgrwt>
</event>
<event>
 5    0  0.1972558E-002  0.2729159E+03  0.7546771E-02  0.1099622E+00
         21   -1    0    0  503  502  0.00000000000E+00  0.00000000000E+00  0.12832154980E+03  0.12832154980E+03  0.00000000000E+00 0.  1.
         21   -1    0    0  501  503 -0.00000000000E+00 -0.00000000000E+00 -0.65485535635E+03  0.65485535635E+03  0.00000000000E+00 0.  1.
         25    1    1    2    0    0  0.25272687585E+03 -0.31916290602E+01 -0.35164524229E+03  0.45073322121E+03  0.12500000000E+03 0.  0.
          4    1    1    2  501    0 -0.14959293656E+02  0.16409953132E+02 -0.67789913180E+02  0.71333998608E+02  0.00000000000E+00 0. -1.
         -4    1    1    2    0  502 -0.23776758220E+03 -0.13218324072E+02 -0.10709865107E+03  0.26110968633E+03  0.00000000000E+00 0.  1.
<mgrwt>
<rscale>  4 0.27291588E+03</rscale>
<asrwt>0</asrwt>
<pdfrwt beam="1">  1       21 0.19741776E-01 0.27291588E+03</pdfrwt>
<pdfrwt beam="2">  1       21 0.10074698E+00 0.27291588E+03</pdfrwt>
<totfact> 0.18254982E+04</totfact>
</mgrwt>
</event>
<event>
 5    0  0.1972558E-002  0.2376942E+03  0.7546771E-02  0.1121338E+00
         21   -1    0    0  501  502  0.00000000000E+00  0.00000000000E+00  0.93222794419E+03  0.93222794419E+03  0.00000000000E+00 0. -1.
         21   -1    0    0  502  503 -0.00000000000E+00 -0.00000000000E+00 -0.36432682454E+03  0.36432682454E+03  0.00000000000E+00 0. -1.
         25    1    1    2    0    0  0.19896051566E+03 -0.47966362228E+02 -0.30900006795E+03  0.39114204669E+03  0.12500000000E+03 0.  0.
          2    1    1    2  501    0 -0.15361294135E+03  0.21736676646E+02  0.77977934394E+03  0.79506304410E+03  0.00000000000E+00 0. -1.
         -2    1    1    2    0  503 -0.45347574315E+02  0.26229685582E+02  0.97121843673E+02  0.11034967793E+03  0.00000000000E+00 0.  1.
<mgrwt>
<rscale>  4 0.23769419E+03</rscale>
<asrwt>0</asrwt>
<pdfrwt beam="1">  1       21 0.14341968E+00 0.23769419E+03</pdfrwt>
<pdfrwt beam="2">  1       21 0.56050281E-01 0.23769419E+03</pdfrwt>
<totfact> 0.96466993E+02</totfact>
</mgrwt>
</event>
<event>
 5    0  0.1972558E-002  0.2257868E+03  0.7546771E-02  0.1129641E+00
         21   -1    0    0  501  502  0.00000000000E+00  0.00000000000E+00  0.62230347783E+03  0.62230347783E+03  0.00000000000E+00 0.  1.
         21   -1    0    0  502  503 -0.00000000000E+00 -0.00000000000E+00 -0.20718509031E+03  0.20718509031E+03  0.00000000000E+00 0. -1.
         25    1    1    2    0    0 -0.99905410670E+01  0.20264640838E+03 -0.97422114829E+02  0.25745183278E+03  0.12500000000E+03 0.  0.
          3    1    1    2  501    0 -0.17816080776E+01 -0.15025929097E+03  0.17681352203E+03  0.23204320766E+03  0.00000000000E+00 0. -1.
         -3    1    1    2    0  503  0.11772149145E+02 -0.52387117409E+02  0.33572698032E+03  0.33999352771E+03  0.00000000000E+00 0.  1.
<mgrwt>
<rscale>  4 0.22578679E+03</rscale>
<asrwt>0</asrwt>
<pdfrwt beam="1">  1       21 0.95738996E-01 0.22578679E+03</pdfrwt>
<pdfrwt beam="2">  1       21 0.31874629E-01 0.22578679E+03</pdfrwt>
<totfact> 0.84150397E+03</totfact>
</mgrwt>
</event>
<event>
 5    0  0.1972558E-002  0.3408927E+03  0.7546771E-02  0.1066416E+00
         21   -1    0    0  501  502  0.00000000000E+00  0.00000000000E+00  0.95994326133E+03  0.95994326133E+03  0.00000000000E+00 0. -1.
         21   -1    0    0  502  503 -0.00000000000E+00 -0.00000000000E+00 -0.13519295361E+03  0.13519295361E+03  0.00000000000E+00 0. -1.
         25    1    1    2    0    0 -0.73842296671E+02 -0.29307070279E+03  0.35288981023E+03  0.48114378285E+03  0.12500000000E+03 0.  0.
          4    1    1    2  501    0  0.90471340264E+02  0.31875650530E+03  0.32554215862E+03  0.46450884827E+03  0.00000000000E+00 0. -1.
         -4    1    1    2    0  503 -0.16629043593E+02 -0.25685802514E+02  0.14631833887E+03  0.14948358382E+03  0.00000000000E+00 0.  1.
<mgrwt>
<rscale>  4 0.34089271E+03</rscale>
<asrwt>0</asrwt>
<pdfrwt beam="1">  1       21 0.14768357E+00 0.34089271E+03</pdfrwt>
<pdfrwt beam="2">  1       21 0.20798917E-01 0.34089271E+03</pdfrwt>
<totfact> 0.60978734E+03</totfact>
</mgrwt>
</event>
<event>
 5    0  0.1972558E-002  0.2706915E+03  0.7546771E-02  0.1100884E+00
         21   -1    0    0  501  502  0.00000000000E+00  0.00000000000E+00  0.27447267644E+02  0.27447267644E+02  0.00000000000E+00 0. -1.
         21   -1    0    0  502  503 -0.00000000000E+00 -0.00000000000E+00 -0.28139051087E+04  0.28139051087E+04  0.00000000000E+00 0.  1.
         25    1    1    2    0    0 -0.45953241609E+02 -0.24426843024E+03 -0.13497235795E+04  0.13780992372E+04  0.12500000000E+03 0.  0.
          3    1    1    2  501    0  0.30706422349E+02  0.99274140748E+01 -0.78625747683E+02  0.84990859052E+02  0.00000000000E+00 0.  1.
         -3    1    1    2    0  503  0.15246819260E+02  0.23434101617E+03 -0.13581085139E+04  0.13782622802E+04  0.00000000000E+00 0. -1.
<mgrwt>
<rscale>  4 0.27069153E+03</rscale>
<asrwt>0</asrwt>
<pdfrwt beam="1">  1       21 0.42226549E-02 0.27069153E+03</pdfrwt>
<pdfrwt beam="2">  1       21 0.43290865E+00 0.27069153E+03</pdfrwt>
<totfact> 0.17455285E+03</totfact>
</mgrwt>
</event>
<event>
 5    0  0.1972558E-002  0.3349909E+03  0.7546771E-02  0.1068950E+00
         21   -1    0    0  501  502  0.00000000000E+00  0.00000000000E+00  0.57205145221E+03  0.57205145221E+03  0.00000000000E+00 0.  1.
         21   -1    0    0  502  503 -0.00000000000E+00 -0.00000000000E+00 -0.11445135402E+04  0.11445135402E+04  0.00000000000E+00 0.  1.
         25    1    1    2    0    0 -0.66348123347E+01 -0.31247120463E+03 -0.10627383746E+04  0.11147735767E+04  0.12500000000E+03 0.  0.
          2    1    1    2  501    0 -0.46283977435E+01  0.26913341966E+02  0.17153619777E+03  0.17369633613E+03  0.00000000000E+00 0. -1.
         -2    1    1    2    0  503  0.11263210078E+02  0.28555786266E+03  0.31874008891E+03  0.42809507952E+03  0.00000000000E+00 0.  1.
<mgrwt>
<rscale>  4 0.33499089E+03</rscale>
<asrwt>0</asrwt>
<pdfrwt beam="1">  1       21 0.88007917E-01 0.33499089E+03</pdfrwt>
<pdfrwt beam="2">  1       21 0.17607900E+00 0.33499089E+03</pdfrwt>
<totfact> 0.18635192E+02</totfact>
</mgrwt>
</event>
<event>
 5    0  0.1972558E-002  0.4103451E+03  0.7546771E-02  0.1040598E+00
         21   -1    0    0  501  502  0.00000000000E+00  0.00000000000E+00  0.65337658051E+02  0.65337658051E+02  0.00000000000E+00 0. -1.
         21   -1    0    0  502  503 -0.00000000000E+00 -0.00000000000E+00 -0.25543925606E+04  0.25543925606E+04  0.00000000000E+00 0.  1.
         25    1    1    2    0    0 -0.28432158282E+03 -0.26191959981E+03 -0.12810913851E+04  0.13439720147E+04  0.12500000000E+03 0.  0.
          3    1    1    2  501    0  0.27315434291E+03  0.17987041750E+03 -0.93823676560E+03  0.99360701008E+03  0.00000000000E+00 0. -1.
         -3    1    1    2    0  503  0.11167239908E+02  0.82049182310E+02 -0.26972675188E+03  0.28215119394E+03  0.00000000000E+00 0.  1.
<mgrwt>
<rscale>  4 0.40932574E+03</rscale>
<asrwt>0</asrwt>
<pdfrwt beam="1">  1       21 0.10051946E-01 0.41034514E+03</pdfrwt>
<pdfrwt beam="2">  1       21 0.39298354E+00 0.41034514E+03</pdfrwt>
<totfact> 0.61915701E+02</totfact>
</mgrwt>
</event>
<event>
 5    0  0.1972558E-002  0.2351223E+03  0.7546771E-02  0.1123086E+00
         21   -1    0    0  501  502  0.00000000000E+00  0.00000000000E+00  0.36212595283E+03  0.36212595283E+03  0.00000000000E+00 0. -1.
         21   -1    0    0  502  503 -0.00000000000E+00 -0.00000000000E+00 -0.18025600839E+03  0.18025600839E+03  0.00000000000E+00 0. -1.
         25    1    1    2    0    0  0.13563412444E+03 -0.15091229067E+03  0.35899806162E+02  0.24100815602E+03  0.12500000000E+03 0.  0.
          1    1    1    2  501    0 -0.40576223246E+02 -0.24075207510E+02 -0.10236492478E+02  0.48278683576E+02  0.00000000000E+00 0.  1.
         -1    1    1    2    0  503 -0.95057901192E+02  0.17498749818E+03  0.15620663076E+03  0.25309512162E+03  0.00000000000E+00 0. -1.
<mgrwt>
<rscale>  4 0.23512225E+03</rscale>
<asrwt>0</asrwt>
<pdfrwt beam="1">  1       21 0.55711685E-01 0.23512225E+03</pdfrwt>
<pdfrwt beam="2">  1       21 0.27731694E-01 0.23512225E+03</pdfrwt>
<totfact> 0.36893043E+04</totfact>
</mgrwt>
</event>
<event>
 5    0  0.1972558E-002  0.2346887E+03  0.7546771E-02  0.1123382E+00
         21   -1    0    0  503  502  0.00000000000E+00  0.00000000000E+00  0.83852460544E+02  0.83852460544E+02  0.00000000000E+00 0.  1.
         21   -1    0    0  501  503 -0.00000000000E+00 -0.00000000000E+00 -0.12925824309E+04  0.12925824309E+04  0.00000000000E+00 0. -1.
         25    1    1    2    0    0 -0.21940016476E+03  0.16457561425E+02 -0.92173084787E+03  0.95583473443E+03  0.12500000000E+03 0.  0.
          1    1    1    2  501    0  0.43077519734E+02  0.71983499487E+02 -0.17424896935E+03  0.19339079664E+03  0.00000000000E+00 0. -1.
         -1    1    1    2    0  502  0.17632264502E+03 -0.88441060913E+02 -0.11275015310E+03  0.22720936034E+03  0.00000000000E+00 0.  1.
<mgrwt>
<rscale>  4 0.23468871E+03</rscale>
<asrwt>0</asrwt>
<pdfrwt beam="1">  1       21 0.12900379E-01 0.23468871E+03</pdfrwt>
<pdfrwt beam="2">  1       21 0.19885883E+00 0.23468871E+03</pdfrwt>
<totfact> 0.67980780E+03</totfact>
</mgrwt>
</event>
<event>
 5    0  0.1972558E-002  0.2126445E+03  0.7546771E-02  0.1139489E+00
         21   -1    0    0  501  502  0.00000000000E+00  0.00000000000E+00  0.74369888352E+03  0.74369888352E+03  0.00000000000E+00 0.  1.
         21   -1    0    0  502  503 -0.00000000000E+00 -0.00000000000E+00 -0.17924061117E+03  0.17924061117E+03  0.00000000000E+00 0. -1.
         25    1    1    2    0    0  0.66272113173E+02  0.19996470435E+03 -0.80447630742E+01  0.24508691149E+03  0.12500000000E+03 0.  0.
          1    1    1    2  501    0  0.43241525183E+02 -0.10297689991E+03  0.50417003662E+03  0.51639277420E+03  0.00000000000E+00 0.  1.
         -1    1    1    2    0  503 -0.10951363836E+03 -0.96987804442E+02  0.68332998802E+02  0.16145980900E+03  0.00000000000E+00 0. -1.
<mgrwt>
<rscale>  4 0.21264454E+03</rscale>
<asrwt>0</asrwt>
<pdfrwt beam="1">  1       21 0.11441521E+00 0.21264454E+03</pdfrwt>
<pdfrwt beam="2">  1       21 0.27575479E-01 0.21264454E+03</pdfrwt>
<totfact> 0.73392697E+03</totfact>
</mgrwt>
</event>
<event>
 5    0  0.1972558E-002  0.2612070E+03  0.7546771E-02  0.1106420E+00
         21   -1    0    0  501  502  0.00000000000E+00  0.00000000000E+00  0.73854642535E+02  0.73854642535E+02  0.00000000000E+00 0. -1.
         21   -1    0    0  502  503 -0.00000000000E+00 -0.00000000000E+00 -0.19396413801E+04  0.19396413801E+04  0.00000000000E+00 0.  1.
         25    1    1    2    0    0  0.20566145245E+03  0.56750002242E+02 -0.13535077403E+04  0.13759089355E+04  0.12500000000E+03 0.  0.
          4    1    1    2  501    0 -0.28085407860E+03 -0.89681305975E+02 -0.42997326575E+03  0.52134322607E+03  0.00000000000E+00 0. -1.
         -4    1    1    2    0  503  0.75192626150E+02  0.32931303733E+02 -0.82305731516E+02  0.11624386106E+03  0.00000000000E+00 0.  1.
<mgrwt>
<rscale>  4 0.26120699E+03</rscale>
<asrwt>0</asrwt>
<pdfrwt beam="1">  1       21 0.11362254E-01 0.26120699E+03</pdfrwt>
<pdfrwt beam="2">  1       21 0.29840633E+00 0.26120699E+03</pdfrwt>
<totfact> 0.20944800E+03</totfact>
</mgrwt>
</event>
<event>
 5    0  0.1972558E-002  0.2380721E+03  0.7546771E-02  0.1121084E+00
         21   -1    0    0  501  502  0.00000000000E+00  0.00000000000E+00  0.11652257309E+04  0.11652257309E+04  0.00000000000E+00 0.  1.
         21   -1    0    0  502  503 -0.00000000000E+00 -0.00000000000E+00 -0.54059371932E+03  0.54059371932E+03  0.00000000000E+00 0. -1.
         25    1    1    2    0    0 -0.18831160484E+03 -0.73136206909E+02 -0.48466215974E+03  0.53975232687E+03  0.12500000000E+03 0.  0.
          1    1    1    2  501    0 -0.27501629423E+02  0.44173339566E+02  0.70453573192E+03  0.70645468440E+03  0.00000000000E+00 0.  1.
         -1    1    1    2    0  503  0.21581323426E+03  0.28962867343E+02  0.40475843937E+03  0.45961243892E+03  0.00000000000E+00 0. -1.
<mgrwt>
<rscale>  4 0.23807214E+03</rscale>
<asrwt>0</asrwt>
<pdfrwt beam="1">  1       21 0.17926550E+00 0.23807214E+03</pdfrwt>
<pdfrwt beam="2">  1       21 0.83168264E-01 0.23807214E+03</pdfrwt>
<totfact> 0.21971727E+02</totfact>
</mgrwt>
</event>
<event>
 5    0  0.1972558E-002  0.1906134E+03  0.7546771E-02  0.1157909E+00
         21   -1    0    0  501  502  0.00000000000E+00  0.00000000000E+00  0.13763155930E+03  0.13763155930E+03  0.00000000000E+00 0.  1.
         21   -1    0    0  502  503 -0.00000000000E+00 -0.00000000000E+00 -0.91310286940E+03  0.91310286940E+03  0.00000000000E+00 0.  1.
         25    1    1    2    0    0  0.20432604294E+03 -0.14198882172E+03 -0.67258021039E+03  0.72794168497E+03  0.12500000000E+03 0.  0.
          1    1    1    2  501    0 -0.99607248417E+02  0.54848887332E+02 -0.14118310950E+03  0.18128065199E+03  0.00000000000E+00 0. -1.
         -1    1    1    2    0  503 -0.10471879452E+03  0.87139934388E+02  0.38292009797E+02  0.14151209173E+03  0.00000000000E+00 0.  1.
<mgrwt>
<rscale>  4 0.19061335E+03</rscale>
<asrwt>0</asrwt>
<pdfrwt beam="1">  1       21 0.21174087E-01 0.19061335E+03</pdfrwt>
<pdfrwt beam="2">  1       21 0.14047736E+00 0.19061335E+03</pdfrwt>
<totfact> 0.73697296E+03</totfact>
</mgrwt>
</event>
<event>
 5    0  0.1972558E-002  0.2248203E+03  0.7546771E-02  0.1130339E+00
         21   -1    0    0  503  502  0.00000000000E+00  0.00000000000E+00  0.12712670030E+04  0.12712670030E+04  0.00000000000E+00 0.  1.
         21   -1    0    0  501  503 -0.00000000000E+00 -0.00000000000E+00 -0.57423255548E+02  0.57423255548E+02  0.00000000000E+00 0. -1.
         25    1    1    2    0    0 -0.20793909094E+03 -0.43533253724E+02  0.36367522884E+03  0.43933868688E+03  0.12500000000E+03 0.  0.
          2    1    1    2  501    0  0.51023726935E+02 -0.35209113031E+01  0.50166693919E+03  0.50426732533E+03  0.00000000000E+00 0. -1.
         -2    1    1    2    0  502  0.15691536400E+03  0.47054165028E+02  0.34850157938E+03  0.38508424628E+03  0.00000000000E+00 0.  1.
<mgrwt>
<rscale>  4 0.22482034E+03</rscale>
<asrwt>0</asrwt>
<pdfrwt beam="1">  1       21 0.19557952E+00 0.22482034E+03</pdfrwt>
<pdfrwt beam="2">  1       21 0.88343480E-02 0.22482034E+03</pdfrwt>
<totfact> 0.14122801E+04</totfact>
</mgrwt>
</event>
<event>
 5    0  0.1972558E-002  0.4083175E+03  0.7546771E-02  0.1040937E+00
         21   -1    0    0  501  502  0.00000000000E+00  0.00000000000E+00  0.99069963143E+03  0.99069963143E+03  0.00000000000E+00 0.  1.
         21   -1    0    0  502  503 -0.00000000000E+00 -0.00000000000E+00 -0.16654780502E+04  0.16654780502E+04  0.00000000000E+00 0.  1.
         25    1    1    2    0    0  0.18842866400E+03  0.33352740476E+03 -0.14669478477E+04  0.15212846147E+04  0.12500000000E+03 0.  0.
          2    1    1    2  501    0 -0.13064797634E+03  0.20763406235E+03  0.37952521948E+03  0.45190728008E+03  0.00000000000E+00 0. -1.
         -2    1    1    2    0  503 -0.57780687665E+02 -0.54116146712E+03  0.41264420948E+03  0.68298578680E+03  0.00000000000E+00 0.  1.
<mgrwt>
<rscale>  4 0.40831754E+03</rscale>
<asrwt>0</asrwt>
<pdfrwt beam="1">  1       21 0.15241533E+00 0.40831754E+03</pdfrwt>
<pdfrwt beam="2">  1       21 0.25622739E+00 0.40831754E+03</pdfrwt>
<totfact> 0.13483204E+01</totfact>
</mgrwt>
</event>
<event>
 5    0  0.1972558E-002  0.2461476E+03  0.7546771E-02  0.1115764E+00
         21   -1    0    0  501  502  0.00000000000E+00  0.00000000000E+00  0.21256328395E+03  0.21256328395E+03  0.00000000000E+00 0.  1.
         21   -1    0    0  502  503 -0.00000000000E+00 -0.00000000000E+00 -0.85720340962E+03  0.85720340962E+03  0.00000000000E+00 0.  1.
         25    1    1    2    0    0 -0.20913881699E+03  0.42968111329E+02 -0.56671795364E+03  0.61836845193E+03  0.12500000000E+03 0.  0.
          1    1    1    2  501    0  0.22346331800E+03  0.13824661205E+03 -0.50048792979E+02  0.26749366705E+03  0.00000000000E+00 0.  1.
         -1    1    1    2    0  503 -0.14324501002E+02 -0.18121472338E+03 -0.27873379046E+02  0.18390457459E+03  0.00000000000E+00 0. -1.
<mgrwt>
<rscale>  4 0.24614761E+03</rscale>
<asrwt>0</asrwt>
<pdfrwt beam="1">  1       21 0.32702044E-01 0.24614761E+03</pdfrwt>
<pdfrwt beam="2">  1       21 0.13187745E+00 0.24614761E+03</pdfrwt>
<totfact> 0.35984676E+03</totfact>
</mgrwt>
</event>
<event>
 5    0  0.1972558E-002  0.2408437E+03  0.7546771E-02  0.1119232E+00
         21   -1    0    0  503  502  0.00000000000E+00  0.00000000000E+00  0.20441217184E+04  0.20441217184E+04  0.00000000000E+00 0.  1.
         21   -1    0    0  501  503 -0.00000000000E+00 -0.00000000000E+00 -0.35444107298E+02  0.35444107298E+02  0.00000000000E+00 0.  1.
         25    1    1    2    0    0  0.19120326940E+02  0.22436748060E+03  0.11093405824E+04  0.11388449768E+04  0.12500000000E+03 0.  0.
          1    1    1    2  501    0 -0.56426975541E+02 -0.28848262321E+02  0.36610457225E+03  0.37154916718E+03  0.00000000000E+00 0. -1.
         -1    1    1    2    0  502  0.37306648602E+02 -0.19551921828E+03  0.53323245647E+03  0.56917168182E+03  0.00000000000E+00 0.  1.
<mgrwt>
<rscale>  4 0.24084365E+03</rscale>
<asrwt>0</asrwt>
<pdfrwt beam="1">  1       21 0.31448017E+00 0.24084365E+03</pdfrwt>
<pdfrwt beam="2">  1       21 0.54529412E-02 0.24084365E+03</pdfrwt>
<totfact> 0.62150354E+03</totfact>
</mgrwt>
</event>
<event>
 5    0  0.1972558E-002  0.2664027E+03  0.7546771E-02  0.1103356E+00
         21   -1    0    0  503  502  0.00000000000E+00  0.00000000000E+00  0.47877555629E+03  0.47877555629E+03  0.00000000000E+00 0.  1.
         21   -1    0    0  501  503 -0.00000000000E+00 -0.00000000000E+00 -0.92893847713E+03  0.92893847713E+03  0.00000000000E+00 0. -1.
         25    1    1    2    0    0 -0.10230252383E+03 -0.21021973254E+03 -0.81945697168E+03  0.86127398124E+03  0.12500000000E+03 0.  0.
          2    1    1    2  501    0  0.20350998221E+03  0.19171214850E+03  0.33851920893E+03  0.43905024264E+03  0.00000000000E+00 0.  1.
         -2    1    1    2    0  502 -0.10120745838E+03  0.18507584040E+02  0.30774841910E+02  0.10738980954E+03  0.00000000000E+00 0. -1.
<mgrwt>
<rscale>  4 0.26640270E+03</rscale>
<asrwt>0</asrwt>
<pdfrwt beam="1">  1       21 0.73657778E-01 0.26640270E+03</pdfrwt>
<pdfrwt beam="2">  1       21 0.14291361E+00 0.26640270E+03</pdfrwt>
<totfact> 0.52291106E+02</totfact>
</mgrwt>
</event>
<event>
 5    0  0.1972558E-002  0.3127604E+03  0.7546771E-02  0.1079030E+00
         21   -1    0    0  501  502  0.00000000000E+00  0.00000000000E+00  0.30381382191E+03  0.30381382191E+03  0.00000000000E+00 0.  1.
         21   -1    0    0  502  503 -0.00000000000E+00 -0.00000000000E+00 -0.41236985495E+03  0.41236985495E+03  0.00000000000E+00 0.  1.
         25    1    1    2    0    0 -0.22816653907E+03 -0.20209465552E+03  0.18964235648E+02  0.32998009270E+03  0.12500000000E+03 0.  0.
          1    1    1    2  501    0  0.43277869406E+01  0.35595491682E+02  0.45501178576E+02  0.57932081092E+02  0.00000000000E+00 0. -1.
         -1    1    1    2    0  503  0.22383875213E+03  0.16649916384E+03 -0.17302144726E+03  0.32827150307E+03  0.00000000000E+00 0.  1.
<mgrwt>
<rscale>  4 0.31276038E+03</rscale>
<asrwt>0</asrwt>
<pdfrwt beam="1">  1       21 0.46740588E-01 0.31276038E+03</pdfrwt>
<pdfrwt beam="2">  1       21 0.63441516E-01 0.31276038E+03</pdfrwt>
<totfact> 0.94191504E+03</totfact>
</mgrwt>
</event>
<event>
 5    0  0.1972558E-002  0.2408270E+03  0.7546771E-02  0.1119243E+00
         21   -1    0    0  501  502  0.00000000000E+00  0.00000000000E+00  0.18933327467E+04  0.18933327467E+04  0.00000000000E+00 0.  1.
         21   -1    0    0  502  503 -0.00000000000E+00 -0.00000000000E+00 -0.28353237879E+03  0.28353237879E+03  0.00000000000E+00 0. -1.
         25    1    1    2    0    0  0.10101344148E+03 -0.17851896324E+03 -0.21763619007E+03  0.32413461220E+03  0.12500000000E+03 0.  0.
          1    1    1    2  501    0 -0.15055908512E+03  0.16798274191E+03  0.10657675834E+04  0.10893790807E+04  0.00000000000E+00 0. -1.
         -1    1    1    2    0  503  0.49545643637E+02  0.10536221325E+02  0.76166897455E+03  0.76335143253E+03  0.00000000000E+00 0.  1.
<mgrwt>
<rscale>  4 0.24082696E+03</rscale>
<asrwt>0</asrwt>
<pdfrwt beam="1">  1       21 0.29128195E+00 0.24082696E+03</pdfrwt>
<pdfrwt beam="2">  1       21 0.43620367E-01 0.24082696E+03</pdfrwt>
<totfact> 0.18100919E+02</totfact>
</mgrwt>
</event>
<event>
 5    0  0.1972558E-002  0.2598850E+03  0.7546771E-02  0.1107212E+00
         21   -1    0    0  501  502  0.00000000000E+00  0.00000000000E+00  0.77378723674E+03  0.77378723674E+03  0.00000000000E+00 0.  1.
         21   -1    0    0  502  503 -0.00000000000E+00 -0.00000000000E+00 -0.13485991875E+04  0.13485991875E+04  0.00000000000E+00 0.  1.
         25    1    1    2    0    0 -0.23359309662E+03  0.46458343304E+02 -0.12190265375E+04  0.12483488341E+04  0.12500000000E+03 0.  0.
          4    1    1    2  501    0  0.10877653452E+03 -0.18368072816E+03  0.10499439773E+02  0.21373156668E+03  0.00000000000E+00 0. -1.
         -4    1    1    2    0  503  0.12481656211E+03  0.13722238485E+03  0.63371514699E+03  0.66030602345E+03  0.00000000000E+00 0.  1.
<mgrwt>
<rscale>  4 0.25988501E+03</rscale>
<asrwt>0</asrwt>
<pdfrwt beam="1">  1       21 0.11904419E+00 0.25988501E+03</pdfrwt>
<pdfrwt beam="2">  1       21 0.20747679E+00 0.25988501E+03</pdfrwt>
<totfact> 0.59314960E+01</totfact>
</mgrwt>
</event>
<event>
 5    0  0.1972558E-002  0.2276699E+03  0.7546771E-02  0.1128291E+00
         21   -1    0    0  501  502  0.00000000000E+00  0.00000000000E+00  0.34117463914E+03  0.34117463914E+03  0.00000000000E+00 0.  1.
         21   -1    0    0  502  503 -0.00000000000E+00 -0.00000000000E+00 -0.78026738363E+03  0.78026738363E+03  0.00000000000E+00 0.  1.
         25    1    1    2    0    0 -0.12617871844E+02  0.21139969973E+03 -0.60232062773E+03  0.65058756699E+03  0.12500000000E+03 0.  0.
          2    1    1    2  501    0 -0.45494693317E+01 -0.57376732376E+02  0.27424331907E+03  0.28021810282E+03  0.00000000000E+00 0.  1.
         -2    1    1    2    0  503  0.17167341175E+02 -0.15402296735E+03 -0.11101543583E+03  0.19063635296E+03  0.00000000000E+00 0. -1.
<mgrwt>
<rscale>  4 0.22766989E+03</rscale>
<asrwt>0</asrwt>
<pdfrwt beam="1">  1       21 0.52488406E-01 0.22766989E+03</pdfrwt>
<pdfrwt beam="2">  1       21 0.12004114E+00 0.22766989E+03</pdfrwt>
<totfact> 0.17606185E+03</totfact>
</mgrwt>
</event>
<event>
 5    0  0.1972558E-002  0.3695786E+03  0.7546771E-02  0.1054854E+00
         21   -1    0    0  503  502  0.00000000000E+00  0.00000000000E+00  0.65877212639E+03  0.65877212639E+03  0.00000000000E+00 0. -1.
         21   -1    0    0  501  503 -0.00000000000E+00 -0.00000000000E+00 -0.34429403451E+03  0.34429403451E+03  0.00000000000E+00 0.  1.
         25    1    1    2    0    0  0.28873942449E+03 -0.20294026871E+03 -0.14041300577E+03  0.39987000401E+03  0.12500000000E+03 0.  0.
          4    1    1    2  501    0 -0.19083399868E+02  0.76972951000E+01  0.15113004077E+03  0.15252446927E+03  0.00000000000E+00 0.  1.
         -4    1    1    2    0  502 -0.26965602462E+03  0.19524297361E+03  0.30376105687E+03  0.45067168763E+03  0.00000000000E+00 0. -1.
<mgrwt>
<rscale>  4 0.36957859E+03</rscale>
<asrwt>0</asrwt>
<pdfrwt beam="1">  1       21 0.10134956E+00 0.36957859E+03</pdfrwt>
<pdfrwt beam="2">  1       21 0.52968313E-01 0.36957859E+03</pdfrwt>
<totfact> 0.24006982E+03</totfact>
</mgrwt>
</event>
<event>
 5    0  0.1972558E-002  0.2929290E+03  0.7546771E-02  0.1088830E+00
         21   -1    0    0  501  502  0.00000000000E+00  0.00000000000E+00  0.18373419197E+03  0.18373419197E+03  0.00000000000E+00 0.  1.
         21   -1    0    0  502  503 -0.00000000000E+00 -0.00000000000E+00 -0.90422142683E+03  0.90422142683E+03  0.00000000000E+00 0. -1.
         25    1    1    2    0    0 -0.20461629722E+03 -0.13960672631E+03 -0.33594015914E+03  0.43570478267E+03  0.12500000000E+03 0.  0.
          4    1    1    2  501    0  0.21183064623E+03  0.18097391397E+03 -0.47604238777E+03  0.55157967255E+03  0.00000000000E+00 0. -1.
         -4    1    1    2    0  503 -0.72143490146E+01 -0.41367187655E+02  0.91495312057E+02  0.10067116357E+03  0.00000000000E+00 0.  1.
<mgrwt>
<rscale>  4 0.29292904E+03</rscale>
<asrwt>0</asrwt>
<pdfrwt beam="1">  1       21 0.28266799E-01 0.29292904E+03</pdfrwt>
<pdfrwt beam="2">  1       21 0.13911099E+00 0.29292904E+03</pdfrwt>
<totfact> 0.40557251E+03</totfact>
</mgrwt>
</event>
<event>
 5    0  0.1972558E-002  0.2477800E+03  0.7546771E-02  0.1114716E+00
         21   -1    0    0  501  502  0.00000000000E+00  0.00000000000E+00  0.52859055290E+02  0.52859055290E+02  0.00000000000E+00 0. -1.
         21   -1    0    0  502  503 -0.00000000000E+00 -0.00000000000E+00 -0.25756778486E+04  0.25756778486E+04  0.00000000000E+00 0. -1.
         25    1    1    2    0    0 -0.19690802159E+03 -0.97186059718E+02 -0.19605012491E+04  0.19767164812E+04  0.12500000000E+03 0.  0.
          4    1    1    2  501    0  0.18666808282E+03  0.78181440571E+02 -0.58588888481E+03  0.61985731917E+03  0.00000000000E+00 0.  1.
         -4    1    1    2    0  503  0.10239938775E+02  0.19004619147E+02  0.23571340563E+02  0.31963103588E+02  0.00000000000E+00 0. -1.
<mgrwt>
<rscale>  4 0.24778004E+03</rscale>
<asrwt>0</asrwt>
<pdfrwt beam="1">  1       21 0.81321659E-02 0.24778004E+03</pdfrwt>
<pdfrwt beam="2">  1       21 0.39625796E+00 0.24778004E+03</pdfrwt>
<totfact> 0.99482465E+02</totfact>
</mgrwt>
</event>
<event>
 5    0  0.1972558E-002  0.3735542E+03  0.7546771E-02  0.1053342E+00
         21   -1    0    0  501  502  0.00000000000E+00  0.00000000000E+00  0.86177826875E+03  0.86177826875E+03  0.00000000000E+00 0. -1.
         21   -1    0    0  502  503 -0.00000000000E+00 -0.00000000000E+00 -0.28393973325E+03  0.28393973325E+03  0.00000000000E+00 0. -1.
         25    1    1    2    0    0 -0.34458124852E+03 -0.13368000272E+03  0.45855273807E+01  0.39019560097E+03  0.12500000000E+03 0.  0.
          3    1    1    2  501    0  0.42719727969E+02  0.11279275038E+02  0.36772036620E+03  0.37036531280E+03  0.00000000000E+00 0.  1.
         -3    1    1    2    0  503  0.30186152055E+03  0.12240072768E+03  0.20553264191E+03  0.38515708823E+03  0.00000000000E+00 0. -1.
<mgrwt>
<rscale>  4 0.37355423E+03</rscale>
<asrwt>0</asrwt>
<pdfrwt beam="1">  1       21 0.13258127E+00 0.37355423E+03</pdfrwt>
<pdfrwt beam="2">  1       21 0.43683036E-01 0.37355423E+03</pdfrwt>
<totfact> 0.18349183E+03</totfact>
</mgrwt>
</event>
<event>
 5    0  0.1972558E-002  0.3666369E+03  0.7546771E-02  0.1055986E+00
         21   -1    0    0  501  502  0.00000000000E+00  0.00000000000E+00  0.64840211491E+03  0.64840211491E+03  0.00000000000E+00 0. -1.
         21   -1    0    0  502  503 -0.00000000000E+00 -0.00000000000E+00 -0.25374159359E+04  0.25374159359E+04  0.00000000000E+00 0. -1.
         25    1    1    2    0    0 -0.11843211078E+03  0.32482873693E+03 -0.24044469602E+04  0.24323918388E+04  0.12500000000E+03 0.  0.
          3    1    1    2  501    0  0.31093702680E+02 -0.84982089764E+01  0.40631883231E+03  0.40759542612E+03  0.00000000000E+00 0. -1.
         -3    1    1    2    0  503  0.87338408100E+02 -0.31633052795E+03  0.10911430695E+03  0.34583078582E+03  0.00000000000E+00 0.  1.
<mgrwt>
<rscale>  4 0.36663694E+03</rscale>
<asrwt>0</asrwt>
<pdfrwt beam="1">  1       21 0.99754172E-01 0.36663694E+03</pdfrwt>
<pdfrwt beam="2">  1       21 0.39037168E+00 0.36663694E+03</pdfrwt>
<totfact> 0.63569638E+00</totfact>
</mgrwt>
</event>
<event>
 5    0  0.1972558E-002  0.6088895E+03  0.7546771E-02  0.9887133E-01
         21   -1    0    0  501  502  0.00000000000E+00  0.00000000000E+00  0.94854205321E+03  0.94854205321E+03  0.00000000000E+00 0. -1.
         21   -1    0    0  502  503 -0.00000000000E+00 -0.00000000000E+00 -0.55778051134E+03  0.55778051134E+03  0.00000000000E+00 0.  1.
         25    1    1    2    0    0 -0.31525520622E+03  0.50570305328E+03 -0.21679426872E+03  0.64633286942E+03  0.12500000000E+03 0.  0.
          1    1    1    2  501    0  0.19234535081E+03 -0.23527753443E+03  0.37537667373E+03  0.48296987418E+03  0.00000000000E+00 0.  1.
         -1    1    1    2    0  503  0.12290985541E+03 -0.27042551885E+03  0.23217913686E+03  0.37701982096E+03  0.00000000000E+00 0. -1.
<mgrwt>
<rscale>  4 0.60888950E+03</rscale>
<asrwt>0</asrwt>
<pdfrwt beam="1">  1       21 0.14592955E+00 0.60888950E+03</pdfrwt>
<pdfrwt beam="2">  1       21 0.85812386E-01 0.60888950E+03</pdfrwt>
<totfact> 0.29099450E+02</totfact>
</mgrwt>
</event>
<event>
 5    0  0.1972558E-002  0.3125074E+03  0.7546771E-02  0.1079150E+00
         21   -1    0    0  501  502  0.00000000000E+00  0.00000000000E+00  0.19489814652E+03  0.19489814652E+03  0.00000000000E+00 0. -1.
         21   -1    0    0  502  503 -0.00000000000E+00 -0.00000000000E+00 -0.91657056051E+03  0.91657056051E+03  0.00000000000E+00 0.  1.
         25    1    1    2    0    0 -0.29498089021E+03 -0.13382095594E+03 -0.49739471614E+03  0.60658740300E+03  0.12500000000E+03 0.  0.
          3    1    1    2  501    0  0.43370748522E+02  0.83004727313E+02  0.68113143321E+02  0.11580244763E+03  0.00000000000E+00 0. -1.
         -3    1    1    2    0  503  0.25161014169E+03  0.50816228630E+02 -0.29239084118E+03  0.38907885640E+03  0.00000000000E+00 0.  1.
<mgrwt>
<rscale>  4 0.31250745E+03</rscale>
<asrwt>0</asrwt>
<pdfrwt beam="1">  1       21 0.29984330E-01 0.31250745E+03</pdfrwt>
<pdfrwt beam="2">  1       21 0.14101086E+00 0.31250745E+03</pdfrwt>
<totfact> 0.34482021E+03</totfact>
</mgrwt>
</event>
<event>
 5    0  0.1972558E-002  0.5784278E+03  0.7546771E-02  0.9951201E-01
         21   -1    0    0  501  502  0.00000000000E+00  0.00000000000E+00  0.16133372539E+04  0.16133372539E+04  0.00000000000E+00 0.  1.
         21   -1    0    0  502  503 -0.00000000000E+00 -0.00000000000E+00 -0.37715431510E+03  0.37715431510E+03  0.00000000000E+00 0.  1.
         25    1    1    2    0    0 -0.28572934049E+03 -0.49344396123E+03 -0.13497874122E+02  0.58389673016E+03  0.12500000000E+03 0.  0.
          2    1    1    2  501    0  0.28186605619E+03  0.46827485175E+03  0.87920216064E+03  0.10352421213E+04  0.00000000000E+00 0.  1.
         -2    1    1    2    0  503  0.38632843004E+01  0.25169109485E+02  0.37047865231E+03  0.37135271758E+03  0.00000000000E+00 0. -1.
<mgrwt>
<rscale>  4 0.57842782E+03</rscale>
<asrwt>0</asrwt>
<pdfrwt beam="1">  1       21 0.24820573E+00 0.57842782E+03</pdfrwt>
<pdfrwt beam="2">  1       21 0.58023741E-01 0.57842782E+03</pdfrwt>
<totfact> 0.14071856E+02</totfact>
</mgrwt>
</event>
<event>
 5    0  0.1972558E-002  0.2694656E+03  0.7546771E-02  0.1101586E+00
         21   -1    0    0  501  502  0.00000000000E+00  0.00000000000E+00  0.16767415161E+04  0.16767415161E+04  0.00000000000E+00 0.  1.
         21   -1    0    0  502  503 -0.00000000000E+00 -0.00000000000E+00 -0.20125854161E+03  0.20125854161E+03  0.00000000000E+00 0. -1.
         25    1    1    2    0    0 -0.69521574035E+02  0.22813566020E+03 -0.92082435253E+02  0.28457565530E+03  0.12500000000E+03 0.  0.
          4    1    1    2  501    0  0.10486069134E+03 -0.22100078312E+03  0.14488729184E+04  0.14693773663E+04  0.00000000000E+00 0.  1.
         -4    1    1    2    0  503 -0.35339117307E+02 -0.71348770704E+01  0.11869249131E+03  0.12404703615E+03  0.00000000000E+00 0. -1.
<mgrwt>
<rscale>  4 0.26946561E+03</rscale>
<asrwt>0</asrwt>
<pdfrwt beam="1">  1       21 0.25796022E+00 0.26946561E+03</pdfrwt>
<pdfrwt beam="2">  1       21 0.30962854E-01 0.26946561E+03</pdfrwt>
<totfact> 0.54894853E+02</totfact>
</mgrwt>
</event>
<event>
 5    0  0.1972558E-002  0.2653536E+03  0.7546771E-02  0.1103969E+00
         21   -1    0    0  501  502  0.00000000000E+00  0.00000000000E+00  0.89753180234E+03  0.89753180234E+03  0.00000000000E+00 0. -1.
         21   -1    0    0  502  503 -0.00000000000E+00 -0.00000000000E+00 -0.20193909761E+03  0.20193909761E+03  0.00000000000E+00 0.  1.
         25    1    1    2    0    0 -0.13010851522E+03 -0.20608684462E+03 -0.52341946798E+02  0.27886321495E+03  0.12500000000E+03 0.  0.
          3    1    1    2  501    0  0.94593357386E+02  0.18591839612E+03  0.27128820164E+03  0.34221461340E+03  0.00000000000E+00 0.  1.
         -3    1    1    2    0  503  0.35515157834E+02  0.20168448502E+02  0.47664644989E+03  0.47839307159E+03  0.00000000000E+00 0. -1.
<mgrwt>
<rscale>  4 0.26535362E+03</rscale>
<asrwt>0</asrwt>
<pdfrwt beam="1">  1       21 0.13808181E+00 0.26535362E+03</pdfrwt>
<pdfrwt beam="2">  1       21 0.31067554E-01 0.26535362E+03</pdfrwt>
<totfact> 0.34928862E+03</totfact>
</mgrwt>
</event>
<event>
 5    0  0.1972558E-002  0.2721354E+03  0.7546771E-02  0.1100064E+00
         21   -1    0    0  501  502  0.00000000000E+00  0.00000000000E+00  0.19596854150E+03  0.19596854150E+03  0.00000000000E+00 0. -1.
         21   -1    0    0  502  503 -0.00000000000E+00 -0.00000000000E+00 -0.10049235612E+04  0.10049235612E+04  0.00000000000E+00 0.  1.
         25    1    1    2    0    0 -0.25343021826E+03 -0.44090820222E+02 -0.58186181688E+03  0.64835102367E+03  0.12500000000E+03 0.  0.
          2    1    1    2  501    0  0.38013954395E+02 -0.29153457215E+02  0.12469761959E+03  0.13358323671E+03  0.00000000000E+00 0. -1.
         -2    1    1    2    0  503  0.21541626386E+03  0.73244277437E+02 -0.35179082244E+03  0.41895784235E+03  0.00000000000E+00 0.  1.
<mgrwt>
<rscale>  4 0.27213539E+03</rscale>
<asrwt>0</asrwt>
<pdfrwt beam="1">  1       21 0.30149007E-01 0.27213539E+03</pdfrwt>
<pdfrwt beam="2">  1       21 0.15460362E+00 0.27213539E+03</pdfrwt>
<totfact> 0.27351963E+03</totfact>
</mgrwt>
</event>
<event>
 5    0  0.1972558E-002  0.2472682E+03  0.7546771E-02  0.1115044E+00
         21   -1    0    0  503  502  0.00000000000E+00  0.00000000000E+00  0.16321170744E+04  0.16321170744E+04  0.00000000000E+00 0. -1.
         21   -1    0    0  501  503 -0.00000000000E+00 -0.00000000000E+00 -0.75671759478E+02  0.75671759478E+02  0.00000000000E+00 0. -1.
         25    1    1    2    0    0 -0.47654711773E+02  0.20795575099E+03  0.16933974981E+03  0.29969570700E+03  0.12500000000E+03 0.  0.
          4    1    1    2  501    0  0.77563185555E+02 -0.82629632186E+02  0.63774004127E+03  0.64773147531E+03  0.00000000000E+00 0.  1.
         -4    1    1    2    0  502 -0.29908473782E+02 -0.12532611881E+03  0.74936552385E+03  0.76036165158E+03  0.00000000000E+00 0. -1.
<mgrwt>
<rscale>  4 0.24726821E+03</rscale>
<asrwt>0</asrwt>
<pdfrwt beam="1">  1       21 0.25109491E+00 0.24726821E+03</pdfrwt>
<pdfrwt beam="2">  1       21 0.11641810E-01 0.24726821E+03</pdfrwt>
<totfact> 0.38518868E+03</totfact>
</mgrwt>
</event>
<event>
 5    0  0.1972558E-002  0.2744484E+03  0.7546771E-02  0.1098760E+00
         21   -1    0    0  501  502  0.00000000000E+00  0.00000000000E+00  0.78570605181E+03  0.78570605181E+03  0.00000000000E+00 0.  1.
         21   -1    0    0  502  503 -0.00000000000E+00 -0.00000000000E+00 -0.16037488958E+03  0.16037488958E+03  0.00000000000E+00 0.  1.
         25    1    1    2    0    0  0.11128099528E+03  0.20600870331E+03  0.78633975559E+02  0.27682367648E+03  0.12500000000E+03 0.  0.
          4    1    1    2  501    0 -0.12725511623E+03 -0.22711148041E+03  0.21816527872E+03  0.33966097506E+03  0.00000000000E+00 0.  1.
         -4    1    1    2    0  503  0.15974120947E+02  0.21102777098E+02  0.32853190795E+03  0.32959628985E+03  0.00000000000E+00 0. -1.
<mgrwt>
<rscale>  4 0.27444843E+03</rscale>
<asrwt>0</asrwt>
<pdfrwt beam="1">  1       21 0.12087785E+00 0.27444843E+03</pdfrwt>
<pdfrwt beam="2">  1       21 0.24673060E-01 0.27444843E+03</pdfrwt>
<totfact> 0.76394836E+03</totfact>
</mgrwt>
</event>
<event>
 5    0  0.1972558E-002  0.2508767E+03  0.7546771E-02  0.1112752E+00
         21   -1    0    0  501  502  0.00000000000E+00  0.00000000000E+00  0.41484673113E+03  0.41484673113E+03  0.00000000000E+00 0.  1.
         21   -1    0    0  502  503 -0.00000000000E+00 -0.00000000000E+00 -0.42231676267E+03  0.42231676267E+03  0.00000000000E+00 0. -1.
         25    1    1    2    0    0  0.21061675447E+03 -0.24677023153E+02 -0.29481399075E+03  0.38406856403E+03  0.12500000000E+03 0.  0.
          3    1    1    2  501    0 -0.23374233528E+03  0.60385768191E+02  0.10055256004E+03  0.26152005206E+03  0.00000000000E+00 0. -1.
         -3    1    1    2    0  503  0.23125580804E+02 -0.35708745039E+02  0.18679139918E+03  0.19157487770E+03  0.00000000000E+00 0.  1.
<mgrwt>
<rscale>  4 0.25087670E+03</rscale>
<asrwt>0</asrwt>
<pdfrwt beam="1">  1       21 0.63822574E-01 0.25087670E+03</pdfrwt>
<pdfrwt beam="2">  1       21 0.64971809E-01 0.25087670E+03</pdfrwt>
<totfact> 0.47479732E+03</totfact>
</mgrwt>
</event>
<event>
 5    0  0.1972558E-002  0.3954016E+03  0.7546771E-02  0.1045384E+00
         21   -1    0    0  501  502  0.00000000000E+00  0.00000000000E+00  0.25537306728E+03  0.25537306728E+03  0.00000000000E+00 0.  1.
         21   -1    0    0  502  503 -0.00000000000E+00 -0.00000000000E+00 -0.90677718117E+03  0.90677718117E+03  0.00000000000E+00 0.  1.
         25    1    1    2    0    0  0.28512180815E+03  0.25744296494E+03 -0.61079615405E+03  0.73230339852E+03  0.12500000000E+03 0.  0.
          4    1    1    2  501    0 -0.27173178910E+03 -0.22844598195E+03 -0.94354709045E+02  0.36732620788E+03  0.00000000000E+00 0.  1.
         -4    1    1    2    0  503 -0.13390019041E+02 -0.28996982992E+02  0.53746749203E+02  0.62520642051E+02  0.00000000000E+00 0. -1.
<mgrwt>
<rscale>  4 0.39540160E+03</rscale>
<asrwt>0</asrwt>
<pdfrwt beam="1">  1       21 0.39288164E-01 0.39540160E+03</pdfrwt>
<pdfrwt beam="2">  1       21 0.13950418E+00 0.39540160E+03</pdfrwt>
<totfact> 0.19786191E+03</totfact>
</mgrwt>
</event>
<event>
 5    0  0.1972558E-002  0.3509367E+03  0.7546771E-02  0.1062231E+00
         21   -1    0    0  501  502  0.00000000000E+00  0.00000000000E+00  0.24876863995E+03  0.24876863995E+03  0.00000000000E+00 0. -1.
         21   -1    0    0  502  503 -0.00000000000E+00 -0.00000000000E+00 -0.77813403549E+03  0.77813403549E+03  0.00000000000E+00 0. -1.
         25    1    1    2    0    0  0.28963324236E+03 -0.18295391970E+03 -0.11715305703E+03  0.38302661864E+03  0.12500000000E+03 0.  0.
          3    1    1    2  501    0 -0.20110050100E+02  0.58771603152E+01  0.64787857063E+02  0.68091273679E+02  0.00000000000E+00 0.  1.
         -3    1    1    2    0  503 -0.26952319226E+03  0.17707675939E+03 -0.47700019558E+03  0.57578478311E+03  0.00000000000E+00 0. -1.
<mgrwt>
<rscale>  4 0.35093671E+03</rscale>
<asrwt>0</asrwt>
<pdfrwt beam="1">  1       21 0.38272099E-01 0.35093671E+03</pdfrwt>
<pdfrwt beam="2">  1       21 0.11971293E+00 0.35093671E+03</pdfrwt>
<totfact> 0.31614126E+03</totfact>
</mgrwt>
</event>
<event>
 5    0  0.1972558E-002  0.2809773E+03  0.7546771E-02  0.1095156E+00
         21   -1    0    0  503  502  0.00000000000E+00  0.00000000000E+00  0.84598089183E+03  0.84598089183E+03  0.00000000000E+00 0.  1.
         21   -1    0    0  501  503 -0.00000000000E+00 -0.00000000000E+00 -0.13211371404E+03  0.13211371404E+03  0.00000000000E+00 0. -1.
         25    1    1    2    0    0 -0.27828550247E+03  0.13707459675E+02  0.22332196657E+03  0.37832316356E+03  0.12500000000E+03 0.  0.
          3    1    1    2  501    0  0.57356858240E+02  0.53312984770E+02  0.26761536729E+03  0.27883699242E+03  0.00000000000E+00 0. -1.
         -3    1    1    2    0  502  0.22092864423E+03 -0.67020444445E+02  0.22292984393E+03  0.32093444989E+03  0.00000000000E+00 0.  1.
<mgrwt>
<rscale>  4 0.28097729E+03</rscale>
<asrwt>0</asrwt>
<pdfrwt beam="1">  1       21 0.13015090E+00 0.28097729E+03</pdfrwt>
<pdfrwt beam="2">  1       21 0.20325187E-01 0.28097729E+03</pdfrwt>
<totfact> 0.91304971E+03</totfact>
</mgrwt>
</event>
<event>
 5    0  0.1972558E-002  0.2380774E+03  0.7546771E-02  0.1121080E+00
         21   -1    0    0  501  502  0.00000000000E+00  0.00000000000E+00  0.21975618446E+04  0.21975618446E+04  0.00000000000E+00 0.  1.
         21   -1    0    0  502  503 -0.00000000000E+00 -0.00000000000E+00 -0.77213885498E+02  0.77213885498E+02  0.00000000000E+00 0.  1.
         25    1    1    2    0    0 -0.16919445121E+03 -0.11062443707E+03  0.13119341401E+03  0.27147972351E+03  0.12500000000E+03 0.  0.
          3    1    1    2  501    0  0.18742285195E+03  0.90378816816E+02  0.16541534025E+04  0.16671889920E+04  0.00000000000E+00 0.  1.
         -3    1    1    2    0  503 -0.18228400734E+02  0.20245620252E+02  0.33500114255E+03  0.33610701457E+03  0.00000000000E+00 0. -1.
<mgrwt>
<rscale>  4 0.23807736E+03</rscale>
<asrwt>0</asrwt>
<pdfrwt beam="1">  1       21 0.33808639E+00 0.23807736E+03</pdfrwt>
<pdfrwt beam="2">  1       21 0.11879061E-01 0.23807736E+03</pdfrwt>
<totfact> 0.11580751E+03</totfact>
</mgrwt>
</event>
<event>
 5    0  0.1972558E-002  0.4185537E+03  0.7546771E-02  0.1037538E+00
         21   -1    0    0  501  502  0.00000000000E+00  0.00000000000E+00  0.13521200643E+04  0.13521200643E+04  0.00000000000E+00 0. -1.
         21   -1    0    0  502  503 -0.00000000000E+00 -0.00000000000E+00 -0.22966576131E+03  0.22966576131E+03  0.00000000000E+00 0.  1.
         25    1    1    2    0    0  0.31220216483E+03  0.23019664973E+03  0.81953176077E+02  0.41569461428E+03  0.12500000000E+03 0.  0.
          4    1    1    2  501    0 -0.32095198978E+03 -0.30236026396E+03  0.78405063330E+03  0.89953727246E+03  0.00000000000E+00 0. -1.
         -4    1    1    2    0  503  0.87498249442E+01  0.72163614231E+02  0.25645049364E+03  0.26655393890E+03  0.00000000000E+00 0.  1.
<mgrwt>
<rscale>  4 0.41855367E+03</rscale>
<asrwt>0</asrwt>
<pdfrwt beam="1">  1       21 0.20801847E+00 0.41855367E+03</pdfrwt>
<pdfrwt beam="2">  1       21 0.35333195E-01 0.41855367E+03</pdfrwt>
<totfact> 0.77573199E+02</totfact>
</mgrwt>
</event>
<event>
 5    0  0.1972558E-002  0.2331943E+03  0.7546771E-02  0.1124411E+00
         21   -1    0    0  501  502  0.00000000000E+00  0.00000000000E+00  0.16487277122E+03  0.16487277122E+03  0.00000000000E+00 0.  1.
         21   -1    0    0  502  503 -0.00000000000E+00 -0.00000000000E+00 -0.68369131712E+03  0.68369131712E+03  0.00000000000E+00 0. -1.
         25    1    1    2    0    0  0.12309467440E+03 -0.16580019857E+03 -0.39895174636E+03  0.46629336327E+03  0.12500000000E+03 0.  0.
          2    1    1    2  501    0  0.30372615333E+02  0.52650136066E+02  0.83642836489E+02  0.10339563185E+03  0.00000000000E+00 0. -1.
         -2    1    1    2    0  503 -0.15346728973E+03  0.11315006250E+03 -0.20350963603E+03  0.27887509322E+03  0.00000000000E+00 0.  1.
<mgrwt>
<rscale>  4 0.23319435E+03</rscale>
<asrwt>0</asrwt>
<pdfrwt beam="1">  1       21 0.25365042E-01 0.23319435E+03</pdfrwt>
<pdfrwt beam="2">  1       21 0.10518328E+00 0.23319435E+03</pdfrwt>
<totfact> 0.10434943E+04</totfact>
</mgrwt>
</event>
<event>
 5    0  0.1972558E-002  0.2432869E+03  0.7546771E-02  0.1117622E+00
         21   -1    0    0  501  502  0.00000000000E+00  0.00000000000E+00  0.31678166166E+03  0.31678166166E+03  0.00000000000E+00 0. -1.
         21   -1    0    0  502  503 -0.00000000000E+00 -0.00000000000E+00 -0.30501632471E+03  0.30501632471E+03  0.00000000000E+00 0. -1.
         25    1    1    2    0    0 -0.40130325156E+02 -0.21111555113E+03 -0.13484648165E+03  0.28282289960E+03  0.12500000000E+03 0.  0.
          1    1    1    2  501    0  0.23691848839E+02  0.11236301562E+02  0.13560749424E+03  0.13811933489E+03  0.00000000000E+00 0.  1.
         -1    1    1    2    0  503  0.16438476318E+02  0.19987924957E+03  0.11004324349E+02  0.20085575188E+03  0.00000000000E+00 0. -1.
<mgrwt>
<rscale>  4 0.24328689E+03</rscale>
<asrwt>0</asrwt>
<pdfrwt beam="1">  1       21 0.48735640E-01 0.24328689E+03</pdfrwt>
<pdfrwt beam="2">  1       21 0.46925589E-01 0.24328689E+03</pdfrwt>
<totfact> 0.16971743E+04</totfact>
</mgrwt>
</event>
<event>
 5    0  0.1972558E-002  0.2369240E+03  0.7546771E-02  0.1121859E+00
         21   -1    0    0  501  502  0.00000000000E+00  0.00000000000E+00  0.51605071473E+03  0.51605071473E+03  0.00000000000E+00 0.  1.
         21   -1    0    0  502  503 -0.00000000000E+00 -0.00000000000E+00 -0.60217568993E+03  0.60217568993E+03  0.00000000000E+00 0. -1.
         25    1    1    2    0    0 -0.18075317843E+03 -0.93987569476E+02 -0.50580535709E+03  0.55943671134E+03  0.12500000000E+03 0.  0.
          3    1    1    2  501    0 -0.91886265641E+01  0.53139103967E+02  0.34729772485E+03  0.35145967751E+03  0.00000000000E+00 0.  1.
         -3    1    1    2    0  503  0.18994180499E+03  0.40848465509E+02  0.72382657043E+02  0.20733001582E+03  0.00000000000E+00 0. -1.
<mgrwt>
<rscale>  4 0.23692403E+03</rscale>
<asrwt>0</asrwt>
<pdfrwt beam="1">  1       21 0.79392417E-01 0.23692403E+03</pdfrwt>
<pdfrwt beam="2">  1       21 0.92642414E-01 0.23692403E+03</pdfrwt>
<totfact> 0.13213667E+03</totfact>
</mgrwt>
</event>
<event>
 5    0  0.1972558E-002  0.3249221E+03  0.7546771E-02  0.1073406E+00
         21   -1    0    0  501  502  0.00000000000E+00  0.00000000000E+00  0.70532465909E+02  0.70532465909E+02  0.00000000000E+00 0.  1.
         21   -1    0    0  502  503 -0.00000000000E+00 -0.00000000000E+00 -0.15375590780E+04  0.15375590780E+04  0.00000000000E+00 0. -1.
         25    1    1    2    0    0  0.29089739255E+03  0.72993476761E+02 -0.96847247433E+03  0.10215249748E+04  0.12500000000E+03 0.  0.
          4    1    1    2  501    0 -0.23912219360E+03 -0.68847025467E+02 -0.45576768710E+03  0.51927210689E+03  0.00000000000E+00 0.  1.
         -4    1    1    2    0  503 -0.51775198946E+02 -0.41464512938E+01 -0.42786450692E+02  0.67294462232E+02  0.00000000000E+00 0. -1.
<mgrwt>
<rscale>  4 0.32492205E+03</rscale>
<asrwt>0</asrwt>
<pdfrwt beam="1">  1       21 0.10851149E-01 0.32492205E+03</pdfrwt>
<pdfrwt beam="2">  1       21 0.23654754E+00 0.32492205E+03</pdfrwt>
<totfact> 0.50667404E+03</totfact>
</mgrwt>
</event>
<event>
 5    0  0.1972558E-002  0.2826720E+03  0.7546771E-02  0.1094238E+00
         21   -1    0    0  501  502  0.00000000000E+00  0.00000000000E+00  0.20920865679E+03  0.20920865679E+03  0.00000000000E+00 0. -1.
         21   -1    0    0  502  503 -0.00000000000E+00 -0.00000000000E+00 -0.45751062893E+03  0.45751062893E+03  0.00000000000E+00 0.  1.
         25    1    1    2    0    0 -0.52457994993E+02  0.24804563634E+03 -0.28990724317E+03  0.40490701227E+03  0.12500000000E+03 0.  0.
          3    1    1    2  501    0  0.58524184793E+00 -0.21363162678E+02  0.18245081648E+02  0.28100004128E+02  0.00000000000E+00 0.  1.
         -3    1    1    2    0  503  0.51872753145E+02 -0.22668247366E+03  0.23360189379E+02  0.23371226933E+03  0.00000000000E+00 0. -1.
<mgrwt>
<rscale>  4 0.28267203E+03</rscale>
<asrwt>0</asrwt>
<pdfrwt beam="1">  1       21 0.32185947E-01 0.28267203E+03</pdfrwt>
<pdfrwt beam="2">  1       21 0.70386251E-01 0.28267203E+03</pdfrwt>
<totfact> 0.16199380E+04</totfact>
</mgrwt>
</event>
<event>
 5    0  0.1972558E-002  0.3428970E+03  0.7546771E-02  0.1065569E+00
         21   -1    0    0  501  502  0.00000000000E+00  0.00000000000E+00  0.14633996374E+04  0.14633996374E+04  0.00000000000E+00 0.  1.
         21   -1    0    0  502  503 -0.00000000000E+00 -0.00000000000E+00 -0.15191217814E+04  0.15191217814E+04  0.00000000000E+00 0.  1.
         25    1    1    2    0    0  0.17338725254E+03  0.27080003042E+03 -0.14181858952E+04  0.14595451446E+04  0.12500000000E+03 0.  0.
          3    1    1    2  501    0 -0.40698821958E+02 -0.11120285950E+02  0.11761866538E+04  0.11769431164E+04  0.00000000000E+00 0.  1.
         -3    1    1    2    0  503 -0.13268843059E+03 -0.25967974447E+03  0.18627709740E+03  0.34603315783E+03  0.00000000000E+00 0. -1.
<mgrwt>
<rscale>  4 0.34289695E+03</rscale>
<asrwt>0</asrwt>
<pdfrwt beam="1">  1       21 0.22513841E+00 0.34289695E+03</pdfrwt>
<pdfrwt beam="2">  1       21 0.23371104E+00 0.34289695E+03</pdfrwt>
<totfact> 0.62253850E+00</totfact>
</mgrwt>
</event>
<event>
 5    0  0.1972558E-002  0.3501935E+03  0.7546771E-02  0.1062536E+00
         21   -1    0    0  501  502  0.00000000000E+00  0.00000000000E+00  0.20568098125E+03  0.20568098125E+03  0.00000000000E+00 0. -1.
         21   -1    0    0  502  503 -0.00000000000E+00 -0.00000000000E+00 -0.17377821266E+04  0.17377821266E+04  0.00000000000E+00 0. -1.
         25    1    1    2    0    0  0.32571207449E+03 -0.15584043377E+02 -0.14169479453E+04  0.14593483812E+04  0.12500000000E+03 0.  0.
          4    1    1    2  501    0 -0.32970039549E+03  0.44601359288E+02 -0.20420253964E+03  0.39037201390E+03  0.00000000000E+00 0. -1.
         -4    1    1    2    0  503  0.39883209997E+01 -0.29017315912E+02  0.89049339573E+02  0.93742712813E+02  0.00000000000E+00 0.  1.
<mgrwt>
<rscale>  4 0.35019347E+03</rscale>
<asrwt>0</asrwt>
<pdfrwt beam="1">  1       21 0.31643228E-01 0.35019347E+03</pdfrwt>
<pdfrwt beam="2">  1       21 0.26735110E+00 0.35019347E+03</pdfrwt>
<totfact> 0.43234712E+02</totfact>
</mgrwt>
</event>
<event>
 5    0  0.1972558E-002  0.2563777E+03  0.7546771E-02  0.1109339E+00
         21   -1    0    0  501  502  0.00000000000E+00  0.00000000000E+00  0.32357248658E+03  0.32357248658E+03  0.00000000000E+00 0.  1.
         21   -1    0    0  502  503 -0.00000000000E+00 -0.00000000000E+00 -0.43105315420E+03  0.43105315420E+03  0.00000000000E+00 0. -1.
         25    1    1    2    0    0 -0.43960488380E+02  0.21948125502E+03 -0.33831876625E+03  0.42448690609E+03  0.12500000000E+03 0.  0.
          2    1    1    2  501    0  0.31944629270E+02 -0.23491856851E+02  0.37661985508E+02  0.54687766730E+02  0.00000000000E+00 0. -1.
         -2    1    1    2    0  503  0.12015859110E+02 -0.19598939817E+03  0.19317611312E+03  0.27545096795E+03  0.00000000000E+00 0.  1.
<mgrwt>
<rscale>  4 0.25637774E+03</rscale>
<asrwt>0</asrwt>
<pdfrwt beam="1">  1       21 0.49780383E-01 0.25637774E+03</pdfrwt>
<pdfrwt beam="2">  1       21 0.66315870E-01 0.25637774E+03</pdfrwt>
<totfact> 0.77004904E+03</totfact>
</mgrwt>
</event>
<event>
 5    0  0.1972558E-002  0.2508839E+03  0.7546771E-02  0.1112747E+00
         21   -1    0    0  503  502  0.00000000000E+00  0.00000000000E+00  0.89463261350E+02  0.89463261350E+02  0.00000000000E+00 0. -1.
         21   -1    0    0  501  503 -0.00000000000E+00 -0.00000000000E+00 -0.87725441628E+03  0.87725441628E+03  0.00000000000E+00 0. -1.
         25    1    1    2    0    0  0.18953666580E+03  0.12982082111E+03 -0.60293767009E+03  0.65721870583E+03  0.12500000000E+03 0.  0.
          4    1    1    2  501    0 -0.26790267202E+02 -0.15876535402E+02  0.84902412319E+01  0.32277964454E+02  0.00000000000E+00 0.  1.
         -4    1    1    2    0  502 -0.16274639860E+03 -0.11394428571E+03 -0.19334372607E+03  0.27722100735E+03  0.00000000000E+00 0. -1.
<mgrwt>
<rscale>  4 0.25088390E+03</rscale>
<asrwt>0</asrwt>
<pdfrwt beam="1">  1       21 0.13763579E-01 0.25088390E+03</pdfrwt>
<pdfrwt beam="2">  1       21 0.13496222E+00 0.25088390E+03</pdfrwt>
<totfact> 0.17400684E+04</totfact>
</mgrwt>
</event>
<event>
 5    0  0.1972558E-002  0.2991034E+03  0.7546771E-02  0.1085690E+00
         21   -1    0    0  501  502  0.00000000000E+00  0.00000000000E+00  0.13709388948E+04  0.13709388948E+04  0.00000000000E+00 0.  1.
         21   -1    0    0  502  503 -0.00000000000E+00 -0.00000000000E+00 -0.24589886659E+03  0.24589886659E+03  0.00000000000E+00 0.  1.
         25    1    1    2    0    0 -0.27484743617E+03 -0.31233872045E+02 -0.11604076820E+03  0.32497250317E+03  0.12500000000E+03 0.  0.
          4    1    1    2  501    0  0.20953352625E+03  0.93971134543E+02  0.11035779343E+04  0.11272174279E+04  0.00000000000E+00 0.  1.
         -4    1    1    2    0  503  0.65313909919E+02 -0.62737262498E+02  0.13750286211E+03  0.16464783030E+03  0.00000000000E+00 0. -1.
<mgrwt>
<rscale>  4 0.29910336E+03</rscale>
<asrwt>0</asrwt>
<pdfrwt beam="1">  1       21 0.21091367E+00 0.29910336E+03</pdfrwt>
<pdfrwt beam="2">  1       21 0.37830596E-01 0.29910336E+03</pdfrwt>
<totfact> 0.69725781E+02</totfact>
</mgrwt>
</event>
<event>
 5    0  0.1972558E-002  0.3165115E+03  0.7546771E-02  0.1077266E+00
         21   -1    0    0  501  502  0.00000000000E+00  0.00000000000E+00  0.87649788944E+03  0.87649788944E+03  0.00000000000E+00 0. -1.
         21   -1    0    0  502  503 -0.00000000000E+00 -0.00000000000E+00 -0.11042820396E+03  0.11042820396E+03  0.00000000000E+00 0. -1.
         25    1    1    2    0    0  0.95379487967E+02  0.27469494507E+03  0.31114981481E+03  0.44383979861E+03  0.12500000000E+03 0.  0.
          2    1    1    2  501    0 -0.19606887688E+02 -0.43250834995E+02  0.11943028164E+03  0.12852492733E+03  0.00000000000E+00 0.  1.
         -2    1    1    2    0  503 -0.75772600279E+02 -0.23144411008E+03  0.33548958904E+03  0.41456136747E+03  0.00000000000E+00 0. -1.
<mgrwt>
<rscale>  4 0.31651155E+03</rscale>
<asrwt>0</asrwt>
<pdfrwt beam="1">  1       21 0.13484582E+00 0.31651155E+03</pdfrwt>
<pdfrwt beam="2">  1       21 0.16988955E-01 0.31651155E+03</pdfrwt>
<totfact> 0.11465350E+04</totfact>
</mgrwt>
</event>
<event>
 5    0  0.1972558E-002  0.2509497E+03  0.7546771E-02  0.1112706E+00
         21   -1    0    0  501  502  0.00000000000E+00  0.00000000000E+00  0.15686335375E+03  0.15686335375E+03  0.00000000000E+00 0.  1.
         21   -1    0    0  502  503 -0.00000000000E+00 -0.00000000000E+00 -0.99243051737E+03  0.99243051737E+03  0.00000000000E+00 0.  1.
         25    1    1    2    0    0 -0.62940140750E+02  0.28158285630E+03 -0.44766920009E+03  0.54706770969E+03  0.12500000000E+03 0.  0.
          3    1    1    2  501    0 -0.27893346228E+02 -0.11287184673E+03  0.48221755530E+02  0.12587068863E+03  0.00000000000E+00 0.  1.
         -3    1    1    2    0  503  0.90833486978E+02 -0.16871100956E+03 -0.43611971906E+03  0.47635547279E+03  0.00000000000E+00 0. -1.
<mgrwt>
<rscale>  4 0.25094972E+03</rscale>
<asrwt>0</asrwt>
<pdfrwt beam="1">  1       21 0.24132824E-01 0.25094972E+03</pdfrwt>
<pdfrwt beam="2">  1       21 0.15268162E+00 0.25094972E+03</pdfrwt>
<totfact> 0.44179517E+03</totfact>
</mgrwt>
</event>
<event>
 5    0  0.1972558E-002  0.2706657E+03  0.7546771E-02  0.1100899E+00
         21   -1    0    0  501  502  0.00000000000E+00  0.00000000000E+00  0.85710823495E+03  0.85710823495E+03  0.00000000000E+00 0.  1.
         21   -1    0    0  502  503 -0.00000000000E+00 -0.00000000000E+00 -0.22165088269E+03  0.22165088269E+03  0.00000000000E+00 0. -1.
         25    1    1    2    0    0 -0.20121824937E+02  0.24205056138E+03 -0.41407011414E+02  0.27628409780E+03  0.12500000000E+03 0.  0.
          2    1    1    2  501    0  0.23831992157E+02 -0.65625838198E+01  0.51753796380E+03  0.51812795266E+03  0.00000000000E+00 0. -1.
         -2    1    1    2    0  503 -0.37101672204E+01 -0.23548797756E+03  0.15932639987E+03  0.28434706718E+03  0.00000000000E+00 0.  1.
<mgrwt>
<rscale>  4 0.27066567E+03</rscale>
<asrwt>0</asrwt>
<pdfrwt beam="1">  1       21 0.13186280E+00 0.27066567E+03</pdfrwt>
<pdfrwt beam="2">  1       21 0.34100136E-01 0.27066567E+03</pdfrwt>
<totfact> 0.32588725E+03</totfact>
</mgrwt>
</event>
<event>
 5    0  0.1972558E-002  0.2964798E+03  0.7546771E-02  0.1087014E+00
         21   -1    0    0  501  502  0.00000000000E+00  0.00000000000E+00  0.75780618434E+02  0.75780618434E+02  0.00000000000E+00 0.  1.
         21   -1    0    0  502  503 -0.00000000000E+00 -0.00000000000E+00 -0.17780950406E+04  0.17780950406E+04  0.00000000000E+00 0. -1.
         25    1    1    2    0    0  0.15577148536E+03 -0.21911307622E+03 -0.14175478982E+04  0.14482204043E+04  0.12500000000E+03 0.  0.
          1    1    1    2  501    0 -0.42048213609E+02  0.33572637496E+02 -0.93080986435E+01  0.54605997441E+02  0.00000000000E+00 0. -1.
         -1    1    1    2    0  503 -0.11372327175E+03  0.18554043872E+03 -0.27545842530E+03  0.35104925724E+03  0.00000000000E+00 0.  1.
<mgrwt>
<rscale>  4 0.29647984E+03</rscale>
<asrwt>0</asrwt>
<pdfrwt beam="1">  1       21 0.11658556E-01 0.29647984E+03</pdfrwt>
<pdfrwt beam="2">  1       21 0.27355310E+00 0.29647984E+03</pdfrwt>
<totfact> 0.27186483E+03</totfact>
</mgrwt>
</event>
<event>
 5    0  0.1972558E-002  0.2437489E+03  0.7546771E-02  0.1117320E+00
         21   -1    0    0  501  502  0.00000000000E+00  0.00000000000E+00  0.24237876949E+03  0.24237876949E+03  0.00000000000E+00 0. -1.
         21   -1    0    0  502  503 -0.00000000000E+00 -0.00000000000E+00 -0.65666482572E+03  0.65666482572E+03  0.00000000000E+00 0.  1.
         25    1    1    2    0    0  0.45471347558E+01  0.25599370340E+03 -0.22315207378E+03  0.36190509895E+03  0.12500000000E+03 0.  0.
          3    1    1    2  501    0  0.66350460537E+02 -0.18352487014E+03 -0.31899977232E+03  0.37395804085E+03  0.00000000000E+00 0.  1.
         -3    1    1    2    0  503 -0.70897595293E+02 -0.72468833254E+02  0.12786578987E+03  0.16318045542E+03  0.00000000000E+00 0. -1.
<mgrwt>
<rscale>  4 0.24374888E+03</rscale>
<asrwt>0</asrwt>
<pdfrwt beam="1">  1       21 0.37289041E-01 0.24374888E+03</pdfrwt>
<pdfrwt beam="2">  1       21 0.10102536E+00 0.24374888E+03</pdfrwt>
<totfact> 0.53578823E+03</totfact>
</mgrwt>
</event>
<event>
 5    0  0.1972558E-002  0.2522413E+03  0.7546771E-02  0.1111897E+00
         21   -1    0    0  503  502  0.00000000000E+00  0.00000000000E+00  0.26476483661E+03  0.26476483661E+03  0.00000000000E+00 0. -1.
         21   -1    0    0  501  503 -0.00000000000E+00 -0.00000000000E+00 -0.33346802744E+03  0.33346802744E+03  0.00000000000E+00 0. -1.
         25    1    1    2    0    0  0.19920159495E+03 -0.10711150928E+03 -0.20011947314E+03  0.32684392970E+03  0.12500000000E+03 0.  0.
          4    1    1    2  501    0 -0.21031190325E+02  0.11786228343E+02  0.46149307806E+02  0.52067117801E+02  0.00000000000E+00 0.  1.
         -4    1    1    2    0  502 -0.17817040463E+03  0.95325280941E+02  0.85266974501E+02  0.21932181655E+03  0.00000000000E+00 0. -1.
<mgrwt>
<rscale>  4 0.25224131E+03</rscale>
<asrwt>0</asrwt>
<pdfrwt beam="1">  1       21 0.40733052E-01 0.25224131E+03</pdfrwt>
<pdfrwt beam="2">  1       21 0.51302773E-01 0.25224131E+03</pdfrwt>
<totfact> 0.20302014E+04</totfact>
</mgrwt>
</event>
<event>
 5    0  0.1972558E-002  0.2731750E+03  0.7546771E-02  0.1099476E+00
         21   -1    0    0  501  502  0.00000000000E+00  0.00000000000E+00  0.25492636639E+03  0.25492636639E+03  0.00000000000E+00 0.  1.
         21   -1    0    0  502  503 -0.00000000000E+00 -0.00000000000E+00 -0.15521509237E+04  0.15521509237E+04  0.00000000000E+00 0.  1.
         25    1    1    2    0    0  0.24077520252E+03 -0.28381079581E+02 -0.13939694726E+04  0.14204063060E+04  0.12500000000E+03 0.  0.
          2    1    1    2  501    0 -0.63178663348E+01 -0.84801602600E+02  0.93386557374E+02  0.12630232119E+03  0.00000000000E+00 0.  1.
         -2    1    1    2    0  503 -0.23445733618E+03  0.11318268218E+03  0.33583578683E+01  0.26036866287E+03  0.00000000000E+00 0. -1.
<mgrwt>
<rscale>  4 0.27317500E+03</rscale>
<asrwt>0</asrwt>
<pdfrwt beam="1">  1       21 0.39219440E-01 0.27317500E+03</pdfrwt>
<pdfrwt beam="2">  1       21 0.23879246E+00 0.27317500E+03</pdfrwt>
<totfact> 0.44432001E+02</totfact>
</mgrwt>
</event>
<event>
 5    0  0.1972558E-002  0.3258831E+03  0.7546771E-02  0.1072973E+00
         21   -1    0    0  501  502  0.00000000000E+00  0.00000000000E+00  0.23451256865E+03  0.23451256865E+03  0.00000000000E+00 0. -1.
         21   -1    0    0  502  503 -0.00000000000E+00 -0.00000000000E+00 -0.43303298368E+03  0.43303298368E+03  0.00000000000E+00 0. -1.
         25    1    1    2    0    0 -0.80837320248E+02  0.28989675623E+03 -0.54001855028E+02  0.33032711358E+03  0.12500000000E+03 0.  0.
          2    1    1    2  501    0  0.61855705926E+02 -0.26113558461E+03 -0.13931261323E+03  0.30236720409E+03  0.00000000000E+00 0. -1.
         -2    1    1    2    0  503  0.18981614322E+02 -0.28761171628E+02 -0.52059467657E+01  0.34851234661E+02  0.00000000000E+00 0.  1.
<mgrwt>
<rscale>  4 0.32588311E+03</rscale>
<asrwt>0</asrwt>
<pdfrwt beam="1">  1       21 0.36078857E-01 0.32588311E+03</pdfrwt>
<pdfrwt beam="2">  1       21 0.66620458E-01 0.32588311E+03</pdfrwt>
<totfact> 0.14309212E+04</totfact>
</mgrwt>
</event>
<event>
 5    0  0.1972558E-002  0.2801439E+03  0.7546771E-02  0.1095610E+00
         21   -1    0    0  501  502  0.00000000000E+00  0.00000000000E+00  0.34063582008E+03  0.34063582008E+03  0.00000000000E+00 0.  1.
         21   -1    0    0  502  503 -0.00000000000E+00 -0.00000000000E+00 -0.33115340585E+03  0.33115340585E+03  0.00000000000E+00 0.  1.
         25    1    1    2    0    0  0.12208429204E+03 -0.18654284490E+03 -0.24649734144E+01  0.25560493626E+03  0.12500000000E+03 0.  0.
          4    1    1    2  501    0 -0.68139143893E+02  0.27365801188E+03 -0.63333092935E+02  0.28903759454E+03  0.00000000000E+00 0.  1.
         -4    1    1    2    0  503 -0.53945148143E+02 -0.87115166980E+02  0.75280480570E+02  0.12714669512E+03  0.00000000000E+00 0. -1.
<mgrwt>
<rscale>  4 0.28014387E+03</rscale>
<asrwt>0</asrwt>
<pdfrwt beam="1">  1       21 0.52405511E-01 0.28014387E+03</pdfrwt>
<pdfrwt beam="2">  1       21 0.50946678E-01 0.28014387E+03</pdfrwt>
<totfact> 0.12043687E+04</totfact>
</mgrwt>
</event>
<event>
 5    0  0.1972558E-002  0.2488050E+03  0.7546771E-02  0.1114062E+00
         21   -1    0    0  503  502  0.00000000000E+00  0.00000000000E+00  0.33387461370E+03  0.33387461370E+03  0.00000000000E+00 0. -1.
         21   -1    0    0  501  503 -0.00000000000E+00 -0.00000000000E+00 -0.12111100411E+04  0.12111100411E+04  0.00000000000E+00 0. -1.
         25    1    1    2    0    0 -0.85148405003E+02 -0.19845192905E+03 -0.11565034415E+04  0.11831139544E+04  0.12500000000E+03 0.  0.
          4    1    1    2  501    0  0.24572434486E+02  0.78276750035E+01  0.58709576454E+02  0.64124031376E+02  0.00000000000E+00 0.  1.
         -4    1    1    2    0  502  0.60575970517E+02  0.19062425404E+03  0.22055843767E+03  0.29774666894E+03  0.00000000000E+00 0. -1.
<mgrwt>
<rscale>  4 0.24880501E+03</rscale>
<asrwt>0</asrwt>
<pdfrwt beam="1">  1       21 0.51365327E-01 0.24880501E+03</pdfrwt>
<pdfrwt beam="2">  1       21 0.18632462E+00 0.24880501E+03</pdfrwt>
<totfact> 0.56025308E+02</totfact>
</mgrwt>
</event>
<event>
 5    0  0.1972558E-002  0.2896217E+03  0.7546771E-02  0.1090547E+00
         21   -1    0    0  501  502  0.00000000000E+00  0.00000000000E+00  0.55148510811E+03  0.55148510811E+03  0.00000000000E+00 0.  1.
         21   -1    0    0  502  503 -0.00000000000E+00 -0.00000000000E+00 -0.30535633236E+03  0.30535633236E+03  0.00000000000E+00 0. -1.
         25    1    1    2    0    0  0.90375837389E+02  0.23883136610E+03 -0.14899453186E+03  0.32098689060E+03  0.12500000000E+03 0.  0.
          4    1    1    2  501    0 -0.91934976905E+02 -0.26535769807E+03  0.21474141080E+03  0.35352598407E+03  0.00000000000E+00 0.  1.
         -4    1    1    2    0  503  0.15591395160E+01  0.26526331973E+02  0.18038189681E+03  0.18232856579E+03  0.00000000000E+00 0. -1.
<mgrwt>
<rscale>  4 0.28962167E+03</rscale>
<asrwt>0</asrwt>
<pdfrwt beam="1">  1       21 0.84843863E-01 0.28962167E+03</pdfrwt>
<pdfrwt beam="2">  1       21 0.46977897E-01 0.28962167E+03</pdfrwt>
<totfact> 0.48987886E+03</totfact>
</mgrwt>
</event>
<event>
 5    0  0.1972558E-002  0.3058035E+03  0.7546771E-02  0.1082375E+00
         21   -1    0    0  501  502  0.00000000000E+00  0.00000000000E+00  0.65997894661E+03  0.65997894661E+03  0.00000000000E+00 0.  1.
         21   -1    0    0  502  503 -0.00000000000E+00 -0.00000000000E+00 -0.50589488499E+03  0.50589488499E+03  0.00000000000E+00 0. -1.
         25    1    1    2    0    0 -0.13161739145E+03 -0.24441555151E+03 -0.40601034796E+03  0.50747561735E+03  0.12500000000E+03 0.  0.
          4    1    1    2  501    0 -0.20491325753E+02 -0.52953931109E+01  0.16778060943E+03  0.16911022595E+03  0.00000000000E+00 0. -1.
         -4    1    1    2    0  503  0.15210871720E+03  0.24971094462E+03  0.39231380015E+03  0.48928798830E+03  0.00000000000E+00 0.  1.
<mgrwt>
<rscale>  4 0.30580349E+03</rscale>
<asrwt>0</asrwt>
<pdfrwt beam="1">  1       21 0.10153522E+00 0.30580349E+03</pdfrwt>
<pdfrwt beam="2">  1       21 0.77829982E-01 0.30580349E+03</pdfrwt>
<totfact> 0.10590842E+03</totfact>
</mgrwt>
</event>
<event>
 5    0  0.1972558E-002  0.2273353E+03  0.7546771E-02  0.1128529E+00
         21   -1    0    0  501  502  0.00000000000E+00  0.00000000000E+00  0.51565830737E+03  0.51565830737E+03  0.00000000000E+00 0.  1.
         21   -1    0    0  502  503 -0.00000000000E+00 -0.00000000000E+00 -0.16797803597E+03  0.16797803597E+03  0.00000000000E+00 0.  1.
         25    1    1    2    0    0  0.21454354193E+03  0.17384428184E+02  0.46959739749E+02  0.25330094134E+03  0.12500000000E+03 0.  0.
          4    1    1    2  501    0 -0.56439914785E+02  0.53725131053E+02  0.23046468861E+03  0.24328137287E+03  0.00000000000E+00 0. -1.
         -4    1    1    2    0  503 -0.15810362714E+03 -0.71109559238E+02  0.70255843039E+02  0.18705402912E+03  0.00000000000E+00 0.  1.
<mgrwt>
<rscale>  4 0.22733527E+03</rscale>
<asrwt>0</asrwt>
<pdfrwt beam="1">  1       21 0.79332047E-01 0.22733527E+03</pdfrwt>
<pdfrwt beam="2">  1       21 0.25842775E-01 0.22733527E+03</pdfrwt>
<totfact> 0.19526561E+04</totfact>
</mgrwt>
</event>
<event>
 5    0  0.1972558E-002  0.4409007E+03  0.7546771E-02  0.1030471E+00
         21   -1    0    0  501  502  0.00000000000E+00  0.00000000000E+00  0.16848090585E+03  0.16848090585E+03  0.00000000000E+00 0. -1.
         21   -1    0    0  502  503 -0.00000000000E+00 -0.00000000000E+00 -0.32477713218E+04  0.32477713218E+04  0.00000000000E+00 0. -1.
         25    1    1    2    0    0  0.36531989346E+03 -0.21396320319E+03 -0.27563870997E+04  0.27915110103E+04  0.12500000000E+03 0.  0.
          2    1    1    2  501    0 -0.24598657642E+02 -0.34282034287E+02  0.47524035226E+02  0.63552228575E+02  0.00000000000E+00 0.  1.
         -2    1    1    2    0  503 -0.34072123582E+03  0.24824523748E+03 -0.37042735145E+03  0.56118898882E+03  0.00000000000E+00 0. -1.
<mgrwt>
<rscale>  4 0.44090066E+03</rscale>
<asrwt>0</asrwt>
<pdfrwt beam="1">  1       21 0.25920141E-01 0.44090066E+03</pdfrwt>
<pdfrwt beam="2">  1       21 0.49965710E+00 0.44090066E+03</pdfrwt>
<totfact> 0.19730810E+01</totfact>
</mgrwt>
</event>
<event>
 5    0  0.1972558E-002  0.2618146E+03  0.7546771E-02  0.1106058E+00
         21   -1    0    0  503  502  0.00000000000E+00  0.00000000000E+00  0.34613702066E+03  0.34613702066E+03  0.00000000000E+00 0.  1.
         21   -1    0    0  501  503 -0.00000000000E+00 -0.00000000000E+00 -0.22152841170E+03  0.22152841170E+03  0.00000000000E+00 0.  1.
         25    1    1    2    0    0 -0.21655755999E+03 -0.77619137112E+02 -0.54795000040E+02  0.26748719458E+03  0.12500000000E+03 0.  0.
          3    1    1    2  501    0  0.68021418941E+02  0.53985817452E+02  0.90674895534E+02  0.12555205534E+03  0.00000000000E+00 0. -1.
         -3    1    1    2    0  502  0.14853614105E+03  0.23633319661E+02  0.88728713468E+02  0.17462618243E+03  0.00000000000E+00 0.  1.
<mgrwt>
<rscale>  4 0.26181464E+03</rscale>
<asrwt>0</asrwt>
<pdfrwt beam="1">  1       21 0.53251850E-01 0.26181464E+03</pdfrwt>
<pdfrwt beam="2">  1       21 0.34081294E-01 0.26181464E+03</pdfrwt>
<totfact> 0.26757004E+04</totfact>
</mgrwt>
</event>
<event>
 5    0  0.1972558E-002  0.2570302E+03  0.7546771E-02  0.1108941E+00
         21   -1    0    0  501  502  0.00000000000E+00  0.00000000000E+00  0.28559498928E+03  0.28559498928E+03  0.00000000000E+00 0. -1.
         21   -1    0    0  502  503 -0.00000000000E+00 -0.00000000000E+00 -0.10460304860E+04  0.10460304860E+04  0.00000000000E+00 0. -1.
         25    1    1    2    0    0 -0.13512608085E+03  0.17316942725E+03 -0.90390025197E+03  0.93856665920E+03  0.12500000000E+03 0.  0.
          1    1    1    2  501    0  0.21083360222E+03 -0.18664125076E+03  0.78292405919E+02  0.29225924303E+03  0.00000000000E+00 0. -1.
         -1    1    1    2    0  503 -0.75707521374E+02  0.13471823507E+02  0.65172349291E+02  0.10079957308E+03  0.00000000000E+00 0.  1.
<mgrwt>
<rscale>  4 0.25703017E+03</rscale>
<asrwt>0</asrwt>
<pdfrwt beam="1">  1       21 0.43937691E-01 0.25703017E+03</pdfrwt>
<pdfrwt beam="2">  1       21 0.16092777E+00 0.25703017E+03</pdfrwt>
<totfact> 0.11626862E+03</totfact>
</mgrwt>
</event>
<event>
 5    0  0.1972558E-002  0.2453403E+03  0.7546771E-02  0.1116286E+00
         21   -1    0    0  503  502  0.00000000000E+00  0.00000000000E+00  0.49035114116E+02  0.49035114116E+02  0.00000000000E+00 0.  1.
         21   -1    0    0  501  503 -0.00000000000E+00 -0.00000000000E+00 -0.33948589463E+04  0.33948589463E+04  0.00000000000E+00 0.  1.
         25    1    1    2    0    0  0.11705477813E+03  0.20982933266E+03 -0.77302964463E+03  0.81910316897E+03  0.12500000000E+03 0.  0.
          2    1    1    2  501    0 -0.49016643674E+02 -0.23859640018E+02 -0.22164519527E+04  0.22171222728E+04  0.00000000000E+00 0. -1.
         -2    1    1    2    0  502 -0.68038134459E+02 -0.18596969264E+03 -0.35634223485E+03  0.40766861868E+03  0.00000000000E+00 0.  1.
<mgrwt>
<rscale>  4 0.24534029E+03</rscale>
<asrwt>0</asrwt>
<pdfrwt beam="1">  1       21 0.75438638E-02 0.24534029E+03</pdfrwt>
<pdfrwt beam="2">  1       21 0.52228599E+00 0.24534029E+03</pdfrwt>
<totfact> 0.16049061E+02</totfact>
</mgrwt>
</event>
<event>
 5    0  0.2379381E-002  0.2337985E+03  0.7546771E-02  0.1123994E+00
         21   -1    0    0  501  502  0.00000000000E+00  0.00000000000E+00  0.49319629644E+03  0.49319629644E+03  0.00000000000E+00 0. -1.
         21   -1    0    0  502  503 -0.00000000000E+00 -0.00000000000E+00 -0.12948805501E+03  0.12948805501E+03  0.00000000000E+00 0. -1.
         25    1    1    2    0    0  0.18154565173E+03 -0.97276542988E+02  0.26403665126E+03  0.35743797040E+03  0.12500000000E+03 0.  0.
          1    1    1    2  501    0 -0.15308569367E+03  0.11138562337E+03  0.12305938325E+03  0.22579990811E+03  0.00000000000E+00 0. -1.
         -1    1    1    2    0  503 -0.28459958061E+02 -0.14109080383E+02 -0.23387793080E+02  0.39446472937E+02  0.00000000000E+00 0.  1.
<mgrwt>
<rscale>  4 0.23379847E+03</rscale>
<asrwt>0</asrwt>
<pdfrwt beam="1">  1       21 0.75876352E-01 0.23379847E+03</pdfrwt>
<pdfrwt beam="2">  1       21 0.19921240E-01 0.23379847E+03</pdfrwt>
<totfact> 0.35278587E+04</totfact>
</mgrwt>
</event>
<event>
 5    0  0.1972558E-002  0.3020132E+03  0.7546771E-02  0.1084239E+00
         21   -1    0    0  501  502  0.00000000000E+00  0.00000000000E+00  0.80708363264E+03  0.80708363264E+03  0.00000000000E+00 0. -1.
         21   -1    0    0  502  503 -0.00000000000E+00 -0.00000000000E+00 -0.21496417506E+03  0.21496417506E+03  0.00000000000E+00 0. -1.
         25    1    1    2    0    0  0.27423595855E+03 -0.19534671760E+02 -0.62489760024E+02  0.30841033457E+03  0.12500000000E+03 0.  0.
          1    1    1    2  501    0 -0.42715380505E+02  0.22489071691E+02  0.16717926537E+03  0.17400939299E+03  0.00000000000E+00 0.  1.
         -1    1    1    2    0  503 -0.23152057805E+03 -0.29543999313E+01  0.48742995224E+03  0.53962808014E+03  0.00000000000E+00 0. -1.
<mgrwt>
<rscale>  4 0.30201319E+03</rscale>
<asrwt>0</asrwt>
<pdfrwt beam="1">  1       21 0.12416671E+00 0.30201319E+03</pdfrwt>
<pdfrwt beam="2">  1       21 0.33071412E-01 0.30201319E+03</pdfrwt>
<totfact> 0.39646438E+03</totfact>
</mgrwt>
</event>
<event>
 5    0  0.1972558E-002  0.3018082E+03  0.7546771E-02  0.1084340E+00
         21   -1    0    0  501  502  0.00000000000E+00  0.00000000000E+00  0.55315009400E+03  0.55315009400E+03  0.00000000000E+00 0. -1.
         21   -1    0    0  502  503 -0.00000000000E+00 -0.00000000000E+00 -0.50882188349E+03  0.50882188349E+03  0.00000000000E+00 0.  1.
         25    1    1    2    0    0 -0.18364979348E+03 -0.99183088800E+02 -0.11521323368E+03  0.26919067771E+03  0.12500000000E+03 0.  0.
          4    1    1    2  501    0  0.32407125441E+03  0.19578215561E+03 -0.17516658172E+03  0.41717641561E+03  0.00000000000E+00 0.  1.
         -4    1    1    2    0  503 -0.14042146093E+03 -0.96599066809E+02  0.33470802592E+03  0.37560488417E+03  0.00000000000E+00 0. -1.
<mgrwt>
<rscale>  4 0.30180820E+03</rscale>
<asrwt>0</asrwt>
<pdfrwt beam="1">  1       21 0.85100014E-01 0.30180820E+03</pdfrwt>
<pdfrwt beam="2">  1       21 0.78280290E-01 0.30180820E+03</pdfrwt>
<totfact> 0.15901136E+03</totfact>
</mgrwt>
</event>
<event>
 5    0  0.1972558E-002  0.2441312E+03  0.7546771E-02  0.1117071E+00
         21   -1    0    0  503  502  0.00000000000E+00  0.00000000000E+00  0.11679214349E+04  0.11679214349E+04  0.00000000000E+00 0.  1.
         21   -1    0    0  501  503 -0.00000000000E+00 -0.00000000000E+00 -0.12915701805E+03  0.12915701805E+03  0.00000000000E+00 0. -1.
         25    1    1    2    0    0  0.83937544984E+02  0.19160909341E+03  0.27458106543E+02  0.24523153090E+03  0.12500000000E+03 0.  0.
          4    1    1    2  501    0 -0.18792156176E+02  0.10885909889E+02  0.46621732719E+03  0.46672287746E+03  0.00000000000E+00 0. -1.
         -4    1    1    2    0  502 -0.65145388808E+02 -0.20249500330E+03  0.54508898315E+03  0.58512404462E+03  0.00000000000E+00 0.  1.
<mgrwt>
<rscale>  4 0.24413120E+03</rscale>
<asrwt>0</asrwt>
<pdfrwt beam="1">  1       21 0.17968021E+00 0.24413120E+03</pdfrwt>
<pdfrwt beam="2">  1       21 0.19870311E-01 0.24413120E+03</pdfrwt>
<totfact> 0.40943746E+03</totfact>
</mgrwt>
</event>
<event>
 5    0  0.1972558E-002  0.4097093E+03  0.7546771E-02  0.1040469E+00
         21   -1    0    0  501  502  0.00000000000E+00  0.00000000000E+00  0.86136812328E+03  0.86136812328E+03  0.00000000000E+00 0. -1.
         21   -1    0    0  502  503 -0.00000000000E+00 -0.00000000000E+00 -0.62665532394E+03  0.62665532394E+03  0.00000000000E+00 0.  1.
         25    1    1    2    0    0 -0.39504105892E+03  0.12233583857E+02 -0.39760300618E+03  0.57438684641E+03  0.12500000000E+03 0.  0.
          3    1    1    2  501    0  0.37605594781E+03  0.80264729726E+01  0.11183400897E+03  0.39241476236E+03  0.00000000000E+00 0.  1.
         -3    1    1    2    0  503  0.18985111107E+02 -0.20260056830E+02  0.52048179654E+03  0.52122183845E+03  0.00000000000E+00 0. -1.
<mgrwt>
<rscale>  4 0.40970928E+03</rscale>
<asrwt>0</asrwt>
<pdfrwt beam="1">  1       21 0.13251817E+00 0.40970928E+03</pdfrwt>
<pdfrwt beam="2">  1       21 0.96408512E-01 0.40970928E+03</pdfrwt>
<totfact> 0.31062143E+02</totfact>
</mgrwt>
</event>
<event>
 5    0  0.1972558E-002  0.2631650E+03  0.7546771E-02  0.1105256E+00
         21   -1    0    0  501  502  0.00000000000E+00  0.00000000000E+00  0.64006320315E+03  0.64006320315E+03  0.00000000000E+00 0.  1.
         21   -1    0    0  502  503 -0.00000000000E+00 -0.00000000000E+00 -0.66643410192E+03  0.66643410192E+03  0.00000000000E+00 0. -1.
         25    1    1    2    0    0  0.11407284154E+03 -0.21684967441E+03 -0.30229122503E+03  0.40870696006E+03  0.12500000000E+03 0.  0.
          2    1    1    2  501    0 -0.24858060325E+02  0.13755153001E+02  0.54687617829E+03  0.54761362454E+03  0.00000000000E+00 0.  1.
         -2    1    1    2    0  503 -0.89214781220E+02  0.20309452141E+03 -0.27095585203E+03  0.35017672047E+03  0.00000000000E+00 0. -1.
<mgrwt>
<rscale>  4 0.26316501E+03</rscale>
<asrwt>0</asrwt>
<pdfrwt beam="1">  1       21 0.98471262E-01 0.26316501E+03</pdfrwt>
<pdfrwt beam="2">  1       21 0.10252832E+00 0.26316501E+03</pdfrwt>
<totfact> 0.61665213E+02</totfact>
</mgrwt>
</event>
<event>
 5    0  0.1972558E-002  0.2385847E+03  0.7546771E-02  0.1120739E+00
         21   -1    0    0  501  502  0.00000000000E+00  0.00000000000E+00  0.26381961693E+03  0.26381961693E+03  0.00000000000E+00 0.  1.
         21   -1    0    0  502  503 -0.00000000000E+00 -0.00000000000E+00 -0.51082972891E+03  0.51082972891E+03  0.00000000000E+00 0. -1.
         25    1    1    2    0    0  0.16631664017E+03 -0.11866906583E+03 -0.36980992881E+03  0.44059954088E+03  0.12500000000E+03 0.  0.
          3    1    1    2  501    0 -0.12634944126E+03  0.16332004296E+03  0.10492982828E+02  0.20675521862E+03  0.00000000000E+00 0. -1.
         -3    1    1    2    0  503 -0.39967198911E+02 -0.44650977133E+02  0.11230683400E+03  0.12729458634E+03  0.00000000000E+00 0.  1.
<mgrwt>
<rscale>  4 0.23858465E+03</rscale>
<asrwt>0</asrwt>
<pdfrwt beam="1">  1       21 0.40587634E-01 0.23858465E+03</pdfrwt>
<pdfrwt beam="2">  1       21 0.78589188E-01 0.23858465E+03</pdfrwt>
<totfact> 0.81203414E+03</totfact>
</mgrwt>
</event>
<event>
 5    0  0.1972558E-002  0.2749860E+03  0.7546771E-02  0.1098459E+00
         21   -1    0    0  503  502  0.00000000000E+00  0.00000000000E+00  0.24630418897E+03  0.24630418897E+03  0.00000000000E+00 0.  1.
         21   -1    0    0  501  503 -0.00000000000E+00 -0.00000000000E+00 -0.32610674919E+03  0.32610674919E+03  0.00000000000E+00 0.  1.
         25    1    1    2    0    0 -0.24440386202E+03  0.16094524150E+02 -0.14337103700E+03  0.31011697104E+03  0.12500000000E+03 0.  0.
          3    1    1    2  501    0  0.34834815308E+02 -0.27043991105E+02  0.17475982514E+02  0.47436818793E+02  0.00000000000E+00 0. -1.
         -3    1    1    2    0  502  0.20956904671E+03  0.10949466955E+02  0.46092494259E+02  0.21485714834E+03  0.00000000000E+00 0.  1.
<mgrwt>
<rscale>  4 0.27498597E+03</rscale>
<asrwt>0</asrwt>
<pdfrwt beam="1">  1       21 0.37892952E-01 0.27498597E+03</pdfrwt>
<pdfrwt beam="2">  1       21 0.50170269E-01 0.27498597E+03</pdfrwt>
<totfact> 0.24393370E+04</totfact>
</mgrwt>
</event>
<event>
 5    0  0.1972558E-002  0.4625389E+03  0.7546771E-02  0.1024047E+00
         21   -1    0    0  501  502  0.00000000000E+00  0.00000000000E+00  0.23597302380E+03  0.23597302380E+03  0.00000000000E+00 0. -1.
         21   -1    0    0  502  503 -0.00000000000E+00 -0.00000000000E+00 -0.15821220588E+04  0.15821220588E+04  0.00000000000E+00 0.  1.
         25    1    1    2    0    0  0.48395656198E+03 -0.30770276105E+02 -0.89825029940E+03  0.10284159490E+04  0.12500000000E+03 0.  0.
          3    1    1    2  501    0 -0.10025887971E+03 -0.11356996163E+03  0.35761336876E+02  0.15565619923E+03  0.00000000000E+00 0. -1.
         -3    1    1    2    0  503 -0.38369768228E+03  0.14434023773E+03 -0.48366007249E+03  0.63402293439E+03  0.00000000000E+00 0.  1.
<mgrwt>
<rscale>  4 0.46253890E+03</rscale>
<asrwt>0</asrwt>
<pdfrwt beam="1">  1       21 0.36303543E-01 0.46253890E+03</pdfrwt>
<pdfrwt beam="2">  1       21 0.24340339E+00 0.46253890E+03</pdfrwt>
<totfact> 0.42827818E+02</totfact>
</mgrwt>
</event>
<event>
 5    0  0.1972558E-002  0.4985360E+03  0.7546771E-02  0.1014162E+00
         21   -1    0    0  501  502  0.00000000000E+00  0.00000000000E+00  0.77402464790E+03  0.77402464790E+03  0.00000000000E+00 0.  1.
         21   -1    0    0  502  503 -0.00000000000E+00 -0.00000000000E+00 -0.15589385891E+04  0.15589385891E+04  0.00000000000E+00 0.  1.
         25    1    1    2    0    0 -0.29345004491E+03 -0.40613781780E+03 -0.13996383415E+04  0.14918690770E+04  0.12500000000E+03 0.  0.
          2    1    1    2  501    0  0.57460870928E+02  0.13919042425E+03  0.39440943900E+03  0.42217831714E+03  0.00000000000E+00 0.  1.
         -2    1    1    2    0  503  0.23598917398E+03  0.26694739355E+03  0.22031496134E+03  0.41891584280E+03  0.00000000000E+00 0. -1.
<mgrwt>
<rscale>  4 0.49853599E+03</rscale>
<asrwt>0</asrwt>
<pdfrwt beam="1">  1       21 0.11908072E+00 0.49853599E+03</pdfrwt>
<pdfrwt beam="2">  1       21 0.23983671E+00 0.49853599E+03</pdfrwt>
<totfact> 0.30556497E+01</totfact>
</mgrwt>
</event>
<event>
 5    0  0.1972558E-002  0.2230404E+03  0.7546771E-02  0.1131636E+00
         21   -1    0    0  501  502  0.00000000000E+00  0.00000000000E+00  0.16310120572E+03  0.16310120572E+03  0.00000000000E+00 0. -1.
         21   -1    0    0  502  503 -0.00000000000E+00 -0.00000000000E+00 -0.61496631278E+03  0.61496631278E+03  0.00000000000E+00 0.  1.
         25    1    1    2    0    0 -0.15499145016E+03 -0.17457934095E+03 -0.36787771623E+03  0.45327619616E+03  0.12500000000E+03 0.  0.
          2    1    1    2  501    0  0.10856080390E+01  0.85825515830E+02 -0.11596379012E+03  0.14427334588E+03  0.00000000000E+00 0.  1.
         -2    1    1    2    0  503  0.15390584212E+03  0.88753825124E+02  0.31976399290E+02  0.18051797646E+03  0.00000000000E+00 0. -1.
<mgrwt>
<rscale>  4 0.22304039E+03</rscale>
<asrwt>0</asrwt>
<pdfrwt beam="1">  1       21 0.25092493E-01 0.22304039E+03</pdfrwt>
<pdfrwt beam="2">  1       21 0.94610204E-01 0.22304039E+03</pdfrwt>
<totfact> 0.13797376E+04</totfact>
</mgrwt>
</event>
<event>
 5    0  0.1972558E-002  0.3298576E+03  0.7546771E-02  0.1071200E+00
         21   -1    0    0  501  502  0.00000000000E+00  0.00000000000E+00  0.19498258894E+03  0.19498258894E+03  0.00000000000E+00 0.  1.
         21   -1    0    0  502  503 -0.00000000000E+00 -0.00000000000E+00 -0.66709155145E+03  0.66709155145E+03  0.00000000000E+00 0.  1.
         25    1    1    2    0    0  0.18877975027E+03 -0.24746661443E+03 -0.40602963609E+03  0.52665224271E+03  0.12500000000E+03 0.  0.
          2    1    1    2  501    0 -0.15639260445E+03  0.24956880543E+03 -0.70012255122E+02  0.30272917143E+03  0.00000000000E+00 0.  1.
         -2    1    1    2    0  503 -0.32387145818E+02 -0.21021909971E+01  0.39329287101E+01  0.32692726247E+02  0.00000000000E+00 0. -1.
<mgrwt>
<rscale>  4 0.32985763E+03</rscale>
<asrwt>0</asrwt>
<pdfrwt beam="1">  1       21 0.29997321E-01 0.32985763E+03</pdfrwt>
<pdfrwt beam="2">  1       21 0.10262947E+00 0.32985763E+03</pdfrwt>
<totfact> 0.76041101E+03</totfact>
</mgrwt>
</event>
<event>
 5    0  0.1972558E-002  0.3126618E+03  0.7546771E-02  0.1079077E+00
         21   -1    0    0  501  502  0.00000000000E+00  0.00000000000E+00  0.23725506847E+03  0.23725506847E+03  0.00000000000E+00 0. -1.
         21   -1    0    0  502  503 -0.00000000000E+00 -0.00000000000E+00 -0.10537682445E+04  0.10537682445E+04  0.00000000000E+00 0.  1.
         25    1    1    2    0    0 -0.23193011136E+03 -0.21991055596E+03 -0.77448449824E+03  0.84711478986E+03  0.12500000000E+03 0.  0.
          4    1    1    2  501    0  0.73552638901E+02  0.22891096254E+03 -0.11821703270E+03  0.26792813641E+03  0.00000000000E+00 0.  1.
         -4    1    1    2    0  503  0.15837747246E+03 -0.90004065777E+01  0.76188354870E+02  0.17598038675E+03  0.00000000000E+00 0. -1.
<mgrwt>
<rscale>  4 0.31266181E+03</rscale>
<asrwt>0</asrwt>
<pdfrwt beam="1">  1       21 0.36500780E-01 0.31266181E+03</pdfrwt>
<pdfrwt beam="2">  1       21 0.16211819E+00 0.31266181E+03</pdfrwt>
<totfact> 0.15999342E+03</totfact>
</mgrwt>
</event>
<event>
 5    0  0.1972558E-002  0.2462036E+03  0.7546771E-02  0.1115728E+00
         21   -1    0    0  501  502  0.00000000000E+00  0.00000000000E+00  0.10230332607E+04  0.10230332607E+04  0.00000000000E+00 0.  1.
         21   -1    0    0  502  503 -0.00000000000E+00 -0.00000000000E+00 -0.18871527409E+03  0.18871527409E+03  0.00000000000E+00 0.  1.
         25    1    1    2    0    0 -0.10767462506E+03  0.20607442510E+03 -0.54507000379E+02  0.26954870924E+03  0.12500000000E+03 0.  0.
          1    1    1    2  501    0  0.88819663154E+02 -0.13563128716E+03  0.24206735825E+03  0.29134409991E+03  0.00000000000E+00 0.  1.
         -1    1    1    2    0  503  0.18854961906E+02 -0.70443137940E+02  0.64675762871E+03  0.65085572562E+03  0.00000000000E+00 0. -1.
<mgrwt>
<rscale>  4 0.24620364E+03</rscale>
<asrwt>0</asrwt>
<pdfrwt beam="1">  1       21 0.15738973E+00 0.24620364E+03</pdfrwt>
<pdfrwt beam="2">  1       21 0.29033120E-01 0.24620364E+03</pdfrwt>
<totfact> 0.28575274E+03</totfact>
</mgrwt>
</event>
<event>
 5    0  0.1972558E-002  0.2666217E+03  0.7546771E-02  0.1103229E+00
         21   -1    0    0  501  502  0.00000000000E+00  0.00000000000E+00  0.94766297228E+03  0.94766297228E+03  0.00000000000E+00 0.  1.
         21   -1    0    0  502  503 -0.00000000000E+00 -0.00000000000E+00 -0.30608298052E+03  0.30608298052E+03  0.00000000000E+00 0.  1.
         25    1    1    2    0    0  0.78585328508E+02 -0.22571619313E+03 -0.21923477152E+03  0.34758069386E+03  0.12500000000E+03 0.  0.
          4    1    1    2  501    0 -0.24454607390E+01  0.31413759203E+02  0.38881001146E+03  0.39008464409E+03  0.00000000000E+00 0. -1.
         -4    1    1    2    0  503 -0.76139867768E+02  0.19430243393E+03  0.47200475181E+03  0.51608061485E+03  0.00000000000E+00 0.  1.
<mgrwt>
<rscale>  4 0.26662166E+03</rscale>
<asrwt>0</asrwt>
<pdfrwt beam="1">  1       21 0.14579430E+00 0.26662166E+03</pdfrwt>
<pdfrwt beam="2">  1       21 0.47089690E-01 0.26662166E+03</pdfrwt>
<totfact> 0.13034881E+03</totfact>
</mgrwt>
</event>
<event>
 5    0  0.1972558E-002  0.3128442E+03  0.7546771E-02  0.1078991E+00
         21   -1    0    0  501  502  0.00000000000E+00  0.00000000000E+00  0.44647095892E+03  0.44647095892E+03  0.00000000000E+00 0. -1.
         21   -1    0    0  502  503 -0.00000000000E+00 -0.00000000000E+00 -0.34091211416E+03  0.34091211416E+03  0.00000000000E+00 0. -1.
         25    1    1    2    0    0 -0.69931061625E+02  0.29265835354E+03 -0.13492020037E+03  0.35265808617E+03  0.12500000000E+03 0.  0.
          3    1    1    2  501    0  0.36422766698E+02 -0.26102044454E+03  0.91819467605E+02  0.27908619642E+03  0.00000000000E+00 0. -1.
         -3    1    1    2    0  503  0.33508294927E+02 -0.31637909003E+02  0.14865957752E+03  0.15563879048E+03  0.00000000000E+00 0.  1.
<mgrwt>
<rscale>  4 0.31284416E+03</rscale>
<asrwt>0</asrwt>
<pdfrwt beam="1">  1       21 0.68687840E-01 0.31284416E+03</pdfrwt>
<pdfrwt beam="2">  1       21 0.52448018E-01 0.31284416E+03</pdfrwt>
<totfact> 0.61993098E+03</totfact>
</mgrwt>
</event>
<event>
 5    0  0.1972558E-002  0.2358985E+03  0.7546771E-02  0.1122556E+00
         21   -1    0    0  503  502  0.00000000000E+00  0.00000000000E+00  0.13031690883E+03  0.13031690883E+03  0.00000000000E+00 0. -1.
         21   -1    0    0  501  503 -0.00000000000E+00 -0.00000000000E+00 -0.10934515355E+04  0.10934515355E+04  0.00000000000E+00 0. -1.
         25    1    1    2    0    0 -0.18111813950E+03  0.18788168090E+03 -0.81810019733E+03  0.86776508304E+03  0.12500000000E+03 0.  0.
          4    1    1    2  501    0  0.10675543379E+03 -0.67793684673E+02  0.31098314863E+02  0.13022984110E+03  0.00000000000E+00 0. -1.
         -4    1    1    2    0  502  0.74362705712E+02 -0.12008799622E+03 -0.17613274421E+03  0.22577352019E+03  0.00000000000E+00 0.  1.
<mgrwt>
<rscale>  4 0.23589850E+03</rscale>
<asrwt>0</asrwt>
<pdfrwt beam="1">  1       21 0.20048756E-01 0.23589850E+03</pdfrwt>
<pdfrwt beam="2">  1       21 0.16822331E+00 0.23589850E+03</pdfrwt>
<totfact> 0.48728610E+03</totfact>
</mgrwt>
</event>
<event>
 5    0  0.1972558E-002  0.5716793E+03  0.7546771E-02  0.9965969E-01
         21   -1    0    0  501  502  0.00000000000E+00  0.00000000000E+00  0.39219440097E+03  0.39219440097E+03  0.00000000000E+00 0.  1.
         21   -1    0    0  502  503 -0.00000000000E+00 -0.00000000000E+00 -0.13754805101E+04  0.13754805101E+04  0.00000000000E+00 0. -1.
         25    1    1    2    0    0 -0.19216398353E+03 -0.61579362945E+03 -0.63467269885E+03  0.91354432039E+03  0.12500000000E+03 0.  0.
          3    1    1    2  501    0  0.26155308554E+02  0.49242728474E+03 -0.40681285290E+03  0.63926944883E+03  0.00000000000E+00 0.  1.
         -3    1    1    2    0  503  0.16600867497E+03  0.12336634471E+03  0.58199442599E+02  0.21486114188E+03  0.00000000000E+00 0. -1.
<mgrwt>
<rscale>  4 0.57167933E+03</rscale>
<asrwt>0</asrwt>
<pdfrwt beam="1">  1       21 0.60337599E-01 0.57167933E+03</pdfrwt>
<pdfrwt beam="2">  1       21 0.21161239E+00 0.57167933E+03</pdfrwt>
<totfact> 0.22155396E+02</totfact>
</mgrwt>
</event>
<event>
 5    0  0.1972558E-002  0.2508064E+03  0.7546771E-02  0.1112796E+00
         21   -1    0    0  501  502  0.00000000000E+00  0.00000000000E+00  0.20210791364E+03  0.20210791364E+03  0.00000000000E+00 0.  1.
         21   -1    0    0  502  503 -0.00000000000E+00 -0.00000000000E+00 -0.75096652042E+03  0.75096652042E+03  0.00000000000E+00 0. -1.
         25    1    1    2    0    0  0.18177257666E+03  0.12347880798E+03 -0.45777688574E+03  0.52294642437E+03  0.12500000000E+03 0.  0.
          4    1    1    2  501    0 -0.18885852220E+03 -0.10254559007E+03 -0.21515804316E+03  0.30409887042E+03  0.00000000000E+00 0. -1.
         -4    1    1    2    0  503  0.70859455409E+01 -0.20933217910E+02  0.12407632212E+03  0.12602913927E+03  0.00000000000E+00 0.  1.
<mgrwt>
<rscale>  4 0.25080645E+03</rscale>
<asrwt>0</asrwt>
<pdfrwt beam="1">  1       21 0.31093526E-01 0.25080645E+03</pdfrwt>
<pdfrwt beam="2">  1       21 0.11553331E+00 0.25080645E+03</pdfrwt>
<totfact> 0.55265866E+03</totfact>
</mgrwt>
</event>
<event>
 5    0  0.1972558E-002  0.2344237E+03  0.7546771E-02  0.1123564E+00
         21   -1    0    0  501  502  0.00000000000E+00  0.00000000000E+00  0.52207494197E+03  0.52207494197E+03  0.00000000000E+00 0. -1.
         21   -1    0    0  502  503 -0.00000000000E+00 -0.00000000000E+00 -0.21194847152E+03  0.21194847152E+03  0.00000000000E+00 0. -1.
         25    1    1    2    0    0 -0.30624044349E+02 -0.22884279198E+03 -0.50947403462E+02  0.26744624405E+03  0.12500000000E+03 0.  0.
          1    1    1    2  501    0 -0.14327650648E+01  0.19373174786E+03  0.37051092083E+03  0.41810571079E+03  0.00000000000E+00 0. -1.
         -1    1    1    2    0  503  0.32056809414E+02  0.35111044123E+02 -0.94370469190E+01  0.48471458651E+02  0.00000000000E+00 0.  1.
<mgrwt>
<rscale>  4 0.23442372E+03</rscale>
<asrwt>0</asrwt>
<pdfrwt beam="1">  1       21 0.80319222E-01 0.23442372E+03</pdfrwt>
<pdfrwt beam="2">  1       21 0.32607457E-01 0.23442372E+03</pdfrwt>
<totfact> 0.12016725E+04</totfact>
</mgrwt>
</event>
<event>
 5    0  0.1972558E-002  0.2842937E+03  0.7546771E-02  0.1093367E+00
         21   -1    0    0  501  502  0.00000000000E+00  0.00000000000E+00  0.82551315445E+03  0.82551315445E+03  0.00000000000E+00 0. -1.
         21   -1    0    0  502  503 -0.00000000000E+00 -0.00000000000E+00 -0.17807001435E+03  0.17807001435E+03  0.00000000000E+00 0. -1.
         25    1    1    2    0    0  0.72018352742E+02  0.24141183301E+03  0.26608922800E+03  0.38716248980E+03  0.12500000000E+03 0.  0.
          3    1    1    2  501    0  0.25837381778E+02 -0.26193633353E+03  0.46915430461E+02  0.26735607480E+03  0.00000000000E+00 0. -1.
         -3    1    1    2    0  503 -0.97855734519E+02  0.20524500513E+02  0.33443848164E+03  0.34906460420E+03  0.00000000000E+00 0.  1.
<mgrwt>
<rscale>  4 0.28429373E+03</rscale>
<asrwt>0</asrwt>
<pdfrwt beam="1">  1       21 0.12700202E+00 0.28429373E+03</pdfrwt>
<pdfrwt beam="2">  1       21 0.27395387E-01 0.28429373E+03</pdfrwt>
<totfact> 0.54767210E+03</totfact>
</mgrwt>
</event>
<event>
 5    0  0.1972558E-002  0.2481973E+03  0.7546771E-02  0.1114449E+00
         21   -1    0    0  501  502  0.00000000000E+00  0.00000000000E+00  0.54669093878E+03  0.54669093878E+03  0.00000000000E+00 0. -1.
         21   -1    0    0  502  503 -0.00000000000E+00 -0.00000000000E+00 -0.30800451186E+03  0.30800451186E+03  0.00000000000E+00 0.  1.
         25    1    1    2    0    0 -0.20444013194E+03  0.10456442240E+02  0.59147957693E+02  0.24703964385E+03  0.12500000000E+03 0.  0.
          4    1    1    2  501    0  0.21348740403E+03 -0.47882409004E+02 -0.15676467502E+03  0.26915564290E+03  0.00000000000E+00 0.  1.
         -4    1    1    2    0  503 -0.90472720878E+01  0.37425966764E+02  0.33630314425E+03  0.33850016389E+03  0.00000000000E+00 0. -1.
<mgrwt>
<rscale>  4 0.24819731E+03</rscale>
<asrwt>0</asrwt>
<pdfrwt beam="1">  1       21 0.84106298E-01 0.24819731E+03</pdfrwt>
<pdfrwt beam="2">  1       21 0.47385310E-01 0.24819731E+03</pdfrwt>
<totfact> 0.50278242E+03</totfact>
</mgrwt>
</event>
<event>
 5    0  0.1972558E-002  0.4449063E+03  0.7546771E-02  0.1029252E+00
         21   -1    0    0  501  502  0.00000000000E+00  0.00000000000E+00  0.74919307070E+03  0.74919307070E+03  0.00000000000E+00 0. -1.
         21   -1    0    0  502  503 -0.00000000000E+00 -0.00000000000E+00 -0.53848296078E+03  0.53848296078E+03  0.00000000000E+00 0. -1.
         25    1    1    2    0    0 -0.12453623315E+03  0.40049090866E+03 -0.31820039645E+03  0.54109031925E+03  0.12500000000E+03 0.  0.
          1    1    1    2  501    0  0.20257789793E+02  0.51642895710E+02  0.10179878605E+03  0.11593256473E+03  0.00000000000E+00 0.  1.
         -1    1    1    2    0  503  0.10427844336E+03 -0.45213380437E+03  0.42711172032E+03  0.63065314749E+03  0.00000000000E+00 0. -1.
<mgrwt>
<rscale>  4 0.44490630E+03</rscale>
<asrwt>0</asrwt>
<pdfrwt beam="1">  1       21 0.11526047E+00 0.44490630E+03</pdfrwt>
<pdfrwt beam="2">  1       21 0.82843532E-01 0.44490630E+03</pdfrwt>
<totfact> 0.62415027E+02</totfact>
</mgrwt>
</event>
<event>
 5    0  0.1972558E-002  0.2395214E+03  0.7546771E-02  0.1120112E+00
         21   -1    0    0  503  502  0.00000000000E+00  0.00000000000E+00  0.74881250103E+03  0.74881250103E+03  0.00000000000E+00 0.  1.
         21   -1    0    0  501  503 -0.00000000000E+00 -0.00000000000E+00 -0.32441848129E+03  0.32441848129E+03  0.00000000000E+00 0. -1.
         25    1    1    2    0    0  0.20527223646E+03 -0.34949812297E+02 -0.16196593132E+03  0.29191804218E+03  0.12500000000E+03 0.  0.
          1    1    1    2  501    0 -0.74866317061E+01  0.90197542751E+02 -0.56334207938E+02  0.10660764211E+03  0.00000000000E+00 0. -1.
         -1    1    1    2    0  502 -0.19778560476E+03 -0.55247730454E+02  0.64269415901E+03  0.67470529803E+03  0.00000000000E+00 0.  1.
<mgrwt>
<rscale>  4 0.23952144E+03</rscale>
<asrwt>0</asrwt>
<pdfrwt beam="1">  1       21 0.11520192E+00 0.23952144E+03</pdfrwt>
<pdfrwt beam="2">  1       21 0.49910536E-01 0.23952144E+03</pdfrwt>
<totfact> 0.21467442E+03</totfact>
</mgrwt>
</event>
<event>
 5    0  0.1972558E-002  0.2742625E+03  0.7546771E-02  0.1098865E+00
         21   -1    0    0  501  502  0.00000000000E+00  0.00000000000E+00  0.20711150712E+04  0.20711150712E+04  0.00000000000E+00 0. -1.
         21   -1    0    0  502  503 -0.00000000000E+00 -0.00000000000E+00 -0.43076955259E+02  0.43076955259E+02  0.00000000000E+00 0. -1.
         25    1    1    2    0    0 -0.34945327315E+02 -0.24475853180E+03  0.65194248283E+03  0.70836566525E+03  0.12500000000E+03 0.  0.
          3    1    1    2  501    0  0.54054048267E+02  0.23394129655E+03  0.97496477822E+03  0.10040949602E+04  0.00000000000E+00 0. -1.
         -3    1    1    2    0  503 -0.19108720951E+02  0.10817235251E+02  0.40113085485E+03  0.40173140095E+03  0.00000000000E+00 0.  1.
<mgrwt>
<rscale>  4 0.27426250E+03</rscale>
<asrwt>0</asrwt>
<pdfrwt beam="1">  1       21 0.31863301E+00 0.27426250E+03</pdfrwt>
<pdfrwt beam="2">  1       21 0.66272255E-02 0.27426250E+03</pdfrwt>
<totfact> 0.40751586E+03</totfact>
</mgrwt>
</event>
<event>
 5    0  0.1972558E-002  0.2602302E+03  0.7546771E-02  0.1107005E+00
         21   -1    0    0  501  502  0.00000000000E+00  0.00000000000E+00  0.10696108115E+04  0.10696108115E+04  0.00000000000E+00 0. -1.
         21   -1    0    0  502  503 -0.00000000000E+00 -0.00000000000E+00 -0.17158556804E+03  0.17158556804E+03  0.00000000000E+00 0.  1.
         25    1    1    2    0    0 -0.20524739627E+03  0.97847806607E+02 -0.27442112468E+02  0.26091906115E+03  0.12500000000E+03 0.  0.
          4    1    1    2  501    0  0.24005447734E+03 -0.38112342083E+02  0.81011989415E+03  0.84579722487E+03  0.00000000000E+00 0. -1.
         -4    1    1    2    0  503 -0.34807081063E+02 -0.59735464524E+02  0.11534746179E+03  0.13448009353E+03  0.00000000000E+00 0.  1.
<mgrwt>
<rscale>  4 0.26023016E+03</rscale>
<asrwt>0</asrwt>
<pdfrwt beam="1">  1       21 0.16455551E+00 0.26023016E+03</pdfrwt>
<pdfrwt beam="2">  1       21 0.26397780E-01 0.26023016E+03</pdfrwt>
<totfact> 0.30138649E+03</totfact>
</mgrwt>
</event>
<event>
 5    0  0.1972558E-002  0.2783144E+03  0.7546771E-02  0.1096613E+00
         21   -1    0    0  501  502  0.00000000000E+00  0.00000000000E+00  0.45120722406E+03  0.45120722406E+03  0.00000000000E+00 0.  1.
         21   -1    0    0  502  503 -0.00000000000E+00 -0.00000000000E+00 -0.45634781369E+03  0.45634781369E+03  0.00000000000E+00 0.  1.
         25    1    1    2    0    0 -0.12398161559E+03  0.26452646314E+03 -0.27989969970E+03  0.42345546707E+03  0.12500000000E+03 0.  0.
          1    1    1    2  501    0  0.31370177648E+02 -0.18998755985E+03  0.87782510962E+01  0.19276000269E+03  0.00000000000E+00 0. -1.
         -1    1    1    2    0  503  0.92611437938E+02 -0.74538903288E+02  0.26598085896E+03  0.29133956799E+03  0.00000000000E+00 0.  1.
<mgrwt>
<rscale>  4 0.27831435E+03</rscale>
<asrwt>0</asrwt>
<pdfrwt beam="1">  1       21 0.69416496E-01 0.27831435E+03</pdfrwt>
<pdfrwt beam="2">  1       21 0.70207356E-01 0.27831435E+03</pdfrwt>
<totfact> 0.32699872E+03</totfact>
</mgrwt>
</event>
<event>
 5    0  0.1972558E-002  0.2352947E+03  0.7546771E-02  0.1122968E+00
         21   -1    0    0  501  502  0.00000000000E+00  0.00000000000E+00  0.11848337369E+04  0.11848337369E+04  0.00000000000E+00 0. -1.
         21   -1    0    0  502  503 -0.00000000000E+00 -0.00000000000E+00 -0.91272134203E+02  0.91272134203E+02  0.00000000000E+00 0. -1.
         25    1    1    2    0    0  0.19774167494E+03 -0.70290882559E+02  0.94791715674E+03  0.97888432117E+03  0.12500000000E+03 0.  0.
          2    1    1    2  501    0 -0.38983064225E+02  0.58122064354E+02  0.11567966792E+03  0.13520221607E+03  0.00000000000E+00 0.  1.
         -2    1    1    2    0  503 -0.15875861072E+03  0.12168818205E+02  0.29964778001E+02  0.16201933383E+03  0.00000000000E+00 0. -1.
<mgrwt>
<rscale>  4 0.23529468E+03</rscale>
<asrwt>0</asrwt>
<pdfrwt beam="1">  1       21 0.18228210E+00 0.23529468E+03</pdfrwt>
<pdfrwt beam="2">  1       21 0.14041868E-01 0.23529468E+03</pdfrwt>
<totfact> 0.75096526E+03</totfact>
</mgrwt>
</event>
<event>
 5    0  0.1972558E-002  0.2340276E+03  0.7546771E-02  0.1123837E+00
         21   -1    0    0  501  502  0.00000000000E+00  0.00000000000E+00  0.10149550112E+04  0.10149550112E+04  0.00000000000E+00 0. -1.
         21   -1    0    0  502  503 -0.00000000000E+00 -0.00000000000E+00 -0.31802499769E+03  0.31802499769E+03  0.00000000000E+00 0.  1.
         25    1    1    2    0    0 -0.54425323696E+02 -0.23677987878E+03 -0.15624384557E+03  0.31474428690E+03  0.12500000000E+03 0.  0.
          4    1    1    2  501    0  0.13967546209E+02  0.86931580305E+02  0.85842938385E+03  0.86293290530E+03  0.00000000000E+00 0. -1.
         -4    1    1    2    0  503  0.40457777487E+02  0.14984829848E+03 -0.52555248172E+01  0.15530281664E+03  0.00000000000E+00 0.  1.
<mgrwt>
<rscale>  4 0.23402764E+03</rscale>
<asrwt>0</asrwt>
<pdfrwt beam="1">  1       21 0.15614692E+00 0.23402764E+03</pdfrwt>
<pdfrwt beam="2">  1       21 0.48926923E-01 0.23402764E+03</pdfrwt>
<totfact> 0.10289182E+03</totfact>
</mgrwt>
</event>
<event>
 5    0  0.1972558E-002  0.2417031E+03  0.7546771E-02  0.1118663E+00
         21   -1    0    0  501  502  0.00000000000E+00  0.00000000000E+00  0.12638354088E+03  0.12638354088E+03  0.00000000000E+00 0.  1.
         21   -1    0    0  502  503 -0.00000000000E+00 -0.00000000000E+00 -0.47139726631E+03  0.47139726631E+03  0.00000000000E+00 0. -1.
         25    1    1    2    0    0  0.29888216620E+02 -0.21749857057E+03 -0.21827603081E+03  0.33386877560E+03  0.12500000000E+03 0.  0.
          1    1    1    2  501    0 -0.19214153512E+02  0.19905282844E+03 -0.85491953642E+02  0.21748583021E+03  0.00000000000E+00 0.  1.
         -1    1    1    2    0  503 -0.10674063108E+02  0.18445742133E+02 -0.41245740975E+02  0.46426201381E+02  0.00000000000E+00 0. -1.
<mgrwt>
<rscale>  4 0.24170308E+03</rscale>
<asrwt>0</asrwt>
<pdfrwt beam="1">  1       21 0.19443621E-01 0.24170308E+03</pdfrwt>
<pdfrwt beam="2">  1       21 0.72522658E-01 0.24170308E+03</pdfrwt>
<totfact> 0.40712180E+04</totfact>
</mgrwt>
</event>
<event>
 5    0  0.1972558E-002  0.2160107E+03  0.7546771E-02  0.1136893E+00
         21   -1    0    0  503  502  0.00000000000E+00  0.00000000000E+00  0.29731012508E+03  0.29731012508E+03  0.00000000000E+00 0. -1.
         21   -1    0    0  501  503 -0.00000000000E+00 -0.00000000000E+00 -0.23597030978E+03  0.23597030978E+03  0.00000000000E+00 0. -1.
         25    1    1    2    0    0 -0.13493573972E+03  0.17236946131E+03 -0.17565879691E+02  0.25269041370E+03  0.12500000000E+03 0.  0.
          1    1    1    2  501    0  0.53419445567E+02 -0.30376301884E+02 -0.44239704189E+02  0.75719933356E+02  0.00000000000E+00 0.  1.
         -1    1    1    2    0  502  0.81516294151E+02 -0.14199315943E+03  0.12314539918E+03  0.20487008780E+03  0.00000000000E+00 0. -1.
<mgrwt>
<rscale>  4 0.21601066E+03</rscale>
<asrwt>0</asrwt>
<pdfrwt beam="1">  1       21 0.45740019E-01 0.21601066E+03</pdfrwt>
<pdfrwt beam="2">  1       21 0.36303125E-01 0.21601066E+03</pdfrwt>
<totfact> 0.33121355E+04</totfact>
</mgrwt>
</event>
<event>
 5    0  0.1972558E-002  0.5190731E+03  0.7546771E-02  0.1008917E+00
         21   -1    0    0  501  502  0.00000000000E+00  0.00000000000E+00  0.20412376553E+04  0.20412376553E+04  0.00000000000E+00 0.  1.
         21   -1    0    0  502  503 -0.00000000000E+00 -0.00000000000E+00 -0.37057838326E+03  0.37057838326E+03  0.00000000000E+00 0.  1.
         25    1    1    2    0    0  0.38779063916E+03  0.34954508109E+03 -0.51147424106E+02  0.53926283251E+03  0.12500000000E+03 0.  0.
          2    1    1    2  501    0 -0.38852834102E+02 -0.61524373304E+02  0.11060420720E+04  0.11084330635E+04  0.00000000000E+00 0. -1.
         -2    1    1    2    0  503 -0.34893780506E+03 -0.28802070778E+03  0.61576462423E+03  0.76412014262E+03  0.00000000000E+00 0.  1.
<mgrwt>
<rscale>  4 0.51907313E+03</rscale>
<asrwt>0</asrwt>
<pdfrwt beam="1">  1       21 0.31403656E+00 0.51907313E+03</pdfrwt>
<pdfrwt beam="2">  1       21 0.57012060E-01 0.51907313E+03</pdfrwt>
<totfact> 0.59777734E+01</totfact>
</mgrwt>
</event>
<event>
 5    0  0.1972558E-002  0.2859906E+03  0.7546771E-02  0.1092461E+00
         21   -1    0    0  501  502  0.00000000000E+00  0.00000000000E+00  0.88998652534E+03  0.88998652534E+03  0.00000000000E+00 0. -1.
         21   -1    0    0  502  503 -0.00000000000E+00 -0.00000000000E+00 -0.18222846299E+03  0.18222846299E+03  0.00000000000E+00 0. -1.
         25    1    1    2    0    0 -0.83194359199E+02  0.23639109200E+03  0.19454870345E+02  0.28072324763E+03  0.12500000000E+03 0.  0.
          3    1    1    2  501    0  0.12662890491E+03 -0.24498076324E+03  0.32820955819E+03  0.42868632822E+03  0.00000000000E+00 0. -1.
         -3    1    1    2    0  503 -0.43434545715E+02  0.85896712428E+01  0.36009363381E+03  0.36280541248E+03  0.00000000000E+00 0.  1.
<mgrwt>
<rscale>  4 0.28599058E+03</rscale>
<asrwt>0</asrwt>
<pdfrwt beam="1">  1       21 0.13692100E+00 0.28599058E+03</pdfrwt>
<pdfrwt beam="2">  1       21 0.28035149E-01 0.28599058E+03</pdfrwt>
<totfact> 0.43128195E+03</totfact>
</mgrwt>
</event>
<event>
 5    0  0.1972558E-002  0.2464538E+03  0.7546771E-02  0.1115567E+00
         21   -1    0    0  503  502  0.00000000000E+00  0.00000000000E+00  0.30959922326E+03  0.30959922326E+03  0.00000000000E+00 0.  1.
         21   -1    0    0  501  503 -0.00000000000E+00 -0.00000000000E+00 -0.40230124164E+03  0.40230124164E+03  0.00000000000E+00 0. -1.
         25    1    1    2    0    0  0.11821459930E+03  0.17646462517E+03 -0.30417972425E+03  0.39149043420E+03  0.12500000000E+03 0.  0.
          3    1    1    2  501    0 -0.88380534562E+02 -0.35542208355E+02  0.67527982275E+02  0.11676641578E+03  0.00000000000E+00 0. -1.
         -3    1    1    2    0  502 -0.29834064743E+02 -0.14092241681E+03  0.14394972359E+03  0.20364361493E+03  0.00000000000E+00 0.  1.
<mgrwt>
<rscale>  4 0.24645376E+03</rscale>
<asrwt>0</asrwt>
<pdfrwt beam="1">  1       21 0.47630650E-01 0.24645376E+03</pdfrwt>
<pdfrwt beam="2">  1       21 0.61892499E-01 0.24645376E+03</pdfrwt>
<totfact> 0.98750070E+03</totfact>
</mgrwt>
</event>
<event>
 5    0  0.1972558E-002  0.2487315E+03  0.7546771E-02  0.1114109E+00
         21   -1    0    0  501  502  0.00000000000E+00  0.00000000000E+00  0.13218300907E+04  0.13218300907E+04  0.00000000000E+00 0.  1.
         21   -1    0    0  502  503 -0.00000000000E+00 -0.00000000000E+00 -0.22791312729E+03  0.22791312729E+03  0.00000000000E+00 0. -1.
         25    1    1    2    0    0  0.10145359930E+03  0.20148455925E+03 -0.13796862459E+03  0.29248795155E+03  0.12500000000E+03 0.  0.
          4    1    1    2  501    0 -0.41231617938E+02 -0.68473713056E+02  0.73581422168E+03  0.74014273254E+03  0.00000000000E+00 0.  1.
         -4    1    1    2    0  503 -0.60221981359E+02 -0.13301084620E+03  0.49607136630E+03  0.51711253389E+03  0.00000000000E+00 0. -1.
<mgrwt>
<rscale>  4 0.24873151E+03</rscale>
<asrwt>0</asrwt>
<pdfrwt beam="1">  1       21 0.20335847E+00 0.24873151E+03</pdfrwt>
<pdfrwt beam="2">  1       21 0.35063559E-01 0.24873151E+03</pdfrwt>
<totfact> 0.94660014E+02</totfact>
</mgrwt>
</event>
<event>
 5    0  0.1972558E-002  0.2056353E+03  0.7546771E-02  0.1145070E+00
         21   -1    0    0  501  502  0.00000000000E+00  0.00000000000E+00  0.15646166537E+04  0.15646166537E+04  0.00000000000E+00 0.  1.
         21   -1    0    0  502  503 -0.00000000000E+00 -0.00000000000E+00 -0.15583438730E+03  0.15583438730E+03  0.00000000000E+00 0. -1.
         25    1    1    2    0    0 -0.17338576605E+03  0.10372338154E+03 -0.16799811151E+02  0.23817723947E+03  0.12500000000E+03 0.  0.
          4    1    1    2  501    0  0.11616037342E+03 -0.28962047212E+02  0.10769702751E+03  0.16103006634E+03  0.00000000000E+00 0. -1.
         -4    1    1    2    0  503  0.57225392630E+02 -0.74761334325E+02  0.13178850500E+04  0.13212437352E+04  0.00000000000E+00 0.  1.
<mgrwt>
<rscale>  4 0.20563525E+03</rscale>
<asrwt>0</asrwt>
<pdfrwt beam="1">  1       21 0.24071024E+00 0.20563525E+03</pdfrwt>
<pdfrwt beam="2">  1       21 0.23974522E-01 0.20563525E+03</pdfrwt>
<totfact> 0.12192385E+03</totfact>
</mgrwt>
</event>
<event>
 5    0  0.1972558E-002  0.2810112E+03  0.7546771E-02  0.1095138E+00
         21   -1    0    0  501  502  0.00000000000E+00  0.00000000000E+00  0.13689764269E+04  0.13689764269E+04  0.00000000000E+00 0. -1.
         21   -1    0    0  502  503 -0.00000000000E+00 -0.00000000000E+00 -0.23736759329E+03  0.23736759329E+03  0.00000000000E+00 0. -1.
         25    1    1    2    0    0 -0.58904253444E+01 -0.24232678510E+03  0.60375820192E+02  0.27933350596E+03  0.12500000000E+03 0.  0.
          1    1    1    2  501    0  0.78567502697E+02 -0.11890419192E+02  0.10593664840E+04  0.10623424975E+04  0.00000000000E+00 0. -1.
         -1    1    1    2    0  503 -0.72677077353E+02  0.25421720430E+03  0.11866529353E+02  0.26466801668E+03  0.00000000000E+00 0.  1.
<mgrwt>
<rscale>  4 0.28101118E+03</rscale>
<asrwt>0</asrwt>
<pdfrwt beam="1">  1       21 0.21061175E+00 0.28101118E+03</pdfrwt>
<pdfrwt beam="2">  1       21 0.36518092E-01 0.28101118E+03</pdfrwt>
<totfact> 0.76269902E+02</totfact>
</mgrwt>
</event>
<event>
 5    0  0.1972558E-002  0.2514111E+03  0.7546771E-02  0.1112416E+00
         21   -1    0    0  501  502  0.00000000000E+00  0.00000000000E+00  0.21935179733E+04  0.21935179733E+04  0.00000000000E+00 0. -1.
         21   -1    0    0  502  503 -0.00000000000E+00 -0.00000000000E+00 -0.93929891569E+02  0.93929891569E+02  0.00000000000E+00 0.  1.
         25    1    1    2    0    0 -0.22856888952E+03  0.60483608036E+01  0.12607478252E+03  0.28948259138E+03  0.12500000000E+03 0.  0.
          3    1    1    2  501    0  0.14379643089E+03  0.84792640878E+02  0.14655282646E+04  0.14750051863E+04  0.00000000000E+00 0. -1.
         -3    1    1    2    0  503  0.84772458630E+02 -0.90841001682E+02  0.50798503465E+03  0.52296008716E+03  0.00000000000E+00 0.  1.
<mgrwt>
<rscale>  4 0.25141107E+03</rscale>
<asrwt>0</asrwt>
<pdfrwt beam="1">  1       21 0.33746426E+00 0.25141107E+03</pdfrwt>
<pdfrwt beam="2">  1       21 0.14450754E-01 0.25141107E+03</pdfrwt>
<totfact> 0.80691782E+02</totfact>
</mgrwt>
</event>
<event>
 5    0  0.1972558E-002  0.3196597E+03  0.7546771E-02  0.1075806E+00
         21   -1    0    0  501  502  0.00000000000E+00  0.00000000000E+00  0.33091598679E+03  0.33091598679E+03  0.00000000000E+00 0.  1.
         21   -1    0    0  502  503 -0.00000000000E+00 -0.00000000000E+00 -0.12630598772E+04  0.12630598772E+04  0.00000000000E+00 0.  1.
         25    1    1    2    0    0  0.25573585957E+03  0.14718282688E+03 -0.10304159841E+04  0.10790948590E+04  0.12500000000E+03 0.  0.
          2    1    1    2  501    0  0.19659340701E+02 -0.44836819475E+02  0.19850703513E+03  0.20445506365E+03  0.00000000000E+00 0.  1.
         -2    1    1    2    0  503 -0.27539520027E+03 -0.10234600741E+03 -0.10023494140E+03  0.31042594132E+03  0.00000000000E+00 0. -1.
<mgrwt>
<rscale>  4 0.31965967E+03</rscale>
<asrwt>0</asrwt>
<pdfrwt beam="1">  1       21 0.50910151E-01 0.31965967E+03</pdfrwt>
<pdfrwt beam="2">  1       21 0.19431691E+00 0.31965967E+03</pdfrwt>
<totfact> 0.47651482E+02</totfact>
</mgrwt>
</event>
<event>
 5    0  0.1972558E-002  0.2693555E+03  0.7546771E-02  0.1101649E+00
         21   -1    0    0  501  502  0.00000000000E+00  0.00000000000E+00  0.50275305997E+03  0.50275305997E+03  0.00000000000E+00 0.  1.
         21   -1    0    0  502  503 -0.00000000000E+00 -0.00000000000E+00 -0.58991949838E+03  0.58991949838E+03  0.00000000000E+00 0. -1.
         25    1    1    2    0    0 -0.18581687634E+02  0.26423337237E+03 -0.35828953666E+03  0.46277526540E+03  0.12500000000E+03 0.  0.
          1    1    1    2  501    0  0.17511736556E+01 -0.20807854640E+03 -0.11608539536E+03  0.23827624115E+03  0.00000000000E+00 0. -1.
         -1    1    1    2    0  503  0.16830513979E+02 -0.56154825965E+02  0.38720849362E+03  0.39162105179E+03  0.00000000000E+00 0.  1.
<mgrwt>
<rscale>  4 0.26935554E+03</rscale>
<asrwt>0</asrwt>
<pdfrwt beam="1">  1       21 0.77346625E-01 0.26935554E+03</pdfrwt>
<pdfrwt beam="2">  1       21 0.90756845E-01 0.26935554E+03</pdfrwt>
<totfact> 0.14361923E+03</totfact>
</mgrwt>
</event>
<event>
 5    0  0.1972558E-002  0.2698278E+03  0.7546771E-02  0.1101378E+00
         21   -1    0    0  501  502  0.00000000000E+00  0.00000000000E+00  0.15576604481E+03  0.15576604481E+03  0.00000000000E+00 0.  1.
         21   -1    0    0  502  503 -0.00000000000E+00 -0.00000000000E+00 -0.71193351633E+03  0.71193351633E+03  0.00000000000E+00 0.  1.
         25    1    1    2    0    0 -0.24488645056E+03 -0.18877029029E+02 -0.29565727560E+03  0.40418305322E+03  0.12500000000E+03 0.  0.
          4    1    1    2  501    0  0.23206639724E+03 -0.61118033987E+02 -0.29079038761E+03  0.37702689073E+03  0.00000000000E+00 0.  1.
         -4    1    1    2    0  503  0.12820053312E+02  0.79995063017E+02  0.30280191690E+02  0.86489617196E+02  0.00000000000E+00 0. -1.
<mgrwt>
<rscale>  4 0.26982780E+03</rscale>
<asrwt>0</asrwt>
<pdfrwt beam="1">  1       21 0.23964007E-01 0.26982780E+03</pdfrwt>
<pdfrwt beam="2">  1       21 0.10952823E+00 0.26982780E+03</pdfrwt>
<totfact> 0.10333005E+04</totfact>
</mgrwt>
</event>
<event>
 5    0  0.1972558E-002  0.2631262E+03  0.7546771E-02  0.1105279E+00
         21   -1    0    0  501  502  0.00000000000E+00  0.00000000000E+00  0.52680047173E+03  0.52680047173E+03  0.00000000000E+00 0. -1.
         21   -1    0    0  502  503 -0.00000000000E+00 -0.00000000000E+00 -0.37270047398E+03  0.37270047398E+03  0.00000000000E+00 0.  1.
         25    1    1    2    0    0  0.87317502360E+02 -0.21832860522E+03 -0.28418222328E+03  0.38945636739E+03  0.12500000000E+03 0.  0.
          1    1    1    2  501    0 -0.34908209065E+02  0.14590561559E+02  0.14012063295E+03  0.14513875887E+03  0.00000000000E+00 0.  1.
         -1    1    1    2    0  503 -0.52409293295E+02  0.20373804366E+03  0.29816158809E+03  0.36490581945E+03  0.00000000000E+00 0. -1.
<mgrwt>
<rscale>  4 0.26312620E+03</rscale>
<asrwt>0</asrwt>
<pdfrwt beam="1">  1       21 0.81046226E-01 0.26312620E+03</pdfrwt>
<pdfrwt beam="2">  1       21 0.57338535E-01 0.26312620E+03</pdfrwt>
<totfact> 0.36246272E+03</totfact>
</mgrwt>
</event>
<event>
 5    0  0.1972558E-002  0.3133982E+03  0.7546771E-02  0.1078728E+00
         21   -1    0    0  503  502  0.00000000000E+00  0.00000000000E+00  0.12471824439E+04  0.12471824439E+04  0.00000000000E+00 0.  1.
         21   -1    0    0  501  503 -0.00000000000E+00 -0.00000000000E+00 -0.83001256588E+02  0.83001256588E+02  0.00000000000E+00 0.  1.
         25    1    1    2    0    0  0.10352905891E+03  0.28157158302E+03  0.55588040992E+03  0.64391680560E+03  0.12500000000E+03 0.  0.
          3    1    1    2  501    0 -0.13123450880E+02 -0.19935264394E+02  0.14199358577E+03  0.14398547888E+03  0.00000000000E+00 0. -1.
         -3    1    1    2    0  502 -0.90405608027E+02 -0.26163631863E+03  0.46630719164E+03  0.54228141602E+03  0.00000000000E+00 0.  1.
<mgrwt>
<rscale>  4 0.31339823E+03</rscale>
<asrwt>0</asrwt>
<pdfrwt beam="1">  1       21 0.19187421E+00 0.31339823E+03</pdfrwt>
<pdfrwt beam="2">  1       21 0.12769425E-01 0.31339823E+03</pdfrwt>
<totfact> 0.73296829E+03</totfact>
</mgrwt>
</event>
<event>
 5    0  0.1972558E-002  0.3418223E+03  0.7546771E-02  0.1066022E+00
         21   -1    0    0  501  502  0.00000000000E+00  0.00000000000E+00  0.11786007967E+04  0.11786007967E+04  0.00000000000E+00 0. -1.
         21   -1    0    0  502  503 -0.00000000000E+00 -0.00000000000E+00 -0.93754193295E+03  0.93754193295E+03  0.00000000000E+00 0.  1.
         25    1    1    2    0    0 -0.14323876330E+02  0.35257759953E+03 -0.73710788869E+03  0.82672194642E+03  0.12500000000E+03 0.  0.
          2    1    1    2  501    0  0.31458189831E+01 -0.10968176422E+03  0.10341101451E+04  0.10399152743E+04  0.00000000000E+00 0. -1.
         -2    1    1    2    0  503  0.11178057347E+02 -0.24289583531E+03 -0.55943392686E+02  0.24950550888E+03  0.00000000000E+00 0.  1.
<mgrwt>
<rscale>  4 0.34182231E+03</rscale>
<asrwt>0</asrwt>
<pdfrwt beam="1">  1       21 0.18132320E+00 0.34182231E+03</pdfrwt>
<pdfrwt beam="2">  1       21 0.14423722E+00 0.34182231E+03</pdfrwt>
<totfact> 0.49906482E+01</totfact>
</mgrwt>
</event>
<event>
 5    0  0.1972558E-002  0.3516943E+03  0.7546771E-02  0.1061922E+00
         21   -1    0    0  503  502  0.00000000000E+00  0.00000000000E+00  0.47709540861E+03  0.47709540861E+03  0.00000000000E+00 0.  1.
         21   -1    0    0  501  503 -0.00000000000E+00 -0.00000000000E+00 -0.76206728014E+03  0.76206728014E+03  0.00000000000E+00 0.  1.
         25    1    1    2    0    0  0.29420555185E+03 -0.12671601442E+03 -0.57987282026E+03  0.67415973087E+03  0.12500000000E+03 0.  0.
          1    1    1    2  501    0  0.77052749370E+02  0.22034077217E+02  0.11299070019E+03  0.13852626131E+03  0.00000000000E+00 0. -1.
         -1    1    1    2    0  502 -0.37125830122E+03  0.10468193720E+03  0.18191024854E+03  0.42647669658E+03  0.00000000000E+00 0.  1.
<mgrwt>
<rscale>  4 0.35169430E+03</rscale>
<asrwt>0</asrwt>
<pdfrwt beam="1">  1       21 0.73399294E-01 0.35169430E+03</pdfrwt>
<pdfrwt beam="2">  1       21 0.11724112E+00 0.35169430E+03</pdfrwt>
<totfact> 0.82686881E+02</totfact>
</mgrwt>
</event>
<event>
 5    0  0.1972558E-002  0.2598793E+03  0.7546771E-02  0.1107216E+00
         21   -1    0    0  503  502  0.00000000000E+00  0.00000000000E+00  0.19816086856E+03  0.19816086856E+03  0.00000000000E+00 0. -1.
         21   -1    0    0  501  503 -0.00000000000E+00 -0.00000000000E+00 -0.10833229938E+04  0.10833229938E+04  0.00000000000E+00 0. -1.
         25    1    1    2    0    0 -0.11226917382E+03  0.19392641303E+03 -0.93369687665E+03  0.96831125086E+03  0.12500000000E+03 0.  0.
          1    1    1    2  501    0 -0.41156213471E+02  0.19914797640E+02  0.10310920629E+01  0.45732879017E+02  0.00000000000E+00 0.  1.
         -1    1    1    2    0  502  0.15342538729E+03 -0.21384121067E+03  0.47503659380E+02  0.26743973246E+03  0.00000000000E+00 0. -1.
<mgrwt>
<rscale>  4 0.25987933E+03</rscale>
<asrwt>0</asrwt>
<pdfrwt beam="1">  1       21 0.30486288E-01 0.25987933E+03</pdfrwt>
<pdfrwt beam="2">  1       21 0.16666507E+00 0.25987933E+03</pdfrwt>
<totfact> 0.21977797E+03</totfact>
</mgrwt>
</event>
<event>
 5    0  0.1972558E-002  0.2493609E+03  0.7546771E-02  0.1113709E+00
         21   -1    0    0  501  502  0.00000000000E+00  0.00000000000E+00  0.51584913143E+02  0.51584913143E+02  0.00000000000E+00 0. -1.
         21   -1    0    0  502  503 -0.00000000000E+00 -0.00000000000E+00 -0.16357493621E+04  0.16357493621E+04  0.00000000000E+00 0.  1.
         25    1    1    2    0    0 -0.15530123485E+03  0.14979121837E+03 -0.13064017364E+04  0.13299873607E+04  0.12500000000E+03 0.  0.
          3    1    1    2  501    0  0.13395454925E+03 -0.13914307659E+03 -0.27056334951E+03  0.33242915505E+03  0.00000000000E+00 0. -1.
         -3    1    1    2    0  503  0.21346685603E+02 -0.10648141777E+02 -0.71993629750E+01  0.24917759466E+02  0.00000000000E+00 0.  1.
<mgrwt>
<rscale>  4 0.24936095E+03</rscale>
<asrwt>0</asrwt>
<pdfrwt beam="1">  1       21 0.79361416E-02 0.24936095E+03</pdfrwt>
<pdfrwt beam="2">  1       21 0.25165371E+00 0.24936095E+03</pdfrwt>
<totfact> 0.75253382E+03</totfact>
</mgrwt>
</event>
<event>
 5    0  0.1972558E-002  0.2594700E+03  0.7546771E-02  0.1107462E+00
         21   -1    0    0  501  502  0.00000000000E+00  0.00000000000E+00  0.19039970367E+03  0.19039970367E+03  0.00000000000E+00 0.  1.
         21   -1    0    0  502  503 -0.00000000000E+00 -0.00000000000E+00 -0.42739145374E+03  0.42739145374E+03  0.00000000000E+00 0. -1.
         25    1    1    2    0    0  0.31948204114E+02 -0.21777965250E+03 -0.17532800430E+03  0.30791812854E+03  0.12500000000E+03 0.  0.
          3    1    1    2  501    0 -0.75000629917E+02  0.22609530929E+03 -0.93271917658E+02  0.25581992493E+03  0.00000000000E+00 0.  1.
         -3    1    1    2    0  503  0.43052425803E+02 -0.83156567847E+01  0.31608171883E+02  0.54053103936E+02  0.00000000000E+00 0. -1.
<mgrwt>
<rscale>  4 0.25947003E+03</rscale>
<asrwt>0</asrwt>
<pdfrwt beam="1">  1       21 0.29292262E-01 0.25947003E+03</pdfrwt>
<pdfrwt beam="2">  1       21 0.65752532E-01 0.25947003E+03</pdfrwt>
<totfact> 0.22913511E+04</totfact>
</mgrwt>
</event>
<event>
 5    0  0.1972558E-002  0.2572289E+03  0.7546771E-02  0.1108820E+00
         21   -1    0    0  501  502  0.00000000000E+00  0.00000000000E+00  0.13218083081E+03  0.13218083081E+03  0.00000000000E+00 0.  1.
         21   -1    0    0  502  503 -0.00000000000E+00 -0.00000000000E+00 -0.10960430917E+04  0.10960430917E+04  0.00000000000E+00 0. -1.
         25    1    1    2    0    0 -0.10229362849E+03 -0.21126165701E+03 -0.45241337199E+03  0.52478408256E+03  0.12500000000E+03 0.  0.
          4    1    1    2  501    0  0.10864870235E+03  0.19078126446E+03 -0.58604640474E+03  0.62582139617E+03  0.00000000000E+00 0. -1.
         -4    1    1    2    0  503 -0.63550738676E+01  0.20480392545E+02  0.74597515852E+02  0.77618443774E+02  0.00000000000E+00 0.  1.
<mgrwt>
<rscale>  4 0.25722888E+03</rscale>
<asrwt>0</asrwt>
<pdfrwt beam="1">  1       21 0.20335514E-01 0.25722888E+03</pdfrwt>
<pdfrwt beam="2">  1       21 0.16862200E+00 0.25722888E+03</pdfrwt>
<totfact> 0.46439589E+03</totfact>
</mgrwt>
</event>
<event>
 5    0  0.1972558E-002  0.2690038E+03  0.7546771E-02  0.1101851E+00
         21   -1    0    0  501  502  0.00000000000E+00  0.00000000000E+00  0.23396835404E+03  0.23396835404E+03  0.00000000000E+00 0. -1.
         21   -1    0    0  502  503 -0.00000000000E+00 -0.00000000000E+00 -0.45008115081E+03  0.45008115081E+03  0.00000000000E+00 0. -1.
         25    1    1    2    0    0  0.20137067264E+03  0.12082736956E+03 -0.27852424595E+03  0.38516250676E+03  0.12500000000E+03 0.  0.
          1    1    1    2  501    0 -0.19147429139E+03 -0.16138488077E+03  0.56666231088E+02  0.25674607251E+03  0.00000000000E+00 0. -1.
         -1    1    1    2    0  503 -0.98963812440E+01  0.40557511207E+02  0.57452180976E+01  0.42140925571E+02  0.00000000000E+00 0.  1.
<mgrwt>
<rscale>  4 0.26900379E+03</rscale>
<asrwt>0</asrwt>
<pdfrwt beam="1">  1       21 0.35995131E-01 0.26900379E+03</pdfrwt>
<pdfrwt beam="2">  1       21 0.69243254E-01 0.26900379E+03</pdfrwt>
<totfact> 0.13525391E+04</totfact>
</mgrwt>
</event>
<event>
 5    0  0.1972558E-002  0.3084871E+03  0.7546771E-02  0.1081073E+00
         21   -1    0    0  501  502  0.00000000000E+00  0.00000000000E+00  0.38666696908E+02  0.38666696908E+02  0.00000000000E+00 0.  1.
         21   -1    0    0  502  503 -0.00000000000E+00 -0.00000000000E+00 -0.23416917547E+04  0.23416917547E+04  0.00000000000E+00 0.  1.
         25    1    1    2    0    0 -0.27083451719E+03 -0.78663726050E+02 -0.12028994723E+04  0.12418258565E+04  0.12500000000E+03 0.  0.
          2    1    1    2  501    0  0.23438537648E+03  0.79953063525E+02 -0.10315633196E+04  0.10608731684E+04  0.00000000000E+00 0.  1.
         -2    1    1    2    0  503  0.36449140709E+02 -0.12893374746E+01 -0.68562266017E+02  0.77659426800E+02  0.00000000000E+00 0. -1.
<mgrwt>
<rscale>  4 0.30848714E+03</rscale>
<asrwt>0</asrwt>
<pdfrwt beam="1">  1       21 0.59487215E-02 0.30848714E+03</pdfrwt>
<pdfrwt beam="2">  1       21 0.36026033E+00 0.30848714E+03</pdfrwt>
<totfact> 0.26917512E+03</totfact>
</mgrwt>
</event>
<event>
 5    0  0.1972558E-002  0.2019825E+03  0.7546771E-02  0.1148077E+00
         21   -1    0    0  503  502  0.00000000000E+00  0.00000000000E+00  0.56174837731E+03  0.56174837731E+03  0.00000000000E+00 0. -1.
         21   -1    0    0  501  503 -0.00000000000E+00 -0.00000000000E+00 -0.20136265714E+03  0.20136265714E+03  0.00000000000E+00 0. -1.
         25    1    1    2    0    0  0.13379415832E+03 -0.20251236106E+03  0.13141176551E+03  0.30299535524E+03  0.12500000000E+03 0.  0.
          3    1    1    2  501    0 -0.55581724306E+01  0.14426420212E+03 -0.45703717871E+02  0.15143276766E+03  0.00000000000E+00 0.  1.
         -3    1    1    2    0  502 -0.12823598589E+03  0.58248158933E+02  0.27467767253E+03  0.30868291155E+03  0.00000000000E+00 0. -1.
<mgrwt>
<rscale>  4 0.20198248E+03</rscale>
<asrwt>0</asrwt>
<pdfrwt beam="1">  1       21 0.86422827E-01 0.20198248E+03</pdfrwt>
<pdfrwt beam="2">  1       21 0.30978871E-01 0.20198248E+03</pdfrwt>
<totfact> 0.11472145E+04</totfact>
</mgrwt>
</event>
<event>
 5    0  0.1972558E-002  0.1966478E+03  0.7546771E-02  0.1152598E+00
         21   -1    0    0  501  502  0.00000000000E+00  0.00000000000E+00  0.10849351320E+03  0.10849351320E+03  0.00000000000E+00 0. -1.
         21   -1    0    0  502  503 -0.00000000000E+00 -0.00000000000E+00 -0.11823769880E+04  0.11823769880E+04  0.00000000000E+00 0. -1.
         25    1    1    2    0    0  0.60913297274E+02  0.22734378631E+03 -0.79460041077E+03  0.83809930185E+03  0.12500000000E+03 0.  0.
          4    1    1    2  501    0 -0.59810059060E+02 -0.81914753728E+02 -0.28972308941E+03  0.30696374147E+03  0.00000000000E+00 0. -1.
         -4    1    1    2    0  503 -0.11032382141E+01 -0.14542903259E+03  0.10440025340E+02  0.14580745791E+03  0.00000000000E+00 0.  1.
<mgrwt>
<rscale>  4 0.19664783E+03</rscale>
<asrwt>0</asrwt>
<pdfrwt beam="1">  1       21 0.16691309E-01 0.19664783E+03</pdfrwt>
<pdfrwt beam="2">  1       21 0.18190416E+00 0.19664783E+03</pdfrwt>
<totfact> 0.56791703E+03</totfact>
</mgrwt>
</event>
<event>
 5    0  0.1972558E-002  0.3390434E+03  0.7546771E-02  0.1067204E+00
         21   -1    0    0  501  502  0.00000000000E+00  0.00000000000E+00  0.24022116521E+04  0.24022116521E+04  0.00000000000E+00 0. -1.
         21   -1    0    0  502  503 -0.00000000000E+00 -0.00000000000E+00 -0.24647171265E+03  0.24647171265E+03  0.00000000000E+00 0.  1.
         25    1    1    2    0    0  0.10941517635E+03  0.28835153923E+03 -0.69431226659E+02  0.33994703444E+03  0.12500000000E+03 0.  0.
          4    1    1    2  501    0  0.86704890757E+01  0.43923266147E+02  0.15166595125E+04  0.15173201730E+04  0.00000000000E+00 0. -1.
         -4    1    1    2    0  503 -0.11808566542E+03 -0.33227480538E+03  0.70851165364E+03  0.79141615728E+03  0.00000000000E+00 0.  1.
<mgrwt>
<rscale>  4 0.33904338E+03</rscale>
<asrwt>0</asrwt>
<pdfrwt beam="1">  1       21 0.36957101E+00 0.33904338E+03</pdfrwt>
<pdfrwt beam="2">  1       21 0.37918727E-01 0.33904338E+03</pdfrwt>
<totfact> 0.73907797E+01</totfact>
</mgrwt>
</event>
<event>
 5    0  0.1972558E-002  0.2808072E+03  0.7546771E-02  0.1095249E+00
         21   -1    0    0  501  502  0.00000000000E+00  0.00000000000E+00  0.30645766836E+03  0.30645766836E+03  0.00000000000E+00 0. -1.
         21   -1    0    0  502  503 -0.00000000000E+00 -0.00000000000E+00 -0.99339272203E+03  0.99339272203E+03  0.00000000000E+00 0. -1.
         25    1    1    2    0    0  0.19434206034E+03 -0.18991598937E+03 -0.88119483373E+03  0.93057307850E+03  0.12500000000E+03 0.  0.
          1    1    1    2  501    0 -0.14246990592E+03  0.34707561790E+02  0.12040835894E+03  0.18973787667E+03  0.00000000000E+00 0.  1.
         -1    1    1    2    0  503 -0.51872154415E+02  0.15520842758E+03  0.73851421125E+02  0.17953943522E+03  0.00000000000E+00 0. -1.
<mgrwt>
<rscale>  4 0.28080716E+03</rscale>
<asrwt>0</asrwt>
<pdfrwt beam="1">  1       21 0.47147334E-01 0.28080716E+03</pdfrwt>
<pdfrwt beam="2">  1       21 0.15282965E+00 0.28080716E+03</pdfrwt>
<totfact> 0.11349226E+03</totfact>
</mgrwt>
</event>
<event>
 5    0  0.1972558E-002  0.2434209E+03  0.7546771E-02  0.1117535E+00
         21   -1    0    0  501  502  0.00000000000E+00  0.00000000000E+00  0.33205005705E+03  0.33205005705E+03  0.00000000000E+00 0.  1.
         21   -1    0    0  502  503 -0.00000000000E+00 -0.00000000000E+00 -0.80236630123E+03  0.80236630123E+03  0.00000000000E+00 0.  1.
         25    1    1    2    0    0 -0.18520296033E+03  0.78944422542E+02 -0.60877253522E+03  0.65326974367E+03  0.12500000000E+03 0.  0.
          1    1    1    2  501    0  0.30454573350E+03 -0.41293959057E+02  0.17119125806E+03  0.35179502794E+03  0.00000000000E+00 0.  1.
         -1    1    1    2    0  503 -0.11934277317E+03 -0.37650463485E+02 -0.32734967025E+02  0.12935158667E+03  0.00000000000E+00 0. -1.
<mgrwt>
<rscale>  4 0.24342087E+03</rscale>
<asrwt>0</asrwt>
<pdfrwt beam="1">  1       21 0.51084624E-01 0.24342087E+03</pdfrwt>
<pdfrwt beam="2">  1       21 0.12344097E+00 0.24342087E+03</pdfrwt>
<totfact> 0.17166789E+03</totfact>
</mgrwt>
</event>
<event>
 5    0  0.1972558E-002  0.2539425E+03  0.7546771E-02  0.1110838E+00
         21   -1    0    0  503  502  0.00000000000E+00  0.00000000000E+00  0.25153550598E+04  0.25153550598E+04  0.00000000000E+00 0.  1.
         21   -1    0    0  501  503 -0.00000000000E+00 -0.00000000000E+00 -0.33132128532E+02  0.33132128532E+02  0.00000000000E+00 0.  1.
         25    1    1    2    0    0 -0.19114213991E+03 -0.11102475119E+03  0.59389235879E+03  0.64590629882E+03  0.12500000000E+03 0.  0.
          1    1    1    2  501    0  0.34919576055E+02 -0.79708701070E+01  0.32295284695E+03  0.32493299758E+03  0.00000000000E+00 0. -1.
         -1    1    1    2    0  502  0.15622256385E+03  0.11899562130E+03  0.15653777255E+04  0.15776478919E+04  0.00000000000E+00 0.  1.
<mgrwt>
<rscale>  4 0.25394254E+03</rscale>
<asrwt>0</asrwt>
<pdfrwt beam="1">  1       21 0.38697755E+00 0.25394254E+03</pdfrwt>
<pdfrwt beam="2">  1       21 0.50972525E-02 0.25394254E+03</pdfrwt>
<totfact> 0.25313345E+03</totfact>
</mgrwt>
</event>
<event>
 5    0  0.1972558E-002  0.3632419E+03  0.7546771E-02  0.1057308E+00
         21   -1    0    0  501  502  0.00000000000E+00  0.00000000000E+00  0.70627502820E+03  0.70627502820E+03  0.00000000000E+00 0.  1.
         21   -1    0    0  502  503 -0.00000000000E+00 -0.00000000000E+00 -0.88792496456E+03  0.88792496456E+03  0.00000000000E+00 0. -1.
         25    1    1    2    0    0 -0.20411619143E+03 -0.33727941048E+03 -0.11369087984E+03  0.42891891599E+03  0.12500000000E+03 0.  0.
          1    1    1    2  501    0 -0.19579764565E+02  0.97429844618E+02  0.49980844419E+03  0.50959240839E+03  0.00000000000E+00 0.  1.
         -1    1    1    2    0  503  0.22369595599E+03  0.23984956586E+03 -0.56776750071E+03  0.65568866838E+03  0.00000000000E+00 0. -1.
<mgrwt>
<rscale>  4 0.36324193E+03</rscale>
<asrwt>0</asrwt>
<pdfrwt beam="1">  1       21 0.10865770E+00 0.36324193E+03</pdfrwt>
<pdfrwt beam="2">  1       21 0.13660384E+00 0.36324193E+03</pdfrwt>
<totfact> 0.22047926E+02</totfact>
</mgrwt>
</event>
<event>
 5    0  0.1972558E-002  0.4000143E+03  0.7546771E-02  0.1043775E+00
         21   -1    0    0  501  502  0.00000000000E+00  0.00000000000E+00  0.27241191655E+03  0.27241191655E+03  0.00000000000E+00 0. -1.
         21   -1    0    0  502  503 -0.00000000000E+00 -0.00000000000E+00 -0.72383807101E+03  0.72383807101E+03  0.00000000000E+00 0.  1.
         25    1    1    2    0    0 -0.28001842058E+03  0.20820033778E+03 -0.26106491514E+03  0.45336253312E+03  0.12500000000E+03 0.  0.
          1    1    1    2  501    0  0.33116053101E+03 -0.26488402283E+03 -0.19426292050E+03  0.46644284230E+03  0.00000000000E+00 0. -1.
         -1    1    1    2    0  503 -0.51142110435E+02  0.56683685052E+02  0.39016811749E+01  0.76444612150E+02  0.00000000000E+00 0.  1.
<mgrwt>
<rscale>  4 0.40001429E+03</rscale>
<asrwt>0</asrwt>
<pdfrwt beam="1">  1       21 0.41909526E-01 0.40001429E+03</pdfrwt>
<pdfrwt beam="2">  1       21 0.11135970E+00 0.40001429E+03</pdfrwt>
<totfact> 0.30755439E+03</totfact>
</mgrwt>
</event>
<event>
 5    0  0.1972558E-002  0.3760734E+03  0.7546771E-02  0.1052395E+00
         21   -1    0    0  501  502  0.00000000000E+00  0.00000000000E+00  0.15268166241E+04  0.15268166241E+04  0.00000000000E+00 0. -1.
         21   -1    0    0  502  503 -0.00000000000E+00 -0.00000000000E+00 -0.76011671385E+03  0.76011671385E+03  0.00000000000E+00 0.  1.
         25    1    1    2    0    0 -0.13666704803E+03  0.32378475606E+03 -0.61182745904E+03  0.71656980811E+03  0.12500000000E+03 0.  0.
          3    1    1    2  501    0 -0.75556092238E+01  0.25396851471E+02  0.11016624271E+04  0.11019810301E+04  0.00000000000E+00 0. -1.
         -3    1    1    2    0  503  0.14422265725E+03 -0.34918160753E+03  0.27686494220E+03  0.46838249980E+03  0.00000000000E+00 0.  1.
<mgrwt>
<rscale>  4 0.37607344E+03</rscale>
<asrwt>0</asrwt>
<pdfrwt beam="1">  1       21 0.23489486E+00 0.37607344E+03</pdfrwt>
<pdfrwt beam="2">  1       21 0.11694103E+00 0.37607344E+03</pdfrwt>
<totfact> 0.37362653E+01</totfact>
</mgrwt>
</event>
<event>
 5    0  0.1972558E-002  0.2950053E+03  0.7546771E-02  0.1087764E+00
         21   -1    0    0  501  502  0.00000000000E+00  0.00000000000E+00  0.20356014546E+03  0.20356014546E+03  0.00000000000E+00 0. -1.
         21   -1    0    0  502  503 -0.00000000000E+00 -0.00000000000E+00 -0.96133067536E+03  0.96133067536E+03  0.00000000000E+00 0. -1.
         25    1    1    2    0    0  0.95265978143E+02  0.34080501495E+03 -0.57108846504E+03  0.68336717781E+03  0.12500000000E+03 0.  0.
          1    1    1    2  501    0 -0.86334482074E+02 -0.19013020167E+03 -0.24302372390E+03  0.32041171446E+03  0.00000000000E+00 0. -1.
         -1    1    1    2    0  503 -0.89314960685E+01 -0.15067481328E+03  0.56341659038E+02  0.16111192855E+03  0.00000000000E+00 0.  1.
<mgrwt>
<rscale>  4 0.29500525E+03</rscale>
<asrwt>0</asrwt>
<pdfrwt beam="1">  1       21 0.31316945E-01 0.29500525E+03</pdfrwt>
<pdfrwt beam="2">  1       21 0.14789703E+00 0.29500525E+03</pdfrwt>
<totfact> 0.28167845E+03</totfact>
</mgrwt>
</event>
<event>
 5    0  0.1972558E-002  0.2595790E+03  0.7546771E-02  0.1107396E+00
         21   -1    0    0  501  502  0.00000000000E+00  0.00000000000E+00  0.15628025243E+03  0.15628025243E+03  0.00000000000E+00 0.  1.
         21   -1    0    0  502  503 -0.00000000000E+00 -0.00000000000E+00 -0.17688690604E+04  0.17688690604E+04  0.00000000000E+00 0.  1.
         25    1    1    2    0    0  0.85933388964E+02  0.23154141480E+03 -0.16053380033E+04  0.16290276483E+04  0.12500000000E+03 0.  0.
          1    1    1    2  501    0  0.61777368320E+01 -0.10926444052E+03  0.64522249892E+02  0.12704331201E+03  0.00000000000E+00 0.  1.
         -1    1    1    2    0  503 -0.92111125796E+02 -0.12227697427E+03 -0.71773054569E+02  0.16907835253E+03  0.00000000000E+00 0. -1.
<mgrwt>
<rscale>  4 0.25957904E+03</rscale>
<asrwt>0</asrwt>
<pdfrwt beam="1">  1       21 0.24043115E-01 0.25957904E+03</pdfrwt>
<pdfrwt beam="2">  1       21 0.27213371E+00 0.25957904E+03</pdfrwt>
<totfact> 0.74694961E+02</totfact>
</mgrwt>
</event>
<event>
 5    0  0.1972558E-002  0.2713276E+03  0.7546771E-02  0.1100522E+00
         21   -1    0    0  501  502  0.00000000000E+00  0.00000000000E+00  0.38702931307E+03  0.38702931307E+03  0.00000000000E+00 0.  1.
         21   -1    0    0  502  503 -0.00000000000E+00 -0.00000000000E+00 -0.43570909094E+03  0.43570909094E+03  0.00000000000E+00 0.  1.
         25    1    1    2    0    0  0.38644394001E+02  0.28375497667E+03 -0.10516991114E+02  0.31264338003E+03  0.12500000000E+03 0.  0.
          1    1    1    2  501    0 -0.14424578790E+02 -0.58569603746E+02  0.18351767515E+03  0.19317661362E+03  0.00000000000E+00 0.  1.
         -1    1    1    2    0  503 -0.24219815210E+02 -0.22518537293E+03 -0.22168046191E+03  0.31691841035E+03  0.00000000000E+00 0. -1.
<mgrwt>
<rscale>  4 0.27132758E+03</rscale>
<asrwt>0</asrwt>
<pdfrwt beam="1">  1       21 0.59542971E-01 0.27132758E+03</pdfrwt>
<pdfrwt beam="2">  1       21 0.67032168E-01 0.27132758E+03</pdfrwt>
<totfact> 0.50928123E+03</totfact>
</mgrwt>
</event>
<event>
 5    0  0.1972558E-002  0.2221056E+03  0.7546771E-02  0.1132323E+00
         21   -1    0    0  501  502  0.00000000000E+00  0.00000000000E+00  0.29738725968E+03  0.29738725968E+03  0.00000000000E+00 0. -1.
         21   -1    0    0  502  503 -0.00000000000E+00 -0.00000000000E+00 -0.18986644966E+03  0.18986644966E+03  0.00000000000E+00 0. -1.
         25    1    1    2    0    0  0.10300770479E+03 -0.18307449298E+03  0.83391369399E+02  0.25827500405E+03  0.12500000000E+03 0.  0.
          1    1    1    2  501    0 -0.20473468207E+02  0.32659742679E+02  0.41369183103E+02  0.56544062490E+02  0.00000000000E+00 0.  1.
         -1    1    1    2    0  503 -0.82534236581E+02  0.15041475030E+03 -0.17239742491E+02  0.17243464280E+03  0.00000000000E+00 0. -1.
<mgrwt>
<rscale>  4 0.22210561E+03</rscale>
<asrwt>0</asrwt>
<pdfrwt beam="1">  1       21 0.45751886E-01 0.22210561E+03</pdfrwt>
<pdfrwt beam="2">  1       21 0.29210223E-01 0.22210561E+03</pdfrwt>
<totfact> 0.50698614E+04</totfact>
</mgrwt>
</event>
<event>
 5    0  0.1972558E-002  0.4341510E+03  0.7546771E-02  0.1032557E+00
         21   -1    0    0  501  502  0.00000000000E+00  0.00000000000E+00  0.58232074544E+03  0.58232074544E+03  0.00000000000E+00 0. -1.
         21   -1    0    0  502  503 -0.00000000000E+00 -0.00000000000E+00 -0.48226131020E+03  0.48226131020E+03  0.00000000000E+00 0. -1.
         25    1    1    2    0    0  0.32157721626E+03 -0.26960405397E+03 -0.15866220457E+03  0.46572196329E+03  0.12500000000E+03 0.  0.
          4    1    1    2  501    0 -0.27593346060E+03  0.30566257664E+03  0.91528100557E+02  0.42183679146E+03  0.00000000000E+00 0. -1.
         -4    1    1    2    0  503 -0.45643755658E+02 -0.36058522676E+02  0.16719353926E+03  0.17702330089E+03  0.00000000000E+00 0.  1.
<mgrwt>
<rscale>  4 0.43415102E+03</rscale>
<asrwt>0</asrwt>
<pdfrwt beam="1">  1       21 0.89587807E-01 0.43415102E+03</pdfrwt>
<pdfrwt beam="2">  1       21 0.74194047E-01 0.43415102E+03</pdfrwt>
<totfact> 0.14927671E+03</totfact>
</mgrwt>
</event>
<event>
 5    0  0.1972558E-002  0.2384022E+03  0.7546771E-02  0.1120862E+00
         21   -1    0    0  501  502  0.00000000000E+00  0.00000000000E+00  0.55758473244E+03  0.55758473244E+03  0.00000000000E+00 0.  1.
         21   -1    0    0  502  503 -0.00000000000E+00 -0.00000000000E+00 -0.11995952834E+03  0.11995952834E+03  0.00000000000E+00 0.  1.
         25    1    1    2    0    0 -0.18965346084E+03  0.11175041370E+03  0.22147953292E+03  0.33635513029E+03  0.12500000000E+03 0.  0.
          1    1    1    2  501    0  0.36338502750E+02  0.70236736620E+01  0.11831993668E+03  0.12397348986E+03  0.00000000000E+00 0. -1.
         -1    1    1    2    0  503  0.15331495809E+03 -0.11877408736E+03  0.97825734504E+02  0.21721564063E+03  0.00000000000E+00 0.  1.
<mgrwt>
<rscale>  4 0.23840217E+03</rscale>
<asrwt>0</asrwt>
<pdfrwt beam="1">  1       21 0.85782265E-01 0.23840217E+03</pdfrwt>
<pdfrwt beam="2">  1       21 0.18455312E-01 0.23840217E+03</pdfrwt>
<totfact> 0.30711364E+04</totfact>
</mgrwt>
</event>
<event>
 5    0  0.1972558E-002  0.2642254E+03  0.7546771E-02  0.1104631E+00
         21   -1    0    0  501  502  0.00000000000E+00  0.00000000000E+00  0.16693614228E+03  0.16693614228E+03  0.00000000000E+00 0. -1.
         21   -1    0    0  502  503 -0.00000000000E+00 -0.00000000000E+00 -0.47440006173E+03  0.47440006173E+03  0.00000000000E+00 0. -1.
         25    1    1    2    0    0  0.22097989944E+03 -0.15596680768E+02 -0.23308602128E+03  0.34500647200E+03  0.12500000000E+03 0.  0.
          4    1    1    2  501    0 -0.25298505233E+03  0.65065378140E+01 -0.59995279615E+02  0.26008307387E+03  0.00000000000E+00 0. -1.
         -4    1    1    2    0  503  0.32005152890E+02  0.90901429539E+01 -0.14382618556E+02  0.36246658148E+02  0.00000000000E+00 0.  1.
<mgrwt>
<rscale>  4 0.26422537E+03</rscale>
<asrwt>0</asrwt>
<pdfrwt beam="1">  1       21 0.25682483E-01 0.26422537E+03</pdfrwt>
<pdfrwt beam="2">  1       21 0.72984625E-01 0.26422537E+03</pdfrwt>
<totfact> 0.23420912E+04</totfact>
</mgrwt>
</event>
<event>
 5    0  0.1972558E-002  0.2487321E+03  0.7546771E-02  0.1114109E+00
         21   -1    0    0  501  502  0.00000000000E+00  0.00000000000E+00  0.17531360174E+03  0.17531360174E+03  0.00000000000E+00 0. -1.
         21   -1    0    0  502  503 -0.00000000000E+00 -0.00000000000E+00 -0.36588759195E+03  0.36588759195E+03  0.00000000000E+00 0.  1.
         25    1    1    2    0    0  0.44835791962E+02 -0.22312213195E+03 -0.10003239309E+03  0.27825386552E+03  0.12500000000E+03 0.  0.
          4    1    1    2  501    0  0.21863432844E-01  0.21712031263E+02  0.19421531299E+02  0.29130888376E+02  0.00000000000E+00 0.  1.
         -4    1    1    2    0  503 -0.44857655395E+02  0.20141010069E+03 -0.10996312841E+03  0.23381643979E+03  0.00000000000E+00 0. -1.
<mgrwt>
<rscale>  4 0.24873206E+03</rscale>
<asrwt>0</asrwt>
<pdfrwt beam="1">  1       21 0.26971323E-01 0.24873206E+03</pdfrwt>
<pdfrwt beam="2">  1       21 0.56290399E-01 0.24873206E+03</pdfrwt>
<totfact> 0.37862178E+04</totfact>
</mgrwt>
</event>
<event>
 5    0  0.1972558E-002  0.3892275E+03  0.7546771E-02  0.1047575E+00
         21   -1    0    0  503  502  0.00000000000E+00  0.00000000000E+00  0.83443011723E+03  0.83443011723E+03  0.00000000000E+00 0.  1.
         21   -1    0    0  501  503 -0.00000000000E+00 -0.00000000000E+00 -0.56520674676E+03  0.56520674676E+03  0.00000000000E+00 0. -1.
         25    1    1    2    0    0  0.28177734245E+03  0.26529157283E+03 -0.41547500013E+03  0.58139708037E+03  0.12500000000E+03 0.  0.
          1    1    1    2  501    0 -0.26554148980E+03 -0.11524323262E+03  0.37503878655E+03  0.47375877500E+03  0.00000000000E+00 0.  1.
         -1    1    1    2    0  502 -0.16235852651E+02 -0.15004834020E+03  0.30965958405E+03  0.34448100862E+03  0.00000000000E+00 0. -1.
<mgrwt>
<rscale>  4 0.38922748E+03</rscale>
<asrwt>0</asrwt>
<pdfrwt beam="1">  1       21 0.12837386E+00 0.38922748E+03</pdfrwt>
<pdfrwt beam="2">  1       21 0.86954884E-01 0.38922748E+03</pdfrwt>
<totfact> 0.43554848E+02</totfact>
</mgrwt>
</event>
<event>
 5    0  0.1972558E-002  0.2674246E+03  0.7546771E-02  0.1102763E+00
         21   -1    0    0  501  502  0.00000000000E+00  0.00000000000E+00  0.16705387381E+04  0.16705387381E+04  0.00000000000E+00 0. -1.
         21   -1    0    0  502  503 -0.00000000000E+00 -0.00000000000E+00 -0.16484319360E+03  0.16484319360E+03  0.00000000000E+00 0.  1.
         25    1    1    2    0    0 -0.24641264758E+02 -0.23374507088E+03 -0.17049626351E+02  0.26675764253E+03  0.12500000000E+03 0.  0.
          4    1    1    2  501    0  0.73417422879E+02 -0.23683898240E+02  0.12773492084E+03  0.14922216665E+03  0.00000000000E+00 0.  1.
         -4    1    1    2    0  503 -0.48776158120E+02  0.25742896912E+03  0.13950102500E+04  0.14194021225E+04  0.00000000000E+00 0. -1.
<mgrwt>
<rscale>  4 0.26742459E+03</rscale>
<asrwt>0</asrwt>
<pdfrwt beam="1">  1       21 0.25700595E+00 0.26742459E+03</pdfrwt>
<pdfrwt beam="2">  1       21 0.25360492E-01 0.26742459E+03</pdfrwt>
<totfact> 0.82222289E+02</totfact>
</mgrwt>
</event>
<event>
 5    0  0.1972558E-002  0.2753318E+03  0.7546771E-02  0.1098266E+00
         21   -1    0    0  501  502  0.00000000000E+00  0.00000000000E+00  0.33654523312E+03  0.33654523312E+03  0.00000000000E+00 0.  1.
         21   -1    0    0  502  503 -0.00000000000E+00 -0.00000000000E+00 -0.49826108933E+03  0.49826108933E+03  0.00000000000E+00 0. -1.
         25    1    1    2    0    0  0.24516733786E+03 -0.40506172070E+02 -0.36087322416E+03  0.45563390726E+03  0.12500000000E+03 0.  0.
          3    1    1    2  501    0 -0.23486225769E+03  0.18165260586E+02  0.67228734851E+02  0.24496930332E+03  0.00000000000E+00 0.  1.
         -3    1    1    2    0  503 -0.10305080177E+02  0.22340911484E+02  0.13192863311E+03  0.13420311187E+03  0.00000000000E+00 0. -1.
<mgrwt>
<rscale>  4 0.27533176E+03</rscale>
<asrwt>0</asrwt>
<pdfrwt beam="1">  1       21 0.51776190E-01 0.27533176E+03</pdfrwt>
<pdfrwt beam="2">  1       21 0.76655553E-01 0.27533176E+03</pdfrwt>
<totfact> 0.50763769E+03</totfact>
</mgrwt>
</event>
<event>
 5    0  0.1972558E-002  0.3444875E+03  0.7546771E-02  0.1064901E+00
         21   -1    0    0  501  502  0.00000000000E+00  0.00000000000E+00  0.95473774992E+03  0.95473774992E+03  0.00000000000E+00 0.  1.
         21   -1    0    0  502  503 -0.00000000000E+00 -0.00000000000E+00 -0.70317572115E+03  0.70317572115E+03  0.00000000000E+00 0.  1.
         25    1    1    2    0    0 -0.21322229017E+03 -0.24270946697E+03 -0.62159351285E+03  0.71160039742E+03  0.12500000000E+03 0.  0.
          4    1    1    2  501    0  0.17376077003E+03  0.23721813507E+03  0.57817101765E+03  0.64865011714E+03  0.00000000000E+00 0. -1.
         -4    1    1    2    0  503  0.39461520134E+02  0.54913318986E+01  0.29498452398E+03  0.29766295652E+03  0.00000000000E+00 0.  1.
<mgrwt>
<rscale>  4 0.34448748E+03</rscale>
<asrwt>0</asrwt>
<pdfrwt beam="1">  1       21 0.14688273E+00 0.34448748E+03</pdfrwt>
<pdfrwt beam="2">  1       21 0.10818088E+00 0.34448748E+03</pdfrwt>
<totfact> 0.18619470E+02</totfact>
</mgrwt>
</event>
<event>
 5    0  0.1972558E-002  0.2301637E+03  0.7546771E-02  0.1126525E+00
         21   -1    0    0  501  502  0.00000000000E+00  0.00000000000E+00  0.13355950982E+04  0.13355950982E+04  0.00000000000E+00 0.  1.
         21   -1    0    0  502  503 -0.00000000000E+00 -0.00000000000E+00 -0.86278555690E+02  0.86278555690E+02  0.00000000000E+00 0.  1.
         25    1    1    2    0    0  0.12603001978E+03 -0.17567786081E+03  0.34538379512E+03  0.42621736544E+03  0.12500000000E+03 0.  0.
          2    1    1    2  501    0 -0.12145628061E+03  0.13646134129E+03  0.13861180914E+03  0.22931759505E+03  0.00000000000E+00 0.  1.
         -2    1    1    2    0  503 -0.45737391615E+01  0.39216519525E+02  0.76532093820E+03  0.76633869336E+03  0.00000000000E+00 0. -1.
<mgrwt>
<rscale>  4 0.23016374E+03</rscale>
<asrwt>0</asrwt>
<pdfrwt beam="1">  1       21 0.20547615E+00 0.23016374E+03</pdfrwt>
<pdfrwt beam="2">  1       21 0.13273625E-01 0.23016374E+03</pdfrwt>
<totfact> 0.58730641E+03</totfact>
</mgrwt>
</event>
<event>
 5    0  0.1972558E-002  0.2012959E+03  0.7546771E-02  0.1148650E+00
         21   -1    0    0  503  502  0.00000000000E+00  0.00000000000E+00  0.73616263611E+02  0.73616263611E+02  0.00000000000E+00 0.  1.
         21   -1    0    0  501  503 -0.00000000000E+00 -0.00000000000E+00 -0.80713152297E+03  0.80713152297E+03  0.00000000000E+00 0.  1.
         25    1    1    2    0    0 -0.20727144972E+03  0.35994284397E+02 -0.29761977411E+03  0.38530451895E+03  0.12500000000E+03 0.  0.
          1    1    1    2  501    0  0.65294140516E+02 -0.23859772978E+02 -0.54612347678E+02  0.88403179079E+02  0.00000000000E+00 0. -1.
         -1    1    1    2    0  502  0.14197730920E+03 -0.12134511419E+02 -0.38128313758E+03  0.40704008856E+03  0.00000000000E+00 0.  1.
<mgrwt>
<rscale>  4 0.20129592E+03</rscale>
<asrwt>0</asrwt>
<pdfrwt beam="1">  1       21 0.11325579E-01 0.20129592E+03</pdfrwt>
<pdfrwt beam="2">  1       21 0.12417408E+00 0.20129592E+03</pdfrwt>
<totfact> 0.31396267E+04</totfact>
</mgrwt>
</event>
<event>
 5    0  0.1972558E-002  0.2743175E+03  0.7546771E-02  0.1098834E+00
         21   -1    0    0  501  502  0.00000000000E+00  0.00000000000E+00  0.49966956112E+03  0.49966956112E+03  0.00000000000E+00 0.  1.
         21   -1    0    0  502  503 -0.00000000000E+00 -0.00000000000E+00 -0.24429977465E+03  0.24429977465E+03  0.00000000000E+00 0.  1.
         25    1    1    2    0    0 -0.21818806029E+02  0.25657971601E+03 -0.72654093827E+02  0.29531818148E+03  0.12500000000E+03 0.  0.
          1    1    1    2  501    0 -0.56265614847E+02 -0.49483955231E+02  0.13760591029E+03  0.15668397425E+03  0.00000000000E+00 0. -1.
         -1    1    1    2    0  503  0.78084420876E+02 -0.20709576078E+03  0.19041797001E+03  0.29196718004E+03  0.00000000000E+00 0.  1.
<mgrwt>
<rscale>  4 0.27431752E+03</rscale>
<asrwt>0</asrwt>
<pdfrwt beam="1">  1       21 0.76872240E-01 0.27431752E+03</pdfrwt>
<pdfrwt beam="2">  1       21 0.37584581E-01 0.27431752E+03</pdfrwt>
<totfact> 0.97828598E+03</totfact>
</mgrwt>
</event>
<event>
 5    0  0.1972558E-002  0.3286046E+03  0.7546771E-02  0.1071756E+00
         21   -1    0    0  501  502  0.00000000000E+00  0.00000000000E+00  0.10132114161E+04  0.10132114161E+04  0.00000000000E+00 0. -1.
         21   -1    0    0  502  503 -0.00000000000E+00 -0.00000000000E+00 -0.18995727137E+03  0.18995727137E+03  0.00000000000E+00 0.  1.
         25    1    1    2    0    0  0.17070071026E+03 -0.23798469417E+03  0.28009735782E+03  0.42409312303E+03  0.12500000000E+03 0.  0.
          1    1    1    2  501    0 -0.14386587117E+03  0.27632515817E+03  0.91068018243E+02  0.32457104903E+03  0.00000000000E+00 0.  1.
         -1    1    1    2    0  503 -0.26834839089E+02 -0.38340463999E+02  0.45208876865E+03  0.45450451539E+03  0.00000000000E+00 0. -1.
<mgrwt>
<rscale>  4 0.32860464E+03</rscale>
<asrwt>0</asrwt>
<pdfrwt beam="1">  1       21 0.15587868E+00 0.32860464E+03</pdfrwt>
<pdfrwt beam="2">  1       21 0.29224196E-01 0.32860464E+03</pdfrwt>
<totfact> 0.27496094E+03</totfact>
</mgrwt>
</event>
<event>
 5    0  0.1972558E-002  0.2351769E+03  0.7546771E-02  0.1123048E+00
         21   -1    0    0  501  502  0.00000000000E+00  0.00000000000E+00  0.55661164692E+03  0.55661164692E+03  0.00000000000E+00 0.  1.
         21   -1    0    0  502  503 -0.00000000000E+00 -0.00000000000E+00 -0.17429011527E+03  0.17429011527E+03  0.00000000000E+00 0. -1.
         25    1    1    2    0    0  0.15749213689E+03  0.12983874001E+03 -0.34286336802E+02  0.24179004215E+03  0.12500000000E+03 0.  0.
          1    1    1    2  501    0  0.18342233021E+02 -0.54905890544E+02  0.15233458745E+03  0.16296294322E+03  0.00000000000E+00 0. -1.
         -1    1    1    2    0  503 -0.17583436991E+03 -0.74932849467E+02  0.26427328101E+03  0.32614877682E+03  0.00000000000E+00 0.  1.
<mgrwt>
<rscale>  4 0.23517687E+03</rscale>
<asrwt>0</asrwt>
<pdfrwt beam="1">  1       21 0.85632560E-01 0.23517687E+03</pdfrwt>
<pdfrwt beam="2">  1       21 0.26813864E-01 0.23517687E+03</pdfrwt>
<totfact> 0.15206733E+04</totfact>
</mgrwt>
</event>
<event>
 5    0  0.1972558E-002  0.2726448E+03  0.7546771E-02  0.1099775E+00
         21   -1    0    0  503  502  0.00000000000E+00  0.00000000000E+00  0.44355801558E+03  0.44355801558E+03  0.00000000000E+00 0. -1.
         21   -1    0    0  501  503 -0.00000000000E+00 -0.00000000000E+00 -0.12840042546E+04  0.12840042546E+04  0.00000000000E+00 0. -1.
         25    1    1    2    0    0 -0.23791639203E+03  0.45890885219E+02 -0.12317474996E+04  0.12615613682E+04  0.12500000000E+03 0.  0.
          2    1    1    2  501    0  0.72221906640E+02 -0.10747436575E+02  0.62404617025E+02  0.96051274941E+02  0.00000000000E+00 0.  1.
         -2    1    1    2    0  502  0.16569448539E+03 -0.35143448644E+02  0.32889664351E+03  0.36994962709E+03  0.00000000000E+00 0. -1.
<mgrwt>
<rscale>  4 0.27264479E+03</rscale>
<asrwt>0</asrwt>
<pdfrwt beam="1">  1       21 0.68239696E-01 0.27264479E+03</pdfrwt>
<pdfrwt beam="2">  1       21 0.19753911E+00 0.27264479E+03</pdfrwt>
<totfact> 0.24996796E+02</totfact>
</mgrwt>
</event>
<event>
 5    0  0.1972558E-002  0.1838576E+03  0.7546771E-02  0.1164121E+00
         21   -1    0    0  501  502  0.00000000000E+00  0.00000000000E+00  0.14619425901E+03  0.14619425901E+03  0.00000000000E+00 0.  1.
         21   -1    0    0  502  503 -0.00000000000E+00 -0.00000000000E+00 -0.55685167859E+03  0.55685167859E+03  0.00000000000E+00 0.  1.
         25    1    1    2    0    0 -0.20186961929E+03  0.18805608819E+02 -0.39783463328E+02  0.24148026435E+03  0.12500000000E+03 0.  0.
          1    1    1    2  501    0  0.86164364366E+02 -0.76296246294E+02 -0.71470945776E+02  0.13547513047E+03  0.00000000000E+00 0. -1.
         -1    1    1    2    0  503  0.11570525493E+03  0.57490637474E+02 -0.29940301047E+03  0.32609054278E+03  0.00000000000E+00 0.  1.
<mgrwt>
<rscale>  4 0.18385758E+03</rscale>
<asrwt>0</asrwt>
<pdfrwt beam="1">  1       21 0.22491424E-01 0.18385758E+03</pdfrwt>
<pdfrwt beam="2">  1       21 0.85669489E-01 0.18385758E+03</pdfrwt>
<totfact> 0.21904677E+04</totfact>
</mgrwt>
</event>
<event>
 5    0  0.1972558E-002  0.2202603E+03  0.7546771E-02  0.1133689E+00
         21   -1    0    0  501  502  0.00000000000E+00  0.00000000000E+00  0.81239085614E+03  0.81239085614E+03  0.00000000000E+00 0. -1.
         21   -1    0    0  502  503 -0.00000000000E+00 -0.00000000000E+00 -0.98568324499E+02  0.98568324499E+02  0.00000000000E+00 0.  1.
         25    1    1    2    0    0  0.19806626344E+03  0.58592965523E+02  0.14253353545E+03  0.28036438620E+03  0.12500000000E+03 0.  0.
          1    1    1    2  501    0 -0.99431372382E+02 -0.10557900656E+03  0.41731023320E+03  0.44179333989E+03  0.00000000000E+00 0. -1.
         -1    1    1    2    0  503 -0.98634891058E+02  0.46986041037E+02  0.15397876299E+03  0.18880145455E+03  0.00000000000E+00 0.  1.
<mgrwt>
<rscale>  4 0.22026034E+03</rscale>
<asrwt>0</asrwt>
<pdfrwt beam="1">  1       21 0.12498320E+00 0.22026034E+03</pdfrwt>
<pdfrwt beam="2">  1       21 0.15164358E-01 0.22026034E+03</pdfrwt>
<totfact> 0.18032314E+04</totfact>
</mgrwt>
</event>
<event>
 5    0  0.1972558E-002  0.2166713E+03  0.7546771E-02  0.1136389E+00
         21   -1    0    0  501  502  0.00000000000E+00  0.00000000000E+00  0.45163530697E+03  0.45163530697E+03  0.00000000000E+00 0.  1.
         21   -1    0    0  502  503 -0.00000000000E+00 -0.00000000000E+00 -0.29722696647E+03  0.29722696647E+03  0.00000000000E+00 0.  1.
         25    1    1    2    0    0 -0.14051549605E+03  0.14770807394E+03 -0.19985898588E+03  0.31165829681E+03  0.12500000000E+03 0.  0.
          2    1    1    2  501    0  0.11787213300E+03 -0.12921125743E+03  0.36604540619E+03  0.40568291581E+03  0.00000000000E+00 0.  1.
         -2    1    1    2    0  503  0.22643363046E+02 -0.18496816510E+02 -0.11778079812E+02  0.31521060818E+02  0.00000000000E+00 0. -1.
<mgrwt>
<rscale>  4 0.21667134E+03</rscale>
<asrwt>0</asrwt>
<pdfrwt beam="1">  1       21 0.69482355E-01 0.21667134E+03</pdfrwt>
<pdfrwt beam="2">  1       21 0.45727225E-01 0.21667134E+03</pdfrwt>
<totfact> 0.84932300E+03</totfact>
</mgrwt>
</event>
<event>
 5    0  0.1972558E-002  0.2147424E+03  0.7546771E-02  0.1137865E+00
         21   -1    0    0  501  502  0.00000000000E+00  0.00000000000E+00  0.34451952747E+02  0.34451952747E+02  0.00000000000E+00 0.  1.
         21   -1    0    0  502  503 -0.00000000000E+00 -0.00000000000E+00 -0.18069393108E+04  0.18069393108E+04  0.00000000000E+00 0.  1.
         25    1    1    2    0    0  0.20372311572E+03 -0.86054290627E+00 -0.10269832182E+04  0.10544303575E+04  0.12500000000E+03 0.  0.
          1    1    1    2  501    0 -0.16208989429E+03  0.33493642299E+02 -0.34136527960E+03  0.37937476460E+03  0.00000000000E+00 0.  1.
         -1    1    1    2    0  503 -0.41633221435E+02 -0.32633099393E+02 -0.40413886031E+03  0.40758614147E+03  0.00000000000E+00 0. -1.
<mgrwt>
<rscale>  4 0.21474237E+03</rscale>
<asrwt>0</asrwt>
<pdfrwt beam="1">  1       21 0.53002986E-02 0.21474237E+03</pdfrwt>
<pdfrwt beam="2">  1       21 0.27799076E+00 0.21474237E+03</pdfrwt>
<totfact> 0.10898225E+04</totfact>
</mgrwt>
</event>
<event>
 5    0  0.1972558E-002  0.2520530E+03  0.7546771E-02  0.1112014E+00
         21   -1    0    0  501  502  0.00000000000E+00  0.00000000000E+00  0.25599522380E+03  0.25599522380E+03  0.00000000000E+00 0. -1.
         21   -1    0    0  502  503 -0.00000000000E+00 -0.00000000000E+00 -0.33868255283E+03  0.33868255283E+03  0.00000000000E+00 0.  1.
         25    1    1    2    0    0  0.54895285491E+02  0.20918777542E+03 -0.16303599965E+03  0.29829306887E+03  0.12500000000E+03 0.  0.
          4    1    1    2  501    0  0.31128719640E+02 -0.14474974670E+01  0.63710087953E+02  0.70922970484E+02  0.00000000000E+00 0.  1.
         -4    1    1    2    0  503 -0.86024005131E+02 -0.20774027796E+03  0.16638582665E+02  0.22546173728E+03  0.00000000000E+00 0. -1.
<mgrwt>
<rscale>  4 0.25205298E+03</rscale>
<asrwt>0</asrwt>
<pdfrwt beam="1">  1       21 0.39383880E-01 0.25205298E+03</pdfrwt>
<pdfrwt beam="2">  1       21 0.52105008E-01 0.25205298E+03</pdfrwt>
<totfact> 0.21043592E+04</totfact>
</mgrwt>
</event>
<event>
 5    0  0.1972558E-002  0.2432534E+03  0.7546771E-02  0.1117644E+00
         21   -1    0    0  501  502  0.00000000000E+00  0.00000000000E+00  0.33777706344E+03  0.33777706344E+03  0.00000000000E+00 0. -1.
         21   -1    0    0  502  503 -0.00000000000E+00 -0.00000000000E+00 -0.45698191822E+03  0.45698191822E+03  0.00000000000E+00 0.  1.
         25    1    1    2    0    0  0.10311475828E+03 -0.23140935927E+03 -0.25231235316E+03  0.37877363753E+03  0.12500000000E+03 0.  0.
          4    1    1    2  501    0  0.52794290007E+02  0.14165110086E+03  0.17502042692E+03  0.23126699131E+03  0.00000000000E+00 0. -1.
         -4    1    1    2    0  503 -0.15590904828E+03  0.89758258412E+02 -0.41912928536E+02  0.18471835282E+03  0.00000000000E+00 0.  1.
<mgrwt>
<rscale>  4 0.24325341E+03</rscale>
<asrwt>0</asrwt>
<pdfrwt beam="1">  1       21 0.51965702E-01 0.24325341E+03</pdfrwt>
<pdfrwt beam="2">  1       21 0.70304910E-01 0.24325341E+03</pdfrwt>
<totfact> 0.62305133E+03</totfact>
</mgrwt>
</event>
<event>
 5    0  0.1972558E-002  0.2110739E+03  0.7546771E-02  0.1140718E+00
         21   -1    0    0  501  502  0.00000000000E+00  0.00000000000E+00  0.47777577793E+02  0.47777577793E+02  0.00000000000E+00 0.  1.
         21   -1    0    0  502  503 -0.00000000000E+00 -0.00000000000E+00 -0.21314665316E+04  0.21314665316E+04  0.00000000000E+00 0.  1.
         25    1    1    2    0    0 -0.20297872941E+03  0.47322818806E+02 -0.16880094276E+04  0.17054150936E+04  0.12500000000E+03 0.  0.
          4    1    1    2  501    0  0.79628891576E+02 -0.30606894463E+02 -0.34885841174E+02  0.92165960510E+02  0.00000000000E+00 0.  1.
         -4    1    1    2    0  503  0.12334983783E+03 -0.16715924342E+02 -0.36079368511E+03  0.38166305537E+03  0.00000000000E+00 0. -1.
<mgrwt>
<rscale>  4 0.21107386E+03</rscale>
<asrwt>0</asrwt>
<pdfrwt beam="1">  1       21 0.73503969E-02 0.21107386E+03</pdfrwt>
<pdfrwt beam="2">  1       21 0.32791791E+00 0.21107386E+03</pdfrwt>
<totfact> 0.32004109E+03</totfact>
</mgrwt>
</event>
<event>
 5    0  0.1972558E-002  0.3853047E+03  0.7546771E-02  0.1048990E+00
         21   -1    0    0  501  502  0.00000000000E+00  0.00000000000E+00  0.12904494874E+04  0.12904494874E+04  0.00000000000E+00 0.  1.
         21   -1    0    0  502  503 -0.00000000000E+00 -0.00000000000E+00 -0.25835290882E+03  0.25835290882E+03  0.00000000000E+00 0. -1.
         25    1    1    2    0    0  0.38692269508E+03 -0.66863320879E+02  0.24708419098E+02  0.41281397944E+03  0.12500000000E+03 0.  0.
          3    1    1    2  501    0 -0.31242678469E+03  0.28761839232E+02  0.33716645843E+03  0.46056374139E+03  0.00000000000E+00 0.  1.
         -3    1    1    2    0  503 -0.74495910389E+02  0.38101481647E+02  0.67022170104E+03  0.67542467538E+03  0.00000000000E+00 0. -1.
<mgrwt>
<rscale>  4 0.38530468E+03</rscale>
<asrwt>0</asrwt>
<pdfrwt beam="1">  1       21 0.19853069E+00 0.38530468E+03</pdfrwt>
<pdfrwt beam="2">  1       21 0.39746602E-01 0.38530468E+03</pdfrwt>
<totfact> 0.71765905E+02</totfact>
</mgrwt>
</event>
<event>
 5    0  0.1972558E-002  0.2941375E+03  0.7546771E-02  0.1088208E+00
         21   -1    0    0  501  502  0.00000000000E+00  0.00000000000E+00  0.10306952144E+04  0.10306952144E+04  0.00000000000E+00 0.  1.
         21   -1    0    0  502  503 -0.00000000000E+00 -0.00000000000E+00 -0.26147218374E+03  0.26147218374E+03  0.00000000000E+00 0. -1.
         25    1    1    2    0    0 -0.21052109283E+03 -0.83349136674E+00  0.86450786900E+02  0.25965084977E+03  0.12500000000E+03 0.  0.
          4    1    1    2  501    0  0.31062037279E+03  0.44137651197E+02 -0.26546722460E+02  0.31486167871E+03  0.00000000000E+00 0. -1.
         -4    1    1    2    0  503 -0.10009927997E+03 -0.43304159830E+02  0.70931896619E+03  0.71765486963E+03  0.00000000000E+00 0.  1.
<mgrwt>
<rscale>  4 0.29413751E+03</rscale>
<asrwt>0</asrwt>
<pdfrwt beam="1">  1       21 0.15856849E+00 0.29413751E+03</pdfrwt>
<pdfrwt beam="2">  1       21 0.40226490E-01 0.29413751E+03</pdfrwt>
<totfact> 0.14124334E+03</totfact>
</mgrwt>
</event>
<event>
 5    0  0.1972558E-002  0.3561785E+03  0.7546771E-02  0.1060107E+00
         21   -1    0    0  503  502  0.00000000000E+00  0.00000000000E+00  0.14162638875E+04  0.14162638875E+04  0.00000000000E+00 0.  1.
         21   -1    0    0  501  503 -0.00000000000E+00 -0.00000000000E+00 -0.99084633476E+02  0.99084633476E+02  0.00000000000E+00 0.  1.
         25    1    1    2    0    0  0.28880197002E+03  0.16682799393E+03  0.91529925619E+03  0.98215878850E+03  0.12500000000E+03 0.  0.
          3    1    1    2  501    0 -0.42435402239E+02  0.18304555145E+01  0.99792008213E+02  0.10845533105E+03  0.00000000000E+00 0. -1.
         -3    1    1    2    0  502 -0.24636656778E+03 -0.16865844944E+03  0.30208798966E+03  0.42473440146E+03  0.00000000000E+00 0.  1.
<mgrwt>
<rscale>  4 0.35617855E+03</rscale>
<asrwt>0</asrwt>
<pdfrwt beam="1">  1       21 0.21788674E+00 0.35617855E+03</pdfrwt>
<pdfrwt beam="2">  1       21 0.15243791E-01 0.35617855E+03</pdfrwt>
<totfact> 0.35041364E+03</totfact>
</mgrwt>
</event>
<event>
 5    0  0.1972558E-002  0.3855576E+03  0.7546771E-02  0.1048899E+00
         21   -1    0    0  501  502  0.00000000000E+00  0.00000000000E+00  0.42326879551E+03  0.42326879551E+03  0.00000000000E+00 0. -1.
         21   -1    0    0  502  503 -0.00000000000E+00 -0.00000000000E+00 -0.10882766103E+04  0.10882766103E+04  0.00000000000E+00 0.  1.
         25    1    1    2    0    0 -0.17922859001E+03  0.30974188012E+03 -0.85500035292E+03  0.93526120590E+03  0.12500000000E+03 0.  0.
          4    1    1    2  501    0  0.26607296549E+03 -0.31227115635E+03  0.52440757799E+02  0.41359174452E+03  0.00000000000E+00 0. -1.
         -4    1    1    2    0  503 -0.86844375481E+02  0.25292762295E+01  0.13755178029E+03  0.16269245542E+03  0.00000000000E+00 0.  1.
<mgrwt>
<rscale>  4 0.38555757E+03</rscale>
<asrwt>0</asrwt>
<pdfrwt beam="1">  1       21 0.65118277E-01 0.38555757E+03</pdfrwt>
<pdfrwt beam="2">  1       21 0.16742717E+00 0.38555757E+03</pdfrwt>
<totfact> 0.41283155E+02</totfact>
</mgrwt>
</event>
<event>
 5    0  0.1983912E-002  0.2038414E+03  0.7546771E-02  0.1146538E+00
         21   -1    0    0  503  502  0.00000000000E+00  0.00000000000E+00  0.16947811573E+04  0.16947811573E+04  0.00000000000E+00 0. -1.
         21   -1    0    0  501  503 -0.00000000000E+00 -0.00000000000E+00 -0.23425052894E+03  0.23425052894E+03  0.00000000000E+00 0.  1.
         25    1    1    2    0    0 -0.20626242690E+03 -0.87881938422E+02 -0.10173919961E+03  0.27612187271E+03  0.12500000000E+03 0.  0.
          1    1    1    2  501    0  0.75955005701E+02 -0.45583661118E+01 -0.61815600013E+01  0.76342342620E+02  0.00000000000E+00 0.  1.
         -1    1    1    2    0  502  0.13030742120E+03  0.92440304534E+02  0.15684513880E+04  0.15765674710E+04  0.00000000000E+00 0. -1.
<mgrwt>
<rscale>  4 0.20384138E+03</rscale>
<asrwt>0</asrwt>
<pdfrwt beam="1">  1       21 0.26073556E+00 0.20384138E+03</pdfrwt>
<pdfrwt beam="2">  1       21 0.36038544E-01 0.20384138E+03</pdfrwt>
<totfact> 0.42086898E+02</totfact>
</mgrwt>
</event>
<event>
 5    0  0.1972558E-002  0.3503638E+03  0.7546771E-02  0.1062466E+00
         21   -1    0    0  501  502  0.00000000000E+00  0.00000000000E+00  0.83328772669E+03  0.83328772669E+03  0.00000000000E+00 0. -1.
         21   -1    0    0  502  503 -0.00000000000E+00 -0.00000000000E+00 -0.31003590507E+03  0.31003590507E+03  0.00000000000E+00 0. -1.
         25    1    1    2    0    0  0.21600478496E+03 -0.23419845814E+03 -0.10895323461E+03  0.35916958703E+03  0.12500000000E+03 0.  0.
          3    1    1    2  501    0 -0.23405540042E+03  0.26983917266E+03  0.35332795800E+03  0.50242985129E+03  0.00000000000E+00 0. -1.
         -3    1    1    2    0  503  0.18050615465E+02 -0.35640714522E+02  0.27887709823E+03  0.28172419343E+03  0.00000000000E+00 0.  1.
<mgrwt>
<rscale>  4 0.35036378E+03</rscale>
<asrwt>0</asrwt>
<pdfrwt beam="1">  1       21 0.12819811E+00 0.35036378E+03</pdfrwt>
<pdfrwt beam="2">  1       21 0.47697832E-01 0.35036378E+03</pdfrwt>
<totfact> 0.16845949E+03</totfact>
</mgrwt>
</event>
<event>
 5    0  0.1972558E-002  0.2953449E+03  0.7546771E-02  0.1087591E+00
         21   -1    0    0  501  502  0.00000000000E+00  0.00000000000E+00  0.19495410805E+03  0.19495410805E+03  0.00000000000E+00 0. -1.
         21   -1    0    0  502  503 -0.00000000000E+00 -0.00000000000E+00 -0.42242180569E+03  0.42242180569E+03  0.00000000000E+00 0.  1.
         25    1    1    2    0    0 -0.16013053328E+03  0.21438705907E+03 -0.12618748122E+03  0.32117266260E+03  0.12500000000E+03 0.  0.
          3    1    1    2  501    0  0.71831813449E+02 -0.39881275421E+02 -0.21057893291E+02  0.84816038710E+02  0.00000000000E+00 0.  1.
         -3    1    1    2    0  503  0.88298719827E+02 -0.17450578365E+03 -0.80222323134E+02  0.21138721243E+03  0.00000000000E+00 0. -1.
<mgrwt>
<rscale>  4 0.29534488E+03</rscale>
<asrwt>0</asrwt>
<pdfrwt beam="1">  1       21 0.29992940E-01 0.29534488E+03</pdfrwt>
<pdfrwt beam="2">  1       21 0.64987969E-01 0.29534488E+03</pdfrwt>
<totfact> 0.22105219E+04</totfact>
</mgrwt>
</event>
<event>
 5    0  0.1972558E-002  0.2589177E+03  0.7546771E-02  0.1107795E+00
         21   -1    0    0  501  502  0.00000000000E+00  0.00000000000E+00  0.68438677901E+02  0.68438677901E+02  0.00000000000E+00 0.  1.
         21   -1    0    0  502  503 -0.00000000000E+00 -0.00000000000E+00 -0.12175857756E+04  0.12175857756E+04  0.00000000000E+00 0. -1.
         25    1    1    2    0    0  0.11540770478E+02  0.21402989033E+03 -0.74845026702E+03  0.78850794894E+03  0.12500000000E+03 0.  0.
          3    1    1    2  501    0 -0.13739712352E+02 -0.24921755719E+03 -0.38522020122E+03  0.45901282546E+03  0.00000000000E+00 0.  1.
         -3    1    1    2    0  503  0.21989418746E+01  0.35187666865E+02 -0.15476629453E+02  0.38503679097E+02  0.00000000000E+00 0. -1.
<mgrwt>
<rscale>  4 0.25891767E+03</rscale>
<asrwt>0</asrwt>
<pdfrwt beam="1">  1       21 0.10529027E-01 0.25891767E+03</pdfrwt>
<pdfrwt beam="2">  1       21 0.18732089E+00 0.25891767E+03</pdfrwt>
<totfact> 0.11482574E+04</totfact>
</mgrwt>
</event>
<event>
 5    0  0.1972558E-002  0.2580473E+03  0.7546771E-02  0.1108322E+00
         21   -1    0    0  503  502  0.00000000000E+00  0.00000000000E+00  0.10580825147E+03  0.10580825147E+03  0.00000000000E+00 0. -1.
         21   -1    0    0  501  503 -0.00000000000E+00 -0.00000000000E+00 -0.78372249414E+03  0.78372249414E+03  0.00000000000E+00 0. -1.
         25    1    1    2    0    0 -0.21117870579E+03 -0.82788719268E+02 -0.49382426621E+03  0.55761799084E+03  0.12500000000E+03 0.  0.
          1    1    1    2  501    0 -0.86957049920E+01  0.32510743926E+02  0.91812045565E+01  0.34883495711E+02  0.00000000000E+00 0.  1.
         -1    1    1    2    0  502  0.21987441078E+03  0.50277975342E+02 -0.19327118103E+03  0.29702925906E+03  0.00000000000E+00 0. -1.
<mgrwt>
<rscale>  4 0.25804728E+03</rscale>
<asrwt>0</asrwt>
<pdfrwt beam="1">  1       21 0.16278192E-01 0.25804728E+03</pdfrwt>
<pdfrwt beam="2">  1       21 0.12057269E+00 0.25804728E+03</pdfrwt>
<totfact> 0.16968299E+04</totfact>
</mgrwt>
</event>
<event>
 5    0  0.1972558E-002  0.2931692E+03  0.7546771E-02  0.1088706E+00
         21   -1    0    0  501  502  0.00000000000E+00  0.00000000000E+00  0.47168058482E+03  0.47168058482E+03  0.00000000000E+00 0.  1.
         21   -1    0    0  502  503 -0.00000000000E+00 -0.00000000000E+00 -0.28376196016E+03  0.28376196016E+03  0.00000000000E+00 0.  1.
         25    1    1    2    0    0  0.22722028445E+02  0.26023808504E+03 -0.10268846182E+03  0.30726221973E+03  0.12500000000E+03 0.  0.
          1    1    1    2  501    0  0.61857842480E+01 -0.27589072943E+03  0.17216541851E+03  0.32526126397E+03  0.00000000000E+00 0.  1.
         -1    1    1    2    0  503 -0.28907812693E+02  0.15652644385E+02  0.11844166797E+03  0.12291906127E+03  0.00000000000E+00 0. -1.
<mgrwt>
<rscale>  4 0.29316925E+03</rscale>
<asrwt>0</asrwt>
<pdfrwt beam="1">  1       21 0.72566244E-01 0.29316925E+03</pdfrwt>
<pdfrwt beam="2">  1       21 0.43655686E-01 0.29316925E+03</pdfrwt>
<totfact> 0.81289708E+03</totfact>
</mgrwt>
</event>
<event>
 5    0  0.1972558E-002  0.3280915E+03  0.7546771E-02  0.1071984E+00
         21   -1    0    0  501  502  0.00000000000E+00  0.00000000000E+00  0.11076193603E+04  0.11076193603E+04  0.00000000000E+00 0. -1.
         21   -1    0    0  502  503 -0.00000000000E+00 -0.00000000000E+00 -0.30629784809E+03  0.30629784809E+03  0.00000000000E+00 0. -1.
         25    1    1    2    0    0  0.29615485840E+03  0.64669359515E+02 -0.17266536655E+03  0.37057813619E+03  0.12500000000E+03 0.  0.
          3    1    1    2  501    0 -0.30366412328E+03 -0.37442651981E+02  0.65315516121E+03  0.72126660575E+03  0.00000000000E+00 0. -1.
         -3    1    1    2    0  503  0.75092648798E+01 -0.27226707534E+02  0.32083171750E+03  0.32207246641E+03  0.00000000000E+00 0.  1.
<mgrwt>
<rscale>  4 0.32809155E+03</rscale>
<asrwt>0</asrwt>
<pdfrwt beam="1">  1       21 0.17040298E+00 0.32809155E+03</pdfrwt>
<pdfrwt beam="2">  1       21 0.47122746E-01 0.32809155E+03</pdfrwt>
<totfact> 0.81570076E+02</totfact>
</mgrwt>
</event>
<event>
 5    0  0.1972558E-002  0.3251182E+03  0.7546771E-02  0.1073318E+00
         21   -1    0    0  501  502  0.00000000000E+00  0.00000000000E+00  0.91275539908E+03  0.91275539908E+03  0.00000000000E+00 0. -1.
         21   -1    0    0  502  503 -0.00000000000E+00 -0.00000000000E+00 -0.19730949269E+03  0.19730949269E+03  0.00000000000E+00 0.  1.
         25    1    1    2    0    0 -0.21440335785E+03 -0.18283573130E+03  0.38268261596E+03  0.49139463678E+03  0.12500000000E+03 0.  0.
          1    1    1    2  501    0  0.23064219325E+03  0.20274932389E+03  0.23114102423E+02  0.30795676868E+03  0.00000000000E+00 0. -1.
         -1    1    1    2    0  503 -0.16238835402E+02 -0.19913592594E+02  0.30964918800E+03  0.31071348631E+03  0.00000000000E+00 0.  1.
<mgrwt>
<rscale>  4 0.32511819E+03</rscale>
<asrwt>0</asrwt>
<pdfrwt beam="1">  1       21 0.14042390E+00 0.32511819E+03</pdfrwt>
<pdfrwt beam="2">  1       21 0.30355307E-01 0.32511819E+03</pdfrwt>
<totfact> 0.33798602E+03</totfact>
</mgrwt>
</event>
<event>
 5    0  0.1972558E-002  0.2496101E+03  0.7546771E-02  0.1113551E+00
         21   -1    0    0  501  502  0.00000000000E+00  0.00000000000E+00  0.12825408978E+04  0.12825408978E+04  0.00000000000E+00 0.  1.
         21   -1    0    0  502  503 -0.00000000000E+00 -0.00000000000E+00 -0.20398541689E+03  0.20398541689E+03  0.00000000000E+00 0.  1.
         25    1    1    2    0    0  0.63400433060E+02 -0.20912552947E+03 -0.10825213460E+03  0.27403763726E+03  0.12500000000E+03 0.  0.
          1    1    1    2  501    0 -0.48698210166E+02  0.18754222573E+03  0.74091586859E+03  0.76583283192E+03  0.00000000000E+00 0. -1.
         -1    1    1    2    0  503 -0.14702222894E+02  0.21583303741E+02  0.44589174694E+03  0.44665584553E+03  0.00000000000E+00 0.  1.
<mgrwt>
<rscale>  4 0.24961012E+03</rscale>
<asrwt>0</asrwt>
<pdfrwt beam="1">  1       21 0.19731398E+00 0.24961012E+03</pdfrwt>
<pdfrwt beam="2">  1       21 0.31382373E-01 0.24961012E+03</pdfrwt>
<totfact> 0.12902384E+03</totfact>
</mgrwt>
</event>
<event>
 5    0  0.1972558E-002  0.2490828E+03  0.7546771E-02  0.1113886E+00
         21   -1    0    0  503  502  0.00000000000E+00  0.00000000000E+00  0.14584228887E+03  0.14584228887E+03  0.00000000000E+00 0. -1.
         21   -1    0    0  501  503 -0.00000000000E+00 -0.00000000000E+00 -0.10127646605E+04  0.10127646605E+04  0.00000000000E+00 0. -1.
         25    1    1    2    0    0 -0.48588573473E+01 -0.25874776686E+03 -0.64585920193E+03  0.70691804621E+03  0.12500000000E+03 0.  0.
          2    1    1    2  501    0 -0.12321581660E+03  0.11581270007E+03 -0.14487907772E+02  0.16971923412E+03  0.00000000000E+00 0.  1.
         -2    1    1    2    0  502  0.12807467394E+03  0.14293506679E+03 -0.20657526198E+03  0.28196966909E+03  0.00000000000E+00 0. -1.
<mgrwt>
<rscale>  4 0.24908284E+03</rscale>
<asrwt>0</asrwt>
<pdfrwt beam="1">  1       21 0.22437275E-01 0.24908284E+03</pdfrwt>
<pdfrwt beam="2">  1       21 0.15580995E+00 0.24908284E+03</pdfrwt>
<totfact> 0.48135614E+03</totfact>
</mgrwt>
</event>
<event>
 5    0  0.1972558E-002  0.3080948E+03  0.7546771E-02  0.1081263E+00
         21   -1    0    0  503  502  0.00000000000E+00  0.00000000000E+00  0.83142893055E+03  0.83142893055E+03  0.00000000000E+00 0.  1.
         21   -1    0    0  501  503 -0.00000000000E+00 -0.00000000000E+00 -0.13938955987E+03  0.13938955987E+03  0.00000000000E+00 0.  1.
         25    1    1    2    0    0  0.74769247529E+02  0.26128088352E+03  0.15116434305E+03  0.33516234735E+03  0.12500000000E+03 0.  0.
          3    1    1    2  501    0 -0.24208895668E+02  0.20057768487E+02  0.10480235432E+02  0.33139403145E+02  0.00000000000E+00 0. -1.
         -3    1    1    2    0  502 -0.50560351862E+02 -0.28133865201E+03  0.53039479221E+03  0.60251673993E+03  0.00000000000E+00 0.  1.
<mgrwt>
<rscale>  4 0.30809482E+03</rscale>
<asrwt>0</asrwt>
<pdfrwt beam="1">  1       21 0.12791214E+00 0.30809482E+03</pdfrwt>
<pdfrwt beam="2">  1       21 0.21444548E-01 0.30809482E+03</pdfrwt>
<totfact> 0.85078390E+03</totfact>
</mgrwt>
</event>
<event>
 5    0  0.1972558E-002  0.1976100E+03  0.7546771E-02  0.1151771E+00
         21   -1    0    0  501  502  0.00000000000E+00  0.00000000000E+00  0.39601337930E+03  0.39601337930E+03  0.00000000000E+00 0.  1.
         21   -1    0    0  502  503 -0.00000000000E+00 -0.00000000000E+00 -0.17880325113E+03  0.17880325113E+03  0.00000000000E+00 0.  1.
         25    1    1    2    0    0 -0.19765395700E+03 -0.68255876068E+02  0.44392871630E+02  0.24763214328E+03  0.12500000000E+03 0.  0.
          1    1    1    2  501    0  0.77338848542E+02  0.10817419301E+03  0.30181147509E+02  0.13635928715E+03  0.00000000000E+00 0.  1.
         -1    1    1    2    0  503  0.12031510846E+03 -0.39918316943E+02  0.14263610903E+03  0.19082519999E+03  0.00000000000E+00 0. -1.
<mgrwt>
<rscale>  4 0.19760996E+03</rscale>
<asrwt>0</asrwt>
<pdfrwt beam="1">  1       21 0.60925135E-01 0.19760996E+03</pdfrwt>
<pdfrwt beam="2">  1       21 0.27508193E-01 0.19760996E+03</pdfrwt>
<totfact> 0.31526876E+04</totfact>
</mgrwt>
</event>
<event>
 5    0  0.1972558E-002  0.2173249E+03  0.7546771E-02  0.1135893E+00
         21   -1    0    0  503  502  0.00000000000E+00  0.00000000000E+00  0.82007766075E+03  0.82007766075E+03  0.00000000000E+00 0.  1.
         21   -1    0    0  501  503 -0.00000000000E+00 -0.00000000000E+00 -0.96911326523E+02  0.96911326523E+02  0.00000000000E+00 0.  1.
         25    1    1    2    0    0 -0.48805142309E+02  0.21520253420E+03  0.16606431430E+03  0.30314423815E+03  0.12500000000E+03 0.  0.
          1    1    1    2  501    0 -0.31733921922E+02 -0.65626696191E+02  0.84286794785E+02  0.11143683784E+03  0.00000000000E+00 0. -1.
         -1    1    1    2    0  502  0.80539064231E+02 -0.14957583801E+03  0.47281522515E+03  0.50240791128E+03  0.00000000000E+00 0.  1.
<mgrwt>
<rscale>  4 0.21732495E+03</rscale>
<asrwt>0</asrwt>
<pdfrwt beam="1">  1       21 0.12616579E+00 0.21732495E+03</pdfrwt>
<pdfrwt beam="2">  1       21 0.14909435E-01 0.21732495E+03</pdfrwt>
<totfact> 0.18196278E+04</totfact>
</mgrwt>
</event>
<event>
 5    0  0.1972558E-002  0.2696772E+03  0.7546771E-02  0.1101464E+00
         21   -1    0    0  503  502  0.00000000000E+00  0.00000000000E+00  0.25834580324E+03  0.25834580324E+03  0.00000000000E+00 0.  1.
         21   -1    0    0  501  503 -0.00000000000E+00 -0.00000000000E+00 -0.30773915429E+04  0.30773915429E+04  0.00000000000E+00 0. -1.
         25    1    1    2    0    0 -0.13999002548E+03  0.19324629893E+03 -0.29551380553E+04  0.29673906492E+04  0.12500000000E+03 0.  0.
          2    1    1    2  501    0  0.25725962018E+02  0.35258314971E+02 -0.39075073772E+02  0.58581868241E+02  0.00000000000E+00 0. -1.
         -2    1    1    2    0  502  0.11426406346E+03 -0.22850461390E+03  0.17516738941E+03  0.30976482868E+03  0.00000000000E+00 0.  1.
<mgrwt>
<rscale>  4 0.26967725E+03</rscale>
<asrwt>0</asrwt>
<pdfrwt beam="1">  1       21 0.39745510E-01 0.26967725E+03</pdfrwt>
<pdfrwt beam="2">  1       21 0.47344483E+00 0.26967725E+03</pdfrwt>
<totfact> 0.15431241E+01</totfact>
</mgrwt>
</event>
<event>
 5    0  0.1972558E-002  0.4635224E+03  0.7546771E-02  0.1024822E+00
         21   -1    0    0  501  502  0.00000000000E+00  0.00000000000E+00  0.43169945175E+03  0.43169945175E+03  0.00000000000E+00 0. -1.
         21   -1    0    0  502  503 -0.00000000000E+00 -0.00000000000E+00 -0.17073319998E+04  0.17073319998E+04  0.00000000000E+00 0. -1.
         25    1    1    2    0    0 -0.32651377346E+03  0.28178059820E+03 -0.15408838860E+04  0.16049796572E+04  0.12500000000E+03 0.  0.
          1    1    1    2  501    0  0.21478447019E+03 -0.22973221958E+03  0.26427124483E+03  0.41079015591E+03  0.00000000000E+00 0. -1.
         -1    1    1    2    0  503  0.11172930326E+03 -0.52048378623E+02  0.98009317554E+00  0.12326163843E+03  0.00000000000E+00 0.  1.
<mgrwt>
<rscale>  4 0.45985851E+03</rscale>
<asrwt>0</asrwt>
<pdfrwt beam="1">  1       21 0.66415301E-01 0.46352243E+03</pdfrwt>
<pdfrwt beam="2">  1       21 0.26266646E+00 0.46352243E+03</pdfrwt>
<totfact> 0.90260745E+01</totfact>
</mgrwt>
</event>
<event>
 5    0  0.1972558E-002  0.3714869E+03  0.7546771E-02  0.1054126E+00
         21   -1    0    0  501  502  0.00000000000E+00  0.00000000000E+00  0.29777908974E+04  0.29777908974E+04  0.00000000000E+00 0. -1.
         21   -1    0    0  502  503 -0.00000000000E+00 -0.00000000000E+00 -0.68326057472E+02  0.68326057472E+02  0.00000000000E+00 0. -1.
         25    1    1    2    0    0 -0.52469471006E+02 -0.34067644780E+03  0.75027118799E+03  0.83507205857E+03  0.12500000000E+03 0.  0.
          2    1    1    2  501    0  0.95632885257E+02  0.34658374054E+03  0.12465971110E+04  0.12974090701E+04  0.00000000000E+00 0. -1.
         -2    1    1    2    0  503 -0.43163414251E+02 -0.59072927400E+01  0.91259654091E+03  0.91363582620E+03  0.00000000000E+00 0.  1.
<mgrwt>
<rscale>  4 0.37148685E+03</rscale>
<asrwt>0</asrwt>
<pdfrwt beam="1">  1       21 0.45812158E+00 0.37148685E+03</pdfrwt>
<pdfrwt beam="2">  1       21 0.10511703E-01 0.37148685E+03</pdfrwt>
<totfact> 0.21985445E+02</totfact>
</mgrwt>
</event>
<event>
 5    0  0.1972558E-002  0.2149686E+03  0.7546771E-02  0.1137691E+00
         21   -1    0    0  503  502  0.00000000000E+00  0.00000000000E+00  0.10516578703E+04  0.10516578703E+04  0.00000000000E+00 0. -1.
         21   -1    0    0  501  503 -0.00000000000E+00 -0.00000000000E+00 -0.51333247116E+02  0.51333247116E+02  0.00000000000E+00 0.  1.
         25    1    1    2    0    0 -0.20037733918E+03 -0.22606456077E+01  0.41131660728E+03  0.47430216108E+03  0.12500000000E+03 0.  0.
          2    1    1    2  501    0  0.45564507053E+02 -0.12882050579E+02  0.26595101255E+03  0.27013332377E+03  0.00000000000E+00 0. -1.
         -2    1    1    2    0  502  0.15481283213E+03  0.15142696187E+02  0.32305700337E+03  0.35855563259E+03  0.00000000000E+00 0.  1.
<mgrwt>
<rscale>  4 0.21496857E+03</rscale>
<asrwt>0</asrwt>
<pdfrwt beam="1">  1       21 0.16179350E+00 0.21496857E+03</pdfrwt>
<pdfrwt beam="2">  1       21 0.78974234E-02 0.21496857E+03</pdfrwt>
<totfact> 0.29553171E+04</totfact>
</mgrwt>
</event>
<event>
 5    0  0.1972558E-002  0.2750622E+03  0.7546771E-02  0.1098417E+00
         21   -1    0    0  501  502  0.00000000000E+00  0.00000000000E+00  0.12192226144E+03  0.12192226144E+03  0.00000000000E+00 0.  1.
         21   -1    0    0  502  503 -0.00000000000E+00 -0.00000000000E+00 -0.98679164606E+03  0.98679164606E+03  0.00000000000E+00 0. -1.
         25    1    1    2    0    0 -0.17779271082E+03  0.13826897204E+03 -0.39274460182E+03  0.46968274283E+03  0.12500000000E+03 0.  0.
          4    1    1    2  501    0  0.26196328839E+03 -0.76573963292E+02 -0.45877759854E+03  0.53382133832E+03  0.00000000000E+00 0. -1.
         -4    1    1    2    0  503 -0.84170577571E+02 -0.61695008752E+02 -0.13347184262E+02  0.10520982635E+03  0.00000000000E+00 0.  1.
<mgrwt>
<rscale>  4 0.27506219E+03</rscale>
<asrwt>0</asrwt>
<pdfrwt beam="1">  1       21 0.18757272E-01 0.27506219E+03</pdfrwt>
<pdfrwt beam="2">  1       21 0.15181409E+00 0.27506219E+03</pdfrwt>
<totfact> 0.71192696E+03</totfact>
</mgrwt>
</event>
<event>
 5    0  0.1972558E-002  0.2870331E+03  0.7546771E-02  0.1091908E+00
         21   -1    0    0  501  502  0.00000000000E+00  0.00000000000E+00  0.39993824100E+03  0.39993824100E+03  0.00000000000E+00 0.  1.
         21   -1    0    0  502  503 -0.00000000000E+00 -0.00000000000E+00 -0.95347190715E+03  0.95347190715E+03  0.00000000000E+00 0.  1.
         25    1    1    2    0    0  0.48345126120E+02 -0.27619885347E+03 -0.59497493225E+03  0.66950969215E+03  0.12500000000E+03 0.  0.
          4    1    1    2  501    0 -0.13698001371E+02  0.45514122547E+02  0.31832278695E+03  0.32185177844E+03  0.00000000000E+00 0.  1.
         -4    1    1    2    0  503 -0.34647124750E+02  0.23068473092E+03 -0.27688152086E+03  0.36204867756E+03  0.00000000000E+00 0. -1.
<mgrwt>
<rscale>  4 0.28703308E+03</rscale>
<asrwt>0</asrwt>
<pdfrwt beam="1">  1       21 0.61528960E-01 0.28703308E+03</pdfrwt>
<pdfrwt beam="2">  1       21 0.14668799E+00 0.28703308E+03</pdfrwt>
<totfact> 0.71497960E+02</totfact>
</mgrwt>
</event>
<event>
 5    0  0.1972558E-002  0.3585258E+03  0.7546771E-02  0.1059169E+00
         21   -1    0    0  503  502  0.00000000000E+00  0.00000000000E+00  0.28111924005E+03  0.28111924005E+03  0.00000000000E+00 0.  1.
         21   -1    0    0  501  503 -0.00000000000E+00 -0.00000000000E+00 -0.50173154095E+03  0.50173154095E+03  0.00000000000E+00 0.  1.
         25    1    1    2    0    0  0.27923325518E+03  0.15746139853E+03 -0.99213421245E+02  0.35809720158E+03  0.12500000000E+03 0.  0.
          1    1    1    2  501    0  0.40953115874E+01  0.53031240226E+02 -0.25557595983E+02  0.59010801802E+02  0.00000000000E+00 0. -1.
         -1    1    1    2    0  502 -0.28332856677E+03 -0.21049263876E+03 -0.95841283672E+02  0.36574277761E+03  0.00000000000E+00 0.  1.
<mgrwt>
<rscale>  4 0.35852584E+03</rscale>
<asrwt>0</asrwt>
<pdfrwt beam="1">  1       21 0.43249115E-01 0.35852584E+03</pdfrwt>
<pdfrwt beam="2">  1       21 0.77189467E-01 0.35852584E+03</pdfrwt>
<totfact> 0.70042236E+03</totfact>
</mgrwt>
</event>
<event>
 5    0  0.1972558E-002  0.2281043E+03  0.7546771E-02  0.1127981E+00
         21   -1    0    0  501  502  0.00000000000E+00  0.00000000000E+00  0.66030746772E+03  0.66030746772E+03  0.00000000000E+00 0. -1.
         21   -1    0    0  502  503 -0.00000000000E+00 -0.00000000000E+00 -0.14910540497E+03  0.14910540497E+03  0.00000000000E+00 0.  1.
         25    1    1    2    0    0 -0.70734733616E+02  0.18855240414E+03 -0.98887827907E+01  0.23723026719E+03  0.12500000000E+03 0.  0.
          1    1    1    2  501    0  0.96617505898E+02 -0.13464467114E+03  0.29547777379E+03  0.33877905000E+03  0.00000000000E+00 0. -1.
         -1    1    1    2    0  503 -0.25882772281E+02 -0.53907732999E+02  0.22561307175E+03  0.23340355551E+03  0.00000000000E+00 0.  1.
<mgrwt>
<rscale>  4 0.22810427E+03</rscale>
<asrwt>0</asrwt>
<pdfrwt beam="1">  1       21 0.10158576E+00 0.22810427E+03</pdfrwt>
<pdfrwt beam="2">  1       21 0.22939293E-01 0.22810427E+03</pdfrwt>
<totfact> 0.13791127E+04</totfact>
</mgrwt>
</event>
<event>
 5    0  0.1972558E-002  0.2784285E+03  0.7546771E-02  0.1096550E+00
         21   -1    0    0  501  502  0.00000000000E+00  0.00000000000E+00  0.14531755609E+03  0.14531755609E+03  0.00000000000E+00 0.  1.
         21   -1    0    0  502  503 -0.00000000000E+00 -0.00000000000E+00 -0.94494450374E+03  0.94494450374E+03  0.00000000000E+00 0.  1.
         25    1    1    2    0    0  0.26895602478E+03 -0.31541152097E+02 -0.13968837627E+03  0.32934788599E+03  0.12500000000E+03 0.  0.
          3    1    1    2  501    0 -0.17657429513E+03  0.13975660975E+03 -0.49004399135E+03  0.53930835811E+03  0.00000000000E+00 0.  1.
         -3    1    1    2    0  503 -0.92381729643E+02 -0.10821545765E+03 -0.16989458002E+03  0.22160581573E+03  0.00000000000E+00 0. -1.
<mgrwt>
<rscale>  4 0.27842854E+03</rscale>
<asrwt>0</asrwt>
<pdfrwt beam="1">  1       21 0.22356548E-01 0.27842854E+03</pdfrwt>
<pdfrwt beam="2">  1       21 0.14537607E+00 0.27842854E+03</pdfrwt>
<totfact> 0.57244977E+03</totfact>
</mgrwt>
</event>
