<event>
 5    0  0.2159162E+000  0.2336896E+03  0.7546771E-02  0.1124069E+00
         21   -1    0    0  502  501  0.00000000000E+00  0.00000000000E+00  0.71709507903E+03  0.71709507903E+03  0.00000000000E+00 0.  1.
         21   -1    0    0  503  502 -0.00000000000E+00 -0.00000000000E+00 -0.14143859593E+03  0.14143859593E+03  0.00000000000E+00 0. -1.
         25    1    1    2    0    0  0.15049356899E+03  0.18563529959E+03  0.50815400221E+03  0.57528624938E+03  0.12500000000E+03 0.  0.
         21    1    1    2  503  504 -0.31786023320E+02 -0.14268340388E+03  0.55792191348E+02  0.15646620605E+03  0.00000000000E+00 0. -1.
         21    1    1    2  504  501 -0.11870754567E+03 -0.42951895714E+02  0.11710289535E+02  0.12678121953E+03  0.00000000000E+00 0. -1.
<mgrwt>
<rscale>  4 0.23368964E+03</rscale>
<asrwt>0</asrwt>
<pdfrwt beam="1">  1       21 0.11032232E+00 0.23368964E+03</pdfrwt>
<pdfrwt beam="2">  1       21 0.21759784E-01 0.23368964E+03</pdfrwt>
<totfact> 0.12445214E+04</totfact>
</mgrwt>
</event>
<event>
 5    0  0.2159162E+000  0.2440633E+03  0.7546771E-02  0.1117115E+00
         21   -1    0    0  502  501  0.00000000000E+00  0.00000000000E+00  0.21513482618E+03  0.21513482618E+03  0.00000000000E+00 0. -1.
         21   -1    0    0  503  502 -0.00000000000E+00 -0.00000000000E+00 -0.25894729506E+03  0.25894729506E+03  0.00000000000E+00 0. -1.
         25    1    1    2    0    0  0.19979270670E+03 -0.63441048957E+02 -0.50973005997E+02  0.24932937990E+03  0.12500000000E+03 0.  0.
         21    1    1    2  503  504 -0.13501140081E+03  0.24984174485E+02 -0.30314710188E+02  0.14061034449E+03  0.00000000000E+00 0. -1.
         21    1    1    2  504  501 -0.64781305890E+02  0.38456874472E+02  0.37475247304E+02  0.84142396849E+02  0.00000000000E+00 0. -1.
<mgrwt>
<rscale>  4 0.24406330E+03</rscale>
<asrwt>0</asrwt>
<pdfrwt beam="1">  1       21 0.33097666E-01 0.24406330E+03</pdfrwt>
<pdfrwt beam="2">  1       21 0.39838045E-01 0.24406330E+03</pdfrwt>
<totfact> 0.52171901E+04</totfact>
</mgrwt>
</event>
<event>
 5    0  0.2159162E+000  0.4671527E+03  0.7546771E-02  0.1022727E+00
         21   -1    0    0  502  501  0.00000000000E+00  0.00000000000E+00  0.42366813941E+03  0.42366813941E+03  0.00000000000E+00 0.  1.
         21   -1    0    0  503  502 -0.00000000000E+00 -0.00000000000E+00 -0.51881329146E+03  0.51881329146E+03  0.00000000000E+00 0.  1.
         25    1    1    2    0    0  0.52659100509E+02  0.44702755983E+03 -0.10212401118E+03  0.47818504135E+03  0.12500000000E+03 0.  0.
         21    1    1    2  503  504 -0.29162743015E+02 -0.37604309587E+03 -0.34574685295E+02  0.37875359325E+03  0.00000000000E+00 0.  1.
         21    1    1    2  504  501 -0.23496357494E+02 -0.70984463959E+02  0.41553544430E+02  0.85542796270E+02  0.00000000000E+00 0. -1.
<mgrwt>
<rscale>  4 0.46715267E+03</rscale>
<asrwt>0</asrwt>
<pdfrwt beam="1">  1       21 0.65179714E-01 0.46715267E+03</pdfrwt>
<pdfrwt beam="2">  1       21 0.79817429E-01 0.46715267E+03</pdfrwt>
<totfact> 0.25844898E+03</totfact>
</mgrwt>
</event>
<event>
 5    0  0.2478610E+000  0.2786230E+03  0.7546771E-02  0.1096443E+00
         21   -1    0    0  502  501  0.00000000000E+00  0.00000000000E+00  0.12249853960E+04  0.12249853960E+04  0.00000000000E+00 0.  1.
         21   -1    0    0  503  502 -0.00000000000E+00 -0.00000000000E+00 -0.69447233428E+02  0.69447233428E+02  0.00000000000E+00 0.  1.
         25    1    1    2    0    0 -0.10957356671E+03 -0.23792567499E+03  0.60695446727E+03  0.67278058732E+03  0.12500000000E+03 0.  0.
         21    1    1    2  503  504 -0.28174161663E+02  0.41646246697E+02  0.68044237911E+02  0.84606214679E+02  0.00000000000E+00 0.  1.
         21    1    1    2  504  501  0.13774772837E+03  0.19627942829E+03  0.48053945734E+03  0.53704582738E+03  0.00000000000E+00 0.  1.
<mgrwt>
<rscale>  4 0.27862296E+03</rscale>
<asrwt>0</asrwt>
<pdfrwt beam="1">  1       21 0.18845928E+00 0.27862296E+03</pdfrwt>
<pdfrwt beam="2">  1       21 0.10684191E-01 0.27862296E+03</pdfrwt>
<totfact> 0.10862056E+04</totfact>
</mgrwt>
</event>
<event>
 5    0  0.2159162E+000  0.2417479E+03  0.7546771E-02  0.1118634E+00
         21   -1    0    0  502  501  0.00000000000E+00  0.00000000000E+00  0.13208128178E+04  0.13208128178E+04  0.00000000000E+00 0. -1.
         21   -1    0    0  503  502 -0.00000000000E+00 -0.00000000000E+00 -0.13552948460E+03  0.13552948460E+03  0.00000000000E+00 0. -1.
         25    1    1    2    0    0 -0.22192462724E+03  0.16063379177E+02  0.11699585778E+04  0.11974709375E+04  0.12500000000E+03 0.  0.
         21    1    1    2  503  504  0.11815480465E+03 -0.72467957389E+02 -0.65127896665E+01  0.13876087035E+03  0.00000000000E+00 0. -1.
         21    1    1    2  504  501  0.10376982258E+03  0.56404578212E+02  0.21837545000E+02  0.12011049452E+03  0.00000000000E+00 0. -1.
<mgrwt>
<rscale>  4 0.24174788E+03</rscale>
<asrwt>0</asrwt>
<pdfrwt beam="1">  1       21 0.20320196E+00 0.24174788E+03</pdfrwt>
<pdfrwt beam="2">  1       21 0.20850691E-01 0.24174788E+03</pdfrwt>
<totfact> 0.26140749E+03</totfact>
</mgrwt>
</event>
<event>
 5    0  0.2159162E+000  0.2635521E+03  0.7546771E-02  0.1105028E+00
         21   -1    0    0  502  501  0.00000000000E+00  0.00000000000E+00  0.22117582921E+04  0.22117582921E+04  0.00000000000E+00 0.  1.
         21   -1    0    0  503  502 -0.00000000000E+00 -0.00000000000E+00 -0.14035762508E+03  0.14035762508E+03  0.00000000000E+00 0.  1.
         25    1    1    2    0    0  0.16361431825E+03  0.18759139597E+03  0.18443659278E+04  0.18652803684E+04  0.12500000000E+03 0.  0.
         21    1    1    2  503  504 -0.21779905129E+03 -0.81992985806E+02  0.23551767843E+01  0.23273337389E+03  0.00000000000E+00 0.  1.
         21    1    1    2  504  501  0.54184733048E+02 -0.10559841017E+03  0.22467956250E+03  0.25410217498E+03  0.00000000000E+00 0.  1.
<mgrwt>
<rscale>  4 0.26355205E+03</rscale>
<asrwt>0</asrwt>
<pdfrwt beam="1">  1       21 0.34027048E+00 0.26355205E+03</pdfrwt>
<pdfrwt beam="2">  1       21 0.21593482E-01 0.26355205E+03</pdfrwt>
<totfact> 0.36300038E+02</totfact>
</mgrwt>
</event>
<event>
 5    0  0.2159162E+000  0.3096296E+03  0.7546771E-02  0.1080524E+00
         21   -1    0    0  502  501  0.00000000000E+00  0.00000000000E+00  0.12470955614E+03  0.12470955614E+03  0.00000000000E+00 0. -1.
         21   -1    0    0  503  502 -0.00000000000E+00 -0.00000000000E+00 -0.73522836937E+03  0.73522836937E+03  0.00000000000E+00 0.  1.
         25    1    1    2    0    0  0.27737885389E+03  0.57501665870E+02 -0.33703205081E+03  0.45766917466E+03  0.12500000000E+03 0.  0.
         21    1    1    2  503  504 -0.88288823465E+02  0.15646585142E+02 -0.60222652016E+02  0.10801157249E+03  0.00000000000E+00 0.  1.
         21    1    1    2  504  501 -0.18909003042E+03 -0.73148251012E+02 -0.21326411040E+03  0.29425717836E+03  0.00000000000E+00 0.  1.
<mgrwt>
<rscale>  4 0.30962957E+03</rscale>
<asrwt>0</asrwt>
<pdfrwt beam="1">  1       21 0.19186085E-01 0.30962957E+03</pdfrwt>
<pdfrwt beam="2">  1       21 0.11311206E+00 0.30962957E+03</pdfrwt>
<totfact> 0.14291098E+04</totfact>
</mgrwt>
</event>
<event>
 5    0  0.4234260E+000  0.2462468E+03  0.7546771E-02  0.1115700E+00
         21   -1    0    0  502  501  0.00000000000E+00  0.00000000000E+00  0.21522822511E+03  0.21522822511E+03  0.00000000000E+00 0. -1.
         21   -1    0    0  503  502 -0.00000000000E+00 -0.00000000000E+00 -0.26000755847E+03  0.26000755847E+03  0.00000000000E+00 0. -1.
         25    1    1    2    0    0  0.85885098205E+02 -0.19400062548E+03  0.24357855860E+02  0.24744857632E+03  0.12500000000E+03 0.  0.
         21    1    1    2  503  504 -0.16445376964E+02  0.43562083824E+02  0.38722625868E+01  0.46723655552E+02  0.00000000000E+00 0.  1.
         21    1    1    2  504  501 -0.69439721241E+02  0.15043854166E+03 -0.73009451813E+02  0.18106355171E+03  0.00000000000E+00 0. -1.
<mgrwt>
<rscale>  4 0.24624681E+03</rscale>
<asrwt>0</asrwt>
<pdfrwt beam="1">  1       21 0.33112035E-01 0.24624681E+03</pdfrwt>
<pdfrwt beam="2">  1       21 0.40001163E-01 0.24624681E+03</pdfrwt>
<totfact> 0.51651227E+04</totfact>
</mgrwt>
</event>
<event>
 5    0  0.2159162E+000  0.2493552E+03  0.7546771E-02  0.1113713E+00
         21   -1    0    0  502  501  0.00000000000E+00  0.00000000000E+00  0.10124214492E+03  0.10124214492E+03  0.00000000000E+00 0. -1.
         21   -1    0    0  503  502 -0.00000000000E+00 -0.00000000000E+00 -0.90002140203E+03  0.90002140203E+03  0.00000000000E+00 0. -1.
         25    1    1    2    0    0  0.62506140553E+02  0.20650902894E+03 -0.10731444771E+03  0.27146710174E+03  0.12500000000E+03 0.  0.
         21    1    1    2  503  504 -0.67896200825E+02 -0.11279272061E+03 -0.30699744789E+03  0.33403521509E+03  0.00000000000E+00 0. -1.
         21    1    1    2  504  501  0.53900602716E+01 -0.93716308331E+02 -0.38446736151E+03  0.39576123012E+03  0.00000000000E+00 0. -1.
<mgrwt>
<rscale>  4 0.24935516E+03</rscale>
<asrwt>0</asrwt>
<pdfrwt beam="1">  1       21 0.15575715E-01 0.24935516E+03</pdfrwt>
<pdfrwt beam="2">  1       21 0.13846483E+00 0.24935516E+03</pdfrwt>
<totfact> 0.13000520E+04</totfact>
</mgrwt>
</event>
<event>
 5    0  0.2159162E+000  0.2603339E+03  0.7546771E-02  0.1106943E+00
         21   -1    0    0  502  501  0.00000000000E+00  0.00000000000E+00  0.18807235371E+03  0.18807235371E+03  0.00000000000E+00 0. -1.
         21   -1    0    0  503  502 -0.00000000000E+00 -0.00000000000E+00 -0.39909884322E+03  0.39909884322E+03  0.00000000000E+00 0.  1.
         25    1    1    2    0    0  0.24023120651E+03  0.44903306288E+02 -0.16892784117E+03  0.32231809602E+03  0.12500000000E+03 0.  0.
         21    1    1    2  503  504 -0.20551836293E+03 -0.53074257244E+02 -0.65573275035E+02  0.22215879160E+03  0.00000000000E+00 0.  1.
         21    1    1    2  504  501 -0.34712843580E+02  0.81709509558E+01  0.23474626704E+02  0.42694309314E+02  0.00000000000E+00 0.  1.
<mgrwt>
<rscale>  4 0.26033388E+03</rscale>
<asrwt>0</asrwt>
<pdfrwt beam="1">  1       21 0.28934208E-01 0.26033388E+03</pdfrwt>
<pdfrwt beam="2">  1       21 0.61399822E-01 0.26033388E+03</pdfrwt>
<totfact> 0.27249498E+04</totfact>
</mgrwt>
</event>
