<event>
 5    0  0.2349231E+000  0.5532693E+03  0.7546771E-02  0.1000740E+00
         21   -1    0    0  503  501  0.00000000000E+00  0.00000000000E+00  0.23087520509E+03  0.23087520509E+03  0.00000000000E+00 0. -1.
         21   -1    0    0  504  502 -0.00000000000E+00 -0.00000000000E+00 -0.11593030192E+04  0.11593030192E+04  0.00000000000E+00 0. -1.
         25    1    1    2    0    0  0.21905866732E+03 -0.10972116035E+03 -0.85827499992E+03  0.90126933169E+03  0.12500000000E+03 0.  0.
         21    1    1    2  503  502 -0.17564824488E+03 -0.90966605116E+02  0.10054443736E+03  0.22189279632E+03  0.00000000000E+00 0. -1.
         21    1    1    2  504  501 -0.43410422441E+02  0.20068776547E+03 -0.17069725155E+03  0.26701609628E+03  0.00000000000E+00 0.  1.
<mgrwt>
<rscale>  4 0.55326933E+03</rscale>
<asrwt>0</asrwt>
<pdfrwt beam="1">  1       21 0.35519263E-01 0.55326933E+03</pdfrwt>
<pdfrwt beam="2">  1       21 0.17835431E+00 0.55326933E+03</pdfrwt>
<totfact> 0.11545419E+03</totfact>
</mgrwt>
</event>
<event>
 5    0  0.2349231E+000  0.5271028E+03  0.7546771E-02  0.1006937E+00
         21   -1    0    0  504  501  0.00000000000E+00  0.00000000000E+00  0.94422359249E+03  0.94422359249E+03  0.00000000000E+00 0.  1.
         21   -1    0    0  503  502 -0.00000000000E+00 -0.00000000000E+00 -0.11299385752E+03  0.11299385752E+03  0.00000000000E+00 0.  1.
         25    1    1    2    0    0  0.12242608931E+03  0.21821933730E+03  0.21245085554E+03  0.35123808526E+03  0.12500000000E+03 0.  0.
         21    1    1    2  503  501 -0.10179417751E+03 -0.21809559795E+03  0.29136947545E+03  0.37792051498E+03  0.00000000000E+00 0.  1.
         21    1    1    2  504  502 -0.20631911796E+02 -0.12373935284E+00  0.32740940398E+03  0.32805884977E+03  0.00000000000E+00 0.  1.
<mgrwt>
<rscale>  4 0.52710278E+03</rscale>
<asrwt>0</asrwt>
<pdfrwt beam="1">  1       21 0.14526516E+00 0.52710278E+03</pdfrwt>
<pdfrwt beam="2">  1       21 0.17383671E-01 0.52710278E+03</pdfrwt>
<totfact> 0.83781944E+03</totfact>
</mgrwt>
</event>
<event>
 5    0  0.2349231E+000  0.5856909E+03  0.7546771E-02  0.9935546E-01
         21   -1    0    0  503  501  0.00000000000E+00  0.00000000000E+00  0.16839687318E+03  0.16839687318E+03  0.00000000000E+00 0. -1.
         21   -1    0    0  504  502 -0.00000000000E+00 -0.00000000000E+00 -0.55297994449E+03  0.55297994449E+03  0.00000000000E+00 0. -1.
         25    1    1    2    0    0 -0.23973898896E+02 -0.24278150568E+03 -0.31768809697E+03  0.41960497410E+03  0.12500000000E+03 0.  0.
         21    1    1    2  503  502  0.17119849430E+02  0.26632355975E+03 -0.48799903194E+02  0.27129828285E+03  0.00000000000E+00 0. -1.
         21    1    1    2  504  501  0.68540494654E+01 -0.23542054073E+02 -0.18095071135E+02  0.30473560728E+02  0.00000000000E+00 0. -1.
<mgrwt>
<rscale>  4 0.58569092E+03</rscale>
<asrwt>0</asrwt>
<pdfrwt beam="1">  1       21 0.25907212E-01 0.58569092E+03</pdfrwt>
<pdfrwt beam="2">  1       21 0.85073836E-01 0.58569092E+03</pdfrwt>
<totfact> 0.14710294E+04</totfact>
</mgrwt>
</event>
