<event>
 5    0  0.1257040E+001  0.3032791E+03  0.7546771E-02  0.1083613E+00
         21   -1    0    0  504  501  0.00000000000E+00  0.00000000000E+00  0.13233798071E+04  0.13233798071E+04  0.00000000000E+00 0.  1.
         21   -1    0    0  503  502 -0.00000000000E+00 -0.00000000000E+00 -0.47702919306E+03  0.47702919306E+03  0.00000000000E+00 0. -1.
         25    1    1    2    0    0 -0.15023287391E+03 -0.13889756267E+03  0.19489392425E+03  0.30898396565E+03  0.12500000000E+03 0.  0.
         21    1    1    2  503  501  0.19645067946E+03  0.21447055016E+03 -0.36747756888E+03  0.46864725538E+03  0.00000000000E+00 0. -1.
         21    1    1    2  504  502 -0.46217805556E+02 -0.75572987490E+02  0.10189342586E+04  0.10227777791E+04  0.00000000000E+00 0.  1.
<mgrwt>
<rscale>  4 0.30327909E+03</rscale>
<asrwt>0</asrwt>
<pdfrwt beam="1">  1       21 0.20359689E+00 0.30327909E+03</pdfrwt>
<pdfrwt beam="2">  1       21 0.73389107E-01 0.30327909E+03</pdfrwt>
<totfact> 0.18886283E+02</totfact>
</mgrwt>
</event>
<event>
 5    0  0.1257040E+001  0.2229046E+03  0.7546771E-02  0.1131736E+00
         21   -1    0    0  502  501  0.00000000000E+00  0.00000000000E+00  0.21210848572E+03  0.21210848572E+03  0.00000000000E+00 0. -1.
         21   -1    0    0  504  502 -0.00000000000E+00 -0.00000000000E+00 -0.37219274462E+03  0.37219274462E+03  0.00000000000E+00 0. -1.
         25    1    1    2    0    0 -0.16691944892E+03 -0.12529554186E+03  0.38579408598E+02  0.24632183421E+03  0.12500000000E+03 0.  0.
         21    1    1    2  503  501  0.10785148407E+03  0.12160114726E+03 -0.38224999336E+02  0.16697284871E+03  0.00000000000E+00 0. -1.
         21    1    1    2  504  503  0.59067964849E+02  0.36943946074E+01 -0.16043866816E+03  0.17100654743E+03  0.00000000000E+00 0.  1.
<mgrwt>
<rscale>  4 0.22290464E+03</rscale>
<asrwt>0</asrwt>
<pdfrwt beam="1">  1       21 0.32632075E-01 0.22290464E+03</pdfrwt>
<pdfrwt beam="2">  1       21 0.57260422E-01 0.22290464E+03</pdfrwt>
<totfact> 0.25453242E+04</totfact>
</mgrwt>
</event>
<event>
 5    0  0.1257040E+001  0.2532473E+03  0.7546771E-02  0.1111270E+00
         21   -1    0    0  502  501  0.00000000000E+00  0.00000000000E+00  0.25907939547E+03  0.25907939547E+03  0.00000000000E+00 0.  1.
         21   -1    0    0  504  502 -0.00000000000E+00 -0.00000000000E+00 -0.74185271472E+03  0.74185271472E+03  0.00000000000E+00 0.  1.
         25    1    1    2    0    0  0.24305612569E+03 -0.19755845381E+03  0.32120607525E+02  0.33876593149E+03  0.12500000000E+03 0.  0.
         21    1    1    2  503  501 -0.88652844901E+02  0.55199780805E+02  0.17710485440E+01  0.10444845295E+03  0.00000000000E+00 0.  1.
         21    1    1    2  504  503 -0.15440328079E+03  0.14235867301E+03 -0.51666497532E+03  0.55771772576E+03  0.00000000000E+00 0.  1.
<mgrwt>
<rscale>  4 0.25324732E+03</rscale>
<asrwt>0</asrwt>
<pdfrwt beam="1">  1       21 0.39858369E-01 0.25324732E+03</pdfrwt>
<pdfrwt beam="2">  1       21 0.11413119E+00 0.25324732E+03</pdfrwt>
<totfact> 0.34605845E+03</totfact>
</mgrwt>
</event>
<event>
 5    0  0.1257040E+001  0.3032670E+03  0.7546771E-02  0.1083619E+00
         21   -1    0    0  502  501  0.00000000000E+00  0.00000000000E+00  0.50252703203E+03  0.50252703203E+03  0.00000000000E+00 0. -1.
         21   -1    0    0  504  502 -0.00000000000E+00 -0.00000000000E+00 -0.23097329196E+03  0.23097329196E+03  0.00000000000E+00 0. -1.
         25    1    1    2    0    0 -0.71627075350E+01  0.31178102794E+03  0.11780846014E+03  0.35603728322E+03  0.12500000000E+03 0.  0.
         21    1    1    2  503  501 -0.92981246538E+01 -0.25644182052E+03  0.18059589367E+03  0.31378932303E+03  0.00000000000E+00 0. -1.
         21    1    1    2  504  503  0.16460832189E+02 -0.55339207415E+02 -0.26850613740E+02  0.63673717749E+02  0.00000000000E+00 0.  1.
<mgrwt>
<rscale>  4 0.30326696E+03</rscale>
<asrwt>0</asrwt>
<pdfrwt beam="1">  1       21 0.77311851E-01 0.30326696E+03</pdfrwt>
<pdfrwt beam="2">  1       21 0.35534353E-01 0.30326696E+03</pdfrwt>
<totfact> 0.10666278E+04</totfact>
</mgrwt>
</event>
<event>
 5    0  0.1257040E+001  0.3168335E+03  0.7546771E-02  0.1077116E+00
         21   -1    0    0  503  501  0.00000000000E+00  0.00000000000E+00  0.16142847140E+03  0.16142847140E+03  0.00000000000E+00 0.  1.
         21   -1    0    0  501  502 -0.00000000000E+00 -0.00000000000E+00 -0.63968810738E+03  0.63968810738E+03  0.00000000000E+00 0.  1.
         25    1    1    2    0    0 -0.29183118783E+03  0.18463108331E+02 -0.16402431520E+03  0.35782021259E+03  0.12500000000E+03 0.  0.
         21    1    1    2  503  504  0.28797072270E+03 -0.39339507902E+02 -0.30020405345E+03  0.41784830707E+03  0.00000000000E+00 0.  1.
         21    1    1    2  504  502  0.38604651263E+01  0.20876399571E+02 -0.14031267325E+02  0.25448059116E+02  0.00000000000E+00 0.  1.
<mgrwt>
<rscale>  4 0.31683350E+03</rscale>
<asrwt>0</asrwt>
<pdfrwt beam="1">  1       21 0.24835149E-01 0.31683350E+03</pdfrwt>
<pdfrwt beam="2">  1       21 0.98413556E-01 0.31683350E+03</pdfrwt>
<totfact> 0.12231923E+04</totfact>
</mgrwt>
</event>
<event>
 5    0  0.1257040E+001  0.2185851E+03  0.7546771E-02  0.1134942E+00
         21   -1    0    0  502  501  0.00000000000E+00  0.00000000000E+00  0.53978727618E+03  0.53978727618E+03  0.00000000000E+00 0. -1.
         21   -1    0    0  504  502 -0.00000000000E+00 -0.00000000000E+00 -0.15831983466E+03  0.15831983466E+03  0.00000000000E+00 0. -1.
         25    1    1    2    0    0  0.52429089059E+02  0.24106959805E+03  0.15753416537E+03  0.31828505108E+03  0.12500000000E+03 0.  0.
         21    1    1    2  503  501 -0.91081282948E+02 -0.13223760291E+03  0.20871235541E+03  0.26333140911E+03  0.00000000000E+00 0. -1.
         21    1    1    2  504  503  0.38652193889E+02 -0.10883199514E+03  0.15220920739E+02  0.11649065064E+03  0.00000000000E+00 0. -1.
<mgrwt>
<rscale>  4 0.21858510E+03</rscale>
<asrwt>0</asrwt>
<pdfrwt beam="1">  1       21 0.83044196E-01 0.21858510E+03</pdfrwt>
<pdfrwt beam="2">  1       21 0.24356898E-01 0.21858510E+03</pdfrwt>
<totfact> 0.19807204E+04</totfact>
</mgrwt>
</event>
<event>
 5    0  0.1257040E+001  0.3917204E+03  0.7546771E-02  0.1046685E+00
         21   -1    0    0  504  501  0.00000000000E+00  0.00000000000E+00  0.21461818944E+03  0.21461818944E+03  0.00000000000E+00 0.  1.
         21   -1    0    0  503  502 -0.00000000000E+00 -0.00000000000E+00 -0.12715751176E+04  0.12715751176E+04  0.00000000000E+00 0.  1.
         25    1    1    2    0    0  0.44287056128E+03 -0.42252910906E+01 -0.66279535203E+03  0.80689210295E+03  0.12500000000E+03 0.  0.
         21    1    1    2  503  501 -0.11250513329E+03 -0.11770890248E+03 -0.25094629364E+03  0.29914349906E+03  0.00000000000E+00 0.  1.
         21    1    1    2  504  502 -0.33036542798E+03  0.12193419357E+03 -0.14321528252E+03  0.38015770506E+03  0.00000000000E+00 0.  1.
<mgrwt>
<rscale>  4 0.39172042E+03</rscale>
<asrwt>0</asrwt>
<pdfrwt beam="1">  1       21 0.33018182E-01 0.39172042E+03</pdfrwt>
<pdfrwt beam="2">  1       21 0.19562695E+00 0.39172042E+03</pdfrwt>
<totfact> 0.10889456E+03</totfact>
</mgrwt>
</event>
<event>
 5    0  0.1257040E+001  0.2164564E+03  0.7546771E-02  0.1136553E+00
         21   -1    0    0  502  501  0.00000000000E+00  0.00000000000E+00  0.13324767696E+03  0.13324767696E+03  0.00000000000E+00 0.  1.
         21   -1    0    0  504  502 -0.00000000000E+00 -0.00000000000E+00 -0.47570234866E+03  0.47570234866E+03  0.00000000000E+00 0.  1.
         25    1    1    2    0    0 -0.55272884360E+02 -0.20069026351E+03 -0.17944286395E+03  0.30192120667E+03  0.12500000000E+03 0.  0.
         21    1    1    2  503  501 -0.12843421487E+02  0.53678254692E+02  0.23482624429E+02  0.59981181652E+02  0.00000000000E+00 0. -1.
         21    1    1    2  504  503  0.68116305848E+02  0.14701200882E+03 -0.18649443218E+03  0.24704763729E+03  0.00000000000E+00 0.  1.
<mgrwt>
<rscale>  4 0.21645644E+03</rscale>
<asrwt>0</asrwt>
<pdfrwt beam="1">  1       21 0.20499642E-01 0.21645644E+03</pdfrwt>
<pdfrwt beam="2">  1       21 0.73184977E-01 0.21645644E+03</pdfrwt>
<totfact> 0.36554277E+04</totfact>
</mgrwt>
</event>
<event>
 5    0  0.1257040E+001  0.3113370E+03  0.7546771E-02  0.1079707E+00
         21   -1    0    0  503  501  0.00000000000E+00  0.00000000000E+00  0.26926865061E+04  0.26926865061E+04  0.00000000000E+00 0. -1.
         21   -1    0    0  504  502 -0.00000000000E+00 -0.00000000000E+00 -0.10328123863E+03  0.10328123863E+03  0.00000000000E+00 0. -1.
         25    1    1    2    0    0 -0.52975830485E+02  0.24382703642E+03  0.13644028626E+03  0.31064290435E+03  0.12500000000E+03 0.  0.
         21    1    1    2  503  502 -0.20009992063E+02  0.35485955397E+02  0.47410263897E+02  0.62509086824E+02  0.00000000000E+00 0.  1.
         21    1    1    2  504  501  0.72985822548E+02 -0.27931299182E+03  0.24055547174E+04  0.24228157536E+04  0.00000000000E+00 0. -1.
<mgrwt>
<rscale>  4 0.31133696E+03</rscale>
<asrwt>0</asrwt>
<pdfrwt beam="1">  1       21 0.41425941E+00 0.31133696E+03</pdfrwt>
<pdfrwt beam="2">  1       21 0.15889423E-01 0.31133696E+03</pdfrwt>
<totfact> 0.21372659E+02</totfact>
</mgrwt>
</event>
<event>
 5    0  0.1257040E+001  0.2502667E+03  0.7546771E-02  0.1113136E+00
         21   -1    0    0  503  501  0.00000000000E+00  0.00000000000E+00  0.41236420547E+03  0.41236420547E+03  0.00000000000E+00 0. -1.
         21   -1    0    0  504  502 -0.00000000000E+00 -0.00000000000E+00 -0.33399269850E+03  0.33399269850E+03  0.00000000000E+00 0. -1.
         25    1    1    2    0    0  0.88395344290E+02 -0.19019424160E+03 -0.19057109523E+03  0.30972557009E+03  0.12500000000E+03 0.  0.
         21    1    1    2  503  502 -0.63141426604E+02 -0.27568088257E+02 -0.22016984378E+02  0.72329709282E+02  0.00000000000E+00 0.  1.
         21    1    1    2  504  501 -0.25253917687E+02  0.21776232986E+03  0.29095958658E+03  0.36430162460E+03  0.00000000000E+00 0. -1.
<mgrwt>
<rscale>  4 0.25026674E+03</rscale>
<asrwt>0</asrwt>
<pdfrwt beam="1">  1       21 0.63440647E-01 0.25026674E+03</pdfrwt>
<pdfrwt beam="2">  1       21 0.51383492E-01 0.25026674E+03</pdfrwt>
<totfact> 0.79660666E+03</totfact>
</mgrwt>
</event>
<event>
 5    0  0.1257040E+001  0.3411788E+03  0.7546771E-02  0.1066295E+00
         21   -1    0    0  502  501  0.00000000000E+00  0.00000000000E+00  0.26868891131E+03  0.26868891131E+03  0.00000000000E+00 0. -1.
         21   -1    0    0  504  502 -0.00000000000E+00 -0.00000000000E+00 -0.46644395319E+03  0.46644395319E+03  0.00000000000E+00 0. -1.
         25    1    1    2    0    0 -0.29934378945E+03 -0.13579776992E+03 -0.53654636734E+02  0.35574085882E+03  0.12500000000E+03 0.  0.
         21    1    1    2  503  501  0.23025342825E+02 -0.59921387855E+01  0.17267479819E+02  0.29397925075E+02  0.00000000000E+00 0. -1.
         21    1    1    2  504  503  0.27631844662E+03  0.14178990870E+03 -0.16136788497E+03  0.34999408060E+03  0.00000000000E+00 0. -1.
<mgrwt>
<rscale>  4 0.34117882E+03</rscale>
<asrwt>0</asrwt>
<pdfrwt beam="1">  1       21 0.41336756E-01 0.34117882E+03</pdfrwt>
<pdfrwt beam="2">  1       21 0.71760608E-01 0.34117882E+03</pdfrwt>
<totfact> 0.91331733E+03</totfact>
</mgrwt>
</event>
<event>
 5    0  0.1257040E+001  0.2204813E+03  0.7546771E-02  0.1133525E+00
         21   -1    0    0  504  501  0.00000000000E+00  0.00000000000E+00  0.79743334929E+02  0.79743334929E+02  0.00000000000E+00 0. -1.
         21   -1    0    0  503  502 -0.00000000000E+00 -0.00000000000E+00 -0.14285833338E+04  0.14285833338E+04  0.00000000000E+00 0.  1.
         25    1    1    2    0    0  0.17760098128E+03 -0.11340188405E+03 -0.96854153764E+03  0.99904945123E+03  0.12500000000E+03 0.  0.
         21    1    1    2  503  501 -0.11467884885E+02  0.48616550766E+02 -0.31568699628E+03  0.31961439425E+03  0.00000000000E+00 0.  1.
         21    1    1    2  504  502 -0.16613309640E+03  0.64785333287E+02 -0.64611464975E+02  0.18966282328E+03  0.00000000000E+00 0. -1.
<mgrwt>
<rscale>  4 0.22048127E+03</rscale>
<asrwt>0</asrwt>
<pdfrwt beam="1">  1       21 0.12268206E-01 0.22048127E+03</pdfrwt>
<pdfrwt beam="2">  1       21 0.21978203E+00 0.22048127E+03</pdfrwt>
<totfact> 0.55490478E+03</totfact>
</mgrwt>
</event>
<event>
 5    0  0.1257040E+001  0.2440439E+03  0.7546771E-02  0.1117128E+00
         21   -1    0    0  502  501  0.00000000000E+00  0.00000000000E+00  0.32946469969E+03  0.32946469969E+03  0.00000000000E+00 0. -1.
         21   -1    0    0  504  502 -0.00000000000E+00 -0.00000000000E+00 -0.22636738563E+03  0.22636738563E+03  0.00000000000E+00 0. -1.
         25    1    1    2    0    0 -0.13539955491E+03  0.14995054148E+03 -0.70940919431E+02  0.24794317577E+03  0.12500000000E+03 0.  0.
         21    1    1    2  503  501 -0.17300393260E+02  0.19350524669E+02  0.19304208457E+02  0.32348089218E+02  0.00000000000E+00 0.  1.
         21    1    1    2  504  503  0.15269994817E+03 -0.16930106615E+03  0.15473402503E+03  0.27554082034E+03  0.00000000000E+00 0. -1.
<mgrwt>
<rscale>  4 0.24404388E+03</rscale>
<asrwt>0</asrwt>
<pdfrwt beam="1">  1       21 0.50686877E-01 0.24404388E+03</pdfrwt>
<pdfrwt beam="2">  1       21 0.34825752E-01 0.24404388E+03</pdfrwt>
<totfact> 0.28669441E+04</totfact>
</mgrwt>
</event>
<event>
 5    0  0.1257040E+001  0.2197995E+03  0.7546771E-02  0.1134033E+00
         21   -1    0    0  502  501  0.00000000000E+00  0.00000000000E+00  0.48463960269E+03  0.48463960269E+03  0.00000000000E+00 0.  1.
         21   -1    0    0  504  502 -0.00000000000E+00 -0.00000000000E+00 -0.14364478944E+03  0.14364478944E+03  0.00000000000E+00 0.  1.
         25    1    1    2    0    0  0.10044200783E+03  0.17685446290E+03  0.82976620374E+02  0.25273744779E+03  0.12500000000E+03 0.  0.
         21    1    1    2  503  501 -0.13044881884E+02 -0.37161431164E+02  0.19530512075E+03  0.19923662088E+03  0.00000000000E+00 0.  1.
         21    1    1    2  504  503 -0.87397125949E+02 -0.13969303174E+03  0.62713072126E+02  0.17631032345E+03  0.00000000000E+00 0.  1.
<mgrwt>
<rscale>  4 0.21979951E+03</rscale>
<asrwt>0</asrwt>
<pdfrwt beam="1">  1       21 0.74559938E-01 0.21979951E+03</pdfrwt>
<pdfrwt beam="2">  1       21 0.22099199E-01 0.21979951E+03</pdfrwt>
<totfact> 0.30384862E+04</totfact>
</mgrwt>
</event>
<event>
 5    0  0.1257040E+001  0.2337534E+03  0.7546771E-02  0.1124026E+00
         21   -1    0    0  502  501  0.00000000000E+00  0.00000000000E+00  0.17904751531E+04  0.17904751531E+04  0.00000000000E+00 0. -1.
         21   -1    0    0  504  502 -0.00000000000E+00 -0.00000000000E+00 -0.18509545906E+03  0.18509545906E+03  0.00000000000E+00 0. -1.
         25    1    1    2    0    0  0.97414770056E+02  0.18140635705E+03  0.16783127988E+04  0.16955107651E+04  0.12500000000E+03 0.  0.
         21    1    1    2  503  501  0.15997062632E+02 -0.19969780673E+02  0.43868826763E+02  0.50785550254E+02  0.00000000000E+00 0. -1.
         21    1    1    2  504  503 -0.11341183269E+03 -0.16143657638E+03 -0.11680193152E+03  0.22927429685E+03  0.00000000000E+00 0. -1.
<mgrwt>
<rscale>  4 0.23375338E+03</rscale>
<asrwt>0</asrwt>
<pdfrwt beam="1">  1       21 0.27545770E+00 0.23375338E+03</pdfrwt>
<pdfrwt beam="2">  1       21 0.28476226E-01 0.23375338E+03</pdfrwt>
<totfact> 0.52923613E+02</totfact>
</mgrwt>
</event>
<event>
 5    0  0.1257040E+001  0.2991682E+03  0.7546771E-02  0.1085657E+00
         21   -1    0    0  502  501  0.00000000000E+00  0.00000000000E+00  0.19903921044E+04  0.19903921044E+04  0.00000000000E+00 0.  1.
         21   -1    0    0  504  502 -0.00000000000E+00 -0.00000000000E+00 -0.10397525465E+03  0.10397525465E+03  0.00000000000E+00 0.  1.
         25    1    1    2    0    0  0.24432386597E+02 -0.27124045540E+03  0.15106799865E+04  0.15401127711E+04  0.12500000000E+03 0.  0.
         21    1    1    2  503  501 -0.50594156453E+02  0.19440348557E+00  0.24866319705E+03  0.25375813687E+03  0.00000000000E+00 0.  1.
         21    1    1    2  504  503  0.26161769856E+02  0.27104605191E+03  0.12707366621E+03  0.30049645106E+03  0.00000000000E+00 0.  1.
<mgrwt>
<rscale>  4 0.29916822E+03</rscale>
<asrwt>0</asrwt>
<pdfrwt beam="1">  1       21 0.30621414E+00 0.29916822E+03</pdfrwt>
<pdfrwt beam="2">  1       21 0.15996195E-01 0.29916822E+03</pdfrwt>
<totfact> 0.97720179E+02</totfact>
</mgrwt>
</event>
<event>
 5    0  0.1257040E+001  0.1957131E+03  0.7546771E-02  0.1153407E+00
         21   -1    0    0  503  501  0.00000000000E+00  0.00000000000E+00  0.27022764298E+03  0.27022764298E+03  0.00000000000E+00 0. -1.
         21   -1    0    0  504  502 -0.00000000000E+00 -0.00000000000E+00 -0.45034819601E+03  0.45034819601E+03  0.00000000000E+00 0. -1.
         25    1    1    2    0    0  0.15251838711E+03 -0.15282749092E+03  0.11019224877E+03  0.27273692833E+03  0.12500000000E+03 0.  0.
         21    1    1    2  503  502 -0.10232948307E+03  0.49162685044E+02 -0.31077374696E+03  0.33086041544E+03  0.00000000000E+00 0. -1.
         21    1    1    2  504  501 -0.50188904044E+02  0.10366480588E+03  0.20460945164E+02  0.11697849522E+03  0.00000000000E+00 0. -1.
<mgrwt>
<rscale>  4 0.19571313E+03</rscale>
<asrwt>0</asrwt>
<pdfrwt beam="1">  1       21 0.41573484E-01 0.19571313E+03</pdfrwt>
<pdfrwt beam="2">  1       21 0.69284337E-01 0.19571313E+03</pdfrwt>
<totfact> 0.10536330E+04</totfact>
</mgrwt>
</event>
<event>
 5    0  0.1257040E+001  0.2642812E+03  0.7546771E-02  0.1104598E+00
         21   -1    0    0  502  501  0.00000000000E+00  0.00000000000E+00  0.31125251801E+03  0.31125251801E+03  0.00000000000E+00 0. -1.
         21   -1    0    0  504  502 -0.00000000000E+00 -0.00000000000E+00 -0.27681130073E+03  0.27681130073E+03  0.00000000000E+00 0. -1.
         25    1    1    2    0    0 -0.19613463238E+03 -0.78886675884E+02  0.10744855863E+03  0.26807106223E+03  0.12500000000E+03 0.  0.
         21    1    1    2  503  501 -0.15140571318E+02 -0.39959305692E+02  0.34397806304E+02  0.54856103487E+02  0.00000000000E+00 0. -1.
         21    1    1    2  504  503  0.21127520370E+03  0.11884598158E+03 -0.10740514766E+03  0.26513665303E+03  0.00000000000E+00 0. -1.
<mgrwt>
<rscale>  4 0.26428115E+03</rscale>
<asrwt>0</asrwt>
<pdfrwt beam="1">  1       21 0.47885003E-01 0.26428115E+03</pdfrwt>
<pdfrwt beam="2">  1       21 0.42586354E-01 0.26428115E+03</pdfrwt>
<totfact> 0.21300465E+04</totfact>
</mgrwt>
</event>
<event>
 5    0  0.1257040E+001  0.5256345E+03  0.7546771E-02  0.1007296E+00
         21   -1    0    0  502  501  0.00000000000E+00  0.00000000000E+00  0.37631660595E+03  0.37631660595E+03  0.00000000000E+00 0.  1.
         21   -1    0    0  504  502 -0.00000000000E+00 -0.00000000000E+00 -0.98547785459E+03  0.98547785459E+03  0.00000000000E+00 0.  1.
         25    1    1    2    0    0  0.50555970018E+03  0.11417522064E+03 -0.40137276044E+03  0.66734674965E+03  0.12500000000E+03 0.  0.
         21    1    1    2  503  501 -0.47312333556E+03 -0.18670713021E+03 -0.41705722157E+02  0.51033774148E+03  0.00000000000E+00 0.  1.
         21    1    1    2  504  503 -0.32436364617E+02  0.72531909570E+02 -0.16608276604E+03  0.18410996940E+03  0.00000000000E+00 0.  1.
<mgrwt>
<rscale>  4 0.52563454E+03</rscale>
<asrwt>0</asrwt>
<pdfrwt beam="1">  1       21 0.57894863E-01 0.52563454E+03</pdfrwt>
<pdfrwt beam="2">  1       21 0.15161198E+00 0.52563454E+03</pdfrwt>
<totfact> 0.66016660E+02</totfact>
</mgrwt>
</event>
<event>
 5    0  0.1257040E+001  0.2391483E+03  0.7546771E-02  0.1120361E+00
         21   -1    0    0  504  501  0.00000000000E+00  0.00000000000E+00  0.52601389982E+03  0.52601389982E+03  0.00000000000E+00 0.  1.
         21   -1    0    0  503  502 -0.00000000000E+00 -0.00000000000E+00 -0.12333082652E+03  0.12333082652E+03  0.00000000000E+00 0.  1.
         25    1    1    2    0    0  0.16656872154E+03  0.12925706017E+03  0.29392547353E+03  0.38271361432E+03  0.12500000000E+03 0.  0.
         21    1    1    2  503  501 -0.32859978909E+01 -0.20877639145E+02 -0.22413595330E+02  0.30806539144E+02  0.00000000000E+00 0.  1.
         21    1    1    2  504  502 -0.16328272365E+03 -0.10837942103E+03  0.13117119511E+03  0.23582457287E+03  0.00000000000E+00 0.  1.
<mgrwt>
<rscale>  4 0.23914832E+03</rscale>
<asrwt>0</asrwt>
<pdfrwt beam="1">  1       21 0.80925214E-01 0.23914832E+03</pdfrwt>
<pdfrwt beam="2">  1       21 0.18973974E-01 0.23914832E+03</pdfrwt>
<totfact> 0.33320953E+04</totfact>
</mgrwt>
</event>
<event>
 5    0  0.1257040E+001  0.2802547E+03  0.7546771E-02  0.1095550E+00
         21   -1    0    0  503  501  0.00000000000E+00  0.00000000000E+00  0.25452290065E+03  0.25452290065E+03  0.00000000000E+00 0. -1.
         21   -1    0    0  501  502 -0.00000000000E+00 -0.00000000000E+00 -0.11494200495E+04  0.11494200495E+04  0.00000000000E+00 0.  1.
         25    1    1    2    0    0 -0.13294472681E+03 -0.22820596192E+03  0.13034600415E+03  0.31994896818E+03  0.12500000000E+03 0.  0.
         21    1    1    2  503  504  0.14271164089E+03  0.20526915713E+03 -0.10288640042E+04  0.10588027099E+04  0.00000000000E+00 0.  1.
         21    1    1    2  504  502 -0.97669140834E+01  0.22936804789E+02  0.36208512182E+01  0.25191272064E+02  0.00000000000E+00 0. -1.
<mgrwt>
<rscale>  4 0.28025471E+03</rscale>
<asrwt>0</asrwt>
<pdfrwt beam="1">  1       21 0.39157369E-01 0.28025471E+03</pdfrwt>
<pdfrwt beam="2">  1       21 0.17683385E+00 0.28025471E+03</pdfrwt>
<totfact> 0.11119120E+03</totfact>
</mgrwt>
</event>
<event>
 5    0  0.1257040E+001  0.2261686E+03  0.7546771E-02  0.1129366E+00
         21   -1    0    0  504  501  0.00000000000E+00  0.00000000000E+00  0.29579797347E+03  0.29579797347E+03  0.00000000000E+00 0.  1.
         21   -1    0    0  503  502 -0.00000000000E+00 -0.00000000000E+00 -0.52559704436E+03  0.52559704436E+03  0.00000000000E+00 0.  1.
         25    1    1    2    0    0 -0.79358795878E+02 -0.18659631421E+03 -0.42265186077E+03  0.48515523121E+03  0.12500000000E+03 0.  0.
         21    1    1    2  503  501  0.31670957999E+02  0.51991177627E+01 -0.30708916133E+02  0.44419792167E+02  0.00000000000E+00 0.  1.
         21    1    1    2  504  502  0.47687837879E+02  0.18139719645E+03  0.22356170601E+03  0.29181999444E+03  0.00000000000E+00 0.  1.
<mgrwt>
<rscale>  4 0.22616865E+03</rscale>
<asrwt>0</asrwt>
<pdfrwt beam="1">  1       21 0.45507381E-01 0.22616865E+03</pdfrwt>
<pdfrwt beam="2">  1       21 0.80861083E-01 0.22616865E+03</pdfrwt>
<totfact> 0.60678493E+03</totfact>
</mgrwt>
</event>
<event>
 5    0  0.1257040E+001  0.3409217E+03  0.7546771E-02  0.1066404E+00
         21   -1    0    0  504  501  0.00000000000E+00  0.00000000000E+00  0.96510404299E+03  0.96510404299E+03  0.00000000000E+00 0. -1.
         21   -1    0    0  503  502 -0.00000000000E+00 -0.00000000000E+00 -0.15915331683E+03  0.15915331683E+03  0.00000000000E+00 0. -1.
         25    1    1    2    0    0 -0.45316523287E+02 -0.32647832264E+03  0.16520350126E+03  0.38930563734E+03  0.12500000000E+03 0.  0.
         21    1    1    2  503  501  0.25567383369E+02  0.13775936210E+02  0.10083381042E+02  0.30743163208E+02  0.00000000000E+00 0. -1.
         21    1    1    2  504  502  0.19749139919E+02  0.31270238643E+03  0.63066384386E+03  0.70420855927E+03  0.00000000000E+00 0. -1.
<mgrwt>
<rscale>  4 0.34092172E+03</rscale>
<asrwt>0</asrwt>
<pdfrwt beam="1">  1       21 0.14847754E+00 0.34092172E+03</pdfrwt>
<pdfrwt beam="2">  1       21 0.24485126E-01 0.34092172E+03</pdfrwt>
<totfact> 0.43980482E+03</totfact>
</mgrwt>
</event>
<event>
 5    0  0.1257040E+001  0.2437006E+03  0.7546771E-02  0.1117352E+00
         21   -1    0    0  502  501  0.00000000000E+00  0.00000000000E+00  0.43280024489E+03  0.43280024489E+03  0.00000000000E+00 0.  1.
         21   -1    0    0  504  502 -0.00000000000E+00 -0.00000000000E+00 -0.67635024848E+03  0.67635024848E+03  0.00000000000E+00 0.  1.
         25    1    1    2    0    0  0.19358525553E+03 -0.16959854378E+03  0.18359120168E+03  0.33995535963E+03  0.12500000000E+03 0.  0.
         21    1    1    2  503  501 -0.59561817773E+01  0.83270858044E+02  0.14145328932E+03  0.16425146867E+03  0.00000000000E+00 0.  1.
         21    1    1    2  504  503 -0.18762907375E+03  0.86327685733E+02 -0.56859449459E+03  0.60494366508E+03  0.00000000000E+00 0.  1.
<mgrwt>
<rscale>  4 0.24370064E+03</rscale>
<asrwt>0</asrwt>
<pdfrwt beam="1">  1       21 0.66584653E-01 0.24370064E+03</pdfrwt>
<pdfrwt beam="2">  1       21 0.10405388E+00 0.24370064E+03</pdfrwt>
<totfact> 0.14772701E+03</totfact>
</mgrwt>
</event>
<event>
 5    0  0.1257040E+001  0.2490258E+03  0.7546771E-02  0.1113922E+00
         21   -1    0    0  504  501  0.00000000000E+00  0.00000000000E+00  0.25319521287E+03  0.25319521287E+03  0.00000000000E+00 0.  1.
         21   -1    0    0  501  502 -0.00000000000E+00 -0.00000000000E+00 -0.22676347319E+03  0.22676347319E+03  0.00000000000E+00 0.  1.
         25    1    1    2    0    0 -0.11692327305E+03 -0.18088066951E+03  0.46269856109E+02  0.25328791516E+03  0.12500000000E+03 0.  0.
         21    1    1    2  503  502  0.29001452330E+02  0.59264780635E+01  0.19117209219E+01  0.29662468818E+02  0.00000000000E+00 0. -1.
         21    1    1    2  504  503  0.87921820723E+02  0.17495419144E+03 -0.21749837345E+02  0.19700830208E+03  0.00000000000E+00 0.  1.
<mgrwt>
<rscale>  4 0.24902584E+03</rscale>
<asrwt>0</asrwt>
<pdfrwt beam="1">  1       21 0.38953110E-01 0.24902584E+03</pdfrwt>
<pdfrwt beam="2">  1       21 0.34886688E-01 0.24902584E+03</pdfrwt>
<totfact> 0.49077082E+04</totfact>
</mgrwt>
</event>
<event>
 5    0  0.1257040E+001  0.2451800E+03  0.7546771E-02  0.1116389E+00
         21   -1    0    0  502  501  0.00000000000E+00  0.00000000000E+00  0.41874015323E+03  0.41874015323E+03  0.00000000000E+00 0.  1.
         21   -1    0    0  504  502 -0.00000000000E+00 -0.00000000000E+00 -0.12796679405E+03  0.12796679405E+03  0.00000000000E+00 0.  1.
         25    1    1    2    0    0  0.16269868509E+03  0.13422877864E+03  0.14404277859E+03  0.28436165214E+03  0.12500000000E+03 0.  0.
         21    1    1    2  503  501 -0.13537030174E+03 -0.10364170791E+03  0.14036486123E+03  0.22083708130E+03  0.00000000000E+00 0.  1.
         21    1    1    2  504  503 -0.27328383356E+02 -0.30587070734E+02  0.63657193662E+01  0.41508213838E+02  0.00000000000E+00 0. -1.
<mgrwt>
<rscale>  4 0.24517999E+03</rscale>
<asrwt>0</asrwt>
<pdfrwt beam="1">  1       21 0.64421561E-01 0.24517999E+03</pdfrwt>
<pdfrwt beam="2">  1       21 0.19687199E-01 0.24517999E+03</pdfrwt>
<totfact> 0.51594592E+04</totfact>
</mgrwt>
</event>
<event>
 5    0  0.1257040E+001  0.2459551E+03  0.7546771E-02  0.1115888E+00
         21   -1    0    0  504  501  0.00000000000E+00  0.00000000000E+00  0.52257431830E+03  0.52257431830E+03  0.00000000000E+00 0.  1.
         21   -1    0    0  503  502 -0.00000000000E+00 -0.00000000000E+00 -0.13208623599E+03  0.13208623599E+03  0.00000000000E+00 0.  1.
         25    1    1    2    0    0 -0.19000591688E+03  0.11609131571E+03  0.19626798824E+03  0.32206453583E+03  0.12500000000E+03 0.  0.
         21    1    1    2  503  501  0.16766263915E+03 -0.11885417768E+03  0.87229377201E+02  0.22326226812E+03  0.00000000000E+00 0.  1.
         21    1    1    2  504  502  0.22343277726E+02  0.27628619715E+01  0.10699071688E+03  0.10933375034E+03  0.00000000000E+00 0.  1.
<mgrwt>
<rscale>  4 0.24595509E+03</rscale>
<asrwt>0</asrwt>
<pdfrwt beam="1">  1       21 0.80396048E-01 0.24595509E+03</pdfrwt>
<pdfrwt beam="2">  1       21 0.20320960E-01 0.24595509E+03</pdfrwt>
<totfact> 0.29648887E+04</totfact>
</mgrwt>
</event>
<event>
 5    0  0.1257040E+001  0.2637923E+03  0.7546771E-02  0.1104886E+00
         21   -1    0    0  502  501  0.00000000000E+00  0.00000000000E+00  0.13636172731E+04  0.13636172731E+04  0.00000000000E+00 0.  1.
         21   -1    0    0  504  502 -0.00000000000E+00 -0.00000000000E+00 -0.15266598905E+03  0.15266598905E+03  0.00000000000E+00 0.  1.
         25    1    1    2    0    0  0.24387160000E+03 -0.64705912270E+02  0.10797396704E+03  0.30156854930E+03  0.12500000000E+03 0.  0.
         21    1    1    2  503  501 -0.22060547059E+03  0.64852759661E+02  0.11443638043E+04  0.11672365530E+04  0.00000000000E+00 0.  1.
         21    1    1    2  504  503 -0.23266129415E+02 -0.14684739087E+00 -0.41386487234E+02  0.47478159901E+02  0.00000000000E+00 0.  1.
<mgrwt>
<rscale>  4 0.26379225E+03</rscale>
<asrwt>0</asrwt>
<pdfrwt beam="1">  1       21 0.20978726E+00 0.26379225E+03</pdfrwt>
<pdfrwt beam="2">  1       21 0.23487076E-01 0.26379225E+03</pdfrwt>
<totfact> 0.18594632E+03</totfact>
</mgrwt>
</event>
<event>
 5    0  0.1257040E+001  0.1746232E+03  0.7546771E-02  0.1173111E+00
         21   -1    0    0  504  501  0.00000000000E+00  0.00000000000E+00  0.19604210168E+03  0.19604210168E+03  0.00000000000E+00 0.  1.
         21   -1    0    0  503  502 -0.00000000000E+00 -0.00000000000E+00 -0.64842361023E+03  0.64842361023E+03  0.00000000000E+00 0. -1.
         25    1    1    2    0    0  0.13515559868E+03  0.17740504141E+03 -0.48059996421E+03  0.54437203287E+03  0.12500000000E+03 0.  0.
         21    1    1    2  503  501 -0.53138030883E+02 -0.93809354993E+02 -0.84932563876E+02  0.13724935634E+03  0.00000000000E+00 0. -1.
         21    1    1    2  504  502 -0.82017567796E+02 -0.83595686414E+02  0.11315101954E+03  0.16284432270E+03  0.00000000000E+00 0.  1.
<mgrwt>
<rscale>  4 0.17462324E+03</rscale>
<asrwt>0</asrwt>
<pdfrwt beam="1">  1       21 0.30160323E-01 0.17462324E+03</pdfrwt>
<pdfrwt beam="2">  1       21 0.99757479E-01 0.17462324E+03</pdfrwt>
<totfact> 0.88245061E+03</totfact>
</mgrwt>
</event>
<event>
 5    0  0.1257040E+001  0.2292302E+03  0.7546771E-02  0.1127183E+00
         21   -1    0    0  502  501  0.00000000000E+00  0.00000000000E+00  0.35142359039E+03  0.35142359039E+03  0.00000000000E+00 0.  1.
         21   -1    0    0  504  502 -0.00000000000E+00 -0.00000000000E+00 -0.34140845623E+03  0.34140845623E+03  0.00000000000E+00 0.  1.
         25    1    1    2    0    0  0.18112488051E+03  0.89028663992E+02 -0.23468899166E+03  0.33382068264E+03  0.12500000000E+03 0.  0.
         21    1    1    2  503  501 -0.15633860900E+03 -0.11029459993E+03  0.26011169208E+03  0.32290052926E+03  0.00000000000E+00 0.  1.
         21    1    1    2  504  503 -0.24786271505E+02  0.21265935941E+02 -0.15407566264E+02  0.36110834728E+02  0.00000000000E+00 0.  1.
<mgrwt>
<rscale>  4 0.22923016E+03</rscale>
<asrwt>0</asrwt>
<pdfrwt beam="1">  1       21 0.54065168E-01 0.22923016E+03</pdfrwt>
<pdfrwt beam="2">  1       21 0.52524378E-01 0.22923016E+03</pdfrwt>
<totfact> 0.10858140E+04</totfact>
</mgrwt>
</event>
<event>
 5    0  0.1257040E+001  0.2211359E+03  0.7546771E-02  0.1133039E+00
         21   -1    0    0  502  501  0.00000000000E+00  0.00000000000E+00  0.10239922865E+03  0.10239922865E+03  0.00000000000E+00 0. -1.
         21   -1    0    0  504  502 -0.00000000000E+00 -0.00000000000E+00 -0.12727910610E+04  0.12727910610E+04  0.00000000000E+00 0. -1.
         25    1    1    2    0    0 -0.27849317968E+03  0.26388007175E+02 -0.90979506928E+03  0.96000356569E+03  0.12500000000E+03 0.  0.
         21    1    1    2  503  501  0.16915749110E+03  0.23045023215E+02 -0.59084830423E+02  0.18065532673E+03  0.00000000000E+00 0. -1.
         21    1    1    2  504  503  0.10933568858E+03 -0.49433030389E+02 -0.20151193263E+03  0.23453139722E+03  0.00000000000E+00 0. -1.
<mgrwt>
<rscale>  4 0.22113594E+03</rscale>
<asrwt>0</asrwt>
<pdfrwt beam="1">  1       21 0.15753728E-01 0.22113594E+03</pdfrwt>
<pdfrwt beam="2">  1       21 0.19581400E+00 0.22113594E+03</pdfrwt>
<totfact> 0.49991195E+03</totfact>
</mgrwt>
</event>
<event>
 5    0  0.1257040E+001  0.3006877E+03  0.7546771E-02  0.1084897E+00
         21   -1    0    0  502  501  0.00000000000E+00  0.00000000000E+00  0.89602060954E+03  0.89602060954E+03  0.00000000000E+00 0. -1.
         21   -1    0    0  504  502 -0.00000000000E+00 -0.00000000000E+00 -0.12334753657E+03  0.12334753657E+03  0.00000000000E+00 0. -1.
         25    1    1    2    0    0 -0.12390276186E+03  0.25363247736E+03  0.20061196883E+03  0.36817317936E+03  0.12500000000E+03 0.  0.
         21    1    1    2  503  501 -0.16145976129E+02 -0.34029012239E+02  0.15478675302E+03  0.15930350005E+03  0.00000000000E+00 0. -1.
         21    1    1    2  504  503  0.14004873799E+03 -0.21960346512E+03  0.41727435113E+03  0.49189146670E+03  0.00000000000E+00 0. -1.
<mgrwt>
<rscale>  4 0.30068774E+03</rscale>
<asrwt>0</asrwt>
<pdfrwt beam="1">  1       21 0.13784932E+00 0.30068774E+03</pdfrwt>
<pdfrwt beam="2">  1       21 0.18976545E-01 0.30068774E+03</pdfrwt>
<totfact> 0.88707991E+03</totfact>
</mgrwt>
</event>
<event>
 5    0  0.1257040E+001  0.2890482E+03  0.7546771E-02  0.1090847E+00
         21   -1    0    0  504  501  0.00000000000E+00  0.00000000000E+00  0.74791495895E+03  0.74791495895E+03  0.00000000000E+00 0.  1.
         21   -1    0    0  501  502 -0.00000000000E+00 -0.00000000000E+00 -0.12697435399E+03  0.12697435399E+03  0.00000000000E+00 0.  1.
         25    1    1    2    0    0 -0.19871038784E+03 -0.14986396533E+03  0.17392884673E+03  0.32836149297E+03  0.12500000000E+03 0.  0.
         21    1    1    2  503  502 -0.30214427328E+02 -0.13340304869E+02  0.54225573161E+02  0.63492425828E+02  0.00000000000E+00 0.  1.
         21    1    1    2  504  503  0.22892481517E+03  0.16320427020E+03  0.39278618507E+03  0.48303539415E+03  0.00000000000E+00 0.  1.
<mgrwt>
<rscale>  4 0.28904822E+03</rscale>
<asrwt>0</asrwt>
<pdfrwt beam="1">  1       21 0.11506384E+00 0.28904822E+03</pdfrwt>
<pdfrwt beam="2">  1       21 0.19534516E-01 0.28904822E+03</pdfrwt>
<totfact> 0.13366162E+04</totfact>
</mgrwt>
</event>
<event>
 5    0  0.1257040E+001  0.2224653E+03  0.7546771E-02  0.1132058E+00
         21   -1    0    0  503  501  0.00000000000E+00  0.00000000000E+00  0.94952391297E+03  0.94952391297E+03  0.00000000000E+00 0.  1.
         21   -1    0    0  504  502 -0.00000000000E+00 -0.00000000000E+00 -0.70930750778E+02  0.70930750778E+02  0.00000000000E+00 0.  1.
         25    1    1    2    0    0 -0.88306335267E+02 -0.18569786663E+03  0.52115787054E+03  0.57403156058E+03  0.12500000000E+03 0.  0.
         21    1    1    2  503  502  0.65401572418E+02  0.16124293530E+02  0.23753698596E+02  0.71425462642E+02  0.00000000000E+00 0.  1.
         21    1    1    2  504  501  0.22904762849E+02  0.16957357310E+03  0.33368159306E+03  0.37499764053E+03  0.00000000000E+00 0.  1.
<mgrwt>
<rscale>  4 0.22246528E+03</rscale>
<asrwt>0</asrwt>
<pdfrwt beam="1">  1       21 0.14608059E+00 0.22246528E+03</pdfrwt>
<pdfrwt beam="2">  1       21 0.10912424E-01 0.22246528E+03</pdfrwt>
<totfact> 0.21854399E+04</totfact>
</mgrwt>
</event>
<event>
 5    0  0.1257040E+001  0.2215316E+03  0.7546771E-02  0.1132746E+00
         21   -1    0    0  503  501  0.00000000000E+00  0.00000000000E+00  0.27555144620E+03  0.27555144620E+03  0.00000000000E+00 0. -1.
         21   -1    0    0  504  502 -0.00000000000E+00 -0.00000000000E+00 -0.19637932023E+03  0.19637932023E+03  0.00000000000E+00 0. -1.
         25    1    1    2    0    0 -0.11469087101E+03 -0.16414885016E+03  0.89342223735E+02  0.25240022552E+03  0.12500000000E+03 0.  0.
         21    1    1    2  503  502  0.29564130600E+02  0.19585055982E+02 -0.35131484195E+02  0.49918267375E+02  0.00000000000E+00 0. -1.
         21    1    1    2  504  501  0.85126740413E+02  0.14456379418E+03  0.24961386438E+02  0.16961227353E+03  0.00000000000E+00 0. -1.
<mgrwt>
<rscale>  4 0.22153157E+03</rscale>
<asrwt>0</asrwt>
<pdfrwt beam="1">  1       21 0.42392530E-01 0.22153157E+03</pdfrwt>
<pdfrwt beam="2">  1       21 0.30212203E-01 0.22153157E+03</pdfrwt>
<totfact> 0.55531665E+04</totfact>
</mgrwt>
</event>
<event>
 5    0  0.1257040E+001  0.3164980E+03  0.7546771E-02  0.1077272E+00
         21   -1    0    0  503  501  0.00000000000E+00  0.00000000000E+00  0.13036913963E+04  0.13036913963E+04  0.00000000000E+00 0.  1.
         21   -1    0    0  504  502 -0.00000000000E+00 -0.00000000000E+00 -0.28712486953E+03  0.28712486953E+03  0.00000000000E+00 0.  1.
         25    1    1    2    0    0 -0.26524708283E+03 -0.65182101459E+02  0.11133361794E+04  0.11531466384E+04  0.12500000000E+03 0.  0.
         21    1    1    2  503  502  0.28918489483E+03  0.41267895719E+02 -0.18322946021E+03  0.34482456076E+03  0.00000000000E+00 0.  1.
         21    1    1    2  504  501 -0.23937812001E+02  0.23914205740E+02  0.86459807528E+02  0.92845066629E+02  0.00000000000E+00 0. -1.
<mgrwt>
<rscale>  4 0.31649796E+03</rscale>
<asrwt>0</asrwt>
<pdfrwt beam="1">  1       21 0.20056790E+00 0.31649796E+03</pdfrwt>
<pdfrwt beam="2">  1       21 0.44173058E-01 0.31649796E+03</pdfrwt>
<totfact> 0.58454628E+02</totfact>
</mgrwt>
</event>
<event>
 5    0  0.1257040E+001  0.3072635E+03  0.7546771E-02  0.1081665E+00
         21   -1    0    0  502  501  0.00000000000E+00  0.00000000000E+00  0.73013241334E+02  0.73013241334E+02  0.00000000000E+00 0.  1.
         21   -1    0    0  504  502 -0.00000000000E+00 -0.00000000000E+00 -0.15029794264E+04  0.15029794264E+04  0.00000000000E+00 0.  1.
         25    1    1    2    0    0  0.18236670414E+03  0.19772649385E+03 -0.64727301324E+03  0.71199770703E+03  0.12500000000E+03 0.  0.
         21    1    1    2  503  501 -0.21441367691E+03 -0.19564354041E+03 -0.48978886208E+03  0.56933535739E+03  0.00000000000E+00 0.  1.
         21    1    1    2  504  503  0.32046972777E+02 -0.20829534397E+01 -0.29290430976E+03  0.29465960334E+03  0.00000000000E+00 0. -1.
<mgrwt>
<rscale>  4 0.30726349E+03</rscale>
<asrwt>0</asrwt>
<pdfrwt beam="1">  1       21 0.11232806E-01 0.30726349E+03</pdfrwt>
<pdfrwt beam="2">  1       21 0.23122760E+00 0.30726349E+03</pdfrwt>
<totfact> 0.51896808E+03</totfact>
</mgrwt>
</event>
