<event>
 5    0  0.1856407E+000  0.3006560E+03  0.7546771E-02  0.1084913E+00
         21   -1    0    0  502  501  0.00000000000E+00  0.00000000000E+00  0.73520447551E+03  0.73520447551E+03  0.00000000000E+00 0. -1.
         21   -1    0    0  503  502 -0.00000000000E+00 -0.00000000000E+00 -0.19294935737E+03  0.19294935737E+03  0.00000000000E+00 0. -1.
         25    1    1    2    0    0  0.18806145912E+03  0.19849913645E+03  0.56771623309E+03  0.64241399494E+03  0.12500000000E+03 0.  0.
         21    1    1    2  503  504 -0.10364536619E+03 -0.16269246784E+03 -0.18045247275E+02  0.19374424371E+03  0.00000000000E+00 0. -1.
         21    1    1    2  504  501 -0.84416092937E+02 -0.35806668609E+02 -0.74158676731E+01  0.91995594226E+02  0.00000000000E+00 0. -1.
<mgrwt>
<rscale>  4 0.30065598E+03</rscale>
<asrwt>0</asrwt>
<pdfrwt beam="1">  1       21 0.11310838E+00 0.30065598E+03</pdfrwt>
<pdfrwt beam="2">  1       21 0.29684517E-01 0.30065598E+03</pdfrwt>
<totfact> 0.62037289E+03</totfact>
</mgrwt>
</event>
<event>
 5    0  0.1856407E+000  0.2610963E+03  0.7546771E-02  0.1106486E+00
         21   -1    0    0  502  501  0.00000000000E+00  0.00000000000E+00  0.32770966009E+03  0.32770966009E+03  0.00000000000E+00 0.  1.
         21   -1    0    0  503  502 -0.00000000000E+00 -0.00000000000E+00 -0.26725476654E+03  0.26725476654E+03  0.00000000000E+00 0.  1.
         25    1    1    2    0    0 -0.56562828014E+02  0.22214171433E+03  0.19072831209E+03  0.32333973432E+03  0.12500000000E+03 0.  0.
         21    1    1    2  503  504  0.11256541526E+01 -0.13221543692E+03 -0.80989402490E+02  0.15505312694E+03  0.00000000000E+00 0.  1.
         21    1    1    2  504  501  0.55437173862E+02 -0.89926277413E+02 -0.49284016051E+02  0.11657156537E+03  0.00000000000E+00 0.  1.
<mgrwt>
<rscale>  4 0.26109633E+03</rscale>
<asrwt>0</asrwt>
<pdfrwt beam="1">  1       21 0.50416870E-01 0.26109633E+03</pdfrwt>
<pdfrwt beam="2">  1       21 0.41116118E-01 0.26109633E+03</pdfrwt>
<totfact> 0.20576770E+04</totfact>
</mgrwt>
</event>
<event>
 5    0  0.3223599E+000  0.2585876E+03  0.7546771E-02  0.1107995E+00
         21   -1    0    0  502  501  0.00000000000E+00  0.00000000000E+00  0.68187709103E+03  0.68187709103E+03  0.00000000000E+00 0.  1.
         21   -1    0    0  503  502 -0.00000000000E+00 -0.00000000000E+00 -0.15770640033E+03  0.15770640033E+03  0.00000000000E+00 0. -1.
         25    1    1    2    0    0 -0.16815223026E+03  0.15154986335E+03  0.55049149964E+03  0.60820097402E+03  0.12500000000E+03 0.  0.
         21    1    1    2  503  504  0.20302342694E+02 -0.75862897584E+01 -0.11383507332E+02  0.24481036546E+02  0.00000000000E+00 0. -1.
         21    1    1    2  504  501  0.14784988757E+03 -0.14396357359E+03 -0.14937301599E+02  0.20690148079E+03  0.00000000000E+00 0. -1.
<mgrwt>
<rscale>  4 0.25858757E+03</rscale>
<asrwt>0</asrwt>
<pdfrwt beam="1">  1       21 0.10490417E+00 0.25858757E+03</pdfrwt>
<pdfrwt beam="2">  1       21 0.24262523E-01 0.25858757E+03</pdfrwt>
<totfact> 0.11274180E+04</totfact>
</mgrwt>
</event>
<event>
 5    0  0.1856407E+000  0.3205406E+03  0.7546771E-02  0.1075401E+00
         21   -1    0    0  502  501  0.00000000000E+00  0.00000000000E+00  0.13727198759E+03  0.13727198759E+03  0.00000000000E+00 0. -1.
         21   -1    0    0  503  502 -0.00000000000E+00 -0.00000000000E+00 -0.17529363438E+04  0.17529363438E+04  0.00000000000E+00 0.  1.
         25    1    1    2    0    0 -0.49911677291E+02  0.29091250801E+03 -0.90699440248E+02  0.33312557889E+03  0.12500000000E+03 0.  0.
         21    1    1    2  503  504  0.14218278560E+02 -0.10578662018E+03 -0.31685802923E+03  0.33435307557E+03  0.00000000000E+00 0. -1.
         21    1    1    2  504  501  0.35693398732E+02 -0.18512588784E+03 -0.12081068867E+04  0.12227296769E+04  0.00000000000E+00 0.  1.
<mgrwt>
<rscale>  4 0.32054058E+03</rscale>
<asrwt>0</asrwt>
<pdfrwt beam="1">  1       21 0.21118769E-01 0.32054058E+03</pdfrwt>
<pdfrwt beam="2">  1       21 0.26968250E+00 0.32054058E+03</pdfrwt>
<totfact> 0.93870726E+02</totfact>
</mgrwt>
</event>
<event>
 5    0  0.2441441E+000  0.2597027E+03  0.7546771E-02  0.1107322E+00
         21   -1    0    0  502  501  0.00000000000E+00  0.00000000000E+00  0.16757010129E+03  0.16757010129E+03  0.00000000000E+00 0. -1.
         21   -1    0    0  503  502 -0.00000000000E+00 -0.00000000000E+00 -0.39503742874E+03  0.39503742874E+03  0.00000000000E+00 0. -1.
         25    1    1    2    0    0 -0.16160039152E+03 -0.16033025438E+03 -0.39930240757E+02  0.26275445027E+03  0.12500000000E+03 0.  0.
         21    1    1    2  503  504  0.36787001817E+02  0.46200051954E+02 -0.79983907279E+02  0.99424110390E+02  0.00000000000E+00 0. -1.
         21    1    1    2  504  501  0.12481338971E+03  0.11413020243E+03 -0.10755317942E+03  0.20042896936E+03  0.00000000000E+00 0. -1.
<mgrwt>
<rscale>  4 0.25970267E+03</rscale>
<asrwt>0</asrwt>
<pdfrwt beam="1">  1       21 0.25780016E-01 0.25970267E+03</pdfrwt>
<pdfrwt beam="2">  1       21 0.60774988E-01 0.25970267E+03</pdfrwt>
<totfact> 0.34870061E+04</totfact>
</mgrwt>
</event>
<event>
 5    0  0.1856407E+000  0.2646299E+03  0.7546771E-02  0.1104393E+00
         21   -1    0    0  502  501  0.00000000000E+00  0.00000000000E+00  0.85002945389E+03  0.85002945389E+03  0.00000000000E+00 0.  1.
         21   -1    0    0  503  502 -0.00000000000E+00 -0.00000000000E+00 -0.24097219690E+03  0.24097219690E+03  0.00000000000E+00 0. -1.
         25    1    1    2    0    0 -0.47459905877E+02 -0.22683904234E+03  0.73841864680E+03  0.78396140960E+03  0.12500000000E+03 0.  0.
         21    1    1    2  503  504  0.28151113105E+02  0.24605032475E+03 -0.13018862583E+03  0.27978978855E+03  0.00000000000E+00 0. -1.
         21    1    1    2  504  501  0.19308792773E+02 -0.19211282413E+02  0.82723601586E+00  0.27250452651E+02  0.00000000000E+00 0.  1.
<mgrwt>
<rscale>  4 0.26462986E+03</rscale>
<asrwt>0</asrwt>
<pdfrwt beam="1">  1       21 0.13077376E+00 0.26462986E+03</pdfrwt>
<pdfrwt beam="2">  1       21 0.37072646E-01 0.26462986E+03</pdfrwt>
<totfact> 0.28263323E+03</totfact>
</mgrwt>
</event>
<event>
 5    0  0.1856407E+000  0.2389162E+03  0.7546771E-02  0.1120517E+00
         21   -1    0    0  502  501  0.00000000000E+00  0.00000000000E+00  0.15391204757E+04  0.15391204757E+04  0.00000000000E+00 0.  1.
         21   -1    0    0  503  502 -0.00000000000E+00 -0.00000000000E+00 -0.95358974255E+02  0.95358974255E+02  0.00000000000E+00 0. -1.
         25    1    1    2    0    0 -0.10839663095E+03 -0.17235463901E+03  0.13931199490E+04  0.14134582214E+04  0.12500000000E+03 0.  0.
         21    1    1    2  503  504  0.64770015489E+02  0.42728503328E+02  0.93630159267E+01  0.78157187580E+02  0.00000000000E+00 0. -1.
         21    1    1    2  504  501  0.43626615460E+02  0.12962613568E+03  0.41278536445E+02  0.14286404096E+03  0.00000000000E+00 0. -1.
<mgrwt>
<rscale>  4 0.23891620E+03</rscale>
<asrwt>0</asrwt>
<pdfrwt beam="1">  1       21 0.23678775E+00 0.23891620E+03</pdfrwt>
<pdfrwt beam="2">  1       21 0.14670613E-01 0.23891620E+03</pdfrwt>
<totfact> 0.31092318E+03</totfact>
</mgrwt>
</event>
<event>
 5    0  0.2065796E+000  0.2422987E+03  0.7546771E-02  0.1118271E+00
         21   -1    0    0  502  501  0.00000000000E+00  0.00000000000E+00  0.55390683925E+03  0.55390683925E+03  0.00000000000E+00 0.  1.
         21   -1    0    0  503  502 -0.00000000000E+00 -0.00000000000E+00 -0.95148793044E+02  0.95148793044E+02  0.00000000000E+00 0.  1.
         25    1    1    2    0    0 -0.17924481968E+03  0.10466597884E+03  0.25427496166E+03  0.35123272717E+03  0.12500000000E+03 0.  0.
         21    1    1    2  503  504  0.15102315710E+03 -0.78793911625E+02  0.19390980476E+03  0.25810363591E+03  0.00000000000E+00 0.  1.
         21    1    1    2  504  501  0.28221662582E+02 -0.25872067217E+02  0.10573279788E+02  0.39719269208E+02  0.00000000000E+00 0.  1.
<mgrwt>
<rscale>  4 0.24229873E+03</rscale>
<asrwt>0</asrwt>
<pdfrwt beam="1">  1       21 0.85216435E-01 0.24229873E+03</pdfrwt>
<pdfrwt beam="2">  1       21 0.14638276E-01 0.24229873E+03</pdfrwt>
<totfact> 0.47726354E+04</totfact>
</mgrwt>
</event>
<event>
 5    0  0.1856407E+000  0.2589402E+03  0.7546771E-02  0.1107782E+00
         21   -1    0    0  502  501  0.00000000000E+00  0.00000000000E+00  0.12545317245E+04  0.12545317245E+04  0.00000000000E+00 0.  1.
         21   -1    0    0  503  502 -0.00000000000E+00 -0.00000000000E+00 -0.17480806399E+03  0.17480806399E+03  0.00000000000E+00 0.  1.
         25    1    1    2    0    0 -0.18463561734E+03 -0.14296408210E+03  0.10694396958E+04  0.11017510168E+04  0.12500000000E+03 0.  0.
         21    1    1    2  503  504 -0.12698126572E+02  0.11382323049E+03  0.48693100202E+02  0.12445074618E+03  0.00000000000E+00 0.  1.
         21    1    1    2  504  501  0.19733374391E+03  0.29140851611E+02 -0.38409135531E+02  0.20313802552E+03  0.00000000000E+00 0.  1.
<mgrwt>
<rscale>  4 0.25894016E+03</rscale>
<asrwt>0</asrwt>
<pdfrwt beam="1">  1       21 0.19300487E+00 0.25894016E+03</pdfrwt>
<pdfrwt beam="2">  1       21 0.26893549E-01 0.25894016E+03</pdfrwt>
<totfact> 0.18485276E+03</totfact>
</mgrwt>
</event>
<event>
 5    0  0.1856407E+000  0.2710099E+03  0.7546771E-02  0.1100703E+00
         21   -1    0    0  502  501  0.00000000000E+00  0.00000000000E+00  0.23832850801E+03  0.23832850801E+03  0.00000000000E+00 0. -1.
         21   -1    0    0  503  502 -0.00000000000E+00 -0.00000000000E+00 -0.61303447845E+03  0.61303447845E+03  0.00000000000E+00 0. -1.
         25    1    1    2    0    0 -0.13509891702E+03  0.19892127303E+03 -0.49458070365E+03  0.56396494808E+03  0.12500000000E+03 0.  0.
         21    1    1    2  503  504  0.86777666322E+02 -0.75815216683E+02  0.10210394234E+03  0.15395949303E+03  0.00000000000E+00 0. -1.
         21    1    1    2  504  501  0.48321250700E+02 -0.12310605635E+03  0.17770790872E+02  0.13343854535E+03  0.00000000000E+00 0. -1.
<mgrwt>
<rscale>  4 0.27100994E+03</rscale>
<asrwt>0</asrwt>
<pdfrwt beam="1">  1       21 0.36665924E-01 0.27100994E+03</pdfrwt>
<pdfrwt beam="2">  1       21 0.94312997E-01 0.27100994E+03</pdfrwt>
<totfact> 0.64219714E+03</totfact>
</mgrwt>
</event>
<event>
 5    0  0.1856407E+000  0.2403914E+03  0.7546771E-02  0.1119532E+00
         21   -1    0    0  502  501  0.00000000000E+00  0.00000000000E+00  0.12997459428E+03  0.12997459428E+03  0.00000000000E+00 0.  1.
         21   -1    0    0  503  502 -0.00000000000E+00 -0.00000000000E+00 -0.12861752801E+04  0.12861752801E+04  0.00000000000E+00 0.  1.
         25    1    1    2    0    0 -0.23654084681E+03  0.10959692795E+03 -0.11303057402E+03  0.31042546527E+03  0.12500000000E+03 0.  0.
         21    1    1    2  503  504  0.18376983397E+03 -0.78696290472E+02 -0.10214505900E+04  0.10408293644E+04  0.00000000000E+00 0.  1.
         21    1    1    2  504  501  0.52771012842E+02 -0.30900637474E+02 -0.21719521737E+02  0.64895044627E+02  0.00000000000E+00 0. -1.
<mgrwt>
<rscale>  4 0.24039136E+03</rscale>
<asrwt>0</asrwt>
<pdfrwt beam="1">  1       21 0.19996091E-01 0.24039136E+03</pdfrwt>
<pdfrwt beam="2">  1       21 0.19787313E+00 0.24039136E+03</pdfrwt>
<totfact> 0.30656077E+03</totfact>
</mgrwt>
</event>
<event>
 5    0  0.1856407E+000  0.4422449E+03  0.7546771E-02  0.1030060E+00
         21   -1    0    0  502  501  0.00000000000E+00  0.00000000000E+00  0.75869016895E+03  0.75869016895E+03  0.00000000000E+00 0.  1.
         21   -1    0    0  503  502 -0.00000000000E+00 -0.00000000000E+00 -0.30904007196E+03  0.30904007196E+03  0.00000000000E+00 0.  1.
         25    1    1    2    0    0  0.19260932850E+03 -0.37796453877E+03  0.45516168951E+03  0.63462800883E+03  0.12500000000E+03 0.  0.
         21    1    1    2  503  504 -0.48979196326E+02  0.15462013448E+03 -0.35008034630E+02  0.16592742434E+03  0.00000000000E+00 0.  1.
         21    1    1    2  504  501 -0.14363013217E+03  0.22334440429E+03  0.29496442117E+02  0.26717480775E+03  0.00000000000E+00 0.  1.
<mgrwt>
<rscale>  4 0.44224489E+03</rscale>
<asrwt>0</asrwt>
<pdfrwt beam="1">  1       21 0.11672156E+00 0.44224489E+03</pdfrwt>
<pdfrwt beam="2">  1       21 0.47544627E-01 0.44224489E+03</pdfrwt>
<totfact> 0.20666267E+03</totfact>
</mgrwt>
</event>
<event>
 5    0  0.1856407E+000  0.2420625E+03  0.7546771E-02  0.1118426E+00
         21   -1    0    0  502  501  0.00000000000E+00  0.00000000000E+00  0.12441151429E+03  0.12441151429E+03  0.00000000000E+00 0.  1.
         21   -1    0    0  503  502 -0.00000000000E+00 -0.00000000000E+00 -0.41537830886E+03  0.41537830886E+03  0.00000000000E+00 0.  1.
         25    1    1    2    0    0 -0.20269062009E+03  0.43425585560E+02 -0.18344571863E+03  0.30372125483E+03  0.12500000000E+03 0.  0.
         21    1    1    2  503  504  0.17199826771E+03 -0.23569569424E+02 -0.88826445548E+02  0.19501042569E+03  0.00000000000E+00 0.  1.
         21    1    1    2  504  501  0.30692352379E+02 -0.19856016136E+02 -0.18694630386E+02  0.41058142635E+02  0.00000000000E+00 0.  1.
<mgrwt>
<rscale>  4 0.24206253E+03</rscale>
<asrwt>0</asrwt>
<pdfrwt beam="1">  1       21 0.19140233E-01 0.24206253E+03</pdfrwt>
<pdfrwt beam="2">  1       21 0.63904354E-01 0.24206253E+03</pdfrwt>
<totfact> 0.55426229E+04</totfact>
</mgrwt>
</event>
<event>
 5    0  0.1856407E+000  0.6242953E+03  0.7546771E-02  0.9868837E-01
         21   -1    0    0  502  501  0.00000000000E+00  0.00000000000E+00  0.41091792307E+03  0.41091792307E+03  0.00000000000E+00 0. -1.
         21   -1    0    0  503  502 -0.00000000000E+00 -0.00000000000E+00 -0.91170335146E+03  0.91170335146E+03  0.00000000000E+00 0. -1.
         25    1    1    2    0    0  0.44751262736E+03  0.37854458089E+03 -0.22582582263E+03  0.64045753453E+03  0.12500000000E+03 0.  0.
         21    1    1    2  503  504 -0.12079288293E+03  0.32998513706E+01 -0.68134998603E+02  0.13872342131E+03  0.00000000000E+00 0.  1.
         21    1    1    2  504  501 -0.32671974443E+03 -0.38184443226E+03 -0.20682460716E+03  0.54344031869E+03  0.00000000000E+00 0. -1.
<mgrwt>
<rscale>  4 0.61795641E+03</rscale>
<asrwt>0</asrwt>
<pdfrwt beam="1">  1       21 0.63218142E-01 0.62429527E+03</pdfrwt>
<pdfrwt beam="2">  1       21 0.14026205E+00 0.62429527E+03</pdfrwt>
<totfact> 0.64913452E+02</totfact>
</mgrwt>
</event>
