<event>
 5    0  0.1943430E+001  0.2380425E+03  0.7546771E-02  0.1121104E+00
         21   -1    0    0  503  501  0.00000000000E+00  0.00000000000E+00  0.16466242001E+03  0.16466242001E+03  0.00000000000E+00 0.  1.
         21   -1    0    0  504  502 -0.00000000000E+00 -0.00000000000E+00 -0.60904221174E+03  0.60904221174E+03  0.00000000000E+00 0.  1.
         25    1    1    2    0    0 -0.93127926679E+02  0.18584972341E+03  0.17425712445E+02  0.24319043130E+03  0.12500000000E+03 0.  0.
         21    1    1    2  503  502  0.24226003388E+02 -0.82084018885E+01 -0.22557189049E+03  0.22701752109E+03  0.00000000000E+00 0.  1.
         21    1    1    2  504  501  0.68901923292E+02 -0.17764132153E+03 -0.23623361368E+03  0.30349667936E+03  0.00000000000E+00 0.  1.
<mgrwt>
<rscale>  4 0.23804249E+03</rscale>
<asrwt>0</asrwt>
<pdfrwt beam="1">  1       21 0.25332680E-01 0.23804249E+03</pdfrwt>
<pdfrwt beam="2">  1       21 0.93698801E-01 0.23804249E+03</pdfrwt>
<totfact> 0.13739509E+04</totfact>
</mgrwt>
</event>
<event>
 5    0  0.1943430E+001  0.3272220E+03  0.7546771E-02  0.1072373E+00
         21   -1    0    0  504  501  0.00000000000E+00  0.00000000000E+00  0.26755910379E+03  0.26755910379E+03  0.00000000000E+00 0. -1.
         21   -1    0    0  501  502 -0.00000000000E+00 -0.00000000000E+00 -0.46299256448E+03  0.46299256448E+03  0.00000000000E+00 0. -1.
         25    1    1    2    0    0 -0.17494342021E+03  0.22622235951E+03 -0.25993477781E+02  0.31318112508E+03  0.12500000000E+03 0.  0.
         21    1    1    2  503  502  0.22183574067E+03 -0.23829062406E+03 -0.11689099656E+03  0.34591476180E+03  0.00000000000E+00 0. -1.
         21    1    1    2  504  503 -0.46892320468E+02  0.12068264541E+02 -0.52548986353E+02  0.71455781394E+02  0.00000000000E+00 0. -1.
<mgrwt>
<rscale>  4 0.32722198E+03</rscale>
<asrwt>0</asrwt>
<pdfrwt beam="1">  1       21 0.41162939E-01 0.32722198E+03</pdfrwt>
<pdfrwt beam="2">  1       21 0.71229625E-01 0.32722198E+03</pdfrwt>
<totfact> 0.94215092E+03</totfact>
</mgrwt>
</event>
<event>
 5    0  0.1943430E+001  0.2904241E+03  0.7546771E-02  0.1090128E+00
         21   -1    0    0  502  501  0.00000000000E+00  0.00000000000E+00  0.51058246945E+03  0.51058246945E+03  0.00000000000E+00 0. -1.
         21   -1    0    0  503  502 -0.00000000000E+00 -0.00000000000E+00 -0.77164146630E+03  0.77164146630E+03  0.00000000000E+00 0. -1.
         25    1    1    2    0    0  0.19222342000E+03 -0.21031420108E+03  0.42228183753E+03  0.52452726972E+03  0.12500000000E+03 0.  0.
         21    1    1    2  503  504 -0.16434144655E+03  0.20277382283E+03 -0.68030200760E+03  0.72865365972E+03  0.00000000000E+00 0. -1.
         21    1    1    2  504  501 -0.27881973449E+02  0.75403782439E+01 -0.30388267834E+01  0.29043006313E+02  0.00000000000E+00 0.  1.
<mgrwt>
<rscale>  4 0.29042408E+03</rscale>
<asrwt>0</asrwt>
<pdfrwt beam="1">  1       21 0.78551150E-01 0.29042408E+03</pdfrwt>
<pdfrwt beam="2">  1       21 0.11871407E+00 0.29042408E+03</pdfrwt>
<totfact> 0.71410111E+02</totfact>
</mgrwt>
</event>
<event>
 5    0  0.1943430E+001  0.3039653E+03  0.7546771E-02  0.1083275E+00
         21   -1    0    0  503  501  0.00000000000E+00  0.00000000000E+00  0.14069875029E+04  0.14069875029E+04  0.00000000000E+00 0. -1.
         21   -1    0    0  504  502 -0.00000000000E+00 -0.00000000000E+00 -0.21562553979E+03  0.21562553979E+03  0.00000000000E+00 0.  1.
         25    1    1    2    0    0 -0.74226120908E+02 -0.26155729461E+03  0.11961619817E+04  0.12330248262E+04  0.12500000000E+03 0.  0.
         21    1    1    2  503  502 -0.28271520677E+02 -0.49360045292E+02  0.22286252100E+02  0.61093125516E+02  0.00000000000E+00 0.  1.
         21    1    1    2  504  501  0.10249764159E+03  0.31091733990E+03 -0.27086270680E+02  0.32849509105E+03  0.00000000000E+00 0.  1.
<mgrwt>
<rscale>  4 0.30396531E+03</rscale>
<asrwt>0</asrwt>
<pdfrwt beam="1">  1       21 0.21645961E+00 0.30396531E+03</pdfrwt>
<pdfrwt beam="2">  1       21 0.33173161E-01 0.30396531E+03</pdfrwt>
<totfact> 0.83403264E+02</totfact>
</mgrwt>
</event>
<event>
 5    0  0.1943430E+001  0.2026707E+03  0.7546771E-02  0.1147505E+00
         21   -1    0    0  503  501  0.00000000000E+00  0.00000000000E+00  0.69613312430E+03  0.69613312430E+03  0.00000000000E+00 0. -1.
         21   -1    0    0  504  502 -0.00000000000E+00 -0.00000000000E+00 -0.11007292930E+03  0.11007292930E+03  0.00000000000E+00 0. -1.
         25    1    1    2    0    0  0.57372810757E+02  0.20716057000E+03  0.27821763206E+03  0.37314500126E+03  0.12500000000E+03 0.  0.
         21    1    1    2  503  502 -0.12147574372E+03 -0.87723303377E+02  0.85111369788E+02  0.17232434400E+03  0.00000000000E+00 0. -1.
         21    1    1    2  504  501  0.64102932964E+02 -0.11943726662E+03  0.22273119316E+03  0.26073670834E+03  0.00000000000E+00 0. -1.
<mgrwt>
<rscale>  4 0.20267068E+03</rscale>
<asrwt>0</asrwt>
<pdfrwt beam="1">  1       21 0.10709740E+00 0.20267068E+03</pdfrwt>
<pdfrwt beam="2">  1       21 0.16934297E-01 0.20267068E+03</pdfrwt>
<totfact> 0.21754392E+04</totfact>
</mgrwt>
</event>
<event>
 5    0  0.1943430E+001  0.3637701E+03  0.7546771E-02  0.1057101E+00
         21   -1    0    0  504  501  0.00000000000E+00  0.00000000000E+00  0.31099739615E+03  0.31099739615E+03  0.00000000000E+00 0. -1.
         21   -1    0    0  501  502 -0.00000000000E+00 -0.00000000000E+00 -0.15712352377E+04  0.15712352377E+04  0.00000000000E+00 0. -1.
         25    1    1    2    0    0  0.21818710386E+03 -0.27140950418E+03  0.11613397016E+02  0.37017374602E+03  0.12500000000E+03 0.  0.
         21    1    1    2  503  502  0.22996632227E+01  0.21489097922E+02 -0.11604551756E+04  0.11606564024E+04  0.00000000000E+00 0. -1.
         21    1    1    2  504  503 -0.22048676708E+03  0.24992040626E+03 -0.11139606292E+03  0.35140248542E+03  0.00000000000E+00 0. -1.
<mgrwt>
<rscale>  4 0.36377006E+03</rscale>
<asrwt>0</asrwt>
<pdfrwt beam="1">  1       21 0.47845753E-01 0.36377006E+03</pdfrwt>
<pdfrwt beam="2">  1       21 0.24172850E+00 0.36377006E+03</pdfrwt>
<totfact> 0.26294189E+02</totfact>
</mgrwt>
</event>
<event>
 5    0  0.1943430E+001  0.2728078E+03  0.7546771E-02  0.1099683E+00
         21   -1    0    0  504  501  0.00000000000E+00  0.00000000000E+00  0.30932431370E+03  0.30932431370E+03  0.00000000000E+00 0. -1.
         21   -1    0    0  503  502 -0.00000000000E+00 -0.00000000000E+00 -0.64952894092E+03  0.64952894092E+03  0.00000000000E+00 0. -1.
         25    1    1    2    0    0  0.21609902246E+03  0.10589244683E+03  0.20755386637E+03  0.34149027109E+03  0.12500000000E+03 0.  0.
         21    1    1    2  503  501 -0.22386553714E+03 -0.12845114160E+03 -0.52156510505E+03  0.58193267076E+03  0.00000000000E+00 0. -1.
         21    1    1    2  504  502  0.77665146814E+01  0.22558694775E+02 -0.26193388536E+02  0.35430312774E+02  0.00000000000E+00 0.  1.
<mgrwt>
<rscale>  4 0.27280780E+03</rscale>
<asrwt>0</asrwt>
<pdfrwt beam="1">  1       21 0.47588357E-01 0.27280780E+03</pdfrwt>
<pdfrwt beam="2">  1       21 0.99927527E-01 0.27280780E+03</pdfrwt>
<totfact> 0.32767635E+03</totfact>
</mgrwt>
</event>
<event>
 5    0  0.1943430E+001  0.2691670E+03  0.7546771E-02  0.1101757E+00
         21   -1    0    0  503  501  0.00000000000E+00  0.00000000000E+00  0.87691614067E+03  0.87691614067E+03  0.00000000000E+00 0. -1.
         21   -1    0    0  504  502 -0.00000000000E+00 -0.00000000000E+00 -0.14540437919E+03  0.14540437919E+03  0.00000000000E+00 0. -1.
         25    1    1    2    0    0 -0.67357277958E+02 -0.24048803072E+03  0.58781711942E+03  0.65078833863E+03  0.12500000000E+03 0.  0.
         21    1    1    2  503  502 -0.18765973947E+02  0.36060697481E+02 -0.58596301595E+02  0.71316633696E+02  0.00000000000E+00 0. -1.
         21    1    1    2  504  501  0.86123251905E+02  0.20442733324E+03  0.20229094365E+03  0.30021554752E+03  0.00000000000E+00 0. -1.
<mgrwt>
<rscale>  4 0.26916695E+03</rscale>
<asrwt>0</asrwt>
<pdfrwt beam="1">  1       21 0.13491017E+00 0.26916695E+03</pdfrwt>
<pdfrwt beam="2">  1       21 0.22369905E-01 0.26916695E+03</pdfrwt>
<totfact> 0.69893232E+03</totfact>
</mgrwt>
</event>
<event>
 5    0  0.1943430E+001  0.2715299E+03  0.7546771E-02  0.1100407E+00
         21   -1    0    0  504  501  0.00000000000E+00  0.00000000000E+00  0.84387787007E+03  0.84387787007E+03  0.00000000000E+00 0. -1.
         21   -1    0    0  503  502 -0.00000000000E+00 -0.00000000000E+00 -0.89280932205E+02  0.89280932205E+02  0.00000000000E+00 0. -1.
         25    1    1    2    0    0  0.20403672207E+03 -0.11600327282E+03  0.34819774307E+03  0.43812602244E+03  0.12500000000E+03 0.  0.
         21    1    1    2  503  501 -0.19823861633E+03  0.14972526358E+03  0.35543484125E+03  0.43364747196E+03  0.00000000000E+00 0. -1.
         21    1    1    2  504  502 -0.57981057446E+01 -0.33721990766E+02  0.50964353548E+02  0.61385307884E+02  0.00000000000E+00 0.  1.
<mgrwt>
<rscale>  4 0.27152988E+03</rscale>
<asrwt>0</asrwt>
<pdfrwt beam="1">  1       21 0.12982736E+00 0.27152988E+03</pdfrwt>
<pdfrwt beam="2">  1       21 0.13735529E-01 0.27152988E+03</pdfrwt>
<totfact> 0.19087469E+04</totfact>
</mgrwt>
</event>
<event>
 5    0  0.1943430E+001  0.3058179E+03  0.7546771E-02  0.1082368E+00
         21   -1    0    0  504  501  0.00000000000E+00  0.00000000000E+00  0.87445639014E+03  0.87445639014E+03  0.00000000000E+00 0.  1.
         21   -1    0    0  501  502 -0.00000000000E+00 -0.00000000000E+00 -0.15977496535E+03  0.15977496535E+03  0.00000000000E+00 0.  1.
         25    1    1    2    0    0 -0.38565321384E+02  0.26884578660E+03  0.41510107552E+03  0.51156548347E+03  0.12500000000E+03 0.  0.
         21    1    1    2  503  502  0.27879543612E+02  0.18789284426E+02 -0.55921427014E+02  0.65249614255E+02  0.00000000000E+00 0.  1.
         21    1    1    2  504  503  0.10685777773E+02 -0.28763507102E+03  0.35550177629E+03  0.45741625777E+03  0.00000000000E+00 0.  1.
<mgrwt>
<rscale>  4 0.30581792E+03</rscale>
<asrwt>0</asrwt>
<pdfrwt beam="1">  1       21 0.13453175E+00 0.30581792E+03</pdfrwt>
<pdfrwt beam="2">  1       21 0.24580764E-01 0.30581792E+03</pdfrwt>
<totfact> 0.57623685E+03</totfact>
</mgrwt>
</event>
<event>
 5    0  0.1943430E+001  0.3148741E+03  0.7546771E-02  0.1078033E+00
         21   -1    0    0  504  501  0.00000000000E+00  0.00000000000E+00  0.20558324019E+03  0.20558324019E+03  0.00000000000E+00 0.  1.
         21   -1    0    0  501  502 -0.00000000000E+00 -0.00000000000E+00 -0.10704281612E+04  0.10704281612E+04  0.00000000000E+00 0. -1.
         25    1    1    2    0    0  0.23441874675E+03 -0.19197628209E+03 -0.21458756236E+03  0.39176506178E+03  0.12500000000E+03 0.  0.
         21    1    1    2  503  502 -0.29702969551E+02 -0.11277474211E+01 -0.59711183930E+03  0.59785122468E+03  0.00000000000E+00 0. -1.
         21    1    1    2  504  503 -0.20471577720E+03  0.19310402952E+03 -0.53145519401E+02  0.28639511498E+03  0.00000000000E+00 0.  1.
<mgrwt>
<rscale>  4 0.31487408E+03</rscale>
<asrwt>0</asrwt>
<pdfrwt beam="1">  1       21 0.31628192E-01 0.31487408E+03</pdfrwt>
<pdfrwt beam="2">  1       21 0.16468125E+00 0.31487408E+03</pdfrwt>
<totfact> 0.20377580E+03</totfact>
</mgrwt>
</event>
<event>
 5    0  0.1943430E+001  0.2095965E+03  0.7546771E-02  0.1141886E+00
         21   -1    0    0  503  501  0.00000000000E+00  0.00000000000E+00  0.21279852719E+02  0.21279852719E+02  0.00000000000E+00 0.  1.
         21   -1    0    0  504  502 -0.00000000000E+00 -0.00000000000E+00 -0.35578380474E+04  0.35578380474E+04  0.00000000000E+00 0.  1.
         25    1    1    2    0    0 -0.19983918043E+03 -0.83719151988E+01 -0.10843700125E+04  0.11097247906E+04  0.12500000000E+03 0.  0.
         21    1    1    2  503  502  0.14148235509E+03 -0.87595737020E+02 -0.17929346072E+04  0.18006401016E+04  0.00000000000E+00 0.  1.
         21    1    1    2  504  501  0.58356825335E+02  0.95967652219E+02 -0.65925357500E+03  0.66875300783E+03  0.00000000000E+00 0.  1.
<mgrwt>
<rscale>  4 0.20959653E+03</rscale>
<asrwt>0</asrwt>
<pdfrwt beam="1">  1       21 0.32738220E-02 0.20959653E+03</pdfrwt>
<pdfrwt beam="2">  1       21 0.54735996E+00 0.20959653E+03</pdfrwt>
<totfact> 0.45807410E+02</totfact>
</mgrwt>
</event>
<event>
 5    0  0.1943430E+001  0.2568064E+03  0.7546771E-02  0.1109077E+00
         21   -1    0    0  504  501  0.00000000000E+00  0.00000000000E+00  0.94851888806E+03  0.94851888806E+03  0.00000000000E+00 0.  1.
         21   -1    0    0  503  502 -0.00000000000E+00 -0.00000000000E+00 -0.78346122199E+02  0.78346122199E+02  0.00000000000E+00 0.  1.
         25    1    1    2    0    0  0.18414012082E+03  0.96379498214E+02  0.27750865880E+03  0.36855480933E+03  0.12500000000E+03 0.  0.
         21    1    1    2  503  501 -0.21477976295E+03 -0.89690249885E+02  0.57913132645E+03  0.62415365157E+03  0.00000000000E+00 0.  1.
         21    1    1    2  504  502  0.30639642127E+02 -0.66892483283E+01  0.13532780615E+02  0.34156549358E+02  0.00000000000E+00 0.  1.
<mgrwt>
<rscale>  4 0.25680635E+03</rscale>
<asrwt>0</asrwt>
<pdfrwt beam="1">  1       21 0.14592597E+00 0.25680635E+03</pdfrwt>
<pdfrwt beam="2">  1       21 0.12053250E-01 0.25680635E+03</pdfrwt>
<totfact> 0.17988970E+04</totfact>
</mgrwt>
</event>
<event>
 5    0  0.1943430E+001  0.4416519E+03  0.7546771E-02  0.1030241E+00
         21   -1    0    0  503  501  0.00000000000E+00  0.00000000000E+00  0.38478884854E+03  0.38478884854E+03  0.00000000000E+00 0. -1.
         21   -1    0    0  504  502 -0.00000000000E+00 -0.00000000000E+00 -0.68879367958E+03  0.68879367958E+03  0.00000000000E+00 0.  1.
         25    1    1    2    0    0 -0.38247393082E+03 -0.11490608057E+03 -0.30321314862E+03  0.51677164068E+03  0.12500000000E+03 0.  0.
         21    1    1    2  503  502 -0.36984610870E+02  0.43566822626E+01 -0.10438654524E+03  0.11083046941E+03  0.00000000000E+00 0.  1.
         21    1    1    2  504  501  0.41945854169E+03  0.11054939831E+03  0.10359486282E+03  0.44598041803E+03  0.00000000000E+00 0. -1.
<mgrwt>
<rscale>  4 0.44165195E+03</rscale>
<asrwt>0</asrwt>
<pdfrwt beam="1">  1       21 0.59198285E-01 0.44165195E+03</pdfrwt>
<pdfrwt beam="2">  1       21 0.10596826E+00 0.44165195E+03</pdfrwt>
<totfact> 0.16417545E+03</totfact>
</mgrwt>
</event>
