<event>
 5    0  0.1911311E+001  0.2723814E+03  0.7546771E-02  0.1099924E+00
         21   -1    0    0  502  501  0.00000000000E+00  0.00000000000E+00  0.93586554721E+02  0.93586554721E+02  0.00000000000E+00 0. -1.
         21   -1    0    0  504  502 -0.00000000000E+00 -0.00000000000E+00 -0.96338443780E+03  0.96338443780E+03  0.00000000000E+00 0. -1.
         25    1    1    2    0    0 -0.33681687321E+01  0.20334562263E+03 -0.54857640100E+03  0.59826570563E+03  0.12500000000E+03 0.  0.
         21    1    1    2  503  501  0.57527066678E+01 -0.26051398095E+03 -0.21407016126E+03  0.33723383853E+03  0.00000000000E+00 0. -1.
         21    1    1    2  504  503 -0.23845379357E+01  0.57168358320E+02 -0.10715132082E+03  0.12147144836E+03  0.00000000000E+00 0.  1.
<mgrwt>
<rscale>  4 0.27238143E+03</rscale>
<asrwt>0</asrwt>
<pdfrwt beam="1">  1       21 0.14397931E-01 0.27238143E+03</pdfrwt>
<pdfrwt beam="2">  1       21 0.14821299E+00 0.27238143E+03</pdfrwt>
<totfact> 0.12398630E+04</totfact>
</mgrwt>
</event>
<event>
 5    0  0.1911311E+001  0.3951159E+03  0.7546771E-02  0.1045484E+00
         21   -1    0    0  504  501  0.00000000000E+00  0.00000000000E+00  0.86291966447E+03  0.86291966447E+03  0.00000000000E+00 0.  1.
         21   -1    0    0  503  502 -0.00000000000E+00 -0.00000000000E+00 -0.54864464803E+03  0.54864464803E+03  0.00000000000E+00 0. -1.
         25    1    1    2    0    0 -0.24065117476E+03  0.21929910496E+03 -0.18119203751E+03  0.39301480864E+03  0.12500000000E+03 0.  0.
         21    1    1    2  503  501 -0.44186899396E+02  0.37012650532E+02 -0.20889698884E+03  0.21670341558E+03  0.00000000000E+00 0. -1.
         21    1    1    2  504  502  0.28483807416E+03 -0.25631175550E+03  0.70436404280E+03  0.80184608828E+03  0.00000000000E+00 0.  1.
<mgrwt>
<rscale>  4 0.39511588E+03</rscale>
<asrwt>0</asrwt>
<pdfrwt beam="1">  1       21 0.13275687E+00 0.39511588E+03</pdfrwt>
<pdfrwt beam="2">  1       21 0.84406869E-01 0.39511588E+03</pdfrwt>
<totfact> 0.42668250E+02</totfact>
</mgrwt>
</event>
<event>
 5    0  0.1911311E+001  0.2774105E+03  0.7546771E-02  0.1097112E+00
         21   -1    0    0  504  501  0.00000000000E+00  0.00000000000E+00  0.22962556111E+03  0.22962556111E+03  0.00000000000E+00 0. -1.
         21   -1    0    0  503  502 -0.00000000000E+00 -0.00000000000E+00 -0.27348742313E+04  0.27348742313E+04  0.00000000000E+00 0. -1.
         25    1    1    2    0    0 -0.12744767944E+03  0.28769551599E+03 -0.13349645873E+04  0.13772316690E+04  0.12500000000E+03 0.  0.
         21    1    1    2  503  501 -0.21663760321E+02 -0.93896190238E+02 -0.13046866426E+04  0.13082404399E+04  0.00000000000E+00 0. -1.
         21    1    1    2  504  502  0.14911143976E+03 -0.19379932575E+03  0.13440255968E+03  0.27902768354E+03  0.00000000000E+00 0. -1.
<mgrwt>
<rscale>  4 0.27741046E+03</rscale>
<asrwt>0</asrwt>
<pdfrwt beam="1">  1       21 0.35327013E-01 0.27741046E+03</pdfrwt>
<pdfrwt beam="2">  1       21 0.42074984E+00 0.27741046E+03</pdfrwt>
<totfact> 0.43487507E+01</totfact>
</mgrwt>
</event>
<event>
 5    0  0.1911311E+001  0.2658143E+03  0.7546771E-02  0.1103699E+00
         21   -1    0    0  503  501  0.00000000000E+00  0.00000000000E+00  0.25754727066E+03  0.25754727066E+03  0.00000000000E+00 0.  1.
         21   -1    0    0  504  502 -0.00000000000E+00 -0.00000000000E+00 -0.43439453565E+03  0.43439453565E+03  0.00000000000E+00 0.  1.
         25    1    1    2    0    0  0.57953922844E+02  0.22907862124E+03  0.12860494915E+03  0.29664777907E+03  0.12500000000E+03 0.  0.
         21    1    1    2  503  502  0.16879833222E+02 -0.13071675237E+02 -0.17324693095E+02  0.27494407685E+02  0.00000000000E+00 0. -1.
         21    1    1    2  504  501 -0.74833756066E+02 -0.21600694600E+03 -0.28812752104E+03  0.36779961956E+03  0.00000000000E+00 0.  1.
<mgrwt>
<rscale>  4 0.26581432E+03</rscale>
<asrwt>0</asrwt>
<pdfrwt beam="1">  1       21 0.39622658E-01 0.26581432E+03</pdfrwt>
<pdfrwt beam="2">  1       21 0.66829927E-01 0.26581432E+03</pdfrwt>
<totfact> 0.12069437E+04</totfact>
</mgrwt>
</event>
<event>
 5    0  0.1911311E+001  0.2401950E+03  0.7546771E-02  0.1119663E+00
         21   -1    0    0  502  501  0.00000000000E+00  0.00000000000E+00  0.18594368392E+03  0.18594368392E+03  0.00000000000E+00 0. -1.
         21   -1    0    0  504  502 -0.00000000000E+00 -0.00000000000E+00 -0.28289569176E+03  0.28289569176E+03  0.00000000000E+00 0. -1.
         25    1    1    2    0    0  0.92272820830E+02 -0.18317853020E+03 -0.48990986736E+02  0.24514029487E+03  0.12500000000E+03 0.  0.
         21    1    1    2  503  501 -0.82967642363E+02  0.14213129594E+03 -0.66277815198E+01  0.16470841646E+03  0.00000000000E+00 0. -1.
         21    1    1    2  504  503 -0.93051784671E+01  0.41047234253E+02 -0.41333239584E+02  0.58990664351E+02  0.00000000000E+00 0. -1.
<mgrwt>
<rscale>  4 0.24019502E+03</rscale>
<asrwt>0</asrwt>
<pdfrwt beam="1">  1       21 0.28606721E-01 0.24019502E+03</pdfrwt>
<pdfrwt beam="2">  1       21 0.43522414E-01 0.24019502E+03</pdfrwt>
<totfact> 0.58088739E+04</totfact>
</mgrwt>
</event>
