<event>
 5    0  0.1856407E+000  0.2439606E+03  0.7546771E-02  0.1117182E+00
         21   -1    0    0  502  501  0.00000000000E+00  0.00000000000E+00  0.12987552641E+03  0.12987552641E+03  0.00000000000E+00 0. -1.
         21   -1    0    0  503  502 -0.00000000000E+00 -0.00000000000E+00 -0.15675777268E+04  0.15675777268E+04  0.00000000000E+00 0. -1.
         25    1    1    2    0    0 -0.21307818763E+03  0.37018846372E+02 -0.19505966127E+02  0.25055576574E+03  0.12500000000E+03 0.  0.
         21    1    1    2  503  504  0.15305195783E+03  0.23695409788E+02 -0.12362718531E+04  0.12459351785E+04  0.00000000000E+00 0. -1.
         21    1    1    2  504  501  0.60026229807E+02 -0.60714256160E+02 -0.18192438119E+03  0.20096230900E+03  0.00000000000E+00 0. -1.
<mgrwt>
<rscale>  4 0.24396058E+03</rscale>
<asrwt>0</asrwt>
<pdfrwt beam="1">  1       21 0.19980849E-01 0.24396058E+03</pdfrwt>
<pdfrwt beam="2">  1       21 0.24116582E+00 0.24396058E+03</pdfrwt>
<totfact> 0.16442005E+03</totfact>
</mgrwt>
</event>
<event>
 5    0  0.1856407E+000  0.3697218E+03  0.7546771E-02  0.1054799E+00
         21   -1    0    0  502  501  0.00000000000E+00  0.00000000000E+00  0.38163447980E+03  0.38163447980E+03  0.00000000000E+00 0. -1.
         21   -1    0    0  503  502 -0.00000000000E+00 -0.00000000000E+00 -0.42388512054E+03  0.42388512054E+03  0.00000000000E+00 0. -1.
         25    1    1    2    0    0  0.34898016707E+03  0.80536849064E+02  0.16212872991E+02  0.37968565724E+03  0.12500000000E+03 0.  0.
         21    1    1    2  503  504 -0.34137174927E+03 -0.70896281884E+00 -0.52954517773E+02  0.34545528622E+03  0.00000000000E+00 0. -1.
         21    1    1    2  504  501 -0.76084178048E+01 -0.79827886245E+02 -0.55089959611E+01  0.80378656870E+02  0.00000000000E+00 0.  1.
<mgrwt>
<rscale>  4 0.36972176E+03</rscale>
<asrwt>0</asrwt>
<pdfrwt beam="1">  1       21 0.58712997E-01 0.36972176E+03</pdfrwt>
<pdfrwt beam="2">  1       21 0.65213095E-01 0.36972176E+03</pdfrwt>
<totfact> 0.53257773E+03</totfact>
</mgrwt>
</event>
<event>
 5    0  0.2132383E+000  0.2624441E+03  0.7546771E-02  0.1105684E+00
         21   -1    0    0  502  501  0.00000000000E+00  0.00000000000E+00  0.10353024284E+04  0.10353024284E+04  0.00000000000E+00 0. -1.
         21   -1    0    0  503  502 -0.00000000000E+00 -0.00000000000E+00 -0.98615630650E+02  0.98615630650E+02  0.00000000000E+00 0. -1.
         25    1    1    2    0    0 -0.22084972711E+03 -0.10908667763E+03  0.72007761109E+03  0.77124008661E+03  0.12500000000E+03 0.  0.
         21    1    1    2  503  504  0.20338349651E+03  0.46331458750E+02  0.21193763863E+03  0.29737016224E+03  0.00000000000E+00 0. -1.
         21    1    1    2  504  501  0.17466230594E+02  0.62755218879E+02  0.46715479963E+01  0.65307810163E+02  0.00000000000E+00 0. -1.
<mgrwt>
<rscale>  4 0.26244415E+03</rscale>
<asrwt>0</asrwt>
<pdfrwt beam="1">  1       21 0.15927729E+00 0.26244415E+03</pdfrwt>
<pdfrwt beam="2">  1       21 0.15171636E-01 0.26244415E+03</pdfrwt>
<totfact> 0.93335021E+03</totfact>
</mgrwt>
</event>
<event>
 5    0  0.1856407E+000  0.2409162E+03  0.7546771E-02  0.1119184E+00
         21   -1    0    0  502  501  0.00000000000E+00  0.00000000000E+00  0.37699952632E+03  0.37699952632E+03  0.00000000000E+00 0. -1.
         21   -1    0    0  503  502 -0.00000000000E+00 -0.00000000000E+00 -0.24384299396E+03  0.24384299396E+03  0.00000000000E+00 0.  1.
         25    1    1    2    0    0  0.16984022748E+03 -0.11648992106E+03  0.27593667615E+03  0.36630814054E+03  0.12500000000E+03 0.  0.
         21    1    1    2  503  504 -0.60278629665E+02  0.23035274287E+02 -0.61659273444E+02  0.89252468074E+02  0.00000000000E+00 0.  1.
         21    1    1    2  504  501 -0.10956159781E+03  0.93454646768E+02 -0.81120870346E+02  0.16528191166E+03  0.00000000000E+00 0.  1.
<mgrwt>
<rscale>  4 0.24091618E+03</rscale>
<asrwt>0</asrwt>
<pdfrwt beam="1">  1       21 0.57999927E-01 0.24091618E+03</pdfrwt>
<pdfrwt beam="2">  1       21 0.37514307E-01 0.24091618E+03</pdfrwt>
<totfact> 0.18580650E+04</totfact>
</mgrwt>
</event>
<event>
 5    0  0.1856407E+000  0.2439295E+03  0.7546771E-02  0.1117202E+00
         21   -1    0    0  502  501  0.00000000000E+00  0.00000000000E+00  0.42241197023E+02  0.42241197023E+02  0.00000000000E+00 0. -1.
         21   -1    0    0  503  502 -0.00000000000E+00 -0.00000000000E+00 -0.17068002647E+04  0.17068002647E+04  0.00000000000E+00 0. -1.
         25    1    1    2    0    0  0.10925416105E+02 -0.20918227851E+03 -0.42133020401E+03  0.48684774948E+03  0.12500000000E+03 0.  0.
         21    1    1    2  503  504 -0.33993864255E+02  0.15420780178E+03 -0.86512933770E+03  0.87942276516E+03  0.00000000000E+00 0. -1.
         21    1    1    2  504  501  0.23068448151E+02  0.54974476733E+02 -0.37809952593E+03  0.38277094705E+03  0.00000000000E+00 0. -1.
<mgrwt>
<rscale>  4 0.24392948E+03</rscale>
<asrwt>0</asrwt>
<pdfrwt beam="1">  1       21 0.64986470E-02 0.24392948E+03</pdfrwt>
<pdfrwt beam="2">  1       21 0.26258460E+00 0.24392948E+03</pdfrwt>
<totfact> 0.92165979E+03</totfact>
</mgrwt>
</event>
<event>
 5    0  0.1856407E+000  0.5253683E+03  0.7546771E-02  0.1007362E+00
         21   -1    0    0  502  501  0.00000000000E+00  0.00000000000E+00  0.65726400607E+03  0.65726400607E+03  0.00000000000E+00 0. -1.
         21   -1    0    0  503  502 -0.00000000000E+00 -0.00000000000E+00 -0.78350551202E+03  0.78350551202E+03  0.00000000000E+00 0. -1.
         25    1    1    2    0    0  0.76126945929E+02  0.50457064030E+03  0.43167708671E+03  0.67996834496E+03  0.12500000000E+03 0.  0.
         21    1    1    2  503  504 -0.86665422630E+02 -0.41544848544E+03 -0.49012899166E+03  0.64833229751E+03  0.00000000000E+00 0. -1.
         21    1    1    2  504  501  0.10538476701E+02 -0.89122154866E+02 -0.67789601002E+02  0.11246887562E+03  0.00000000000E+00 0. -1.
<mgrwt>
<rscale>  4 0.52536829E+03</rscale>
<asrwt>0</asrwt>
<pdfrwt beam="1">  1       21 0.10111754E+00 0.52536829E+03</pdfrwt>
<pdfrwt beam="2">  1       21 0.12053931E+00 0.52536829E+03</pdfrwt>
<totfact> 0.33497693E+02</totfact>
</mgrwt>
</event>
<event>
 5    0  0.2848245E+000  0.2966217E+03  0.7546771E-02  0.1086942E+00
         21   -1    0    0  502  501  0.00000000000E+00  0.00000000000E+00  0.10303362368E+03  0.10303362368E+03  0.00000000000E+00 0. -1.
         21   -1    0    0  503  502 -0.00000000000E+00 -0.00000000000E+00 -0.11580064963E+04  0.11580064963E+04  0.00000000000E+00 0. -1.
         25    1    1    2    0    0 -0.26505781566E+03  0.45867082754E+02 -0.18674528458E+03  0.35051139245E+03  0.12500000000E+03 0.  0.
         21    1    1    2  503  504  0.22679413309E+03 -0.44542144608E+02 -0.67298405552E+03  0.71156666620E+03  0.00000000000E+00 0. -1.
         21    1    1    2  504  501  0.38263682567E+02 -0.13249381453E+01 -0.19524353250E+03  0.19896206132E+03  0.00000000000E+00 0. -1.
<mgrwt>
<rscale>  4 0.29662170E+03</rscale>
<asrwt>0</asrwt>
<pdfrwt beam="1">  1       21 0.15851328E-01 0.29662170E+03</pdfrwt>
<pdfrwt beam="2">  1       21 0.17815483E+00 0.29662170E+03</pdfrwt>
<totfact> 0.61767860E+03</totfact>
</mgrwt>
</event>
<event>
 5    0  0.1856407E+000  0.3640731E+03  0.7546771E-02  0.1056983E+00
         21   -1    0    0  502  501  0.00000000000E+00  0.00000000000E+00  0.93352434645E+03  0.93352434645E+03  0.00000000000E+00 0. -1.
         21   -1    0    0  503  502 -0.00000000000E+00 -0.00000000000E+00 -0.14615581152E+03  0.14615581152E+03  0.00000000000E+00 0. -1.
         25    1    1    2    0    0  0.29809476430E+03  0.16752244578E+03  0.51992906476E+03  0.63472473618E+03  0.12500000000E+03 0.  0.
         21    1    1    2  503  504 -0.13946271783E+03 -0.52824411638E+02  0.62951220006E+02  0.16187379105E+03  0.00000000000E+00 0. -1.
         21    1    1    2  504  501 -0.15863204646E+03 -0.11469803414E+03  0.20448825017E+03  0.28308163073E+03  0.00000000000E+00 0. -1.
<mgrwt>
<rscale>  4 0.36407315E+03</rscale>
<asrwt>0</asrwt>
<pdfrwt beam="1">  1       21 0.14361913E+00 0.36407315E+03</pdfrwt>
<pdfrwt beam="2">  1       21 0.22485510E-01 0.36407315E+03</pdfrwt>
<totfact> 0.56035464E+03</totfact>
</mgrwt>
</event>
<event>
 5    0  0.1856407E+000  0.2490257E+03  0.7546771E-02  0.1113922E+00
         21   -1    0    0  502  501  0.00000000000E+00  0.00000000000E+00  0.25067491011E+03  0.25067491011E+03  0.00000000000E+00 0. -1.
         21   -1    0    0  503  502 -0.00000000000E+00 -0.00000000000E+00 -0.53805978506E+03  0.53805978506E+03  0.00000000000E+00 0. -1.
         25    1    1    2    0    0  0.14870941427E+03 -0.19233366813E+03  0.11169566514E+03  0.29530941638E+03  0.12500000000E+03 0.  0.
         21    1    1    2  503  504 -0.11273650544E+03  0.31359543897E+02 -0.22500906253E+03  0.25361785993E+03  0.00000000000E+00 0. -1.
         21    1    1    2  504  501 -0.35972908825E+02  0.16097412423E+03 -0.17407147756E+03  0.23980741886E+03  0.00000000000E+00 0. -1.
<mgrwt>
<rscale>  4 0.24902574E+03</rscale>
<asrwt>0</asrwt>
<pdfrwt beam="1">  1       21 0.38565371E-01 0.24902574E+03</pdfrwt>
<pdfrwt beam="2">  1       21 0.82778428E-01 0.24902574E+03</pdfrwt>
<totfact> 0.79535596E+03</totfact>
</mgrwt>
</event>
<event>
 5    0  0.1856407E+000  0.3140266E+03  0.7546771E-02  0.1079162E+00
         21   -1    0    0  502  501  0.00000000000E+00  0.00000000000E+00  0.23566290608E+04  0.23566290608E+04  0.00000000000E+00 0. -1.
         21   -1    0    0  503  502 -0.00000000000E+00 -0.00000000000E+00 -0.12272072301E+03  0.12272072301E+03  0.00000000000E+00 0. -1.
         25    1    1    2    0    0  0.51206226801E+02 -0.27668160971E+03  0.21246733207E+04  0.21468666727E+04  0.12500000000E+03 0.  0.
         21    1    1    2  503  504 -0.69557982285E+02  0.13566829711E+03 -0.11508537862E+01  0.15246482941E+03  0.00000000000E+00 0. -1.
         21    1    1    2  504  501  0.18351755484E+02  0.14101331259E+03  0.11038587096E+03  0.18001828175E+03  0.00000000000E+00 0. -1.
<mgrwt>
<rscale>  4 0.31248257E+03</rscale>
<asrwt>0</asrwt>
<pdfrwt beam="1">  1       21 0.36255828E+00 0.31402664E+03</pdfrwt>
<pdfrwt beam="2">  1       21 0.18880113E-01 0.31402664E+03</pdfrwt>
<totfact> 0.32581696E+02</totfact>
</mgrwt>
</event>
<event>
 5    0  0.1856407E+000  0.4526367E+03  0.7546771E-02  0.1026939E+00
         21   -1    0    0  502  501  0.00000000000E+00  0.00000000000E+00  0.52572509254E+03  0.52572509254E+03  0.00000000000E+00 0.  1.
         21   -1    0    0  503  502 -0.00000000000E+00 -0.00000000000E+00 -0.43323413636E+03  0.43323413636E+03  0.00000000000E+00 0.  1.
         25    1    1    2    0    0 -0.42926585700E+03  0.12324932233E+03  0.12568009580E+03  0.48049980013E+03  0.12500000000E+03 0.  0.
         21    1    1    2  503  504  0.25395685478E+02  0.19346088368E+02  0.32024052537E+02  0.45218933169E+02  0.00000000000E+00 0. -1.
         21    1    1    2  504  501  0.40387017153E+03 -0.14259541070E+03 -0.65213192155E+02  0.43324049560E+03  0.00000000000E+00 0.  1.
<mgrwt>
<rscale>  4 0.45263672E+03</rscale>
<asrwt>0</asrwt>
<pdfrwt beam="1">  1       21 0.80880784E-01 0.45263672E+03</pdfrwt>
<pdfrwt beam="2">  1       21 0.66651405E-01 0.45263672E+03</pdfrwt>
<totfact> 0.23972454E+03</totfact>
</mgrwt>
</event>
