<event>
 5    0  0.1911311E+001  0.3214842E+03  0.7546771E-02  0.1074968E+00
         21   -1    0    0  502  501  0.00000000000E+00  0.00000000000E+00  0.53072247052E+03  0.53072247052E+03  0.00000000000E+00 0. -1.
         21   -1    0    0  504  502 -0.00000000000E+00 -0.00000000000E+00 -0.21320784775E+03  0.21320784775E+03  0.00000000000E+00 0. -1.
         25    1    1    2    0    0  0.19535473045E+03  0.22266186981E+03  0.14943523936E+03  0.35453867172E+03  0.12500000000E+03 0.  0.
         21    1    1    2  503  501  0.16137298961E+02 -0.14816412381E+02  0.75701727913E+02  0.78807931724E+02  0.00000000000E+00 0. -1.
         21    1    1    2  504  503 -0.21149202941E+03 -0.20784545743E+03  0.92377655493E+02  0.31058371483E+03  0.00000000000E+00 0. -1.
<mgrwt>
<rscale>  4 0.32148422E+03</rscale>
<asrwt>0</asrwt>
<pdfrwt beam="1">  1       21 0.81649610E-01 0.32148422E+03</pdfrwt>
<pdfrwt beam="2">  1       21 0.32801208E-01 0.32148422E+03</pdfrwt>
<totfact> 0.10964051E+04</totfact>
</mgrwt>
</event>
<event>
 5    0  0.1911311E+001  0.2758800E+03  0.7546771E-02  0.1097961E+00
         21   -1    0    0  502  501  0.00000000000E+00  0.00000000000E+00  0.10030069019E+04  0.10030069019E+04  0.00000000000E+00 0. -1.
         21   -1    0    0  504  502 -0.00000000000E+00 -0.00000000000E+00 -0.24658824340E+03  0.24658824340E+03  0.00000000000E+00 0. -1.
         25    1    1    2    0    0 -0.20309885260E+03 -0.26675455562E+02  0.35472726912E+03  0.42827229576E+03  0.12500000000E+03 0.  0.
         21    1    1    2  503  501 -0.23277704540E+02 -0.94309792114E+02  0.52686793924E+03  0.53574808802E+03  0.00000000000E+00 0. -1.
         21    1    1    2  504  503  0.22637655714E+03  0.12098524768E+03 -0.12517654986E+03  0.28557476151E+03  0.00000000000E+00 0. -1.
<mgrwt>
<rscale>  4 0.27587996E+03</rscale>
<asrwt>0</asrwt>
<pdfrwt beam="1">  1       21 0.15430875E+00 0.27587996E+03</pdfrwt>
<pdfrwt beam="2">  1       21 0.37936653E-01 0.27587996E+03</pdfrwt>
<totfact> 0.17344807E+03</totfact>
</mgrwt>
</event>
<event>
 5    0  0.1911311E+001  0.2750605E+03  0.7546771E-02  0.1098418E+00
         21   -1    0    0  504  501  0.00000000000E+00  0.00000000000E+00  0.45521904339E+03  0.45521904339E+03  0.00000000000E+00 0. -1.
         21   -1    0    0  503  502 -0.00000000000E+00 -0.00000000000E+00 -0.16430463907E+03  0.16430463907E+03  0.00000000000E+00 0. -1.
         25    1    1    2    0    0 -0.10481258082E+03  0.22146694981E+03  0.23871706835E+03  0.36420341251E+03  0.12500000000E+03 0.  0.
         21    1    1    2  503  501  0.87420668181E+02 -0.20007828418E+03  0.30972707630E+02  0.22052891339E+03  0.00000000000E+00 0. -1.
         21    1    1    2  504  502  0.17391912643E+02 -0.21388665636E+02  0.21224628342E+02  0.34791356561E+02  0.00000000000E+00 0. -1.
<mgrwt>
<rscale>  4 0.27506052E+03</rscale>
<asrwt>0</asrwt>
<pdfrwt beam="1">  1       21 0.70033698E-01 0.27506052E+03</pdfrwt>
<pdfrwt beam="2">  1       21 0.25277637E-01 0.27506052E+03</pdfrwt>
<totfact> 0.26357198E+04</totfact>
</mgrwt>
</event>
<event>
 5    0  0.1911311E+001  0.2799272E+03  0.7546771E-02  0.1095729E+00
         21   -1    0    0  502  501  0.00000000000E+00  0.00000000000E+00  0.11034406450E+04  0.11034406450E+04  0.00000000000E+00 0.  1.
         21   -1    0    0  504  502 -0.00000000000E+00 -0.00000000000E+00 -0.13860026930E+03  0.13860026930E+03  0.00000000000E+00 0.  1.
         25    1    1    2    0    0  0.21960880705E+03  0.10557550652E+03  0.65875541428E+02  0.28167144454E+03  0.12500000000E+03 0.  0.
         21    1    1    2  503  501 -0.23353499491E+03 -0.15827741641E+03  0.72044597580E+03  0.77371360234E+03  0.00000000000E+00 0.  1.
         21    1    1    2  504  503  0.13926187867E+02  0.52701909892E+02  0.17851885843E+03  0.18665586738E+03  0.00000000000E+00 0.  1.
<mgrwt>
<rscale>  4 0.27992725E+03</rscale>
<asrwt>0</asrwt>
<pdfrwt beam="1">  1       21 0.16976009E+00 0.27992725E+03</pdfrwt>
<pdfrwt beam="2">  1       21 0.21323119E-01 0.27992725E+03</pdfrwt>
<totfact> 0.41057582E+03</totfact>
</mgrwt>
</event>
<event>
 5    0  0.1911311E+001  0.3447934E+03  0.7546771E-02  0.1064773E+00
         21   -1    0    0  504  501  0.00000000000E+00  0.00000000000E+00  0.31700523007E+03  0.31700523007E+03  0.00000000000E+00 0.  1.
         21   -1    0    0  503  502 -0.00000000000E+00 -0.00000000000E+00 -0.75739657823E+03  0.75739657823E+03  0.00000000000E+00 0. -1.
         25    1    1    2    0    0 -0.33720278689E+03  0.24871466515E+02  0.30069847487E+02  0.36173678975E+03  0.12500000000E+03 0.  0.
         21    1    1    2  503  501  0.31590252891E+03 -0.33792632521E+02 -0.54708115426E+03  0.63264060819E+03  0.00000000000E+00 0. -1.
         21    1    1    2  504  502  0.21300257981E+02  0.89211660063E+01  0.76619958619E+02  0.80024410349E+02  0.00000000000E+00 0. -1.
<mgrwt>
<rscale>  4 0.34479335E+03</rscale>
<asrwt>0</asrwt>
<pdfrwt beam="1">  1       21 0.48770036E-01 0.34479335E+03</pdfrwt>
<pdfrwt beam="2">  1       21 0.11652255E+00 0.34479335E+03</pdfrwt>
<totfact> 0.20536844E+03</totfact>
</mgrwt>
</event>
<event>
 5    0  0.1911311E+001  0.2184465E+03  0.7546771E-02  0.1135047E+00
         21   -1    0    0  503  501  0.00000000000E+00  0.00000000000E+00  0.33834587272E+03  0.33834587272E+03  0.00000000000E+00 0. -1.
         21   -1    0    0  504  502 -0.00000000000E+00 -0.00000000000E+00 -0.10761803644E+04  0.10761803644E+04  0.00000000000E+00 0.  1.
         25    1    1    2    0    0 -0.95825851697E+02 -0.20881398856E+03 -0.89067549894E+03  0.92828536565E+03  0.12500000000E+03 0.  0.
         21    1    1    2  503  502 -0.86468758218E+01  0.64873906177E+02 -0.13377403327E+03  0.14892576722E+03  0.00000000000E+00 0. -1.
         21    1    1    2  504  501  0.10447272752E+03  0.14394008238E+03  0.28661504052E+03  0.33731510426E+03  0.00000000000E+00 0. -1.
<mgrwt>
<rscale>  4 0.21844655E+03</rscale>
<asrwt>0</asrwt>
<pdfrwt beam="1">  1       21 0.52053211E-01 0.21844655E+03</pdfrwt>
<pdfrwt beam="2">  1       21 0.16556621E+00 0.21844655E+03</pdfrwt>
<totfact> 0.78201077E+02</totfact>
</mgrwt>
</event>
