<event>
 5    0  0.2465569E-003  0.4352311E+03  0.7546771E-02  0.1032220E+00
          2   -1    0    0  502    0  0.00000000000E+00  0.00000000000E+00  0.80516630976E+02  0.80516630976E+02  0.00000000000E+00 0.  1.
         -2   -1    0    0    0  501 -0.00000000000E+00 -0.00000000000E+00 -0.10768976824E+04  0.10768976824E+04  0.00000000000E+00 0. -1.
         25    1    1    2    0    0 -0.92756537775E+02 -0.18584108874E+03 -0.47228741494E+03  0.53086823965E+03  0.12500000000E+03 0.  0.
         21    1    1    2  502  503  0.62241109632E+02  0.20785162141E+01  0.80001365609E+01  0.62787563600E+02  0.00000000000E+00 0.  1.
         21    1    1    2  503  501  0.30515428143E+02  0.18376257253E+03 -0.53209377301E+03  0.56375851008E+03  0.00000000000E+00 0. -1.
<mgrwt>
<rscale>  4 0.43523115E+03</rscale>
<asrwt>0</asrwt>
<pdfrwt beam="1">  1        2 0.12387175E-01 0.43523115E+03</pdfrwt>
<pdfrwt beam="2">  1       -2 0.16567656E+00 0.43523115E+03</pdfrwt>
<totfact> 0.11914780E+02</totfact>
</mgrwt>
</event>
<event>
 5    0  0.2465569E-003  0.4026591E+03  0.7546771E-02  0.1042863E+00
         -3   -1    0    0    0  501 -0.00000000000E+00  0.00000000000E+00  0.61828328424E+02  0.61828328424E+02  0.00000000000E+00 0.  1.
          3   -1    0    0  503    0  0.00000000000E+00 -0.00000000000E+00 -0.12544066232E+04  0.12544066232E+04  0.00000000000E+00 0. -1.
         25    1    1    2    0    0  0.20288882686E+03 -0.70060306671E+02 -0.38364767352E+03  0.45703704449E+03  0.12500000000E+03 0.  0.
         21    1    1    2  502  501 -0.13465674366E+03  0.75259192246E+02 -0.23439737547E+03  0.28060383863E+03  0.00000000000E+00 0. -1.
         21    1    1    2  503  502 -0.68232083204E+02 -0.51988855758E+01 -0.57453324584E+03  0.57859406855E+03  0.00000000000E+00 0.  1.
<mgrwt>
<rscale>  4 0.40265915E+03</rscale>
<asrwt>0</asrwt>
<pdfrwt beam="1">  1        3 0.19298564E+00 0.40265915E+03</pdfrwt>
<pdfrwt beam="2">  1       -3 0.95120505E-02 0.40265915E+03</pdfrwt>
<totfact> 0.35981409E+01</totfact>
</mgrwt>
</event>
<event>
 5    0  0.2465569E-003  0.5388349E+03  0.7546771E-02  0.1004112E+00
         -2   -1    0    0    0  501 -0.00000000000E+00  0.00000000000E+00  0.12412595068E+03  0.12412595068E+03  0.00000000000E+00 0.  1.
          2   -1    0    0  503    0  0.00000000000E+00 -0.00000000000E+00 -0.58477507010E+03  0.58477507010E+03  0.00000000000E+00 0. -1.
         25    1    1    2    0    0  0.21124410689E+03  0.12193679484E+03 -0.20332577129E+03  0.34126093228E+03  0.12500000000E+03 0.  0.
         21    1    1    2  502  501 -0.98197333352E+02 -0.82648531858E+02 -0.19296947122E+03  0.23175571820E+03  0.00000000000E+00 0. -1.
         21    1    1    2  503  502 -0.11304677354E+03 -0.39288262979E+02 -0.64353876916E+02  0.13588437029E+03  0.00000000000E+00 0.  1.
<mgrwt>
<rscale>  4 0.53883490E+03</rscale>
<asrwt>0</asrwt>
<pdfrwt beam="1">  1        2 0.89965392E-01 0.53883490E+03</pdfrwt>
<pdfrwt beam="2">  1       -2 0.19096301E-01 0.53883490E+03</pdfrwt>
<totfact> 0.11862476E+03</totfact>
</mgrwt>
</event>
<event>
 5    0  0.2465569E-003  0.8439873E+03  0.7546771E-02  0.9498443E-01
         -1   -1    0    0    0  501 -0.00000000000E+00  0.00000000000E+00  0.41429172974E+03  0.41429172974E+03  0.00000000000E+00 0.  1.
          1   -1    0    0  502    0  0.00000000000E+00 -0.00000000000E+00 -0.68747392086E+03  0.68747392086E+03  0.00000000000E+00 0. -1.
         25    1    1    2    0    0 -0.29617155244E+03  0.20247776157E+03 -0.78708630750E+02  0.38798824849E+03  0.12500000000E+03 0.  0.
         21    1    1    2  502  503  0.22394087255E+03 -0.40008270224E+03 -0.20690869667E+03  0.50301778476E+03  0.00000000000E+00 0.  1.
         21    1    1    2  503  501  0.72230679892E+02  0.19760494067E+03  0.12435136304E+02  0.21075961736E+03  0.00000000000E+00 0.  1.
<mgrwt>
<rscale>  4 0.84398726E+03</rscale>
<asrwt>0</asrwt>
<pdfrwt beam="1">  1        1 0.10576522E+00 0.84398726E+03</pdfrwt>
<pdfrwt beam="2">  1       -1 0.63737190E-01 0.84398726E+03</pdfrwt>
<totfact> 0.70818248E+01</totfact>
</mgrwt>
</event>
<event>
 5    0  0.2465569E-003  0.5101110E+03  0.7546771E-02  0.1011173E+00
         -1   -1    0    0    0  501 -0.00000000000E+00  0.00000000000E+00  0.15389329406E+03  0.15389329406E+03  0.00000000000E+00 0.  1.
          1   -1    0    0  503    0  0.00000000000E+00 -0.00000000000E+00 -0.10650508843E+04  0.10650508843E+04  0.00000000000E+00 0. -1.
         25    1    1    2    0    0  0.18452287592E+03  0.12575580617E+03 -0.30045000404E+03  0.39466241201E+03  0.12500000000E+03 0.  0.
         21    1    1    2  502  501 -0.10394614145E+03 -0.15421874947E+03  0.20690902819E+02  0.18712652530E+03  0.00000000000E+00 0.  1.
         21    1    1    2  503  502 -0.80576734467E+02  0.28462943296E+02 -0.63139848906E+03  0.63715524110E+03  0.00000000000E+00 0. -1.
<mgrwt>
<rscale>  4 0.51011098E+03</rscale>
<asrwt>0</asrwt>
<pdfrwt beam="1">  1        1 0.16385398E+00 0.51011098E+03</pdfrwt>
<pdfrwt beam="2">  1       -1 0.23675891E-01 0.51011098E+03</pdfrwt>
<totfact> 0.21385353E+02</totfact>
</mgrwt>
</event>
<event>
 5    0  0.2465569E-003  0.4990794E+03  0.7546771E-02  0.1014019E+00
          2   -1    0    0  502    0  0.00000000000E+00  0.00000000000E+00  0.12083587783E+04  0.12083587783E+04  0.00000000000E+00 0.  1.
         -2   -1    0    0    0  501 -0.00000000000E+00 -0.00000000000E+00 -0.16321212947E+03  0.16321212947E+03  0.00000000000E+00 0. -1.
         25    1    1    2    0    0  0.34752034140E+02  0.27245713320E+03  0.80268598478E+02  0.31226373663E+03  0.12500000000E+03 0.  0.
         21    1    1    2  502  503 -0.12785679726E+03 -0.12162630448E+03  0.79302893536E+03  0.81242551096E+03  0.00000000000E+00 0.  1.
         21    1    1    2  503  501  0.93104763118E+02 -0.15083082872E+03  0.17184911500E+03  0.24688166019E+03  0.00000000000E+00 0.  1.
<mgrwt>
<rscale>  4 0.49907939E+03</rscale>
<asrwt>0</asrwt>
<pdfrwt beam="1">  1        2 0.18590134E+00 0.49907939E+03</pdfrwt>
<pdfrwt beam="2">  1       -2 0.25109559E-01 0.49907939E+03</pdfrwt>
<totfact> 0.27382080E+02</totfact>
</mgrwt>
</event>
<event>
 5    0  0.2465569E-003  0.4674907E+03  0.7546771E-02  0.1022631E+00
          2   -1    0    0  503    0  0.00000000000E+00  0.00000000000E+00  0.10609005593E+04  0.10609005593E+04  0.00000000000E+00 0. -1.
         -2   -1    0    0    0  501 -0.00000000000E+00 -0.00000000000E+00 -0.10156829355E+03  0.10156829355E+03  0.00000000000E+00 0.  1.
         25    1    1    2    0    0 -0.96208441318E+02  0.19601921413E+03  0.68773752554E+03  0.73231653028E+03  0.12500000000E+03 0.  0.
         21    1    1    2  502  501 -0.35446486446E+02 -0.44965753296E+02 -0.32604562378E+02  0.65889527686E+02  0.00000000000E+00 0.  1.
         21    1    1    2  503  502  0.13165492776E+03 -0.15105346084E+03  0.30419930256E+03  0.36426279485E+03  0.00000000000E+00 0. -1.
<mgrwt>
<rscale>  4 0.46749069E+03</rscale>
<asrwt>0</asrwt>
<pdfrwt beam="1">  1        2 0.16321546E+00 0.46749069E+03</pdfrwt>
<pdfrwt beam="2">  1       -2 0.15625892E-01 0.46749069E+03</pdfrwt>
<totfact> 0.76517230E+02</totfact>
</mgrwt>
</event>
<event>
 5    0  0.2465569E-003  0.7972723E+03  0.7546771E-02  0.9563974E-01
          2   -1    0    0  503    0  0.00000000000E+00  0.00000000000E+00  0.10824755853E+04  0.10824755853E+04  0.00000000000E+00 0. -1.
         -2   -1    0    0    0  501 -0.00000000000E+00 -0.00000000000E+00 -0.31420705014E+03  0.31420705014E+03  0.00000000000E+00 0.  1.
         25    1    1    2    0    0  0.81849230538E+02 -0.37329112812E+03  0.37305846193E+03  0.54849173092E+03  0.12500000000E+03 0.  0.
         21    1    1    2  502  501  0.12501567062E+03  0.24417037579E+03 -0.10339134456E+03  0.29315159977E+03  0.00000000000E+00 0. -1.
         21    1    1    2  503  502 -0.20686490116E+03  0.12912075232E+03  0.49860141782E+03  0.55503930480E+03  0.00000000000E+00 0. -1.
<mgrwt>
<rscale>  4 0.79727231E+03</rscale>
<asrwt>0</asrwt>
<pdfrwt beam="1">  1        2 0.16653470E+00 0.79727231E+03</pdfrwt>
<pdfrwt beam="2">  1       -2 0.48339547E-01 0.79727231E+03</pdfrwt>
<totfact> 0.91536876E+01</totfact>
</mgrwt>
</event>
<event>
 5    0  0.2465569E-003  0.5209164E+03  0.7546771E-02  0.1008459E+00
         -2   -1    0    0    0  501 -0.00000000000E+00  0.00000000000E+00  0.12097178649E+03  0.12097178649E+03  0.00000000000E+00 0.  1.
          2   -1    0    0  502    0  0.00000000000E+00 -0.00000000000E+00 -0.10114644383E+04  0.10114644383E+04  0.00000000000E+00 0. -1.
         25    1    1    2    0    0  0.24994707698E+03  0.79546930401E+01 -0.45075272619E+03  0.53041477977E+03  0.12500000000E+03 0.  0.
         21    1    1    2  502  503 -0.93211546776E+02  0.14850091442E+03 -0.27446945097E+03  0.32569064087E+03  0.00000000000E+00 0. -1.
         21    1    1    2  503  501 -0.15673553020E+03 -0.15645560746E+03 -0.16527047467E+03  0.27633080417E+03  0.00000000000E+00 0.  1.
<mgrwt>
<rscale>  4 0.52091636E+03</rscale>
<asrwt>0</asrwt>
<pdfrwt beam="1">  1        2 0.15560992E+00 0.52091636E+03</pdfrwt>
<pdfrwt beam="2">  1       -2 0.18611044E-01 0.52091636E+03</pdfrwt>
<totfact> 0.60809438E+02</totfact>
</mgrwt>
</event>
<event>
 5    0  0.2465569E-003  0.2130241E+04  0.7546771E-02  0.8548038E-01
          2   -1    0    0  502    0  0.00000000000E+00  0.00000000000E+00  0.23855463216E+04  0.23855463216E+04  0.00000000000E+00 0. -1.
         -2   -1    0    0    0  501 -0.00000000000E+00 -0.00000000000E+00 -0.73232271530E+03  0.73232271530E+03  0.00000000000E+00 0.  1.
         25    1    1    2    0    0  0.40411030524E+03  0.11677982526E+03  0.14628442731E+04  0.15272462256E+04  0.12500000000E+03 0.  0.
         21    1    1    2  502  503  0.63789239448E+00 -0.87519149179E+02  0.82920085048E+03  0.83380696736E+03  0.00000000000E+00 0. -1.
         21    1    1    2  503  501 -0.40474819763E+03 -0.29260676080E+02 -0.63882151727E+03  0.75681584390E+03  0.00000000000E+00 0.  1.
<mgrwt>
<rscale>  4 0.21302408E+04</rscale>
<asrwt>0</asrwt>
<pdfrwt beam="1">  1        2 0.36700712E+00 0.21302408E+04</pdfrwt>
<pdfrwt beam="2">  1       -2 0.11266503E+00 0.21302408E+04</pdfrwt>
<totfact> 0.22779444E+00</totfact>
</mgrwt>
</event>
<event>
 5    0  0.2465569E-003  0.6985381E+03  0.7546771E-02  0.9719736E-01
          2   -1    0    0  502    0  0.00000000000E+00  0.00000000000E+00  0.26586916722E+04  0.26586916722E+04  0.00000000000E+00 0. -1.
         -2   -1    0    0    0  501 -0.00000000000E+00 -0.00000000000E+00 -0.69675207702E+02  0.69675207702E+02  0.00000000000E+00 0.  1.
         25    1    1    2    0    0  0.12298000466E+03  0.17551177492E+03  0.18996369319E+04  0.19157698029E+04  0.12500000000E+03 0.  0.
         21    1    1    2  502  503 -0.10633351540E+03  0.10281882105E+03  0.28959606454E+03  0.32518365127E+03  0.00000000000E+00 0.  1.
         21    1    1    2  503  501 -0.16646489261E+02 -0.27833059597E+03  0.39978346812E+03  0.48741342579E+03  0.00000000000E+00 0.  1.
<mgrwt>
<rscale>  4 0.69853808E+03</rscale>
<asrwt>0</asrwt>
<pdfrwt beam="1">  1        2 0.40902941E+00 0.69853808E+03</pdfrwt>
<pdfrwt beam="2">  1       -2 0.10719265E-01 0.69853808E+03</pdfrwt>
<totfact> 0.18061633E+02</totfact>
</mgrwt>
</event>
<event>
 5    0  0.2465569E-003  0.6341007E+03  0.7546771E-02  0.9837079E-01
         -2   -1    0    0    0  501 -0.00000000000E+00  0.00000000000E+00  0.10155023168E+03  0.10155023168E+03  0.00000000000E+00 0. -1.
          2   -1    0    0  502    0  0.00000000000E+00 -0.00000000000E+00 -0.12427544033E+04  0.12427544033E+04  0.00000000000E+00 0.  1.
         25    1    1    2    0    0  0.11994356121E+03  0.17189613587E+03 -0.91401377253E+03  0.94603431004E+03  0.12500000000E+03 0.  0.
         21    1    1    2  502  503 -0.24508942001E+02 -0.37516195802E+02 -0.22909737116E+03  0.23343898273E+03  0.00000000000E+00 0.  1.
         21    1    1    2  503  501 -0.95434619209E+02 -0.13437994007E+03  0.19069720516E+01  0.16483134222E+03  0.00000000000E+00 0. -1.
<mgrwt>
<rscale>  4 0.63410069E+03</rscale>
<asrwt>0</asrwt>
<pdfrwt beam="1">  1        2 0.19119299E+00 0.63410069E+03</pdfrwt>
<pdfrwt beam="2">  1       -2 0.15623112E-01 0.63410069E+03</pdfrwt>
<totfact> 0.59189330E+02</totfact>
</mgrwt>
</event>
<event>
 5    0  0.2465569E-003  0.1098367E+04  0.7546771E-02  0.9206785E-01
          1   -1    0    0  502    0  0.00000000000E+00  0.00000000000E+00  0.11434659861E+04  0.11434659861E+04  0.00000000000E+00 0. -1.
         -1   -1    0    0    0  501 -0.00000000000E+00 -0.00000000000E+00 -0.49705453601E+03  0.49705453601E+03  0.00000000000E+00 0.  1.
         25    1    1    2    0    0  0.35801652835E+03  0.18755607303E+03  0.22241195785E+03  0.47795940633E+03  0.12500000000E+03 0.  0.
         21    1    1    2  502  503 -0.61282277763E+03 -0.26358705860E+03  0.55346904711E+03  0.86680902185E+03  0.00000000000E+00 0. -1.
         21    1    1    2  503  501  0.25480624928E+03  0.76030985578E+02 -0.12946955486E+03  0.29575209395E+03  0.00000000000E+00 0.  1.
<mgrwt>
<rscale>  4 0.10983673E+04</rscale>
<asrwt>0</asrwt>
<pdfrwt beam="1">  1        1 0.17591784E+00 0.10983673E+04</pdfrwt>
<pdfrwt beam="2">  1       -1 0.76469929E-01 0.10983673E+04</pdfrwt>
<totfact> 0.20088530E+01</totfact>
</mgrwt>
</event>
<event>
 5    0  0.2465569E-003  0.5909778E+03  0.7546771E-02  0.9924303E-01
         -1   -1    0    0    0  501 -0.00000000000E+00  0.00000000000E+00  0.12830881320E+03  0.12830881320E+03  0.00000000000E+00 0.  1.
          1   -1    0    0  503    0  0.00000000000E+00 -0.00000000000E+00 -0.12442342575E+04  0.12442342575E+04  0.00000000000E+00 0. -1.
         25    1    1    2    0    0 -0.32239424845E+03 -0.83589519449E+02 -0.50053836759E+03  0.61407566034E+03  0.12500000000E+03 0.  0.
         21    1    1    2  502  501  0.19886897486E+03  0.55008758353E+02 -0.10298006828E+03  0.23060730067E+03  0.00000000000E+00 0. -1.
         21    1    1    2  503  502  0.12352527358E+03  0.28580761096E+02 -0.51240700838E+03  0.52786010964E+03  0.00000000000E+00 0. -1.
<mgrwt>
<rscale>  4 0.59097784E+03</rscale>
<asrwt>0</asrwt>
<pdfrwt beam="1">  1        1 0.19142065E+00 0.59097784E+03</pdfrwt>
<pdfrwt beam="2">  1       -1 0.19739818E-01 0.59097784E+03</pdfrwt>
<totfact> 0.21306340E+02</totfact>
</mgrwt>
</event>
<event>
 5    0  0.2465569E-003  0.8430359E+03  0.7546771E-02  0.9499732E-01
         -2   -1    0    0    0  501 -0.00000000000E+00  0.00000000000E+00  0.25522404325E+03  0.25522404325E+03  0.00000000000E+00 0.  1.
          2   -1    0    0  503    0  0.00000000000E+00 -0.00000000000E+00 -0.12641530137E+04  0.12641530137E+04  0.00000000000E+00 0. -1.
         25    1    1    2    0    0 -0.20723705105E+03 -0.26353618158E+03 -0.37980724443E+03  0.52180174132E+03  0.12500000000E+03 0.  0.
         21    1    1    2  502  501  0.18049775469E+03  0.39572560227E+03 -0.93036053678E+02  0.44478522798E+03  0.00000000000E+00 0.  1.
         21    1    1    2  503  502  0.26739296358E+02 -0.13218942070E+03 -0.53608567239E+03  0.55279008769E+03  0.00000000000E+00 0.  1.
<mgrwt>
<rscale>  4 0.84303593E+03</rscale>
<asrwt>0</asrwt>
<pdfrwt beam="1">  1        2 0.19448508E+00 0.84303593E+03</pdfrwt>
<pdfrwt beam="2">  1       -2 0.39265238E-01 0.84303593E+03</pdfrwt>
<totfact> 0.10727342E+02</totfact>
</mgrwt>
</event>
<event>
 5    0  0.2465569E-003  0.8456381E+03  0.7546771E-02  0.9496210E-01
         -1   -1    0    0    0  501 -0.00000000000E+00  0.00000000000E+00  0.11689394357E+03  0.11689394357E+03  0.00000000000E+00 0.  1.
          1   -1    0    0  503    0  0.00000000000E+00 -0.00000000000E+00 -0.18180362263E+04  0.18180362263E+04  0.00000000000E+00 0. -1.
         25    1    1    2    0    0 -0.19540479019E+03  0.27155659346E+03 -0.11632211618E+04  0.12168132506E+04  0.12500000000E+03 0.  0.
         21    1    1    2  502  501  0.23293684223E+03 -0.26907500406E+03 -0.26781714586E+03  0.44540650410E+03  0.00000000000E+00 0.  1.
         21    1    1    2  503  502 -0.37532052034E+02 -0.24815893973E+01 -0.27010397504E+03  0.27271041518E+03  0.00000000000E+00 0. -1.
<mgrwt>
<rscale>  4 0.84563815E+03</rscale>
<asrwt>0</asrwt>
<pdfrwt beam="1">  1        1 0.27969787E+00 0.84563815E+03</pdfrwt>
<pdfrwt beam="2">  1       -1 0.17983685E-01 0.84563815E+03</pdfrwt>
<totfact> 0.98411927E+01</totfact>
</mgrwt>
</event>
