<event>
 5    0  0.1257040E+001  0.2443031E+03  0.7546771E-02  0.1116959E+00
         21   -1    0    0  504  501  0.00000000000E+00  0.00000000000E+00  0.20976698571E+03  0.20976698571E+03  0.00000000000E+00 0.  1.
         21   -1    0    0  503  502 -0.00000000000E+00 -0.00000000000E+00 -0.41298446301E+03  0.41298446301E+03  0.00000000000E+00 0.  1.
         25    1    1    2    0    0  0.16644851739E+03 -0.18003500491E+03 -0.12216406697E+03  0.30110923465E+03  0.12500000000E+03 0.  0.
         21    1    1    2  503  501 -0.58660251354E+02  0.18498258892E+03 -0.88902258436E+02  0.21345536969E+03  0.00000000000E+00 0.  1.
         21    1    1    2  504  502 -0.10778826603E+03 -0.49475840124E+01  0.78488481111E+01  0.10818684439E+03  0.00000000000E+00 0.  1.
<mgrwt>
<rscale>  4 0.24430309E+03</rscale>
<asrwt>0</asrwt>
<pdfrwt beam="1">  1       21 0.32271844E-01 0.24430309E+03</pdfrwt>
<pdfrwt beam="2">  1       21 0.63536071E-01 0.24430309E+03</pdfrwt>
<totfact> 0.20560773E+04</totfact>
</mgrwt>
</event>
<event>
 5    0  0.1257040E+001  0.2165611E+03  0.7546771E-02  0.1136473E+00
         21   -1    0    0  502  501  0.00000000000E+00  0.00000000000E+00  0.58581570827E+03  0.58581570827E+03  0.00000000000E+00 0.  1.
         21   -1    0    0  504  502 -0.00000000000E+00 -0.00000000000E+00 -0.21626506497E+03  0.21626506497E+03  0.00000000000E+00 0. -1.
         25    1    1    2    0    0 -0.18146368909E+03  0.11837457147E+03 -0.49339709546E+02  0.25495296932E+03  0.12500000000E+03 0.  0.
         21    1    1    2  503  501  0.14481022103E+03 -0.94135224825E+02  0.45725865731E+03  0.48879128506E+03  0.00000000000E+00 0.  1.
         21    1    1    2  504  503  0.36653468059E+02 -0.24239346641E+02 -0.38368304457E+02  0.58336518865E+02  0.00000000000E+00 0. -1.
<mgrwt>
<rscale>  4 0.21656114E+03</rscale>
<asrwt>0</asrwt>
<pdfrwt beam="1">  1       21 0.90125492E-01 0.21656114E+03</pdfrwt>
<pdfrwt beam="2">  1       21 0.33271549E-01 0.21656114E+03</pdfrwt>
<totfact> 0.89595179E+03</totfact>
</mgrwt>
</event>
<event>
 5    0  0.1257040E+001  0.3067682E+03  0.7546771E-02  0.1081905E+00
         21   -1    0    0  503  501  0.00000000000E+00  0.00000000000E+00  0.68761365780E+03  0.68761365780E+03  0.00000000000E+00 0. -1.
         21   -1    0    0  504  502 -0.00000000000E+00 -0.00000000000E+00 -0.30508259179E+03  0.30508259179E+03  0.00000000000E+00 0. -1.
         25    1    1    2    0    0  0.16001293626E+02 -0.31389007408E+03  0.42593713652E+03  0.54390299160E+03  0.12500000000E+03 0.  0.
         21    1    1    2  503  502  0.11817882370E+03  0.10587537389E+03 -0.10925716242E+03  0.19264723384E+03  0.00000000000E+00 0. -1.
         21    1    1    2  504  501 -0.13418011733E+03  0.20801470019E+03  0.65851091907E+02  0.25614602415E+03  0.00000000000E+00 0. -1.
<mgrwt>
<rscale>  4 0.30676816E+03</rscale>
<asrwt>0</asrwt>
<pdfrwt beam="1">  1       21 0.10578672E+00 0.30676816E+03</pdfrwt>
<pdfrwt beam="2">  1       21 0.46935784E-01 0.30676816E+03</pdfrwt>
<totfact> 0.28813361E+03</totfact>
</mgrwt>
</event>
<event>
 5    0  0.1257040E+001  0.1950810E+03  0.7546771E-02  0.1153957E+00
         21   -1    0    0  504  501  0.00000000000E+00  0.00000000000E+00  0.21169546639E+03  0.21169546639E+03  0.00000000000E+00 0.  1.
         21   -1    0    0  503  502 -0.00000000000E+00 -0.00000000000E+00 -0.36983228527E+03  0.36983228527E+03  0.00000000000E+00 0.  1.
         25    1    1    2    0    0 -0.13610640335E+03 -0.15413196180E+03  0.53167554277E+02  0.24644148090E+03  0.12500000000E+03 0.  0.
         21    1    1    2  503  501  0.82668829673E+02  0.11577700110E+03 -0.22659831288E+03  0.26755419036E+03  0.00000000000E+00 0.  1.
         21    1    1    2  504  502  0.53437573679E+02  0.38354960698E+02  0.15293939716E+02  0.67532080398E+02  0.00000000000E+00 0.  1.
<mgrwt>
<rscale>  4 0.19508097E+03</rscale>
<asrwt>0</asrwt>
<pdfrwt beam="1">  1       21 0.32568534E-01 0.19508097E+03</pdfrwt>
<pdfrwt beam="2">  1       21 0.56897274E-01 0.19508097E+03</pdfrwt>
<totfact> 0.26299760E+04</totfact>
</mgrwt>
</event>
<event>
 5    0  0.1257040E+001  0.2248263E+03  0.7546771E-02  0.1130335E+00
         21   -1    0    0  503  501  0.00000000000E+00  0.00000000000E+00  0.36283907255E+03  0.36283907255E+03  0.00000000000E+00 0.  1.
         21   -1    0    0  504  502 -0.00000000000E+00 -0.00000000000E+00 -0.27062627488E+03  0.27062627488E+03  0.00000000000E+00 0.  1.
         25    1    1    2    0    0  0.43854819885E+01 -0.27257629828E+03  0.21447796970E+02  0.30066938459E+03  0.12500000000E+03 0.  0.
         21    1    1    2  503  502 -0.18885634668E+02  0.11036876146E+03 -0.57147930675E+02  0.12571323194E+03  0.00000000000E+00 0.  1.
         21    1    1    2  504  501  0.14500152679E+02  0.16220753682E+03  0.12791293137E+03  0.20708273091E+03  0.00000000000E+00 0.  1.
<mgrwt>
<rscale>  4 0.22482634E+03</rscale>
<asrwt>0</asrwt>
<pdfrwt beam="1">  1       21 0.55821396E-01 0.22482634E+03</pdfrwt>
<pdfrwt beam="2">  1       21 0.41634811E-01 0.22482634E+03</pdfrwt>
<totfact> 0.16467414E+04</totfact>
</mgrwt>
</event>
<event>
 5    0  0.1257040E+001  0.2497474E+03  0.7546771E-02  0.1113465E+00
         21   -1    0    0  504  501  0.00000000000E+00  0.00000000000E+00  0.45661592756E+03  0.45661592756E+03  0.00000000000E+00 0. -1.
         21   -1    0    0  503  502 -0.00000000000E+00 -0.00000000000E+00 -0.28025113180E+03  0.28025113180E+03  0.00000000000E+00 0. -1.
         25    1    1    2    0    0 -0.10646404632E+03 -0.23393905616E+03  0.28866657761E+03  0.40622095980E+03  0.12500000000E+03 0.  0.
         21    1    1    2  503  501  0.12374199046E+03  0.17022270297E+03 -0.14638255849E+03  0.25635074067E+03  0.00000000000E+00 0. -1.
         21    1    1    2  504  502 -0.17277944145E+02  0.63716353190E+02  0.34080776640E+02  0.74295358900E+02  0.00000000000E+00 0.  1.
<mgrwt>
<rscale>  4 0.24974740E+03</rscale>
<asrwt>0</asrwt>
<pdfrwt beam="1">  1       21 0.70248604E-01 0.24974740E+03</pdfrwt>
<pdfrwt beam="2">  1       21 0.43115559E-01 0.24974740E+03</pdfrwt>
<totfact> 0.91710240E+03</totfact>
</mgrwt>
</event>
<event>
 5    0  0.1257040E+001  0.3659216E+03  0.7546771E-02  0.1056263E+00
         21   -1    0    0  504  501  0.00000000000E+00  0.00000000000E+00  0.31736529634E+03  0.31736529634E+03  0.00000000000E+00 0. -1.
         21   -1    0    0  503  502 -0.00000000000E+00 -0.00000000000E+00 -0.49605394464E+03  0.49605394464E+03  0.00000000000E+00 0. -1.
         25    1    1    2    0    0  0.19456795305E+03  0.31065613382E+03 -0.15816166330E+01  0.38728726205E+03  0.12500000000E+03 0.  0.
         21    1    1    2  503  501 -0.18434201019E+03 -0.27706426822E+03 -0.19604314547E+03  0.38623762159E+03  0.00000000000E+00 0. -1.
         21    1    1    2  504  502 -0.10225942857E+02 -0.33591865601E+02  0.18936113807E+02  0.39894357345E+02  0.00000000000E+00 0. -1.
<mgrwt>
<rscale>  4 0.36592162E+03</rscale>
<asrwt>0</asrwt>
<pdfrwt beam="1">  1       21 0.48825430E-01 0.36592162E+03</pdfrwt>
<pdfrwt beam="2">  1       21 0.76315992E-01 0.36592162E+03</pdfrwt>
<totfact> 0.55616731E+03</totfact>
</mgrwt>
</event>
<event>
 5    0  0.1257040E+001  0.2255488E+03  0.7546771E-02  0.1129812E+00
         21   -1    0    0  502  501  0.00000000000E+00  0.00000000000E+00  0.14089195844E+04  0.14089195844E+04  0.00000000000E+00 0. -1.
         21   -1    0    0  504  502 -0.00000000000E+00 -0.00000000000E+00 -0.37581815844E+02  0.37581815844E+02  0.00000000000E+00 0. -1.
         25    1    1    2    0    0  0.78150224889E+02 -0.18652342255E+03  0.58276005250E+03  0.62939075589E+03  0.12500000000E+03 0.  0.
         21    1    1    2  503  501 -0.10521160540E+02  0.18479041086E+02  0.27440371924E+02  0.34715180972E+02  0.00000000000E+00 0. -1.
         21    1    1    2  504  503 -0.67629064348E+02  0.16804438147E+03  0.76113734413E+03  0.78239546338E+03  0.00000000000E+00 0. -1.
<mgrwt>
<rscale>  4 0.22554885E+03</rscale>
<asrwt>0</asrwt>
<pdfrwt beam="1">  1       21 0.21675682E+00 0.22554885E+03</pdfrwt>
<pdfrwt beam="2">  1       21 0.57818189E-02 0.22554885E+03</pdfrwt>
<totfact> 0.21587976E+04</totfact>
</mgrwt>
</event>
<event>
 5    0  0.1257040E+001  0.2504653E+03  0.7546771E-02  0.1113011E+00
         21   -1    0    0  503  501  0.00000000000E+00  0.00000000000E+00  0.83211673804E+03  0.83211673804E+03  0.00000000000E+00 0.  1.
         21   -1    0    0  501  502 -0.00000000000E+00 -0.00000000000E+00 -0.13928685614E+03  0.13928685614E+03  0.00000000000E+00 0.  1.
         25    1    1    2    0    0 -0.17427651312E+03  0.18897947656E+03  0.59586621175E+03  0.66088356606E+03  0.12500000000E+03 0.  0.
         21    1    1    2  503  504  0.13540128106E+03 -0.16064359673E+03  0.90315127068E+01  0.21028894480E+03  0.00000000000E+00 0.  1.
         21    1    1    2  504  502  0.38875232060E+02 -0.28335879830E+02  0.87932157436E+02  0.10023108333E+03  0.00000000000E+00 0.  1.
<mgrwt>
<rscale>  4 0.25046534E+03</rscale>
<asrwt>0</asrwt>
<pdfrwt beam="1">  1       21 0.12801796E+00 0.25046534E+03</pdfrwt>
<pdfrwt beam="2">  1       21 0.21428748E-01 0.25046534E+03</pdfrwt>
<totfact> 0.87656726E+03</totfact>
</mgrwt>
</event>
<event>
 5    0  0.1257040E+001  0.2719261E+03  0.7546771E-02  0.1100182E+00
         21   -1    0    0  503  501  0.00000000000E+00  0.00000000000E+00  0.20840352716E+03  0.20840352716E+03  0.00000000000E+00 0. -1.
         21   -1    0    0  504  502 -0.00000000000E+00 -0.00000000000E+00 -0.64208789032E+03  0.64208789032E+03  0.00000000000E+00 0. -1.
         25    1    1    2    0    0 -0.27077861009E+02  0.27327035221E+03 -0.39562311229E+03  0.49754652338E+03  0.12500000000E+03 0.  0.
         21    1    1    2  503  502  0.31899268280E+02 -0.38266073720E+02 -0.98380504508E+02  0.11027501703E+03  0.00000000000E+00 0.  1.
         21    1    1    2  504  501 -0.48214072716E+01 -0.23500427849E+03  0.60319253641E+02  0.24266987707E+03  0.00000000000E+00 0. -1.
<mgrwt>
<rscale>  4 0.27192610E+03</rscale>
<asrwt>0</asrwt>
<pdfrwt beam="1">  1       21 0.32062081E-01 0.27192610E+03</pdfrwt>
<pdfrwt beam="2">  1       21 0.98782752E-01 0.27192610E+03</pdfrwt>
<totfact> 0.75172887E+03</totfact>
</mgrwt>
</event>
<event>
 5    0  0.1257040E+001  0.2588642E+03  0.7546771E-02  0.1107828E+00
         21   -1    0    0  504  501  0.00000000000E+00  0.00000000000E+00  0.10516216476E+04  0.10516216476E+04  0.00000000000E+00 0.  1.
         21   -1    0    0  503  502 -0.00000000000E+00 -0.00000000000E+00 -0.26296280833E+03  0.26296280833E+03  0.00000000000E+00 0. -1.
         25    1    1    2    0    0  0.19993609032E+03 -0.59839660641E+02  0.55780260348E+03  0.60854249618E+03  0.12500000000E+03 0.  0.
         21    1    1    2  503  501 -0.21719230175E+03 -0.83499086225E+02 -0.16462198867E+03  0.28503507239E+03  0.00000000000E+00 0. -1.
         21    1    1    2  504  502  0.17256211424E+02  0.14333874687E+03  0.39547822449E+03  0.42100688740E+03  0.00000000000E+00 0.  1.
<mgrwt>
<rscale>  4 0.25886416E+03</rscale>
<asrwt>0</asrwt>
<pdfrwt beam="1">  1       21 0.16178794E+00 0.25886416E+03</pdfrwt>
<pdfrwt beam="2">  1       21 0.40455817E-01 0.25886416E+03</pdfrwt>
<totfact> 0.13551889E+03</totfact>
</mgrwt>
</event>
<event>
 5    0  0.1257040E+001  0.2979628E+03  0.7546771E-02  0.1086263E+00
         21   -1    0    0  504  501  0.00000000000E+00  0.00000000000E+00  0.60762204547E+02  0.60762204547E+02  0.00000000000E+00 0.  1.
         21   -1    0    0  503  502 -0.00000000000E+00 -0.00000000000E+00 -0.17880026485E+04  0.17880026485E+04  0.00000000000E+00 0.  1.
         25    1    1    2    0    0 -0.25434142101E+03  0.13642247936E+02 -0.55118476166E+03  0.61992363308E+03  0.12500000000E+03 0.  0.
         21    1    1    2  503  501 -0.39622214939E+02 -0.15241314477E+02 -0.33937873088E+03  0.34202359649E+03  0.00000000000E+00 0. -1.
         21    1    1    2  504  502  0.29396363595E+03  0.15990665410E+01 -0.83667695146E+03  0.88681762352E+03  0.00000000000E+00 0.  1.
<mgrwt>
<rscale>  4 0.29796285E+03</rscale>
<asrwt>0</asrwt>
<pdfrwt beam="1">  1       21 0.93480322E-02 0.29796285E+03</pdfrwt>
<pdfrwt beam="2">  1       21 0.27507731E+00 0.29796285E+03</pdfrwt>
<totfact> 0.39489765E+03</totfact>
</mgrwt>
</event>
<event>
 5    0  0.1257040E+001  0.3888774E+03  0.7546771E-02  0.1047701E+00
         21   -1    0    0  503  501  0.00000000000E+00  0.00000000000E+00  0.27389613317E+03  0.27389613317E+03  0.00000000000E+00 0. -1.
         21   -1    0    0  504  502 -0.00000000000E+00 -0.00000000000E+00 -0.57810037183E+03  0.57810037183E+03  0.00000000000E+00 0. -1.
         25    1    1    2    0    0  0.55892949402E+02  0.35491426097E+03 -0.17595872505E+03  0.41913557156E+03  0.12500000000E+03 0.  0.
         21    1    1    2  503  502  0.29409746215E+02  0.11245518281E+02 -0.31739169303E+02  0.44707602506E+02  0.00000000000E+00 0.  1.
         21    1    1    2  504  501 -0.85302695617E+02 -0.36615977925E+03 -0.96506344307E+02  0.38815333093E+03  0.00000000000E+00 0. -1.
<mgrwt>
<rscale>  4 0.38887738E+03</rscale>
<asrwt>0</asrwt>
<pdfrwt beam="1">  1       21 0.42137867E-01 0.38887738E+03</pdfrwt>
<pdfrwt beam="2">  1       21 0.88938519E-01 0.38887738E+03</pdfrwt>
<totfact> 0.52609331E+03</totfact>
</mgrwt>
</event>
<event>
 5    0  0.1257040E+001  0.2807650E+03  0.7546771E-02  0.1095272E+00
         21   -1    0    0  502  501  0.00000000000E+00  0.00000000000E+00  0.14916483105E+03  0.14916483105E+03  0.00000000000E+00 0. -1.
         21   -1    0    0  504  502 -0.00000000000E+00 -0.00000000000E+00 -0.15505083136E+04  0.15505083136E+04  0.00000000000E+00 0. -1.
         25    1    1    2    0    0 -0.27181467032E+03  0.91186443591E+02 -0.70066789944E+02  0.32051916877E+03  0.12500000000E+03 0.  0.
         21    1    1    2  503  501  0.34732810013E+02 -0.17954682781E+02 -0.18721434306E+02  0.43350096051E+02  0.00000000000E+00 0.  1.
         21    1    1    2  504  503  0.23708186031E+03 -0.73231760810E+02 -0.13125552583E+04  0.13358038798E+04  0.00000000000E+00 0. -1.
<mgrwt>
<rscale>  4 0.28076504E+03</rscale>
<asrwt>0</asrwt>
<pdfrwt beam="1">  1       21 0.22948436E-01 0.28076504E+03</pdfrwt>
<pdfrwt beam="2">  1       21 0.23853974E+00 0.28076504E+03</pdfrwt>
<totfact> 0.12710301E+03</totfact>
</mgrwt>
</event>
<event>
 5    0  0.1257040E+001  0.2034640E+03  0.7546771E-02  0.1146849E+00
         21   -1    0    0  504  501  0.00000000000E+00  0.00000000000E+00  0.88715749575E+03  0.88715749575E+03  0.00000000000E+00 0. -1.
         21   -1    0    0  501  502 -0.00000000000E+00 -0.00000000000E+00 -0.11304437449E+03  0.11304437449E+03  0.00000000000E+00 0. -1.
         25    1    1    2    0    0 -0.18477678225E+03  0.89963162015E+02  0.65398716418E+03  0.69682138364E+03  0.12500000000E+03 0.  0.
         21    1    1    2  503  502  0.92169580681E+02 -0.77869628564E+02  0.16119802374E+03  0.20135469578E+03  0.00000000000E+00 0. -1.
         21    1    1    2  504  503  0.92607201574E+02 -0.12093533451E+02 -0.41072066658E+02  0.10202579083E+03  0.00000000000E+00 0. -1.
<mgrwt>
<rscale>  4 0.20346395E+03</rscale>
<asrwt>0</asrwt>
<pdfrwt beam="1">  1       21 0.13648576E+00 0.20346395E+03</pdfrwt>
<pdfrwt beam="2">  1       21 0.17391443E-01 0.20346395E+03</pdfrwt>
<totfact> 0.11340033E+04</totfact>
</mgrwt>
</event>
<event>
 5    0  0.1257040E+001  0.2002763E+03  0.7546771E-02  0.1149506E+00
         21   -1    0    0  502  501  0.00000000000E+00  0.00000000000E+00  0.24472286197E+03  0.24472286197E+03  0.00000000000E+00 0.  1.
         21   -1    0    0  504  502 -0.00000000000E+00 -0.00000000000E+00 -0.73126550799E+03  0.73126550799E+03  0.00000000000E+00 0. -1.
         25    1    1    2    0    0  0.21499268608E+03 -0.10541945521E+03  0.28256784201E+02  0.27158527658E+03  0.12500000000E+03 0.  0.
         21    1    1    2  503  501 -0.65237458244E+02  0.81768878587E+02  0.52608878654E+02  0.11708872523E+03  0.00000000000E+00 0.  1.
         21    1    1    2  504  503 -0.14975522783E+03  0.23650576619E+02 -0.56740830888E+03  0.58731436814E+03  0.00000000000E+00 0. -1.
<mgrwt>
<rscale>  4 0.20027632E+03</rscale>
<asrwt>0</asrwt>
<pdfrwt beam="1">  1       21 0.37649672E-01 0.20027632E+03</pdfrwt>
<pdfrwt beam="2">  1       21 0.11250238E+00 0.20027632E+03</pdfrwt>
<totfact> 0.41813636E+03</totfact>
</mgrwt>
</event>
<event>
 5    0  0.1257040E+001  0.3374209E+03  0.7546771E-02  0.1067900E+00
         21   -1    0    0  502  501  0.00000000000E+00  0.00000000000E+00  0.96192711635E+03  0.96192711635E+03  0.00000000000E+00 0. -1.
         21   -1    0    0  504  502 -0.00000000000E+00 -0.00000000000E+00 -0.19730311510E+03  0.19730311510E+03  0.00000000000E+00 0. -1.
         25    1    1    2    0    0  0.38448879009E+03 -0.41365711913E+02  0.32064182890E+03  0.51766681782E+03  0.12500000000E+03 0.  0.
         21    1    1    2  503  501 -0.27773446863E+03  0.57002438967E+02  0.45179272437E+03  0.53338764413E+03  0.00000000000E+00 0. -1.
         21    1    1    2  504  503 -0.10675432146E+03 -0.15636727054E+02 -0.78105520209E+01  0.10817576950E+03  0.00000000000E+00 0. -1.
<mgrwt>
<rscale>  4 0.33742093E+03</rscale>
<asrwt>0</asrwt>
<pdfrwt beam="1">  1       21 0.14798878E+00 0.33742093E+03</pdfrwt>
<pdfrwt beam="2">  1       21 0.30354326E-01 0.33742093E+03</pdfrwt>
<totfact> 0.29213521E+03</totfact>
</mgrwt>
</event>
<event>
 5    0  0.1257040E+001  0.2538213E+03  0.7546771E-02  0.1110913E+00
         21   -1    0    0  502  501  0.00000000000E+00  0.00000000000E+00  0.90604981616E+02  0.90604981616E+02  0.00000000000E+00 0.  1.
         21   -1    0    0  504  502 -0.00000000000E+00 -0.00000000000E+00 -0.75960600186E+03  0.75960600186E+03  0.00000000000E+00 0.  1.
         25    1    1    2    0    0 -0.22664097119E+02  0.21844701401E+03 -0.31167288096E+03  0.40124524166E+03  0.12500000000E+03 0.  0.
         21    1    1    2  503  501 -0.46012580437E+01 -0.22247915220E+03 -0.35785311102E+03  0.42139885359E+03  0.00000000000E+00 0.  1.
         21    1    1    2  504  503  0.27265355163E+02  0.40321381923E+01  0.52497174709E+00  0.27566888216E+02  0.00000000000E+00 0. -1.
<mgrwt>
<rscale>  4 0.25382133E+03</rscale>
<asrwt>0</asrwt>
<pdfrwt beam="1">  1       21 0.13939228E-01 0.25382133E+03</pdfrwt>
<pdfrwt beam="2">  1       21 0.11686246E+00 0.25382133E+03</pdfrwt>
<totfact> 0.24425859E+04</totfact>
</mgrwt>
</event>
<event>
 5    0  0.1257040E+001  0.2785536E+03  0.7546771E-02  0.1096482E+00
         21   -1    0    0  502  501  0.00000000000E+00  0.00000000000E+00  0.49657673753E+03  0.49657673753E+03  0.00000000000E+00 0.  1.
         21   -1    0    0  504  502 -0.00000000000E+00 -0.00000000000E+00 -0.19967823185E+03  0.19967823185E+03  0.00000000000E+00 0.  1.
         25    1    1    2    0    0 -0.21212726551E+03  0.11146662834E+03  0.26603633909E+03  0.37924018738E+03  0.12500000000E+03 0.  0.
         21    1    1    2  503  501  0.29000813901E+01  0.30114372133E+02  0.55476810677E+02  0.63189891627E+02  0.00000000000E+00 0. -1.
         21    1    1    2  504  503  0.20922718412E+03 -0.14158100048E+03 -0.24614644074E+02  0.25382489038E+03  0.00000000000E+00 0.  1.
<mgrwt>
<rscale>  4 0.27855358E+03</rscale>
<asrwt>0</asrwt>
<pdfrwt beam="1">  1       21 0.76396421E-01 0.27855358E+03</pdfrwt>
<pdfrwt beam="2">  1       21 0.30719728E-01 0.27855358E+03</pdfrwt>
<totfact> 0.14805893E+04</totfact>
</mgrwt>
</event>
<event>
 5    0  0.1257040E+001  0.3545900E+03  0.7546771E-02  0.1060747E+00
         21   -1    0    0  502  501  0.00000000000E+00  0.00000000000E+00  0.90804350075E+03  0.90804350075E+03  0.00000000000E+00 0. -1.
         21   -1    0    0  504  502 -0.00000000000E+00 -0.00000000000E+00 -0.17452395628E+03  0.17452395628E+03  0.00000000000E+00 0.  1.
         25    1    1    2    0    0 -0.28049363836E+03 -0.17729179169E+03  0.62486845621E+03  0.71846687337E+03  0.12500000000E+03 0.  0.
         21    1    1    2  503  501  0.26369464772E+03  0.12371179034E+03  0.94079402660E+02  0.30608888955E+03  0.00000000000E+00 0.  1.
         21    1    1    2  504  503  0.16798990644E+02  0.53580001355E+02  0.14571685596E+02  0.58011694105E+02  0.00000000000E+00 0. -1.
<mgrwt>
<rscale>  4 0.35458999E+03</rscale>
<asrwt>0</asrwt>
<pdfrwt beam="1">  1       21 0.13969900E+00 0.35458999E+03</pdfrwt>
<pdfrwt beam="2">  1       21 0.26849840E-01 0.35458999E+03</pdfrwt>
<totfact> 0.42975057E+03</totfact>
</mgrwt>
</event>
<event>
 5    0  0.1257040E+001  0.2301141E+03  0.7546771E-02  0.1126559E+00
         21   -1    0    0  504  501  0.00000000000E+00  0.00000000000E+00  0.56717983429E+03  0.56717983429E+03  0.00000000000E+00 0.  1.
         21   -1    0    0  503  502 -0.00000000000E+00 -0.00000000000E+00 -0.97270349544E+03  0.97270349544E+03  0.00000000000E+00 0. -1.
         25    1    1    2    0    0  0.22010438153E+03  0.27070192275E+02  0.50622651666E+03  0.56662952646E+03  0.12500000000E+03 0.  0.
         21    1    1    2  503  501 -0.19114975905E+03 -0.24181852763E+02 -0.92236945235E+03  0.94227830232E+03  0.00000000000E+00 0. -1.
         21    1    1    2  504  502 -0.28954622472E+02 -0.28883395111E+01  0.10619274532E+02  0.30975500952E+02  0.00000000000E+00 0. -1.
<mgrwt>
<rscale>  4 0.23011408E+03</rscale>
<asrwt>0</asrwt>
<pdfrwt beam="1">  1       21 0.87258438E-01 0.23011408E+03</pdfrwt>
<pdfrwt beam="2">  1       21 0.14964669E+00 0.23011408E+03</pdfrwt>
<totfact> 0.32541177E+02</totfact>
</mgrwt>
</event>
<event>
 5    0  0.1257040E+001  0.2805960E+03  0.7546771E-02  0.1095364E+00
         21   -1    0    0  502  501  0.00000000000E+00  0.00000000000E+00  0.29917058280E+03  0.29917058280E+03  0.00000000000E+00 0. -1.
         21   -1    0    0  504  502 -0.00000000000E+00 -0.00000000000E+00 -0.58450267944E+03  0.58450267944E+03  0.00000000000E+00 0. -1.
         25    1    1    2    0    0 -0.90698690312E+02 -0.24063876005E+03 -0.44464676013E+03  0.52864828247E+03  0.12500000000E+03 0.  0.
         21    1    1    2  503  501 -0.11644759153E+02  0.32369523176E+02  0.11335638706E+03  0.11846120434E+03  0.00000000000E+00 0. -1.
         21    1    1    2  504  503  0.10234344947E+03  0.20826923687E+03  0.45958276438E+02  0.23656377544E+03  0.00000000000E+00 0. -1.
<mgrwt>
<rscale>  4 0.28059603E+03</rscale>
<asrwt>0</asrwt>
<pdfrwt beam="1">  1       21 0.46026244E-01 0.28059603E+03</pdfrwt>
<pdfrwt beam="2">  1       21 0.89923488E-01 0.28059603E+03</pdfrwt>
<totfact> 0.44873556E+03</totfact>
</mgrwt>
</event>
<event>
 5    0  0.1257040E+001  0.2354040E+03  0.7546771E-02  0.1122893E+00
         21   -1    0    0  502  501  0.00000000000E+00  0.00000000000E+00  0.82675237154E+03  0.82675237154E+03  0.00000000000E+00 0.  1.
         21   -1    0    0  504  502 -0.00000000000E+00 -0.00000000000E+00 -0.17497157080E+03  0.17497157080E+03  0.00000000000E+00 0.  1.
         25    1    1    2    0    0 -0.65851226160E+02 -0.19569743585E+03  0.11451575215E+03  0.26715674776E+03  0.12500000000E+03 0.  0.
         21    1    1    2  503  501  0.91369563542E+02  0.17617232625E+03  0.61725025474E+03  0.64836946462E+03  0.00000000000E+00 0.  1.
         21    1    1    2  504  503 -0.25518337383E+02  0.19525109597E+02 -0.79985206151E+02  0.86197729962E+02  0.00000000000E+00 0. -1.
<mgrwt>
<rscale>  4 0.23540397E+03</rscale>
<asrwt>0</asrwt>
<pdfrwt beam="1">  1       21 0.12719267E+00 0.23540397E+03</pdfrwt>
<pdfrwt beam="2">  1       21 0.26918704E-01 0.23540397E+03</pdfrwt>
<totfact> 0.58155792E+03</totfact>
</mgrwt>
</event>
<event>
 5    0  0.1257040E+001  0.2637130E+03  0.7546771E-02  0.1104933E+00
         21   -1    0    0  503  501  0.00000000000E+00  0.00000000000E+00  0.94389985380E+02  0.94389985380E+02  0.00000000000E+00 0. -1.
         21   -1    0    0  504  502 -0.00000000000E+00 -0.00000000000E+00 -0.14948975146E+04  0.14948975146E+04  0.00000000000E+00 0. -1.
         25    1    1    2    0    0 -0.19719568206E+03  0.84628899691E+02 -0.79938894510E+03  0.83707578703E+03  0.12500000000E+03 0.  0.
         21    1    1    2  503  502  0.25807422445E+03 -0.40271157779E+02 -0.62151886989E+03  0.67417340285E+03  0.00000000000E+00 0. -1.
         21    1    1    2  504  501 -0.60878542392E+02 -0.44357741911E+02  0.20400285736E+02  0.78038310139E+02  0.00000000000E+00 0. -1.
<mgrwt>
<rscale>  4 0.26371305E+03</rscale>
<asrwt>0</asrwt>
<pdfrwt beam="1">  1       21 0.14521536E-01 0.26371305E+03</pdfrwt>
<pdfrwt beam="2">  1       21 0.22998423E+00 0.26371305E+03</pdfrwt>
<totfact> 0.34155989E+03</totfact>
</mgrwt>
</event>
<event>
 5    0  0.1257040E+001  0.3356274E+03  0.7546771E-02  0.1068674E+00
         21   -1    0    0  502  501  0.00000000000E+00  0.00000000000E+00  0.36887733044E+03  0.36887733044E+03  0.00000000000E+00 0. -1.
         21   -1    0    0  504  502 -0.00000000000E+00 -0.00000000000E+00 -0.10741043795E+04  0.10741043795E+04  0.00000000000E+00 0.  1.
         25    1    1    2    0    0  0.16388239210E+03  0.22805899928E+03 -0.69781751121E+03  0.76252385179E+03  0.12500000000E+03 0.  0.
         21    1    1    2  503  501 -0.84036019679E+02 -0.30503549024E+03  0.24799753647E+03  0.40200930463E+03  0.00000000000E+00 0. -1.
         21    1    1    2  504  503 -0.79846372418E+02  0.76976490959E+02 -0.25540707434E+03  0.27844855355E+03  0.00000000000E+00 0.  1.
<mgrwt>
<rscale>  4 0.33562744E+03</rscale>
<asrwt>0</asrwt>
<pdfrwt beam="1">  1       21 0.56750358E-01 0.33562744E+03</pdfrwt>
<pdfrwt beam="2">  1       21 0.16524683E+00 0.33562744E+03</pdfrwt>
<totfact> 0.59609414E+02</totfact>
</mgrwt>
</event>
<event>
 5    0  0.1257040E+001  0.3373653E+03  0.7546771E-02  0.1067924E+00
         21   -1    0    0  504  501  0.00000000000E+00  0.00000000000E+00  0.51910385444E+03  0.51910385444E+03  0.00000000000E+00 0.  1.
         21   -1    0    0  503  502 -0.00000000000E+00 -0.00000000000E+00 -0.28567724535E+03  0.28567724535E+03  0.00000000000E+00 0.  1.
         25    1    1    2    0    0  0.29388336540E+03 -0.94572943104E+02  0.10290315649E+03  0.34860512567E+03  0.12500000000E+03 0.  0.
         21    1    1    2  503  501  0.66134848226E+00 -0.22281054120E+02 -0.75160615380E+02  0.78396433967E+02  0.00000000000E+00 0.  1.
         21    1    1    2  504  502 -0.29454471388E+03  0.11685399722E+03  0.20568406798E+03  0.37777954016E+03  0.00000000000E+00 0.  1.
<mgrwt>
<rscale>  4 0.33736530E+03</rscale>
<asrwt>0</asrwt>
<pdfrwt beam="1">  1       21 0.79862131E-01 0.33736530E+03</pdfrwt>
<pdfrwt beam="2">  1       21 0.43950346E-01 0.33736530E+03</pdfrwt>
<totfact> 0.63220071E+03</totfact>
</mgrwt>
</event>
<event>
 5    0  0.1257040E+001  0.2886133E+03  0.7546771E-02  0.1091075E+00
         21   -1    0    0  503  501  0.00000000000E+00  0.00000000000E+00  0.35769121505E+03  0.35769121505E+03  0.00000000000E+00 0. -1.
         21   -1    0    0  504  502 -0.00000000000E+00 -0.00000000000E+00 -0.31229934679E+03  0.31229934679E+03  0.00000000000E+00 0. -1.
         25    1    1    2    0    0  0.20967980633E+03  0.11347754281E+03  0.15220864221E+03  0.30924948612E+03  0.12500000000E+03 0.  0.
         21    1    1    2  503  502 -0.24197579396E+03 -0.11429911887E+03 -0.15002042916E+03  0.30679423496E+03  0.00000000000E+00 0. -1.
         21    1    1    2  504  501  0.32295987634E+02  0.82157606196E+00  0.43203655215E+02  0.53946840764E+02  0.00000000000E+00 0.  1.
<mgrwt>
<rscale>  4 0.28861327E+03</rscale>
<asrwt>0</asrwt>
<pdfrwt beam="1">  1       21 0.55029418E-01 0.28861327E+03</pdfrwt>
<pdfrwt beam="2">  1       21 0.48046053E-01 0.28861327E+03</pdfrwt>
<totfact> 0.12230007E+04</totfact>
</mgrwt>
</event>
<event>
 5    0  0.1257040E+001  0.2572973E+03  0.7546771E-02  0.1108778E+00
         21   -1    0    0  503  501  0.00000000000E+00  0.00000000000E+00  0.11605259738E+03  0.11605259738E+03  0.00000000000E+00 0. -1.
         21   -1    0    0  504  502 -0.00000000000E+00 -0.00000000000E+00 -0.62944650953E+03  0.62944650953E+03  0.00000000000E+00 0. -1.
         25    1    1    2    0    0 -0.20937579539E+03 -0.11330679881E+03 -0.36724345698E+03  0.45515866579E+03  0.12500000000E+03 0.  0.
         21    1    1    2  503  502  0.23940537645E+02 -0.40221734059E+01 -0.39490560438E+02  0.46355491426E+02  0.00000000000E+00 0. -1.
         21    1    1    2  504  501  0.18543525774E+03  0.11732897221E+03 -0.10665989473E+03  0.24398494970E+03  0.00000000000E+00 0. -1.
<mgrwt>
<rscale>  4 0.25729729E+03</rscale>
<asrwt>0</asrwt>
<pdfrwt beam="1">  1       21 0.17854246E-01 0.25729729E+03</pdfrwt>
<pdfrwt beam="2">  1       21 0.96837921E-01 0.25729729E+03</pdfrwt>
<totfact> 0.24387167E+04</totfact>
</mgrwt>
</event>
<event>
 5    0  0.1257040E+001  0.2096984E+03  0.7546771E-02  0.1141805E+00
         21   -1    0    0  502  501  0.00000000000E+00  0.00000000000E+00  0.49671661973E+03  0.49671661973E+03  0.00000000000E+00 0.  1.
         21   -1    0    0  504  502 -0.00000000000E+00 -0.00000000000E+00 -0.49230291760E+03  0.49230291760E+03  0.00000000000E+00 0.  1.
         25    1    1    2    0    0  0.26747941740E+03 -0.65071362104E+02 -0.30225120885E+03  0.42750475336E+03  0.12500000000E+03 0.  0.
         21    1    1    2  503  501 -0.16366032807E+03  0.49025875188E+01  0.38489350673E+03  0.41827233936E+03  0.00000000000E+00 0.  1.
         21    1    1    2  504  503 -0.10381908933E+03  0.60168774585E+02 -0.78228595749E+02  0.14324244461E+03  0.00000000000E+00 0.  1.
<mgrwt>
<rscale>  4 0.20969844E+03</rscale>
<asrwt>0</asrwt>
<pdfrwt beam="1">  1       21 0.76417941E-01 0.20969844E+03</pdfrwt>
<pdfrwt beam="2">  1       21 0.75738910E-01 0.20969844E+03</pdfrwt>
<totfact> 0.23368105E+03</totfact>
</mgrwt>
</event>
<event>
 5    0  0.1257040E+001  0.2121272E+03  0.7546771E-02  0.1139892E+00
         21   -1    0    0  502  501  0.00000000000E+00  0.00000000000E+00  0.36556327032E+03  0.36556327032E+03  0.00000000000E+00 0. -1.
         21   -1    0    0  504  502 -0.00000000000E+00 -0.00000000000E+00 -0.25623207902E+03  0.25623207902E+03  0.00000000000E+00 0. -1.
         25    1    1    2    0    0 -0.13934680656E+03 -0.14794897165E+03  0.17453214678E+03  0.29562290332E+03  0.12500000000E+03 0.  0.
         21    1    1    2  503  501  0.29102177009E+02  0.23165625819E+02  0.90725422008E+02  0.98054500788E+02  0.00000000000E+00 0.  1.
         21    1    1    2  504  503  0.11024462955E+03  0.12478334583E+03 -0.15592637748E+03  0.22811794523E+03  0.00000000000E+00 0. -1.
<mgrwt>
<rscale>  4 0.21212722E+03</rscale>
<asrwt>0</asrwt>
<pdfrwt beam="1">  1       21 0.56240503E-01 0.21212722E+03</pdfrwt>
<pdfrwt beam="2">  1       21 0.39420320E-01 0.21212722E+03</pdfrwt>
<totfact> 0.18241275E+04</totfact>
</mgrwt>
</event>
<event>
 5    0  0.1257040E+001  0.3062494E+03  0.7546771E-02  0.1082158E+00
         21   -1    0    0  503  501  0.00000000000E+00  0.00000000000E+00  0.29780874148E+03  0.29780874148E+03  0.00000000000E+00 0.  1.
         21   -1    0    0  504  502 -0.00000000000E+00 -0.00000000000E+00 -0.55814477403E+03  0.55814477403E+03  0.00000000000E+00 0.  1.
         25    1    1    2    0    0 -0.25232305450E+03 -0.59802173660E+02  0.85618945696E+02  0.30033119663E+03  0.12500000000E+03 0.  0.
         21    1    1    2  503  502 -0.85013305925E+02  0.10729387615E+02 -0.11684480507E+03  0.14489682679E+03  0.00000000000E+00 0. -1.
         21    1    1    2  504  501  0.33733636043E+03  0.49072786045E+02 -0.22911017317E+03  0.41072549208E+03  0.00000000000E+00 0.  1.
<mgrwt>
<rscale>  4 0.30624942E+03</rscale>
<asrwt>0</asrwt>
<pdfrwt beam="1">  1       21 0.45816730E-01 0.30624942E+03</pdfrwt>
<pdfrwt beam="2">  1       21 0.85868426E-01 0.30624942E+03</pdfrwt>
<totfact> 0.49769638E+03</totfact>
</mgrwt>
</event>
<event>
 5    0  0.1981248E+001  0.2039825E+03  0.7546771E-02  0.1146422E+00
         21   -1    0    0  502  501  0.00000000000E+00  0.00000000000E+00  0.81647479937E+03  0.81647479937E+03  0.00000000000E+00 0. -1.
         21   -1    0    0  504  502 -0.00000000000E+00 -0.00000000000E+00 -0.15837082781E+04  0.15837082781E+04  0.00000000000E+00 0.  1.
         25    1    1    2    0    0  0.56125709407E+02 -0.27068001049E+03  0.72070176326E+03  0.78195511054E+03  0.12500000000E+03 0.  0.
         21    1    1    2  503  501 -0.49051215210E+02  0.11028264935E+03  0.95824230995E+00  0.12070295228E+03  0.00000000000E+00 0. -1.
         21    1    1    2  504  503 -0.70744941965E+01  0.16039736114E+03 -0.14888934843E+04  0.14975250146E+04  0.00000000000E+00 0.  1.
<mgrwt>
<rscale>  4 0.20398250E+03</rscale>
<asrwt>0</asrwt>
<pdfrwt beam="1">  1       21 0.12561151E+00 0.20398250E+03</pdfrwt>
<pdfrwt beam="2">  1       21 0.24364743E+00 0.20398250E+03</pdfrwt>
<totfact> 0.33524758E+01</totfact>
</mgrwt>
</event>
<event>
 5    0  0.1257040E+001  0.2599519E+03  0.7546771E-02  0.1107172E+00
         21   -1    0    0  502  501  0.00000000000E+00  0.00000000000E+00  0.37204136321E+03  0.37204136321E+03  0.00000000000E+00 0.  1.
         21   -1    0    0  504  502 -0.00000000000E+00 -0.00000000000E+00 -0.50280865228E+03  0.50280865228E+03  0.00000000000E+00 0. -1.
         25    1    1    2    0    0 -0.14471070198E+03 -0.14863326053E+03 -0.32440722731E+03  0.40484328145E+03  0.12500000000E+03 0.  0.
         21    1    1    2  503  501  0.15595367192E+03  0.16930349118E+03  0.29032203950E+03  0.37050250543E+03  0.00000000000E+00 0.  1.
         21    1    1    2  504  503 -0.11242969941E+02 -0.20670230653E+02 -0.96682101260E+02  0.99504228615E+02  0.00000000000E+00 0. -1.
<mgrwt>
<rscale>  4 0.25995185E+03</rscale>
<asrwt>0</asrwt>
<pdfrwt beam="1">  1       21 0.57237132E-01 0.25995185E+03</pdfrwt>
<pdfrwt beam="2">  1       21 0.77355178E-01 0.25995185E+03</pdfrwt>
<totfact> 0.40532389E+03</totfact>
</mgrwt>
</event>
<event>
 5    0  0.1257040E+001  0.2833091E+03  0.7546771E-02  0.1093895E+00
         21   -1    0    0  502  501  0.00000000000E+00  0.00000000000E+00  0.56056809667E+03  0.56056809667E+03  0.00000000000E+00 0. -1.
         21   -1    0    0  504  502 -0.00000000000E+00 -0.00000000000E+00 -0.31244705137E+03  0.31244705137E+03  0.00000000000E+00 0.  1.
         25    1    1    2    0    0 -0.20145023945E+03 -0.11440891726E+03  0.39721880288E+03  0.47652846367E+03  0.12500000000E+03 0.  0.
         21    1    1    2  503  501 -0.72199955938E+01 -0.36684664965E+02  0.55899465596E+02  0.67250600249E+02  0.00000000000E+00 0.  1.
         21    1    1    2  504  503  0.20867023505E+03  0.15109358222E+03 -0.20499722317E+03  0.32923608413E+03  0.00000000000E+00 0.  1.
<mgrwt>
<rscale>  4 0.28330910E+03</rscale>
<asrwt>0</asrwt>
<pdfrwt beam="1">  1       21 0.86241246E-01 0.28330910E+03</pdfrwt>
<pdfrwt beam="2">  1       21 0.48068777E-01 0.28330910E+03</pdfrwt>
<totfact> 0.45112081E+03</totfact>
</mgrwt>
</event>
<event>
 5    0  0.1257040E+001  0.2265863E+03  0.7546771E-02  0.1129066E+00
         21   -1    0    0  502  501  0.00000000000E+00  0.00000000000E+00  0.86008053969E+02  0.86008053969E+02  0.00000000000E+00 0. -1.
         21   -1    0    0  504  502 -0.00000000000E+00 -0.00000000000E+00 -0.23413555667E+04  0.23413555667E+04  0.00000000000E+00 0.  1.
         25    1    1    2    0    0 -0.20007787102E+03 -0.60979091463E+02 -0.15840861189E+03  0.29063360506E+03  0.12500000000E+03 0.  0.
         21    1    1    2  503  501  0.14838173241E+03  0.59703384537E+02 -0.30807952327E+03  0.34712335746E+03  0.00000000000E+00 0. -1.
         21    1    1    2  504  503  0.51696138615E+02  0.12757069266E+01 -0.17888593775E+04  0.17896066581E+04  0.00000000000E+00 0.  1.
<mgrwt>
<rscale>  4 0.22658631E+03</rscale>
<asrwt>0</asrwt>
<pdfrwt beam="1">  1       21 0.13232012E-01 0.22658631E+03</pdfrwt>
<pdfrwt beam="2">  1       21 0.36020846E+00 0.22658631E+03</pdfrwt>
<totfact> 0.71393331E+02</totfact>
</mgrwt>
</event>
