<event>
 5    0  0.1014204E+000  0.3679653E+03  0.7546771E-02  0.1055474E+00
         21   -1    0    0  501  502  0.00000000000E+00  0.00000000000E+00  0.52467154852E+03  0.52467154852E+03  0.00000000000E+00 0.  1.
          1   -1    0    0  503    0 -0.00000000000E+00 -0.00000000000E+00 -0.10635065152E+04  0.10635065152E+04  0.00000000000E+00 0. -1.
         25    1    1    2    0    0 -0.13393756744E+03  0.31900646767E+03  0.40765767423E+03  0.54910306660E+03  0.12500000000E+03 0.  0.
         21    1    1    2  503  502 -0.68582542377E+02 -0.28088726697E+02 -0.15276618443E+03  0.16979413651E+03  0.00000000000E+00 0. -1.
          1    1    1    2  501    0  0.20252010982E+03 -0.29091774098E+03 -0.79372645643E+03  0.86928086056E+03  0.00000000000E+00 0. -1.
<mgrwt>
<rscale>  4 0.36796531E+03</rscale>
<asrwt>0</asrwt>
<pdfrwt beam="1">  1       21 0.80718699E-01 0.36796531E+03</pdfrwt>
<pdfrwt beam="2">  1        1 0.16361639E+00 0.36796531E+03</pdfrwt>
<totfact> 0.19714679E+02</totfact>
</mgrwt>
</event>
<event>
 5    0  0.1014204E+000  0.3758862E+03  0.7546771E-02  0.1052465E+00
         21   -1    0    0  501  502  0.00000000000E+00  0.00000000000E+00  0.55639432626E+03  0.55639432626E+03  0.00000000000E+00 0.  1.
          4   -1    0    0  503    0 -0.00000000000E+00 -0.00000000000E+00 -0.49090340296E+03  0.49090340296E+03  0.00000000000E+00 0.  1.
         25    1    1    2    0    0  0.34990425286E+03 -0.68999558872E+02  0.39581109428E+03  0.54725254468E+03  0.12500000000E+03 0.  0.
         21    1    1    2  503  502 -0.84246331369E+01  0.21809277664E+02 -0.51916785287E+02  0.56938314255E+02  0.00000000000E+00 0.  1.
          4    1    1    2  501    0 -0.34147961973E+03  0.47190281208E+02 -0.27840338570E+03  0.44310687029E+03  0.00000000000E+00 0.  1.
<mgrwt>
<rscale>  4 0.37588624E+03</rscale>
<asrwt>0</asrwt>
<pdfrwt beam="1">  1       21 0.85599128E-01 0.37588624E+03</pdfrwt>
<pdfrwt beam="2">  1        4 0.75523600E-01 0.37588624E+03</pdfrwt>
<totfact> 0.76728712E+01</totfact>
</mgrwt>
</event>
<event>
 5    0  0.1014204E+000  0.2402827E+03  0.7546771E-02  0.1119605E+00
         21   -1    0    0  501  502  0.00000000000E+00  0.00000000000E+00  0.99682598982E+02  0.99682598982E+02  0.00000000000E+00 0. -1.
          1   -1    0    0  503    0 -0.00000000000E+00 -0.00000000000E+00 -0.91428200643E+03  0.91428200643E+03  0.00000000000E+00 0. -1.
         25    1    1    2    0    0 -0.19084059702E+03  0.86653792486E+02 -0.99671788520E+02  0.26360667414E+03  0.12500000000E+03 0.  0.
         21    1    1    2  503  502  0.97336399080E+01 -0.21371463643E+02 -0.18615972188E+03  0.18763508535E+03  0.00000000000E+00 0.  1.
          1    1    1    2  501    0  0.18110695711E+03 -0.65282328843E+02 -0.52876789704E+03  0.56272284592E+03  0.00000000000E+00 0. -1.
<mgrwt>
<rscale>  4 0.24028268E+03</rscale>
<asrwt>0</asrwt>
<pdfrwt beam="1">  1       21 0.15335785E-01 0.24028268E+03</pdfrwt>
<pdfrwt beam="2">  1        1 0.14065876E+00 0.24028268E+03</pdfrwt>
<totfact> 0.77527083E+03</totfact>
</mgrwt>
</event>
<event>
 5    0  0.1014204E+000  0.2362811E+03  0.7546771E-02  0.1122295E+00
          2   -1    0    0  503    0 -0.00000000000E+00  0.00000000000E+00  0.79484859144E+03  0.79484859144E+03  0.00000000000E+00 0.  1.
         21   -1    0    0  501  502  0.00000000000E+00 -0.00000000000E+00 -0.28071361891E+03  0.28071361891E+03  0.00000000000E+00 0.  1.
         25    1    1    2    0    0 -0.18977160799E+03  0.83451179992E+02 -0.19762794355E+03  0.31250466671E+03  0.12500000000E+03 0.  0.
         21    1    1    2  503  502  0.62825949436E+02 -0.61646396945E+02  0.82133008127E+02  0.12038774524E+03  0.00000000000E+00 0. -1.
          2    1    1    2  501    0  0.12694565855E+03 -0.21804783047E+02  0.62962990796E+03  0.64266979841E+03  0.00000000000E+00 0.  1.
<mgrwt>
<rscale>  4 0.23628105E+03</rscale>
<asrwt>0</asrwt>
<pdfrwt beam="1">  1       21 0.43186711E-01 0.23628105E+03</pdfrwt>
<pdfrwt beam="2">  1        2 0.12228440E+00 0.23628105E+03</pdfrwt>
<totfact> 0.22883850E+03</totfact>
</mgrwt>
</event>
<event>
 5    0  0.1014204E+000  0.3067427E+03  0.7546771E-02  0.1081918E+00
         21   -1    0    0  501  502  0.00000000000E+00  0.00000000000E+00  0.15144752338E+03  0.15144752338E+03  0.00000000000E+00 0. -1.
          1   -1    0    0  503    0 -0.00000000000E+00 -0.00000000000E+00 -0.14772262256E+04  0.14772262256E+04  0.00000000000E+00 0. -1.
         25    1    1    2    0    0 -0.68031490048E+02 -0.28074191302E+03 -0.69116752550E+02  0.32225212310E+03  0.12500000000E+03 0.  0.
         21    1    1    2  503  502 -0.45094732905E+02  0.73136591153E+02 -0.13433747008E+03  0.15946489197E+03  0.00000000000E+00 0. -1.
          1    1    1    2  501    0  0.11312622295E+03  0.20760532186E+03 -0.11223244796E+04  0.11469567339E+04  0.00000000000E+00 0. -1.
<mgrwt>
<rscale>  4 0.30674274E+03</rscale>
<asrwt>0</asrwt>
<pdfrwt beam="1">  1       21 0.23299620E-01 0.30674274E+03</pdfrwt>
<pdfrwt beam="2">  1        1 0.22726556E+00 0.30674274E+03</pdfrwt>
<totfact> 0.13820018E+03</totfact>
</mgrwt>
</event>
<event>
 5    0  0.1014204E+000  0.2610619E+03  0.7546771E-02  0.1106507E+00
          2   -1    0    0  503    0 -0.00000000000E+00  0.00000000000E+00  0.17122994081E+04  0.17122994081E+04  0.00000000000E+00 0.  1.
         21   -1    0    0  501  502  0.00000000000E+00 -0.00000000000E+00 -0.59060597011E+02  0.59060597011E+02  0.00000000000E+00 0.  1.
         25    1    1    2    0    0 -0.94156817013E+02  0.19647707497E+03  0.34253683922E+03  0.42476491545E+03  0.12500000000E+03 0.  0.
         21    1    1    2  503  502 -0.94414705675E+01  0.41340225796E+02  0.30697402399E+03  0.30988902375E+03  0.00000000000E+00 0. -1.
          2    1    1    2  501    0  0.10359828758E+03 -0.23781730077E+03  0.10037279479E+04  0.10367060659E+04  0.00000000000E+00 0.  1.
<mgrwt>
<rscale>  4 0.26106192E+03</rscale>
<asrwt>0</asrwt>
<pdfrwt beam="1">  1       21 0.90862470E-02 0.26106192E+03</pdfrwt>
<pdfrwt beam="2">  1        2 0.26343064E+00 0.26106192E+03</pdfrwt>
<totfact> 0.12762899E+04</totfact>
</mgrwt>
</event>
<event>
 5    0  0.1014204E+000  0.2506460E+03  0.7546771E-02  0.1112897E+00
         -2   -1    0    0    0  501 -0.00000000000E+00  0.00000000000E+00  0.10300735107E+03  0.10300735107E+03  0.00000000000E+00 0.  1.
         21   -1    0    0  503  502  0.00000000000E+00 -0.00000000000E+00 -0.11569700602E+04  0.11569700602E+04  0.00000000000E+00 0.  1.
         25    1    1    2    0    0 -0.17666609348E+03  0.12805661404E+03 -0.96386079247E+03  0.99612350251E+03  0.12500000000E+03 0.  0.
         21    1    1    2  503  501 -0.81078868756E+01 -0.19798465643E+02  0.14173820466E+02  0.25663481019E+02  0.00000000000E+00 0.  1.
         -2    1    1    2    0  502  0.18477398035E+03 -0.10825814840E+03 -0.10427573710E+03  0.23819042772E+03  0.00000000000E+00 0.  1.
<mgrwt>
<rscale>  4 0.25064596E+03</rscale>
<asrwt>0</asrwt>
<pdfrwt beam="1">  1       21 0.17799540E+00 0.25064596E+03</pdfrwt>
<pdfrwt beam="2">  1       -2 0.15847284E-01 0.25064596E+03</pdfrwt>
<totfact> 0.44964682E+02</totfact>
</mgrwt>
</event>
<event>
 5    0  0.1014204E+000  0.2723809E+03  0.7546771E-02  0.1099925E+00
         21   -1    0    0  501  502  0.00000000000E+00  0.00000000000E+00  0.80422309777E+02  0.80422309777E+02  0.00000000000E+00 0. -1.
          1   -1    0    0  503    0 -0.00000000000E+00 -0.00000000000E+00 -0.21751540672E+04  0.21751540672E+04  0.00000000000E+00 0. -1.
         25    1    1    2    0    0  0.22456616703E+03 -0.81723000632E+02 -0.21250618237E+03  0.34335475787E+03  0.12500000000E+03 0.  0.
         21    1    1    2  503  502  0.79584890326E+01 -0.21386851048E+02 -0.80687189143E+03  0.80719451443E+03  0.00000000000E+00 0.  1.
          1    1    1    2  501    0 -0.23252465606E+03  0.10310985168E+03 -0.10753536836E+04  0.11050271046E+04  0.00000000000E+00 0. -1.
<mgrwt>
<rscale>  4 0.27238091E+03</rscale>
<asrwt>0</asrwt>
<pdfrwt beam="1">  1       21 0.12372663E-01 0.27238091E+03</pdfrwt>
<pdfrwt beam="2">  1        1 0.33463910E+00 0.27238091E+03</pdfrwt>
<totfact> 0.15871582E+03</totfact>
</mgrwt>
</event>
<event>
 5    0  0.1014204E+000  0.3082720E+03  0.7546771E-02  0.1081177E+00
          1   -1    0    0  503    0 -0.00000000000E+00  0.00000000000E+00  0.47548542947E+03  0.47548542947E+03  0.00000000000E+00 0. -1.
         21   -1    0    0  501  502  0.00000000000E+00 -0.00000000000E+00 -0.64202837000E+03  0.64202837000E+03  0.00000000000E+00 0. -1.
         25    1    1    2    0    0 -0.84352316063E+02  0.26713562217E+03 -0.52787729006E+03  0.61053762146E+03  0.12500000000E+03 0.  0.
         21    1    1    2  503  502 -0.51093664595E+02  0.15578655211E+01  0.29454589190E+02  0.58996290825E+02  0.00000000000E+00 0. -1.
          1    1    1    2  501    0  0.13544598066E+03 -0.26869348769E+03  0.33187976034E+03  0.44797988719E+03  0.00000000000E+00 0. -1.
<mgrwt>
<rscale>  4 0.30827196E+03</rscale>
<asrwt>0</asrwt>
<pdfrwt beam="1">  1       21 0.98773595E-01 0.30827196E+03</pdfrwt>
<pdfrwt beam="2">  1        1 0.73151605E-01 0.30827196E+03</pdfrwt>
<totfact> 0.42477334E+02</totfact>
</mgrwt>
</event>
<event>
 5    0  0.1014204E+000  0.3298109E+03  0.7546771E-02  0.1071221E+00
          2   -1    0    0  503    0 -0.00000000000E+00  0.00000000000E+00  0.52363833478E+03  0.52363833478E+03  0.00000000000E+00 0.  1.
         21   -1    0    0  501  502  0.00000000000E+00 -0.00000000000E+00 -0.29505563846E+03  0.29505563846E+03  0.00000000000E+00 0. -1.
         25    1    1    2    0    0  0.30876793678E+03  0.79429588965E+02 -0.82215526646E+02  0.35218048101E+03  0.12500000000E+03 0.  0.
         21    1    1    2  503  502 -0.12294394938E+02 -0.24101399035E+02 -0.74490007055E+01  0.28062736749E+02  0.00000000000E+00 0.  1.
          2    1    1    2  501    0 -0.29647354184E+03 -0.55328189930E+02  0.31824722367E+03  0.43845075548E+03  0.00000000000E+00 0.  1.
<mgrwt>
<rscale>  4 0.32981087E+03</rscale>
<asrwt>0</asrwt>
<pdfrwt beam="1">  1       21 0.45393175E-01 0.32981087E+03</pdfrwt>
<pdfrwt beam="2">  1        2 0.80559744E-01 0.32981087E+03</pdfrwt>
<totfact> 0.33062665E+03</totfact>
</mgrwt>
</event>
<event>
 5    0  0.1014204E+000  0.2875349E+03  0.7546771E-02  0.1091643E+00
         -1   -1    0    0    0  501 -0.00000000000E+00  0.00000000000E+00  0.56876997966E+03  0.56876997966E+03  0.00000000000E+00 0. -1.
         21   -1    0    0  503  502  0.00000000000E+00 -0.00000000000E+00 -0.27191523957E+03  0.27191523957E+03  0.00000000000E+00 0. -1.
         25    1    1    2    0    0 -0.25292437990E+03  0.81371081277E+02 -0.11420898847E+03  0.31505664231E+03  0.12500000000E+03 0.  0.
         21    1    1    2  503  501  0.54075114031E+02  0.62057712767E+02  0.10883315965E+03  0.13645488013E+03  0.00000000000E+00 0. -1.
         -1    1    1    2    0  502  0.19884926587E+03 -0.14342879404E+03  0.30223056890E+03  0.38917369679E+03  0.00000000000E+00 0. -1.
<mgrwt>
<rscale>  4 0.28753487E+03</rscale>
<asrwt>0</asrwt>
<pdfrwt beam="1">  1       21 0.41833114E-01 0.28753487E+03</pdfrwt>
<pdfrwt beam="2">  1       -1 0.87503074E-01 0.28753487E+03</pdfrwt>
<totfact> 0.67021238E+02</totfact>
</mgrwt>
</event>
<event>
 5    0  0.1014204E+000  0.2870052E+03  0.7546771E-02  0.1091923E+00
          2   -1    0    0  503    0 -0.00000000000E+00  0.00000000000E+00  0.15994994139E+04  0.15994994139E+04  0.00000000000E+00 0. -1.
         21   -1    0    0  501  502  0.00000000000E+00 -0.00000000000E+00 -0.18913613593E+03  0.18913613593E+03  0.00000000000E+00 0. -1.
         25    1    1    2    0    0 -0.17169492901E+03  0.19029707056E+03 -0.51467974520E+02  0.28976900475E+03  0.12500000000E+03 0.  0.
         21    1    1    2  503  502 -0.58995215696E+01  0.30434210270E+02  0.49541612586E+02  0.58441568144E+02  0.00000000000E+00 0.  1.
          2    1    1    2  501    0  0.17759445058E+03 -0.22073128083E+03  0.14122896399E+04  0.14404249769E+04  0.00000000000E+00 0. -1.
<mgrwt>
<rscale>  4 0.28700525E+03</rscale>
<asrwt>0</asrwt>
<pdfrwt beam="1">  1       21 0.29097868E-01 0.28700525E+03</pdfrwt>
<pdfrwt beam="2">  1        2 0.24607682E+00 0.28700525E+03</pdfrwt>
<totfact> 0.16786704E+03</totfact>
</mgrwt>
</event>
<event>
 5    0  0.1014204E+000  0.3387104E+03  0.7546771E-02  0.1067347E+00
         21   -1    0    0  501  502  0.00000000000E+00  0.00000000000E+00  0.53185240077E+03  0.53185240077E+03  0.00000000000E+00 0.  1.
          1   -1    0    0  503    0 -0.00000000000E+00 -0.00000000000E+00 -0.14404525438E+04  0.14404525438E+04  0.00000000000E+00 0.  1.
         25    1    1    2    0    0 -0.15588074284E+02 -0.31850656120E+03  0.45054045951E+03  0.56595152022E+03  0.12500000000E+03 0.  0.
         21    1    1    2  503  502 -0.34998501941E+02  0.62349779671E+02 -0.58527320920E+03  0.58962455814E+03  0.00000000000E+00 0.  1.
          1    1    1    2  501    0  0.50586576224E+02  0.25615678153E+03 -0.77386739337E+03  0.81672886624E+03  0.00000000000E+00 0.  1.
<mgrwt>
<rscale>  4 0.33871041E+03</rscale>
<asrwt>0</asrwt>
<pdfrwt beam="1">  1       21 0.81823448E-01 0.33871041E+03</pdfrwt>
<pdfrwt beam="2">  1        1 0.22160808E+00 0.33871041E+03</pdfrwt>
<totfact> 0.10534864E+02</totfact>
</mgrwt>
</event>
<event>
 5    0  0.1014204E+000  0.3461479E+03  0.7546771E-02  0.1064207E+00
         21   -1    0    0  501  502  0.00000000000E+00  0.00000000000E+00  0.11322834320E+03  0.11322834320E+03  0.00000000000E+00 0. -1.
          2   -1    0    0  503    0 -0.00000000000E+00 -0.00000000000E+00 -0.15098143477E+04  0.15098143477E+04  0.00000000000E+00 0. -1.
         25    1    1    2    0    0  0.28623990399E+03  0.37045565358E+02 -0.91223364756E+03  0.96493568920E+03  0.12500000000E+03 0.  0.
         21    1    1    2  503  502  0.39943274448E+02  0.41696798472E+02 -0.22975495463E+03  0.23689961450E+03  0.00000000000E+00 0. -1.
          2    1    1    2  501    0 -0.32618317844E+03 -0.78742363829E+02 -0.25459740227E+03  0.42120738716E+03  0.00000000000E+00 0. -1.
<mgrwt>
<rscale>  4 0.34614794E+03</rscale>
<asrwt>0</asrwt>
<pdfrwt beam="1">  1       21 0.17419747E-01 0.34614794E+03</pdfrwt>
<pdfrwt beam="2">  1        2 0.23227910E+00 0.34614794E+03</pdfrwt>
<totfact> 0.49051664E+03</totfact>
</mgrwt>
</event>
<event>
 5    0  0.1014204E+000  0.2657400E+03  0.7546771E-02  0.1103743E+00
         21   -1    0    0  501  502  0.00000000000E+00  0.00000000000E+00  0.21291839858E+03  0.21291839858E+03  0.00000000000E+00 0.  1.
          2   -1    0    0  503    0 -0.00000000000E+00 -0.00000000000E+00 -0.86091423985E+03  0.86091423985E+03  0.00000000000E+00 0. -1.
         25    1    1    2    0    0  0.22231291035E+03  0.58763167814E+02  0.71767811478E+02  0.27138857523E+03  0.12500000000E+03 0.  0.
         21    1    1    2  503  502  0.90423150722E+01  0.82758556955E+02 -0.15528921302E+03  0.17619728117E+03  0.00000000000E+00 0. -1.
          2    1    1    2  501    0 -0.23135522542E+03 -0.14152172477E+03 -0.56447443973E+03  0.62624678204E+03  0.00000000000E+00 0. -1.
<mgrwt>
<rscale>  4 0.26573996E+03</rscale>
<asrwt>0</asrwt>
<pdfrwt beam="1">  1       21 0.32756677E-01 0.26573996E+03</pdfrwt>
<pdfrwt beam="2">  1        2 0.13244834E+00 0.26573996E+03</pdfrwt>
<totfact> 0.35672060E+03</totfact>
</mgrwt>
</event>
<event>
 5    0  0.1014204E+000  0.2710395E+03  0.7546771E-02  0.1100686E+00
          2   -1    0    0  503    0 -0.00000000000E+00  0.00000000000E+00  0.93964593669E+03  0.93964593669E+03  0.00000000000E+00 0.  1.
         21   -1    0    0  501  502  0.00000000000E+00 -0.00000000000E+00 -0.24539042658E+03  0.24539042658E+03  0.00000000000E+00 0.  1.
         25    1    1    2    0    0  0.22947384064E+03 -0.53984886794E+02 -0.11311654418E+03  0.28981539660E+03  0.12500000000E+03 0.  0.
         21    1    1    2  503  502  0.50636210611E+02  0.78903881194E+02  0.30983607814E+03  0.32371012281E+03  0.00000000000E+00 0.  1.
          2    1    1    2  501    0 -0.28011005125E+03 -0.24918994400E+02  0.49753597614E+03  0.57151084386E+03  0.00000000000E+00 0.  1.
<mgrwt>
<rscale>  4 0.27103946E+03</rscale>
<asrwt>0</asrwt>
<pdfrwt beam="1">  1       21 0.37752374E-01 0.27103946E+03</pdfrwt>
<pdfrwt beam="2">  1        2 0.14456091E+00 0.27103946E+03</pdfrwt>
<totfact> 0.23827319E+03</totfact>
</mgrwt>
</event>
<event>
 5    0  0.1014204E+000  0.2636174E+03  0.7546771E-02  0.1104989E+00
         21   -1    0    0  501  502  0.00000000000E+00  0.00000000000E+00  0.92917209814E+03  0.92917209814E+03  0.00000000000E+00 0.  1.
          1   -1    0    0  503    0 -0.00000000000E+00 -0.00000000000E+00 -0.43303625555E+03  0.43303625555E+03  0.00000000000E+00 0. -1.
         25    1    1    2    0    0 -0.35552265074E+02 -0.22730986423E+03  0.84722268496E+03  0.88676096883E+03  0.12500000000E+03 0.  0.
         21    1    1    2  503  502 -0.16122444303E+02 -0.29007788386E+02 -0.12643907836E+03  0.13072193976E+03  0.00000000000E+00 0.  1.
          1    1    1    2  501    0  0.51674709377E+02  0.25631765262E+03 -0.22464776400E+03  0.34472544511E+03  0.00000000000E+00 0. -1.
<mgrwt>
<rscale>  4 0.26361737E+03</rscale>
<asrwt>0</asrwt>
<pdfrwt beam="1">  1       21 0.14294955E+00 0.26361737E+03</pdfrwt>
<pdfrwt beam="2">  1        1 0.66620963E-01 0.26361737E+03</pdfrwt>
<totfact> 0.19454196E+02</totfact>
</mgrwt>
</event>
<event>
 5    0  0.1014204E+000  0.3636298E+03  0.7546771E-02  0.1057156E+00
         21   -1    0    0  501  502  0.00000000000E+00  0.00000000000E+00  0.66804664402E+03  0.66804664402E+03  0.00000000000E+00 0.  1.
          1   -1    0    0  503    0 -0.00000000000E+00 -0.00000000000E+00 -0.72588665664E+03  0.72588665664E+03  0.00000000000E+00 0.  1.
         25    1    1    2    0    0 -0.35967806325E+03  0.72684452831E+02  0.26462820114E+03  0.46936598056E+03  0.12500000000E+03 0.  0.
         21    1    1    2  503  502  0.35697095454E+02 -0.88806035448E+02 -0.53059470617E+03  0.53915817417E+03  0.00000000000E+00 0.  1.
          1    1    1    2  501    0  0.32398096780E+03  0.16121582616E+02  0.20812649241E+03  0.38540914593E+03  0.00000000000E+00 0.  1.
<mgrwt>
<rscale>  4 0.36362979E+03</rscale>
<asrwt>0</asrwt>
<pdfrwt beam="1">  1       21 0.10277641E+00 0.36362979E+03</pdfrwt>
<pdfrwt beam="2">  1        1 0.11167487E+00 0.36362979E+03</pdfrwt>
<totfact> 0.20857126E+02</totfact>
</mgrwt>
</event>
<event>
 5    0  0.1014204E+000  0.2565143E+03  0.7546771E-02  0.1109256E+00
         -2   -1    0    0    0  501 -0.00000000000E+00  0.00000000000E+00  0.22497038685E+03  0.22497038685E+03  0.00000000000E+00 0.  1.
         21   -1    0    0  503  502  0.00000000000E+00 -0.00000000000E+00 -0.29490462827E+03  0.29490462827E+03  0.00000000000E+00 0.  1.
         25    1    1    2    0    0 -0.17008315859E+03 -0.13929873146E+03  0.16194504915E+02  0.25341602044E+03  0.12500000000E+03 0.  0.
         21    1    1    2  503  501 -0.19874319458E+02  0.93671265134E+01 -0.61707347864E+01  0.22821253270E+02  0.00000000000E+00 0.  1.
         -2    1    1    2    0  502  0.18995747805E+03  0.12993160495E+03 -0.79958011545E+02  0.24363774142E+03  0.00000000000E+00 0.  1.
<mgrwt>
<rscale>  4 0.25651432E+03</rscale>
<asrwt>0</asrwt>
<pdfrwt beam="1">  1       21 0.45369943E-01 0.25651432E+03</pdfrwt>
<pdfrwt beam="2">  1       -2 0.34610829E-01 0.25651432E+03</pdfrwt>
<totfact> 0.28996711E+03</totfact>
</mgrwt>
</event>
<event>
 5    0  0.1014204E+000  0.3898133E+03  0.7546771E-02  0.1047365E+00
         21   -1    0    0  501  502  0.00000000000E+00  0.00000000000E+00  0.41048161055E+03  0.41048161055E+03  0.00000000000E+00 0.  1.
          2   -1    0    0  503    0 -0.00000000000E+00 -0.00000000000E+00 -0.80242123327E+03  0.80242123327E+03  0.00000000000E+00 0.  1.
         25    1    1    2    0    0 -0.89701955025E+02 -0.35883972589E+03  0.20655452272E+03  0.44170370213E+03  0.12500000000E+03 0.  0.
         21    1    1    2  503  502 -0.31949850361E+02  0.11298381471E+02 -0.28672873330E+03  0.28872445837E+03  0.00000000000E+00 0. -1.
          2    1    1    2  501    0  0.12165180539E+03  0.34754134442E+03 -0.31176541215E+03  0.48247468333E+03  0.00000000000E+00 0.  1.
<mgrwt>
<rscale>  4 0.38981329E+03</rscale>
<asrwt>0</asrwt>
<pdfrwt beam="1">  1       21 0.63151017E-01 0.38981329E+03</pdfrwt>
<pdfrwt beam="2">  1        2 0.12344942E+00 0.38981329E+03</pdfrwt>
<totfact> 0.95826204E+02</totfact>
</mgrwt>
</event>
<event>
 5    0  0.1014204E+000  0.2903415E+03  0.7546771E-02  0.1090171E+00
          1   -1    0    0  503    0 -0.00000000000E+00  0.00000000000E+00  0.38921166068E+03  0.38921166068E+03  0.00000000000E+00 0.  1.
         21   -1    0    0  501  502  0.00000000000E+00 -0.00000000000E+00 -0.94449450527E+03  0.94449450527E+03  0.00000000000E+00 0. -1.
         25    1    1    2    0    0 -0.27911645820E+03  0.94474847845E+02 -0.80956275296E+03  0.87054485530E+03  0.12500000000E+03 0.  0.
         21    1    1    2  503  502  0.10631172788E+03 -0.12559593639E+03  0.23449007488E+03  0.28646486336E+03  0.00000000000E+00 0.  1.
          1    1    1    2  501    0  0.17280473033E+03  0.31121088548E+02  0.19789833494E+02  0.17669644729E+03  0.00000000000E+00 0.  1.
<mgrwt>
<rscale>  4 0.29034153E+03</rscale>
<asrwt>0</asrwt>
<pdfrwt beam="1">  1       21 0.14530684E+00 0.29034153E+03</pdfrwt>
<pdfrwt beam="2">  1        1 0.59878718E-01 0.29034153E+03</pdfrwt>
<totfact> 0.21084024E+02</totfact>
</mgrwt>
</event>
<event>
 5    0  0.1014204E+000  0.2692787E+03  0.7546771E-02  0.1101693E+00
         21   -1    0    0  501  502  0.00000000000E+00  0.00000000000E+00  0.20422402296E+02  0.20422402296E+02  0.00000000000E+00 0.  1.
          1   -1    0    0  503    0 -0.00000000000E+00 -0.00000000000E+00 -0.37282111164E+04  0.37282111164E+04  0.00000000000E+00 0. -1.
         25    1    1    2    0    0  0.82234468575E+02 -0.22388283453E+03 -0.12475907620E+04  0.12763203911E+04  0.12500000000E+03 0.  0.
         21    1    1    2  503  502  0.77477847902E+01  0.22412188432E+02 -0.21964514619E+03  0.22092153495E+03  0.00000000000E+00 0. -1.
          1    1    1    2  501    0 -0.89982253365E+02  0.20147064610E+03 -0.22405528060E+04  0.22513915927E+04  0.00000000000E+00 0. -1.
<mgrwt>
<rscale>  4 0.26927872E+03</rscale>
<asrwt>0</asrwt>
<pdfrwt beam="1">  1       21 0.31419033E-02 0.26927872E+03</pdfrwt>
<pdfrwt beam="2">  1        1 0.57357181E+00 0.26927872E+03</pdfrwt>
<totfact> 0.13749875E+03</totfact>
</mgrwt>
</event>
<event>
 5    0  0.1014204E+000  0.4376479E+03  0.7546771E-02  0.1031471E+00
          1   -1    0    0  503    0 -0.00000000000E+00  0.00000000000E+00  0.68907142934E+03  0.68907142934E+03  0.00000000000E+00 0. -1.
         21   -1    0    0  501  502  0.00000000000E+00 -0.00000000000E+00 -0.31323157981E+03  0.31323157981E+03  0.00000000000E+00 0.  1.
         25    1    1    2    0    0 -0.29944588222E+02  0.40310369511E+03  0.90352180002E+02  0.43264047870E+03  0.12500000000E+03 0.  0.
         21    1    1    2  503  502  0.31678023769E+02  0.38993564004E+02  0.38101475115E+02  0.63053291981E+02  0.00000000000E+00 0.  1.
          1    1    1    2  501    0 -0.17334355469E+01 -0.44209725911E+03  0.24738619441E+03  0.50660923847E+03  0.00000000000E+00 0. -1.
<mgrwt>
<rscale>  4 0.43764788E+03</rscale>
<asrwt>0</asrwt>
<pdfrwt beam="1">  1       21 0.48189474E-01 0.43764788E+03</pdfrwt>
<pdfrwt beam="2">  1        1 0.10601099E+00 0.43764788E+03</pdfrwt>
<totfact> 0.12166518E+03</totfact>
</mgrwt>
</event>
<event>
 5    0  0.1014204E+000  0.2985326E+03  0.7546771E-02  0.1085976E+00
         21   -1    0    0  501  502  0.00000000000E+00  0.00000000000E+00  0.40146964636E+03  0.40146964636E+03  0.00000000000E+00 0.  1.
          2   -1    0    0  503    0 -0.00000000000E+00 -0.00000000000E+00 -0.12525466701E+04  0.12525466701E+04  0.00000000000E+00 0.  1.
         25    1    1    2    0    0 -0.27522992307E+03 -0.14568297824E+02  0.29296767161E+03  0.42121111389E+03  0.12500000000E+03 0.  0.
         21    1    1    2  503  502  0.27923661165E+02  0.52389178335E+02 -0.82610671445E+03  0.82823707990E+03  0.00000000000E+00 0.  1.
          2    1    1    2  501    0  0.24730626190E+03 -0.37820880511E+02 -0.31793798088E+03  0.40456812265E+03  0.00000000000E+00 0.  1.
<mgrwt>
<rscale>  4 0.29853258E+03</rscale>
<asrwt>0</asrwt>
<pdfrwt beam="1">  1       21 0.61764561E-01 0.29853258E+03</pdfrwt>
<pdfrwt beam="2">  1        2 0.19269949E+00 0.29853258E+03</pdfrwt>
<totfact> 0.54722073E+02</totfact>
</mgrwt>
</event>
<event>
 5    0  0.1014204E+000  0.2473728E+03  0.7546771E-02  0.1114976E+00
          2   -1    0    0  503    0 -0.00000000000E+00  0.00000000000E+00  0.64405480307E+03  0.64405480307E+03  0.00000000000E+00 0.  1.
         21   -1    0    0  501  502  0.00000000000E+00 -0.00000000000E+00 -0.13224794116E+03  0.13224794116E+03  0.00000000000E+00 0.  1.
         25    1    1    2    0    0  0.28645926969E+02  0.19852306199E+03  0.75314112603E+02  0.24805082308E+03  0.12500000000E+03 0.  0.
         21    1    1    2  503  502 -0.14229620979E+01  0.47446039316E+02  0.47061857260E+02  0.66842874539E+02  0.00000000000E+00 0. -1.
          2    1    1    2  501    0 -0.27222964871E+02 -0.24596910131E+03  0.38943089204E+03  0.46140904661E+03  0.00000000000E+00 0.  1.
<mgrwt>
<rscale>  4 0.24737280E+03</rscale>
<asrwt>0</asrwt>
<pdfrwt beam="1">  1       21 0.20345837E-01 0.24737280E+03</pdfrwt>
<pdfrwt beam="2">  1        2 0.99085353E-01 0.24737280E+03</pdfrwt>
<totfact> 0.12901276E+04</totfact>
</mgrwt>
</event>
<event>
 5    0  0.1014204E+000  0.3139375E+03  0.7546771E-02  0.1078474E+00
          2   -1    0    0  503    0 -0.00000000000E+00  0.00000000000E+00  0.30884748336E+04  0.30884748336E+04  0.00000000000E+00 0.  1.
         21   -1    0    0  501  502  0.00000000000E+00 -0.00000000000E+00 -0.12015531502E+03  0.12015531502E+03  0.00000000000E+00 0. -1.
         25    1    1    2    0    0  0.26542926363E+03 -0.10717771740E+03  0.11011803740E+03  0.33119592277E+03  0.12500000000E+03 0.  0.
         21    1    1    2  503  502  0.22759967462E+02 -0.42041947006E+01  0.19070429486E+03  0.19210366849E+03  0.00000000000E+00 0. -1.
          2    1    1    2  501    0 -0.28818923109E+03  0.11138191210E+03  0.26674971864E+04  0.26853305574E+04  0.00000000000E+00 0.  1.
<mgrwt>
<rscale>  4 0.31393751E+03</rscale>
<asrwt>0</asrwt>
<pdfrwt beam="1">  1       21 0.18485435E-01 0.31393751E+03</pdfrwt>
<pdfrwt beam="2">  1        2 0.47514991E+00 0.31393751E+03</pdfrwt>
<totfact> 0.59994092E+02</totfact>
</mgrwt>
</event>
<event>
 5    0  0.1014204E+000  0.2680417E+03  0.7546771E-02  0.1102406E+00
          2   -1    0    0  503    0 -0.00000000000E+00  0.00000000000E+00  0.88950311861E+03  0.88950311861E+03  0.00000000000E+00 0.  1.
         21   -1    0    0  501  502  0.00000000000E+00 -0.00000000000E+00 -0.34014308764E+03  0.34014308764E+03  0.00000000000E+00 0.  1.
         25    1    1    2    0    0 -0.12775256711E+03 -0.19826837121E+03 -0.25627568559E+03  0.37004498706E+03  0.12500000000E+03 0.  0.
         21    1    1    2  503  502  0.15307803088E+02 -0.27194048613E+02  0.21813893436E+03  0.22035979624E+03  0.00000000000E+00 0.  1.
          2    1    1    2  501    0  0.11244476402E+03  0.22546241982E+03  0.58749678220E+03  0.63924142294E+03  0.00000000000E+00 0.  1.
<mgrwt>
<rscale>  4 0.26804165E+03</rscale>
<asrwt>0</asrwt>
<pdfrwt beam="1">  1       21 0.52329706E-01 0.26804165E+03</pdfrwt>
<pdfrwt beam="2">  1        2 0.13684663E+00 0.26804165E+03</pdfrwt>
<totfact> 0.13080937E+03</totfact>
</mgrwt>
</event>
<event>
 5    0  0.1014204E+000  0.3015427E+03  0.7546771E-02  0.1084472E+00
         -1   -1    0    0    0  501 -0.00000000000E+00  0.00000000000E+00  0.11354601727E+03  0.11354601727E+03  0.00000000000E+00 0. -1.
         21   -1    0    0  503  502  0.00000000000E+00 -0.00000000000E+00 -0.88063566668E+03  0.88063566668E+03  0.00000000000E+00 0.  1.
         25    1    1    2    0    0 -0.20347806322E+03 -0.16941207806E+03 -0.42082819108E+03  0.51266474505E+03  0.12500000000E+03 0.  0.
         21    1    1    2  503  501 -0.11080612170E+02 -0.18039160311E+02  0.11561225789E+02  0.24121633704E+02  0.00000000000E+00 0.  1.
         -1    1    1    2    0  502  0.21455867539E+03  0.18745123837E+03 -0.35782268411E+03  0.45739530520E+03  0.00000000000E+00 0. -1.
<mgrwt>
<rscale>  4 0.30154274E+03</rscale>
<asrwt>0</asrwt>
<pdfrwt beam="1">  1       21 0.13548241E+00 0.30154274E+03</pdfrwt>
<pdfrwt beam="2">  1       -1 0.17468618E-01 0.30154274E+03</pdfrwt>
<totfact> 0.84646533E+02</totfact>
</mgrwt>
</event>
<event>
 5    0  0.1014204E+000  0.3858447E+03  0.7546771E-02  0.1048794E+00
          1   -1    0    0  503    0 -0.00000000000E+00  0.00000000000E+00  0.41933251457E+03  0.41933251457E+03  0.00000000000E+00 0. -1.
         21   -1    0    0  501  502  0.00000000000E+00 -0.00000000000E+00 -0.13540701978E+04  0.13540701978E+04  0.00000000000E+00 0.  1.
         25    1    1    2    0    0  0.34538639356E+03 -0.11545734700E+03 -0.12150497705E+04  0.12745952709E+04  0.12500000000E+03 0.  0.
         21    1    1    2  503  502 -0.15839839106E+00 -0.34358498587E+02  0.37905553938E+02  0.51160165505E+02  0.00000000000E+00 0.  1.
          1    1    1    2  501    0 -0.34522799517E+03  0.14981584559E+03  0.24240653335E+03  0.44764727593E+03  0.00000000000E+00 0. -1.
<mgrwt>
<rscale>  4 0.38584473E+03</rscale>
<asrwt>0</asrwt>
<pdfrwt beam="1">  1       21 0.20831849E+00 0.38584473E+03</pdfrwt>
<pdfrwt beam="2">  1        1 0.64512695E-01 0.38584473E+03</pdfrwt>
<totfact> 0.65210933E+01</totfact>
</mgrwt>
</event>
<event>
 5    0  0.1014204E+000  0.6312890E+03  0.7546771E-02  0.9842537E-01
         21   -1    0    0  501  502  0.00000000000E+00  0.00000000000E+00  0.34273240064E+03  0.34273240064E+03  0.00000000000E+00 0.  1.
          2   -1    0    0  503    0 -0.00000000000E+00 -0.00000000000E+00 -0.18092657159E+04  0.18092657159E+04  0.00000000000E+00 0.  1.
         25    1    1    2    0    0 -0.96578182901E+02 -0.60884830419E+03 -0.96378401235E+02  0.63634691730E+03  0.12500000000E+03 0.  0.
         21    1    1    2  503  502  0.14763256134E+02 -0.13632461663E+02 -0.45782386800E+02  0.49998246807E+02  0.00000000000E+00 0. -1.
          2    1    1    2  501    0  0.81814926767E+02  0.62248076586E+03 -0.13243725272E+04  0.14656529525E+04  0.00000000000E+00 0.  1.
<mgrwt>
<rscale>  4 0.63128896E+03</rscale>
<asrwt>0</asrwt>
<pdfrwt beam="1">  1       21 0.52728062E-01 0.63128896E+03</pdfrwt>
<pdfrwt beam="2">  1        2 0.27834857E+00 0.63128896E+03</pdfrwt>
<totfact> 0.34397336E+02</totfact>
</mgrwt>
</event>
<event>
 5    0  0.1014204E+000  0.2640653E+03  0.7546771E-02  0.1104725E+00
         21   -1    0    0  501  502  0.00000000000E+00  0.00000000000E+00  0.17402357706E+03  0.17402357706E+03  0.00000000000E+00 0. -1.
          1   -1    0    0  503    0 -0.00000000000E+00 -0.00000000000E+00 -0.43658674525E+03  0.43658674525E+03  0.00000000000E+00 0. -1.
         25    1    1    2    0    0 -0.23979600666E+03  0.13146671820E+02 -0.21038044053E+03  0.34287007678E+03  0.12500000000E+03 0.  0.
         21    1    1    2  503  502  0.10669867640E+02 -0.26726260142E+02 -0.22026392417E+02  0.36239495299E+02  0.00000000000E+00 0. -1.
          1    1    1    2  501    0  0.22912613902E+03  0.13579588322E+02 -0.30156335243E+02  0.23150075023E+03  0.00000000000E+00 0. -1.
<mgrwt>
<rscale>  4 0.26406526E+03</rscale>
<asrwt>0</asrwt>
<pdfrwt beam="1">  1       21 0.26772858E-01 0.26406526E+03</pdfrwt>
<pdfrwt beam="2">  1        1 0.67167192E-01 0.26406526E+03</pdfrwt>
<totfact> 0.77820521E+03</totfact>
</mgrwt>
</event>
<event>
 5    0  0.1014204E+000  0.2627049E+03  0.7546771E-02  0.1105529E+00
          2   -1    0    0  503    0 -0.00000000000E+00  0.00000000000E+00  0.14610686608E+04  0.14610686608E+04  0.00000000000E+00 0. -1.
         21   -1    0    0  501  502  0.00000000000E+00 -0.00000000000E+00 -0.45176859185E+03  0.45176859185E+03  0.00000000000E+00 0. -1.
         25    1    1    2    0    0 -0.22106347855E+03  0.67229361422E+02 -0.40269960395E+03  0.48081266582E+03  0.12500000000E+03 0.  0.
         21    1    1    2  503  502  0.29024333598E+02 -0.14092679052E+02  0.35078877886E+03  0.35226947486E+03  0.00000000000E+00 0. -1.
          2    1    1    2  501    0  0.19203914495E+03 -0.53136682369E+02  0.10612108940E+04  0.10797551119E+04  0.00000000000E+00 0. -1.
<mgrwt>
<rscale>  4 0.26270487E+03</rscale>
<asrwt>0</asrwt>
<pdfrwt beam="1">  1       21 0.69502861E-01 0.26270487E+03</pdfrwt>
<pdfrwt beam="2">  1        2 0.22477979E+00 0.26270487E+03</pdfrwt>
<totfact> 0.33015227E+02</totfact>
</mgrwt>
</event>
<event>
 5    0  0.1014204E+000  0.2733263E+03  0.7546771E-02  0.1099391E+00
         21   -1    0    0  503  502  0.00000000000E+00  0.00000000000E+00  0.13799807457E+03  0.13799807457E+03  0.00000000000E+00 0.  1.
         -1   -1    0    0    0  501 -0.00000000000E+00 -0.00000000000E+00 -0.11654726027E+04  0.11654726027E+04  0.00000000000E+00 0.  1.
         25    1    1    2    0    0  0.19952021715E+03  0.13883073663E+03 -0.29712797486E+02  0.27493661237E+03  0.12500000000E+03 0.  0.
         21    1    1    2  503  501 -0.61750849904E+01 -0.23468975536E+02 -0.83210582945E+02  0.86677134248E+02  0.00000000000E+00 0. -1.
         -1    1    1    2    0  502 -0.19334513216E+03 -0.11536176110E+03 -0.91455114766E+03  0.94185693061E+03  0.00000000000E+00 0.  1.
<mgrwt>
<rscale>  4 0.27332634E+03</rscale>
<asrwt>0</asrwt>
<pdfrwt beam="1">  1       21 0.21230472E-01 0.27332634E+03</pdfrwt>
<pdfrwt beam="2">  1       -1 0.17930348E+00 0.27332634E+03</pdfrwt>
<totfact> 0.43846720E+02</totfact>
</mgrwt>
</event>
<event>
 5    0  0.1014204E+000  0.2342338E+03  0.7546771E-02  0.1123695E+00
          2   -1    0    0  503    0 -0.00000000000E+00  0.00000000000E+00  0.12191697622E+04  0.12191697622E+04  0.00000000000E+00 0.  1.
         21   -1    0    0  501  502  0.00000000000E+00 -0.00000000000E+00 -0.56964042638E+02  0.56964042638E+02  0.00000000000E+00 0. -1.
         25    1    1    2    0    0  0.14357349317E+03  0.14373412097E+03  0.29774553616E+03  0.38151048449E+03  0.12500000000E+03 0.  0.
         21    1    1    2  503  502  0.23138758718E+01 -0.22844521385E+02  0.26362469652E+03  0.26462276318E+03  0.00000000000E+00 0.  1.
          2    1    1    2  501    0 -0.14588736904E+03 -0.12088959959E+03  0.60083548692E+03  0.63000055720E+03  0.00000000000E+00 0.  1.
<mgrwt>
<rscale>  4 0.23423375E+03</rscale>
<asrwt>0</asrwt>
<pdfrwt beam="1">  1       21 0.87636998E-02 0.23423375E+03</pdfrwt>
<pdfrwt beam="2">  1        2 0.18756456E+00 0.23423375E+03</pdfrwt>
<totfact> 0.25266548E+04</totfact>
</mgrwt>
</event>
<event>
 5    0  0.1014204E+000  0.4490756E+03  0.7546771E-02  0.1027998E+00
          2   -1    0    0  503    0 -0.00000000000E+00  0.00000000000E+00  0.15478139144E+04  0.15478139144E+04  0.00000000000E+00 0. -1.
         21   -1    0    0  501  502  0.00000000000E+00 -0.00000000000E+00 -0.32026252223E+03  0.32026252223E+03  0.00000000000E+00 0.  1.
         25    1    1    2    0    0 -0.42300874427E+03  0.48500503471E+02  0.27604261821E+03  0.52260235708E+03  0.12500000000E+03 0.  0.
         21    1    1    2  503  502  0.13212572308E+02  0.11304052199E+03  0.89403958735E+03  0.90125441216E+03  0.00000000000E+00 0. -1.
          2    1    1    2  501    0  0.40979617196E+03 -0.16154102546E+03  0.57469186559E+02  0.44421966735E+03  0.00000000000E+00 0. -1.
<mgrwt>
<rscale>  4 0.44907563E+03</rscale>
<asrwt>0</asrwt>
<pdfrwt beam="1">  1       21 0.49271158E-01 0.44907563E+03</pdfrwt>
<pdfrwt beam="2">  1        2 0.23812521E+00 0.44907563E+03</pdfrwt>
<totfact> 0.57843927E+02</totfact>
</mgrwt>
</event>
