<event>
 5    0  0.1239749E+000  0.2940900E+03  0.7546771E-02  0.1088233E+00
          2   -1    0    0  503    0 -0.00000000000E+00  0.00000000000E+00  0.68748457838E+03  0.68748457838E+03  0.00000000000E+00 0.  1.
         21   -1    0    0  501  502  0.00000000000E+00 -0.00000000000E+00 -0.38134603428E+03  0.38134603428E+03  0.00000000000E+00 0.  1.
         25    1    1    2    0    0  0.20638135145E+03  0.13065811855E+03 -0.16792651221E+03  0.32169724847E+03  0.12500000000E+03 0.  0.
         21    1    1    2  503  502 -0.21875596538E+03 -0.28612461770E+03  0.15522532509E+03  0.39219430234E+03  0.00000000000E+00 0.  1.
          2    1    1    2  501    0  0.12374613936E+02  0.15546649915E+03  0.31883973121E+03  0.35493906185E+03  0.00000000000E+00 0.  1.
<mgrwt>
<rscale>  4 0.29409001E+03</rscale>
<asrwt>0</asrwt>
<pdfrwt beam="1">  1       21 0.58668621E-01 0.29409001E+03</pdfrwt>
<pdfrwt beam="2">  1        2 0.10576686E+00 0.29409001E+03</pdfrwt>
<totfact> 0.14077653E+03</totfact>
</mgrwt>
</event>
<event>
 5    0  0.1239749E+000  0.4185356E+03  0.7546771E-02  0.1037544E+00
         21   -1    0    0  501  502  0.00000000000E+00  0.00000000000E+00  0.12830737622E+03  0.12830737622E+03  0.00000000000E+00 0. -1.
          2   -1    0    0  503    0 -0.00000000000E+00 -0.00000000000E+00 -0.17259029950E+04  0.17259029950E+04  0.00000000000E+00 0. -1.
         25    1    1    2    0    0  0.30228802536E+03  0.29335374994E+03 -0.86054149178E+03  0.96622519733E+03  0.12500000000E+03 0.  0.
         21    1    1    2  503  502 -0.30695086794E+03 -0.23736665658E+03 -0.44428191813E+03  0.58987133153E+03  0.00000000000E+00 0. -1.
          2    1    1    2  501    0  0.46628425842E+01 -0.55987093365E+02 -0.29277220889E+03  0.29811384239E+03  0.00000000000E+00 0. -1.
<mgrwt>
<rscale>  4 0.41853565E+03</rscale>
<asrwt>0</asrwt>
<pdfrwt beam="1">  1       21 0.19739595E-01 0.41853565E+03</pdfrwt>
<pdfrwt beam="2">  1        2 0.26552355E+00 0.41853565E+03</pdfrwt>
<totfact> 0.29118702E+03</totfact>
</mgrwt>
</event>
<event>
 5    0  0.1239749E+000  0.7390732E+03  0.7546771E-02  0.9652650E-01
         21   -1    0    0  501  502  0.00000000000E+00  0.00000000000E+00  0.51409263822E+03  0.51409263822E+03  0.00000000000E+00 0.  1.
          2   -1    0    0  503    0 -0.00000000000E+00 -0.00000000000E+00 -0.24681661174E+04  0.24681661174E+04  0.00000000000E+00 0.  1.
         25    1    1    2    0    0 -0.68753718261E+03 -0.23518973197E+03  0.12838020134E+03  0.74841703855E+03  0.12500000000E+03 0.  0.
         21    1    1    2  503  502  0.69163378130E+03  0.26066018929E+03 -0.17407648740E+04  0.18911804167E+04  0.00000000000E+00 0.  1.
          2    1    1    2  501    0 -0.40965986916E+01 -0.25470457320E+02 -0.34168880650E+03  0.34266130042E+03  0.00000000000E+00 0.  1.
<mgrwt>
<rscale>  4 0.73907324E+03</rscale>
<asrwt>0</asrwt>
<pdfrwt beam="1">  1       21 0.79091174E-01 0.73907324E+03</pdfrwt>
<pdfrwt beam="2">  1        2 0.37971787E+00 0.73907324E+03</pdfrwt>
<totfact> 0.58628330E+01</totfact>
</mgrwt>
</event>
<event>
 5    0  0.1239749E+000  0.3131654E+03  0.7546771E-02  0.1078838E+00
         21   -1    0    0  501  502  0.00000000000E+00  0.00000000000E+00  0.49562585874E+03  0.49562585874E+03  0.00000000000E+00 0.  1.
          2   -1    0    0  503    0 -0.00000000000E+00 -0.00000000000E+00 -0.12372605399E+04  0.12372605399E+04  0.00000000000E+00 0. -1.
         25    1    1    2    0    0 -0.26058720909E+03 -0.12285915279E+03  0.39767264408E+03  0.50672339281E+03  0.12500000000E+03 0.  0.
         21    1    1    2  503  502  0.27489894309E+03  0.69400434420E+02 -0.43222371957E+03  0.51691700782E+03  0.00000000000E+00 0. -1.
          2    1    1    2  501    0 -0.14311734000E+02  0.53458718373E+02 -0.70708360566E+03  0.70924599801E+03  0.00000000000E+00 0. -1.
<mgrwt>
<rscale>  4 0.31316540E+03</rscale>
<asrwt>0</asrwt>
<pdfrwt beam="1">  1       21 0.76250133E-01 0.31316540E+03</pdfrwt>
<pdfrwt beam="2">  1        2 0.19034777E+00 0.31316540E+03</pdfrwt>
<totfact> 0.34706049E+02</totfact>
</mgrwt>
</event>
<event>
 5    0  0.1239749E+000  0.2856514E+03  0.7546771E-02  0.1092642E+00
          2   -1    0    0  503    0 -0.00000000000E+00  0.00000000000E+00  0.22235246324E+04  0.22235246324E+04  0.00000000000E+00 0. -1.
         21   -1    0    0  501  502  0.00000000000E+00 -0.00000000000E+00 -0.15248627454E+03  0.15248627454E+03  0.00000000000E+00 0. -1.
         25    1    1    2    0    0 -0.23634054620E+03 -0.11256630292E+03  0.17343743544E+03  0.33798457116E+03  0.12500000000E+03 0.  0.
         21    1    1    2  503  502  0.26927011224E+03 -0.20508592343E+02  0.20287571200E+03  0.33776552551E+03  0.00000000000E+00 0. -1.
          2    1    1    2  501    0 -0.32929566039E+02  0.13307489527E+03  0.16947252104E+04  0.17002608102E+04  0.00000000000E+00 0. -1.
<mgrwt>
<rscale>  4 0.28565141E+03</rscale>
<asrwt>0</asrwt>
<pdfrwt beam="1">  1       21 0.23459428E-01 0.28565141E+03</pdfrwt>
<pdfrwt beam="2">  1        2 0.34208069E+00 0.28565141E+03</pdfrwt>
<totfact> 0.11923831E+03</totfact>
</mgrwt>
</event>
<event>
 5    0  0.1239749E+000  0.3817896E+03  0.7546771E-02  0.1050274E+00
         21   -1    0    0  501  502  0.00000000000E+00  0.00000000000E+00  0.25436812582E+03  0.25436812582E+03  0.00000000000E+00 0. -1.
          2   -1    0    0  503    0 -0.00000000000E+00 -0.00000000000E+00 -0.99350820612E+03  0.99350820612E+03  0.00000000000E+00 0. -1.
         25    1    1    2    0    0 -0.30960424622E+03 -0.21055520804E+03 -0.20846332895E+03  0.44639695835E+03  0.12500000000E+03 0.  0.
         21    1    1    2  503  502  0.29634160512E+03  0.18861994488E+03 -0.93440937854E+02  0.36349283267E+03  0.00000000000E+00 0. -1.
          2    1    1    2  501    0  0.13262641100E+02  0.21935263157E+02 -0.43723581349E+03  0.43798654091E+03  0.00000000000E+00 0. -1.
<mgrwt>
<rscale>  4 0.38178956E+03</rscale>
<asrwt>0</asrwt>
<pdfrwt beam="1">  1       21 0.39133557E-01 0.38178956E+03</pdfrwt>
<pdfrwt beam="2">  1        2 0.15284742E+00 0.38178956E+03</pdfrwt>
<totfact> 0.19817408E+03</totfact>
</mgrwt>
</event>
<event>
 5    0  0.1239749E+000  0.2552226E+03  0.7546771E-02  0.1110048E+00
          2   -1    0    0  503    0 -0.00000000000E+00  0.00000000000E+00  0.15145649581E+04  0.15145649581E+04  0.00000000000E+00 0. -1.
         21   -1    0    0  501  502  0.00000000000E+00 -0.00000000000E+00 -0.21104701821E+04  0.21104701821E+04  0.00000000000E+00 0. -1.
         25    1    1    2    0    0  0.21535635358E+03 -0.57489862298E+02 -0.20740809604E+04  0.20897656026E+04  0.12500000000E+03 0.  0.
         21    1    1    2  503  502 -0.19198735374E+03  0.73300210809E+02  0.34376322822E+03  0.40050620716E+03  0.00000000000E+00 0. -1.
          2    1    1    2  501    0 -0.23368999845E+02 -0.15810348511E+02  0.11344125082E+04  0.11347633304E+04  0.00000000000E+00 0. -1.
<mgrwt>
<rscale>  4 0.25522258E+03</rscale>
<asrwt>0</asrwt>
<pdfrwt beam="1">  1       21 0.32468772E+00 0.25522258E+03</pdfrwt>
<pdfrwt beam="2">  1        2 0.23300999E+00 0.25522258E+03</pdfrwt>
<totfact> 0.38514400E+00</totfact>
</mgrwt>
</event>
<event>
 5    0  0.1239749E+000  0.2861094E+03  0.7546771E-02  0.1092398E+00
          1   -1    0    0  503    0 -0.00000000000E+00  0.00000000000E+00  0.42630041498E+03  0.42630041498E+03  0.00000000000E+00 0.  1.
         21   -1    0    0  501  502  0.00000000000E+00 -0.00000000000E+00 -0.58609816329E+03  0.58609816329E+03  0.00000000000E+00 0.  1.
         25    1    1    2    0    0 -0.36650123741E+03 -0.15977276183E+02 -0.30313885707E+03  0.49203312596E+03  0.12500000000E+03 0.  0.
         21    1    1    2  503  502  0.17656895356E+03  0.42571162426E+02  0.24367668261E+03  0.30391976717E+03  0.00000000000E+00 0. -1.
          1    1    1    2  501    0  0.18993228385E+03 -0.26593886243E+02 -0.10033557386E+03  0.21644568514E+03  0.00000000000E+00 0.  1.
<mgrwt>
<rscale>  4 0.28610941E+03</rscale>
<asrwt>0</asrwt>
<pdfrwt beam="1">  1       21 0.90168948E-01 0.28610941E+03</pdfrwt>
<pdfrwt beam="2">  1        1 0.65584679E-01 0.28610941E+03</pdfrwt>
<totfact> 0.61378557E+02</totfact>
</mgrwt>
</event>
<event>
 5    0  0.1239749E+000  0.3410474E+03  0.7546771E-02  0.1067611E+00
         21   -1    0    0  501  502  0.00000000000E+00  0.00000000000E+00  0.14999267605E+03  0.14999267605E+03  0.00000000000E+00 0. -1.
          2   -1    0    0  503    0 -0.00000000000E+00 -0.00000000000E+00 -0.80023400761E+03  0.80023400761E+03  0.00000000000E+00 0. -1.
         25    1    1    2    0    0 -0.20150183398E+03  0.22861200606E+03 -0.19980997991E+03  0.38524727966E+03  0.12500000000E+03 0.  0.
         21    1    1    2  503  502  0.11769263665E+03 -0.56376910997E+02 -0.27863302449E+03  0.30767885068E+03  0.00000000000E+00 0. -1.
          2    1    1    2  501    0  0.83809197327E+02 -0.17223509506E+03 -0.17179832715E+03  0.25730055332E+03  0.00000000000E+00 0. -1.
<mgrwt>
<rscale>  4 0.33809246E+03</rscale>
<asrwt>0</asrwt>
<pdfrwt beam="1">  1       21 0.23075796E-01 0.34104739E+03</pdfrwt>
<pdfrwt beam="2">  1        2 0.12311292E+00 0.34104739E+03</pdfrwt>
<totfact> 0.76274678E+03</totfact>
</mgrwt>
</event>
<event>
 5    0  0.1239749E+000  0.3014472E+03  0.7546771E-02  0.1084519E+00
         21   -1    0    0  501  502  0.00000000000E+00  0.00000000000E+00  0.21226351327E+04  0.21226351327E+04  0.00000000000E+00 0. -1.
          2   -1    0    0  503    0 -0.00000000000E+00 -0.00000000000E+00 -0.15181656824E+03  0.15181656824E+03  0.00000000000E+00 0. -1.
         25    1    1    2    0    0 -0.75897918241E+02  0.21848415068E+03  0.14449741072E+04  0.14686970377E+04  0.12500000000E+03 0.  0.
         21    1    1    2  503  502 -0.18265348414E+03 -0.94044220558E+02  0.47067791845E+03  0.51356042838E+03  0.00000000000E+00 0. -1.
          2    1    1    2  501    0  0.25855140239E+03 -0.12443993013E+03  0.55166538829E+02  0.29219423487E+03  0.00000000000E+00 0. -1.
<mgrwt>
<rscale>  4 0.30144718E+03</rscale>
<asrwt>0</asrwt>
<pdfrwt beam="1">  1       21 0.32655923E+00 0.30144718E+03</pdfrwt>
<pdfrwt beam="2">  1        2 0.23356397E-01 0.30144718E+03</pdfrwt>
<totfact> 0.61319580E+01</totfact>
</mgrwt>
</event>
<event>
 5    0  0.1239749E+000  0.2061800E+03  0.7546771E-02  0.1144627E+00
         -3   -1    0    0    0  501 -0.00000000000E+00  0.00000000000E+00  0.20245255981E+03  0.20245255981E+03  0.00000000000E+00 0.  1.
         21   -1    0    0  503  502  0.00000000000E+00 -0.00000000000E+00 -0.62059582942E+03  0.62059582942E+03  0.00000000000E+00 0. -1.
         25    1    1    2    0    0  0.54263298155E+02  0.20577179253E+03 -0.13505012303E+03  0.28133622564E+03  0.12500000000E+03 0.  0.
         21    1    1    2  503  501  0.11152807132E+02 -0.66793807285E+02 -0.36251814644E+03  0.36878883429E+03  0.00000000000E+00 0. -1.
         -3    1    1    2    0  502 -0.65416105287E+02 -0.13897798524E+03  0.79424999853E+02  0.17292332930E+03  0.00000000000E+00 0.  1.
<mgrwt>
<rscale>  4 0.20618004E+03</rscale>
<asrwt>0</asrwt>
<pdfrwt beam="1">  1       21 0.95476281E-01 0.20618004E+03</pdfrwt>
<pdfrwt beam="2">  1       -3 0.31146548E-01 0.20618004E+03</pdfrwt>
<totfact> 0.45044757E+02</totfact>
</mgrwt>
</event>
<event>
 5    0  0.1239749E+000  0.3098034E+03  0.7546771E-02  0.1080440E+00
          1   -1    0    0  503    0 -0.00000000000E+00  0.00000000000E+00  0.17072657476E+03  0.17072657476E+03  0.00000000000E+00 0. -1.
         21   -1    0    0  501  502  0.00000000000E+00 -0.00000000000E+00 -0.87911761464E+03  0.87911761464E+03  0.00000000000E+00 0. -1.
         25    1    1    2    0    0  0.75792969982E+02 -0.27314569358E+03 -0.67925036607E+03  0.74656493624E+03  0.12500000000E+03 0.  0.
         21    1    1    2  503  502 -0.15630872587E+02  0.16480316343E+03 -0.59113220177E+02  0.17578048713E+03  0.00000000000E+00 0. -1.
          1    1    1    2  501    0 -0.60162097395E+02  0.10834253015E+03  0.29972546363E+02  0.12749876603E+03  0.00000000000E+00 0. -1.
<mgrwt>
<rscale>  4 0.30980340E+03</rscale>
<asrwt>0</asrwt>
<pdfrwt beam="1">  1       21 0.13524887E+00 0.30980340E+03</pdfrwt>
<pdfrwt beam="2">  1        1 0.26265626E-01 0.30980340E+03</pdfrwt>
<totfact> 0.71953733E+02</totfact>
</mgrwt>
</event>
<event>
 5    0  0.1239749E+000  0.3067465E+03  0.7546771E-02  0.1081916E+00
          1   -1    0    0  503    0 -0.00000000000E+00  0.00000000000E+00  0.13430033444E+04  0.13430033444E+04  0.00000000000E+00 0.  1.
         21   -1    0    0  501  502  0.00000000000E+00 -0.00000000000E+00 -0.12669224470E+04  0.12669224470E+04  0.00000000000E+00 0. -1.
         25    1    1    2    0    0 -0.22874028806E+03  0.15807259140E+03 -0.11568702824E+04  0.11963623673E+04  0.12500000000E+03 0.  0.
         21    1    1    2  503  502  0.26797908336E+03 -0.15391975357E+03  0.17553338510E+03  0.35540969169E+03  0.00000000000E+00 0. -1.
          1    1    1    2  501    0 -0.39238795299E+02 -0.41528378287E+01  0.10574177947E+04  0.10581537325E+04  0.00000000000E+00 0.  1.
<mgrwt>
<rscale>  4 0.30674648E+03</rscale>
<asrwt>0</asrwt>
<pdfrwt beam="1">  1       21 0.19491115E+00 0.30674648E+03</pdfrwt>
<pdfrwt beam="2">  1        1 0.20661590E+00 0.30674648E+03</pdfrwt>
<totfact> 0.13336790E+01</totfact>
</mgrwt>
</event>
<event>
 5    0  0.1239749E+000  0.2704266E+03  0.7546771E-02  0.1101036E+00
          1   -1    0    0  503    0 -0.00000000000E+00  0.00000000000E+00  0.11681708322E+04  0.11681708322E+04  0.00000000000E+00 0.  1.
         21   -1    0    0  501  502  0.00000000000E+00 -0.00000000000E+00 -0.18573947204E+03  0.18573947204E+03  0.00000000000E+00 0.  1.
         25    1    1    2    0    0  0.17123022366E+03  0.16613014973E+03 -0.58005658053E+02  0.27551528544E+03  0.12500000000E+03 0.  0.
         21    1    1    2  503  502 -0.19353750553E+03 -0.16133470127E+03  0.10060832272E+04  0.10371543337E+04  0.00000000000E+00 0.  1.
          1    1    1    2  501    0  0.22307281873E+02 -0.47954484592E+01  0.34353791028E+02  0.41240685112E+02  0.00000000000E+00 0.  1.
<mgrwt>
<rscale>  4 0.27042657E+03</rscale>
<asrwt>0</asrwt>
<pdfrwt beam="1">  1       21 0.28575304E-01 0.27042657E+03</pdfrwt>
<pdfrwt beam="2">  1        1 0.17971858E+00 0.27042657E+03</pdfrwt>
<totfact> 0.15372691E+03</totfact>
</mgrwt>
</event>
<event>
 5    0  0.1239749E+000  0.3836989E+03  0.7546771E-02  0.1049575E+00
          1   -1    0    0  503    0 -0.00000000000E+00  0.00000000000E+00  0.13338109833E+04  0.13338109833E+04  0.00000000000E+00 0.  1.
         21   -1    0    0  501  502  0.00000000000E+00 -0.00000000000E+00 -0.99139826855E+03  0.99139826855E+03  0.00000000000E+00 0. -1.
         25    1    1    2    0    0  0.35690716852E+03  0.55395613815E+02 -0.82654836256E+03  0.91063636904E+03  0.12500000000E+03 0.  0.
         21    1    1    2  503  502 -0.36352948475E+03 -0.92281153063E+02  0.16472640277E+03  0.40963921353E+03  0.00000000000E+00 0. -1.
          1    1    1    2  501    0  0.66223162350E+01  0.36885539247E+02  0.10042346746E+04  0.10049336693E+04  0.00000000000E+00 0.  1.
<mgrwt>
<rscale>  4 0.38369892E+03</rscale>
<asrwt>0</asrwt>
<pdfrwt beam="1">  1       21 0.15252281E+00 0.38369892E+03</pdfrwt>
<pdfrwt beam="2">  1        1 0.20520169E+00 0.38369892E+03</pdfrwt>
<totfact> 0.25828464E+01</totfact>
</mgrwt>
</event>
<event>
 5    0  0.1239749E+000  0.2969251E+03  0.7546771E-02  0.1086788E+00
         -1   -1    0    0    0  501 -0.00000000000E+00  0.00000000000E+00  0.49802457273E+03  0.49802457273E+03  0.00000000000E+00 0. -1.
         21   -1    0    0  503  502  0.00000000000E+00 -0.00000000000E+00 -0.17097062365E+04  0.17097062365E+04  0.00000000000E+00 0.  1.
         25    1    1    2    0    0  0.11721047934E+03  0.27327799453E+03 -0.14841352343E+04  0.15187829182E+04  0.12500000000E+03 0.  0.
         21    1    1    2  503  501  0.78685128691E+02 -0.18406720621E+03  0.39386439819E+03  0.44181585536E+03  0.00000000000E+00 0. -1.
         -1    1    1    2    0  502 -0.19589560803E+03 -0.89210788316E+02 -0.12141082761E+03  0.24713203568E+03  0.00000000000E+00 0. -1.
<mgrwt>
<rscale>  4 0.29692505E+03</rscale>
<asrwt>0</asrwt>
<pdfrwt beam="1">  1       21 0.26303172E+00 0.29692505E+03</pdfrwt>
<pdfrwt beam="2">  1       -1 0.76619167E-01 0.29692505E+03</pdfrwt>
<totfact> 0.83466049E+00</totfact>
</mgrwt>
</event>
<event>
 5    0  0.1239749E+000  0.2698007E+03  0.7546771E-02  0.1101394E+00
         21   -1    0    0  503  502  0.00000000000E+00  0.00000000000E+00  0.76843320933E+03  0.76843320933E+03  0.00000000000E+00 0.  1.
         -4   -1    0    0    0  501 -0.00000000000E+00 -0.00000000000E+00 -0.98374272962E+03  0.98374272962E+03  0.00000000000E+00 0. -1.
         25    1    1    2    0    0 -0.14289527743E+03  0.14115790338E+03  0.38279176369E+03  0.44999905372E+03  0.12500000000E+03 0.  0.
         21    1    1    2  503  501  0.32914952971E+03 -0.14974901230E+03  0.24624192973E+03  0.43749201998E+03  0.00000000000E+00 0.  1.
         -4    1    1    2    0  502 -0.18625425228E+03  0.85911089192E+01 -0.84434321372E+03  0.86468486525E+03  0.00000000000E+00 0. -1.
<mgrwt>
<rscale>  4 0.26980068E+03</rscale>
<asrwt>0</asrwt>
<pdfrwt beam="1">  1       21 0.11822049E+00 0.26980068E+03</pdfrwt>
<pdfrwt beam="2">  1       -4 0.15134503E+00 0.26980068E+03</pdfrwt>
<totfact> 0.68620569E+00</totfact>
</mgrwt>
</event>
<event>
 5    0  0.1239749E+000  0.2513794E+03  0.7546771E-02  0.1112436E+00
         21   -1    0    0  501  502  0.00000000000E+00  0.00000000000E+00  0.59894395857E+03  0.59894395857E+03  0.00000000000E+00 0.  1.
          2   -1    0    0  503    0 -0.00000000000E+00 -0.00000000000E+00 -0.16695459067E+04  0.16695459067E+04  0.00000000000E+00 0. -1.
         25    1    1    2    0    0 -0.18315397209E+03 -0.12856318247E+03  0.46772749821E+03  0.53335530555E+03  0.12500000000E+03 0.  0.
         21    1    1    2  503  502  0.11457971650E+03  0.17656557898E+03 -0.16636825436E+02  0.21114141961E+03  0.00000000000E+00 0.  1.
          2    1    1    2  501    0  0.68574255593E+02 -0.48002396505E+02 -0.15216926209E+04  0.15239931401E+04  0.00000000000E+00 0. -1.
<mgrwt>
<rscale>  4 0.25137940E+03</rscale>
<asrwt>0</asrwt>
<pdfrwt beam="1">  1       21 0.92145224E-01 0.25137940E+03</pdfrwt>
<pdfrwt beam="2">  1        2 0.25685322E+00 0.25137940E+03</pdfrwt>
<totfact> 0.13549016E+02</totfact>
</mgrwt>
</event>
<event>
 5    0  0.1239749E+000  0.2076769E+03  0.7546771E-02  0.1143419E+00
         21   -1    0    0  501  502  0.00000000000E+00  0.00000000000E+00  0.17364122493E+03  0.17364122493E+03  0.00000000000E+00 0.  1.
          2   -1    0    0  503    0 -0.00000000000E+00 -0.00000000000E+00 -0.15513051390E+04  0.15513051390E+04  0.00000000000E+00 0. -1.
         25    1    1    2    0    0  0.21576274170E+03  0.87060985599E+02 -0.77422421727E+03  0.81803503258E+03  0.12500000000E+03 0.  0.
         21    1    1    2  503  502 -0.15899337829E+03 -0.32798472617E+02  0.10551636355E+03  0.19361905155E+03  0.00000000000E+00 0.  1.
          2    1    1    2  501    0 -0.56769363408E+02 -0.54262512982E+02 -0.70895606036E+03  0.71329227982E+03  0.00000000000E+00 0. -1.
<mgrwt>
<rscale>  4 0.20767688E+03</rscale>
<asrwt>0</asrwt>
<pdfrwt beam="1">  1       21 0.26714035E-01 0.20767688E+03</pdfrwt>
<pdfrwt beam="2">  1        2 0.23866232E+00 0.20767688E+03</pdfrwt>
<totfact> 0.21815323E+03</totfact>
</mgrwt>
</event>
<event>
 5    0  0.1239749E+000  0.2759935E+03  0.7546771E-02  0.1097898E+00
         21   -1    0    0  503  502  0.00000000000E+00  0.00000000000E+00  0.12567248910E+04  0.12567248910E+04  0.00000000000E+00 0.  1.
         -1   -1    0    0    0  501 -0.00000000000E+00 -0.00000000000E+00 -0.31106666062E+03  0.31106666062E+03  0.00000000000E+00 0.  1.
         25    1    1    2    0    0  0.24240868157E+03  0.58756127448E+02  0.11723023678E+04  0.12050444361E+04  0.12500000000E+03 0.  0.
         21    1    1    2  503  501 -0.19102776355E+03 -0.90903837248E+02 -0.12888065022E+03  0.24772027788E+03  0.00000000000E+00 0.  1.
         -1    1    1    2    0  502 -0.51380918016E+02  0.32147709800E+02 -0.97763487121E+02  0.11502683772E+03  0.00000000000E+00 0.  1.
<mgrwt>
<rscale>  4 0.27599352E+03</rscale>
<asrwt>0</asrwt>
<pdfrwt beam="1">  1       21 0.19334229E+00 0.27599352E+03</pdfrwt>
<pdfrwt beam="2">  1       -1 0.47856410E-01 0.27599352E+03</pdfrwt>
<totfact> 0.57284329E+01</totfact>
</mgrwt>
</event>
<event>
 5    0  0.1239749E+000  0.2674123E+03  0.7546771E-02  0.1102770E+00
          2   -1    0    0  503    0 -0.00000000000E+00  0.00000000000E+00  0.49523839533E+03  0.49523839533E+03  0.00000000000E+00 0.  1.
         21   -1    0    0  501  502  0.00000000000E+00 -0.00000000000E+00 -0.30157526459E+03  0.30157526459E+03  0.00000000000E+00 0. -1.
         25    1    1    2    0    0  0.21550496832E+03  0.12308903131E+03 -0.56104891557E+02  0.28348908243E+03  0.12500000000E+03 0.  0.
         21    1    1    2  503  502 -0.20090204941E+03 -0.10432418777E+03 -0.33693375668E+02  0.22886767612E+03  0.00000000000E+00 0. -1.
          2    1    1    2  501    0 -0.14602918916E+02 -0.18764843539E+02  0.28346139797E+03  0.28445690136E+03  0.00000000000E+00 0.  1.
<mgrwt>
<rscale>  4 0.26741226E+03</rscale>
<asrwt>0</asrwt>
<pdfrwt beam="1">  1       21 0.46396195E-01 0.26741226E+03</pdfrwt>
<pdfrwt beam="2">  1        2 0.76190522E-01 0.26741226E+03</pdfrwt>
<totfact> 0.34197877E+03</totfact>
</mgrwt>
</event>
<event>
 5    0  0.1239749E+000  0.2372358E+03  0.7546771E-02  0.1121648E+00
         21   -1    0    0  501  502  0.00000000000E+00  0.00000000000E+00  0.96478644839E+02  0.96478644839E+02  0.00000000000E+00 0.  1.
          2   -1    0    0  503    0 -0.00000000000E+00 -0.00000000000E+00 -0.32186210837E+04  0.32186210837E+04  0.00000000000E+00 0. -1.
         25    1    1    2    0    0 -0.24471006514E+03  0.68456937045E+01 -0.15864452818E+04  0.16100818338E+04  0.12500000000E+03 0.  0.
         21    1    1    2  503  502  0.19711272078E+03  0.24717313894E+02 -0.33171062967E+02  0.20140677674E+03  0.00000000000E+00 0.  1.
          2    1    1    2  501    0  0.47597344361E+02 -0.31563007599E+02 -0.15025260941E+04  0.15036111180E+04  0.00000000000E+00 0. -1.
<mgrwt>
<rscale>  4 0.23723576E+03</rscale>
<asrwt>0</asrwt>
<pdfrwt beam="1">  1       21 0.14842867E-01 0.23723576E+03</pdfrwt>
<pdfrwt beam="2">  1        2 0.49517254E+00 0.23723576E+03</pdfrwt>
<totfact> 0.78508680E+02</totfact>
</mgrwt>
</event>
<event>
 5    0  0.1239749E+000  0.2490328E+03  0.7546771E-02  0.1113918E+00
          2   -1    0    0  503    0 -0.00000000000E+00  0.00000000000E+00  0.15932084334E+04  0.15932084334E+04  0.00000000000E+00 0.  1.
         21   -1    0    0  501  502  0.00000000000E+00 -0.00000000000E+00 -0.24763320565E+03  0.24763320565E+03  0.00000000000E+00 0. -1.
         25    1    1    2    0    0 -0.19996686091E+02  0.23664229288E+03 -0.64017185303E+02  0.27590332047E+03  0.12500000000E+03 0.  0.
         21    1    1    2  503  502 -0.12186866557E+02 -0.19135884232E+03  0.42094876824E+02  0.19631277316E+03  0.00000000000E+00 0. -1.
          2    1    1    2  501    0  0.32183552648E+02 -0.45283450553E+02  0.13674975363E+04  0.13686255454E+04  0.00000000000E+00 0.  1.
<mgrwt>
<rscale>  4 0.24903280E+03</rscale>
<asrwt>0</asrwt>
<pdfrwt beam="1">  1       21 0.38097417E-01 0.24903280E+03</pdfrwt>
<pdfrwt beam="2">  1        2 0.24510898E+00 0.24903280E+03</pdfrwt>
<totfact> 0.10073145E+03</totfact>
</mgrwt>
</event>
<event>
 5    0  0.1239749E+000  0.2448759E+03  0.7546771E-02  0.1116587E+00
         21   -1    0    0  501  502  0.00000000000E+00  0.00000000000E+00  0.16209835506E+03  0.16209835506E+03  0.00000000000E+00 0.  1.
          1   -1    0    0  503    0 -0.00000000000E+00 -0.00000000000E+00 -0.38673029152E+03  0.38673029152E+03  0.00000000000E+00 0.  1.
         25    1    1    2    0    0  0.11550103078E+03 -0.16343099947E+03 -0.97966340713E+02  0.25548499684E+03  0.12500000000E+03 0.  0.
         21    1    1    2  503  502 -0.13899948491E+03  0.17002376861E+03 -0.68149473106E+02  0.22994192610E+03  0.00000000000E+00 0.  1.
          1    1    1    2  501    0  0.23498454126E+02 -0.65927691348E+01 -0.58516122642E+02  0.63401723638E+02  0.00000000000E+00 0.  1.
<mgrwt>
<rscale>  4 0.24487586E+03</rscale>
<asrwt>0</asrwt>
<pdfrwt beam="1">  1       21 0.24938209E-01 0.24487586E+03</pdfrwt>
<pdfrwt beam="2">  1        1 0.59496967E-01 0.24487586E+03</pdfrwt>
<totfact> 0.10474761E+04</totfact>
</mgrwt>
</event>
<event>
 5    0  0.1239749E+000  0.2755091E+03  0.7546771E-02  0.1098167E+00
          2   -1    0    0  503    0 -0.00000000000E+00  0.00000000000E+00  0.15204634285E+04  0.15204634285E+04  0.00000000000E+00 0.  1.
         21   -1    0    0  501  502  0.00000000000E+00 -0.00000000000E+00 -0.15479629031E+03  0.15479629031E+03  0.00000000000E+00 0.  1.
         25    1    1    2    0    0  0.17722703276E+03 -0.16991428109E+03 -0.89818419464E+01  0.27565550519E+03  0.12500000000E+03 0.  0.
         21    1    1    2  503  502 -0.12146358541E+03  0.51519814359E+02  0.72420038107E+03  0.73612083641E+03  0.00000000000E+00 0. -1.
          2    1    1    2  501    0 -0.55763447348E+02  0.11839446673E+03  0.65044859904E+03  0.66348337719E+03  0.00000000000E+00 0.  1.
<mgrwt>
<rscale>  4 0.27550914E+03</rscale>
<asrwt>0</asrwt>
<pdfrwt beam="1">  1       21 0.23814815E-01 0.27550914E+03</pdfrwt>
<pdfrwt beam="2">  1        2 0.23391744E+00 0.27550914E+03</pdfrwt>
<totfact> 0.27396382E+03</totfact>
</mgrwt>
</event>
<event>
 5    0  0.1239749E+000  0.2544951E+03  0.7546771E-02  0.1110497E+00
          1   -1    0    0  503    0 -0.00000000000E+00  0.00000000000E+00  0.23867833252E+03  0.23867833252E+03  0.00000000000E+00 0. -1.
         21   -1    0    0  501  502  0.00000000000E+00 -0.00000000000E+00 -0.17443385354E+04  0.17443385354E+04  0.00000000000E+00 0. -1.
         25    1    1    2    0    0 -0.28009169433E+03  0.21425368811E+02 -0.11834393347E+04  0.12227281229E+04  0.12500000000E+03 0.  0.
         21    1    1    2  503  502  0.81863674872E+02  0.73385523240E+02 -0.47829363759E+03  0.49076664520E+03  0.00000000000E+00 0. -1.
          1    1    1    2  501    0  0.19822801946E+03 -0.94810892051E+02  0.15607276938E+03  0.26952209982E+03  0.00000000000E+00 0. -1.
<mgrwt>
<rscale>  4 0.25449507E+03</rscale>
<asrwt>0</asrwt>
<pdfrwt beam="1">  1       21 0.26835976E+00 0.25449507E+03</pdfrwt>
<pdfrwt beam="2">  1        1 0.36719745E-01 0.25449507E+03</pdfrwt>
<totfact> 0.62305744E+01</totfact>
</mgrwt>
</event>
<event>
 5    0  0.1239749E+000  0.2682051E+03  0.7546771E-02  0.1102311E+00
         21   -1    0    0  501  502  0.00000000000E+00  0.00000000000E+00  0.55234542622E+03  0.55234542622E+03  0.00000000000E+00 0. -1.
          2   -1    0    0  503    0 -0.00000000000E+00 -0.00000000000E+00 -0.77376813306E+03  0.77376813306E+03  0.00000000000E+00 0. -1.
         25    1    1    2    0    0 -0.32339800990E+02 -0.23707460939E+03  0.48697117981E+03  0.55679095099E+03  0.12500000000E+03 0.  0.
         21    1    1    2  503  502  0.20855368457E+02  0.21453564385E+03 -0.35703665358E+03  0.41705594454E+03  0.00000000000E+00 0. -1.
          2    1    1    2  501    0  0.11484432533E+02  0.22538965534E+02 -0.35135723306E+03  0.35226666374E+03  0.00000000000E+00 0. -1.
<mgrwt>
<rscale>  4 0.26820514E+03</rscale>
<asrwt>0</asrwt>
<pdfrwt beam="1">  1       21 0.84976219E-01 0.26820514E+03</pdfrwt>
<pdfrwt beam="2">  1        2 0.11904125E+00 0.26820514E+03</pdfrwt>
<totfact> 0.53759650E+02</totfact>
</mgrwt>
</event>
<event>
 5    0  0.1239749E+000  0.2411131E+03  0.7546771E-02  0.1119054E+00
          2   -1    0    0  503    0 -0.00000000000E+00  0.00000000000E+00  0.24860789499E+03  0.24860789499E+03  0.00000000000E+00 0.  1.
         21   -1    0    0  501  502  0.00000000000E+00 -0.00000000000E+00 -0.93301080668E+03  0.93301080668E+03  0.00000000000E+00 0. -1.
         25    1    1    2    0    0  0.32111303791E+02 -0.32351744412E+03 -0.29554183823E+03  0.45679826032E+03  0.12500000000E+03 0.  0.
         21    1    1    2  503  502 -0.80661948055E+02  0.16612818551E+03 -0.49537115561E+03  0.52867523650E+03  0.00000000000E+00 0. -1.
          2    1    1    2  501    0  0.48550644264E+02  0.15738925861E+03  0.10651008215E+03  0.19614520485E+03  0.00000000000E+00 0.  1.
<mgrwt>
<rscale>  4 0.24111307E+03</rscale>
<asrwt>0</asrwt>
<pdfrwt beam="1">  1       21 0.14354012E+00 0.24111307E+03</pdfrwt>
<pdfrwt beam="2">  1        2 0.38247368E-01 0.24111307E+03</pdfrwt>
<totfact> 0.54085400E+02</totfact>
</mgrwt>
</event>
<event>
 5    0  0.1239749E+000  0.2855803E+03  0.7546771E-02  0.1092680E+00
         21   -1    0    0  501  502  0.00000000000E+00  0.00000000000E+00  0.28026737734E+03  0.28026737734E+03  0.00000000000E+00 0.  1.
          2   -1    0    0  503    0 -0.00000000000E+00 -0.00000000000E+00 -0.24024698974E+04  0.24024698974E+04  0.00000000000E+00 0.  1.
         25    1    1    2    0    0 -0.26709989419E+03 -0.40159641238E+02  0.14616761641E+03  0.33157973754E+03  0.12500000000E+03 0.  0.
         21    1    1    2  503  502  0.21029079551E+03  0.50930773773E+02 -0.24461752186E+03  0.32657907832E+03  0.00000000000E+00 0.  1.
          2    1    1    2  501    0  0.56809098675E+02 -0.10771132535E+02 -0.20237526146E+04  0.20245784588E+04  0.00000000000E+00 0.  1.
<mgrwt>
<rscale>  4 0.28558027E+03</rscale>
<asrwt>0</asrwt>
<pdfrwt beam="1">  1       21 0.43118059E-01 0.28558027E+03</pdfrwt>
<pdfrwt beam="2">  1        2 0.36961074E+00 0.28558027E+03</pdfrwt>
<totfact> 0.28573670E+02</totfact>
</mgrwt>
</event>
<event>
 5    0  0.1239749E+000  0.3968306E+03  0.7546771E-02  0.1044883E+00
         21   -1    0    0  503  502  0.00000000000E+00  0.00000000000E+00  0.57959957663E+03  0.57959957663E+03  0.00000000000E+00 0.  1.
         -2   -1    0    0    0  501 -0.00000000000E+00 -0.00000000000E+00 -0.51425909095E+03  0.51425909095E+03  0.00000000000E+00 0. -1.
         25    1    1    2    0    0 -0.34604667665E+03 -0.24902304485E+03 -0.50609038934E+02  0.44715439628E+03  0.12500000000E+03 0.  0.
         21    1    1    2  503  501  0.28364941174E+03  0.22084972049E+03  0.28858358282E+03  0.46099031671E+03  0.00000000000E+00 0.  1.
         -2    1    1    2    0  502  0.62397264910E+02  0.28173324354E+02 -0.17263405822E+03  0.18571395459E+03  0.00000000000E+00 0. -1.
<mgrwt>
<rscale>  4 0.39683063E+03</rscale>
<asrwt>0</asrwt>
<pdfrwt beam="1">  1       21 0.89169165E-01 0.39683063E+03</pdfrwt>
<pdfrwt beam="2">  1       -2 0.79116783E-01 0.39683063E+03</pdfrwt>
<totfact> 0.11768567E+02</totfact>
</mgrwt>
</event>
<event>
 5    0  0.1239749E+000  0.2845683E+03  0.7546771E-02  0.1093220E+00
         21   -1    0    0  501  502  0.00000000000E+00  0.00000000000E+00  0.54622519503E+03  0.54622519503E+03  0.00000000000E+00 0.  1.
          1   -1    0    0  503    0 -0.00000000000E+00 -0.00000000000E+00 -0.21396944567E+03  0.21396944567E+03  0.00000000000E+00 0. -1.
         25    1    1    2    0    0  0.87779667489E+02  0.22759620025E+03  0.32110959329E+03  0.42218677300E+03  0.12500000000E+03 0.  0.
         21    1    1    2  503  502 -0.10572109858E+03 -0.26362011328E+03  0.42237319250E+02  0.28715240892E+03  0.00000000000E+00 0.  1.
          1    1    1    2  501    0  0.17941431093E+02  0.36023913033E+02 -0.31091163184E+02  0.50855458783E+02  0.00000000000E+00 0. -1.
<mgrwt>
<rscale>  4 0.28456828E+03</rscale>
<asrwt>0</asrwt>
<pdfrwt beam="1">  1       21 0.84034645E-01 0.28456828E+03</pdfrwt>
<pdfrwt beam="2">  1        1 0.32918377E-01 0.28456828E+03</pdfrwt>
<totfact> 0.17386716E+03</totfact>
</mgrwt>
</event>
<event>
 5    0  0.1239749E+000  0.2709173E+03  0.7546771E-02  0.1100756E+00
          2   -1    0    0  503    0 -0.00000000000E+00  0.00000000000E+00  0.10703279976E+04  0.10703279976E+04  0.00000000000E+00 0. -1.
         21   -1    0    0  501  502  0.00000000000E+00 -0.00000000000E+00 -0.14928143088E+03  0.14928143088E+03  0.00000000000E+00 0. -1.
         25    1    1    2    0    0 -0.21276736876E+03 -0.11255853735E+03  0.18755001318E+02  0.27187520595E+03  0.12500000000E+03 0.  0.
         21    1    1    2  503  502  0.18852717947E+03  0.15223948958E+03  0.72384535422E+03  0.76332919269E+03  0.00000000000E+00 0. -1.
          2    1    1    2  501    0  0.24240189289E+02 -0.39680952225E+02  0.17844621113E+03  0.18440502979E+03  0.00000000000E+00 0. -1.
<mgrwt>
<rscale>  4 0.27091734E+03</rscale>
<asrwt>0</asrwt>
<pdfrwt beam="1">  1       21 0.22966375E-01 0.27091734E+03</pdfrwt>
<pdfrwt beam="2">  1        2 0.16466584E+00 0.27091734E+03</pdfrwt>
<totfact> 0.52510942E+03</totfact>
</mgrwt>
</event>
<event>
 5    0  0.1239749E+000  0.2976570E+03  0.7546771E-02  0.1086418E+00
          2   -1    0    0  503    0 -0.00000000000E+00  0.00000000000E+00  0.86299244020E+03  0.86299244020E+03  0.00000000000E+00 0.  1.
         21   -1    0    0  501  502  0.00000000000E+00 -0.00000000000E+00 -0.16317748514E+03  0.16317748514E+03  0.00000000000E+00 0. -1.
         25    1    1    2    0    0  0.37555438769E+02  0.26751501478E+03  0.27440995924E+02  0.29891922383E+03  0.12500000000E+03 0.  0.
         21    1    1    2  503  502 -0.28107178537E+02 -0.23942722373E+03  0.53635394004E+03  0.58803992887E+03  0.00000000000E+00 0.  1.
          2    1    1    2  501    0 -0.94482602320E+01 -0.28087791048E+02  0.13602001908E+03  0.13921077264E+03  0.00000000000E+00 0.  1.
<mgrwt>
<rscale>  4 0.29765701E+03</rscale>
<asrwt>0</asrwt>
<pdfrwt beam="1">  1       21 0.25104229E-01 0.29765701E+03</pdfrwt>
<pdfrwt beam="2">  1        2 0.13276806E+00 0.29765701E+03</pdfrwt>
<totfact> 0.59317144E+03</totfact>
</mgrwt>
</event>
<event>
 5    0  0.1239749E+000  0.2530059E+03  0.7546771E-02  0.1111420E+00
         21   -1    0    0  503  502  0.00000000000E+00  0.00000000000E+00  0.41776079402E+03  0.41776079402E+03  0.00000000000E+00 0. -1.
         -1   -1    0    0    0  501 -0.00000000000E+00 -0.00000000000E+00 -0.27722557373E+03  0.27722557373E+03  0.00000000000E+00 0. -1.
         25    1    1    2    0    0 -0.10951687474E+03 -0.18627232489E+03  0.16770914920E+03  0.30073690096E+03  0.12500000000E+03 0.  0.
         21    1    1    2  503  501  0.14533976855E+03  0.17266331829E+03  0.11053713516E+03  0.25130604461E+03  0.00000000000E+00 0. -1.
         -1    1    1    2    0  502 -0.35822893808E+02  0.13609006594E+02 -0.13771106406E+03  0.14294342219E+03  0.00000000000E+00 0. -1.
<mgrwt>
<rscale>  4 0.25300585E+03</rscale>
<asrwt>0</asrwt>
<pdfrwt beam="1">  1       21 0.64270891E-01 0.25300585E+03</pdfrwt>
<pdfrwt beam="2">  1       -1 0.42650088E-01 0.25300585E+03</pdfrwt>
<totfact> 0.11074444E+03</totfact>
</mgrwt>
</event>
<event>
 5    0  0.1239749E+000  0.4615578E+03  0.7546771E-02  0.1024330E+00
         21   -1    0    0  501  502  0.00000000000E+00  0.00000000000E+00  0.35201231940E+03  0.35201231940E+03  0.00000000000E+00 0. -1.
          1   -1    0    0  503    0 -0.00000000000E+00 -0.00000000000E+00 -0.26382162642E+04  0.26382162642E+04  0.00000000000E+00 0. -1.
         25    1    1    2    0    0  0.34534237419E+03 -0.57161423220E+02 -0.33570544631E+00  0.37169059231E+03  0.12500000000E+03 0.  0.
         21    1    1    2  503  502  0.40287675421E+02  0.32302740433E+03 -0.44271319046E+02  0.32852663580E+03  0.00000000000E+00 0. -1.
          1    1    1    2  501    0 -0.38563004961E+03 -0.26586598111E+03 -0.22415969203E+04  0.22900113555E+04  0.00000000000E+00 0. -1.
<mgrwt>
<rscale>  4 0.46155781E+03</rscale>
<asrwt>0</asrwt>
<pdfrwt beam="1">  1       21 0.54155743E-01 0.46155781E+03</pdfrwt>
<pdfrwt beam="2">  1        1 0.40587941E+00 0.46155781E+03</pdfrwt>
<totfact> 0.39957699E+01</totfact>
</mgrwt>
</event>
<event>
 5    0  0.1239749E+000  0.3053378E+03  0.7546771E-02  0.1082602E+00
         21   -1    0    0  501  502  0.00000000000E+00  0.00000000000E+00  0.17180503574E+04  0.17180503574E+04  0.00000000000E+00 0.  1.
          2   -1    0    0  503    0 -0.00000000000E+00 -0.00000000000E+00 -0.38250052410E+04  0.38250052410E+04  0.00000000000E+00 0. -1.
         25    1    1    2    0    0  0.43786639944E+03 -0.13868689905E+03  0.11273614253E+04  0.12237360103E+04  0.12500000000E+03 0.  0.
         21    1    1    2  503  502 -0.16003720054E+03  0.13383011694E+03  0.51711499654E+03  0.55761126728E+03  0.00000000000E+00 0.  1.
          2    1    1    2  501    0 -0.27782919891E+03  0.48567821073E+01 -0.37514313054E+04  0.37617083208E+04  0.00000000000E+00 0. -1.
<mgrwt>
<rscale>  4 0.30533777E+03</rscale>
<asrwt>0</asrwt>
<pdfrwt beam="1">  1       21 0.26431544E+00 0.30533777E+03</pdfrwt>
<pdfrwt beam="2">  1        2 0.58846234E+00 0.30533777E+03</pdfrwt>
<totfact> 0.36777930E-01</totfact>
</mgrwt>
</event>
<event>
 5    0  0.1239749E+000  0.2669283E+03  0.7546771E-02  0.1103051E+00
          2   -1    0    0  503    0 -0.00000000000E+00  0.00000000000E+00  0.19850244406E+04  0.19850244406E+04  0.00000000000E+00 0.  1.
         21   -1    0    0  501  502  0.00000000000E+00 -0.00000000000E+00 -0.10218402224E+04  0.10218402224E+04  0.00000000000E+00 0.  1.
         25    1    1    2    0    0 -0.12109937058E+02  0.23713405384E+03 -0.99371678216E+03  0.10293091145E+04  0.12500000000E+03 0.  0.
         21    1    1    2  503  502  0.83018293027E+02 -0.12634146351E+03  0.11717478699E+04  0.11814598059E+04  0.00000000000E+00 0.  1.
          2    1    1    2  501    0 -0.70908355969E+02 -0.11079259033E+03  0.78515313054E+03  0.79609574262E+03  0.00000000000E+00 0.  1.
<mgrwt>
<rscale>  4 0.26692833E+03</rscale>
<asrwt>0</asrwt>
<pdfrwt beam="1">  1       21 0.15720619E+00 0.26692833E+03</pdfrwt>
<pdfrwt beam="2">  1        2 0.30538838E+00 0.26692833E+03</pdfrwt>
<totfact> 0.23921749E+01</totfact>
</mgrwt>
</event>
<event>
 5    0  0.1716177E+000  0.2520042E+03  0.7546771E-02  0.1112045E+00
          1   -1    0    0  503    0 -0.00000000000E+00  0.00000000000E+00  0.10108407262E+04  0.10108407262E+04  0.00000000000E+00 0.  1.
         21   -1    0    0  501  502  0.00000000000E+00 -0.00000000000E+00 -0.45822504982E+03  0.45822504982E+03  0.00000000000E+00 0. -1.
         25    1    1    2    0    0  0.21111545096E+03 -0.57544535878E+02 -0.40937128899E+03  0.48071921065E+03  0.12500000000E+03 0.  0.
         21    1    1    2  503  502 -0.20110755278E+03  0.39012735803E+02  0.84489683438E+03  0.86937730709E+03  0.00000000000E+00 0.  1.
          1    1    1    2  501    0 -0.10007898178E+02  0.18531800075E+02  0.11709013098E+03  0.11896925826E+03  0.00000000000E+00 0.  1.
<mgrwt>
<rscale>  4 0.25200418E+03</rscale>
<asrwt>0</asrwt>
<pdfrwt beam="1">  1       21 0.70496161E-01 0.25200418E+03</pdfrwt>
<pdfrwt beam="2">  1        1 0.15551396E+00 0.25200418E+03</pdfrwt>
<totfact> 0.30972785E+02</totfact>
</mgrwt>
</event>
<event>
 5    0  0.1239749E+000  0.2444353E+03  0.7546771E-02  0.1116873E+00
         21   -1    0    0  503  502  0.00000000000E+00  0.00000000000E+00  0.63687648190E+03  0.63687648190E+03  0.00000000000E+00 0. -1.
         -2   -1    0    0    0  501 -0.00000000000E+00 -0.00000000000E+00 -0.84705473212E+03  0.84705473212E+03  0.00000000000E+00 0.  1.
         25    1    1    2    0    0 -0.20937235937E+03  0.36056686149E+02  0.55672019178E+03  0.60885075463E+03  0.12500000000E+03 0.  0.
         21    1    1    2  503  501  0.46441812630E+02 -0.13246731965E+03 -0.77886927646E+02  0.16053288209E+03  0.00000000000E+00 0.  1.
         -2    1    1    2    0  502  0.16293054674E+03  0.96410633500E+02 -0.68901151435E+03  0.71454757729E+03  0.00000000000E+00 0.  1.
<mgrwt>
<rscale>  4 0.24443528E+03</rscale>
<asrwt>0</asrwt>
<pdfrwt beam="1">  1       21 0.97980998E-01 0.24443528E+03</pdfrwt>
<pdfrwt beam="2">  1       -2 0.13031611E+00 0.24443528E+03</pdfrwt>
<totfact> 0.31113176E+01</totfact>
</mgrwt>
</event>
<event>
 5    0  0.1239749E+000  0.3486765E+03  0.7546771E-02  0.1063160E+00
         21   -1    0    0  501  502  0.00000000000E+00  0.00000000000E+00  0.32016588349E+03  0.32016588349E+03  0.00000000000E+00 0.  1.
          2   -1    0    0  503    0 -0.00000000000E+00 -0.00000000000E+00 -0.18237612569E+04  0.18237612569E+04  0.00000000000E+00 0.  1.
         25    1    1    2    0    0 -0.21486847105E+03  0.22220458356E+03 -0.74160918287E+03  0.81311285620E+03  0.12500000000E+03 0.  0.
         21    1    1    2  503  502  0.20549405308E+03 -0.25517517373E+03  0.18964921532E+03  0.37856175191E+03  0.00000000000E+00 0.  1.
          2    1    1    2  501    0  0.93744179770E+01  0.32970590172E+02 -0.95163540586E+03  0.95225253227E+03  0.00000000000E+00 0.  1.
<mgrwt>
<rscale>  4 0.34867655E+03</rscale>
<asrwt>0</asrwt>
<pdfrwt beam="1">  1       21 0.49256289E-01 0.34867655E+03</pdfrwt>
<pdfrwt beam="2">  1        2 0.28057866E+00 0.34867655E+03</pdfrwt>
<totfact> 0.42688605E+02</totfact>
</mgrwt>
</event>
<event>
 5    0  0.1239749E+000  0.2833328E+03  0.7546771E-02  0.1093882E+00
         21   -1    0    0  501  502  0.00000000000E+00  0.00000000000E+00  0.26213872654E+03  0.26213872654E+03  0.00000000000E+00 0. -1.
          2   -1    0    0  503    0 -0.00000000000E+00 -0.00000000000E+00 -0.12592242286E+04  0.12592242286E+04  0.00000000000E+00 0.  1.
         25    1    1    2    0    0 -0.17888114914E+03 -0.18375883693E+03  0.11893170355E+03  0.30908821682E+03  0.12500000000E+03 0.  0.
         21    1    1    2  503  502  0.28933391088E+03  0.40048262719E+02 -0.67899270814E+03  0.73915429582E+03  0.00000000000E+00 0.  1.
          2    1    1    2  501    0 -0.11045276173E+03  0.14371057421E+03 -0.43702449750E+03  0.47312044252E+03  0.00000000000E+00 0.  1.
<mgrwt>
<rscale>  4 0.28333280E+03</rscale>
<asrwt>0</asrwt>
<pdfrwt beam="1">  1       21 0.40329035E-01 0.28333280E+03</pdfrwt>
<pdfrwt beam="2">  1        2 0.19372680E+00 0.28333280E+03</pdfrwt>
<totfact> 0.13409458E+03</totfact>
</mgrwt>
</event>
<event>
 5    0  0.1239749E+000  0.2508359E+03  0.7546771E-02  0.1112778E+00
         21   -1    0    0  501  502  0.00000000000E+00  0.00000000000E+00  0.15237145344E+03  0.15237145344E+03  0.00000000000E+00 0.  1.
          2   -1    0    0  503    0 -0.00000000000E+00 -0.00000000000E+00 -0.28451482111E+04  0.28451482111E+04  0.00000000000E+00 0.  1.
         25    1    1    2    0    0 -0.26968998218E+02  0.22696104668E+03  0.25259643250E+02  0.26172828115E+03  0.12500000000E+03 0.  0.
         21    1    1    2  503  502  0.83570266113E+02 -0.12977674482E+03 -0.81843459705E+03  0.83286324359E+03  0.00000000000E+00 0.  1.
          2    1    1    2  501    0 -0.56601267895E+02 -0.97184301857E+02 -0.18996018039E+04  0.19029281398E+04  0.00000000000E+00 0.  1.
<mgrwt>
<rscale>  4 0.25083588E+03</rscale>
<asrwt>0</asrwt>
<pdfrwt beam="1">  1       21 0.23441763E-01 0.25083588E+03</pdfrwt>
<pdfrwt beam="2">  1        2 0.43771509E+00 0.25083588E+03</pdfrwt>
<totfact> 0.55292097E+02</totfact>
</mgrwt>
</event>
<event>
 5    0  0.1239749E+000  0.4705373E+03  0.7546771E-02  0.1021769E+00
          1   -1    0    0  503    0 -0.00000000000E+00  0.00000000000E+00  0.15550624161E+04  0.15550624161E+04  0.00000000000E+00 0.  1.
         21   -1    0    0  501  502  0.00000000000E+00 -0.00000000000E+00 -0.29402420008E+03  0.29402420008E+03  0.00000000000E+00 0.  1.
         25    1    1    2    0    0  0.32087411540E+03  0.31198040296E+03  0.37648617123E+02  0.46619136428E+03  0.12500000000E+03 0.  0.
         21    1    1    2  503  502 -0.33621095117E+03 -0.32906758768E+03  0.61613545172E+03  0.77520718251E+03  0.00000000000E+00 0.  1.
          1    1    1    2  501    0  0.15336835771E+02  0.17087184723E+02  0.60725414713E+03  0.60768806934E+03  0.00000000000E+00 0.  1.
<mgrwt>
<rscale>  4 0.47053726E+03</rscale>
<asrwt>0</asrwt>
<pdfrwt beam="1">  1       21 0.45234493E-01 0.47053726E+03</pdfrwt>
<pdfrwt beam="2">  1        1 0.23924037E+00 0.47053726E+03</pdfrwt>
<totfact> 0.30761068E+02</totfact>
</mgrwt>
</event>
<event>
 5    0  0.1239749E+000  0.2372487E+03  0.7546771E-02  0.1121639E+00
          1   -1    0    0  503    0 -0.00000000000E+00  0.00000000000E+00  0.81324728603E+03  0.81324728603E+03  0.00000000000E+00 0. -1.
         21   -1    0    0  501  502  0.00000000000E+00 -0.00000000000E+00 -0.21233371677E+03  0.21233371677E+03  0.00000000000E+00 0. -1.
         25    1    1    2    0    0 -0.19524591299E+03  0.14124236298E+03 -0.63965206481E+02  0.27890306430E+03  0.12500000000E+03 0.  0.
         21    1    1    2  503  502  0.14431582130E+03 -0.39921797330E+02  0.12510504121E+03  0.19512067424E+03  0.00000000000E+00 0. -1.
          1    1    1    2  501    0  0.50930091688E+02 -0.10132056565E+03  0.53977373454E+03  0.55155726426E+03  0.00000000000E+00 0. -1.
<mgrwt>
<rscale>  4 0.23724868E+03</rscale>
<asrwt>0</asrwt>
<pdfrwt beam="1">  1       21 0.32666726E-01 0.23724868E+03</pdfrwt>
<pdfrwt beam="2">  1        1 0.12511497E+00 0.23724868E+03</pdfrwt>
<totfact> 0.22223184E+03</totfact>
</mgrwt>
</event>
<event>
 5    0  0.1239749E+000  0.2700440E+03  0.7546771E-02  0.1101254E+00
         -2   -1    0    0    0  501 -0.00000000000E+00  0.00000000000E+00  0.53534258691E+03  0.53534258691E+03  0.00000000000E+00 0.  1.
         21   -1    0    0  503  502  0.00000000000E+00 -0.00000000000E+00 -0.37824352453E+03  0.37824352453E+03  0.00000000000E+00 0.  1.
         25    1    1    2    0    0  0.19676026120E+03 -0.26412907974E+03  0.78793074181E+01  0.35237175630E+03  0.12500000000E+03 0.  0.
         21    1    1    2  503  501  0.21880813442E+02  0.22286054567E+03 -0.83732755188E+02  0.23907481487E+03  0.00000000000E+00 0.  1.
         -2    1    1    2    0  502 -0.21864107465E+03  0.41268534068E+02  0.23295251015E+03  0.32213954028E+03  0.00000000000E+00 0.  1.
<mgrwt>
<rscale>  4 0.27004404E+03</rscale>
<asrwt>0</asrwt>
<pdfrwt beam="1">  1       21 0.58191311E-01 0.27004404E+03</pdfrwt>
<pdfrwt beam="2">  1       -2 0.82360398E-01 0.27004404E+03</pdfrwt>
<totfact> 0.29279821E+02</totfact>
</mgrwt>
</event>
<event>
 5    0  0.1239749E+000  0.2116698E+03  0.7546771E-02  0.1140250E+00
         21   -1    0    0  501  502  0.00000000000E+00  0.00000000000E+00  0.11358131473E+03  0.11358131473E+03  0.00000000000E+00 0. -1.
          2   -1    0    0  503    0 -0.00000000000E+00 -0.00000000000E+00 -0.53977815658E+04  0.53977815658E+04  0.00000000000E+00 0. -1.
         25    1    1    2    0    0 -0.26322160724E+03  0.13589773491E+03 -0.66204689100E+03  0.73599245564E+03  0.12500000000E+03 0.  0.
         21    1    1    2  503  502  0.13235594254E+03 -0.83316289022E+02 -0.54267164435E+01  0.15649009167E+03  0.00000000000E+00 0. -1.
          2    1    1    2  501    0  0.13086566470E+03 -0.52581445891E+02 -0.46167266437E+04  0.46188803332E+04  0.00000000000E+00 0. -1.
<mgrwt>
<rscale>  4 0.21166976E+03</rscale>
<asrwt>0</asrwt>
<pdfrwt beam="1">  1       21 0.17474046E-01 0.21166976E+03</pdfrwt>
<pdfrwt beam="2">  1        2 0.83042805E+00 0.21166976E+03</pdfrwt>
<totfact> 0.57261358E+00</totfact>
</mgrwt>
</event>
<event>
 5    0  0.1239749E+000  0.2791948E+03  0.7546771E-02  0.1096130E+00
         21   -1    0    0  501  502  0.00000000000E+00  0.00000000000E+00  0.16361086667E+03  0.16361086667E+03  0.00000000000E+00 0. -1.
          2   -1    0    0  503    0 -0.00000000000E+00 -0.00000000000E+00 -0.11271912810E+04  0.11271912810E+04  0.00000000000E+00 0. -1.
         25    1    1    2    0    0  0.19804549534E+03  0.18346255188E+03 -0.98263676715E+02  0.31330700012E+03  0.12500000000E+03 0.  0.
         21    1    1    2  503  502 -0.20199974751E+03 -0.10945491712E+03 -0.19003052267E+03  0.29815411522E+03  0.00000000000E+00 0. -1.
          2    1    1    2  501    0  0.39542521740E+01 -0.74007634760E+02 -0.67528621497E+03  0.67934103235E+03  0.00000000000E+00 0. -1.
<mgrwt>
<rscale>  4 0.27919485E+03</rscale>
<asrwt>0</asrwt>
<pdfrwt beam="1">  1       21 0.25170903E-01 0.27919485E+03</pdfrwt>
<pdfrwt beam="2">  1        2 0.17341404E+00 0.27919485E+03</pdfrwt>
<totfact> 0.40669945E+03</totfact>
</mgrwt>
</event>
<event>
 5    0  0.1239749E+000  0.2817983E+03  0.7546771E-02  0.1094711E+00
         21   -1    0    0  501  502  0.00000000000E+00  0.00000000000E+00  0.17620224575E+03  0.17620224575E+03  0.00000000000E+00 0.  1.
          1   -1    0    0  503    0 -0.00000000000E+00 -0.00000000000E+00 -0.90052027568E+03  0.90052027568E+03  0.00000000000E+00 0. -1.
         25    1    1    2    0    0 -0.22593682331E+03  0.11286190699E+03  0.26986196243E+02  0.28308746522E+03  0.12500000000E+03 0.  0.
         21    1    1    2  503  502  0.19857840116E+03 -0.10682200076E+03 -0.62998928287E+03  0.66912690709E+03  0.00000000000E+00 0. -1.
          1    1    1    2  501    0  0.27358422145E+02 -0.60399062304E+01 -0.12131494330E+03  0.12450814912E+03  0.00000000000E+00 0. -1.
<mgrwt>
<rscale>  4 0.28179826E+03</rscale>
<asrwt>0</asrwt>
<pdfrwt beam="1">  1       21 0.27108038E-01 0.28179826E+03</pdfrwt>
<pdfrwt beam="2">  1        1 0.13854158E+00 0.28179826E+03</pdfrwt>
<totfact> 0.26823688E+03</totfact>
</mgrwt>
</event>
<event>
 5    0  0.1239749E+000  0.3332500E+03  0.7546771E-02  0.1069708E+00
         21   -1    0    0  501  502  0.00000000000E+00  0.00000000000E+00  0.29262153339E+03  0.29262153339E+03  0.00000000000E+00 0.  1.
          1   -1    0    0  503    0 -0.00000000000E+00 -0.00000000000E+00 -0.13589273921E+04  0.13589273921E+04  0.00000000000E+00 0. -1.
         25    1    1    2    0    0 -0.30436581399E+03 -0.70551207473E+02  0.15701942446E+03  0.37134367001E+03  0.12500000000E+03 0.  0.
         21    1    1    2  503  502  0.27836990519E+03  0.61898557410E+02 -0.69581408020E+03  0.75198302489E+03  0.00000000000E+00 0.  1.
          1    1    1    2  501    0  0.25995908803E+02  0.86526500629E+01 -0.52751120298E+03  0.52822223059E+03  0.00000000000E+00 0. -1.
<mgrwt>
<rscale>  4 0.33324999E+03</rscale>
<asrwt>0</asrwt>
<pdfrwt beam="1">  1       21 0.45018698E-01 0.33324999E+03</pdfrwt>
<pdfrwt beam="2">  1        1 0.20906575E+00 0.33324999E+03</pdfrwt>
<totfact> 0.44244776E+02</totfact>
</mgrwt>
</event>
<event>
 5    0  0.1239749E+000  0.2687505E+03  0.7546771E-02  0.1101997E+00
         21   -1    0    0  503  502  0.00000000000E+00  0.00000000000E+00  0.12713245531E+04  0.12713245531E+04  0.00000000000E+00 0. -1.
         -3   -1    0    0    0  501 -0.00000000000E+00 -0.00000000000E+00 -0.20865739187E+03  0.20865739187E+03  0.00000000000E+00 0.  1.
         25    1    1    2    0    0 -0.24256851197E+03 -0.12834564733E+01  0.11218165290E+04  0.11545295384E+04  0.12500000000E+03 0.  0.
         21    1    1    2  503  501  0.20454354520E+03 -0.80721867531E+02 -0.47370822798E+01  0.21994663382E+03  0.00000000000E+00 0.  1.
         -3    1    1    2    0  502  0.38024966767E+02  0.82005324005E+02 -0.54412285528E+02  0.10550577273E+03  0.00000000000E+00 0.  1.
<mgrwt>
<rscale>  4 0.26875054E+03</rscale>
<asrwt>0</asrwt>
<pdfrwt beam="1">  1       21 0.19558839E+00 0.26875054E+03</pdfrwt>
<pdfrwt beam="2">  1       -3 0.32101138E-01 0.26875054E+03</pdfrwt>
<totfact> 0.64240139E+01</totfact>
</mgrwt>
</event>
<event>
 5    0  0.1239749E+000  0.2388375E+03  0.7546771E-02  0.1120570E+00
          2   -1    0    0  503    0 -0.00000000000E+00  0.00000000000E+00  0.26217277634E+04  0.26217277634E+04  0.00000000000E+00 0. -1.
         21   -1    0    0  501  502  0.00000000000E+00 -0.00000000000E+00 -0.13322585310E+03  0.13322585310E+03  0.00000000000E+00 0.  1.
         25    1    1    2    0    0  0.21368800607E+03  0.93696363091E+01  0.38520568522E+02  0.25071734727E+03  0.12500000000E+03 0.  0.
         21    1    1    2  503  502 -0.17981044410E+03 -0.30441798445E+02  0.28164559839E+03  0.33553351844E+03  0.00000000000E+00 0.  1.
          2    1    1    2  501    0 -0.33877561970E+02  0.21072162136E+02  0.21683357434E+04  0.21687027508E+04  0.00000000000E+00 0. -1.
<mgrwt>
<rscale>  4 0.23883751E+03</rscale>
<asrwt>0</asrwt>
<pdfrwt beam="1">  1       21 0.20496287E-01 0.23883751E+03</pdfrwt>
<pdfrwt beam="2">  1        2 0.40334269E+00 0.23883751E+03</pdfrwt>
<totfact> 0.96073191E+02</totfact>
</mgrwt>
</event>
<event>
 5    0  0.1239749E+000  0.2139647E+03  0.7546771E-02  0.1138464E+00
         21   -1    0    0  501  502  0.00000000000E+00  0.00000000000E+00  0.42017240835E+03  0.42017240835E+03  0.00000000000E+00 0.  1.
          2   -1    0    0  503    0 -0.00000000000E+00 -0.00000000000E+00 -0.19988035138E+04  0.19988035138E+04  0.00000000000E+00 0. -1.
         25    1    1    2    0    0  0.13161093595E+03  0.15423179818E+03 -0.16069917937E+03  0.28732927502E+03  0.12500000000E+03 0.  0.
         21    1    1    2  503  502 -0.12472140534E+03 -0.11711872522E+03  0.33613568105E+03  0.37717293225E+03  0.00000000000E+00 0.  1.
          2    1    1    2  501    0 -0.68895306130E+01 -0.37113072964E+02 -0.17540676071E+04  0.17544737149E+04  0.00000000000E+00 0. -1.
<mgrwt>
<rscale>  4 0.21396473E+03</rscale>
<asrwt>0</asrwt>
<pdfrwt beam="1">  1       21 0.64641910E-01 0.21396473E+03</pdfrwt>
<pdfrwt beam="2">  1        2 0.30750823E+00 0.21396473E+03</pdfrwt>
<totfact> 0.20892599E+02</totfact>
</mgrwt>
</event>
<event>
 5    0  0.1239749E+000  0.3913246E+03  0.7546771E-02  0.1046826E+00
         21   -1    0    0  501  502  0.00000000000E+00  0.00000000000E+00  0.34677059996E+03  0.34677059996E+03  0.00000000000E+00 0. -1.
          1   -1    0    0  503    0 -0.00000000000E+00 -0.00000000000E+00 -0.10451099930E+04  0.10451099930E+04  0.00000000000E+00 0. -1.
         25    1    1    2    0    0  0.36899183429E+03  0.54425312930E+01  0.15461211428E+03  0.41918313516E+03  0.12500000000E+03 0.  0.
         21    1    1    2  503  502 -0.37848993747E+03 -0.31027932049E+02 -0.54913458244E+03  0.66765721367E+03  0.00000000000E+00 0. -1.
          1    1    1    2  501    0  0.94981031773E+01  0.25585400756E+02 -0.30381692490E+03  0.30504024415E+03  0.00000000000E+00 0. -1.
<mgrwt>
<rscale>  4 0.39132465E+03</rscale>
<asrwt>0</asrwt>
<pdfrwt beam="1">  1       21 0.53349324E-01 0.39132465E+03</pdfrwt>
<pdfrwt beam="2">  1        1 0.16078615E+00 0.39132465E+03</pdfrwt>
<totfact> 0.50559822E+02</totfact>
</mgrwt>
</event>
<event>
 5    0  0.1239749E+000  0.3383831E+03  0.7546771E-02  0.1067487E+00
         21   -1    0    0  501  502  0.00000000000E+00  0.00000000000E+00  0.45612618033E+03  0.45612618033E+03  0.00000000000E+00 0.  1.
          2   -1    0    0  503    0 -0.00000000000E+00 -0.00000000000E+00 -0.62523092793E+03  0.62523092793E+03  0.00000000000E+00 0.  1.
         25    1    1    2    0    0 -0.12593827912E+03  0.37762582827E+03  0.16786312674E+03  0.44973853031E+03  0.12500000000E+03 0.  0.
         21    1    1    2  503  502 -0.77033409455E+01 -0.16918560873E+03 -0.34452301463E+03  0.38390001207E+03  0.00000000000E+00 0.  1.
          2    1    1    2  501    0  0.13364162007E+03 -0.20844021954E+03  0.75551402950E+01  0.24771856588E+03  0.00000000000E+00 0.  1.
<mgrwt>
<rscale>  4 0.33838314E+03</rscale>
<asrwt>0</asrwt>
<pdfrwt beam="1">  1       21 0.70173259E-01 0.33838314E+03</pdfrwt>
<pdfrwt beam="2">  1        2 0.96189373E-01 0.33838314E+03</pdfrwt>
<totfact> 0.10489471E+03</totfact>
</mgrwt>
</event>
<event>
 5    0  0.1239749E+000  0.2813204E+03  0.7546771E-02  0.1094970E+00
          2   -1    0    0  503    0 -0.00000000000E+00  0.00000000000E+00  0.47787427529E+03  0.47787427529E+03  0.00000000000E+00 0. -1.
         21   -1    0    0  501  502  0.00000000000E+00 -0.00000000000E+00 -0.31530066825E+03  0.31530066825E+03  0.00000000000E+00 0.  1.
         25    1    1    2    0    0 -0.11881934144E+03  0.21720146922E+03 -0.50479996676E+02  0.28190023802E+03  0.12500000000E+03 0.  0.
         21    1    1    2  503  502  0.14038693883E+03 -0.21486076436E+03 -0.37850395165E+02  0.25943456414E+03  0.00000000000E+00 0.  1.
          2    1    1    2  501    0 -0.21567597384E+02 -0.23407048561E+01  0.25090399888E+03  0.25184014138E+03  0.00000000000E+00 0. -1.
<mgrwt>
<rscale>  4 0.28132043E+03</rscale>
<asrwt>0</asrwt>
<pdfrwt beam="1">  1       21 0.48507795E-01 0.28132043E+03</pdfrwt>
<pdfrwt beam="2">  1        2 0.73519120E-01 0.28132043E+03</pdfrwt>
<totfact> 0.32310090E+03</totfact>
</mgrwt>
</event>
<event>
 5    0  0.1239749E+000  0.2538452E+03  0.7546771E-02  0.1110899E+00
          1   -1    0    0  503    0 -0.00000000000E+00  0.00000000000E+00  0.20783661612E+04  0.20783661612E+04  0.00000000000E+00 0.  1.
         21   -1    0    0  501  502  0.00000000000E+00 -0.00000000000E+00 -0.46732354371E+03  0.46732354371E+03  0.00000000000E+00 0.  1.
         25    1    1    2    0    0 -0.39705015497E+02  0.22075216080E+03 -0.31378703914E+03  0.40545691594E+03  0.12500000000E+03 0.  0.
         21    1    1    2  503  502  0.77807474700E+02 -0.20127190498E+03  0.86226246135E+00  0.21578954180E+03  0.00000000000E+00 0.  1.
          1    1    1    2  501    0 -0.38102459204E+02 -0.19480255817E+02  0.19239673942E+04  0.19244432472E+04  0.00000000000E+00 0.  1.
<mgrwt>
<rscale>  4 0.25384516E+03</rscale>
<asrwt>0</asrwt>
<pdfrwt beam="1">  1       21 0.71895931E-01 0.25384516E+03</pdfrwt>
<pdfrwt beam="2">  1        1 0.31974864E+00 0.25384516E+03</pdfrwt>
<totfact> 0.56849132E+01</totfact>
</mgrwt>
</event>
<event>
 5    0  0.1239749E+000  0.2586810E+03  0.7546771E-02  0.1107938E+00
         -1   -1    0    0    0  501 -0.00000000000E+00  0.00000000000E+00  0.77823638093E+03  0.77823638093E+03  0.00000000000E+00 0.  1.
         21   -1    0    0  503  502  0.00000000000E+00 -0.00000000000E+00 -0.60337797976E+03  0.60337797976E+03  0.00000000000E+00 0.  1.
         25    1    1    2    0    0  0.24786836618E+03  0.65209352245E+02 -0.23208939956E+03  0.36767033598E+03  0.12500000000E+03 0.  0.
         21    1    1    2  503  501 -0.18997550070E+03 -0.93714451649E+02 -0.26479942423E+03  0.33910444466E+03  0.00000000000E+00 0.  1.
         -1    1    1    2    0  502 -0.57892865476E+02  0.28505099404E+02  0.67174722496E+03  0.67483958005E+03  0.00000000000E+00 0.  1.
<mgrwt>
<rscale>  4 0.25868100E+03</rscale>
<asrwt>0</asrwt>
<pdfrwt beam="1">  1       21 0.92827381E-01 0.25868100E+03</pdfrwt>
<pdfrwt beam="2">  1       -1 0.11972867E+00 0.25868100E+03</pdfrwt>
<totfact> 0.58593598E+01</totfact>
</mgrwt>
</event>
<event>
 5    0  0.1239749E+000  0.2343392E+03  0.7546771E-02  0.1123622E+00
          1   -1    0    0  503    0 -0.00000000000E+00  0.00000000000E+00  0.18607439176E+03  0.18607439176E+03  0.00000000000E+00 0. -1.
         21   -1    0    0  501  502  0.00000000000E+00 -0.00000000000E+00 -0.65973728236E+03  0.65973728236E+03  0.00000000000E+00 0.  1.
         25    1    1    2    0    0 -0.25646068383E+03  0.67537487543E+02 -0.45119744660E+03  0.53808691713E+03  0.12500000000E+03 0.  0.
         21    1    1    2  503  502  0.13891773367E+03  0.53923420625E+01 -0.77130697927E+02  0.15898540387E+03  0.00000000000E+00 0.  1.
          1    1    1    2  501    0  0.11754295016E+03 -0.72929829606E+02  0.54665253931E+02  0.14873935312E+03  0.00000000000E+00 0. -1.
<mgrwt>
<rscale>  4 0.23433920E+03</rscale>
<asrwt>0</asrwt>
<pdfrwt beam="1">  1       21 0.10149804E+00 0.23433920E+03</pdfrwt>
<pdfrwt beam="2">  1        1 0.28626830E-01 0.23433920E+03</pdfrwt>
<totfact> 0.13551817E+03</totfact>
</mgrwt>
</event>
<event>
 5    0  0.1239749E+000  0.2307061E+03  0.7546771E-02  0.1126144E+00
         21   -1    0    0  501  502  0.00000000000E+00  0.00000000000E+00  0.21008244843E+04  0.21008244843E+04  0.00000000000E+00 0.  1.
          4   -1    0    0  503    0 -0.00000000000E+00 -0.00000000000E+00 -0.51952523520E+02  0.51952523520E+02  0.00000000000E+00 0.  1.
         25    1    1    2    0    0  0.66435850515E+02  0.19206619844E+03  0.16914195555E+04  0.17081651734E+04  0.12500000000E+03 0.  0.
         21    1    1    2  503  502 -0.23514594336E+02 -0.17245956403E+03  0.35728233876E+03  0.39742408956E+03  0.00000000000E+00 0.  1.
          4    1    1    2  501    0 -0.42921256179E+02 -0.19606634413E+02  0.17006652595E+00  0.47187744888E+02  0.00000000000E+00 0.  1.
<mgrwt>
<rscale>  4 0.23070610E+03</rscale>
<asrwt>0</asrwt>
<pdfrwt beam="1">  1       21 0.32320370E+00 0.23070610E+03</pdfrwt>
<pdfrwt beam="2">  1        4 0.79926975E-02 0.23070610E+03</pdfrwt>
<totfact> 0.11361693E+02</totfact>
</mgrwt>
</event>
<event>
 5    0  0.1239749E+000  0.2039264E+03  0.7546771E-02  0.1146468E+00
          2   -1    0    0  503    0 -0.00000000000E+00  0.00000000000E+00  0.11317055046E+04  0.11317055046E+04  0.00000000000E+00 0. -1.
         21   -1    0    0  501  502  0.00000000000E+00 -0.00000000000E+00 -0.17362615506E+03  0.17362615506E+03  0.00000000000E+00 0. -1.
         25    1    1    2    0    0 -0.72443799601E+02 -0.21904856187E+03  0.90019953886E+02  0.27741479531E+03  0.12500000000E+03 0.  0.
         21    1    1    2  503  502  0.17596265852E+01  0.13947749105E+03 -0.13330500530E+02  0.14012412012E+03  0.00000000000E+00 0. -1.
          2    1    1    2  501    0  0.70684173016E+02  0.79571070819E+02  0.88138989616E+03  0.88779274421E+03  0.00000000000E+00 0. -1.
<mgrwt>
<rscale>  4 0.20392644E+03</rscale>
<asrwt>0</asrwt>
<pdfrwt beam="1">  1       21 0.26711717E-01 0.20392644E+03</pdfrwt>
<pdfrwt beam="2">  1        2 0.17410853E+00 0.20392644E+03</pdfrwt>
<totfact> 0.37068103E+03</totfact>
</mgrwt>
</event>
<event>
 5    0  0.1239749E+000  0.2279858E+03  0.7546771E-02  0.1128066E+00
         -2   -1    0    0    0  501 -0.00000000000E+00  0.00000000000E+00  0.92405415912E+03  0.92405415912E+03  0.00000000000E+00 0. -1.
         21   -1    0    0  503  502  0.00000000000E+00 -0.00000000000E+00 -0.27449882536E+03  0.27449882536E+03  0.00000000000E+00 0. -1.
         25    1    1    2    0    0 -0.10100069550E+03  0.24741449849E+03  0.41936929441E+02  0.29799124250E+03  0.12500000000E+03 0.  0.
         21    1    1    2  503  501 -0.25356806439E+02 -0.17231249760E+03 -0.84091444379E+02  0.19340614126E+03  0.00000000000E+00 0. -1.
         -2    1    1    2    0  502  0.12635750194E+03 -0.75102000895E+02  0.69170984870E+03  0.70715560071E+03  0.00000000000E+00 0. -1.
<mgrwt>
<rscale>  4 0.22798576E+03</rscale>
<asrwt>0</asrwt>
<pdfrwt beam="1">  1       21 0.42230589E-01 0.22798576E+03</pdfrwt>
<pdfrwt beam="2">  1       -2 0.14216218E+00 0.22798576E+03</pdfrwt>
<totfact> 0.15953905E+02</totfact>
</mgrwt>
</event>
<event>
 5    0  0.1239749E+000  0.2607296E+03  0.7546771E-02  0.1106706E+00
         21   -1    0    0  503  502  0.00000000000E+00  0.00000000000E+00  0.91918307934E+03  0.91918307934E+03  0.00000000000E+00 0.  1.
         -1   -1    0    0    0  501 -0.00000000000E+00 -0.00000000000E+00 -0.46964806852E+03  0.46964806852E+03  0.00000000000E+00 0.  1.
         25    1    1    2    0    0 -0.22220445266E+03 -0.72935350753E+02  0.58878162637E+03  0.64574235397E+03  0.12500000000E+03 0.  0.
         21    1    1    2  503  501  0.21632401160E+03  0.50242660034E+02  0.26069257362E+03  0.34246316710E+03  0.00000000000E+00 0.  1.
         -1    1    1    2    0  502  0.58804410561E+01  0.22692690718E+02 -0.39993918917E+03  0.40062562678E+03  0.00000000000E+00 0.  1.
<mgrwt>
<rscale>  4 0.26072961E+03</rscale>
<asrwt>0</asrwt>
<pdfrwt beam="1">  1       21 0.14141278E+00 0.26072961E+03</pdfrwt>
<pdfrwt beam="2">  1       -1 0.72253549E-01 0.26072961E+03</pdfrwt>
<totfact> 0.62285527E+01</totfact>
</mgrwt>
</event>
<event>
 5    0  0.1239749E+000  0.2634415E+03  0.7546771E-02  0.1105093E+00
         21   -1    0    0  501  502  0.00000000000E+00  0.00000000000E+00  0.46950804318E+02  0.46950804318E+02  0.00000000000E+00 0.  1.
          1   -1    0    0  503    0 -0.00000000000E+00 -0.00000000000E+00 -0.20524476873E+04  0.20524476873E+04  0.00000000000E+00 0.  1.
         25    1    1    2    0    0 -0.23005930196E+03  0.50323240000E+02 -0.52852257460E+03  0.59196353162E+03  0.12500000000E+03 0.  0.
         21    1    1    2  503  502  0.20643534048E+03 -0.10132382184E+03 -0.94843455438E+03  0.97591504273E+03  0.00000000000E+00 0.  1.
          1    1    1    2  501    0  0.23623961482E+02  0.51000581839E+02 -0.52853975398E+03  0.53151991725E+03  0.00000000000E+00 0.  1.
<mgrwt>
<rscale>  4 0.26344147E+03</rscale>
<asrwt>0</asrwt>
<pdfrwt beam="1">  1       21 0.72231996E-02 0.26344147E+03</pdfrwt>
<pdfrwt beam="2">  1        1 0.31576123E+00 0.26344147E+03</pdfrwt>
<totfact> 0.49728274E+03</totfact>
</mgrwt>
</event>
<event>
 5    0  0.1239749E+000  0.4144745E+03  0.7546771E-02  0.1055142E+00
         21   -1    0    0  501  502  0.00000000000E+00  0.00000000000E+00  0.65663485707E+03  0.65663485707E+03  0.00000000000E+00 0. -1.
          2   -1    0    0  503    0 -0.00000000000E+00 -0.00000000000E+00 -0.81014818086E+03  0.81014818086E+03  0.00000000000E+00 0.  1.
         25    1    1    2    0    0 -0.61269575890E+02 -0.21947232466E+03  0.11147338993E+03  0.28279564863E+03  0.12500000000E+03 0.  0.
         21    1    1    2  503  502 -0.36195087812E+03  0.15502189527E+03  0.28569402785E+03  0.48647847201E+03  0.00000000000E+00 0. -1.
          2    1    1    2  501    0  0.42322045401E+03  0.64450429395E+02 -0.55068074157E+03  0.69750891728E+03  0.00000000000E+00 0.  1.
<mgrwt>
<rscale>  4 0.36882821E+03</rscale>
<asrwt>0</asrwt>
<pdfrwt beam="1">  1       21 0.10102075E+00 0.41447445E+03</pdfrwt>
<pdfrwt beam="2">  1        2 0.12463818E+00 0.41447445E+03</pdfrwt>
<totfact> 0.31765424E+02</totfact>
</mgrwt>
</event>
<event>
 5    0  0.1239749E+000  0.3267989E+03  0.7546771E-02  0.1072562E+00
         21   -1    0    0  503  502  0.00000000000E+00  0.00000000000E+00  0.27152430436E+03  0.27152430436E+03  0.00000000000E+00 0.  1.
         -2   -1    0    0    0  501 -0.00000000000E+00 -0.00000000000E+00 -0.57386951928E+03  0.57386951928E+03  0.00000000000E+00 0.  1.
         25    1    1    2    0    0 -0.18509447902E+03 -0.23838800557E+03  0.68825094997E+01  0.32674328807E+03  0.12500000000E+03 0.  0.
         21    1    1    2  503  501  0.17716396807E+02 -0.13220630995E+02  0.46742506414E+02  0.51706070297E+02  0.00000000000E+00 0. -1.
         -2    1    1    2    0  502  0.16737808222E+03  0.25160863656E+03 -0.35597023083E+03  0.46694446526E+03  0.00000000000E+00 0.  1.
<mgrwt>
<rscale>  4 0.32679889E+03</rscale>
<asrwt>0</asrwt>
<pdfrwt beam="1">  1       21 0.41772970E-01 0.32679889E+03</pdfrwt>
<pdfrwt beam="2">  1       -2 0.88287618E-01 0.32679889E+03</pdfrwt>
<totfact> 0.49469410E+02</totfact>
</mgrwt>
</event>
<event>
 5    0  0.1239749E+000  0.1956571E+03  0.7546771E-02  0.1153456E+00
         21   -1    0    0  501  502  0.00000000000E+00  0.00000000000E+00  0.12797863927E+03  0.12797863927E+03  0.00000000000E+00 0. -1.
          2   -1    0    0  503    0 -0.00000000000E+00 -0.00000000000E+00 -0.13651402292E+04  0.13651402292E+04  0.00000000000E+00 0. -1.
         25    1    1    2    0    0  0.93860430661E+02 -0.18227595652E+03 -0.14509686603E+03  0.28055731197E+03  0.12500000000E+03 0.  0.
         21    1    1    2  503  502 -0.89668699396E+02  0.98061937255E+02 -0.16731277666E+02  0.13392742379E+03  0.00000000000E+00 0. -1.
          2    1    1    2  501    0 -0.41917312652E+01  0.84214019262E+02 -0.10753334463E+04  0.10786341327E+04  0.00000000000E+00 0. -1.
<mgrwt>
<rscale>  4 0.19565706E+03</rscale>
<asrwt>0</asrwt>
<pdfrwt beam="1">  1       21 0.19689022E-01 0.19565706E+03</pdfrwt>
<pdfrwt beam="2">  1        2 0.21002157E+00 0.19565706E+03</pdfrwt>
<totfact> 0.49174237E+03</totfact>
</mgrwt>
</event>
<event>
 5    0  0.1239749E+000  0.2696999E+03  0.7546771E-02  0.1101451E+00
         -1   -1    0    0    0  501 -0.00000000000E+00  0.00000000000E+00  0.39504678643E+03  0.39504678643E+03  0.00000000000E+00 0. -1.
         21   -1    0    0  503  502  0.00000000000E+00 -0.00000000000E+00 -0.94022853925E+03  0.94022853925E+03  0.00000000000E+00 0. -1.
         25    1    1    2    0    0 -0.53143956031E+02 -0.24104324878E+03 -0.77729355698E+03  0.82506751334E+03  0.12500000000E+03 0.  0.
         21    1    1    2  503  501  0.57131316162E+02  0.20454445567E+03 -0.56107029740E+02  0.21965978334E+03  0.00000000000E+00 0. -1.
         -1    1    1    2    0  502 -0.39873601307E+01  0.36498793113E+02  0.28821883390E+03  0.29054802900E+03  0.00000000000E+00 0. -1.
<mgrwt>
<rscale>  4 0.26969994E+03</rscale>
<asrwt>0</asrwt>
<pdfrwt beam="1">  1       21 0.14465054E+00 0.26969994E+03</pdfrwt>
<pdfrwt beam="2">  1       -1 0.60776430E-01 0.26969994E+03</pdfrwt>
<totfact> 0.82174272E+01</totfact>
</mgrwt>
</event>
<event>
 5    0  0.1239749E+000  0.2154180E+03  0.7546771E-02  0.1137346E+00
         21   -1    0    0  501  502  0.00000000000E+00  0.00000000000E+00  0.74946555946E+03  0.74946555946E+03  0.00000000000E+00 0.  1.
          4   -1    0    0  503    0 -0.00000000000E+00 -0.00000000000E+00 -0.25184602369E+03  0.25184602369E+03  0.00000000000E+00 0.  1.
         25    1    1    2    0    0  0.16372464052E+03 -0.15961683298E+03  0.52510163786E+03  0.58620817238E+03  0.12500000000E+03 0.  0.
         21    1    1    2  503  502 -0.45073591939E+02  0.12958968683E+03  0.14757561265E+03  0.20150354109E+03  0.00000000000E+00 0. -1.
          4    1    1    2  501    0 -0.11865104858E+03  0.30027146149E+02 -0.17505771475E+03  0.21359986968E+03  0.00000000000E+00 0.  1.
<mgrwt>
<rscale>  4 0.21541797E+03</rscale>
<asrwt>0</asrwt>
<pdfrwt beam="1">  1       21 0.11530239E+00 0.21541797E+03</pdfrwt>
<pdfrwt beam="2">  1        4 0.38745543E-01 0.21541797E+03</pdfrwt>
<totfact> 0.15774010E+02</totfact>
</mgrwt>
</event>
<event>
 5    0  0.1239749E+000  0.2722107E+03  0.7546771E-02  0.1100021E+00
         21   -1    0    0  501  502  0.00000000000E+00  0.00000000000E+00  0.12193169409E+03  0.12193169409E+03  0.00000000000E+00 0.  1.
          1   -1    0    0  503    0 -0.00000000000E+00 -0.00000000000E+00 -0.12475802810E+04  0.12475802810E+04  0.00000000000E+00 0.  1.
         25    1    1    2    0    0  0.20978543940E+02  0.23891410659E+03 -0.80846073608E+02  0.28227847466E+03  0.12500000000E+03 0.  0.
         21    1    1    2  503  502  0.20435806963E+02 -0.25316158589E+03 -0.82913441742E+03  0.86716336000E+03  0.00000000000E+00 0.  1.
          1    1    1    2  501    0 -0.41414350903E+02  0.14247479297E+02 -0.21566809591E+03  0.22007014046E+03  0.00000000000E+00 0.  1.
<mgrwt>
<rscale>  4 0.27221073E+03</rscale>
<asrwt>0</asrwt>
<pdfrwt beam="1">  1       21 0.18758722E-01 0.27221073E+03</pdfrwt>
<pdfrwt beam="2">  1        1 0.19193543E+00 0.27221073E+03</pdfrwt>
<totfact> 0.30207838E+03</totfact>
</mgrwt>
</event>
<event>
 5    0  0.1239749E+000  0.2470520E+03  0.7546771E-02  0.1115182E+00
          2   -1    0    0  503    0 -0.00000000000E+00  0.00000000000E+00  0.11948123521E+04  0.11948123521E+04  0.00000000000E+00 0. -1.
         21   -1    0    0  501  502  0.00000000000E+00 -0.00000000000E+00 -0.10084197739E+03  0.10084197739E+03  0.00000000000E+00 0. -1.
         25    1    1    2    0    0 -0.21013787970E+03  0.85705047960E+02  0.22328938586E+03  0.34203279605E+03  0.12500000000E+03 0.  0.
         21    1    1    2  503  502  0.18914426692E+03 -0.68440039274E+02  0.20435462429E+03  0.28674100711E+03  0.00000000000E+00 0. -1.
          2    1    1    2  501    0  0.20993612779E+02 -0.17265008686E+02  0.66632636454E+03  0.66688052631E+03  0.00000000000E+00 0. -1.
<mgrwt>
<rscale>  4 0.24705195E+03</rscale>
<asrwt>0</asrwt>
<pdfrwt beam="1">  1       21 0.15514151E-01 0.24705195E+03</pdfrwt>
<pdfrwt beam="2">  1        2 0.18381727E+00 0.24705195E+03</pdfrwt>
<totfact> 0.93230281E+03</totfact>
</mgrwt>
</event>
<event>
 5    0  0.1239749E+000  0.2354516E+03  0.7546771E-02  0.1122860E+00
          2   -1    0    0  503    0 -0.00000000000E+00  0.00000000000E+00  0.10830007875E+04  0.10830007875E+04  0.00000000000E+00 0. -1.
         21   -1    0    0  501  502  0.00000000000E+00 -0.00000000000E+00 -0.60344142521E+03  0.60344142521E+03  0.00000000000E+00 0.  1.
         25    1    1    2    0    0  0.31732295534E+02  0.19850020055E+03 -0.38318125832E+03  0.45040220351E+03  0.12500000000E+03 0.  0.
         21    1    1    2  503  502 -0.57531547615E+02 -0.18978706877E+03 -0.13373357467E+03  0.23919381145E+03  0.00000000000E+00 0.  1.
          2    1    1    2  501    0  0.25799252081E+02 -0.87131317830E+01  0.99647419525E+03  0.99684619771E+03  0.00000000000E+00 0. -1.
<mgrwt>
<rscale>  4 0.23545161E+03</rscale>
<asrwt>0</asrwt>
<pdfrwt beam="1">  1       21 0.92837142E-01 0.23545161E+03</pdfrwt>
<pdfrwt beam="2">  1        2 0.16661551E+00 0.23545161E+03</pdfrwt>
<totfact> 0.28245739E+02</totfact>
</mgrwt>
</event>
<event>
 5    0  0.1239749E+000  0.2903195E+03  0.7546771E-02  0.1090182E+00
         -2   -1    0    0    0  501 -0.00000000000E+00  0.00000000000E+00  0.42579559459E+03  0.42579559459E+03  0.00000000000E+00 0. -1.
         21   -1    0    0  503  502  0.00000000000E+00 -0.00000000000E+00 -0.35027021304E+03  0.35027021304E+03  0.00000000000E+00 0.  1.
         25    1    1    2    0    0  0.28743943674E+03 -0.51621995940E+02 -0.11978068875E+03  0.33949767843E+03  0.12500000000E+03 0.  0.
         21    1    1    2  503  501 -0.17081007156E+03  0.15609985995E+03  0.14029828461E+03  0.27060461099E+03  0.00000000000E+00 0. -1.
         -2    1    1    2    0  502 -0.11662936518E+03 -0.10447786401E+03  0.55007785691E+02  0.16596351821E+03  0.00000000000E+00 0. -1.
<mgrwt>
<rscale>  4 0.29031950E+03</rscale>
<asrwt>0</asrwt>
<pdfrwt beam="1">  1       21 0.53887725E-01 0.29031950E+03</pdfrwt>
<pdfrwt beam="2">  1       -2 0.65507014E-01 0.29031950E+03</pdfrwt>
<totfact> 0.56412867E+02</totfact>
</mgrwt>
</event>
<event>
 5    0  0.1239749E+000  0.3025277E+03  0.7546771E-02  0.1083984E+00
         21   -1    0    0  501  502  0.00000000000E+00  0.00000000000E+00  0.17511316890E+04  0.17511316890E+04  0.00000000000E+00 0. -1.
          2   -1    0    0  503    0 -0.00000000000E+00 -0.00000000000E+00 -0.15920375247E+03  0.15920375247E+03  0.00000000000E+00 0. -1.
         25    1    1    2    0    0  0.24967232699E+03 -0.10359537027E+02  0.13967288489E+04  0.14244016527E+04  0.12500000000E+03 0.  0.
         21    1    1    2  503  502  0.27567274654E+02  0.32314524587E+02  0.20331826855E+03  0.20770773085E+03  0.00000000000E+00 0. -1.
          2    1    1    2  501    0 -0.27723960164E+03 -0.21954987560E+02 -0.81191809336E+01  0.27822605790E+03  0.00000000000E+00 0. -1.
<mgrwt>
<rscale>  4 0.30252767E+03</rscale>
<asrwt>0</asrwt>
<pdfrwt beam="1">  1       21 0.26940486E+00 0.30252767E+03</pdfrwt>
<pdfrwt beam="2">  1        2 0.24492886E-01 0.30252767E+03</pdfrwt>
<totfact> 0.12639616E+02</totfact>
</mgrwt>
</event>
<event>
 5    0  0.1239749E+000  0.3561676E+03  0.7546771E-02  0.1060112E+00
          4   -1    0    0  503    0 -0.00000000000E+00  0.00000000000E+00  0.86191862588E+03  0.86191862588E+03  0.00000000000E+00 0. -1.
         21   -1    0    0  501  502  0.00000000000E+00 -0.00000000000E+00 -0.37198534239E+03  0.37198534239E+03  0.00000000000E+00 0.  1.
         25    1    1    2    0    0  0.11225268293E+03  0.28920201686E+03  0.89475750970E+02  0.34622157846E+03  0.12500000000E+03 0.  0.
         21    1    1    2  503  502 -0.13442681647E+03 -0.31967381572E+03 -0.11916814654E+03  0.36669192054E+03  0.00000000000E+00 0.  1.
          4    1    1    2  501    0  0.22174133540E+02  0.30471798855E+02  0.51962567906E+03  0.52099046926E+03  0.00000000000E+00 0. -1.
<mgrwt>
<rscale>  4 0.35616759E+03</rscale>
<asrwt>0</asrwt>
<pdfrwt beam="1">  1       21 0.57228515E-01 0.35616759E+03</pdfrwt>
<pdfrwt beam="2">  1        4 0.13260286E+00 0.35616759E+03</pdfrwt>
<totfact> 0.50112206E+01</totfact>
</mgrwt>
</event>
<event>
 5    0  0.1239749E+000  0.3906815E+03  0.7546771E-02  0.1047055E+00
          2   -1    0    0  503    0 -0.00000000000E+00  0.00000000000E+00  0.26922812735E+04  0.26922812735E+04  0.00000000000E+00 0.  1.
         21   -1    0    0  501  502  0.00000000000E+00 -0.00000000000E+00 -0.14663290135E+03  0.14663290135E+03  0.00000000000E+00 0.  1.
         25    1    1    2    0    0 -0.90238468741E+02 -0.38024852097E+03  0.22553060499E+03  0.46821039365E+03  0.12500000000E+03 0.  0.
         21    1    1    2  503  502  0.88485921204E+02  0.29781978712E+03  0.98037955810E+03  0.10284310681E+04  0.00000000000E+00 0.  1.
          2    1    1    2  501    0  0.17525475366E+01  0.82428733844E+02  0.13397382091E+04  0.13422727131E+04  0.00000000000E+00 0.  1.
<mgrwt>
<rscale>  4 0.39068150E+03</rscale>
<asrwt>0</asrwt>
<pdfrwt beam="1">  1       21 0.22558910E-01 0.39068150E+03</pdfrwt>
<pdfrwt beam="2">  1        2 0.41419708E+00 0.39068150E+03</pdfrwt>
<totfact> 0.67813519E+02</totfact>
</mgrwt>
</event>
<event>
 5    0  0.1239749E+000  0.3224447E+03  0.7546771E-02  0.1074530E+00
         -3   -1    0    0    0  501 -0.00000000000E+00  0.00000000000E+00  0.10230644962E+04  0.10230644962E+04  0.00000000000E+00 0.  1.
         21   -1    0    0  503  502  0.00000000000E+00 -0.00000000000E+00 -0.22084671511E+04  0.22084671511E+04  0.00000000000E+00 0.  1.
         25    1    1    2    0    0 -0.10767984049E+03  0.27633009177E+03 -0.20012833990E+04  0.20269961792E+04  0.12500000000E+03 0.  0.
         21    1    1    2  503  501  0.73343363522E+02 -0.29679606717E+03 -0.73355441413E+02  0.31440129650E+03  0.00000000000E+00 0.  1.
         -3    1    1    2    0  502  0.34336476971E+02  0.20465975393E+02  0.88923618544E+03  0.89013417151E+03  0.00000000000E+00 0.  1.
<mgrwt>
<rscale>  4 0.32244469E+03</rscale>
<asrwt>0</asrwt>
<pdfrwt beam="1">  1       21 0.33976417E+00 0.32244469E+03</pdfrwt>
<pdfrwt beam="2">  1       -3 0.15739454E+00 0.32244469E+03</pdfrwt>
<totfact> 0.25860053E-01</totfact>
</mgrwt>
</event>
<event>
 5    0  0.1239749E+000  0.2193783E+03  0.7546771E-02  0.1134347E+00
         21   -1    0    0  501  502  0.00000000000E+00  0.00000000000E+00  0.10040849602E+04  0.10040849602E+04  0.00000000000E+00 0. -1.
          2   -1    0    0  503    0 -0.00000000000E+00 -0.00000000000E+00 -0.14193903214E+04  0.14193903214E+04  0.00000000000E+00 0. -1.
         25    1    1    2    0    0 -0.19990973917E+03  0.57712244005E+02  0.81580482253E+03  0.85115046578E+03  0.12500000000E+03 0.  0.
         21    1    1    2  503  502  0.14091980365E+03  0.36989343655E+02  0.13681192119E+03  0.19986021211E+03  0.00000000000E+00 0. -1.
          2    1    1    2  501    0  0.58989935519E+02 -0.94701587660E+02 -0.13679221049E+04  0.13724646037E+04  0.00000000000E+00 0. -1.
<mgrwt>
<rscale>  4 0.21937832E+03</rscale>
<asrwt>0</asrwt>
<pdfrwt beam="1">  1       21 0.15447461E+00 0.21937832E+03</pdfrwt>
<pdfrwt beam="2">  1        2 0.21836774E+00 0.21937832E+03</pdfrwt>
<totfact> 0.52106771E+01</totfact>
</mgrwt>
</event>
<event>
 5    0  0.1239749E+000  0.2730039E+03  0.7546771E-02  0.1099573E+00
         21   -1    0    0  503  502  0.00000000000E+00  0.00000000000E+00  0.31098313974E+03  0.31098313974E+03  0.00000000000E+00 0.  1.
         -2   -1    0    0    0  501 -0.00000000000E+00 -0.00000000000E+00 -0.32664599345E+03  0.32664599345E+03  0.00000000000E+00 0. -1.
         25    1    1    2    0    0 -0.85997299661E+02  0.25447664880E+03  0.51347956273E+02  0.30069172411E+03  0.12500000000E+03 0.  0.
         21    1    1    2  503  501  0.99014323665E+02 -0.20019445307E+03  0.29664629698E+02  0.22530345223E+03  0.00000000000E+00 0.  1.
         -2    1    1    2    0  502 -0.13017024004E+02 -0.54282195733E+02 -0.96675439679E+02  0.11163395686E+03  0.00000000000E+00 0. -1.
<mgrwt>
<rscale>  4 0.27300386E+03</rscale>
<asrwt>0</asrwt>
<pdfrwt beam="1">  1       21 0.47843560E-01 0.27300386E+03</pdfrwt>
<pdfrwt beam="2">  1       -2 0.50253230E-01 0.27300386E+03</pdfrwt>
<totfact> 0.12581362E+03</totfact>
</mgrwt>
</event>
<event>
 5    0  0.1239749E+000  0.2662776E+03  0.7546771E-02  0.1103429E+00
         21   -1    0    0  503  502  0.00000000000E+00  0.00000000000E+00  0.15844429910E+03  0.15844429910E+03  0.00000000000E+00 0. -1.
         -4   -1    0    0    0  501 -0.00000000000E+00 -0.00000000000E+00 -0.56356082799E+03  0.56356082799E+03  0.00000000000E+00 0. -1.
         25    1    1    2    0    0 -0.23067422578E+03  0.10665945942E+03 -0.21414790461E+03  0.35506501344E+03  0.12500000000E+03 0.  0.
         21    1    1    2  503  501  0.80462011551E+01 -0.63240605559E+02 -0.10801482511E+03  0.12542455098E+03  0.00000000000E+00 0. -1.
         -4    1    1    2    0  502  0.22262802462E+03 -0.43418853857E+02 -0.82953799165E+02  0.24151556267E+03  0.00000000000E+00 0. -1.
<mgrwt>
<rscale>  4 0.26627762E+03</rscale>
<asrwt>0</asrwt>
<pdfrwt beam="1">  1       21 0.24376047E-01 0.26627762E+03</pdfrwt>
<pdfrwt beam="2">  1       -4 0.86701663E-01 0.26627762E+03</pdfrwt>
<totfact> 0.79223040E+02</totfact>
</mgrwt>
</event>
<event>
 5    0  0.1239749E+000  0.2498863E+03  0.7546771E-02  0.1113377E+00
          2   -1    0    0  503    0 -0.00000000000E+00  0.00000000000E+00  0.10511371987E+03  0.10511371987E+03  0.00000000000E+00 0.  1.
         21   -1    0    0  501  502  0.00000000000E+00 -0.00000000000E+00 -0.75759432641E+03  0.75759432641E+03  0.00000000000E+00 0.  1.
         25    1    1    2    0    0  0.16985744648E+03  0.14050098040E+03 -0.45320890820E+03  0.51924502125E+03  0.12500000000E+03 0.  0.
         21    1    1    2  503  502 -0.13388500216E+03 -0.16614661851E+03 -0.20849887288E+03  0.29833148114E+03  0.00000000000E+00 0.  1.
          2    1    1    2  501    0 -0.35972444315E+02  0.25645638107E+02  0.92271745419E+01  0.45131543890E+02  0.00000000000E+00 0.  1.
<mgrwt>
<rscale>  4 0.24988634E+03</rscale>
<asrwt>0</asrwt>
<pdfrwt beam="1">  1       21 0.11655297E+00 0.24988634E+03</pdfrwt>
<pdfrwt beam="2">  1        2 0.16171342E-01 0.24988634E+03</pdfrwt>
<totfact> 0.24119947E+03</totfact>
</mgrwt>
</event>
<event>
 5    0  0.1239749E+000  0.2673126E+03  0.7546771E-02  0.1102828E+00
         21   -1    0    0  503  502  0.00000000000E+00  0.00000000000E+00  0.25280330564E+03  0.25280330564E+03  0.00000000000E+00 0. -1.
         -3   -1    0    0    0  501 -0.00000000000E+00 -0.00000000000E+00 -0.65558471601E+03  0.65558471601E+03  0.00000000000E+00 0. -1.
         25    1    1    2    0    0 -0.23569514345E+03 -0.87351129420E+02  0.12864388126E+03  0.30879875104E+03  0.12500000000E+03 0.  0.
         21    1    1    2  503  501  0.17929329028E+03  0.55798128533E+02 -0.26087434804E+03  0.32142641546E+03  0.00000000000E+00 0. -1.
         -3    1    1    2    0  502  0.56401853163E+02  0.31553000887E+02 -0.27055094359E+03  0.27816285515E+03  0.00000000000E+00 0. -1.
<mgrwt>
<rscale>  4 0.26731259E+03</rscale>
<asrwt>0</asrwt>
<pdfrwt beam="1">  1       21 0.38892817E-01 0.26731259E+03</pdfrwt>
<pdfrwt beam="2">  1       -3 0.10085919E+00 0.26731259E+03</pdfrwt>
<totfact> 0.27508349E+02</totfact>
</mgrwt>
</event>
<event>
 5    0  0.1239749E+000  0.2760966E+03  0.7546771E-02  0.1097840E+00
         21   -1    0    0  501  502  0.00000000000E+00  0.00000000000E+00  0.71696308800E+03  0.71696308800E+03  0.00000000000E+00 0.  1.
          2   -1    0    0  503    0 -0.00000000000E+00 -0.00000000000E+00 -0.26198395046E+03  0.26198395046E+03  0.00000000000E+00 0.  1.
         25    1    1    2    0    0 -0.96445779090E+02  0.22482145191E+03  0.54195186350E+03  0.60760455552E+03  0.12500000000E+03 0.  0.
         21    1    1    2  503  502  0.18380133141E+03 -0.19414762226E+03 -0.51923414955E+02  0.27234586407E+03  0.00000000000E+00 0.  1.
          2    1    1    2  501    0 -0.87355552317E+02 -0.30673829643E+02 -0.35049311006E+02  0.98996618870E+02  0.00000000000E+00 0.  1.
<mgrwt>
<rscale>  4 0.27609663E+03</rscale>
<asrwt>0</asrwt>
<pdfrwt beam="1">  1       21 0.11030201E+00 0.27609663E+03</pdfrwt>
<pdfrwt beam="2">  1        2 0.40305223E-01 0.27609663E+03</pdfrwt>
<totfact> 0.97936702E+02</totfact>
</mgrwt>
</event>
<event>
 5    0  0.1239749E+000  0.2756901E+03  0.7546771E-02  0.1098066E+00
         21   -1    0    0  501  502  0.00000000000E+00  0.00000000000E+00  0.10075176302E+03  0.10075176302E+03  0.00000000000E+00 0. -1.
          2   -1    0    0  503    0 -0.00000000000E+00 -0.00000000000E+00 -0.10661097489E+04  0.10661097489E+04  0.00000000000E+00 0. -1.
         25    1    1    2    0    0 -0.16651647415E+03 -0.14936584857E+03 -0.36092959619E+03  0.44264327204E+03  0.12500000000E+03 0.  0.
         21    1    1    2  503  502  0.15061779412E+03  0.21917648162E+03 -0.25819651068E+03  0.37066088022E+03  0.00000000000E+00 0. -1.
          2    1    1    2  501    0  0.15898680023E+02 -0.69810633054E+02 -0.34623187903E+03  0.35355735966E+03  0.00000000000E+00 0. -1.
<mgrwt>
<rscale>  4 0.27569009E+03</rscale>
<asrwt>0</asrwt>
<pdfrwt beam="1">  1       21 0.15500271E-01 0.27569009E+03</pdfrwt>
<pdfrwt beam="2">  1        2 0.16401688E+00 0.27569009E+03</pdfrwt>
<totfact> 0.11017247E+04</totfact>
</mgrwt>
</event>
<event>
 5    0  0.1239749E+000  0.2890359E+03  0.7546771E-02  0.1090854E+00
         21   -1    0    0  503  502  0.00000000000E+00  0.00000000000E+00  0.89333223418E+02  0.89333223418E+02  0.00000000000E+00 0.  1.
         -1   -1    0    0    0  501 -0.00000000000E+00 -0.00000000000E+00 -0.16737476367E+04  0.16737476367E+04  0.00000000000E+00 0. -1.
         25    1    1    2    0    0  0.17680704345E+03 -0.15710417384E+03 -0.38635798997E+03  0.46993611104E+03  0.12500000000E+03 0.  0.
         21    1    1    2  503  501 -0.23405745807E+03  0.16474708853E+03 -0.39386610863E+03  0.48688295142E+03  0.00000000000E+00 0.  1.
         -1    1    1    2    0  502  0.57250414613E+02 -0.76429146927E+01 -0.80419031469E+03  0.80626179766E+03  0.00000000000E+00 0. -1.
<mgrwt>
<rscale>  4 0.28903588E+03</rscale>
<asrwt>0</asrwt>
<pdfrwt beam="1">  1       21 0.13743572E-01 0.28903588E+03</pdfrwt>
<pdfrwt beam="2">  1       -1 0.25749965E+00 0.28903588E+03</pdfrwt>
<totfact> 0.30065239E+02</totfact>
</mgrwt>
</event>
<event>
 5    0  0.1239749E+000  0.2901784E+03  0.7546771E-02  0.1090256E+00
          2   -1    0    0  503    0 -0.00000000000E+00  0.00000000000E+00  0.17838101893E+04  0.17838101893E+04  0.00000000000E+00 0. -1.
         21   -1    0    0  501  502  0.00000000000E+00 -0.00000000000E+00 -0.22125264076E+03  0.22125264076E+03  0.00000000000E+00 0. -1.
         25    1    1    2    0    0  0.78569340499E+02  0.23674657933E+03  0.36243511035E+02  0.28135507137E+03  0.12500000000E+03 0.  0.
         21    1    1    2  503  502 -0.12325441717E+03 -0.24999762435E+03  0.99235735727E+02  0.29586854307E+03  0.00000000000E+00 0. -1.
          2    1    1    2  501    0  0.44685076676E+02  0.13251045018E+02  0.14270783018E+04  0.14278392156E+04  0.00000000000E+00 0. -1.
<mgrwt>
<rscale>  4 0.29017844E+03</rscale>
<asrwt>0</asrwt>
<pdfrwt beam="1">  1       21 0.34038869E-01 0.29017844E+03</pdfrwt>
<pdfrwt beam="2">  1        2 0.27443233E+00 0.29017844E+03</pdfrwt>
<totfact> 0.98187155E+02</totfact>
</mgrwt>
</event>
<event>
 5    0  0.1239749E+000  0.3233373E+03  0.7546771E-02  0.1074124E+00
         21   -1    0    0  501  502  0.00000000000E+00  0.00000000000E+00  0.41209012001E+03  0.41209012001E+03  0.00000000000E+00 0. -1.
          1   -1    0    0  503    0 -0.00000000000E+00 -0.00000000000E+00 -0.14639312945E+04  0.14639312945E+04  0.00000000000E+00 0.  1.
         25    1    1    2    0    0  0.29321605508E+03 -0.51033335270E+02  0.27735281079E+03  0.42559327758E+03  0.12500000000E+03 0.  0.
         21    1    1    2  503  502 -0.27312620975E+03  0.17043280541E+03 -0.40040059782E+03  0.51377612474E+03  0.00000000000E+00 0. -1.
          1    1    1    2  501    0 -0.20089845330E+02 -0.11939947014E+03 -0.92879338742E+03  0.93665201215E+03  0.00000000000E+00 0.  1.
<mgrwt>
<rscale>  4 0.32333733E+03</rscale>
<asrwt>0</asrwt>
<pdfrwt beam="1">  1       21 0.63398481E-01 0.32333733E+03</pdfrwt>
<pdfrwt beam="2">  1        1 0.22522020E+00 0.32333733E+03</pdfrwt>
<totfact> 0.18167753E+02</totfact>
</mgrwt>
</event>
<event>
 5    0  0.1239749E+000  0.3649661E+03  0.7546771E-02  0.1056635E+00
         21   -1    0    0  501  502  0.00000000000E+00  0.00000000000E+00  0.15117062242E+04  0.15117062242E+04  0.00000000000E+00 0.  1.
          4   -1    0    0  503    0 -0.00000000000E+00 -0.00000000000E+00 -0.23145568338E+03  0.23145568338E+03  0.00000000000E+00 0. -1.
         25    1    1    2    0    0  0.90270977306E+02  0.25730641001E+03  0.40154662715E+03  0.50121864666E+03  0.12500000000E+03 0.  0.
         21    1    1    2  503  502  0.40653570490E+02 -0.41925438605E+03  0.93561035198E+03  0.10260573492E+04  0.00000000000E+00 0.  1.
          4    1    1    2  501    0 -0.13092454780E+03  0.16194797603E+03 -0.56906438351E+02  0.21588591173E+03  0.00000000000E+00 0. -1.
<mgrwt>
<rscale>  4 0.36496611E+03</rscale>
<asrwt>0</asrwt>
<pdfrwt beam="1">  1       21 0.23257018E+00 0.36496611E+03</pdfrwt>
<pdfrwt beam="2">  1        4 0.35608568E-01 0.36496611E+03</pdfrwt>
<totfact> 0.24904421E+01</totfact>
</mgrwt>
</event>
<event>
 5    0  0.1239749E+000  0.3316912E+03  0.7546771E-02  0.1070391E+00
          2   -1    0    0  503    0 -0.00000000000E+00  0.00000000000E+00  0.30086112483E+04  0.30086112483E+04  0.00000000000E+00 0. -1.
         21   -1    0    0  501  502  0.00000000000E+00 -0.00000000000E+00 -0.20910986376E+04  0.20910986376E+04  0.00000000000E+00 0. -1.
         25    1    1    2    0    0  0.27806500682E+03 -0.13033554296E+03 -0.20138437664E+04  0.20409554668E+04  0.12500000000E+03 0.  0.
         21    1    1    2  503  502  0.82517102634E+02  0.10476384199E+03  0.32256115416E+02  0.13720419745E+03  0.00000000000E+00 0. -1.
          2    1    1    2  501    0 -0.36058210945E+03  0.25571700969E+02  0.28991002617E+04  0.29215502216E+04  0.00000000000E+00 0. -1.
<mgrwt>
<rscale>  4 0.33169117E+03</rscale>
<asrwt>0</asrwt>
<pdfrwt beam="1">  1       21 0.32170748E+00 0.33169117E+03</pdfrwt>
<pdfrwt beam="2">  1        2 0.46286327E+00 0.33169117E+03</pdfrwt>
<totfact> 0.55754762E-01</totfact>
</mgrwt>
</event>
<event>
 5    0  0.1239749E+000  0.1944363E+03  0.7546771E-02  0.1154520E+00
         21   -1    0    0  503  502  0.00000000000E+00  0.00000000000E+00  0.14700177487E+04  0.14700177487E+04  0.00000000000E+00 0. -1.
         -1   -1    0    0    0  501 -0.00000000000E+00 -0.00000000000E+00 -0.23703554392E+03  0.23703554392E+03  0.00000000000E+00 0.  1.
         25    1    1    2    0    0  0.17009610453E+03 -0.13842699903E+03  0.61524155870E+03  0.66501270242E+03  0.12500000000E+03 0.  0.
         21    1    1    2  503  501 -0.35194750499E+02  0.81424999483E+02  0.80187598676E+03  0.80676750006E+03  0.00000000000E+00 0. -1.
         -1    1    1    2    0  502 -0.13490135403E+03  0.57001999545E+02 -0.18413534066E+03  0.23527309015E+03  0.00000000000E+00 0.  1.
<mgrwt>
<rscale>  4 0.19443630E+03</rscale>
<asrwt>0</asrwt>
<pdfrwt beam="1">  1       21 0.22615657E+00 0.19443630E+03</pdfrwt>
<pdfrwt beam="2">  1       -1 0.36467008E-01 0.19443630E+03</pdfrwt>
<totfact> 0.61543285E+01</totfact>
</mgrwt>
</event>
<event>
 5    0  0.1239749E+000  0.2641724E+03  0.7546771E-02  0.1104662E+00
          2   -1    0    0  503    0 -0.00000000000E+00  0.00000000000E+00  0.41080197487E+03  0.41080197487E+03  0.00000000000E+00 0.  1.
         21   -1    0    0  501  502  0.00000000000E+00 -0.00000000000E+00 -0.47595886757E+03  0.47595886757E+03  0.00000000000E+00 0.  1.
         25    1    1    2    0    0 -0.97545429694E+02 -0.21482778701E+03 -0.20862717356E+03  0.33884566763E+03  0.12500000000E+03 0.  0.
         21    1    1    2  503  502  0.45769524610E+02  0.22794247977E+03 -0.13197532639E+03  0.26733894262E+03  0.00000000000E+00 0.  1.
          2    1    1    2  501    0  0.51775905084E+02 -0.13114692754E+02  0.27544560725E+03  0.28057623218E+03  0.00000000000E+00 0.  1.
<mgrwt>
<rscale>  4 0.26417242E+03</rscale>
<asrwt>0</asrwt>
<pdfrwt beam="1">  1       21 0.73224441E-01 0.26417242E+03</pdfrwt>
<pdfrwt beam="2">  1        2 0.63200304E-01 0.26417242E+03</pdfrwt>
<totfact> 0.15746086E+03</totfact>
</mgrwt>
</event>
<event>
 5    0  0.1239749E+000  0.2410166E+03  0.7546771E-02  0.1119117E+00
         21   -1    0    0  503  502  0.00000000000E+00  0.00000000000E+00  0.10288759682E+04  0.10288759682E+04  0.00000000000E+00 0.  1.
         -2   -1    0    0    0  501 -0.00000000000E+00 -0.00000000000E+00 -0.17895998933E+03  0.17895998933E+03  0.00000000000E+00 0. -1.
         25    1    1    2    0    0 -0.13027969901E+03 -0.16149298856E+03  0.90874469661E+03  0.94047578860E+03  0.12500000000E+03 0.  0.
         21    1    1    2  503  501  0.30848831896E+02 -0.11202660769E+02 -0.59651414751E+02  0.68084075373E+02  0.00000000000E+00 0. -1.
         -2    1    1    2    0  502  0.99430867112E+02  0.17269564933E+03  0.82269699705E+00  0.19927609355E+03  0.00000000000E+00 0. -1.
<mgrwt>
<rscale>  4 0.24101660E+03</rscale>
<asrwt>0</asrwt>
<pdfrwt beam="1">  1       21 0.15828861E+00 0.24101660E+03</pdfrwt>
<pdfrwt beam="2">  1       -2 0.27532307E-01 0.24101660E+03</pdfrwt>
<totfact> 0.24109212E+02</totfact>
</mgrwt>
</event>
<event>
 5    0  0.1239749E+000  0.2970344E+03  0.7546771E-02  0.1086733E+00
         21   -1    0    0  501  502  0.00000000000E+00  0.00000000000E+00  0.12558501980E+03  0.12558501980E+03  0.00000000000E+00 0. -1.
          4   -1    0    0  503    0 -0.00000000000E+00 -0.00000000000E+00 -0.16809116283E+04  0.16809116283E+04  0.00000000000E+00 0.  1.
         25    1    1    2    0    0  0.24268631704E+03 -0.77262493963E+02 -0.52718229985E+03  0.59867547029E+03  0.12500000000E+03 0.  0.
         21    1    1    2  503  502 -0.24788736361E+03  0.12088366300E+03 -0.12361860580E+03  0.30222932472E+03  0.00000000000E+00 0. -1.
          4    1    1    2  501    0  0.52010465762E+01 -0.43621169036E+02 -0.90452570281E+03  0.90559185305E+03  0.00000000000E+00 0.  1.
<mgrwt>
<rscale>  4 0.29703438E+03</rscale>
<asrwt>0</asrwt>
<pdfrwt beam="1">  1       21 0.19320772E-01 0.29703438E+03</pdfrwt>
<pdfrwt beam="2">  1        4 0.25860179E+00 0.29703438E+03</pdfrwt>
<totfact> 0.64647097E+01</totfact>
</mgrwt>
</event>
<event>
 5    0  0.1239749E+000  0.2443070E+03  0.7546771E-02  0.1116956E+00
         21   -1    0    0  501  502  0.00000000000E+00  0.00000000000E+00  0.14164384369E+03  0.14164384369E+03  0.00000000000E+00 0. -1.
          2   -1    0    0  503    0 -0.00000000000E+00 -0.00000000000E+00 -0.14415148758E+04  0.14415148758E+04  0.00000000000E+00 0.  1.
         25    1    1    2    0    0 -0.22572849803E+03 -0.68925793196E+02 -0.83046779614E+02  0.27968891182E+03  0.12500000000E+03 0.  0.
         21    1    1    2  503  502  0.18669234467E+03 -0.15909977349E+02 -0.17157564332E+03  0.25405778933E+03  0.00000000000E+00 0. -1.
          2    1    1    2  501    0  0.39036153361E+02  0.84835770546E+02 -0.10452486092E+04  0.10494120183E+04  0.00000000000E+00 0.  1.
<mgrwt>
<rscale>  4 0.24430702E+03</rscale>
<asrwt>0</asrwt>
<pdfrwt beam="1">  1       21 0.21791359E-01 0.24430702E+03</pdfrwt>
<pdfrwt beam="2">  1        2 0.22177153E+00 0.24430702E+03</pdfrwt>
<totfact> 0.36206607E+03</totfact>
</mgrwt>
</event>
<event>
 5    0  0.1239749E+000  0.3467566E+03  0.7546771E-02  0.1063954E+00
         21   -1    0    0  501  502  0.00000000000E+00  0.00000000000E+00  0.54135640573E+03  0.54135640573E+03  0.00000000000E+00 0. -1.
          1   -1    0    0  503    0 -0.00000000000E+00 -0.00000000000E+00 -0.96684717985E+03  0.96684717985E+03  0.00000000000E+00 0.  1.
         25    1    1    2    0    0  0.27001658782E+03 -0.19879188658E+03  0.14886817043E+03  0.38757438516E+03  0.12500000000E+03 0.  0.
         21    1    1    2  503  502 -0.26130955247E+03  0.17513918017E+03  0.18228105681E+03  0.36356952335E+03  0.00000000000E+00 0. -1.
          1    1    1    2  501    0 -0.87070353542E+01  0.23652706411E+02 -0.75664000135E+03  0.75705967706E+03  0.00000000000E+00 0.  1.
<mgrwt>
<rscale>  4 0.34675661E+03</rscale>
<asrwt>0</asrwt>
<pdfrwt beam="1">  1       21 0.83285602E-01 0.34675661E+03</pdfrwt>
<pdfrwt beam="2">  1        1 0.14874572E+00 0.34675661E+03</pdfrwt>
<totfact> 0.21877911E+02</totfact>
</mgrwt>
</event>
<event>
 5    0  0.1239749E+000  0.2960701E+03  0.7546771E-02  0.1087222E+00
         21   -1    0    0  501  502  0.00000000000E+00  0.00000000000E+00  0.51610404455E+03  0.51610404455E+03  0.00000000000E+00 0. -1.
          2   -1    0    0  503    0 -0.00000000000E+00 -0.00000000000E+00 -0.68711415674E+03  0.68711415674E+03  0.00000000000E+00 0.  1.
         25    1    1    2    0    0  0.39638427809E+03  0.73824191276E+02  0.24896295121E+03  0.49007964476E+03  0.12500000000E+03 0.  0.
         21    1    1    2  503  502 -0.15499014154E+03 -0.17076206987E+03 -0.14078755436E+02  0.23104077527E+03  0.00000000000E+00 0.  1.
          2    1    1    2  501    0 -0.24139413655E+03  0.96937878596E+02 -0.40589430796E+03  0.48209778127E+03  0.00000000000E+00 0.  1.
<mgrwt>
<rscale>  4 0.29607010E+03</rscale>
<asrwt>0</asrwt>
<pdfrwt beam="1">  1       21 0.79400622E-01 0.29607010E+03</pdfrwt>
<pdfrwt beam="2">  1        2 0.10570987E+00 0.29607010E+03</pdfrwt>
<totfact> 0.71898357E+02</totfact>
</mgrwt>
</event>
<event>
 5    0  0.1239749E+000  0.2489299E+03  0.7546771E-02  0.1113983E+00
         21   -1    0    0  501  502  0.00000000000E+00  0.00000000000E+00  0.15250827738E+03  0.15250827738E+03  0.00000000000E+00 0. -1.
          2   -1    0    0  503    0 -0.00000000000E+00 -0.00000000000E+00 -0.17221104274E+04  0.17221104274E+04  0.00000000000E+00 0.  1.
         25    1    1    2    0    0 -0.22595434711E+03  0.80483102167E+02 -0.22937791474E+02  0.27144804105E+03  0.12500000000E+03 0.  0.
         21    1    1    2  503  502  0.11022668343E+03  0.57557887888E+02 -0.12495021205E+04  0.12556744727E+04  0.00000000000E+00 0.  1.
          2    1    1    2  501    0  0.11572766368E+03 -0.13804099006E+03 -0.29716223807E+03  0.34749619108E+03  0.00000000000E+00 0.  1.
<mgrwt>
<rscale>  4 0.24892995E+03</rscale>
<asrwt>0</asrwt>
<pdfrwt beam="1">  1       21 0.23462812E-01 0.24892995E+03</pdfrwt>
<pdfrwt beam="2">  1        2 0.26494006E+00 0.24892995E+03</pdfrwt>
<totfact> 0.22289071E+03</totfact>
</mgrwt>
</event>
<event>
 5    0  0.1239749E+000  0.3092918E+03  0.7546771E-02  0.1080686E+00
         21   -1    0    0  501  502  0.00000000000E+00  0.00000000000E+00  0.34443948039E+03  0.34443948039E+03  0.00000000000E+00 0.  1.
          1   -1    0    0  503    0 -0.00000000000E+00 -0.00000000000E+00 -0.46431600934E+03  0.46431600934E+03  0.00000000000E+00 0.  1.
         25    1    1    2    0    0 -0.16215645573E+03  0.22475204941E+03  0.61029424028E+02  0.31009319639E+03  0.12500000000E+03 0.  0.
         21    1    1    2  503  502  0.15160670239E+03 -0.24654887654E+03  0.25765806018E+02  0.29057669813E+03  0.00000000000E+00 0.  1.
          1    1    1    2  501    0  0.10549753337E+02  0.21796827137E+02 -0.20667175900E+03  0.20808559521E+03  0.00000000000E+00 0.  1.
<mgrwt>
<rscale>  4 0.30929181E+03</rscale>
<asrwt>0</asrwt>
<pdfrwt beam="1">  1       21 0.52990689E-01 0.30929181E+03</pdfrwt>
<pdfrwt beam="2">  1        1 0.71433232E-01 0.30929181E+03</pdfrwt>
<totfact> 0.17795310E+03</totfact>
</mgrwt>
</event>
<event>
 5    0  0.1239749E+000  0.2642971E+03  0.7546771E-02  0.1104589E+00
         21   -1    0    0  501  502  0.00000000000E+00  0.00000000000E+00  0.13074301797E+03  0.13074301797E+03  0.00000000000E+00 0.  1.
          2   -1    0    0  503    0 -0.00000000000E+00 -0.00000000000E+00 -0.14812267956E+04  0.14812267956E+04  0.00000000000E+00 0.  1.
         25    1    1    2    0    0  0.67529639666E+02  0.20563712384E+03 -0.29017819309E+03  0.38298206574E+03  0.12500000000E+03 0.  0.
         21    1    1    2  503  502 -0.86634274464E+02 -0.22533392199E+03 -0.89003984915E+02  0.25729862658E+03  0.00000000000E+00 0.  1.
          2    1    1    2  501    0  0.19104634798E+02  0.19696798144E+02 -0.97130159958E+03  0.97168912121E+03  0.00000000000E+00 0.  1.
<mgrwt>
<rscale>  4 0.26429710E+03</rscale>
<asrwt>0</asrwt>
<pdfrwt beam="1">  1       21 0.20114310E-01 0.26429710E+03</pdfrwt>
<pdfrwt beam="2">  1        2 0.22788105E+00 0.26429710E+03</pdfrwt>
<totfact> 0.39794310E+03</totfact>
</mgrwt>
</event>
<event>
 5    0  0.1239749E+000  0.2802088E+03  0.7546771E-02  0.1095575E+00
         21   -1    0    0  503  502  0.00000000000E+00  0.00000000000E+00  0.11966677955E+04  0.11966677955E+04  0.00000000000E+00 0. -1.
         -3   -1    0    0    0  501 -0.00000000000E+00 -0.00000000000E+00 -0.91799589406E+03  0.91799589406E+03  0.00000000000E+00 0. -1.
         25    1    1    2    0    0  0.24639127620E+03  0.57426365609E+01  0.10589512842E+04  0.10944151229E+04  0.12500000000E+03 0.  0.
         21    1    1    2  503  501 -0.30576204559E+03  0.93753864569E+02 -0.10724726586E+03  0.33731615983E+03  0.00000000000E+00 0. -1.
         -3    1    1    2    0  502  0.59370769389E+02 -0.99496501130E+02 -0.67303211689E+03  0.68293240687E+03  0.00000000000E+00 0. -1.
<mgrwt>
<rscale>  4 0.28020876E+03</rscale>
<asrwt>0</asrwt>
<pdfrwt beam="1">  1       21 0.18410274E+00 0.28020876E+03</pdfrwt>
<pdfrwt beam="2">  1       -3 0.14123014E+00 0.28020876E+03</pdfrwt>
<totfact> 0.31441986E+00</totfact>
</mgrwt>
</event>
<event>
 5    0  0.1239749E+000  0.3102826E+03  0.7546771E-02  0.1080210E+00
         21   -1    0    0  501  502  0.00000000000E+00  0.00000000000E+00  0.32908245271E+03  0.32908245271E+03  0.00000000000E+00 0.  1.
          1   -1    0    0  503    0 -0.00000000000E+00 -0.00000000000E+00 -0.32965980799E+04  0.32965980799E+04  0.00000000000E+00 0. -1.
         25    1    1    2    0    0 -0.11471040088E+02  0.28497578513E+03  0.64752177582E+02  0.31805758499E+03  0.12500000000E+03 0.  0.
         21    1    1    2  503  502  0.69605223175E+02 -0.27721831314E+03 -0.11258938842E+02  0.28604482854E+03  0.00000000000E+00 0.  1.
          1    1    1    2  501    0 -0.58134183087E+02 -0.77574719889E+01 -0.30210088659E+04  0.30215781190E+04  0.00000000000E+00 0. -1.
<mgrwt>
<rscale>  4 0.31028264E+03</rscale>
<asrwt>0</asrwt>
<pdfrwt beam="1">  1       21 0.50628068E-01 0.31028264E+03</pdfrwt>
<pdfrwt beam="2">  1        1 0.50716895E+00 0.31028264E+03</pdfrwt>
<totfact> 0.17240072E+01</totfact>
</mgrwt>
</event>
<event>
 5    0  0.1239749E+000  0.2749432E+03  0.7546771E-02  0.1098483E+00
          1   -1    0    0  503    0 -0.00000000000E+00  0.00000000000E+00  0.93025347130E+03  0.93025347130E+03  0.00000000000E+00 0.  1.
         21   -1    0    0  501  502  0.00000000000E+00 -0.00000000000E+00 -0.16359379881E+04  0.16359379881E+04  0.00000000000E+00 0.  1.
         25    1    1    2    0    0  0.19312802586E+03 -0.20099660901E+03 -0.15750834546E+03  0.34370328788E+03  0.12500000000E+03 0.  0.
         21    1    1    2  503  502 -0.17038607027E+03  0.17054536240E+03 -0.13744040831E+04  0.13953865834E+04  0.00000000000E+00 0.  1.
          1    1    1    2  501    0 -0.22741955598E+02  0.30451246616E+02  0.82622791173E+03  0.82710158813E+03  0.00000000000E+00 0.  1.
<mgrwt>
<rscale>  4 0.27494322E+03</rscale>
<asrwt>0</asrwt>
<pdfrwt beam="1">  1       21 0.25168277E+00 0.27494322E+03</pdfrwt>
<pdfrwt beam="2">  1        1 0.14311592E+00 0.27494322E+03</pdfrwt>
<totfact> 0.11992392E+01</totfact>
</mgrwt>
</event>
<event>
 5    0  0.1239749E+000  0.2477264E+03  0.7546771E-02  0.1114750E+00
          1   -1    0    0  503    0 -0.00000000000E+00  0.00000000000E+00  0.90222256574E+03  0.90222256574E+03  0.00000000000E+00 0.  1.
         21   -1    0    0  501  502  0.00000000000E+00 -0.00000000000E+00 -0.56952002265E+03  0.56952002265E+03  0.00000000000E+00 0.  1.
         25    1    1    2    0    0  0.20422284540E+03 -0.71192835538E+02 -0.51438575792E+03  0.57183310359E+03  0.12500000000E+03 0.  0.
         21    1    1    2  503  502 -0.79549602007E+02 -0.21817514999E+02  0.72380961360E+02  0.10974127167E+03  0.00000000000E+00 0.  1.
          1    1    1    2  501    0 -0.12467324339E+03  0.93010350537E+02  0.77470733965E+03  0.79016821313E+03  0.00000000000E+00 0.  1.
<mgrwt>
<rscale>  4 0.24772641E+03</rscale>
<asrwt>0</asrwt>
<pdfrwt beam="1">  1       21 0.87618465E-01 0.24772641E+03</pdfrwt>
<pdfrwt beam="2">  1        1 0.13880347E+00 0.24772641E+03</pdfrwt>
<totfact> 0.22949455E+02</totfact>
</mgrwt>
</event>
<event>
 5    0  0.1239749E+000  0.3375998E+03  0.7546771E-02  0.1067823E+00
         -1   -1    0    0    0  501 -0.00000000000E+00  0.00000000000E+00  0.22871524038E+03  0.22871524038E+03  0.00000000000E+00 0.  1.
         21   -1    0    0  503  502  0.00000000000E+00 -0.00000000000E+00 -0.54518799410E+03  0.54518799410E+03  0.00000000000E+00 0.  1.
         25    1    1    2    0    0 -0.72384153553E+02 -0.30725110744E+03 -0.22675937425E+03  0.40827383276E+03  0.12500000000E+03 0.  0.
         21    1    1    2  503  501  0.10862506344E+03  0.29283107748E+03 -0.94548916107E+02  0.32632643454E+03  0.00000000000E+00 0.  1.
         -1    1    1    2    0  502 -0.36240909889E+02  0.14420029965E+02  0.48355366379E+01  0.39302967170E+02  0.00000000000E+00 0.  1.
<mgrwt>
<rscale>  4 0.33759984E+03</rscale>
<asrwt>0</asrwt>
<pdfrwt beam="1">  1       21 0.83875076E-01 0.33759984E+03</pdfrwt>
<pdfrwt beam="2">  1       -1 0.35186960E-01 0.33759984E+03</pdfrwt>
<totfact> 0.83531839E+02</totfact>
</mgrwt>
</event>
<event>
 5    0  0.1239749E+000  0.2827519E+03  0.7546771E-02  0.1094195E+00
          1   -1    0    0  503    0 -0.00000000000E+00  0.00000000000E+00  0.35278795069E+03  0.35278795069E+03  0.00000000000E+00 0.  1.
         21   -1    0    0  501  502  0.00000000000E+00 -0.00000000000E+00 -0.36263849089E+03  0.36263849089E+03  0.00000000000E+00 0.  1.
         25    1    1    2    0    0 -0.20818243938E+03  0.16745554962E+03 -0.18733675721E+03  0.34943003558E+03  0.12500000000E+03 0.  0.
         21    1    1    2  503  502  0.12390704270E+03 -0.19489230964E+03  0.11892204625E+03  0.25976608837E+03  0.00000000000E+00 0.  1.
          1    1    1    2  501    0  0.84275396680E+02  0.27436760018E+02  0.58564170766E+02  0.10623031763E+03  0.00000000000E+00 0.  1.
<mgrwt>
<rscale>  4 0.28275192E+03</rscale>
<asrwt>0</asrwt>
<pdfrwt beam="1">  1       21 0.55790537E-01 0.28275192E+03</pdfrwt>
<pdfrwt beam="2">  1        1 0.54275070E-01 0.28275192E+03</pdfrwt>
<totfact> 0.22933161E+03</totfact>
</mgrwt>
</event>
<event>
 5    0  0.1239749E+000  0.2837846E+03  0.7546771E-02  0.1093640E+00
          2   -1    0    0  503    0 -0.00000000000E+00  0.00000000000E+00  0.30950486921E+04  0.30950486921E+04  0.00000000000E+00 0.  1.
         21   -1    0    0  501  502  0.00000000000E+00 -0.00000000000E+00 -0.34175971457E+03  0.34175971457E+03  0.00000000000E+00 0. -1.
         25    1    1    2    0    0  0.25648056286E+03 -0.10457825320E+03  0.48815874130E+02  0.30777732167E+03  0.12500000000E+03 0.  0.
         21    1    1    2  503  502 -0.21766386247E+03  0.11515513097E+03 -0.14067549284E+03  0.28359805271E+03  0.00000000000E+00 0. -1.
          2    1    1    2  501    0 -0.38816700385E+02 -0.10576877769E+02  0.28451485963E+04  0.28454330323E+04  0.00000000000E+00 0.  1.
<mgrwt>
<rscale>  4 0.28378456E+03</rscale>
<asrwt>0</asrwt>
<pdfrwt beam="1">  1       21 0.52578420E-01 0.28378456E+03</pdfrwt>
<pdfrwt beam="2">  1        2 0.47616132E+00 0.28378456E+03</pdfrwt>
<totfact> 0.76102321E+01</totfact>
</mgrwt>
</event>
<event>
 5    0  0.1239749E+000  0.4095543E+03  0.7546771E-02  0.1040521E+00
          1   -1    0    0  503    0 -0.00000000000E+00  0.00000000000E+00  0.10468174925E+04  0.10468174925E+04  0.00000000000E+00 0. -1.
         21   -1    0    0  501  502  0.00000000000E+00 -0.00000000000E+00 -0.50953884351E+03  0.50953884351E+03  0.00000000000E+00 0.  1.
         25    1    1    2    0    0  0.17544415116E+03 -0.38295448087E+03 -0.33558879962E+03  0.55288301387E+03  0.12500000000E+03 0.  0.
         21    1    1    2  503  502 -0.55416055564E+02  0.28197711307E+03  0.32610529582E+03  0.43465698599E+03  0.00000000000E+00 0. -1.
          1    1    1    2  501    0 -0.12002809560E+03  0.10097736780E+03  0.54676215275E+03  0.56881633610E+03  0.00000000000E+00 0. -1.
<mgrwt>
<rscale>  4 0.40955430E+03</rscale>
<asrwt>0</asrwt>
<pdfrwt beam="1">  1       21 0.78390592E-01 0.40955430E+03</pdfrwt>
<pdfrwt beam="2">  1        1 0.16104884E+00 0.40955430E+03</pdfrwt>
<totfact> 0.21354851E+02</totfact>
</mgrwt>
</event>
<event>
 5    0  0.1239749E+000  0.3008087E+03  0.7546771E-02  0.1084837E+00
         21   -1    0    0  501  502  0.00000000000E+00  0.00000000000E+00  0.12090400045E+04  0.12090400045E+04  0.00000000000E+00 0. -1.
          2   -1    0    0  503    0 -0.00000000000E+00 -0.00000000000E+00 -0.25604074725E+03  0.25604074725E+03  0.00000000000E+00 0. -1.
         25    1    1    2    0    0  0.67208492902E+02  0.26865168256E+03  0.10370733330E+04  0.10806649833E+04  0.12500000000E+03 0.  0.
         21    1    1    2  503  502 -0.43820545624E+02 -0.25346577694E+03  0.37267205312E+02  0.25991149434E+03  0.00000000000E+00 0. -1.
          2    1    1    2  501    0 -0.23387947278E+02 -0.15185905620E+02 -0.12134128102E+03  0.12450427417E+03  0.00000000000E+00 0. -1.
<mgrwt>
<rscale>  4 0.30080866E+03</rscale>
<asrwt>0</asrwt>
<pdfrwt beam="1">  1       21 0.18600615E+00 0.30080866E+03</pdfrwt>
<pdfrwt beam="2">  1        2 0.39390885E-01 0.30080866E+03</pdfrwt>
<totfact> 0.24857023E+02</totfact>
</mgrwt>
</event>
<event>
 5    0  0.1239749E+000  0.2940072E+03  0.7546771E-02  0.1088275E+00
          3   -1    0    0  503    0 -0.00000000000E+00  0.00000000000E+00  0.52404127989E+03  0.52404127989E+03  0.00000000000E+00 0.  1.
         21   -1    0    0  501  502  0.00000000000E+00 -0.00000000000E+00 -0.65561183216E+03  0.65561183216E+03  0.00000000000E+00 0.  1.
         25    1    1    2    0    0 -0.19095496356E+03 -0.16798611208E+03 -0.27160949470E+03  0.39253006200E+03  0.12500000000E+03 0.  0.
         21    1    1    2  503  502  0.19848257272E+03  0.19458524126E+03 -0.26328389853E+03  0.38285396565E+03  0.00000000000E+00 0.  1.
          3    1    1    2  501    0 -0.75276091560E+01 -0.26599129186E+02  0.40332284095E+03  0.40426908440E+03  0.00000000000E+00 0.  1.
<mgrwt>
<rscale>  4 0.29400716E+03</rscale>
<asrwt>0</asrwt>
<pdfrwt beam="1">  1       21 0.10086336E+00 0.29400716E+03</pdfrwt>
<pdfrwt beam="2">  1        3 0.80621736E-01 0.29400716E+03</pdfrwt>
<totfact> 0.56066202E+01</totfact>
</mgrwt>
</event>
<event>
 5    0  0.1239749E+000  0.2417334E+03  0.7546771E-02  0.1118643E+00
         21   -1    0    0  501  502  0.00000000000E+00  0.00000000000E+00  0.60046979109E+02  0.60046979109E+02  0.00000000000E+00 0. -1.
          2   -1    0    0  503    0 -0.00000000000E+00 -0.00000000000E+00 -0.18350037315E+04  0.18350037315E+04  0.00000000000E+00 0.  1.
         25    1    1    2    0    0 -0.64661338225E+02 -0.20285651728E+03 -0.28231978998E+03  0.37504842231E+03  0.12500000000E+03 0.  0.
         21    1    1    2  503  502 -0.53758766579E+02  0.50596247100E+02 -0.20273595650E+03  0.21575878490E+03  0.00000000000E+00 0. -1.
          2    1    1    2  501    0  0.11842010480E+03  0.15226027018E+03 -0.12899010059E+04  0.13042435034E+04  0.00000000000E+00 0.  1.
<mgrwt>
<rscale>  4 0.24173343E+03</rscale>
<asrwt>0</asrwt>
<pdfrwt beam="1">  1       21 0.92379956E-02 0.24173343E+03</pdfrwt>
<pdfrwt beam="2">  1        2 0.28230830E+00 0.24173343E+03</pdfrwt>
<totfact> 0.10751505E+04</totfact>
</mgrwt>
</event>
<event>
 5    0  0.1239749E+000  0.2764963E+03  0.7546771E-02  0.1097618E+00
         21   -1    0    0  501  502  0.00000000000E+00  0.00000000000E+00  0.38392096510E+03  0.38392096510E+03  0.00000000000E+00 0.  1.
          1   -1    0    0  503    0 -0.00000000000E+00 -0.00000000000E+00 -0.15941410012E+04  0.15941410012E+04  0.00000000000E+00 0. -1.
         25    1    1    2    0    0 -0.13958891598E+03 -0.21740965073E+03 -0.41434751423E+02  0.28998941415E+03  0.12500000000E+03 0.  0.
         21    1    1    2  503  502  0.10660985068E+03  0.21840826923E+03  0.20252775444E+03  0.31636264579E+03  0.00000000000E+00 0.  1.
          1    1    1    2  501    0  0.32979065302E+02 -0.99861850462E+00 -0.13713130392E+04  0.13717099064E+04  0.00000000000E+00 0. -1.
<mgrwt>
<rscale>  4 0.27649631E+03</rscale>
<asrwt>0</asrwt>
<pdfrwt beam="1">  1       21 0.59064764E-01 0.27649631E+03</pdfrwt>
<pdfrwt beam="2">  1        1 0.24525246E+00 0.27649631E+03</pdfrwt>
<totfact> 0.17812526E+02</totfact>
</mgrwt>
</event>
<event>
 5    0  0.1239749E+000  0.2927084E+03  0.7546771E-02  0.1088943E+00
          2   -1    0    0  503    0 -0.00000000000E+00  0.00000000000E+00  0.86490898158E+03  0.86490898158E+03  0.00000000000E+00 0. -1.
         21   -1    0    0  501  502  0.00000000000E+00 -0.00000000000E+00 -0.27588554011E+03  0.27588554011E+03  0.00000000000E+00 0. -1.
         25    1    1    2    0    0  0.21229690973E+03 -0.15521446966E+03 -0.15851415871E+03  0.33153166966E+03  0.12500000000E+03 0.  0.
         21    1    1    2  503  502 -0.29342190173E+01 -0.30107919821E+02  0.66079782088E+02  0.72674851757E+02  0.00000000000E+00 0. -1.
          2    1    1    2  501    0 -0.20936269072E+03  0.18532238948E+03  0.68145781809E+03  0.73658800027E+03  0.00000000000E+00 0. -1.
<mgrwt>
<rscale>  4 0.29270840E+03</rscale>
<asrwt>0</asrwt>
<pdfrwt beam="1">  1       21 0.42443930E-01 0.29270840E+03</pdfrwt>
<pdfrwt beam="2">  1        2 0.13306292E+00 0.29270840E+03</pdfrwt>
<totfact> 0.20829393E+03</totfact>
</mgrwt>
</event>
