<event>
 5    0  0.1911311E+001  0.3650239E+03  0.7546771E-02  0.1056612E+00
         21   -1    0    0  502  501  0.00000000000E+00  0.00000000000E+00  0.19158033106E+03  0.19158033106E+03  0.00000000000E+00 0.  1.
         21   -1    0    0  504  502 -0.00000000000E+00 -0.00000000000E+00 -0.98997885558E+03  0.98997885558E+03  0.00000000000E+00 0.  1.
         25    1    1    2    0    0 -0.72516974724E+02 -0.37128928535E+03 -0.22211166412E+03  0.45615023444E+03  0.12500000000E+03 0.  0.
         21    1    1    2  503  501 -0.77277046563E+02  0.10916950616E+03 -0.12940888456E+03  0.18610852319E+03  0.00000000000E+00 0.  1.
         21    1    1    2  504  503  0.14979402129E+03  0.26211977918E+03 -0.44687797584E+03  0.53930042902E+03  0.00000000000E+00 0.  1.
<mgrwt>
<rscale>  4 0.36502392E+03</rscale>
<asrwt>0</asrwt>
<pdfrwt beam="1">  1       21 0.29473897E-01 0.36502392E+03</pdfrwt>
<pdfrwt beam="2">  1       21 0.15230444E+00 0.36502392E+03</pdfrwt>
<totfact> 0.28269681E+03</totfact>
</mgrwt>
</event>
<event>
 5    0  0.1911311E+001  0.2878418E+03  0.7546771E-02  0.1091481E+00
         21   -1    0    0  503  501  0.00000000000E+00  0.00000000000E+00  0.11916489748E+03  0.11916489748E+03  0.00000000000E+00 0.  1.
         21   -1    0    0  501  502 -0.00000000000E+00 -0.00000000000E+00 -0.68124311322E+03  0.68124311322E+03  0.00000000000E+00 0.  1.
         25    1    1    2    0    0 -0.19320789446E+03 -0.17291215134E+03 -0.19880046124E+03  0.34982070544E+03  0.12500000000E+03 0.  0.
         21    1    1    2  503  504  0.26476461228E+02  0.12634158143E+02 -0.78024636829E+02  0.83357476590E+02  0.00000000000E+00 0. -1.
         21    1    1    2  504  502  0.16673143323E+03  0.16027799320E+03 -0.28525311766E+03  0.36722982867E+03  0.00000000000E+00 0.  1.
<mgrwt>
<rscale>  4 0.28784180E+03</rscale>
<asrwt>0</asrwt>
<pdfrwt beam="1">  1       21 0.18333061E-01 0.28784180E+03</pdfrwt>
<pdfrwt beam="2">  1       21 0.10480663E+00 0.28784180E+03</pdfrwt>
<totfact> 0.18935078E+04</totfact>
</mgrwt>
</event>
<event>
 5    0  0.1911311E+001  0.2896225E+03  0.7546771E-02  0.1090546E+00
         21   -1    0    0  503  501  0.00000000000E+00  0.00000000000E+00  0.12533486649E+04  0.12533486649E+04  0.00000000000E+00 0. -1.
         21   -1    0    0  504  502 -0.00000000000E+00 -0.00000000000E+00 -0.10358115953E+03  0.10358115953E+03  0.00000000000E+00 0. -1.
         25    1    1    2    0    0  0.79147312535E+02  0.27662253056E+03  0.84457934462E+03  0.90095704162E+03  0.12500000000E+03 0.  0.
         21    1    1    2  503  502 -0.81805865699E+02 -0.24113122032E+03  0.14739115096E+03  0.29421185642E+03  0.00000000000E+00 0. -1.
         21    1    1    2  504  501  0.26585531641E+01 -0.35491310236E+02  0.15779700976E+03  0.16176092636E+03  0.00000000000E+00 0. -1.
<mgrwt>
<rscale>  4 0.28962248E+03</rscale>
<asrwt>0</asrwt>
<pdfrwt beam="1">  1       21 0.19282286E+00 0.28962248E+03</pdfrwt>
<pdfrwt beam="2">  1       21 0.15935564E-01 0.28962248E+03</pdfrwt>
<totfact> 0.48794129E+03</totfact>
</mgrwt>
</event>
<event>
 5    0  0.1911311E+001  0.2442823E+03  0.7546771E-02  0.1116972E+00
         21   -1    0    0  502  501  0.00000000000E+00  0.00000000000E+00  0.66013008026E+03  0.66013008026E+03  0.00000000000E+00 0. -1.
         21   -1    0    0  504  502 -0.00000000000E+00 -0.00000000000E+00 -0.10483204993E+03  0.10483204993E+03  0.00000000000E+00 0. -1.
         25    1    1    2    0    0 -0.16325248802E+03 -0.14964822435E+03  0.18437722608E+03  0.31411132961E+03  0.12500000000E+03 0.  0.
         21    1    1    2  503  501  0.16129451621E+03  0.12711285829E+03  0.37529799177E+03  0.42781091890E+03  0.00000000000E+00 0. -1.
         21    1    1    2  504  503  0.19579718092E+01  0.22535366058E+02 -0.43771875158E+01  0.23039881673E+02  0.00000000000E+00 0. -1.
<mgrwt>
<rscale>  4 0.24428234E+03</rscale>
<asrwt>0</asrwt>
<pdfrwt beam="1">  1       21 0.10155847E+00 0.24428234E+03</pdfrwt>
<pdfrwt beam="2">  1       21 0.16128008E-01 0.24428234E+03</pdfrwt>
<totfact> 0.26440170E+04</totfact>
</mgrwt>
</event>
