<event>
 5    0  0.1828625E+000  0.6025683E+03  0.7546771E-02  0.9900092E-01
         21   -1    0    0  503  501  0.00000000000E+00  0.00000000000E+00  0.18670000239E+03  0.18670000239E+03  0.00000000000E+00 0. -1.
         21   -1    0    0  504  502 -0.00000000000E+00 -0.00000000000E+00 -0.74603126718E+03  0.74603126718E+03  0.00000000000E+00 0.  1.
         25    1    1    2    0    0  0.19405868604E+03 -0.18191480446E+03 -0.14833072925E+03  0.32920931784E+03  0.12500000000E+03 0.  0.
         21    1    1    2  503  502  0.22646274760E+01  0.22991818076E+02  0.62626522166E+02  0.66752030041E+02  0.00000000000E+00 0. -1.
         21    1    1    2  504  501 -0.19632331352E+03  0.15892298638E+03 -0.47362705771E+03  0.53676992169E+03  0.00000000000E+00 0.  1.
<mgrwt>
<rscale>  4 0.60256830E+03</rscale>
<asrwt>0</asrwt>
<pdfrwt beam="1">  1       21 0.28723077E-01 0.60256830E+03</pdfrwt>
<pdfrwt beam="2">  1       21 0.11477404E+00 0.60256830E+03</pdfrwt>
<totfact> 0.57560225E+03</totfact>
</mgrwt>
</event>
<event>
 5    0  0.1828625E+000  0.7078665E+03  0.7546771E-02  0.9703873E-01
         21   -1    0    0  504  501  0.00000000000E+00  0.00000000000E+00  0.80877111066E+03  0.80877111066E+03  0.00000000000E+00 0. -1.
         21   -1    0    0  501  502 -0.00000000000E+00 -0.00000000000E+00 -0.36868801663E+03  0.36868801663E+03  0.00000000000E+00 0. -1.
         25    1    1    2    0    0  0.29152024850E+03 -0.20283540097E+03 -0.46309607949E+02  0.37933604490E+03  0.12500000000E+03 0.  0.
         21    1    1    2  503  502 -0.26373781132E+03  0.19598055107E+03  0.18230506976E+02  0.32908716308E+03  0.00000000000E+00 0. -1.
         21    1    1    2  504  503 -0.27782437181E+02  0.68548498990E+01  0.46816219500E+03  0.46903591931E+03  0.00000000000E+00 0. -1.
<mgrwt>
<rscale>  4 0.70786652E+03</rscale>
<asrwt>0</asrwt>
<pdfrwt beam="1">  1       21 0.12442632E+00 0.70786652E+03</pdfrwt>
<pdfrwt beam="2">  1       21 0.56721234E-01 0.70786652E+03</pdfrwt>
<totfact> 0.11054487E+03</totfact>
</mgrwt>
</event>
<event>
 5    0  0.1828625E+000  0.5070501E+03  0.7546771E-02  0.1011955E+00
         21   -1    0    0  503  501  0.00000000000E+00  0.00000000000E+00  0.25744196001E+03  0.25744196001E+03  0.00000000000E+00 0.  1.
         21   -1    0    0  504  502 -0.00000000000E+00 -0.00000000000E+00 -0.81413060920E+03  0.81413060920E+03  0.00000000000E+00 0.  1.
         25    1    1    2    0    0  0.26678055590E+03  0.32954387034E+02 -0.11959776417E+03  0.31966620375E+03  0.12500000000E+03 0.  0.
         21    1    1    2  503  502 -0.36651350310E+03  0.34842693593E+02 -0.82399208403E+02  0.37727415866E+03  0.00000000000E+00 0.  1.
         21    1    1    2  504  501  0.99732947202E+02 -0.67797080627E+02 -0.35469167662E+03  0.37463220679E+03  0.00000000000E+00 0.  1.
<mgrwt>
<rscale>  4 0.50705011E+03</rscale>
<asrwt>0</asrwt>
<pdfrwt beam="1">  1       21 0.39606456E-01 0.50705011E+03</pdfrwt>
<pdfrwt beam="2">  1       21 0.12525086E+00 0.50705011E+03</pdfrwt>
<totfact> 0.24693067E+03</totfact>
</mgrwt>
</event>
<event>
 5    0  0.1828625E+000  0.4729522E+03  0.7546771E-02  0.1021090E+00
         21   -1    0    0  503  501  0.00000000000E+00  0.00000000000E+00  0.21570549926E+03  0.21570549926E+03  0.00000000000E+00 0. -1.
         21   -1    0    0  504  502 -0.00000000000E+00 -0.00000000000E+00 -0.63818069495E+03  0.63818069495E+03  0.00000000000E+00 0. -1.
         25    1    1    2    0    0  0.27265262934E+03 -0.67870568868E+02 -0.23878900053E+03  0.38934696246E+03  0.12500000000E+03 0.  0.
         21    1    1    2  503  502 -0.24677056427E+03 -0.92618402180E+02 -0.10222282504E+03  0.28270724393E+03  0.00000000000E+00 0. -1.
         21    1    1    2  504  501 -0.25882065068E+02  0.16048897105E+03 -0.81463370120E+02  0.18183198781E+03  0.00000000000E+00 0. -1.
<mgrwt>
<rscale>  4 0.47295223E+03</rscale>
<asrwt>0</asrwt>
<pdfrwt beam="1">  1       21 0.33185462E-01 0.47295223E+03</pdfrwt>
<pdfrwt beam="2">  1       21 0.98181644E-01 0.47295223E+03</pdfrwt>
<totfact> 0.65727026E+03</totfact>
</mgrwt>
</event>
<event>
 5    0  0.1828625E+000  0.4455563E+03  0.7546771E-02  0.1029056E+00
         21   -1    0    0  502  501  0.00000000000E+00  0.00000000000E+00  0.93302992083E+03  0.93302992083E+03  0.00000000000E+00 0.  1.
         21   -1    0    0  504  502 -0.00000000000E+00 -0.00000000000E+00 -0.39110678143E+03  0.39110678143E+03  0.00000000000E+00 0. -1.
         25    1    1    2    0    0 -0.15215267346E+03  0.20569372040E+03 -0.23466163510E+03  0.36898702639E+03  0.12500000000E+03 0.  0.
         21    1    1    2  503  501  0.78305253374E+02 -0.81702879736E+02  0.80085113095E+03  0.80880752173E+03  0.00000000000E+00 0.  1.
         21    1    1    2  504  503  0.73847420083E+02 -0.12399084067E+03 -0.24266356450E+02  0.14634215414E+03  0.00000000000E+00 0.  1.
<mgrwt>
<rscale>  4 0.44555635E+03</rscale>
<asrwt>0</asrwt>
<pdfrwt beam="1">  1       21 0.14354306E+00 0.44555635E+03</pdfrwt>
<pdfrwt beam="2">  1       21 0.60170275E-01 0.44555635E+03</pdfrwt>
<totfact> 0.72722217E+02</totfact>
</mgrwt>
</event>
<event>
 5    0  0.1828625E+000  0.5289285E+03  0.7546771E-02  0.1006492E+00
         21   -1    0    0  502  501  0.00000000000E+00  0.00000000000E+00  0.12113565334E+04  0.12113565334E+04  0.00000000000E+00 0. -1.
         21   -1    0    0  503  502 -0.00000000000E+00 -0.00000000000E+00 -0.93321640863E+02  0.93321640863E+02  0.00000000000E+00 0. -1.
         25    1    1    2    0    0  0.89180867943E+02 -0.23353474218E+03  0.24893046674E+03  0.37427674291E+03  0.12500000000E+03 0.  0.
         21    1    1    2  503  504 -0.99888856069E+02  0.20828668971E+03  0.41093064275E+03  0.47140759628E+03  0.00000000000E+00 0. -1.
         21    1    1    2  504  501  0.10707988126E+02  0.25248052476E+02  0.45817378300E+03  0.45899383502E+03  0.00000000000E+00 0. -1.
<mgrwt>
<rscale>  4 0.52892846E+03</rscale>
<asrwt>0</asrwt>
<pdfrwt beam="1">  1       21 0.18636253E+00 0.52892846E+03</pdfrwt>
<pdfrwt beam="2">  1       21 0.14357176E-01 0.52892846E+03</pdfrwt>
<totfact> 0.59093891E+03</totfact>
</mgrwt>
</event>
<event>
 5    0  0.1828625E+000  0.5481999E+03  0.7546771E-02  0.1001911E+00
         21   -1    0    0  504  501  0.00000000000E+00  0.00000000000E+00  0.14496251872E+04  0.14496251872E+04  0.00000000000E+00 0.  1.
         21   -1    0    0  503  502 -0.00000000000E+00 -0.00000000000E+00 -0.23628627010E+03  0.23628627010E+03  0.00000000000E+00 0.  1.
         25    1    1    2    0    0 -0.24981176889E+03  0.54661878752E+02  0.18381233132E+03  0.33883006657E+03  0.12500000000E+03 0.  0.
         21    1    1    2  503  501  0.18226354464E+03 -0.58214256751E+02 -0.99753806013E+02  0.21577701733E+03  0.00000000000E+00 0.  1.
         21    1    1    2  504  502  0.67548224250E+02  0.35523779992E+01  0.11292803918E+04  0.11313043734E+04  0.00000000000E+00 0.  1.
<mgrwt>
<rscale>  4 0.54819995E+03</rscale>
<asrwt>0</asrwt>
<pdfrwt beam="1">  1       21 0.22301925E+00 0.54819995E+03</pdfrwt>
<pdfrwt beam="2">  1       21 0.36351735E-01 0.54819995E+03</pdfrwt>
<totfact> 0.55196983E+02</totfact>
</mgrwt>
</event>
<event>
 5    0  0.1828625E+000  0.8247073E+03  0.7546771E-02  0.9524927E-01
         21   -1    0    0  502  501  0.00000000000E+00  0.00000000000E+00  0.14190242094E+03  0.14190242094E+03  0.00000000000E+00 0. -1.
         21   -1    0    0  503  502 -0.00000000000E+00 -0.00000000000E+00 -0.23190054571E+04  0.23190054571E+04  0.00000000000E+00 0.  1.
         25    1    1    2    0    0 -0.11576715846E+03  0.32111777750E+03 -0.17925512016E+04  0.18290389478E+04  0.12500000000E+03 0.  0.
         21    1    1    2  503  504  0.92400711000E+02 -0.32111867718E+03 -0.45107642004E+03  0.56135998516E+03  0.00000000000E+00 0. -1.
         21    1    1    2  504  501  0.23366447464E+02  0.89968256735E-03  0.66524585489E+02  0.70508945124E+02  0.00000000000E+00 0. -1.
<mgrwt>
<rscale>  4 0.82470731E+03</rscale>
<asrwt>0</asrwt>
<pdfrwt beam="1">  1       21 0.21831139E-01 0.82470731E+03</pdfrwt>
<pdfrwt beam="2">  1       21 0.35677011E+00 0.82470731E+03</pdfrwt>
<totfact> 0.20373767E+02</totfact>
</mgrwt>
</event>
<event>
 5    0  0.1828625E+000  0.5396866E+03  0.7546771E-02  0.1003910E+00
         21   -1    0    0  502  501  0.00000000000E+00  0.00000000000E+00  0.10290949184E+04  0.10290949184E+04  0.00000000000E+00 0.  1.
         21   -1    0    0  503  502 -0.00000000000E+00 -0.00000000000E+00 -0.13993867864E+03  0.13993867864E+03  0.00000000000E+00 0.  1.
         25    1    1    2    0    0  0.41624546804E+01 -0.22608091048E+03  0.24927666126E+03  0.35901776831E+03  0.12500000000E+03 0.  0.
         21    1    1    2  503  504 -0.39686326340E+02  0.26944387921E+03  0.13855896058E+03  0.30557093137E+03  0.00000000000E+00 0.  1.
         21    1    1    2  504  501  0.35523871660E+02 -0.43362968733E+02  0.50132061789E+03  0.50444489732E+03  0.00000000000E+00 0.  1.
<mgrwt>
<rscale>  4 0.53968664E+03</rscale>
<asrwt>0</asrwt>
<pdfrwt beam="1">  1       21 0.15832229E+00 0.53968664E+03</pdfrwt>
<pdfrwt beam="2">  1       21 0.21529028E-01 0.53968664E+03</pdfrwt>
<totfact> 0.43870979E+03</totfact>
</mgrwt>
</event>
<event>
 5    0  0.1828625E+000  0.6134814E+03  0.7546771E-02  0.9877825E-01
         21   -1    0    0  503  501  0.00000000000E+00  0.00000000000E+00  0.16937728143E+03  0.16937728143E+03  0.00000000000E+00 0.  1.
         21   -1    0    0  504  502 -0.00000000000E+00 -0.00000000000E+00 -0.94917136897E+03  0.94917136897E+03  0.00000000000E+00 0.  1.
         25    1    1    2    0    0 -0.15126524274E+03 -0.14004902688E+03 -0.82025456368E+03  0.85494880129E+03  0.12500000000E+03 0.  0.
         21    1    1    2  503  502  0.13257991591E+03  0.76157752139E+02 -0.41097940206E+02  0.15832396534E+03  0.00000000000E+00 0.  1.
         21    1    1    2  504  501  0.18685326831E+02  0.63891274741E+02  0.81558416338E+02  0.10527588376E+03  0.00000000000E+00 0. -1.
<mgrwt>
<rscale>  4 0.61348142E+03</rscale>
<asrwt>0</asrwt>
<pdfrwt beam="1">  1       21 0.26058043E-01 0.61348142E+03</pdfrwt>
<pdfrwt beam="2">  1       21 0.14602636E+00 0.61348142E+03</pdfrwt>
<totfact> 0.37031156E+03</totfact>
</mgrwt>
</event>
<event>
 5    0  0.1828625E+000  0.4152138E+03  0.7546771E-02  0.1038635E+00
         21   -1    0    0  503  501  0.00000000000E+00  0.00000000000E+00  0.86629481278E+02  0.86629481278E+02  0.00000000000E+00 0.  1.
         21   -1    0    0  504  502 -0.00000000000E+00 -0.00000000000E+00 -0.15612238873E+04  0.15612238873E+04  0.00000000000E+00 0.  1.
         25    1    1    2    0    0 -0.87127792570E+02  0.19923504364E+03 -0.73459942312E+03  0.77623911735E+03  0.12500000000E+03 0.  0.
         21    1    1    2  503  502  0.11051017888E+03 -0.10408409167E+03 -0.75708320744E+03  0.77215346970E+03  0.00000000000E+00 0.  1.
         21    1    1    2  504  501 -0.23382386307E+02 -0.95150951972E+02  0.17088224517E+02  0.99460781556E+02  0.00000000000E+00 0.  1.
<mgrwt>
<rscale>  4 0.41521384E+03</rscale>
<asrwt>0</asrwt>
<pdfrwt beam="1">  1       21 0.13327614E-01 0.41521384E+03</pdfrwt>
<pdfrwt beam="2">  1       21 0.24018827E+00 0.41521384E+03</pdfrwt>
<totfact> 0.31579215E+03</totfact>
</mgrwt>
</event>
<event>
 5    0  0.1828625E+000  0.6804909E+03  0.7546771E-02  0.9751190E-01
         21   -1    0    0  503  501  0.00000000000E+00  0.00000000000E+00  0.16493188801E+03  0.16493188801E+03  0.00000000000E+00 0. -1.
         21   -1    0    0  504  502 -0.00000000000E+00 -0.00000000000E+00 -0.14102613517E+04  0.14102613517E+04  0.00000000000E+00 0. -1.
         25    1    1    2    0    0  0.21113213584E+02 -0.20396080081E+03 -0.37895658776E+03  0.44864113885E+03  0.12500000000E+03 0.  0.
         21    1    1    2  503  502  0.20493076128E+03 -0.17340318898E+03 -0.23332509135E+03  0.35567665249E+03  0.00000000000E+00 0. -1.
         21    1    1    2  504  501 -0.22604397486E+03  0.37736398980E+03 -0.63304778457E+03  0.77087544838E+03  0.00000000000E+00 0. -1.
<mgrwt>
<rscale>  4 0.68049089E+03</rscale>
<asrwt>0</asrwt>
<pdfrwt beam="1">  1       21 0.25374137E-01 0.68049089E+03</pdfrwt>
<pdfrwt beam="2">  1       21 0.21696328E+00 0.68049089E+03</pdfrwt>
<totfact> 0.11856601E+03</totfact>
</mgrwt>
</event>
<event>
 5    0  0.1828625E+000  0.4060395E+03  0.7546771E-02  0.1041708E+00
         21   -1    0    0  503  501  0.00000000000E+00  0.00000000000E+00  0.17110432438E+04  0.17110432438E+04  0.00000000000E+00 0.  1.
         21   -1    0    0  504  502 -0.00000000000E+00 -0.00000000000E+00 -0.20309556970E+03  0.20309556970E+03  0.00000000000E+00 0.  1.
         25    1    1    2    0    0  0.55552298988E+01  0.31105503423E+03  0.21279963186E+02  0.33595227598E+03  0.12500000000E+03 0.  0.
         21    1    1    2  503  502  0.36118143212E+02 -0.25394548667E+03  0.14854966866E+04  0.15074790998E+04  0.00000000000E+00 0.  1.
         21    1    1    2  504  501 -0.41673373111E+02 -0.57109547565E+02  0.11710243156E+01  0.70707437710E+02  0.00000000000E+00 0. -1.
<mgrwt>
<rscale>  4 0.40603950E+03</rscale>
<asrwt>0</asrwt>
<pdfrwt beam="1">  1       21 0.26323741E+00 0.40603950E+03</pdfrwt>
<pdfrwt beam="2">  1       21 0.31245473E-01 0.40603950E+03</pdfrwt>
<totfact> 0.45216270E+02</totfact>
</mgrwt>
</event>
<event>
 5    0  0.1828625E+000  0.7236353E+03  0.7546771E-02  0.9677645E-01
         21   -1    0    0  502  501  0.00000000000E+00  0.00000000000E+00  0.12490376325E+03  0.12490376325E+03  0.00000000000E+00 0.  1.
         21   -1    0    0  503  502 -0.00000000000E+00 -0.00000000000E+00 -0.16898195841E+04  0.16898195841E+04  0.00000000000E+00 0. -1.
         25    1    1    2    0    0 -0.23366669368E+03  0.15651035293E+03 -0.11423186386E+04  0.11830521909E+04  0.12500000000E+03 0.  0.
         21    1    1    2  503  504  0.22383962971E+03 -0.25157156996E+03 -0.41693488064E+03  0.53593575113E+03  0.00000000000E+00 0.  1.
         21    1    1    2  504  501  0.98270639681E+01  0.95061217033E+02 -0.56623015995E+01  0.95735405308E+02  0.00000000000E+00 0.  1.
<mgrwt>
<rscale>  4 0.72363527E+03</rscale>
<asrwt>0</asrwt>
<pdfrwt beam="1">  1       21 0.19215965E-01 0.72363527E+03</pdfrwt>
<pdfrwt beam="2">  1       21 0.25997222E+00 0.72363527E+03</pdfrwt>
<totfact> 0.10692883E+03</totfact>
</mgrwt>
</event>
<event>
 5    0  0.1828625E+000  0.6240014E+03  0.7546771E-02  0.9856825E-01
         21   -1    0    0  502  501  0.00000000000E+00  0.00000000000E+00  0.36307786073E+03  0.36307786073E+03  0.00000000000E+00 0.  1.
         21   -1    0    0  503  502 -0.00000000000E+00 -0.00000000000E+00 -0.10535744572E+04  0.10535744572E+04  0.00000000000E+00 0.  1.
         25    1    1    2    0    0 -0.11897563927E+03 -0.17926822446E+03 -0.10156548256E+03  0.26876169051E+03  0.12500000000E+03 0.  0.
         21    1    1    2  503  504  0.11141599107E+03  0.13642908052E+03 -0.85771216002E+03  0.87561210963E+03  0.00000000000E+00 0.  1.
         21    1    1    2  504  501  0.75596481952E+01  0.42839143932E+02  0.26878104608E+03  0.27227851782E+03  0.00000000000E+00 0.  1.
<mgrwt>
<rscale>  4 0.62400144E+03</rscale>
<asrwt>0</asrwt>
<pdfrwt beam="1">  1       21 0.55858133E-01 0.62400144E+03</pdfrwt>
<pdfrwt beam="2">  1       21 0.16208838E+00 0.62400144E+03</pdfrwt>
<totfact> 0.57250652E+02</totfact>
</mgrwt>
</event>
<event>
 5    0  0.1828625E+000  0.5267110E+03  0.7546771E-02  0.1007033E+00
         21   -1    0    0  503  501  0.00000000000E+00  0.00000000000E+00  0.79695950833E+03  0.79695950833E+03  0.00000000000E+00 0. -1.
         21   -1    0    0  504  502 -0.00000000000E+00 -0.00000000000E+00 -0.10446130492E+03  0.10446130492E+03  0.00000000000E+00 0.  1.
         25    1    1    2    0    0  0.20870994739E+03  0.10147222973E+02  0.45820024114E+03  0.51887885798E+03  0.12500000000E+03 0.  0.
         21    1    1    2  503  502 -0.23046399199E+03 -0.28069891847E+02  0.11336253129E+03  0.25836531101E+03  0.00000000000E+00 0.  1.
         21    1    1    2  504  501  0.21754044601E+02  0.17922668874E+02  0.12093543098E+03  0.12417664427E+03  0.00000000000E+00 0. -1.
<mgrwt>
<rscale>  4 0.52671102E+03</rscale>
<asrwt>0</asrwt>
<pdfrwt beam="1">  1       21 0.12260915E+00 0.52671102E+03</pdfrwt>
<pdfrwt beam="2">  1       21 0.16070970E-01 0.52671102E+03</pdfrwt>
<totfact> 0.15172007E+04</totfact>
</mgrwt>
</event>
<event>
 5    0  0.1828625E+000  0.4833640E+03  0.7546771E-02  0.1018215E+00
         21   -1    0    0  504  501  0.00000000000E+00  0.00000000000E+00  0.59444570302E+03  0.59444570302E+03  0.00000000000E+00 0. -1.
         21   -1    0    0  503  502 -0.00000000000E+00 -0.00000000000E+00 -0.17545359852E+03  0.17545359852E+03  0.00000000000E+00 0.  1.
         25    1    1    2    0    0  0.14905026145E+03 -0.18834865565E+03  0.56600390126E+02  0.27662212617E+03  0.12500000000E+03 0.  0.
         21    1    1    2  503  501 -0.17804141335E+03  0.99633773819E+02  0.12766051142E+03  0.24067164339E+03  0.00000000000E+00 0. -1.
         21    1    1    2  504  502  0.28991151897E+02  0.88714881829E+02  0.23473120295E+03  0.25260553198E+03  0.00000000000E+00 0. -1.
<mgrwt>
<rscale>  4 0.48336401E+03</rscale>
<asrwt>0</asrwt>
<pdfrwt beam="1">  1       21 0.91453184E-01 0.48336401E+03</pdfrwt>
<pdfrwt beam="2">  1       21 0.26992862E-01 0.48336401E+03</pdfrwt>
<totfact> 0.11717541E+04</totfact>
</mgrwt>
</event>
<event>
 5    0  0.1828625E+000  0.5057887E+03  0.7546771E-02  0.1012279E+00
         21   -1    0    0  504  501  0.00000000000E+00  0.00000000000E+00  0.28954169175E+03  0.28954169175E+03  0.00000000000E+00 0.  1.
         21   -1    0    0  501  502 -0.00000000000E+00 -0.00000000000E+00 -0.26692750596E+03  0.26692750596E+03  0.00000000000E+00 0. -1.
         25    1    1    2    0    0 -0.24291964077E+03 -0.33975569606E+02  0.64364307520E+02  0.28272257653E+03  0.12500000000E+03 0.  0.
         21    1    1    2  503  502  0.21018771477E+03  0.12643836425E+02 -0.73890470076E+02  0.22315587290E+03  0.00000000000E+00 0. -1.
         21    1    1    2  504  503  0.32731925995E+02  0.21331733181E+02  0.32140348349E+02  0.50590748283E+02  0.00000000000E+00 0.  1.
<mgrwt>
<rscale>  4 0.50578875E+03</rscale>
<asrwt>0</asrwt>
<pdfrwt beam="1">  1       21 0.44544876E-01 0.50578875E+03</pdfrwt>
<pdfrwt beam="2">  1       21 0.41065770E-01 0.50578875E+03</pdfrwt>
<totfact> 0.24790518E+04</totfact>
</mgrwt>
</event>
<event>
 5    0  0.1828625E+000  0.5534910E+03  0.7546771E-02  0.1000689E+00
         21   -1    0    0  503  501  0.00000000000E+00  0.00000000000E+00  0.18439930314E+04  0.18439930314E+04  0.00000000000E+00 0.  1.
         21   -1    0    0  504  502 -0.00000000000E+00 -0.00000000000E+00 -0.12623579218E+03  0.12623579218E+03  0.00000000000E+00 0.  1.
         25    1    1    2    0    0  0.38831190916E+02 -0.27552907925E+03  0.29793526059E+03  0.42639717917E+03  0.12500000000E+03 0.  0.
         21    1    1    2  503  502 -0.13377541068E+02  0.30477523668E+02  0.12359837455E+04  0.12364318247E+04  0.00000000000E+00 0.  1.
         21    1    1    2  504  501 -0.25453649848E+02  0.24505155559E+03  0.18383823314E+03  0.30739981970E+03  0.00000000000E+00 0.  1.
<mgrwt>
<rscale>  4 0.55349104E+03</rscale>
<asrwt>0</asrwt>
<pdfrwt beam="1">  1       21 0.28369122E+00 0.55349104E+03</pdfrwt>
<pdfrwt beam="2">  1       21 0.19420892E-01 0.55349104E+03</pdfrwt>
<totfact> 0.79602009E+02</totfact>
</mgrwt>
</event>
<event>
 5    0  0.1828625E+000  0.3785479E+03  0.7546771E-02  0.1051472E+00
         21   -1    0    0  503  501  0.00000000000E+00  0.00000000000E+00  0.17943967212E+03  0.17943967212E+03  0.00000000000E+00 0. -1.
         21   -1    0    0  504  502 -0.00000000000E+00 -0.00000000000E+00 -0.44771466969E+03  0.44771466969E+03  0.00000000000E+00 0. -1.
         25    1    1    2    0    0  0.16230236619E+03  0.17158364505E+03 -0.11379131068E+03  0.29044184909E+03  0.12500000000E+03 0.  0.
         21    1    1    2  503  502 -0.98370318526E+02 -0.12827563381E+03  0.26021679041E+01  0.16167290767E+03  0.00000000000E+00 0. -1.
         21    1    1    2  504  501 -0.63932047666E+02 -0.43308011240E+02 -0.15708585480E+03  0.17503958505E+03  0.00000000000E+00 0. -1.
<mgrwt>
<rscale>  4 0.37854792E+03</rscale>
<asrwt>0</asrwt>
<pdfrwt beam="1">  1       21 0.27606104E-01 0.37854792E+03</pdfrwt>
<pdfrwt beam="2">  1       21 0.68879179E-01 0.37854792E+03</pdfrwt>
<totfact> 0.22214230E+04</totfact>
</mgrwt>
</event>
<event>
 5    0  0.1828625E+000  0.5335947E+03  0.7546771E-02  0.1005364E+00
         21   -1    0    0  504  501  0.00000000000E+00  0.00000000000E+00  0.30635436086E+03  0.30635436086E+03  0.00000000000E+00 0. -1.
         21   -1    0    0  503  502 -0.00000000000E+00 -0.00000000000E+00 -0.33565416113E+03  0.33565416113E+03  0.00000000000E+00 0. -1.
         25    1    1    2    0    0 -0.11393484245E+03 -0.20089288431E+03  0.84885700017E+01  0.26274732179E+03  0.12500000000E+03 0.  0.
         21    1    1    2  503  501  0.10379192415E+03  0.23153308431E+03 -0.12746729269E+03  0.28395112846E+03  0.00000000000E+00 0. -1.
         21    1    1    2  504  502  0.10142918297E+02 -0.30640199998E+02  0.89678922425E+02  0.95310071738E+02  0.00000000000E+00 0. -1.
<mgrwt>
<rscale>  4 0.53359466E+03</rscale>
<asrwt>0</asrwt>
<pdfrwt beam="1">  1       21 0.47131440E-01 0.53359466E+03</pdfrwt>
<pdfrwt beam="2">  1       21 0.51639102E-01 0.53359466E+03</pdfrwt>
<totfact> 0.13493019E+04</totfact>
</mgrwt>
</event>
<event>
 5    0  0.1828625E+000  0.3691413E+03  0.7546771E-02  0.1055022E+00
         21   -1    0    0  503  501  0.00000000000E+00  0.00000000000E+00  0.27651830905E+03  0.27651830905E+03  0.00000000000E+00 0.  1.
         21   -1    0    0  504  502 -0.00000000000E+00 -0.00000000000E+00 -0.25723226856E+03  0.25723226856E+03  0.00000000000E+00 0.  1.
         25    1    1    2    0    0  0.24003113469E+03  0.49883976347E+02 -0.27343347439E+02  0.27654297201E+03  0.12500000000E+03 0.  0.
         21    1    1    2  503  502 -0.15853499668E+03 -0.48261458534E+01  0.41479657657E+02  0.16394266941E+03  0.00000000000E+00 0.  1.
         21    1    1    2  504  501 -0.81496138014E+02 -0.45057830493E+02  0.51497302737E+01  0.93264936187E+02  0.00000000000E+00 0. -1.
<mgrwt>
<rscale>  4 0.36914134E+03</rscale>
<asrwt>0</asrwt>
<pdfrwt beam="1">  1       21 0.42541278E-01 0.36914134E+03</pdfrwt>
<pdfrwt beam="2">  1       21 0.39574195E-01 0.36914134E+03</pdfrwt>
<totfact> 0.30486762E+04</totfact>
</mgrwt>
</event>
<event>
 5    0  0.3728060E+000  0.4214151E+03  0.7546771E-02  0.1036607E+00
         21   -1    0    0  502  501  0.00000000000E+00  0.00000000000E+00  0.42392059098E+03  0.42392059098E+03  0.00000000000E+00 0.  1.
         21   -1    0    0  504  502 -0.00000000000E+00 -0.00000000000E+00 -0.12963879503E+04  0.12963879503E+04  0.00000000000E+00 0.  1.
         25    1    1    2    0    0 -0.16478235259E+03 -0.13322836790E+03 -0.12327113743E+04  0.12570224159E+04  0.12500000000E+03 0.  0.
         21    1    1    2  503  501  0.16433041481E+03  0.81121774396E+02  0.36751452249E+03  0.41067280377E+03  0.00000000000E+00 0.  1.
         21    1    1    2  504  503  0.45193777762E+00  0.52106593504E+02 -0.72705075365E+01  0.52613321642E+02  0.00000000000E+00 0. -1.
<mgrwt>
<rscale>  4 0.42141511E+03</rscale>
<asrwt>0</asrwt>
<pdfrwt beam="1">  1       21 0.65218553E-01 0.42141511E+03</pdfrwt>
<pdfrwt beam="2">  1       21 0.19944430E+00 0.42141511E+03</pdfrwt>
<totfact> 0.24135226E+02</totfact>
</mgrwt>
</event>
<event>
 5    0  0.1828625E+000  0.4883606E+03  0.7546771E-02  0.1016862E+00
         21   -1    0    0  503  501  0.00000000000E+00  0.00000000000E+00  0.72912410918E+03  0.72912410918E+03  0.00000000000E+00 0.  1.
         21   -1    0    0  504  502 -0.00000000000E+00 -0.00000000000E+00 -0.13512994750E+03  0.13512994750E+03  0.00000000000E+00 0.  1.
         25    1    1    2    0    0 -0.19600940723E+03 -0.10057786514E+03  0.39498654160E+03  0.46922804981E+03  0.12500000000E+03 0.  0.
         21    1    1    2  503  502  0.12120760909E+03 -0.41149475198E+02  0.19678725969E+03  0.23475474306E+03  0.00000000000E+00 0.  1.
         21    1    1    2  504  501  0.74801798131E+02  0.14172734034E+03  0.22203603796E+01  0.16027126381E+03  0.00000000000E+00 0.  1.
<mgrwt>
<rscale>  4 0.48836059E+03</rscale>
<asrwt>0</asrwt>
<pdfrwt beam="1">  1       21 0.11217294E+00 0.48836059E+03</pdfrwt>
<pdfrwt beam="2">  1       21 0.20789223E-01 0.48836059E+03</pdfrwt>
<totfact> 0.11791063E+04</totfact>
</mgrwt>
</event>
<event>
 5    0  0.1828625E+000  0.5450950E+03  0.7546771E-02  0.1002636E+00
         21   -1    0    0  502  501  0.00000000000E+00  0.00000000000E+00  0.17811542068E+03  0.17811542068E+03  0.00000000000E+00 0. -1.
         21   -1    0    0  503  502 -0.00000000000E+00 -0.00000000000E+00 -0.83705994169E+03  0.83705994169E+03  0.00000000000E+00 0.  1.
         25    1    1    2    0    0 -0.20188283995E+03  0.10726520252E+03 -0.50731018105E+03  0.57030792081E+03  0.12500000000E+03 0.  0.
         21    1    1    2  503  504  0.22043946634E+03 -0.13894330435E+03 -0.23681734503E+03  0.35210972019E+03  0.00000000000E+00 0. -1.
         21    1    1    2  504  501 -0.18556626396E+02  0.31678101839E+02  0.85183005072E+02  0.92757721363E+02  0.00000000000E+00 0. -1.
<mgrwt>
<rscale>  4 0.54509497E+03</rscale>
<asrwt>0</asrwt>
<pdfrwt beam="1">  1       21 0.27402373E-01 0.54509497E+03</pdfrwt>
<pdfrwt beam="2">  1       21 0.12877845E+00 0.54509497E+03</pdfrwt>
<totfact> 0.47735627E+03</totfact>
</mgrwt>
</event>
<event>
 5    0  0.2022306E+000  0.4032016E+03  0.7546771E-02  0.1042677E+00
         21   -1    0    0  502  501  0.00000000000E+00  0.00000000000E+00  0.10389953930E+04  0.10389953930E+04  0.00000000000E+00 0. -1.
         21   -1    0    0  504  502 -0.00000000000E+00 -0.00000000000E+00 -0.11801315025E+03  0.11801315025E+03  0.00000000000E+00 0. -1.
         25    1    1    2    0    0 -0.22172833830E+03  0.66244952809E+02  0.83264297674E+02  0.27588003379E+03  0.12500000000E+03 0.  0.
         21    1    1    2  503  501  0.17348177892E+03 -0.11202166551E+03  0.62105313489E+03  0.65448588795E+03  0.00000000000E+00 0. -1.
         21    1    1    2  504  503  0.48246559378E+02  0.45776712704E+02  0.21666481021E+03  0.22664262155E+03  0.00000000000E+00 0.  1.
<mgrwt>
<rscale>  4 0.40320162E+03</rscale>
<asrwt>0</asrwt>
<pdfrwt beam="1">  1       21 0.15984544E+00 0.40320162E+03</pdfrwt>
<pdfrwt beam="2">  1       21 0.18155870E-01 0.40320162E+03</pdfrwt>
<totfact> 0.61897634E+03</totfact>
</mgrwt>
</event>
<event>
 5    0  0.1828625E+000  0.8270188E+03  0.7546771E-02  0.9521711E-01
         21   -1    0    0  502  501  0.00000000000E+00  0.00000000000E+00  0.68692419333E+03  0.68692419333E+03  0.00000000000E+00 0.  1.
         21   -1    0    0  504  502 -0.00000000000E+00 -0.00000000000E+00 -0.13996618831E+04  0.13996618831E+04  0.00000000000E+00 0.  1.
         25    1    1    2    0    0  0.94189740809E+00  0.23986559032E+03 -0.80308220356E+02  0.28215385669E+03  0.12500000000E+03 0.  0.
         21    1    1    2  503  501  0.11949204981E+03  0.63081749625E+02  0.55595630949E+03  0.57214078265E+03  0.00000000000E+00 0.  1.
         21    1    1    2  504  503 -0.12043394722E+03 -0.30294733994E+03 -0.11883857789E+04  0.12322914371E+04  0.00000000000E+00 0.  1.
<mgrwt>
<rscale>  4 0.82701879E+03</rscale>
<asrwt>0</asrwt>
<pdfrwt beam="1">  1       21 0.10568065E+00 0.82701879E+03</pdfrwt>
<pdfrwt beam="2">  1       21 0.21533259E+00 0.82701879E+03</pdfrwt>
<totfact> 0.51469459E+01</totfact>
</mgrwt>
</event>
<event>
 5    0  0.1828625E+000  0.4497554E+03  0.7546771E-02  0.1027795E+00
         21   -1    0    0  503  501  0.00000000000E+00  0.00000000000E+00  0.70512141228E+03  0.70512141228E+03  0.00000000000E+00 0.  1.
         21   -1    0    0  504  502 -0.00000000000E+00 -0.00000000000E+00 -0.16792009976E+03  0.16792009976E+03  0.00000000000E+00 0. -1.
         25    1    1    2    0    0 -0.12915978914E+03 -0.23665125785E+03  0.94049446723E+02  0.31169916169E+03  0.12500000000E+03 0.  0.
         21    1    1    2  503  502  0.11426910279E+03  0.98778471233E+02  0.76439749578E+02  0.16928570391E+03  0.00000000000E+00 0.  1.
         21    1    1    2  504  501  0.14890686352E+02  0.13787278661E+03  0.36671211623E+03  0.39205664644E+03  0.00000000000E+00 0.  1.
<mgrwt>
<rscale>  4 0.44975535E+03</rscale>
<asrwt>0</asrwt>
<pdfrwt beam="1">  1       21 0.10848022E+00 0.44975535E+03</pdfrwt>
<pdfrwt beam="2">  1       21 0.25833862E-01 0.44975535E+03</pdfrwt>
<totfact> 0.85162232E+03</totfact>
</mgrwt>
</event>
<event>
 5    0  0.1828625E+000  0.5858152E+03  0.7546771E-02  0.9935280E-01
         21   -1    0    0  503  501  0.00000000000E+00  0.00000000000E+00  0.15488367604E+03  0.15488367604E+03  0.00000000000E+00 0.  1.
         21   -1    0    0  504  502 -0.00000000000E+00 -0.00000000000E+00 -0.63777609190E+03  0.63777609190E+03  0.00000000000E+00 0. -1.
         25    1    1    2    0    0 -0.79775459109E+02  0.25628417326E+03 -0.32195664780E+03  0.43740917275E+03  0.12500000000E+03 0.  0.
         21    1    1    2  503  502 -0.26993366141E+02  0.24200249094E+01  0.81098765903E+01  0.28289016146E+02  0.00000000000E+00 0.  1.
         21    1    1    2  504  501  0.10676882525E+03 -0.25870419817E+03 -0.16904564465E+03  0.32696157904E+03  0.00000000000E+00 0.  1.
<mgrwt>
<rscale>  4 0.58581515E+03</rscale>
<asrwt>0</asrwt>
<pdfrwt beam="1">  1       21 0.23828258E-01 0.58581515E+03</pdfrwt>
<pdfrwt beam="2">  1       21 0.98119399E-01 0.58581515E+03</pdfrwt>
<totfact> 0.12313963E+04</totfact>
</mgrwt>
</event>
<event>
 5    0  0.1828625E+000  0.7210112E+03  0.7546771E-02  0.9681960E-01
         21   -1    0    0  504  501  0.00000000000E+00  0.00000000000E+00  0.80533343880E+03  0.80533343880E+03  0.00000000000E+00 0.  1.
         21   -1    0    0  501  502 -0.00000000000E+00 -0.00000000000E+00 -0.20881932585E+03  0.20881932585E+03  0.00000000000E+00 0. -1.
         25    1    1    2    0    0  0.16403880689E+03  0.12751431559E+03  0.54512887620E+03  0.59662309922E+03  0.12500000000E+03 0.  0.
         21    1    1    2  503  502 -0.14453354795E+03 -0.13408219875E+03 -0.12924045531E+03  0.23573518574E+03  0.00000000000E+00 0. -1.
         21    1    1    2  504  503 -0.19505258941E+02  0.65678831643E+01  0.18062569206E+03  0.18179447970E+03  0.00000000000E+00 0.  1.
<mgrwt>
<rscale>  4 0.72101119E+03</rscale>
<asrwt>0</asrwt>
<pdfrwt beam="1">  1       21 0.12389745E+00 0.72101119E+03</pdfrwt>
<pdfrwt beam="2">  1       21 0.32126051E-01 0.72101119E+03</pdfrwt>
<totfact> 0.36793579E+03</totfact>
</mgrwt>
</event>
<event>
 5    0  0.1828625E+000  0.4313738E+03  0.7546771E-02  0.1033427E+00
         21   -1    0    0  503  501  0.00000000000E+00  0.00000000000E+00  0.20648133130E+04  0.20648133130E+04  0.00000000000E+00 0.  1.
         21   -1    0    0  504  502 -0.00000000000E+00 -0.00000000000E+00 -0.53895028620E+02  0.53895028620E+02  0.00000000000E+00 0. -1.
         25    1    1    2    0    0 -0.58264957473E+02  0.26798449317E+03  0.71243791368E+03  0.77356530086E+03  0.12500000000E+03 0.  0.
         21    1    1    2  503  502  0.50889969561E+02 -0.14396724502E+03  0.11030336856E+04  0.11135527236E+04  0.00000000000E+00 0.  1.
         21    1    1    2  504  501  0.73749879120E+01 -0.12401724815E+03  0.19544668506E+03  0.23159031712E+03  0.00000000000E+00 0.  1.
<mgrwt>
<rscale>  4 0.43137382E+03</rscale>
<asrwt>0</asrwt>
<pdfrwt beam="1">  1       21 0.31766353E+00 0.43137382E+03</pdfrwt>
<pdfrwt beam="2">  1       21 0.82915444E-02 0.43137382E+03</pdfrwt>
<totfact> 0.25088828E+03</totfact>
</mgrwt>
</event>
<event>
 5    0  0.1828625E+000  0.4187239E+03  0.7546771E-02  0.1037482E+00
         21   -1    0    0  504  501  0.00000000000E+00  0.00000000000E+00  0.41462927776E+03  0.41462927776E+03  0.00000000000E+00 0.  1.
         21   -1    0    0  501  502 -0.00000000000E+00 -0.00000000000E+00 -0.25293886293E+03  0.25293886293E+03  0.00000000000E+00 0. -1.
         25    1    1    2    0    0  0.29273634092E+02 -0.19837766024E+03 -0.12604168941E+03  0.26780991245E+03  0.12500000000E+03 0.  0.
         21    1    1    2  503  502 -0.50930485366E+01  0.14858020390E+03  0.51822708844E+02  0.15744081201E+03  0.00000000000E+00 0.  1.
         21    1    1    2  504  503 -0.24180585556E+02  0.49797456342E+02  0.23590939539E+03  0.24231741624E+03  0.00000000000E+00 0.  1.
<mgrwt>
<rscale>  4 0.41872392E+03</rscale>
<asrwt>0</asrwt>
<pdfrwt beam="1">  1       21 0.63789120E-01 0.41872392E+03</pdfrwt>
<pdfrwt beam="2">  1       21 0.38913671E-01 0.41872392E+03</pdfrwt>
<totfact> 0.13084733E+04</totfact>
</mgrwt>
</event>
<event>
 5    0  0.1828625E+000  0.5347616E+03  0.7546771E-02  0.1005084E+00
         21   -1    0    0  503  501  0.00000000000E+00  0.00000000000E+00  0.68214012006E+02  0.68214012006E+02  0.00000000000E+00 0.  1.
         21   -1    0    0  504  502 -0.00000000000E+00 -0.00000000000E+00 -0.14523455909E+04  0.14523455909E+04  0.00000000000E+00 0.  1.
         25    1    1    2    0    0  0.26240447156E+02 -0.21694273447E+03 -0.42247992871E+03  0.49179975729E+03  0.12500000000E+03 0.  0.
         21    1    1    2  503  502  0.11061861014E+02 -0.22268888324E+02  0.10444221192E+02  0.26969425515E+02  0.00000000000E+00 0.  1.
         21    1    1    2  504  501 -0.37302308171E+02  0.23921162279E+03 -0.97209587141E+03  0.10017904201E+04  0.00000000000E+00 0.  1.
<mgrwt>
<rscale>  4 0.53476159E+03</rscale>
<asrwt>0</asrwt>
<pdfrwt beam="1">  1       21 0.10494463E-01 0.53476159E+03</pdfrwt>
<pdfrwt beam="2">  1       21 0.22343779E+00 0.53476159E+03</pdfrwt>
<totfact> 0.59350362E+03</totfact>
</mgrwt>
</event>
<event>
 5    0  0.1828625E+000  0.4594091E+03  0.7546771E-02  0.1024953E+00
         21   -1    0    0  503  501  0.00000000000E+00  0.00000000000E+00  0.49208297918E+03  0.49208297918E+03  0.00000000000E+00 0.  1.
         21   -1    0    0  504  502 -0.00000000000E+00 -0.00000000000E+00 -0.20615626608E+03  0.20615626608E+03  0.00000000000E+00 0.  1.
         25    1    1    2    0    0 -0.13660909478E+03 -0.15207054176E+03  0.10895789219E+03  0.26321914201E+03  0.12500000000E+03 0.  0.
         21    1    1    2  503  502  0.29971687618E+02 -0.61652866013E+01  0.23390062337E+03  0.23589365068E+03  0.00000000000E+00 0.  1.
         21    1    1    2  504  501  0.10663740716E+03  0.15823582836E+03 -0.56931802464E+02  0.19912645258E+03  0.00000000000E+00 0.  1.
<mgrwt>
<rscale>  4 0.45940911E+03</rscale>
<asrwt>0</asrwt>
<pdfrwt beam="1">  1       21 0.75705073E-01 0.45940911E+03</pdfrwt>
<pdfrwt beam="2">  1       21 0.31716349E-01 0.45940911E+03</pdfrwt>
<totfact> 0.13311502E+04</totfact>
</mgrwt>
</event>
<event>
 5    0  0.1828625E+000  0.5713943E+03  0.7546771E-02  0.9966598E-01
         21   -1    0    0  503  501  0.00000000000E+00  0.00000000000E+00  0.60044317329E+03  0.60044317329E+03  0.00000000000E+00 0.  1.
         21   -1    0    0  504  502 -0.00000000000E+00 -0.00000000000E+00 -0.31515636597E+03  0.31515636597E+03  0.00000000000E+00 0.  1.
         25    1    1    2    0    0 -0.19889438178E+03  0.96047939429E+02  0.94907145748E+02  0.27095488201E+03  0.12500000000E+03 0.  0.
         21    1    1    2  503  502  0.28275481362E+02  0.11503063826E+03  0.32193017874E+03  0.34303147168E+03  0.00000000000E+00 0.  1.
         21    1    1    2  504  501  0.17061890042E+03 -0.21107857769E+03 -0.13155051716E+03  0.30161318556E+03  0.00000000000E+00 0.  1.
<mgrwt>
<rscale>  4 0.57139431E+03</rscale>
<asrwt>0</asrwt>
<pdfrwt beam="1">  1       21 0.92375872E-01 0.57139431E+03</pdfrwt>
<pdfrwt beam="2">  1       21 0.48485595E-01 0.57139431E+03</pdfrwt>
<totfact> 0.33779331E+03</totfact>
</mgrwt>
</event>
<event>
 5    0  0.1828625E+000  0.1023284E+04  0.7546771E-02  0.9283370E-01
         21   -1    0    0  503  501  0.00000000000E+00  0.00000000000E+00  0.22462435637E+03  0.22462435637E+03  0.00000000000E+00 0.  1.
         21   -1    0    0  504  502 -0.00000000000E+00 -0.00000000000E+00 -0.13036580531E+04  0.13036580531E+04  0.00000000000E+00 0.  1.
         25    1    1    2    0    0 -0.42354925452E+02  0.25535642268E+03  0.73076751644E+02  0.29659071790E+03  0.12500000000E+03 0.  0.
         21    1    1    2  503  502  0.12004681617E+01  0.39486257728E+02  0.22433324420E+01  0.39568146452E+02  0.00000000000E+00 0.  1.
         21    1    1    2  504  501  0.41154457290E+02 -0.29484268041E+03 -0.11543537809E+04  0.11921235452E+04  0.00000000000E+00 0.  1.
<mgrwt>
<rscale>  4 0.10232840E+04</rscale>
<asrwt>0</asrwt>
<pdfrwt beam="1">  1       21 0.34557593E-01 0.10232840E+04</pdfrwt>
<pdfrwt beam="2">  1       21 0.20056278E+00 0.10232840E+04</pdfrwt>
<totfact> 0.75721844E+02</totfact>
</mgrwt>
</event>
<event>
 5    0  0.1828625E+000  0.4328534E+03  0.7546771E-02  0.1032962E+00
         21   -1    0    0  504  501  0.00000000000E+00  0.00000000000E+00  0.13228117397E+03  0.13228117397E+03  0.00000000000E+00 0.  1.
         21   -1    0    0  503  502 -0.00000000000E+00 -0.00000000000E+00 -0.62744751328E+03  0.62744751328E+03  0.00000000000E+00 0.  1.
         25    1    1    2    0    0  0.17678029078E+03  0.10486171241E+03 -0.41137202536E+03  0.47654925578E+03  0.12500000000E+03 0.  0.
         21    1    1    2  503  501 -0.15578857055E+03 -0.78711147331E+02 -0.13590317193E+03  0.22121300950E+03  0.00000000000E+00 0.  1.
         21    1    1    2  504  502 -0.20991720223E+02 -0.26150565076E+02  0.52108857985E+02  0.61966421973E+02  0.00000000000E+00 0.  1.
<mgrwt>
<rscale>  4 0.43285337E+03</rscale>
<asrwt>0</asrwt>
<pdfrwt beam="1">  1       21 0.20350950E-01 0.43285337E+03</pdfrwt>
<pdfrwt beam="2">  1       21 0.96530387E-01 0.43285337E+03</pdfrwt>
<totfact> 0.18031872E+04</totfact>
</mgrwt>
</event>
<event>
 5    0  0.1828625E+000  0.4103338E+03  0.7546771E-02  0.1040259E+00
         21   -1    0    0  504  501  0.00000000000E+00  0.00000000000E+00  0.15609394960E+04  0.15609394960E+04  0.00000000000E+00 0. -1.
         21   -1    0    0  503  502 -0.00000000000E+00 -0.00000000000E+00 -0.63466500256E+03  0.63466500256E+03  0.00000000000E+00 0. -1.
         25    1    1    2    0    0 -0.79124822070E+02 -0.24635505174E+03 -0.31049475643E+03  0.42306446643E+03  0.12500000000E+03 0.  0.
         21    1    1    2  503  501  0.62559026598E+02  0.84596753805E+02 -0.25295682883E+03  0.27396605595E+03  0.00000000000E+00 0. -1.
         21    1    1    2  504  502  0.16565795472E+02  0.16175829793E+03  0.14897260787E+04  0.14985739762E+04  0.00000000000E+00 0. -1.
<mgrwt>
<rscale>  4 0.41033384E+03</rscale>
<asrwt>0</asrwt>
<pdfrwt beam="1">  1       21 0.24014454E+00 0.41033384E+03</pdfrwt>
<pdfrwt beam="2">  1       21 0.97640770E-01 0.41033384E+03</pdfrwt>
<totfact> 0.52614161E+01</totfact>
</mgrwt>
</event>
<event>
 5    0  0.1828625E+000  0.5972314E+03  0.7546771E-02  0.9911167E-01
         21   -1    0    0  503  501  0.00000000000E+00  0.00000000000E+00  0.10702215036E+04  0.10702215036E+04  0.00000000000E+00 0. -1.
         21   -1    0    0  504  502 -0.00000000000E+00 -0.00000000000E+00 -0.68913510737E+03  0.68913510737E+03  0.00000000000E+00 0. -1.
         25    1    1    2    0    0  0.25142768665E+03 -0.91696844744E+02 -0.61449703472E+03  0.68180334308E+03  0.12500000000E+03 0.  0.
         21    1    1    2  503  502 -0.13768141696E+03  0.97997803461E+02  0.93178175818E+03  0.94698309750E+03  0.00000000000E+00 0. -1.
         21    1    1    2  504  501 -0.11374626968E+03 -0.63009587168E+01  0.63801672760E+02  0.13057017039E+03  0.00000000000E+00 0.  1.
<mgrwt>
<rscale>  4 0.59723140E+03</rscale>
<asrwt>0</asrwt>
<pdfrwt beam="1">  1       21 0.16464946E+00 0.59723140E+03</pdfrwt>
<pdfrwt beam="2">  1       21 0.10602078E+00 0.59723140E+03</pdfrwt>
<totfact> 0.12524799E+02</totfact>
</mgrwt>
</event>
<event>
 5    0  0.1828625E+000  0.3731289E+03  0.7546771E-02  0.1053503E+00
         21   -1    0    0  502  501  0.00000000000E+00  0.00000000000E+00  0.21483745431E+03  0.21483745431E+03  0.00000000000E+00 0.  1.
         21   -1    0    0  504  502 -0.00000000000E+00 -0.00000000000E+00 -0.11894351726E+04  0.11894351726E+04  0.00000000000E+00 0.  1.
         25    1    1    2    0    0 -0.94807692909E+02  0.21329103335E+03 -0.86727297802E+03  0.90679048404E+03  0.12500000000E+03 0.  0.
         21    1    1    2  503  501  0.84259875040E+02 -0.10780132431E+03  0.15963156137E+03  0.21024530304E+03  0.00000000000E+00 0.  1.
         21    1    1    2  504  503  0.10547817868E+02 -0.10548970904E+03 -0.26695630163E+03  0.28723683983E+03  0.00000000000E+00 0.  1.
<mgrwt>
<rscale>  4 0.37312892E+03</rscale>
<asrwt>0</asrwt>
<pdfrwt beam="1">  1       21 0.33051917E-01 0.37312892E+03</pdfrwt>
<pdfrwt beam="2">  1       21 0.18299002E+00 0.37312892E+03</pdfrwt>
<totfact> 0.13381367E+03</totfact>
</mgrwt>
</event>
<event>
 5    0  0.1828625E+000  0.5693004E+03  0.7546771E-02  0.9971228E-01
         21   -1    0    0  503  501  0.00000000000E+00  0.00000000000E+00  0.71939271202E+02  0.71939271202E+02  0.00000000000E+00 0.  1.
         21   -1    0    0  504  502 -0.00000000000E+00 -0.00000000000E+00 -0.26263988512E+04  0.26263988512E+04  0.00000000000E+00 0. -1.
         25    1    1    2    0    0  0.20200585348E+03  0.44370795002E+02 -0.22350298377E+04  0.22480566068E+04  0.12500000000E+03 0.  0.
         21    1    1    2  503  502 -0.19140291922E+03 -0.23965992793E+02 -0.35726037015E+03  0.40601036733E+03  0.00000000000E+00 0.  1.
         21    1    1    2  504  501 -0.10602934266E+02 -0.20404802210E+02  0.37830627800E+02  0.44271148257E+02  0.00000000000E+00 0.  1.
<mgrwt>
<rscale>  4 0.56930043E+03</rscale>
<asrwt>0</asrwt>
<pdfrwt beam="1">  1       21 0.11067580E-01 0.56930043E+03</pdfrwt>
<pdfrwt beam="2">  1       21 0.40406137E+00 0.56930043E+03</pdfrwt>
<totfact> 0.40296198E+02</totfact>
</mgrwt>
</event>
<event>
 5    0  0.1828625E+000  0.5653300E+03  0.7546771E-02  0.9980066E-01
         21   -1    0    0  503  501  0.00000000000E+00  0.00000000000E+00  0.11453110126E+03  0.11453110126E+03  0.00000000000E+00 0.  1.
         21   -1    0    0  504  502 -0.00000000000E+00 -0.00000000000E+00 -0.12210433530E+04  0.12210433530E+04  0.00000000000E+00 0.  1.
         25    1    1    2    0    0 -0.20213083789E+02  0.25996078103E+03 -0.40968400156E+03  0.50145204912E+03  0.12500000000E+03 0.  0.
         21    1    1    2  503  502 -0.38175708240E+02 -0.24495215832E+03 -0.72599146920E+03  0.76715223908E+03  0.00000000000E+00 0.  1.
         21    1    1    2  504  501  0.58388792028E+02 -0.15008622714E+02  0.29163219072E+02  0.66970166022E+02  0.00000000000E+00 0.  1.
<mgrwt>
<rscale>  4 0.56533005E+03</rscale>
<asrwt>0</asrwt>
<pdfrwt beam="1">  1       21 0.17620171E-01 0.56533005E+03</pdfrwt>
<pdfrwt beam="2">  1       21 0.18785281E+00 0.56533005E+03</pdfrwt>
<totfact> 0.38894130E+03</totfact>
</mgrwt>
</event>
<event>
 5    0  0.1828625E+000  0.7862776E+03  0.7546771E-02  0.9580095E-01
         21   -1    0    0  504  501  0.00000000000E+00  0.00000000000E+00  0.85501815428E+03  0.85501815428E+03  0.00000000000E+00 0.  1.
         21   -1    0    0  503  502 -0.00000000000E+00 -0.00000000000E+00 -0.23603229798E+03  0.23603229798E+03  0.00000000000E+00 0.  1.
         25    1    1    2    0    0  0.16324570927E+03  0.17472453446E+03  0.53994259913E+03  0.60360652323E+03  0.12500000000E+03 0.  0.
         21    1    1    2  503  501 -0.18242618880E+03 -0.18972754632E+03 -0.11832654402E+03  0.28857759305E+03  0.00000000000E+00 0.  1.
         21    1    1    2  504  502  0.19180479536E+02  0.15003011863E+02  0.19736980120E+03  0.19886633597E+03  0.00000000000E+00 0.  1.
<mgrwt>
<rscale>  4 0.78627756E+03</rscale>
<asrwt>0</asrwt>
<pdfrwt beam="1">  1       21 0.13154125E+00 0.78627756E+03</pdfrwt>
<pdfrwt beam="2">  1       21 0.36312662E-01 0.78627756E+03</pdfrwt>
<totfact> 0.24164254E+03</totfact>
</mgrwt>
</event>
<event>
 5    0  0.1828625E+000  0.3182093E+03  0.7546771E-02  0.1076476E+00
         21   -1    0    0  503  501  0.00000000000E+00  0.00000000000E+00  0.40899014540E+03  0.40899014540E+03  0.00000000000E+00 0. -1.
         21   -1    0    0  504  502 -0.00000000000E+00 -0.00000000000E+00 -0.19285912626E+03  0.19285912626E+03  0.00000000000E+00 0.  1.
         25    1    1    2    0    0 -0.20653177848E+03 -0.28475200119E+02  0.98577782851E+01  0.24328663822E+03  0.12500000000E+03 0.  0.
         21    1    1    2  503  502  0.14612138469E+03 -0.72312322948E+00  0.24188906584E+03  0.28259918992E+03  0.00000000000E+00 0. -1.
         21    1    1    2  504  501  0.60410393785E+02  0.29198323348E+02 -0.35615824983E+02  0.75963443530E+02  0.00000000000E+00 0. -1.
<mgrwt>
<rscale>  4 0.31820927E+03</rscale>
<asrwt>0</asrwt>
<pdfrwt beam="1">  1       21 0.62921560E-01 0.31820927E+03</pdfrwt>
<pdfrwt beam="2">  1       21 0.29670635E-01 0.31820927E+03</pdfrwt>
<totfact> 0.24031720E+04</totfact>
</mgrwt>
</event>
<event>
 5    0  0.1828625E+000  0.8019732E+03  0.7546771E-02  0.9557165E-01
         21   -1    0    0  504  501  0.00000000000E+00  0.00000000000E+00  0.36721877577E+03  0.36721877577E+03  0.00000000000E+00 0.  1.
         21   -1    0    0  503  502 -0.00000000000E+00 -0.00000000000E+00 -0.97137176484E+03  0.97137176484E+03  0.00000000000E+00 0. -1.
         25    1    1    2    0    0  0.33329345429E+03  0.50432930546E+02 -0.17093679902E+03  0.39808591587E+03  0.12500000000E+03 0.  0.
         21    1    1    2  503  501 -0.36076677218E+03 -0.11997850347E+03 -0.62673719240E+03  0.73303957161E+03  0.00000000000E+00 0. -1.
         21    1    1    2  504  502  0.27473317893E+02  0.69545572927E+02  0.19352100236E+03  0.20746505311E+03  0.00000000000E+00 0.  1.
<mgrwt>
<rscale>  4 0.80197324E+03</rscale>
<asrwt>0</asrwt>
<pdfrwt beam="1">  1       21 0.56495197E-01 0.80197324E+03</pdfrwt>
<pdfrwt beam="2">  1       21 0.14944181E+00 0.80197324E+03</pdfrwt>
<totfact> 0.66723609E+02</totfact>
</mgrwt>
</event>
<event>
 5    0  0.1828625E+000  0.6357215E+03  0.7546771E-02  0.9833947E-01
         21   -1    0    0  502  501  0.00000000000E+00  0.00000000000E+00  0.19945393074E+03  0.19945393074E+03  0.00000000000E+00 0.  1.
         21   -1    0    0  504  502 -0.00000000000E+00 -0.00000000000E+00 -0.23795989803E+04  0.23795989803E+04  0.00000000000E+00 0. -1.
         25    1    1    2    0    0 -0.26259026399E+03 -0.24050339181E+02 -0.19469977526E+04  0.19687451116E+04  0.12500000000E+03 0.  0.
         21    1    1    2  503  501  0.33076281725E+02  0.31808636263E+01  0.15520488281E+03  0.15872212812E+03  0.00000000000E+00 0.  1.
         21    1    1    2  504  503  0.22951398226E+03  0.20869475554E+02 -0.38835217976E+03  0.45158567137E+03  0.00000000000E+00 0.  1.
<mgrwt>
<rscale>  4 0.63572147E+03</rscale>
<asrwt>0</asrwt>
<pdfrwt beam="1">  1       21 0.30685220E-01 0.63572147E+03</pdfrwt>
<pdfrwt beam="2">  1       21 0.36609215E+00 0.63572147E+03</pdfrwt>
<totfact> 0.97878560E+01</totfact>
</mgrwt>
</event>
<event>
 5    0  0.1828625E+000  0.7298041E+03  0.7546771E-02  0.9667578E-01
         21   -1    0    0  502  501  0.00000000000E+00  0.00000000000E+00  0.12780752725E+03  0.12780752725E+03  0.00000000000E+00 0.  1.
         21   -1    0    0  504  502 -0.00000000000E+00 -0.00000000000E+00 -0.11747228032E+04  0.11747228032E+04  0.00000000000E+00 0.  1.
         25    1    1    2    0    0  0.19347143201E+03 -0.27834650138E+03 -0.49940585708E+03  0.61639206672E+03  0.12500000000E+03 0.  0.
         21    1    1    2  503  501  0.32345453229E+01 -0.33065608037E+02 -0.10302292117E+02  0.34784104720E+02  0.00000000000E+00 0.  1.
         21    1    1    2  504  503 -0.19670597733E+03  0.31141210942E+03 -0.53720712677E+03  0.65135415901E+03  0.00000000000E+00 0.  1.
<mgrwt>
<rscale>  4 0.72980409E+03</rscale>
<asrwt>0</asrwt>
<pdfrwt beam="1">  1       21 0.19662696E-01 0.72980409E+03</pdfrwt>
<pdfrwt beam="2">  1       21 0.18072659E+00 0.72980409E+03</pdfrwt>
<totfact> 0.33926274E+03</totfact>
</mgrwt>
</event>
<event>
 5    0  0.1828625E+000  0.7087706E+03  0.7546771E-02  0.9702350E-01
         21   -1    0    0  504  501  0.00000000000E+00  0.00000000000E+00  0.88899671238E+03  0.88899671238E+03  0.00000000000E+00 0.  1.
         21   -1    0    0  501  502 -0.00000000000E+00 -0.00000000000E+00 -0.18761022591E+03  0.18761022591E+03  0.00000000000E+00 0. -1.
         25    1    1    2    0    0  0.32097915347E+03 -0.14184159293E+03  0.32684719257E+03  0.49558121609E+03  0.12500000000E+03 0.  0.
         21    1    1    2  503  502 -0.25215177439E+03  0.22110222202E+03  0.25086738133E+03  0.41880920826E+03  0.00000000000E+00 0. -1.
         21    1    1    2  504  503 -0.68827379086E+02 -0.79260629093E+02  0.12367191257E+03  0.16221651394E+03  0.00000000000E+00 0.  1.
<mgrwt>
<rscale>  4 0.70877057E+03</rscale>
<asrwt>0</asrwt>
<pdfrwt beam="1">  1       21 0.13676872E+00 0.70877057E+03</pdfrwt>
<pdfrwt beam="2">  1       21 0.28863112E-01 0.70877057E+03</pdfrwt>
<totfact> 0.35273068E+03</totfact>
</mgrwt>
</event>
<event>
 5    0  0.1828625E+000  0.3530113E+03  0.7546771E-02  0.1061386E+00
         21   -1    0    0  504  501  0.00000000000E+00  0.00000000000E+00  0.13334083267E+03  0.13334083267E+03  0.00000000000E+00 0.  1.
         21   -1    0    0  503  502 -0.00000000000E+00 -0.00000000000E+00 -0.64199344606E+03  0.64199344606E+03  0.00000000000E+00 0.  1.
         25    1    1    2    0    0  0.21616587761E+03  0.84228605289E+02 -0.38439519243E+03  0.46605451242E+03  0.12500000000E+03 0.  0.
         21    1    1    2  503  501 -0.28783984591E+02 -0.80614942023E+02 -0.78984389243E+02  0.11647240184E+03  0.00000000000E+00 0. -1.
         21    1    1    2  504  502 -0.18738189301E+03 -0.36136632658E+01 -0.45273031723E+02  0.19280736447E+03  0.00000000000E+00 0.  1.
<mgrwt>
<rscale>  4 0.35301129E+03</rscale>
<asrwt>0</asrwt>
<pdfrwt beam="1">  1       21 0.20513974E-01 0.35301129E+03</pdfrwt>
<pdfrwt beam="2">  1       21 0.98768223E-01 0.35301129E+03</pdfrwt>
<totfact> 0.17240023E+04</totfact>
</mgrwt>
</event>
<event>
 5    0  0.1828625E+000  0.3772465E+03  0.7546771E-02  0.1051956E+00
         21   -1    0    0  503  501  0.00000000000E+00  0.00000000000E+00  0.44967093830E+03  0.44967093830E+03  0.00000000000E+00 0.  1.
         21   -1    0    0  504  502 -0.00000000000E+00 -0.00000000000E+00 -0.23617010107E+03  0.23617010107E+03  0.00000000000E+00 0. -1.
         25    1    1    2    0    0  0.21000849961E+03  0.83725791679E+01 -0.68017791709E+02  0.25382098018E+03  0.12500000000E+03 0.  0.
         21    1    1    2  503  502 -0.81020104254E+02 -0.29077701469E+02  0.28862439992E+03  0.30118734078E+03  0.00000000000E+00 0.  1.
         21    1    1    2  504  501 -0.12898839535E+03  0.20705122301E+02 -0.71057709806E+01  0.13083271841E+03  0.00000000000E+00 0. -1.
<mgrwt>
<rscale>  4 0.37724650E+03</rscale>
<asrwt>0</asrwt>
<pdfrwt beam="1">  1       21 0.69180144E-01 0.37724650E+03</pdfrwt>
<pdfrwt beam="2">  1       21 0.36333862E-01 0.37724650E+03</pdfrwt>
<totfact> 0.12731054E+04</totfact>
</mgrwt>
</event>
<event>
 5    0  0.1828625E+000  0.4187175E+03  0.7546771E-02  0.1037485E+00
         21   -1    0    0  502  501  0.00000000000E+00  0.00000000000E+00  0.44712316198E+03  0.44712316198E+03  0.00000000000E+00 0.  1.
         21   -1    0    0  504  502 -0.00000000000E+00 -0.00000000000E+00 -0.33063761295E+03  0.33063761295E+03  0.00000000000E+00 0.  1.
         25    1    1    2    0    0 -0.13720228959E+03  0.21307234263E+03 -0.21133740875E+03  0.35286370145E+03  0.12500000000E+03 0.  0.
         21    1    1    2  503  501  0.90785109824E+02 -0.14150084793E+03  0.28135185118E+03  0.32775492413E+03  0.00000000000E+00 0.  1.
         21    1    1    2  504  503  0.46417179763E+02 -0.71571494700E+02  0.46471106613E+02  0.97142149351E+02  0.00000000000E+00 0. -1.
<mgrwt>
<rscale>  4 0.41871753E+03</rscale>
<asrwt>0</asrwt>
<pdfrwt beam="1">  1       21 0.68788179E-01 0.41871753E+03</pdfrwt>
<pdfrwt beam="2">  1       21 0.50867325E-01 0.41871753E+03</pdfrwt>
<totfact> 0.63218744E+03</totfact>
</mgrwt>
</event>
<event>
 5    0  0.1828625E+000  0.5764838E+03  0.7546771E-02  0.9955433E-01
         21   -1    0    0  502  501  0.00000000000E+00  0.00000000000E+00  0.80571957560E+02  0.80571957560E+02  0.00000000000E+00 0. -1.
         21   -1    0    0  503  502 -0.00000000000E+00 -0.00000000000E+00 -0.14361284453E+04  0.14361284453E+04  0.00000000000E+00 0. -1.
         25    1    1    2    0    0 -0.13448680104E+03  0.23349258415E+03 -0.92138289490E+03  0.96807898723E+03  0.12500000000E+03 0.  0.
         21    1    1    2  503  504  0.14790038462E+03 -0.21345112831E+03 -0.45015698945E+03  0.51968954492E+03  0.00000000000E+00 0. -1.
         21    1    1    2  504  501 -0.13413583576E+02 -0.20041455847E+02  0.15983396597E+02  0.28931870724E+02  0.00000000000E+00 0. -1.
<mgrwt>
<rscale>  4 0.57648378E+03</rscale>
<asrwt>0</asrwt>
<pdfrwt beam="1">  1       21 0.12395687E-01 0.57648378E+03</pdfrwt>
<pdfrwt beam="2">  1       21 0.22094282E+00 0.57648378E+03</pdfrwt>
<totfact> 0.44854405E+03</totfact>
</mgrwt>
</event>
<event>
 5    0  0.1828625E+000  0.9633626E+03  0.7546771E-02  0.9349667E-01
         21   -1    0    0  502  501  0.00000000000E+00  0.00000000000E+00  0.12762864405E+04  0.12762864405E+04  0.00000000000E+00 0.  1.
         21   -1    0    0  504  502 -0.00000000000E+00 -0.00000000000E+00 -0.30585437310E+03  0.30585437310E+03  0.00000000000E+00 0. -1.
         25    1    1    2    0    0 -0.26391087728E+03 -0.29041784041E+03  0.62929287215E+03  0.75208110740E+03  0.12500000000E+03 0.  0.
         21    1    1    2  503  501  0.76398918241E+02  0.80000408138E+02  0.49619687549E+03  0.50837800824E+03  0.00000000000E+00 0.  1.
         21    1    1    2  504  503  0.18751195904E+03  0.21041743227E+03 -0.15505768026E+03  0.32168169794E+03  0.00000000000E+00 0. -1.
<mgrwt>
<rscale>  4 0.96336262E+03</rscale>
<asrwt>0</asrwt>
<pdfrwt beam="1">  1       21 0.19635176E+00 0.96336262E+03</pdfrwt>
<pdfrwt beam="2">  1       21 0.47054520E-01 0.96336262E+03</pdfrwt>
<totfact> 0.42917688E+02</totfact>
</mgrwt>
</event>
<event>
 5    0  0.1828625E+000  0.6701137E+03  0.7546771E-02  0.9769752E-01
         21   -1    0    0  502  501  0.00000000000E+00  0.00000000000E+00  0.14284215253E+04  0.14284215253E+04  0.00000000000E+00 0.  1.
         21   -1    0    0  503  502 -0.00000000000E+00 -0.00000000000E+00 -0.24711774806E+03  0.24711774806E+03  0.00000000000E+00 0.  1.
         25    1    1    2    0    0 -0.22351888122E+03  0.14099561271E+03  0.25133624353E+03  0.38553256721E+03  0.12500000000E+03 0.  0.
         21    1    1    2  503  504  0.29204278503E+03 -0.11660249049E+03 -0.40286450916E+02  0.31703016765E+03  0.00000000000E+00 0.  1.
         21    1    1    2  504  501 -0.68523903800E+02 -0.24393122218E+02  0.97025398464E+03  0.97297653852E+03  0.00000000000E+00 0.  1.
<mgrwt>
<rscale>  4 0.67011371E+03</rscale>
<asrwt>0</asrwt>
<pdfrwt beam="1">  1       21 0.21975715E+00 0.67011371E+03</pdfrwt>
<pdfrwt beam="2">  1       21 0.38018116E-01 0.67011371E+03</pdfrwt>
<totfact> 0.50560686E+02</totfact>
</mgrwt>
</event>
<event>
 5    0  0.1828625E+000  0.6262643E+03  0.7546771E-02  0.9852366E-01
         21   -1    0    0  503  501  0.00000000000E+00  0.00000000000E+00  0.87013842873E+03  0.87013842873E+03  0.00000000000E+00 0. -1.
         21   -1    0    0  504  502 -0.00000000000E+00 -0.00000000000E+00 -0.15404227444E+03  0.15404227444E+03  0.00000000000E+00 0. -1.
         25    1    1    2    0    0 -0.21070442123E+03 -0.14297843800E+03  0.48147513192E+03  0.55882241322E+03  0.12500000000E+03 0.  0.
         21    1    1    2  503  502  0.18335402200E+03  0.14583142277E+03  0.52403177088E+01  0.23433514927E+03  0.00000000000E+00 0. -1.
         21    1    1    2  504  501  0.27350399230E+02 -0.28529847737E+01  0.22938070466E+03  0.23102314068E+03  0.00000000000E+00 0. -1.
<mgrwt>
<rscale>  4 0.62626431E+03</rscale>
<asrwt>0</asrwt>
<pdfrwt beam="1">  1       21 0.13386745E+00 0.62626431E+03</pdfrwt>
<pdfrwt beam="2">  1       21 0.23698812E-01 0.62626431E+03</pdfrwt>
<totfact> 0.56130312E+03</totfact>
</mgrwt>
</event>
<event>
 5    0  0.1828625E+000  0.5052638E+03  0.7546771E-02  0.1012414E+00
         21   -1    0    0  503  501  0.00000000000E+00  0.00000000000E+00  0.71508323808E+03  0.71508323808E+03  0.00000000000E+00 0.  1.
         21   -1    0    0  504  502 -0.00000000000E+00 -0.00000000000E+00 -0.28903170380E+03  0.28903170380E+03  0.00000000000E+00 0.  1.
         25    1    1    2    0    0 -0.29320653313E+03  0.91074957554E+02  0.18004428174E+03  0.37723422743E+03  0.12500000000E+03 0.  0.
         21    1    1    2  503  502 -0.11782475423E+02  0.17285081433E+03  0.75727485151E+02  0.18907903836E+03  0.00000000000E+00 0. -1.
         21    1    1    2  504  501  0.30498900855E+03 -0.26392577188E+03  0.17027976739E+03  0.43780167608E+03  0.00000000000E+00 0.  1.
<mgrwt>
<rscale>  4 0.50526381E+03</rscale>
<asrwt>0</asrwt>
<pdfrwt beam="1">  1       21 0.11001281E+00 0.50526381E+03</pdfrwt>
<pdfrwt beam="2">  1       21 0.44466416E-01 0.50526381E+03</pdfrwt>
<totfact> 0.26971992E+03</totfact>
</mgrwt>
</event>
<event>
 5    0  0.1828625E+000  0.5392417E+03  0.7546771E-02  0.1004015E+00
         21   -1    0    0  504  501  0.00000000000E+00  0.00000000000E+00  0.43717871686E+03  0.43717871686E+03  0.00000000000E+00 0.  1.
         21   -1    0    0  503  502 -0.00000000000E+00 -0.00000000000E+00 -0.27995359275E+03  0.27995359275E+03  0.00000000000E+00 0. -1.
         25    1    1    2    0    0  0.25022521030E+03  0.25847930627E+02 -0.10274872241E+03  0.29910378022E+03  0.12500000000E+03 0.  0.
         21    1    1    2  503  501 -0.22213743351E+03 -0.35481511873E+02  0.84879237929E+02  0.24043390377E+03  0.00000000000E+00 0.  1.
         21    1    1    2  504  502 -0.28087776790E+02  0.96335812461E+01  0.17509460859E+03  0.17759462562E+03  0.00000000000E+00 0.  1.
<mgrwt>
<rscale>  4 0.53924168E+03</rscale>
<asrwt>0</asrwt>
<pdfrwt beam="1">  1       21 0.67258264E-01 0.53924168E+03</pdfrwt>
<pdfrwt beam="2">  1       21 0.43069784E-01 0.53924168E+03</pdfrwt>
<totfact> 0.91214037E+03</totfact>
</mgrwt>
</event>
<event>
 5    0  0.1828625E+000  0.6027990E+03  0.7546771E-02  0.9899616E-01
         21   -1    0    0  503  501  0.00000000000E+00  0.00000000000E+00  0.15889532202E+04  0.15889532202E+04  0.00000000000E+00 0.  1.
         21   -1    0    0  504  502 -0.00000000000E+00 -0.00000000000E+00 -0.97151378375E+02  0.97151378375E+02  0.00000000000E+00 0. -1.
         25    1    1    2    0    0  0.23839237077E+03  0.47337068473E+02  0.15775063798E+03  0.31556613297E+03  0.12500000000E+03 0.  0.
         21    1    1    2  503  502 -0.25645682188E+02  0.21835886676E+02  0.64924324677E+03  0.65011637454E+03  0.00000000000E+00 0.  1.
         21    1    1    2  504  501 -0.21274668859E+03 -0.69172955149E+02  0.68480795708E+03  0.72042209108E+03  0.00000000000E+00 0.  1.
<mgrwt>
<rscale>  4 0.60279898E+03</rscale>
<asrwt>0</asrwt>
<pdfrwt beam="1">  1       21 0.24445432E+00 0.60279898E+03</pdfrwt>
<pdfrwt beam="2">  1       21 0.14946367E-01 0.60279898E+03</pdfrwt>
<totfact> 0.22309367E+03</totfact>
</mgrwt>
</event>
<event>
 5    0  0.1828625E+000  0.3793884E+03  0.7546771E-02  0.1051160E+00
         21   -1    0    0  502  501  0.00000000000E+00  0.00000000000E+00  0.78648517178E+03  0.78648517178E+03  0.00000000000E+00 0. -1.
         21   -1    0    0  503  502 -0.00000000000E+00 -0.00000000000E+00 -0.21573882576E+03  0.21573882576E+03  0.00000000000E+00 0.  1.
         25    1    1    2    0    0  0.21845014659E+03 -0.43111704301E+02 -0.37442986484E+02  0.25808150424E+03  0.12500000000E+03 0.  0.
         21    1    1    2  503  504 -0.11793611936E+03  0.36685099080E+02 -0.41455195659E+01  0.12357956982E+03  0.00000000000E+00 0.  1.
         21    1    1    2  504  501 -0.10051402723E+03  0.64266052211E+01  0.61233485207E+03  0.62056292347E+03  0.00000000000E+00 0. -1.
<mgrwt>
<rscale>  4 0.37938842E+03</rscale>
<asrwt>0</asrwt>
<pdfrwt beam="1">  1       21 0.12099772E+00 0.37938842E+03</pdfrwt>
<pdfrwt beam="2">  1       21 0.33190589E-01 0.37938842E+03</pdfrwt>
<totfact> 0.40510763E+03</totfact>
</mgrwt>
</event>
<event>
 5    0  0.1828625E+000  0.5187484E+03  0.7546771E-02  0.1008998E+00
         21   -1    0    0  503  501  0.00000000000E+00  0.00000000000E+00  0.11435849696E+03  0.11435849696E+03  0.00000000000E+00 0.  1.
         21   -1    0    0  504  502 -0.00000000000E+00 -0.00000000000E+00 -0.15423197912E+04  0.15423197912E+04  0.00000000000E+00 0.  1.
         25    1    1    2    0    0 -0.21625457049E+03 -0.44028317371E+02 -0.40338110813E+03  0.47649328472E+03  0.12500000000E+03 0.  0.
         21    1    1    2  503  502  0.48309206099E+02 -0.17991118687E+02  0.61043388085E+02  0.79898404079E+02  0.00000000000E+00 0.  1.
         21    1    1    2  504  501  0.16794536439E+03  0.62019436059E+02 -0.10856235742E+04  0.11002865994E+04  0.00000000000E+00 0.  1.
<mgrwt>
<rscale>  4 0.51874836E+03</rscale>
<asrwt>0</asrwt>
<pdfrwt beam="1">  1       21 0.17593615E-01 0.51874836E+03</pdfrwt>
<pdfrwt beam="2">  1       21 0.23727996E+00 0.51874836E+03</pdfrwt>
<totfact> 0.18785546E+03</totfact>
</mgrwt>
</event>
