<event>
 5    0  0.1856407E+000  0.3693819E+03  0.7546771E-02  0.1054930E+00
         21   -1    0    0  502  501  0.00000000000E+00  0.00000000000E+00  0.56939814517E+03  0.56939814517E+03  0.00000000000E+00 0. -1.
         21   -1    0    0  503  502 -0.00000000000E+00 -0.00000000000E+00 -0.97963010212E+03  0.97963010212E+03  0.00000000000E+00 0.  1.
         25    1    1    2    0    0  0.92939224740E+02 -0.33493323333E+03  0.46975436376E+03  0.59758859808E+03  0.12500000000E+03 0.  0.
         21    1    1    2  503  504 -0.98059618342E+02  0.29853930301E+03 -0.84134895535E+03  0.89811439631E+03  0.00000000000E+00 0.  1.
         21    1    1    2  504  501  0.51203936026E+01  0.36393930328E+02 -0.38637365347E+02  0.53325252895E+02  0.00000000000E+00 0. -1.
<mgrwt>
<rscale>  4 0.36938188E+03</rscale>
<asrwt>0</asrwt>
<pdfrwt beam="1">  1       21 0.87599715E-01 0.36938188E+03</pdfrwt>
<pdfrwt beam="2">  1       21 0.15071232E+00 0.36938188E+03</pdfrwt>
<totfact> 0.28366560E+02</totfact>
</mgrwt>
</event>
<event>
 5    0  0.1856407E+000  0.3198135E+03  0.7546771E-02  0.1076106E+00
         21   -1    0    0  502  501  0.00000000000E+00  0.00000000000E+00  0.76205187563E+03  0.76205187563E+03  0.00000000000E+00 0.  1.
         21   -1    0    0  503  502 -0.00000000000E+00 -0.00000000000E+00 -0.30594685579E+03  0.30594685579E+03  0.00000000000E+00 0.  1.
         25    1    1    2    0    0  0.27727563364E+03 -0.87935811580E+02  0.62918582082E+03  0.70435380392E+03  0.12500000000E+03 0.  0.
         21    1    1    2  503  504 -0.12334739881E+03  0.44371530553E+02 -0.15446634846E+03  0.20259137771E+03  0.00000000000E+00 0.  1.
         21    1    1    2  504  501 -0.15392823483E+03  0.43564281027E+02 -0.18614452523E+02  0.16105354979E+03  0.00000000000E+00 0.  1.
<mgrwt>
<rscale>  4 0.31900863E+03</rscale>
<asrwt>0</asrwt>
<pdfrwt beam="1">  1       21 0.11723875E+00 0.31981349E+03</pdfrwt>
<pdfrwt beam="2">  1       21 0.47068747E-01 0.31981349E+03</pdfrwt>
<totfact> 0.22082296E+03</totfact>
</mgrwt>
</event>
<event>
 5    0  0.1856407E+000  0.2411616E+03  0.7546771E-02  0.1119021E+00
         21   -1    0    0  502  501  0.00000000000E+00  0.00000000000E+00  0.46065025890E+03  0.46065025890E+03  0.00000000000E+00 0.  1.
         21   -1    0    0  503  502 -0.00000000000E+00 -0.00000000000E+00 -0.36298591415E+03  0.36298591415E+03  0.00000000000E+00 0.  1.
         25    1    1    2    0    0  0.13310248715E+03 -0.15959670159E+03  0.38939612767E+03  0.45873927616E+03  0.12500000000E+03 0.  0.
         21    1    1    2  503  504 -0.13613176740E+03  0.13671904714E+03 -0.27681820267E+03  0.33742002500E+03  0.00000000000E+00 0.  1.
         21    1    1    2  504  501  0.30292802554E+01  0.22877654458E+02 -0.14913580258E+02  0.27476871883E+02  0.00000000000E+00 0. -1.
<mgrwt>
<rscale>  4 0.24116156E+03</rscale>
<asrwt>0</asrwt>
<pdfrwt beam="1">  1       21 0.70869270E-01 0.24116156E+03</pdfrwt>
<pdfrwt beam="2">  1       21 0.55843987E-01 0.24116156E+03</pdfrwt>
<totfact> 0.52610667E+03</totfact>
</mgrwt>
</event>
<event>
 5    0  0.2022857E+000  0.2395056E+03  0.7546771E-02  0.1120123E+00
         21   -1    0    0  502  501  0.00000000000E+00  0.00000000000E+00  0.71034985520E+03  0.71034985520E+03  0.00000000000E+00 0.  1.
         21   -1    0    0  503  502 -0.00000000000E+00 -0.00000000000E+00 -0.16984775370E+03  0.16984775370E+03  0.00000000000E+00 0. -1.
         25    1    1    2    0    0  0.26904828933E+02  0.20251923956E+03  0.61352827782E+03  0.65861966255E+03  0.12500000000E+03 0.  0.
         21    1    1    2  503  504 -0.27327201996E+02 -0.18129857702E+03 -0.49538764647E+02  0.18992113942E+03  0.00000000000E+00 0. -1.
         21    1    1    2  504  501  0.42237306326E+00 -0.21220662548E+02 -0.23487411667E+02  0.31656806927E+02  0.00000000000E+00 0. -1.
<mgrwt>
<rscale>  4 0.23950556E+03</rscale>
<asrwt>0</asrwt>
<pdfrwt beam="1">  1       21 0.10928459E+00 0.23950556E+03</pdfrwt>
<pdfrwt beam="2">  1       21 0.26130424E-01 0.23950556E+03</pdfrwt>
<totfact> 0.89479211E+03</totfact>
</mgrwt>
</event>
<event>
 5    0  0.1856407E+000  0.2855198E+03  0.7546771E-02  0.1092712E+00
         21   -1    0    0  502  501  0.00000000000E+00  0.00000000000E+00  0.67665198229E+03  0.67665198229E+03  0.00000000000E+00 0.  1.
         21   -1    0    0  503  502 -0.00000000000E+00 -0.00000000000E+00 -0.35745316148E+03  0.35745316148E+03  0.00000000000E+00 0.  1.
         25    1    1    2    0    0  0.23667683798E+03  0.99401481930E+02  0.58843537324E+03  0.65404722209E+03  0.12500000000E+03 0.  0.
         21    1    1    2  503  504 -0.18726541044E+03 -0.10483659176E+03 -0.24170228224E+03  0.32323217377E+03  0.00000000000E+00 0.  1.
         21    1    1    2  504  501 -0.49411427540E+02  0.54351098315E+01 -0.27534270193E+02  0.56825747910E+02  0.00000000000E+00 0.  1.
<mgrwt>
<rscale>  4 0.28551984E+03</rscale>
<asrwt>0</asrwt>
<pdfrwt beam="1">  1       21 0.10410031E+00 0.28551984E+03</pdfrwt>
<pdfrwt beam="2">  1       21 0.54992794E-01 0.28551984E+03</pdfrwt>
<totfact> 0.21704261E+03</totfact>
</mgrwt>
</event>
<event>
 5    0  0.6513956E+000  0.3209206E+03  0.7546771E-02  0.1075226E+00
         21   -1    0    0  502  501  0.00000000000E+00  0.00000000000E+00  0.43876317468E+03  0.43876317468E+03  0.00000000000E+00 0.  1.
         21   -1    0    0  503  502 -0.00000000000E+00 -0.00000000000E+00 -0.29609195782E+03  0.29609195782E+03  0.00000000000E+00 0.  1.
         25    1    1    2    0    0  0.26013720208E+03 -0.15939518113E+03  0.22504709906E+03  0.39918590214E+03  0.12500000000E+03 0.  0.
         21    1    1    2  503  504 -0.19555582221E+02  0.19279649262E+02 -0.47792038795E+02  0.55119911501E+02  0.00000000000E+00 0.  1.
         21    1    1    2  504  501 -0.24058161986E+03  0.14011553186E+03 -0.34583843401E+02  0.28054931885E+03  0.00000000000E+00 0.  1.
<mgrwt>
<rscale>  4 0.32092062E+03</rscale>
<asrwt>0</asrwt>
<pdfrwt beam="1">  1       21 0.67502027E-01 0.32092062E+03</pdfrwt>
<pdfrwt beam="2">  1       21 0.45552609E-01 0.32092062E+03</pdfrwt>
<totfact> 0.86364893E+03</totfact>
</mgrwt>
</event>
<event>
 5    0  0.1856407E+000  0.2921614E+03  0.7546771E-02  0.1089226E+00
         21   -1    0    0  502  501  0.00000000000E+00  0.00000000000E+00  0.51180324843E+03  0.51180324843E+03  0.00000000000E+00 0.  1.
         21   -1    0    0  503  502 -0.00000000000E+00 -0.00000000000E+00 -0.65462127700E+03  0.65462127700E+03  0.00000000000E+00 0. -1.
         25    1    1    2    0    0 -0.23714777646E+03  0.11616460014E+03  0.43402443296E+03  0.52319737252E+03  0.12500000000E+03 0.  0.
         21    1    1    2  503  504  0.12988088094E+03 -0.87402515393E+02 -0.43981898306E+03  0.46685006243E+03  0.00000000000E+00 0. -1.
         21    1    1    2  504  501  0.10726689553E+03 -0.28762084743E+02 -0.13702347848E+03  0.17637709049E+03  0.00000000000E+00 0. -1.
<mgrwt>
<rscale>  4 0.29216140E+03</rscale>
<asrwt>0</asrwt>
<pdfrwt beam="1">  1       21 0.78738961E-01 0.29216140E+03</pdfrwt>
<pdfrwt beam="2">  1       21 0.10071097E+00 0.29216140E+03</pdfrwt>
<totfact> 0.10611596E+03</totfact>
</mgrwt>
</event>
<event>
 5    0  0.1856407E+000  0.2754442E+03  0.7546771E-02  0.1098204E+00
         21   -1    0    0  502  501  0.00000000000E+00  0.00000000000E+00  0.37812158004E+03  0.37812158004E+03  0.00000000000E+00 0.  1.
         21   -1    0    0  503  502 -0.00000000000E+00 -0.00000000000E+00 -0.22168443113E+03  0.22168443113E+03  0.00000000000E+00 0.  1.
         25    1    1    2    0    0  0.18460891391E+03  0.16175312194E+03  0.20580098552E+03  0.34383654430E+03  0.12500000000E+03 0.  0.
         21    1    1    2  503  504 -0.13900083656E+03 -0.10369053927E+03 -0.54981180131E+02  0.18192276017E+03  0.00000000000E+00 0.  1.
         21    1    1    2  504  501 -0.45608077347E+02 -0.58062582675E+02  0.56173435250E+01  0.74046706710E+02  0.00000000000E+00 0.  1.
<mgrwt>
<rscale>  4 0.27544423E+03</rscale>
<asrwt>0</asrwt>
<pdfrwt beam="1">  1       21 0.58172551E-01 0.27544423E+03</pdfrwt>
<pdfrwt beam="2">  1       21 0.34105297E-01 0.27544423E+03</pdfrwt>
<totfact> 0.21990104E+04</totfact>
</mgrwt>
</event>
<event>
 5    0  0.2003945E+000  0.2774964E+03  0.7546771E-02  0.1097064E+00
         21   -1    0    0  502  501  0.00000000000E+00  0.00000000000E+00  0.52614639115E+03  0.52614639115E+03  0.00000000000E+00 0. -1.
         21   -1    0    0  503  502 -0.00000000000E+00 -0.00000000000E+00 -0.18722084189E+03  0.18722084189E+03  0.00000000000E+00 0.  1.
         25    1    1    2    0    0  0.20152315425E+03 -0.14410999218E+03  0.36685357435E+03  0.45998458295E+03  0.12500000000E+03 0.  0.
         21    1    1    2  503  504 -0.16147805612E+03  0.13012141730E+03 -0.10876682360E+02  0.20766571231E+03  0.00000000000E+00 0.  1.
         21    1    1    2  504  501 -0.40045098126E+02  0.13988574874E+02 -0.17051342727E+02  0.45716937777E+02  0.00000000000E+00 0.  1.
<mgrwt>
<rscale>  4 0.27749644E+03</rscale>
<asrwt>0</asrwt>
<pdfrwt beam="1">  1       21 0.80945598E-01 0.27749644E+03</pdfrwt>
<pdfrwt beam="2">  1       21 0.28803207E-01 0.27749644E+03</pdfrwt>
<totfact> 0.14738438E+04</totfact>
</mgrwt>
</event>
