<event>
 5    0  0.3053516E+000  0.2616577E+03  0.7546771E-02  0.1106151E+00
         21   -1    0    0  502  501  0.00000000000E+00  0.00000000000E+00  0.25494545666E+03  0.25494545666E+03  0.00000000000E+00 0. -1.
         21   -1    0    0  503  502 -0.00000000000E+00 -0.00000000000E+00 -0.39158737180E+03  0.39158737180E+03  0.00000000000E+00 0. -1.
         25    1    1    2    0    0 -0.57615075523E+01  0.22979678493E+03  0.13040408378E+03  0.29235249682E+03  0.12500000000E+03 0.  0.
         21    1    1    2  503  504  0.10851035068E+02 -0.28397963827E+02 -0.45601479065E+02  0.54805877463E+02  0.00000000000E+00 0. -1.
         21    1    1    2  504  501 -0.50895275154E+01 -0.20139882110E+03 -0.22144451986E+03  0.29937445417E+03  0.00000000000E+00 0. -1.
<mgrwt>
<rscale>  4 0.26165771E+03</rscale>
<asrwt>0</asrwt>
<pdfrwt beam="1">  1       21 0.39222378E-01 0.26165771E+03</pdfrwt>
<pdfrwt beam="2">  1       21 0.60244211E-01 0.26165771E+03</pdfrwt>
<totfact> 0.15487442E+04</totfact>
</mgrwt>
</event>
<event>
 5    0  0.2159162E+000  0.2617052E+03  0.7546771E-02  0.1106123E+00
         21   -1    0    0  502  501  0.00000000000E+00  0.00000000000E+00  0.24123905124E+03  0.24123905124E+03  0.00000000000E+00 0.  1.
         21   -1    0    0  503  502 -0.00000000000E+00 -0.00000000000E+00 -0.99083189016E+03  0.99083189016E+03  0.00000000000E+00 0.  1.
         25    1    1    2    0    0 -0.14420026772E+03  0.17908342795E+03  0.15065957368E+03  0.30197334074E+03  0.12500000000E+03 0.  0.
         21    1    1    2  503  504  0.11475137215E+03 -0.12697559990E+03 -0.72423258330E+03  0.74417975993E+03  0.00000000000E+00 0.  1.
         21    1    1    2  504  501  0.29448895569E+02 -0.52107828050E+02 -0.17601982930E+03  0.18591784073E+03  0.00000000000E+00 0.  1.
<mgrwt>
<rscale>  4 0.26170516E+03</rscale>
<asrwt>0</asrwt>
<pdfrwt beam="1">  1       21 0.37113700E-01 0.26170516E+03</pdfrwt>
<pdfrwt beam="2">  1       21 0.15243568E+00 0.26170516E+03</pdfrwt>
<totfact> 0.18923767E+03</totfact>
</mgrwt>
</event>
<event>
 5    0  0.4237734E+000  0.2627047E+03  0.7546771E-02  0.1105529E+00
         21   -1    0    0  502  501  0.00000000000E+00  0.00000000000E+00  0.91126056203E+02  0.91126056203E+02  0.00000000000E+00 0. -1.
         21   -1    0    0  503  502 -0.00000000000E+00 -0.00000000000E+00 -0.99993460719E+03  0.99993460719E+03  0.00000000000E+00 0. -1.
         25    1    1    2    0    0  0.14841480988E+03  0.17709260380E+03 -0.16421085651E+03  0.30980469898E+03  0.12500000000E+03 0.  0.
         21    1    1    2  503  504 -0.13192864761E+03 -0.15659930219E+03 -0.70142910797E+03  0.73070603051E+03  0.00000000000E+00 0. -1.
         21    1    1    2  504  501 -0.16486162273E+02 -0.20493301607E+02 -0.43168586506E+02  0.50549933909E+02  0.00000000000E+00 0. -1.
<mgrwt>
<rscale>  4 0.26270467E+03</rscale>
<asrwt>0</asrwt>
<pdfrwt beam="1">  1       21 0.14019393E-01 0.26270467E+03</pdfrwt>
<pdfrwt beam="2">  1       21 0.15383610E+00 0.26270467E+03</pdfrwt>
<totfact> 0.11847642E+04</totfact>
</mgrwt>
</event>
<event>
 5    0  0.2159162E+000  0.2437113E+03  0.7546771E-02  0.1117345E+00
         21   -1    0    0  502  501  0.00000000000E+00  0.00000000000E+00  0.33365491300E+03  0.33365491300E+03  0.00000000000E+00 0. -1.
         21   -1    0    0  503  502 -0.00000000000E+00 -0.00000000000E+00 -0.18229336610E+03  0.18229336610E+03  0.00000000000E+00 0.  1.
         25    1    1    2    0    0 -0.54720538899E+02 -0.20193037397E+03  0.16928318583E+03  0.29673558990E+03  0.12500000000E+03 0.  0.
         21    1    1    2  503  504  0.33161877932E+02  0.14563995854E+03 -0.40637282291E+02  0.15479695211E+03  0.00000000000E+00 0.  1.
         21    1    1    2  504  501  0.21558660967E+02  0.56290415428E+02  0.22715643357E+02  0.64415737090E+02  0.00000000000E+00 0.  1.
<mgrwt>
<rscale>  4 0.24371133E+03</rscale>
<asrwt>0</asrwt>
<pdfrwt beam="1">  1       21 0.51331525E-01 0.24371133E+03</pdfrwt>
<pdfrwt beam="2">  1       21 0.28045133E-01 0.24371133E+03</pdfrwt>
<totfact> 0.42772222E+04</totfact>
</mgrwt>
</event>
<event>
 5    0  0.2460240E+000  0.4099975E+03  0.7546771E-02  0.1041483E+00
         21   -1    0    0  502  501  0.00000000000E+00  0.00000000000E+00  0.92121581105E+03  0.92121581105E+03  0.00000000000E+00 0.  1.
         21   -1    0    0  503  502 -0.00000000000E+00 -0.00000000000E+00 -0.18039593854E+03  0.18039593854E+03  0.00000000000E+00 0.  1.
         25    1    1    2    0    0 -0.55626626337E+01 -0.37674893383E+03  0.28602504451E+03  0.48929135333E+03  0.12500000000E+03 0.  0.
         21    1    1    2  503  504 -0.57927043198E+02  0.30930196238E+03  0.37917659006E+03  0.49274550502E+03  0.00000000000E+00 0.  1.
         21    1    1    2  504  501  0.63489705831E+02  0.67446971446E+02  0.75618237946E+02  0.11957489123E+03  0.00000000000E+00 0.  1.
<mgrwt>
<rscale>  4 0.40670446E+03</rscale>
<asrwt>0</asrwt>
<pdfrwt beam="1">  1       21 0.14172551E+00 0.40999748E+03</pdfrwt>
<pdfrwt beam="2">  1       21 0.27753222E-01 0.40999748E+03</pdfrwt>
<totfact> 0.37855765E+03</totfact>
</mgrwt>
</event>
<event>
 5    0  0.2159162E+000  0.2871267E+03  0.7546771E-02  0.1091859E+00
         21   -1    0    0  502  501  0.00000000000E+00  0.00000000000E+00  0.35672170702E+03  0.35672170702E+03  0.00000000000E+00 0.  1.
         21   -1    0    0  503  502 -0.00000000000E+00 -0.00000000000E+00 -0.49151569450E+03  0.49151569450E+03  0.00000000000E+00 0.  1.
         25    1    1    2    0    0 -0.12293068733E+03  0.23076396572E+03  0.24199180255E+03  0.37755661068E+03  0.12500000000E+03 0.  0.
         21    1    1    2  503  504  0.36742553138E+02 -0.31309136136E+01 -0.33228097584E+02  0.49637932071E+02  0.00000000000E+00 0.  1.
         21    1    1    2  504  501  0.86188134196E+02 -0.22763305211E+03 -0.34355769245E+03  0.42104285878E+03  0.00000000000E+00 0.  1.
<mgrwt>
<rscale>  4 0.28712668E+03</rscale>
<asrwt>0</asrwt>
<pdfrwt beam="1">  1       21 0.54880262E-01 0.28712668E+03</pdfrwt>
<pdfrwt beam="2">  1       21 0.75617799E-01 0.28712668E+03</pdfrwt>
<totfact> 0.45962019E+03</totfact>
</mgrwt>
</event>
<event>
 5    0  0.2326627E+000  0.3143900E+03  0.7546771E-02  0.1078261E+00
         21   -1    0    0  502  501  0.00000000000E+00  0.00000000000E+00  0.89805387699E+03  0.89805387699E+03  0.00000000000E+00 0. -1.
         21   -1    0    0  503  502 -0.00000000000E+00 -0.00000000000E+00 -0.12475101820E+03  0.12475101820E+03  0.00000000000E+00 0. -1.
         25    1    1    2    0    0  0.28194732452E+03  0.61006307293E+02  0.59480701252E+03  0.67278261383E+03  0.12500000000E+03 0.  0.
         21    1    1    2  503  504 -0.20454440639E+03 -0.82568949648E+02  0.13580983583E+03  0.25903736629E+03  0.00000000000E+00 0. -1.
         21    1    1    2  504  501 -0.77402918138E+02  0.21562642355E+02  0.42686010451E+02  0.90984915067E+02  0.00000000000E+00 0. -1.
<mgrwt>
<rscale>  4 0.31438999E+03</rscale>
<asrwt>0</asrwt>
<pdfrwt beam="1">  1       21 0.13816213E+00 0.31438999E+03</pdfrwt>
<pdfrwt beam="2">  1       21 0.19192465E-01 0.31438999E+03</pdfrwt>
<totfact> 0.85757975E+03</totfact>
</mgrwt>
</event>
<event>
 5    0  0.2159162E+000  0.3852535E+03  0.7546771E-02  0.1049009E+00
         21   -1    0    0  502  501  0.00000000000E+00  0.00000000000E+00  0.12930663630E+04  0.12930663630E+04  0.00000000000E+00 0.  1.
         21   -1    0    0  503  502 -0.00000000000E+00 -0.00000000000E+00 -0.36596244671E+03  0.36596244671E+03  0.00000000000E+00 0.  1.
         25    1    1    2    0    0 -0.16313913210E+03  0.32878728574E+03  0.11513650937E+04  0.12149000102E+04  0.12500000000E+03 0.  0.
         21    1    1    2  503  504  0.15738092501E+02 -0.25037762647E+02  0.12140154118E+02  0.31968116240E+02  0.00000000000E+00 0.  1.
         21    1    1    2  504  501  0.14740103960E+03 -0.30374952309E+03 -0.23640133158E+03  0.41216068326E+03  0.00000000000E+00 0.  1.
<mgrwt>
<rscale>  4 0.38525354E+03</rscale>
<asrwt>0</asrwt>
<pdfrwt beam="1">  1       21 0.19893328E+00 0.38525354E+03</pdfrwt>
<pdfrwt beam="2">  1       21 0.56301916E-01 0.38525354E+03</pdfrwt>
<totfact> 0.34286989E+02</totfact>
</mgrwt>
</event>
<event>
 5    0  0.2159162E+000  0.2291977E+03  0.7546771E-02  0.1127206E+00
         21   -1    0    0  502  501  0.00000000000E+00  0.00000000000E+00  0.19378080682E+03  0.19378080682E+03  0.00000000000E+00 0. -1.
         21   -1    0    0  503  502 -0.00000000000E+00 -0.00000000000E+00 -0.15032292159E+04  0.15032292159E+04  0.00000000000E+00 0. -1.
         25    1    1    2    0    0  0.20882423109E+03  0.18484644407E+02  0.80924239920E+02  0.25714387836E+03  0.12500000000E+03 0.  0.
         21    1    1    2  503  504 -0.67074277207E+02 -0.79236866162E+02 -0.11473691746E+04  0.11520561889E+04  0.00000000000E+00 0. -1.
         21    1    1    2  504  501 -0.14174995389E+03  0.60752221755E+02 -0.24300347441E+03  0.28780995544E+03  0.00000000000E+00 0. -1.
<mgrwt>
<rscale>  4 0.22919774E+03</rscale>
<asrwt>0</asrwt>
<pdfrwt beam="1">  1       21 0.29812432E-01 0.22919774E+03</pdfrwt>
<pdfrwt beam="2">  1       21 0.23126603E+00 0.22919774E+03</pdfrwt>
<totfact> 0.88962262E+02</totfact>
</mgrwt>
</event>
