<event>
 5    0  0.1014204E+000  0.4032337E+03  0.7546771E-02  0.1042666E+00
         21   -1    0    0  501  502  0.00000000000E+00  0.00000000000E+00  0.54500189178E+02  0.54500189178E+02  0.00000000000E+00 0. -1.
          2   -1    0    0  503    0 -0.00000000000E+00 -0.00000000000E+00 -0.31077328820E+04  0.31077328820E+04  0.00000000000E+00 0.  1.
         25    1    1    2    0    0  0.30862367135E+01 -0.38335736452E+03 -0.11069934587E+04  0.11781476612E+04  0.12500000000E+03 0.  0.
         21    1    1    2  503  502 -0.92473015721E+01  0.21751197756E+02 -0.99769147879E+02  0.10253053232E+03  0.00000000000E+00 0. -1.
          2    1    1    2  501    0  0.61610648586E+01  0.36160616676E+03 -0.18464700862E+04  0.18815548777E+04  0.00000000000E+00 0.  1.
<mgrwt>
<rscale>  4 0.40323367E+03</rscale>
<asrwt>0</asrwt>
<pdfrwt beam="1">  1       21 0.83846439E-02 0.40323367E+03</pdfrwt>
<pdfrwt beam="2">  1        2 0.47811279E+00 0.40323367E+03</pdfrwt>
<totfact> 0.23729147E+03</totfact>
</mgrwt>
</event>
<event>
 5    0  0.1014204E+000  0.3152760E+03  0.7546771E-02  0.1077844E+00
          2   -1    0    0  503    0 -0.00000000000E+00  0.00000000000E+00  0.22698434370E+03  0.22698434370E+03  0.00000000000E+00 0. -1.
         21   -1    0    0  501  502  0.00000000000E+00 -0.00000000000E+00 -0.72018339243E+03  0.72018339243E+03  0.00000000000E+00 0.  1.
         25    1    1    2    0    0 -0.30442016319E+03 -0.35940023870E+02 -0.25542401981E+03  0.41812647724E+03  0.12500000000E+03 0.  0.
         21    1    1    2  503  502  0.28269347292E+02  0.11082338536E+03  0.48557974058E+02  0.12425319144E+03  0.00000000000E+00 0. -1.
          2    1    1    2  501    0  0.27615081590E+03 -0.74883361486E+02 -0.28633300298E+03  0.40478806745E+03  0.00000000000E+00 0. -1.
<mgrwt>
<rscale>  4 0.31527600E+03</rscale>
<asrwt>0</asrwt>
<pdfrwt beam="1">  1       21 0.11079744E+00 0.31527600E+03</pdfrwt>
<pdfrwt beam="2">  1        2 0.34920669E-01 0.31527600E+03</pdfrwt>
<totfact> 0.11174451E+03</totfact>
</mgrwt>
</event>
<event>
 5    0  0.1014204E+000  0.2443206E+03  0.7546771E-02  0.1116948E+00
          1   -1    0    0  503    0 -0.00000000000E+00  0.00000000000E+00  0.72578170186E+03  0.72578170186E+03  0.00000000000E+00 0.  1.
         21   -1    0    0  501  502  0.00000000000E+00 -0.00000000000E+00 -0.17897313651E+03  0.17897313651E+03  0.00000000000E+00 0.  1.
         25    1    1    2    0    0 -0.77942792664E+02  0.21603545311E+03 -0.41031514524E+02  0.26467901525E+03  0.12500000000E+03 0.  0.
         21    1    1    2  503  502  0.72873347351E+01 -0.20829611479E+02  0.68444466176E+01  0.23104640474E+02  0.00000000000E+00 0.  1.
          1    1    1    2  501    0  0.70655457929E+02 -0.19520584163E+03  0.58099563326E+03  0.61697118264E+03  0.00000000000E+00 0.  1.
<mgrwt>
<rscale>  4 0.24432060E+03</rscale>
<asrwt>0</asrwt>
<pdfrwt beam="1">  1       21 0.27534329E-01 0.24432060E+03</pdfrwt>
<pdfrwt beam="2">  1        1 0.11165872E+00 0.24432060E+03</pdfrwt>
<totfact> 0.36809699E+03</totfact>
</mgrwt>
</event>
<event>
 5    0  0.1014204E+000  0.4175791E+03  0.7546771E-02  0.1037857E+00
         21   -1    0    0  501  502  0.00000000000E+00  0.00000000000E+00  0.61863810128E+03  0.61863810128E+03  0.00000000000E+00 0.  1.
          2   -1    0    0  503    0 -0.00000000000E+00 -0.00000000000E+00 -0.50928291815E+03  0.50928291815E+03  0.00000000000E+00 0.  1.
         25    1    1    2    0    0  0.15415287641E+03 -0.36278471380E+03  0.38406931941E+03  0.56436699051E+03  0.12500000000E+03 0.  0.
         21    1    1    2  503  502 -0.20117756050E+02 -0.28339415657E+02 -0.11531485533E+03  0.12043821008E+03  0.00000000000E+00 0.  1.
          2    1    1    2  501    0 -0.13403512036E+03  0.39112412945E+03 -0.15939928096E+03  0.44311581884E+03  0.00000000000E+00 0.  1.
<mgrwt>
<rscale>  4 0.41757907E+03</rscale>
<asrwt>0</asrwt>
<pdfrwt beam="1">  1       21 0.95175092E-01 0.41757907E+03</pdfrwt>
<pdfrwt beam="2">  1        2 0.78351219E-01 0.41757907E+03</pdfrwt>
<totfact> 0.64342554E+02</totfact>
</mgrwt>
</event>
<event>
 5    0  0.1014204E+000  0.3136114E+03  0.7546771E-02  0.1078628E+00
         21   -1    0    0  501  502  0.00000000000E+00  0.00000000000E+00  0.23930023500E+03  0.23930023500E+03  0.00000000000E+00 0.  1.
          2   -1    0    0  503    0 -0.00000000000E+00 -0.00000000000E+00 -0.10087524359E+04  0.10087524359E+04  0.00000000000E+00 0.  1.
         25    1    1    2    0    0 -0.29080924603E+03  0.21939441315E+02  0.81243184867E+02  0.32753139048E+03  0.12500000000E+03 0.  0.
         21    1    1    2  503  502  0.22536959588E+02  0.13884443790E+02 -0.35301775780E+03  0.35400879883E+03  0.00000000000E+00 0.  1.
          2    1    1    2  501    0  0.26827228644E+03 -0.35823885105E+02 -0.49767762794E+03  0.56651248156E+03  0.00000000000E+00 0.  1.
<mgrwt>
<rscale>  4 0.31361144E+03</rscale>
<asrwt>0</asrwt>
<pdfrwt beam="1">  1       21 0.36815421E-01 0.31361144E+03</pdfrwt>
<pdfrwt beam="2">  1        2 0.15519268E+00 0.31361144E+03</pdfrwt>
<totfact> 0.22380679E+03</totfact>
</mgrwt>
</event>
<event>
 5    0  0.1014204E+000  0.3171625E+03  0.7546771E-02  0.1076963E+00
         21   -1    0    0  501  502  0.00000000000E+00  0.00000000000E+00  0.55421552754E+03  0.55421552754E+03  0.00000000000E+00 0.  1.
          2   -1    0    0  503    0 -0.00000000000E+00 -0.00000000000E+00 -0.18895041767E+03  0.18895041767E+03  0.00000000000E+00 0.  1.
         25    1    1    2    0    0 -0.22523034748E+03 -0.18739440379E+03  0.21913585362E+03  0.38664052341E+03  0.12500000000E+03 0.  0.
         21    1    1    2  503  502  0.19456666571E+02 -0.17694895192E+02 -0.82078694045E+01  0.27550686200E+02  0.00000000000E+00 0.  1.
          2    1    1    2  501    0  0.20577368091E+03  0.20508929898E+03  0.15433712564E+03  0.32897473560E+03  0.00000000000E+00 0.  1.
<mgrwt>
<rscale>  4 0.31716254E+03</rscale>
<asrwt>0</asrwt>
<pdfrwt beam="1">  1       21 0.85263926E-01 0.31716254E+03</pdfrwt>
<pdfrwt beam="2">  1        2 0.29069295E-01 0.31716254E+03</pdfrwt>
<totfact> 0.25579975E+03</totfact>
</mgrwt>
</event>
<event>
 5    0  0.1014204E+000  0.2588715E+03  0.7546771E-02  0.1107823E+00
         21   -1    0    0  501  502  0.00000000000E+00  0.00000000000E+00  0.14437902674E+04  0.14437902674E+04  0.00000000000E+00 0. -1.
          1   -1    0    0  503    0 -0.00000000000E+00 -0.00000000000E+00 -0.19140461965E+03  0.19140461965E+03  0.00000000000E+00 0.  1.
         25    1    1    2    0    0  0.22749977892E+03 -0.20081717099E+02  0.13396684639E+04  0.13647329475E+04  0.12500000000E+03 0.  0.
         21    1    1    2  503  502 -0.22182373661E+02  0.27256202375E+02  0.18141706960E+02  0.39548448776E+02  0.00000000000E+00 0.  1.
          1    1    1    2  501    0 -0.20531740526E+03 -0.71744852762E+01 -0.10542452313E+03  0.23091349076E+03  0.00000000000E+00 0.  1.
<mgrwt>
<rscale>  4 0.25887152E+03</rscale>
<asrwt>0</asrwt>
<pdfrwt beam="1">  1       21 0.22212157E+00 0.25887152E+03</pdfrwt>
<pdfrwt beam="2">  1        1 0.29446866E-01 0.25887152E+03</pdfrwt>
<totfact> 0.15573545E+02</totfact>
</mgrwt>
</event>
<event>
 5    0  0.1014204E+000  0.4403234E+03  0.7546771E-02  0.1030648E+00
         21   -1    0    0  501  502  0.00000000000E+00  0.00000000000E+00  0.46555807588E+03  0.46555807588E+03  0.00000000000E+00 0. -1.
          3   -1    0    0  503    0 -0.00000000000E+00 -0.00000000000E+00 -0.58961070447E+03  0.58961070447E+03  0.00000000000E+00 0. -1.
         25    1    1    2    0    0 -0.96470503472E+02  0.41353763070E+03 -0.23204205989E+03  0.49978840283E+03  0.12500000000E+03 0.  0.
         21    1    1    2  503  502  0.20370260993E+02  0.97864863326E+00 -0.88187165211E+02  0.90514536921E+02  0.00000000000E+00 0. -1.
          3    1    1    2  501    0  0.76100242479E+02 -0.41451627933E+03  0.19617659651E+03  0.46486584060E+03  0.00000000000E+00 0. -1.
<mgrwt>
<rscale>  4 0.44032341E+03</rscale>
<asrwt>0</asrwt>
<pdfrwt beam="1">  1       21 0.71624319E-01 0.44032341E+03</pdfrwt>
<pdfrwt beam="2">  1        3 0.90709340E-01 0.44032341E+03</pdfrwt>
<totfact> 0.92205832E+01</totfact>
</mgrwt>
</event>
<event>
 5    0  0.1014204E+000  0.2328953E+03  0.7546771E-02  0.1124618E+00
         21   -1    0    0  501  502  0.00000000000E+00  0.00000000000E+00  0.42226381025E+03  0.42226381025E+03  0.00000000000E+00 0. -1.
          4   -1    0    0  503    0 -0.00000000000E+00 -0.00000000000E+00 -0.20970896727E+03  0.20970896727E+03  0.00000000000E+00 0. -1.
         25    1    1    2    0    0 -0.14674328445E+03  0.16681980465E+03  0.21674618831E+03  0.33461373089E+03  0.12500000000E+03 0.  0.
         21    1    1    2  503  502  0.30024813805E+02 -0.38793762378E+02 -0.91151819636E+02  0.10351376559E+03  0.00000000000E+00 0.  1.
          4    1    1    2  501    0  0.11671847064E+03 -0.12802604227E+03  0.86960474304E+02  0.19384528104E+03  0.00000000000E+00 0. -1.
<mgrwt>
<rscale>  4 0.23289533E+03</rscale>
<asrwt>0</asrwt>
<pdfrwt beam="1">  1       21 0.64963663E-01 0.23289533E+03</pdfrwt>
<pdfrwt beam="2">  1        4 0.32262918E-01 0.23289533E+03</pdfrwt>
<totfact> 0.84753118E+02</totfact>
</mgrwt>
</event>
<event>
 5    0  0.1014204E+000  0.2494672E+03  0.7546771E-02  0.1113642E+00
         21   -1    0    0  501  502  0.00000000000E+00  0.00000000000E+00  0.89253624315E+02  0.89253624315E+02  0.00000000000E+00 0.  1.
          2   -1    0    0  503    0 -0.00000000000E+00 -0.00000000000E+00 -0.72421010384E+03  0.72421010384E+03  0.00000000000E+00 0.  1.
         25    1    1    2    0    0 -0.20850107794E+03 -0.56001608791E+02 -0.17586760085E+03  0.30522662518E+03  0.12500000000E+03 0.  0.
         21    1    1    2  503  502  0.28016690053E+02  0.11241699884E+02 -0.90432963130E+02  0.95338510363E+02  0.00000000000E+00 0.  1.
          2    1    1    2  501    0  0.18048438789E+03  0.44759908907E+02 -0.36865591555E+03  0.41289859262E+03  0.00000000000E+00 0.  1.
<mgrwt>
<rscale>  4 0.24946719E+03</rscale>
<asrwt>0</asrwt>
<pdfrwt beam="1">  1       21 0.13731326E-01 0.24946719E+03</pdfrwt>
<pdfrwt beam="2">  1        2 0.11141694E+00 0.24946719E+03</pdfrwt>
<totfact> 0.23158905E+04</totfact>
</mgrwt>
</event>
<event>
 5    0  0.1014204E+000  0.2596787E+03  0.7546771E-02  0.1107336E+00
         21   -1    0    0  501  502  0.00000000000E+00  0.00000000000E+00  0.43996903394E+03  0.43996903394E+03  0.00000000000E+00 0. -1.
          4   -1    0    0  503    0 -0.00000000000E+00 -0.00000000000E+00 -0.26374945857E+03  0.26374945857E+03  0.00000000000E+00 0. -1.
         25    1    1    2    0    0 -0.11962190483E+03  0.19172435367E+03  0.28657373741E+03  0.38576823985E+03  0.12500000000E+03 0.  0.
         21    1    1    2  503  502  0.39647079372E+02  0.32729589536E+02  0.77803967126E+01  0.51996648997E+02  0.00000000000E+00 0.  1.
          4    1    1    2  501    0  0.79974825460E+02 -0.22445394321E+03 -0.11813455874E+03  0.26595360366E+03  0.00000000000E+00 0. -1.
<mgrwt>
<rscale>  4 0.25967871E+03</rscale>
<asrwt>0</asrwt>
<pdfrwt beam="1">  1       21 0.67687544E-01 0.25967871E+03</pdfrwt>
<pdfrwt beam="2">  1        4 0.40576840E-01 0.25967871E+03</pdfrwt>
<totfact> 0.49280802E+02</totfact>
</mgrwt>
</event>
<event>
 5    0  0.1014204E+000  0.2800368E+03  0.7546771E-02  0.1095669E+00
          2   -1    0    0  503    0 -0.00000000000E+00  0.00000000000E+00  0.20028695740E+04  0.20028695740E+04  0.00000000000E+00 0.  1.
         21   -1    0    0  501  502  0.00000000000E+00 -0.00000000000E+00 -0.60732180053E+02  0.60732180053E+02  0.00000000000E+00 0.  1.
         25    1    1    2    0    0 -0.23998521084E+03  0.75501708448E+02  0.35621402768E+03  0.45365939086E+03  0.12500000000E+03 0.  0.
         21    1    1    2  503  502 -0.38221903951E+01 -0.28396756637E+02  0.15199585482E+03  0.15467296083E+03  0.00000000000E+00 0. -1.
          2    1    1    2  501    0  0.24380740124E+03 -0.47104951811E+02  0.14339275115E+04  0.14552694024E+04  0.00000000000E+00 0.  1.
<mgrwt>
<rscale>  4 0.28003679E+03</rscale>
<asrwt>0</asrwt>
<pdfrwt beam="1">  1       21 0.93434138E-02 0.28003679E+03</pdfrwt>
<pdfrwt beam="2">  1        2 0.30813373E+00 0.28003679E+03</pdfrwt>
<totfact> 0.84956882E+03</totfact>
</mgrwt>
</event>
<event>
 5    0  0.1014204E+000  0.2679032E+03  0.7546771E-02  0.1102486E+00
         21   -1    0    0  501  502  0.00000000000E+00  0.00000000000E+00  0.50444081916E+03  0.50444081916E+03  0.00000000000E+00 0.  1.
          1   -1    0    0  503    0 -0.00000000000E+00 -0.00000000000E+00 -0.62873988284E+03  0.62873988284E+03  0.00000000000E+00 0.  1.
         25    1    1    2    0    0  0.21723434833E+03  0.98028828886E+02  0.34250496228E+03  0.43558588427E+03  0.12500000000E+03 0.  0.
         21    1    1    2  503  502  0.14474313270E+02 -0.47706719146E+02 -0.45759831094E+03  0.46030604056E+03  0.00000000000E+00 0.  1.
          1    1    1    2  501    0 -0.23170866160E+03 -0.50322109740E+02 -0.92057150276E+01  0.23728877718E+03  0.00000000000E+00 0.  1.
<mgrwt>
<rscale>  4 0.26790318E+03</rscale>
<asrwt>0</asrwt>
<pdfrwt beam="1">  1       21 0.77606281E-01 0.26790318E+03</pdfrwt>
<pdfrwt beam="2">  1        1 0.96729212E-01 0.26790318E+03</pdfrwt>
<totfact> 0.51732139E+02</totfact>
</mgrwt>
</event>
<event>
 5    0  0.1014204E+000  0.2393117E+03  0.7546771E-02  0.1120252E+00
         21   -1    0    0  501  502  0.00000000000E+00  0.00000000000E+00  0.50998327122E+02  0.50998327122E+02  0.00000000000E+00 0. -1.
          2   -1    0    0  503    0 -0.00000000000E+00 -0.00000000000E+00 -0.14306122208E+04  0.14306122208E+04  0.00000000000E+00 0. -1.
         25    1    1    2    0    0  0.20737041851E+03  0.79023037784E+02 -0.53166832551E+03  0.58952806492E+03  0.12500000000E+03 0.  0.
         21    1    1    2  503  502 -0.33564606283E+02 -0.47984745026E+00 -0.44513507052E+03  0.44639897407E+03  0.00000000000E+00 0. -1.
          2    1    1    2  501    0 -0.17380581223E+03 -0.78543190333E+02 -0.40281049762E+03  0.44568350890E+03  0.00000000000E+00 0. -1.
<mgrwt>
<rscale>  4 0.23931175E+03</rscale>
<asrwt>0</asrwt>
<pdfrwt beam="1">  1       21 0.78458979E-02 0.23931175E+03</pdfrwt>
<pdfrwt beam="2">  1        2 0.22009415E+00 0.23931175E+03</pdfrwt>
<totfact> 0.23442645E+04</totfact>
</mgrwt>
</event>
<event>
 5    0  0.1014204E+000  0.2577817E+03  0.7546771E-02  0.1108483E+00
         21   -1    0    0  501  502  0.00000000000E+00  0.00000000000E+00  0.37334484578E+03  0.37334484578E+03  0.00000000000E+00 0.  1.
          1   -1    0    0  503    0 -0.00000000000E+00 -0.00000000000E+00 -0.17887328486E+03  0.17887328486E+03  0.00000000000E+00 0.  1.
         25    1    1    2    0    0 -0.21556851730E+03 -0.66134051485E+02  0.14931898474E+03  0.29793398199E+03  0.12500000000E+03 0.  0.
         21    1    1    2  503  502  0.66736547005E+01 -0.19505367429E+02  0.17091422091E+02  0.26778979343E+02  0.00000000000E+00 0. -1.
          1    1    1    2  501    0  0.20889486260E+03  0.85639418914E+02  0.28061154092E+02  0.22750516931E+03  0.00000000000E+00 0.  1.
<mgrwt>
<rscale>  4 0.25778169E+03</rscale>
<asrwt>0</asrwt>
<pdfrwt beam="1">  1       21 0.57437668E-01 0.25778169E+03</pdfrwt>
<pdfrwt beam="2">  1        1 0.27518967E-01 0.25778169E+03</pdfrwt>
<totfact> 0.51216671E+03</totfact>
</mgrwt>
</event>
<event>
 5    0  0.1014204E+000  0.2953693E+03  0.7546771E-02  0.1087579E+00
          4   -1    0    0  503    0 -0.00000000000E+00  0.00000000000E+00  0.60195533333E+03  0.60195533333E+03  0.00000000000E+00 0. -1.
         21   -1    0    0  501  502  0.00000000000E+00 -0.00000000000E+00 -0.41117964333E+03  0.41117964333E+03  0.00000000000E+00 0. -1.
         25    1    1    2    0    0  0.25796212282E+03  0.73375678665E+02 -0.22631475300E+03  0.37252089130E+03  0.12500000000E+03 0.  0.
         21    1    1    2  503  502  0.16088533009E+02 -0.75806012289E+02  0.34997799128E+03  0.35845499965E+03  0.00000000000E+00 0. -1.
          4    1    1    2  501    0 -0.27405065583E+03  0.24303336243E+01  0.67112451718E+02  0.28215908572E+03  0.00000000000E+00 0. -1.
<mgrwt>
<rscale>  4 0.29536925E+03</rscale>
<asrwt>0</asrwt>
<pdfrwt beam="1">  1       21 0.63258407E-01 0.29536925E+03</pdfrwt>
<pdfrwt beam="2">  1        4 0.92608512E-01 0.29536925E+03</pdfrwt>
<totfact> 0.97013428E+01</totfact>
</mgrwt>
</event>
<event>
 5    0  0.1014204E+000  0.4354207E+03  0.7546771E-02  0.1032161E+00
          2   -1    0    0  503    0 -0.00000000000E+00  0.00000000000E+00  0.15645193440E+04  0.15645193440E+04  0.00000000000E+00 0. -1.
         21   -1    0    0  501  502  0.00000000000E+00 -0.00000000000E+00 -0.57036887092E+03  0.57036887092E+03  0.00000000000E+00 0.  1.
         25    1    1    2    0    0 -0.11456248745E+03  0.40105067599E+03 -0.45171866988E+03  0.62740813268E+03  0.12500000000E+03 0.  0.
         21    1    1    2  503  502  0.29686046059E+02 -0.31166442072E+02  0.94587726005E+02  0.10392038468E+03  0.00000000000E+00 0. -1.
          2    1    1    2  501    0  0.84876441387E+02 -0.36988423391E+03  0.13512814170E+04  0.14035596976E+04  0.00000000000E+00 0. -1.
<mgrwt>
<rscale>  4 0.43542073E+03</rscale>
<asrwt>0</asrwt>
<pdfrwt beam="1">  1       21 0.87749057E-01 0.43542073E+03</pdfrwt>
<pdfrwt beam="2">  1        2 0.24069528E+00 0.43542073E+03</pdfrwt>
<totfact> 0.15716744E+02</totfact>
</mgrwt>
</event>
<event>
 5    0  0.1014204E+000  0.2473363E+03  0.7546771E-02  0.1115000E+00
         21   -1    0    0  501  502  0.00000000000E+00  0.00000000000E+00  0.25920353720E+03  0.25920353720E+03  0.00000000000E+00 0. -1.
          4   -1    0    0  503    0 -0.00000000000E+00 -0.00000000000E+00 -0.15187154840E+04  0.15187154840E+04  0.00000000000E+00 0.  1.
         25    1    1    2    0    0 -0.32383851709E+02 -0.21219893780E+03  0.18685334585E+03  0.31083158769E+03  0.12500000000E+03 0.  0.
         21    1    1    2  503  502  0.27174883882E+02  0.16704781529E+02 -0.48415450386E+03  0.48520419171E+03  0.00000000000E+00 0. -1.
          4    1    1    2  501    0  0.52089678270E+01  0.19549415627E+03 -0.96221078873E+03  0.98188324175E+03  0.00000000000E+00 0.  1.
<mgrwt>
<rscale>  4 0.24733629E+03</rscale>
<asrwt>0</asrwt>
<pdfrwt beam="1">  1       21 0.39877466E-01 0.24733629E+03</pdfrwt>
<pdfrwt beam="2">  1        4 0.23364854E+00 0.24733629E+03</pdfrwt>
<totfact> 0.22526133E+01</totfact>
</mgrwt>
</event>
<event>
 5    0  0.1014204E+000  0.3894475E+03  0.7546771E-02  0.1047496E+00
         21   -1    0    0  503  502  0.00000000000E+00  0.00000000000E+00  0.12852544060E+04  0.12852544060E+04  0.00000000000E+00 0.  1.
         -2   -1    0    0    0  501 -0.00000000000E+00 -0.00000000000E+00 -0.17552131509E+03  0.17552131509E+03  0.00000000000E+00 0.  1.
         25    1    1    2    0    0 -0.68941252833E+02 -0.36234158279E+03  0.99072102523E+03  0.10645174817E+04  0.12500000000E+03 0.  0.
         21    1    1    2  503  501  0.14704603899E+02  0.22504372033E+02 -0.10071898356E+02  0.28707407980E+02  0.00000000000E+00 0.  1.
         -2    1    1    2    0  502  0.54236648934E+02  0.33983721075E+03  0.12908396401E+03  0.36755083140E+03  0.00000000000E+00 0.  1.
<mgrwt>
<rscale>  4 0.38944745E+03</rscale>
<asrwt>0</asrwt>
<pdfrwt beam="1">  1       21 0.19773144E+00 0.38944745E+03</pdfrwt>
<pdfrwt beam="2">  1       -2 0.27003280E-01 0.38944745E+03</pdfrwt>
<totfact> 0.12357652E+02</totfact>
</mgrwt>
</event>
<event>
 5    0  0.1014204E+000  0.2763002E+03  0.7546771E-02  0.1097727E+00
         21   -1    0    0  501  502  0.00000000000E+00  0.00000000000E+00  0.71133008155E+03  0.71133008155E+03  0.00000000000E+00 0.  1.
          4   -1    0    0  503    0 -0.00000000000E+00 -0.00000000000E+00 -0.33201058211E+03  0.33201058211E+03  0.00000000000E+00 0. -1.
         25    1    1    2    0    0  0.79363557777E+02 -0.23339157932E+03  0.58034269763E+03  0.64280078585E+03  0.12500000000E+03 0.  0.
         21    1    1    2  503  502  0.81877587252E+02  0.30772989555E+02 -0.48622819628E+02  0.10007544538E+03  0.00000000000E+00 0. -1.
          4    1    1    2  501    0 -0.16124114503E+03  0.20261858976E+03 -0.15240037856E+03  0.30046443243E+03  0.00000000000E+00 0. -1.
<mgrwt>
<rscale>  4 0.27630016E+03</rscale>
<asrwt>0</asrwt>
<pdfrwt beam="1">  1       21 0.10943540E+00 0.27630016E+03</pdfrwt>
<pdfrwt beam="2">  1        4 0.51078551E-01 0.27630016E+03</pdfrwt>
<totfact> 0.10095497E+02</totfact>
</mgrwt>
</event>
<event>
 5    0  0.1014204E+000  0.3769629E+03  0.7546771E-02  0.1052062E+00
          1   -1    0    0  503    0 -0.00000000000E+00  0.00000000000E+00  0.18055219820E+03  0.18055219820E+03  0.00000000000E+00 0. -1.
         21   -1    0    0  501  502  0.00000000000E+00 -0.00000000000E+00 -0.14758940883E+04  0.14758940883E+04  0.00000000000E+00 0. -1.
         25    1    1    2    0    0  0.19408616053E+03  0.29382098982E+03 -0.11909400988E+04  0.12481840933E+04  0.12500000000E+03 0.  0.
         21    1    1    2  503  502  0.12351768165E+02  0.17228867073E+02 -0.83351222682E+01  0.22778812538E+02  0.00000000000E+00 0. -1.
          1    1    1    2  501    0 -0.20643792870E+03 -0.31104985690E+03 -0.96066669014E+02  0.38548338068E+03  0.00000000000E+00 0. -1.
<mgrwt>
<rscale>  4 0.37696292E+03</rscale>
<asrwt>0</asrwt>
<pdfrwt beam="1">  1       21 0.22706062E+00 0.37696292E+03</pdfrwt>
<pdfrwt beam="2">  1        1 0.27777263E-01 0.37696292E+03</pdfrwt>
<totfact> 0.14637573E+02</totfact>
</mgrwt>
</event>
<event>
 5    0  0.1014204E+000  0.2619779E+03  0.7546771E-02  0.1105961E+00
         21   -1    0    0  501  502  0.00000000000E+00  0.00000000000E+00  0.63277284589E+03  0.63277284589E+03  0.00000000000E+00 0.  1.
          2   -1    0    0  503    0 -0.00000000000E+00 -0.00000000000E+00 -0.27414753788E+03  0.27414753788E+03  0.00000000000E+00 0.  1.
         25    1    1    2    0    0 -0.21067145483E+03 -0.81150330418E+02  0.45329633767E+03  0.52160368840E+03  0.12500000000E+03 0.  0.
         21    1    1    2  503  502  0.12050882209E+02 -0.10138033756E+03 -0.99843354054E+01  0.10258110723E+03  0.00000000000E+00 0.  1.
          2    1    1    2  501    0  0.19862057262E+03  0.18253066798E+03 -0.84686694248E+02  0.28273558814E+03  0.00000000000E+00 0.  1.
<mgrwt>
<rscale>  4 0.26197794E+03</rscale>
<asrwt>0</asrwt>
<pdfrwt beam="1">  1       21 0.97349668E-01 0.26197794E+03</pdfrwt>
<pdfrwt beam="2">  1        2 0.42176544E-01 0.26197794E+03</pdfrwt>
<totfact> 0.12676554E+03</totfact>
</mgrwt>
</event>
<event>
 5    0  0.1014204E+000  0.3212817E+03  0.7546771E-02  0.1075061E+00
          2   -1    0    0  503    0 -0.00000000000E+00  0.00000000000E+00  0.48420726372E+03  0.48420726372E+03  0.00000000000E+00 0. -1.
         21   -1    0    0  501  502  0.00000000000E+00 -0.00000000000E+00 -0.12784946510E+04  0.12784946510E+04  0.00000000000E+00 0. -1.
         25    1    1    2    0    0 -0.83588551832E+00  0.29759841767E+03 -0.12007104069E+04  0.12433406606E+04  0.12500000000E+03 0.  0.
         21    1    1    2  503  502  0.62229185217E+01 -0.35651987209E+02  0.46032763914E+00  0.36193933310E+02  0.00000000000E+00 0.  1.
          2    1    1    2  501    0 -0.53870330034E+01 -0.26194643046E+03  0.40596269206E+03  0.48316732080E+03  0.00000000000E+00 0. -1.
<mgrwt>
<rscale>  4 0.32128168E+03</rscale>
<asrwt>0</asrwt>
<pdfrwt beam="1">  1       21 0.19669149E+00 0.32128168E+03</pdfrwt>
<pdfrwt beam="2">  1        2 0.74493425E-01 0.32128168E+03</pdfrwt>
<totfact> 0.10367055E+02</totfact>
</mgrwt>
</event>
<event>
 5    0  0.1014204E+000  0.2442525E+03  0.7546771E-02  0.1116992E+00
         21   -1    0    0  501  502  0.00000000000E+00  0.00000000000E+00  0.10825191335E+03  0.10825191335E+03  0.00000000000E+00 0. -1.
          2   -1    0    0  503    0 -0.00000000000E+00 -0.00000000000E+00 -0.10952648451E+04  0.10952648451E+04  0.00000000000E+00 0.  1.
         25    1    1    2    0    0 -0.14152192629E+03  0.14582411747E+03 -0.82635096042E+02  0.25248106455E+03  0.12500000000E+03 0.  0.
         21    1    1    2  503  502 -0.38955691437E+02  0.58720325792E+01 -0.29536854453E+03  0.29798423408E+03  0.00000000000E+00 0.  1.
          2    1    1    2  501    0  0.18047761773E+03 -0.15169615005E+03 -0.60900929117E+03  0.65305145982E+03  0.00000000000E+00 0.  1.
<mgrwt>
<rscale>  4 0.24425247E+03</rscale>
<asrwt>0</asrwt>
<pdfrwt beam="1">  1       21 0.16654141E-01 0.24425247E+03</pdfrwt>
<pdfrwt beam="2">  1        2 0.16850228E+00 0.24425247E+03</pdfrwt>
<totfact> 0.93479230E+03</totfact>
</mgrwt>
</event>
<event>
 5    0  0.1014204E+000  0.2990323E+03  0.7546771E-02  0.1085725E+00
         21   -1    0    0  501  502  0.00000000000E+00  0.00000000000E+00  0.83997590456E+02  0.83997590456E+02  0.00000000000E+00 0. -1.
          2   -1    0    0  503    0 -0.00000000000E+00 -0.00000000000E+00 -0.17877431589E+04  0.17877431589E+04  0.00000000000E+00 0. -1.
         25    1    1    2    0    0  0.31008951551E+02 -0.28096545783E+03 -0.31169388269E+03  0.43895469023E+03  0.12500000000E+03 0.  0.
         21    1    1    2  503  502 -0.74388049594E+02  0.39881311978E+02 -0.22514668254E+03  0.24044776902E+03  0.00000000000E+00 0.  1.
          2    1    1    2  501    0  0.43379098043E+02  0.24108414585E+03 -0.11669050032E+04  0.11923382901E+04  0.00000000000E+00 0. -1.
<mgrwt>
<rscale>  4 0.29903230E+03</rscale>
<asrwt>0</asrwt>
<pdfrwt beam="1">  1       21 0.12922707E-01 0.29903230E+03</pdfrwt>
<pdfrwt beam="2">  1        2 0.27503740E+00 0.29903230E+03</pdfrwt>
<totfact> 0.61268675E+03</totfact>
</mgrwt>
</event>
<event>
 5    0  0.1014204E+000  0.2552163E+03  0.7546771E-02  0.1110052E+00
         21   -1    0    0  503  502  0.00000000000E+00  0.00000000000E+00  0.37581396319E+03  0.37581396319E+03  0.00000000000E+00 0. -1.
         -2   -1    0    0    0  501 -0.00000000000E+00 -0.00000000000E+00 -0.14012568471E+04  0.14012568471E+04  0.00000000000E+00 0.  1.
         25    1    1    2    0    0 -0.10077991174E+03 -0.19946718539E+03  0.31728077292E+03  0.40772029325E+03  0.12500000000E+03 0.  0.
         21    1    1    2  503  501  0.33076078114E+02  0.15706940743E+02 -0.50533821631E+02  0.62405144496E+02  0.00000000000E+00 0.  1.
         -2    1    1    2    0  502  0.67703833621E+02  0.18376024465E+03 -0.12921898352E+04  0.13069453726E+04  0.00000000000E+00 0.  1.
<mgrwt>
<rscale>  4 0.25521635E+03</rscale>
<asrwt>0</asrwt>
<pdfrwt beam="1">  1       21 0.57817532E-01 0.25521635E+03</pdfrwt>
<pdfrwt beam="2">  1       -2 0.21557798E+00 0.25521635E+03</pdfrwt>
<totfact> 0.25875868E+01</totfact>
</mgrwt>
</event>
<event>
 5    0  0.1014204E+000  0.2454271E+03  0.7546771E-02  0.1116229E+00
         21   -1    0    0  501  502  0.00000000000E+00  0.00000000000E+00  0.10045328690E+04  0.10045328690E+04  0.00000000000E+00 0.  1.
          2   -1    0    0  503    0 -0.00000000000E+00 -0.00000000000E+00 -0.12107817261E+03  0.12107817261E+03  0.00000000000E+00 0.  1.
         25    1    1    2    0    0 -0.94778374334E+02 -0.19554967499E+03  0.79073914780E+03  0.82952758573E+03  0.12500000000E+03 0.  0.
         21    1    1    2  503  502  0.75801229302E+02  0.16551722171E+01  0.63875261225E+02  0.99139371368E+02  0.00000000000E+00 0.  1.
          2    1    1    2  501    0  0.18977145032E+02  0.19389450277E+03  0.28840287331E+02  0.19694408448E+03  0.00000000000E+00 0.  1.
<mgrwt>
<rscale>  4 0.24542709E+03</rscale>
<asrwt>0</asrwt>
<pdfrwt beam="1">  1       21 0.15454351E+00 0.24542709E+03</pdfrwt>
<pdfrwt beam="2">  1        2 0.18627412E-01 0.24542709E+03</pdfrwt>
<totfact> 0.99065682E+02</totfact>
</mgrwt>
</event>
<event>
 5    0  0.1014204E+000  0.3635617E+03  0.7546771E-02  0.1057182E+00
         21   -1    0    0  501  502  0.00000000000E+00  0.00000000000E+00  0.56750908849E+03  0.56750908849E+03  0.00000000000E+00 0.  1.
          2   -1    0    0  503    0 -0.00000000000E+00 -0.00000000000E+00 -0.69969274185E+03  0.69969274185E+03  0.00000000000E+00 0.  1.
         25    1    1    2    0    0  0.32686410939E+03 -0.10221329238E+03  0.44169959345E+03  0.57272265016E+03  0.12500000000E+03 0.  0.
         21    1    1    2  503  502 -0.16239630063E+02 -0.21911286389E+02 -0.16005658664E+03  0.16236360732E+03  0.00000000000E+00 0. -1.
          2    1    1    2  501    0 -0.31062447933E+03  0.12412457877E+03 -0.41382666018E+03  0.53211557286E+03  0.00000000000E+00 0.  1.
<mgrwt>
<rscale>  4 0.36356166E+03</rscale>
<asrwt>0</asrwt>
<pdfrwt beam="1">  1       21 0.87309090E-01 0.36356166E+03</pdfrwt>
<pdfrwt beam="2">  1        2 0.10764504E+00 0.36356166E+03</pdfrwt>
<totfact> 0.55084300E+02</totfact>
</mgrwt>
</event>
<event>
 5    0  0.1014204E+000  0.2518678E+03  0.7546771E-02  0.1112130E+00
          1   -1    0    0  503    0 -0.00000000000E+00  0.00000000000E+00  0.70304385213E+03  0.70304385213E+03  0.00000000000E+00 0.  1.
         21   -1    0    0  501  502  0.00000000000E+00 -0.00000000000E+00 -0.64615423125E+03  0.64615423125E+03  0.00000000000E+00 0. -1.
         25    1    1    2    0    0 -0.14268502312E+03  0.16411287869E+03 -0.58898205781E+03  0.64016944413E+03  0.12500000000E+03 0.  0.
         21    1    1    2  503  502 -0.20648088917E+02  0.23489673304E+02  0.24530191850E+02  0.39747184052E+02  0.00000000000E+00 0. -1.
          1    1    1    2  501    0  0.16333311204E+03 -0.18760255199E+03  0.62134148684E+03  0.66928145520E+03  0.00000000000E+00 0.  1.
<mgrwt>
<rscale>  4 0.25186777E+03</rscale>
<asrwt>0</asrwt>
<pdfrwt beam="1">  1       21 0.99408343E-01 0.25186777E+03</pdfrwt>
<pdfrwt beam="2">  1        1 0.10816059E+00 0.25186777E+03</pdfrwt>
<totfact> 0.24990715E+02</totfact>
</mgrwt>
</event>
<event>
 5    0  0.1014204E+000  0.2626736E+03  0.7546771E-02  0.1105547E+00
         -4   -1    0    0    0  501 -0.00000000000E+00  0.00000000000E+00  0.25696802044E+03  0.25696802044E+03  0.00000000000E+00 0.  1.
         21   -1    0    0  503  502  0.00000000000E+00 -0.00000000000E+00 -0.44279636449E+03  0.44279636449E+03  0.00000000000E+00 0.  1.
         25    1    1    2    0    0 -0.20963294352E+03 -0.10034098171E+03 -0.64629678561E+02  0.27169151435E+03  0.12500000000E+03 0.  0.
         21    1    1    2  503  501 -0.15110604864E+02  0.43415132223E+02  0.98482326775E+02  0.10868290009E+03  0.00000000000E+00 0.  1.
         -4    1    1    2    0  502  0.22474354839E+03  0.56925849488E+02 -0.21968099227E+03  0.31938997048E+03  0.00000000000E+00 0.  1.
<mgrwt>
<rscale>  4 0.26267364E+03</rscale>
<asrwt>0</asrwt>
<pdfrwt beam="1">  1       21 0.68122518E-01 0.26267364E+03</pdfrwt>
<pdfrwt beam="2">  1       -4 0.39533542E-01 0.26267364E+03</pdfrwt>
<totfact> 0.51164222E+02</totfact>
</mgrwt>
</event>
<event>
 5    0  0.1014204E+000  0.2448813E+03  0.7546771E-02  0.1116583E+00
         -4   -1    0    0    0  501 -0.00000000000E+00  0.00000000000E+00  0.38587906080E+03  0.38587906080E+03  0.00000000000E+00 0.  1.
         21   -1    0    0  503  502  0.00000000000E+00 -0.00000000000E+00 -0.31539540827E+03  0.31539540827E+03  0.00000000000E+00 0.  1.
         25    1    1    2    0    0  0.90253776442E+02  0.19025279377E+03 -0.22726695675E+03  0.33409151341E+03  0.12500000000E+03 0.  0.
         21    1    1    2  503  501 -0.73430438379E-01 -0.21583529851E+02  0.17006801466E+02  0.27478818187E+02  0.00000000000E+00 0. -1.
         -4    1    1    2    0  502 -0.90180346004E+02 -0.16866926392E+03  0.28074380781E+03  0.33970413748E+03  0.00000000000E+00 0.  1.
<mgrwt>
<rscale>  4 0.24488134E+03</rscale>
<asrwt>0</asrwt>
<pdfrwt beam="1">  1       21 0.48522370E-01 0.24488134E+03</pdfrwt>
<pdfrwt beam="2">  1       -4 0.59366009E-01 0.24488134E+03</pdfrwt>
<totfact> 0.46079041E+02</totfact>
</mgrwt>
</event>
<event>
 5    0  0.1014204E+000  0.2280518E+03  0.7546771E-02  0.1128019E+00
         21   -1    0    0  501  502  0.00000000000E+00  0.00000000000E+00  0.28226640988E+03  0.28226640988E+03  0.00000000000E+00 0.  1.
          2   -1    0    0  503    0 -0.00000000000E+00 -0.00000000000E+00 -0.12534910866E+04  0.12534910866E+04  0.00000000000E+00 0.  1.
         25    1    1    2    0    0  0.14028163039E+03 -0.15135880375E+03  0.20770368744E+03  0.31836181472E+03  0.12500000000E+03 0.  0.
         21    1    1    2  503  502 -0.12249738567E+03  0.42905310343E+02 -0.24715388460E+03  0.27916217119E+03  0.00000000000E+00 0.  1.
          2    1    1    2  501    0 -0.17784244715E+02  0.10845349341E+03 -0.93177447952E+03  0.93823351053E+03  0.00000000000E+00 0.  1.
<mgrwt>
<rscale>  4 0.22805179E+03</rscale>
<asrwt>0</asrwt>
<pdfrwt beam="1">  1       21 0.43425602E-01 0.22805179E+03</pdfrwt>
<pdfrwt beam="2">  1        2 0.19284478E+00 0.22805179E+03</pdfrwt>
<totfact> 0.11910222E+03</totfact>
</mgrwt>
</event>
<event>
 5    0  0.1014204E+000  0.2522084E+03  0.7546771E-02  0.1111917E+00
         21   -1    0    0  501  502  0.00000000000E+00  0.00000000000E+00  0.41903775651E+03  0.41903775651E+03  0.00000000000E+00 0.  1.
          3   -1    0    0  503    0 -0.00000000000E+00 -0.00000000000E+00 -0.86100923501E+03  0.86100923501E+03  0.00000000000E+00 0. -1.
         25    1    1    2    0    0 -0.15522785340E+03  0.15417686405E+03  0.35664449273E+03  0.43667663789E+03  0.12500000000E+03 0.  0.
         21    1    1    2  503  502  0.24672796315E+02  0.31987328463E+02 -0.79703266112E+02  0.89356290708E+02  0.00000000000E+00 0.  1.
          3    1    1    2  501    0  0.13055505709E+03 -0.18616419251E+03 -0.71891270512E+03  0.75401406292E+03  0.00000000000E+00 0. -1.
<mgrwt>
<rscale>  4 0.25220842E+03</rscale>
<asrwt>0</asrwt>
<pdfrwt beam="1">  1       21 0.64467347E-01 0.25220842E+03</pdfrwt>
<pdfrwt beam="2">  1        3 0.13246296E+00 0.25220842E+03</pdfrwt>
<totfact> 0.50073691E+01</totfact>
</mgrwt>
</event>
<event>
 5    0  0.1014204E+000  0.2881814E+03  0.7546771E-02  0.1091302E+00
          1   -1    0    0  503    0 -0.00000000000E+00  0.00000000000E+00  0.77865600358E+03  0.77865600358E+03  0.00000000000E+00 0. -1.
         21   -1    0    0  501  502  0.00000000000E+00 -0.00000000000E+00 -0.15754394118E+03  0.15754394118E+03  0.00000000000E+00 0. -1.
         25    1    1    2    0    0 -0.19033260462E+02  0.26403278427E+03  0.81682011286E+02  0.30392849018E+03  0.12500000000E+03 0.  0.
         21    1    1    2  503  502 -0.17541447569E+02 -0.15616454675E+02  0.24151404575E+03  0.24265327183E+03  0.00000000000E+00 0.  1.
          1    1    1    2  501    0  0.36574708031E+02 -0.24841632959E+03  0.29791600536E+03  0.38961818275E+03  0.00000000000E+00 0. -1.
<mgrwt>
<rscale>  4 0.28818142E+03</rscale>
<asrwt>0</asrwt>
<pdfrwt beam="1">  1       21 0.24237530E-01 0.28818142E+03</pdfrwt>
<pdfrwt beam="2">  1        1 0.11979323E+00 0.28818142E+03</pdfrwt>
<totfact> 0.41828262E+03</totfact>
</mgrwt>
</event>
<event>
 5    0  0.1014204E+000  0.3013294E+03  0.7546771E-02  0.1084578E+00
         21   -1    0    0  501  502  0.00000000000E+00  0.00000000000E+00  0.75537584306E+03  0.75537584306E+03  0.00000000000E+00 0.  1.
          2   -1    0    0  503    0 -0.00000000000E+00 -0.00000000000E+00 -0.31851912840E+04  0.31851912840E+04  0.00000000000E+00 0.  1.
         25    1    1    2    0    0  0.14977137070E+03 -0.22922422935E+03  0.71504353002E+03  0.77581406317E+03  0.12500000000E+03 0.  0.
         21    1    1    2  503  502 -0.85720637802E+01 -0.44993173323E+02 -0.42583438492E+03  0.42829054309E+03  0.00000000000E+00 0.  1.
          2    1    1    2  501    0 -0.14119930692E+03  0.27421740267E+03 -0.27190245861E+04  0.27364625208E+04  0.00000000000E+00 0.  1.
<mgrwt>
<rscale>  4 0.30132942E+03</rscale>
<asrwt>0</asrwt>
<pdfrwt beam="1">  1       21 0.11621167E+00 0.30132942E+03</pdfrwt>
<pdfrwt beam="2">  1        2 0.49002943E+00 0.30132942E+03</pdfrwt>
<totfact> 0.10789068E+01</totfact>
</mgrwt>
</event>
<event>
 5    0  0.1014204E+000  0.4235511E+03  0.7546771E-02  0.1035917E+00
          1   -1    0    0  503    0 -0.00000000000E+00  0.00000000000E+00  0.46456189114E+03  0.46456189114E+03  0.00000000000E+00 0.  1.
         21   -1    0    0  501  502  0.00000000000E+00 -0.00000000000E+00 -0.13922028286E+04  0.13922028286E+04  0.00000000000E+00 0.  1.
         25    1    1    2    0    0 -0.20550509471E+03  0.35331407285E+03 -0.12085974469E+04  0.12819500640E+04  0.12500000000E+03 0.  0.
         21    1    1    2  503  502  0.11117353699E+03  0.12096703648E+02  0.14339585687E+02  0.11274532932E+03  0.00000000000E+00 0.  1.
          1    1    1    2  501    0  0.94331557722E+02 -0.36541077650E+03  0.26661692375E+03  0.46206932639E+03  0.00000000000E+00 0.  1.
<mgrwt>
<rscale>  4 0.42355110E+03</rscale>
<asrwt>0</asrwt>
<pdfrwt beam="1">  1       21 0.21418505E+00 0.42355110E+03</pdfrwt>
<pdfrwt beam="2">  1        1 0.71471060E-01 0.42355110E+03</pdfrwt>
<totfact> 0.51258563E+01</totfact>
</mgrwt>
</event>
<event>
 5    0  0.1014204E+000  0.2790278E+03  0.7546771E-02  0.1096221E+00
          2   -1    0    0  503    0 -0.00000000000E+00  0.00000000000E+00  0.12140764428E+04  0.12140764428E+04  0.00000000000E+00 0.  1.
         21   -1    0    0  501  502  0.00000000000E+00 -0.00000000000E+00 -0.12210871637E+03  0.12210871637E+03  0.00000000000E+00 0. -1.
         25    1    1    2    0    0  0.19348300956E+03  0.13880188172E+03  0.13469528947E+03  0.30078141293E+03  0.12500000000E+03 0.  0.
         21    1    1    2  503  502  0.22574893966E+02  0.32075029584E+02  0.50024461515E+03  0.50177994016E+03  0.00000000000E+00 0.  1.
          2    1    1    2  501    0 -0.21605790353E+03 -0.17087691131E+03  0.45702782181E+03  0.53362380607E+03  0.00000000000E+00 0.  1.
<mgrwt>
<rscale>  4 0.27902781E+03</rscale>
<asrwt>0</asrwt>
<pdfrwt beam="1">  1       21 0.18785957E-01 0.27902781E+03</pdfrwt>
<pdfrwt beam="2">  1        2 0.18678098E+00 0.27902781E+03</pdfrwt>
<totfact> 0.63184849E+03</totfact>
</mgrwt>
</event>
<event>
 5    0  0.1014204E+000  0.2472975E+03  0.7546771E-02  0.1115025E+00
          1   -1    0    0  503    0 -0.00000000000E+00  0.00000000000E+00  0.81556187287E+03  0.81556187287E+03  0.00000000000E+00 0.  1.
         21   -1    0    0  501  502  0.00000000000E+00 -0.00000000000E+00 -0.12942954923E+03  0.12942954923E+03  0.00000000000E+00 0.  1.
         25    1    1    2    0    0  0.11877967788E+03 -0.19168680700E+03  0.62264127836E+02  0.26524378498E+03  0.12500000000E+03 0.  0.
         21    1    1    2  503  502 -0.14121088885E+02  0.34472757424E+02  0.31866055688E+03  0.32083068224E+03  0.00000000000E+00 0.  1.
          1    1    1    2  501    0 -0.10465858900E+03  0.15721404958E+03  0.30520763892E+03  0.35891695487E+03  0.00000000000E+00 0.  1.
<mgrwt>
<rscale>  4 0.24729748E+03</rscale>
<asrwt>0</asrwt>
<pdfrwt beam="1">  1       21 0.19912239E-01 0.24729748E+03</pdfrwt>
<pdfrwt beam="2">  1        1 0.12547105E+00 0.24729748E+03</pdfrwt>
<totfact> 0.57200416E+03</totfact>
</mgrwt>
</event>
<event>
 5    0  0.1014204E+000  0.2490238E+03  0.7546771E-02  0.1113923E+00
          2   -1    0    0  503    0 -0.00000000000E+00  0.00000000000E+00  0.99806975028E+03  0.99806975028E+03  0.00000000000E+00 0.  1.
         21   -1    0    0  501  502  0.00000000000E+00 -0.00000000000E+00 -0.32350008819E+03  0.32350008819E+03  0.00000000000E+00 0.  1.
         25    1    1    2    0    0 -0.13147599444E+03 -0.16988923432E+03 -0.22395970905E+03  0.33456126544E+03  0.12500000000E+03 0.  0.
         21    1    1    2  503  502  0.86939394500E+02 -0.75806518770E+02  0.10812978726E+03  0.15810483072E+03  0.00000000000E+00 0.  1.
          2    1    1    2  501    0  0.44536599938E+02  0.24569575309E+03  0.79039958388E+03  0.82890374231E+03  0.00000000000E+00 0.  1.
<mgrwt>
<rscale>  4 0.24902383E+03</rscale>
<asrwt>0</asrwt>
<pdfrwt beam="1">  1       21 0.49769245E-01 0.24902383E+03</pdfrwt>
<pdfrwt beam="2">  1        2 0.15354919E+00 0.24902383E+03</pdfrwt>
<totfact> 0.12515262E+03</totfact>
</mgrwt>
</event>
<event>
 5    0  0.1014204E+000  0.2960868E+03  0.7546771E-02  0.1087213E+00
         -2   -1    0    0    0  501 -0.00000000000E+00  0.00000000000E+00  0.26329993596E+04  0.26329993596E+04  0.00000000000E+00 0.  1.
         21   -1    0    0  503  502  0.00000000000E+00 -0.00000000000E+00 -0.77533088936E+03  0.77533088936E+03  0.00000000000E+00 0.  1.
         25    1    1    2    0    0  0.26437964705E+03  0.68846122326E+02 -0.73375559525E+03  0.79287997824E+03  0.12500000000E+03 0.  0.
         21    1    1    2  503  501 -0.15859770891E+03  0.44065834943E+02  0.76629918280E+03  0.78377896670E+03  0.00000000000E+00 0.  1.
         -2    1    1    2    0  502 -0.10578193814E+03 -0.11291195727E+03  0.18251248827E+04  0.18316713040E+04  0.00000000000E+00 0.  1.
<mgrwt>
<rscale>  4 0.29608684E+03</rscale>
<asrwt>0</asrwt>
<pdfrwt beam="1">  1       21 0.11928168E+00 0.29608684E+03</pdfrwt>
<pdfrwt beam="2">  1       -2 0.40507682E+00 0.29608684E+03</pdfrwt>
<totfact> 0.34194201E-01</totfact>
</mgrwt>
</event>
<event>
 5    0  0.1014204E+000  0.4415098E+03  0.7546771E-02  0.1030285E+00
          2   -1    0    0  503    0 -0.00000000000E+00  0.00000000000E+00  0.23862981286E+04  0.23862981286E+04  0.00000000000E+00 0.  1.
         21   -1    0    0  501  502  0.00000000000E+00 -0.00000000000E+00 -0.34497261402E+03  0.34497261402E+03  0.00000000000E+00 0.  1.
         25    1    1    2    0    0 -0.27207443924E+02  0.42663387226E+03 -0.16604808577E+03  0.47534584541E+03  0.12500000000E+03 0.  0.
         21    1    1    2  503  502 -0.10075036532E+02 -0.45739460208E+02  0.66984069141E+03  0.67147610267E+03  0.00000000000E+00 0. -1.
          2    1    1    2  501    0  0.37282480456E+02 -0.38089441205E+03  0.15375329090E+04  0.15844487946E+04  0.00000000000E+00 0.  1.
<mgrwt>
<rscale>  4 0.44150984E+03</rscale>
<asrwt>0</asrwt>
<pdfrwt beam="1">  1       21 0.53072711E-01 0.44150984E+03</pdfrwt>
<pdfrwt beam="2">  1        2 0.36712278E+00 0.44150984E+03</pdfrwt>
<totfact> 0.17464436E+02</totfact>
</mgrwt>
</event>
<event>
 5    0  0.1014204E+000  0.2532779E+03  0.7546771E-02  0.1111251E+00
          1   -1    0    0  503    0 -0.00000000000E+00  0.00000000000E+00  0.91167495833E+03  0.91167495833E+03  0.00000000000E+00 0.  1.
         21   -1    0    0  501  502  0.00000000000E+00 -0.00000000000E+00 -0.25914252281E+03  0.25914252281E+03  0.00000000000E+00 0.  1.
         25    1    1    2    0    0  0.17817118321E+03 -0.12346391286E+03 -0.14178182546E+03  0.28760284132E+03  0.12500000000E+03 0.  0.
         21    1    1    2  503  502  0.83967625119E+02  0.59974482829E+02  0.12821588589E+03  0.16458072199E+03  0.00000000000E+00 0.  1.
          1    1    1    2  501    0 -0.26213880833E+03  0.63489430027E+02  0.66609837509E+03  0.71863391783E+03  0.00000000000E+00 0.  1.
<mgrwt>
<rscale>  4 0.25327794E+03</rscale>
<asrwt>0</asrwt>
<pdfrwt beam="1">  1       21 0.39868081E-01 0.25327794E+03</pdfrwt>
<pdfrwt beam="2">  1        1 0.14025768E+00 0.25327794E+03</pdfrwt>
<totfact> 0.12346184E+03</totfact>
</mgrwt>
</event>
