<event>
 5    0  0.1856407E+000  0.2518978E+03  0.7546771E-02  0.1112111E+00
         21   -1    0    0  502  501  0.00000000000E+00  0.00000000000E+00  0.45806637530E+03  0.45806637530E+03  0.00000000000E+00 0.  1.
         21   -1    0    0  503  502 -0.00000000000E+00 -0.00000000000E+00 -0.37401060012E+03  0.37401060012E+03  0.00000000000E+00 0. -1.
         25    1    1    2    0    0 -0.21050997616E+03  0.59271110297E+02  0.38330937029E+03  0.45867045679E+03  0.12500000000E+03 0.  0.
         21    1    1    2  503  504  0.90137430574E+02 -0.25326345196E+02 -0.16649483431E+03  0.19101494707E+03  0.00000000000E+00 0.  1.
         21    1    1    2  504  501  0.12037254559E+03 -0.33944765101E+02 -0.13275876080E+03  0.18239157157E+03  0.00000000000E+00 0. -1.
<mgrwt>
<rscale>  4 0.25189783E+03</rscale>
<asrwt>0</asrwt>
<pdfrwt beam="1">  1       21 0.70471750E-01 0.25189783E+03</pdfrwt>
<pdfrwt beam="2">  1       21 0.57540092E-01 0.25189783E+03</pdfrwt>
<totfact> 0.49637519E+03</totfact>
</mgrwt>
</event>
<event>
 5    0  0.1856407E+000  0.2560654E+03  0.7546771E-02  0.1109531E+00
         21   -1    0    0  502  501  0.00000000000E+00  0.00000000000E+00  0.68396239441E+02  0.68396239441E+02  0.00000000000E+00 0.  1.
         21   -1    0    0  503  502 -0.00000000000E+00 -0.00000000000E+00 -0.11159919083E+04  0.11159919083E+04  0.00000000000E+00 0.  1.
         25    1    1    2    0    0  0.21003254425E+03 -0.76359859299E+02 -0.83677020077E+03  0.87507363499E+03  0.12500000000E+03 0.  0.
         21    1    1    2  503  504 -0.14200006837E+02  0.14630130534E+02 -0.26089834757E+02  0.33111333275E+02  0.00000000000E+00 0.  1.
         21    1    1    2  504  501 -0.19583253741E+03  0.61729728765E+02 -0.18473563329E+03  0.27620317943E+03  0.00000000000E+00 0.  1.
<mgrwt>
<rscale>  4 0.25606542E+03</rscale>
<asrwt>0</asrwt>
<pdfrwt beam="1">  1       21 0.10522497E-01 0.25606542E+03</pdfrwt>
<pdfrwt beam="2">  1       21 0.17169108E+00 0.25606542E+03</pdfrwt>
<totfact> 0.14762690E+04</totfact>
</mgrwt>
</event>
<event>
 5    0  0.1856407E+000  0.2748674E+03  0.7546771E-02  0.1098526E+00
         21   -1    0    0  502  501  0.00000000000E+00  0.00000000000E+00  0.27107771497E+03  0.27107771497E+03  0.00000000000E+00 0. -1.
         21   -1    0    0  503  502 -0.00000000000E+00 -0.00000000000E+00 -0.67520728676E+03  0.67520728676E+03  0.00000000000E+00 0. -1.
         25    1    1    2    0    0 -0.22788124769E+03  0.89427150475E+02  0.16625921745E+03  0.32123854949E+03  0.12500000000E+03 0.  0.
         21    1    1    2  503  504  0.19962017172E+03 -0.90710461789E+02 -0.54330719038E+03  0.58588335354E+03  0.00000000000E+00 0. -1.
         21    1    1    2  504  501  0.28261075974E+02  0.12833113140E+01 -0.27081598863E+02  0.39163098704E+02  0.00000000000E+00 0. -1.
<mgrwt>
<rscale>  4 0.27486738E+03</rscale>
<asrwt>0</asrwt>
<pdfrwt beam="1">  1       21 0.41704265E-01 0.27486738E+03</pdfrwt>
<pdfrwt beam="2">  1       21 0.10387804E+00 0.27486738E+03</pdfrwt>
<totfact> 0.39160899E+03</totfact>
</mgrwt>
</event>
<event>
 5    0  0.1856407E+000  0.3202827E+03  0.7546771E-02  0.1075519E+00
         21   -1    0    0  502  501  0.00000000000E+00  0.00000000000E+00  0.66080510996E+03  0.66080510996E+03  0.00000000000E+00 0. -1.
         21   -1    0    0  503  502 -0.00000000000E+00 -0.00000000000E+00 -0.24208350757E+03  0.24208350757E+03  0.00000000000E+00 0. -1.
         25    1    1    2    0    0 -0.26419426458E+03 -0.13576491475E+03 -0.51296393145E+02  0.32632352270E+03  0.12500000000E+03 0.  0.
         21    1    1    2  503  504  0.26921641493E+03  0.10655336300E+03  0.35661826027E+03  0.45935572358E+03  0.00000000000E+00 0. -1.
         21    1    1    2  504  501 -0.50221503494E+01  0.29211551757E+02  0.11339973526E+03  0.11720937125E+03  0.00000000000E+00 0.  1.
<mgrwt>
<rscale>  4 0.32028268E+03</rscale>
<asrwt>0</asrwt>
<pdfrwt beam="1">  1       21 0.10166232E+00 0.32028268E+03</pdfrwt>
<pdfrwt beam="2">  1       21 0.37243617E-01 0.32028268E+03</pdfrwt>
<totfact> 0.50716177E+03</totfact>
</mgrwt>
</event>
<event>
 5    0  0.1856407E+000  0.2713097E+03  0.7546771E-02  0.1100532E+00
         21   -1    0    0  502  501  0.00000000000E+00  0.00000000000E+00  0.86780065291E+02  0.86780065291E+02  0.00000000000E+00 0.  1.
         21   -1    0    0  503  502 -0.00000000000E+00 -0.00000000000E+00 -0.10032054491E+04  0.10032054491E+04  0.00000000000E+00 0.  1.
         25    1    1    2    0    0 -0.58216114461E+02 -0.23365540767E+03 -0.23477840984E+03  0.35878944695E+03  0.12500000000E+03 0.  0.
         21    1    1    2  503  504  0.90015710999E+02  0.15297238931E+03 -0.43944415801E+03  0.47393517292E+03  0.00000000000E+00 0.  1.
         21    1    1    2  504  501 -0.31799596538E+02  0.80683018360E+02 -0.24220281593E+03  0.25726089449E+03  0.00000000000E+00 0.  1.
<mgrwt>
<rscale>  4 0.27130972E+03</rscale>
<asrwt>0</asrwt>
<pdfrwt beam="1">  1       21 0.13350780E-01 0.27130972E+03</pdfrwt>
<pdfrwt beam="2">  1       21 0.15433929E+00 0.27130972E+03</pdfrwt>
<totfact> 0.12776540E+04</totfact>
</mgrwt>
</event>
<event>
 5    0  0.2777042E+000  0.2454575E+03  0.7546771E-02  0.1116210E+00
         21   -1    0    0  502  501  0.00000000000E+00  0.00000000000E+00  0.81077641730E+02  0.81077641730E+02  0.00000000000E+00 0. -1.
         21   -1    0    0  503  502 -0.00000000000E+00 -0.00000000000E+00 -0.16515547945E+04  0.16515547945E+04  0.00000000000E+00 0.  1.
         25    1    1    2    0    0 -0.25768348848E+03 -0.57094713829E+02 -0.28096059905E+03  0.40524615335E+03  0.12500000000E+03 0.  0.
         21    1    1    2  503  504  0.19961238409E+03  0.42213370984E+02 -0.12137180227E+04  0.12307471353E+04  0.00000000000E+00 0.  1.
         21    1    1    2  504  501  0.58071104393E+02  0.14881342845E+02 -0.75798531038E+02  0.96639147543E+02  0.00000000000E+00 0.  1.
<mgrwt>
<rscale>  4 0.24545748E+03</rscale>
<asrwt>0</asrwt>
<pdfrwt beam="1">  1       21 0.12473484E-01 0.24545748E+03</pdfrwt>
<pdfrwt beam="2">  1       21 0.25408535E+00 0.24545748E+03</pdfrwt>
<totfact> 0.32705639E+03</totfact>
</mgrwt>
</event>
<event>
 5    0  0.1856407E+000  0.2955277E+03  0.7546771E-02  0.1087498E+00
         21   -1    0    0  502  501  0.00000000000E+00  0.00000000000E+00  0.20535762411E+03  0.20535762411E+03  0.00000000000E+00 0.  1.
         21   -1    0    0  503  502 -0.00000000000E+00 -0.00000000000E+00 -0.59055589425E+03  0.59055589425E+03  0.00000000000E+00 0. -1.
         25    1    1    2    0    0  0.62820489038E+02  0.26031748826E+03  0.19262389260E+02  0.29615477065E+03  0.12500000000E+03 0.  0.
         21    1    1    2  503  504 -0.61066448142E+02 -0.93935834869E+02 -0.88930772055E+02  0.14304451887E+03  0.00000000000E+00 0. -1.
         21    1    1    2  504  501 -0.17540408961E+01 -0.16638165339E+03 -0.31552988735E+03  0.35671422884E+03  0.00000000000E+00 0.  1.
<mgrwt>
<rscale>  4 0.29552768E+03</rscale>
<asrwt>0</asrwt>
<pdfrwt beam="1">  1       21 0.31593481E-01 0.29552768E+03</pdfrwt>
<pdfrwt beam="2">  1       21 0.90854751E-01 0.29552768E+03</pdfrwt>
<totfact> 0.93225537E+03</totfact>
</mgrwt>
</event>
<event>
 5    0  0.1856407E+000  0.2522197E+03  0.7546771E-02  0.1111910E+00
         21   -1    0    0  502  501  0.00000000000E+00  0.00000000000E+00  0.53754265140E+03  0.53754265140E+03  0.00000000000E+00 0. -1.
         21   -1    0    0  503  502 -0.00000000000E+00 -0.00000000000E+00 -0.13848468220E+03  0.13848468220E+03  0.00000000000E+00 0.  1.
         25    1    1    2    0    0  0.12202662439E+03  0.18193213611E+03  0.36355879606E+03  0.44248140910E+03  0.12500000000E+03 0.  0.
         21    1    1    2  503  504 -0.54361159480E+02 -0.14093224337E+03  0.14871243759E+02  0.15178335473E+03  0.00000000000E+00 0.  1.
         21    1    1    2  504  501 -0.67665464906E+02 -0.40999892732E+02  0.20627929386E+02  0.81762569772E+02  0.00000000000E+00 0. -1.
<mgrwt>
<rscale>  4 0.25221974E+03</rscale>
<asrwt>0</asrwt>
<pdfrwt beam="1">  1       21 0.82698868E-01 0.25221974E+03</pdfrwt>
<pdfrwt beam="2">  1       21 0.21305336E-01 0.25221974E+03</pdfrwt>
<totfact> 0.25350598E+04</totfact>
</mgrwt>
</event>
<event>
 5    0  0.1856407E+000  0.5392724E+03  0.7546771E-02  0.1004008E+00
         21   -1    0    0  502  501  0.00000000000E+00  0.00000000000E+00  0.17016857999E+03  0.17016857999E+03  0.00000000000E+00 0. -1.
         21   -1    0    0  503  502 -0.00000000000E+00 -0.00000000000E+00 -0.22545940903E+04  0.22545940903E+04  0.00000000000E+00 0. -1.
         25    1    1    2    0    0  0.40793052781E+03  0.24122554545E+03 -0.68249235732E+03  0.84024871146E+03  0.12500000000E+03 0.  0.
         21    1    1    2  503  504 -0.50794486866E+03 -0.31401100954E+03 -0.10079479718E+04  0.11715673338E+04  0.00000000000E+00 0. -1.
         21    1    1    2  504  501  0.10001434084E+03  0.72785464096E+02 -0.39398518120E+03  0.41294662508E+03  0.00000000000E+00 0.  1.
<mgrwt>
<rscale>  4 0.53927238E+03</rscale>
<asrwt>0</asrwt>
<pdfrwt beam="1">  1       21 0.26179785E-01 0.53927238E+03</pdfrwt>
<pdfrwt beam="2">  1       21 0.34686058E+00 0.53927238E+03</pdfrwt>
<totfact> 0.18541591E+02</totfact>
</mgrwt>
</event>
