<event>
 5    0  0.4115852E+000  0.2483760E+03  0.7546771E-02  0.1114335E+00
         21   -1    0    0  503  502  0.00000000000E+00  0.00000000000E+00  0.48648667764E+02  0.48648667764E+02  0.00000000000E+00 0.  1.
          2   -1    0    0  502    0 -0.00000000000E+00 -0.00000000000E+00 -0.22766135693E+04  0.22766135693E+04  0.00000000000E+00 0. -1.
         25    1    1    2    0    0 -0.25938747689E+03 -0.38137077815E+02 -0.77421620879E+03  0.82690509602E+03  0.12500000000E+03 0.  0.
         21    1    1    2  503  501  0.60770885326E+02  0.31255099332E+01 -0.46119804114E+02  0.76353818812E+02  0.00000000000E+00 0.  1.
          2    1    1    2  501    0  0.19861659156E+03  0.35011567882E+02 -0.14076288887E+04  0.14220033223E+04  0.00000000000E+00 0. -1.
<mgrwt>
<rscale>  4 0.24837599E+03</rscale>
<asrwt>0</asrwt>
<pdfrwt beam="1">  1       21 0.74844099E-02 0.24837599E+03</pdfrwt>
<pdfrwt beam="2">  1        2 0.35024826E+00 0.24837599E+03</pdfrwt>
<totfact> 0.90850359E+03</totfact>
</mgrwt>
</event>
<event>
 5    0  0.4115852E+000  0.9350347E+03  0.7546771E-02  0.9382816E-01
         21   -1    0    0  503  502  0.00000000000E+00  0.00000000000E+00  0.43715459411E+03  0.43715459411E+03  0.00000000000E+00 0. -1.
          1   -1    0    0  502    0 -0.00000000000E+00 -0.00000000000E+00 -0.22947783117E+04  0.22947783117E+04  0.00000000000E+00 0. -1.
         25    1    1    2    0    0 -0.69883988955E+03 -0.63895056000E+03 -0.95718830521E+03  0.13522091040E+04  0.12500000000E+03 0.  0.
         21    1    1    2  503  501  0.24456788150E+02  0.30956663919E+02  0.51048263102E+02  0.64516468388E+02  0.00000000000E+00 0. -1.
          1    1    1    2  501    0  0.67438310140E+03  0.60799389608E+03 -0.95148367552E+03  0.13152073334E+04  0.00000000000E+00 0. -1.
<mgrwt>
<rscale>  4 0.93503468E+03</rscale>
<asrwt>0</asrwt>
<pdfrwt beam="1">  1       21 0.67254553E-01 0.93503468E+03</pdfrwt>
<pdfrwt beam="2">  1        1 0.35304282E+00 0.93503468E+03</pdfrwt>
<totfact> 0.37037168E+01</totfact>
</mgrwt>
</event>
<event>
 5    0  0.4115852E+000  0.2777671E+03  0.7546771E-02  0.1096915E+00
         21   -1    0    0  501  502  0.00000000000E+00  0.00000000000E+00  0.22381235569E+03  0.22381235569E+03  0.00000000000E+00 0.  1.
         -2   -1    0    0    0  501 -0.00000000000E+00 -0.00000000000E+00 -0.61430532747E+03  0.61430532747E+03  0.00000000000E+00 0.  1.
         25    1    1    2    0    0 -0.27446648884E+03  0.81405525370E+02 -0.29184262924E+01  0.31239755163E+03  0.12500000000E+03 0.  0.
         21    1    1    2  503  502  0.48706473801E+02  0.18344645339E+00  0.20043419593E+02  0.52669658359E+02  0.00000000000E+00 0. -1.
         -2    1    1    2    0  503  0.22576001504E+03 -0.81588971823E+02 -0.40761796508E+03  0.47305047317E+03  0.00000000000E+00 0.  1.
<mgrwt>
<rscale>  4 0.27776715E+03</rscale>
<asrwt>0</asrwt>
<pdfrwt beam="1">  1       21 0.34432670E-01 0.27776715E+03</pdfrwt>
<pdfrwt beam="2">  1       -2 0.94508512E-01 0.27776715E+03</pdfrwt>
<totfact> 0.63455734E+02</totfact>
</mgrwt>
</event>
<event>
 5    0  0.4115852E+000  0.1858948E+03  0.7546771E-02  0.1162217E+00
          2   -1    0    0  502    0 -0.00000000000E+00  0.00000000000E+00  0.95220695563E+03  0.95220695563E+03  0.00000000000E+00 0. -1.
         21   -1    0    0  503  502  0.00000000000E+00 -0.00000000000E+00 -0.10888488141E+04  0.10888488141E+04  0.00000000000E+00 0.  1.
         25    1    1    2    0    0  0.35014681392E+02  0.23020388744E+03  0.48648122068E+03  0.55363240131E+03  0.12500000000E+03 0.  0.
         21    1    1    2  503  501 -0.21916550748E+02 -0.13500999748E+03 -0.10454211986E+04  0.10543308385E+04  0.00000000000E+00 0.  1.
          2    1    1    2  501    0 -0.13098130643E+02 -0.95193889958E+02  0.42229811947E+03  0.43309252986E+03  0.00000000000E+00 0. -1.
<mgrwt>
<rscale>  4 0.18589484E+03</rscale>
<asrwt>0</asrwt>
<pdfrwt beam="1">  1       21 0.16751520E+00 0.18589484E+03</pdfrwt>
<pdfrwt beam="2">  1        2 0.14649338E+00 0.18589484E+03</pdfrwt>
<totfact> 0.79930102E+01</totfact>
</mgrwt>
</event>
<event>
 5    0  0.4115852E+000  0.2218707E+03  0.7546771E-02  0.1132496E+00
         21   -1    0    0  503  502  0.00000000000E+00  0.00000000000E+00  0.11764279165E+03  0.11764279165E+03  0.00000000000E+00 0.  1.
          2   -1    0    0  502    0 -0.00000000000E+00 -0.00000000000E+00 -0.15211837363E+04  0.15211837363E+04  0.00000000000E+00 0.  1.
         25    1    1    2    0    0  0.50180685232E+02 -0.30321649937E+03 -0.24358214735E+03  0.41160127450E+03  0.12500000000E+03 0.  0.
         21    1    1    2  503  501 -0.73507723055E+02  0.13175497753E+03 -0.19334492907E+03  0.24524481860E+03  0.00000000000E+00 0.  1.
          2    1    1    2  501    0  0.23327037823E+02  0.17146152184E+03 -0.96661386828E+03  0.98198043489E+03  0.00000000000E+00 0.  1.
<mgrwt>
<rscale>  4 0.22187072E+03</rscale>
<asrwt>0</asrwt>
<pdfrwt beam="1">  1       21 0.18098891E-01 0.22187072E+03</pdfrwt>
<pdfrwt beam="2">  1        2 0.23402826E+00 0.22187072E+03</pdfrwt>
<totfact> 0.46920330E+03</totfact>
</mgrwt>
</event>
<event>
 5    0  0.4115852E+000  0.2893724E+03  0.7546771E-02  0.1090677E+00
          2   -1    0    0  502    0 -0.00000000000E+00  0.00000000000E+00  0.10685693311E+04  0.10685693311E+04  0.00000000000E+00 0.  1.
         21   -1    0    0  503  502  0.00000000000E+00 -0.00000000000E+00 -0.59773356873E+03  0.59773356873E+03  0.00000000000E+00 0.  1.
         25    1    1    2    0    0  0.16792492692E+03 -0.12978666570E+03 -0.54384160541E+02  0.25224194059E+03  0.12500000000E+03 0.  0.
         21    1    1    2  503  501  0.61472068247E+02 -0.68552907507E+01 -0.42375108602E+03  0.42824151257E+03  0.00000000000E+00 0.  1.
          2    1    1    2  501    0 -0.22939699517E+03  0.13664195646E+03  0.94897100893E+03  0.98581944668E+03  0.00000000000E+00 0.  1.
<mgrwt>
<rscale>  4 0.28937241E+03</rscale>
<asrwt>0</asrwt>
<pdfrwt beam="1">  1       21 0.91959011E-01 0.28937241E+03</pdfrwt>
<pdfrwt beam="2">  1        2 0.16439528E+00 0.28937241E+03</pdfrwt>
<totfact> 0.28555924E+02</totfact>
</mgrwt>
</event>
<event>
 5    0  0.4115852E+000  0.2673201E+03  0.7546771E-02  0.1102823E+00
         21   -1    0    0  503  502  0.00000000000E+00  0.00000000000E+00  0.28597562888E+03  0.28597562888E+03  0.00000000000E+00 0. -1.
          2   -1    0    0  502    0 -0.00000000000E+00 -0.00000000000E+00 -0.41032112748E+03  0.41032112748E+03  0.00000000000E+00 0.  1.
         25    1    1    2    0    0  0.92948891587E+02 -0.19643948040E+03 -0.13197932771E+03  0.28332227030E+03  0.12500000000E+03 0.  0.
         21    1    1    2  503  501 -0.97516522078E+01 -0.48015962179E+02  0.12131325909E+03  0.13083399473E+03  0.00000000000E+00 0. -1.
          2    1    1    2  501    0 -0.83197239379E+02  0.24445544258E+03 -0.11367942999E+03  0.28214049133E+03  0.00000000000E+00 0.  1.
<mgrwt>
<rscale>  4 0.26732014E+03</rscale>
<asrwt>0</asrwt>
<pdfrwt beam="1">  1       21 0.43996251E-01 0.26732014E+03</pdfrwt>
<pdfrwt beam="2">  1        2 0.63126327E-01 0.26732014E+03</pdfrwt>
<totfact> 0.47025040E+03</totfact>
</mgrwt>
</event>
<event>
 5    0  0.4115852E+000  0.4244939E+03  0.7546771E-02  0.1035614E+00
         21   -1    0    0  503  502  0.00000000000E+00  0.00000000000E+00  0.92630006904E+03  0.92630006904E+03  0.00000000000E+00 0.  1.
          2   -1    0    0  502    0 -0.00000000000E+00 -0.00000000000E+00 -0.32150088609E+03  0.32150088609E+03  0.00000000000E+00 0.  1.
         25    1    1    2    0    0  0.10729824154E+03 -0.44308961068E+03  0.23275152325E+03  0.52691516139E+03  0.12500000000E+03 0.  0.
         21    1    1    2  503  501 -0.17497218225E+01  0.80138066988E+02  0.33112604884E+03  0.34068993458E+03  0.00000000000E+00 0.  1.
          2    1    1    2  501    0 -0.10554851972E+03  0.36295154369E+03  0.40921610866E+02  0.38019585915E+03  0.00000000000E+00 0.  1.
<mgrwt>
<rscale>  4 0.42449387E+03</rscale>
<asrwt>0</asrwt>
<pdfrwt beam="1">  1       21 0.14250770E+00 0.42449387E+03</pdfrwt>
<pdfrwt beam="2">  1        2 0.49461675E-01 0.42449387E+03</pdfrwt>
<totfact> 0.38756324E+02</totfact>
</mgrwt>
</event>
<event>
 5    0  0.4115852E+000  0.3054051E+03  0.7546771E-02  0.1082569E+00
         21   -1    0    0  503  502  0.00000000000E+00  0.00000000000E+00  0.10031415029E+03  0.10031415029E+03  0.00000000000E+00 0. -1.
          2   -1    0    0  502    0 -0.00000000000E+00 -0.00000000000E+00 -0.11257628383E+04  0.11257628383E+04  0.00000000000E+00 0. -1.
         25    1    1    2    0    0 -0.29641819129E+03  0.89554996532E+02 -0.46297062364E+03  0.57083328555E+03  0.12500000000E+03 0.  0.
         21    1    1    2  503  501  0.50011695481E+02 -0.18464211095E+01 -0.21723821725E+02  0.54557340350E+02  0.00000000000E+00 0. -1.
          2    1    1    2  501    0  0.24640649581E+03 -0.87708575423E+02 -0.54075424265E+03  0.60068636269E+03  0.00000000000E+00 0. -1.
<mgrwt>
<rscale>  4 0.30540505E+03</rscale>
<asrwt>0</asrwt>
<pdfrwt beam="1">  1       21 0.15432946E-01 0.30540505E+03</pdfrwt>
<pdfrwt beam="2">  1        2 0.17319429E+00 0.30540505E+03</pdfrwt>
<totfact> 0.10171079E+04</totfact>
</mgrwt>
</event>
<event>
 5    0  0.4115852E+000  0.2215826E+03  0.7546771E-02  0.1132709E+00
          1   -1    0    0  502    0 -0.00000000000E+00  0.00000000000E+00  0.17303750732E+04  0.17303750732E+04  0.00000000000E+00 0. -1.
         21   -1    0    0  503  502  0.00000000000E+00 -0.00000000000E+00 -0.65013689004E+02  0.65013689004E+02  0.00000000000E+00 0. -1.
         25    1    1    2    0    0 -0.17049441850E+03  0.13746978162E+03  0.31188236675E+03  0.40107592584E+03  0.12500000000E+03 0.  0.
         21    1    1    2  503  501  0.32139818572E+02 -0.25179761851E+02  0.14193359676E+02  0.43225453192E+02  0.00000000000E+00 0. -1.
          1    1    1    2  501    0  0.13835459993E+03 -0.11229001977E+03  0.13392856578E+04  0.13510873832E+04  0.00000000000E+00 0. -1.
<mgrwt>
<rscale>  4 0.22158256E+03</rscale>
<asrwt>0</asrwt>
<pdfrwt beam="1">  1       21 0.10002107E-01 0.22158256E+03</pdfrwt>
<pdfrwt beam="2">  1        1 0.26621151E+00 0.22158256E+03</pdfrwt>
<totfact> 0.46120259E+03</totfact>
</mgrwt>
</event>
<event>
 5    0  0.4115852E+000  0.2060944E+03  0.7546771E-02  0.1144697E+00
         21   -1    0    0  503  502  0.00000000000E+00  0.00000000000E+00  0.50837551899E+03  0.50837551899E+03  0.00000000000E+00 0. -1.
          2   -1    0    0  502    0 -0.00000000000E+00 -0.00000000000E+00 -0.72280668454E+03  0.72280668454E+03  0.00000000000E+00 0. -1.
         25    1    1    2    0    0  0.92184217171E+02 -0.20322881894E+03  0.37317186756E+03  0.45241808704E+03  0.12500000000E+03 0.  0.
         21    1    1    2  503  501 -0.16666417377E+01  0.68258358369E+02  0.72123247491E+02  0.99316383394E+02  0.00000000000E+00 0. -1.
          2    1    1    2  501    0 -0.90517575434E+02  0.13497046057E+03 -0.65972628060E+03  0.67944773309E+03  0.00000000000E+00 0. -1.
<mgrwt>
<rscale>  4 0.20609443E+03</rscale>
<asrwt>0</asrwt>
<pdfrwt beam="1">  1       21 0.78211618E-01 0.20609443E+03</pdfrwt>
<pdfrwt beam="2">  1        2 0.11120103E+00 0.20609443E+03</pdfrwt>
<totfact> 0.73049528E+02</totfact>
</mgrwt>
</event>
<event>
 5    0  0.4115852E+000  0.3166776E+03  0.7546771E-02  0.1077189E+00
          2   -1    0    0  502    0 -0.00000000000E+00  0.00000000000E+00  0.68090059564E+03  0.68090059564E+03  0.00000000000E+00 0. -1.
         21   -1    0    0  503  502  0.00000000000E+00 -0.00000000000E+00 -0.76242779345E+03  0.76242779345E+03  0.00000000000E+00 0.  1.
         25    1    1    2    0    0 -0.40099131383E+02 -0.26366217663E+03 -0.20911492920E+03  0.36121979089E+03  0.12500000000E+03 0.  0.
         21    1    1    2  503  501  0.83686779000E+02 -0.28515403305E+02 -0.43649218650E+03  0.44535607561E+03  0.00000000000E+00 0.  1.
          2    1    1    2  501    0 -0.43587647616E+02  0.29217757993E+03  0.56407991789E+03  0.63675252258E+03  0.00000000000E+00 0. -1.
<mgrwt>
<rscale>  4 0.31667756E+03</rscale>
<asrwt>0</asrwt>
<pdfrwt beam="1">  1       21 0.11729658E+00 0.31667756E+03</pdfrwt>
<pdfrwt beam="2">  1        2 0.10475394E+00 0.31667756E+03</pdfrwt>
<totfact> 0.28422583E+02</totfact>
</mgrwt>
</event>
<event>
 5    0  0.4115852E+000  0.2889000E+03  0.7546771E-02  0.1090925E+00
         -2   -1    0    0    0  501 -0.00000000000E+00  0.00000000000E+00  0.53915842291E+03  0.53915842291E+03  0.00000000000E+00 0. -1.
         21   -1    0    0  501  502  0.00000000000E+00 -0.00000000000E+00 -0.25743044656E+03  0.25743044656E+03  0.00000000000E+00 0.  1.
         25    1    1    2    0    0  0.24788577771E+03 -0.12572048791E+03 -0.84217766949E+02  0.31618132794E+03  0.12500000000E+03 0.  0.
         21    1    1    2  503  502 -0.48819071485E+02  0.64756516067E+02  0.32631604342E+02  0.87415843620E+02  0.00000000000E+00 0. -1.
         -2    1    1    2    0  503 -0.19906670622E+03  0.60963971841E+02  0.33331413896E+03  0.39299169790E+03  0.00000000000E+00 0. -1.
<mgrwt>
<rscale>  4 0.28890003E+03</rscale>
<asrwt>0</asrwt>
<pdfrwt beam="1">  1       21 0.39604684E-01 0.28890003E+03</pdfrwt>
<pdfrwt beam="2">  1       -2 0.82947449E-01 0.28890003E+03</pdfrwt>
<totfact> 0.64111198E+02</totfact>
</mgrwt>
</event>
<event>
 5    0  0.4115852E+000  0.3145160E+03  0.7546771E-02  0.1078201E+00
         21   -1    0    0  503  502  0.00000000000E+00  0.00000000000E+00  0.99182751610E+02  0.99182751610E+02  0.00000000000E+00 0. -1.
          2   -1    0    0  502    0 -0.00000000000E+00 -0.00000000000E+00 -0.14074798990E+04  0.14074798990E+04  0.00000000000E+00 0. -1.
         25    1    1    2    0    0  0.96393650490E+02  0.24334038816E+03 -0.38384310498E+03  0.48110997662E+03  0.12500000000E+03 0.  0.
         21    1    1    2  503  501 -0.65491981036E+01  0.45040647958E+02  0.72696821886E+01  0.46091216553E+02  0.00000000000E+00 0. -1.
          2    1    1    2  501    0 -0.89844452387E+02 -0.28838103612E+03 -0.93172372456E+03  0.97946145739E+03  0.00000000000E+00 0. -1.
<mgrwt>
<rscale>  4 0.31451602E+03</rscale>
<asrwt>0</asrwt>
<pdfrwt beam="1">  1       21 0.15258886E-01 0.31451602E+03</pdfrwt>
<pdfrwt beam="2">  1        2 0.21653535E+00 0.31451602E+03</pdfrwt>
<totfact> 0.71879280E+03</totfact>
</mgrwt>
</event>
<event>
 5    0  0.4115852E+000  0.1869203E+03  0.7546771E-02  0.1161269E+00
          1   -1    0    0  502    0 -0.00000000000E+00  0.00000000000E+00  0.62552543188E+03  0.62552543188E+03  0.00000000000E+00 0.  1.
         21   -1    0    0  503  502  0.00000000000E+00 -0.00000000000E+00 -0.27489892456E+03  0.27489892456E+03  0.00000000000E+00 0. -1.
         25    1    1    2    0    0 -0.93523489614E+02 -0.17779915629E+03 -0.11911955192E+02  0.23690942945E+03  0.12500000000E+03 0.  0.
         21    1    1    2  503  501  0.14785597091E+02  0.68591658577E+02 -0.13280459428E+03  0.15020149722E+03  0.00000000000E+00 0. -1.
          1    1    1    2  501    0  0.78737892523E+02  0.10920749771E+03  0.49534305678E+03  0.51331342976E+03  0.00000000000E+00 0.  1.
<mgrwt>
<rscale>  4 0.18692034E+03</rscale>
<asrwt>0</asrwt>
<pdfrwt beam="1">  1       21 0.42292142E-01 0.18692034E+03</pdfrwt>
<pdfrwt beam="2">  1        1 0.96234681E-01 0.18692034E+03</pdfrwt>
<totfact> 0.19872536E+03</totfact>
</mgrwt>
</event>
<event>
 5    0  0.4115852E+000  0.1786784E+03  0.7546771E-02  0.1169088E+00
         21   -1    0    0  503  502  0.00000000000E+00  0.00000000000E+00  0.72769072446E+02  0.72769072446E+02  0.00000000000E+00 0. -1.
          1   -1    0    0  502    0 -0.00000000000E+00 -0.00000000000E+00 -0.15253626570E+04  0.15253626570E+04  0.00000000000E+00 0.  1.
         25    1    1    2    0    0 -0.18295645607E+03 -0.88072516390E+02 -0.54838120662E+03  0.59797724099E+03  0.12500000000E+03 0.  0.
         21    1    1    2  503  501  0.11153978439E+03  0.38079830532E+02 -0.30017036822E+02  0.12162326872E+03  0.00000000000E+00 0. -1.
          1    1    1    2  501    0  0.71416671681E+02  0.49992685858E+02 -0.87419534108E+03  0.87853121971E+03  0.00000000000E+00 0.  1.
<mgrwt>
<rscale>  4 0.17867836E+03</rscale>
<asrwt>0</asrwt>
<pdfrwt beam="1">  1       21 0.11195241E-01 0.17867836E+03</pdfrwt>
<pdfrwt beam="2">  1        1 0.23467120E+00 0.17867836E+03</pdfrwt>
<totfact> 0.52277293E+03</totfact>
</mgrwt>
</event>
<event>
 5    0  0.4115852E+000  0.3965124E+03  0.7546771E-02  0.1044994E+00
          2   -1    0    0  502    0 -0.00000000000E+00  0.00000000000E+00  0.26806213055E+04  0.26806213055E+04  0.00000000000E+00 0. -1.
         21   -1    0    0  503  502  0.00000000000E+00 -0.00000000000E+00 -0.17308178705E+03  0.17308178705E+03  0.00000000000E+00 0.  1.
         25    1    1    2    0    0 -0.35553160179E+03  0.46056129192E+02  0.10592948061E+03  0.39416994022E+03  0.12500000000E+03 0.  0.
         21    1    1    2  503  501 -0.21876842078E+02 -0.81879315619E+02  0.12160129705E+03  0.14822177299E+03  0.00000000000E+00 0.  1.
          2    1    1    2  501    0  0.37740844387E+03  0.35823186427E+02  0.22800087408E+04  0.23113113793E+04  0.00000000000E+00 0. -1.
<mgrwt>
<rscale>  4 0.39651238E+03</rscale>
<asrwt>0</asrwt>
<pdfrwt beam="1">  1       21 0.26627969E-01 0.39651238E+03</pdfrwt>
<pdfrwt beam="2">  1        2 0.41240325E+00 0.39651238E+03</pdfrwt>
<totfact> 0.49827466E+02</totfact>
</mgrwt>
</event>
<event>
 5    0  0.4115852E+000  0.4379702E+03  0.7546771E-02  0.1031371E+00
         21   -1    0    0  503  502  0.00000000000E+00  0.00000000000E+00  0.10327223106E+04  0.10327223106E+04  0.00000000000E+00 0. -1.
          1   -1    0    0  502    0 -0.00000000000E+00 -0.00000000000E+00 -0.53662697134E+03  0.53662697134E+03  0.00000000000E+00 0. -1.
         25    1    1    2    0    0 -0.24732616979E+03  0.95963515224E+02  0.25976544268E+03  0.39176819132E+03  0.12500000000E+03 0.  0.
         21    1    1    2  503  501 -0.16826690995E+03  0.14886230458E+03  0.55549120620E+03  0.59920298637E+03  0.00000000000E+00 0. -1.
          1    1    1    2  501    0  0.41559307974E+03 -0.24482581980E+03 -0.31916130959E+03  0.57837810428E+03  0.00000000000E+00 0. -1.
<mgrwt>
<rscale>  4 0.43797018E+03</rscale>
<asrwt>0</asrwt>
<pdfrwt beam="1">  1       21 0.15888036E+00 0.43797018E+03</pdfrwt>
<pdfrwt beam="2">  1        1 0.82557996E-01 0.43797018E+03</pdfrwt>
<totfact> 0.10140426E+02</totfact>
</mgrwt>
</event>
<event>
 5    0  0.4115852E+000  0.2357750E+03  0.7546771E-02  0.1122640E+00
         21   -1    0    0  501  502  0.00000000000E+00  0.00000000000E+00  0.42098127832E+03  0.42098127832E+03  0.00000000000E+00 0. -1.
         -1   -1    0    0    0  501 -0.00000000000E+00 -0.00000000000E+00 -0.22410688481E+03  0.22410688481E+03  0.00000000000E+00 0. -1.
         25    1    1    2    0    0  0.34930895224E+02 -0.20195910572E+03  0.24812934606E+02  0.24134690706E+03  0.12500000000E+03 0.  0.
         21    1    1    2  503  502 -0.39170042507E+02  0.38847750680E+01  0.19984352287E+03  0.20368312974E+03  0.00000000000E+00 0. -1.
         -1    1    1    2    0  503  0.42391472832E+01  0.19807433065E+03 -0.27782063964E+02  0.20005812633E+03  0.00000000000E+00 0. -1.
<mgrwt>
<rscale>  4 0.23577498E+03</rscale>
<asrwt>0</asrwt>
<pdfrwt beam="1">  1       21 0.64766350E-01 0.23577498E+03</pdfrwt>
<pdfrwt beam="2">  1       -1 0.34477982E-01 0.23577498E+03</pdfrwt>
<totfact> 0.15940880E+03</totfact>
</mgrwt>
</event>
<event>
 5    0  0.4115852E+000  0.2925409E+03  0.7546771E-02  0.1089030E+00
         21   -1    0    0  503  502  0.00000000000E+00  0.00000000000E+00  0.98415584742E+03  0.98415584742E+03  0.00000000000E+00 0. -1.
          4   -1    0    0  502    0 -0.00000000000E+00 -0.00000000000E+00 -0.71676143191E+03  0.71676143191E+03  0.00000000000E+00 0.  1.
         25    1    1    2    0    0  0.25305836689E+03  0.12174357435E+03 -0.40026827202E+03  0.50467784233E+03  0.12500000000E+03 0.  0.
         21    1    1    2  503  501 -0.17501178759E+02 -0.45542360073E+02  0.87314018818E+03  0.87450225045E+03  0.00000000000E+00 0. -1.
          4    1    1    2  501    0 -0.23555718814E+03 -0.76201214276E+02 -0.20547750065E+03  0.32173718655E+03  0.00000000000E+00 0.  1.
<mgrwt>
<rscale>  4 0.29254094E+03</rscale>
<asrwt>0</asrwt>
<pdfrwt beam="1">  1       21 0.15140859E+00 0.29254094E+03</pdfrwt>
<pdfrwt beam="2">  1        4 0.11027099E+00 0.29254094E+03</pdfrwt>
<totfact> 0.79016073E+00</totfact>
</mgrwt>
</event>
<event>
 5    0  0.4115852E+000  0.2004248E+03  0.7546771E-02  0.1149381E+00
         21   -1    0    0  503  502  0.00000000000E+00  0.00000000000E+00  0.30080188849E+03  0.30080188849E+03  0.00000000000E+00 0.  1.
          2   -1    0    0  502    0 -0.00000000000E+00 -0.00000000000E+00 -0.18211245633E+04  0.18211245633E+04  0.00000000000E+00 0.  1.
         25    1    1    2    0    0 -0.12586057332E+03  0.16566924269E+03 -0.68687034979E+03  0.72849369202E+03  0.12500000000E+03 0.  0.
         21    1    1    2  503  501  0.45630320593E+02 -0.44840877286E+02  0.27153375858E+03  0.27896847937E+03  0.00000000000E+00 0.  1.
          2    1    1    2  501    0  0.80230252724E+02 -0.12082836540E+03 -0.11049860836E+04  0.11144642804E+04  0.00000000000E+00 0.  1.
<mgrwt>
<rscale>  4 0.20042477E+03</rscale>
<asrwt>0</asrwt>
<pdfrwt beam="1">  1       21 0.46277215E-01 0.20042477E+03</pdfrwt>
<pdfrwt beam="2">  1        2 0.28017300E+00 0.20042477E+03</pdfrwt>
<totfact> 0.53053313E+02</totfact>
</mgrwt>
</event>
<event>
 5    0  0.4115852E+000  0.2404211E+03  0.7546771E-02  0.1119513E+00
         21   -1    0    0  503  502  0.00000000000E+00  0.00000000000E+00  0.16068074321E+03  0.16068074321E+03  0.00000000000E+00 0. -1.
          2   -1    0    0  502    0 -0.00000000000E+00 -0.00000000000E+00 -0.19964204513E+04  0.19964204513E+04  0.00000000000E+00 0.  1.
         25    1    1    2    0    0 -0.83653730387E+02 -0.21301662747E+03  0.93560312072E+01  0.26093402520E+03  0.12500000000E+03 0.  0.
         21    1    1    2  503  501  0.17663073817E+02  0.19556187686E+02  0.11212946908E+02  0.28638415316E+02  0.00000000000E+00 0. -1.
          2    1    1    2  501    0  0.65990656570E+02  0.19346043978E+03 -0.18563086862E+04  0.18675287540E+04  0.00000000000E+00 0.  1.
<mgrwt>
<rscale>  4 0.24042111E+03</rscale>
<asrwt>0</asrwt>
<pdfrwt beam="1">  1       21 0.24720115E-01 0.24042111E+03</pdfrwt>
<pdfrwt beam="2">  1        2 0.30714160E+00 0.24042111E+03</pdfrwt>
<totfact> 0.14551581E+03</totfact>
</mgrwt>
</event>
<event>
 5    0  0.4115852E+000  0.3705992E+03  0.7546771E-02  0.1056164E+00
          1   -1    0    0  502    0 -0.00000000000E+00  0.00000000000E+00  0.12165880683E+04  0.12165880683E+04  0.00000000000E+00 0. -1.
         21   -1    0    0  503  502  0.00000000000E+00 -0.00000000000E+00 -0.11650040154E+03  0.11650040154E+03  0.00000000000E+00 0.  1.
         25    1    1    2    0    0 -0.32576810613E+03 -0.54988224878E+02  0.35433102302E+03  0.50032393279E+03  0.12500000000E+03 0.  0.
         21    1    1    2  503  501  0.19685925873E+03 -0.13699116138E+02  0.26561510602E+03  0.33089668791E+03  0.00000000000E+00 0.  1.
          1    1    1    2  501    0  0.12890884740E+03  0.68687341016E+02  0.48014153769E+03  0.50186784911E+03  0.00000000000E+00 0. -1.
<mgrwt>
<rscale>  4 0.36617924E+03</rscale>
<asrwt>0</asrwt>
<pdfrwt beam="1">  1       21 0.17923140E-01 0.37059925E+03</pdfrwt>
<pdfrwt beam="2">  1        1 0.18716739E+00 0.37059925E+03</pdfrwt>
<totfact> 0.33630957E+03</totfact>
</mgrwt>
</event>
<event>
 5    0  0.4115852E+000  0.2693059E+03  0.7546771E-02  0.1101678E+00
         21   -1    0    0  503  502  0.00000000000E+00  0.00000000000E+00  0.41838817053E+03  0.41838817053E+03  0.00000000000E+00 0.  1.
          2   -1    0    0  502    0 -0.00000000000E+00 -0.00000000000E+00 -0.78584664111E+03  0.78584664111E+03  0.00000000000E+00 0. -1.
         25    1    1    2    0    0 -0.20671608826E+03  0.16994914460E+03 -0.41507224221E+03  0.50943519622E+03  0.12500000000E+03 0.  0.
         21    1    1    2  503  501  0.22633054250E+02 -0.55284674944E+02  0.33190042971E+03  0.33723366628E+03  0.00000000000E+00 0.  1.
          2    1    1    2  501    0  0.18408303401E+03 -0.11466446966E+03 -0.28428665809E+03  0.35756594914E+03  0.00000000000E+00 0. -1.
<mgrwt>
<rscale>  4 0.26930592E+03</rscale>
<asrwt>0</asrwt>
<pdfrwt beam="1">  1       21 0.64367410E-01 0.26930592E+03</pdfrwt>
<pdfrwt beam="2">  1        2 0.12089948E+00 0.26930592E+03</pdfrwt>
<totfact> 0.98369832E+02</totfact>
</mgrwt>
</event>
<event>
 5    0  0.4115852E+000  0.2513730E+03  0.7546771E-02  0.1112440E+00
         21   -1    0    0  503  502  0.00000000000E+00  0.00000000000E+00  0.47168498842E+03  0.47168498842E+03  0.00000000000E+00 0. -1.
          1   -1    0    0  502    0 -0.00000000000E+00 -0.00000000000E+00 -0.18848667423E+03  0.18848667423E+03  0.00000000000E+00 0.  1.
         25    1    1    2    0    0  0.21958675113E+03  0.83586023289E+02  0.31287181828E+03  0.41075386698E+03  0.12500000000E+03 0.  0.
         21    1    1    2  503  501 -0.15914683867E+02 -0.17421317140E+02  0.18419566358E+02  0.29934259274E+02  0.00000000000E+00 0. -1.
          1    1    1    2  501    0 -0.20367206727E+03 -0.66164706149E+02 -0.48093070444E+02  0.21948353640E+03  0.00000000000E+00 0.  1.
<mgrwt>
<rscale>  4 0.25137297E+03</rscale>
<asrwt>0</asrwt>
<pdfrwt beam="1">  1       21 0.72566921E-01 0.25137297E+03</pdfrwt>
<pdfrwt beam="2">  1        1 0.28997950E-01 0.25137297E+03</pdfrwt>
<totfact> 0.28766273E+03</totfact>
</mgrwt>
</event>
<event>
 5    0  0.4115852E+000  0.2104391E+03  0.7546771E-02  0.1141219E+00
          1   -1    0    0  502    0 -0.00000000000E+00  0.00000000000E+00  0.80434414600E+03  0.80434414600E+03  0.00000000000E+00 0.  1.
         21   -1    0    0  503  502  0.00000000000E+00 -0.00000000000E+00 -0.18096417863E+03  0.18096417863E+03  0.00000000000E+00 0.  1.
         25    1    1    2    0    0 -0.55796341589E+02 -0.22540213013E+03  0.16096786282E+02  0.26420344156E+03  0.12500000000E+03 0.  0.
         21    1    1    2  503  501 -0.11164365335E+02  0.13334157813E+03  0.35966851197E+02  0.13855769159E+03  0.00000000000E+00 0.  1.
          1    1    1    2  501    0  0.66960706924E+02  0.92060551998E+02  0.57131632990E+03  0.58254719149E+03  0.00000000000E+00 0.  1.
<mgrwt>
<rscale>  4 0.21043914E+03</rscale>
<asrwt>0</asrwt>
<pdfrwt beam="1">  1       21 0.27840643E-01 0.21043914E+03</pdfrwt>
<pdfrwt beam="2">  1        1 0.12374525E+00 0.21043914E+03</pdfrwt>
<totfact> 0.31232841E+03</totfact>
</mgrwt>
</event>
<event>
 5    0  0.4115852E+000  0.2512160E+03  0.7546771E-02  0.1112539E+00
         -1   -1    0    0    0  501 -0.00000000000E+00  0.00000000000E+00  0.22511867385E+03  0.22511867385E+03  0.00000000000E+00 0.  1.
         21   -1    0    0  501  502  0.00000000000E+00 -0.00000000000E+00 -0.80411365413E+03  0.80411365413E+03  0.00000000000E+00 0. -1.
         25    1    1    2    0    0 -0.32874636636E+02 -0.23839208966E+03 -0.14077183499E+03  0.30553762399E+03  0.12500000000E+03 0.  0.
         21    1    1    2  503  502 -0.12282984362E+02  0.33120339328E+02 -0.50262833674E+03  0.50386811119E+03  0.00000000000E+00 0. -1.
         -1    1    1    2    0  503  0.45157620997E+02  0.20527175033E+03  0.64405191439E+02  0.21982659280E+03  0.00000000000E+00 0.  1.
<mgrwt>
<rscale>  4 0.25121601E+03</rscale>
<asrwt>0</asrwt>
<pdfrwt beam="1">  1       21 0.12370979E+00 0.25121601E+03</pdfrwt>
<pdfrwt beam="2">  1       -1 0.34633642E-01 0.25121601E+03</pdfrwt>
<totfact> 0.34686099E+02</totfact>
</mgrwt>
</event>
<event>
 5    0  0.4115852E+000  0.2548708E+03  0.7546771E-02  0.1110265E+00
         21   -1    0    0  503  502  0.00000000000E+00  0.00000000000E+00  0.58846118438E+02  0.58846118438E+02  0.00000000000E+00 0.  1.
          1   -1    0    0  502    0 -0.00000000000E+00 -0.00000000000E+00 -0.20516646290E+04  0.20516646290E+04  0.00000000000E+00 0.  1.
         25    1    1    2    0    0 -0.18713227651E+03  0.14421382888E+03 -0.92168821870E+03  0.95966154964E+03  0.12500000000E+03 0.  0.
         21    1    1    2  503  501  0.11700419104E+02 -0.20877104090E+02  0.24605969568E+02  0.34325020331E+02  0.00000000000E+00 0.  1.
          1    1    1    2  501    0  0.17543185741E+03 -0.12333672479E+03 -0.10957362614E+04  0.11165241775E+04  0.00000000000E+00 0.  1.
<mgrwt>
<rscale>  4 0.25487081E+03</rscale>
<asrwt>0</asrwt>
<pdfrwt beam="1">  1       21 0.90532486E-02 0.25487081E+03</pdfrwt>
<pdfrwt beam="2">  1        1 0.31564073E+00 0.25487081E+03</pdfrwt>
<totfact> 0.33614993E+03</totfact>
</mgrwt>
</event>
<event>
 5    0  0.4115852E+000  0.3701485E+03  0.7546771E-02  0.1054636E+00
          2   -1    0    0  502    0 -0.00000000000E+00  0.00000000000E+00  0.80264502647E+03  0.80264502647E+03  0.00000000000E+00 0.  1.
         21   -1    0    0  503  502  0.00000000000E+00 -0.00000000000E+00 -0.34974319438E+04  0.34974319438E+04  0.00000000000E+00 0. -1.
         25    1    1    2    0    0  0.11582859367E+03 -0.30251911110E+03 -0.28832275355E+04  0.29040592448E+04  0.12500000000E+03 0.  0.
         21    1    1    2  503  501  0.75905822433E+02  0.11110175787E+02 -0.56266078078E+03  0.56786643158E+03  0.00000000000E+00 0.  1.
          2    1    1    2  501    0 -0.19173441610E+03  0.29140893532E+03  0.75110139901E+03  0.82815129385E+03  0.00000000000E+00 0.  1.
<mgrwt>
<rscale>  4 0.37014850E+03</rscale>
<asrwt>0</asrwt>
<pdfrwt beam="1">  1       21 0.53806647E+00 0.37014850E+03</pdfrwt>
<pdfrwt beam="2">  1        2 0.12348385E+00 0.37014850E+03</pdfrwt>
<totfact> 0.34871700E-01</totfact>
</mgrwt>
</event>
<event>
 5    0  0.4115852E+000  0.1874770E+03  0.7546771E-02  0.1160757E+00
          2   -1    0    0  502    0 -0.00000000000E+00  0.00000000000E+00  0.13520846816E+04  0.13520846816E+04  0.00000000000E+00 0. -1.
         21   -1    0    0  503  502  0.00000000000E+00 -0.00000000000E+00 -0.67556554851E+02  0.67556554851E+02  0.00000000000E+00 0.  1.
         25    1    1    2    0    0  0.15834179554E+03  0.14924687943E+03  0.30672128898E+03  0.39629497139E+03  0.12500000000E+03 0.  0.
         21    1    1    2  503  501 -0.37354679475E+02 -0.96381791720E+02  0.13381585607E+03  0.16909022796E+03  0.00000000000E+00 0.  1.
          2    1    1    2  501    0 -0.12098711606E+03 -0.52865087707E+02  0.84399098164E+03  0.85425603706E+03  0.00000000000E+00 0. -1.
<mgrwt>
<rscale>  4 0.18747704E+03</rscale>
<asrwt>0</asrwt>
<pdfrwt beam="1">  1       21 0.10393317E-01 0.18747704E+03</pdfrwt>
<pdfrwt beam="2">  1        2 0.20801301E+00 0.18747704E+03</pdfrwt>
<totfact> 0.15982693E+04</totfact>
</mgrwt>
</event>
<event>
 5    0  0.4115852E+000  0.2731679E+03  0.7546771E-02  0.1099480E+00
          2   -1    0    0  502    0 -0.00000000000E+00  0.00000000000E+00  0.43704126264E+03  0.43704126264E+03  0.00000000000E+00 0.  1.
         21   -1    0    0  503  502  0.00000000000E+00 -0.00000000000E+00 -0.44127134833E+03  0.44127134833E+03  0.00000000000E+00 0.  1.
         25    1    1    2    0    0  0.24127540736E+03  0.72909655836E+01  0.31483454513E+03  0.41594803904E+03  0.12500000000E+03 0.  0.
         21    1    1    2  503  501  0.72546742128E+01  0.21519924717E+02 -0.16920534293E+03  0.17072253962E+03  0.00000000000E+00 0.  1.
          2    1    1    2  501    0 -0.24853008157E+03 -0.28810890300E+02 -0.14985928789E+03  0.29164203231E+03  0.00000000000E+00 0.  1.
<mgrwt>
<rscale>  4 0.27316792E+03</rscale>
<asrwt>0</asrwt>
<pdfrwt beam="1">  1       21 0.67887900E-01 0.27316792E+03</pdfrwt>
<pdfrwt beam="2">  1        2 0.67237117E-01 0.27316792E+03</pdfrwt>
<totfact> 0.17355321E+03</totfact>
</mgrwt>
</event>
<event>
 5    0  0.4115852E+000  0.1916226E+03  0.7546771E-02  0.1157006E+00
         21   -1    0    0  503  502  0.00000000000E+00  0.00000000000E+00  0.35108267016E+03  0.35108267016E+03  0.00000000000E+00 0.  1.
          1   -1    0    0  502    0 -0.00000000000E+00 -0.00000000000E+00 -0.39027131176E+03  0.39027131176E+03  0.00000000000E+00 0.  1.
         25    1    1    2    0    0 -0.24485762873E+03  0.13956791609E+02  0.21295822401E+03  0.34803197490E+03  0.12500000000E+03 0.  0.
         21    1    1    2  503  501  0.10918441538E+03  0.15896684575E+02 -0.57786427952E+01  0.11048680399E+03  0.00000000000E+00 0.  1.
          1    1    1    2  501    0  0.13567321334E+03 -0.29853476184E+02 -0.24636822282E+03  0.28283520303E+03  0.00000000000E+00 0.  1.
<mgrwt>
<rscale>  4 0.19162255E+03</rscale>
<asrwt>0</asrwt>
<pdfrwt beam="1">  1       21 0.54012718E-01 0.19162255E+03</pdfrwt>
<pdfrwt beam="2">  1        1 0.60041741E-01 0.19162255E+03</pdfrwt>
<totfact> 0.22293568E+03</totfact>
</mgrwt>
</event>
<event>
 5    0  0.4115852E+000  0.2454633E+03  0.7546771E-02  0.1116206E+00
         21   -1    0    0  503  502  0.00000000000E+00  0.00000000000E+00  0.50242127581E+02  0.50242127581E+02  0.00000000000E+00 0. -1.
          1   -1    0    0  502    0 -0.00000000000E+00 -0.00000000000E+00 -0.15003359921E+04  0.15003359921E+04  0.00000000000E+00 0. -1.
         25    1    1    2    0    0  0.20199144761E+03  0.16216764787E+02 -0.40700117933E+03  0.47152782351E+03  0.12500000000E+03 0.  0.
         21    1    1    2  503  501  0.89517284695E+01  0.22537894850E+02 -0.14328092292E+02  0.28167079643E+02  0.00000000000E+00 0.  1.
          1    1    1    2  501    0 -0.21094317608E+03 -0.38754659638E+02 -0.10287645929E+04  0.10508832165E+04  0.00000000000E+00 0. -1.
<mgrwt>
<rscale>  4 0.24546332E+03</rscale>
<asrwt>0</asrwt>
<pdfrwt beam="1">  1       21 0.77295593E-02 0.24546332E+03</pdfrwt>
<pdfrwt beam="2">  1        1 0.23082089E+00 0.24546332E+03</pdfrwt>
<totfact> 0.10178597E+04</totfact>
</mgrwt>
</event>
<event>
 5    0  0.4115852E+000  0.3432337E+03  0.7546771E-02  0.1065427E+00
          1   -1    0    0  502    0 -0.00000000000E+00  0.00000000000E+00  0.87477203829E+03  0.87477203829E+03  0.00000000000E+00 0.  1.
         21   -1    0    0  503  502  0.00000000000E+00 -0.00000000000E+00 -0.99005371597E+03  0.99005371597E+03  0.00000000000E+00 0.  1.
         25    1    1    2    0    0 -0.31083340575E+03  0.45424390438E+02  0.62504513715E+03  0.71062451748E+03  0.12500000000E+03 0.  0.
         21    1    1    2  503  501 -0.12501442301E+02  0.69575713427E+02 -0.80235552293E+03  0.80546350081E+03  0.00000000000E+00 0.  1.
          1    1    1    2  501    0  0.32333484805E+03 -0.11500010386E+03  0.62028708116E+02  0.34873773596E+03  0.00000000000E+00 0.  1.
<mgrwt>
<rscale>  4 0.34323368E+03</rscale>
<asrwt>0</asrwt>
<pdfrwt beam="1">  1       21 0.15231596E+00 0.34323368E+03</pdfrwt>
<pdfrwt beam="2">  1        1 0.13458031E+00 0.34323368E+03</pdfrwt>
<totfact> 0.57610398E+01</totfact>
</mgrwt>
</event>
<event>
 5    0  0.4115852E+000  0.4479032E+03  0.7546771E-02  0.1028349E+00
         21   -1    0    0  503  502  0.00000000000E+00  0.00000000000E+00  0.45679264619E+03  0.45679264619E+03  0.00000000000E+00 0.  1.
          1   -1    0    0  502    0 -0.00000000000E+00 -0.00000000000E+00 -0.14159059536E+04  0.14159059536E+04  0.00000000000E+00 0.  1.
         25    1    1    2    0    0  0.38726580075E+03 -0.22498653340E+03  0.82958755481E+02  0.47233557536E+03  0.12500000000E+03 0.  0.
         21    1    1    2  503  501 -0.17574778646E+02  0.98968499013E+01  0.14095626171E+03  0.14239202294E+03  0.00000000000E+00 0.  1.
          1    1    1    2  501    0 -0.36969102211E+03  0.21508968349E+03 -0.11830283246E+04  0.12579710015E+04  0.00000000000E+00 0.  1.
<mgrwt>
<rscale>  4 0.44790315E+03</rscale>
<asrwt>0</asrwt>
<pdfrwt beam="1">  1       21 0.70275793E-01 0.44790315E+03</pdfrwt>
<pdfrwt beam="2">  1        1 0.21783168E+00 0.44790315E+03</pdfrwt>
<totfact> 0.14787001E+02</totfact>
</mgrwt>
</event>
<event>
 5    0  0.4115852E+000  0.2648710E+03  0.7546771E-02  0.1104251E+00
          1   -1    0    0  502    0 -0.00000000000E+00  0.00000000000E+00  0.15036314375E+04  0.15036314375E+04  0.00000000000E+00 0.  1.
         21   -1    0    0  503  502  0.00000000000E+00 -0.00000000000E+00 -0.55723891719E+02  0.55723891719E+02  0.00000000000E+00 0.  1.
         25    1    1    2    0    0  0.18368040571E+03  0.16021669424E+03  0.53940669453E+03  0.60497310904E+03  0.12500000000E+03 0.  0.
         21    1    1    2  503  501 -0.42648976508E+02  0.21638995085E+02  0.69310780403E+02  0.84209058809E+02  0.00000000000E+00 0. -1.
          1    1    1    2  501    0 -0.14103142920E+03 -0.18185568933E+03  0.83919007087E+03  0.87017316140E+03  0.00000000000E+00 0.  1.
<mgrwt>
<rscale>  4 0.26487098E+03</rscale>
<asrwt>0</asrwt>
<pdfrwt beam="1">  1       21 0.85729076E-02 0.26487098E+03</pdfrwt>
<pdfrwt beam="2">  1        1 0.23132788E+00 0.26487098E+03</pdfrwt>
<totfact> 0.83996020E+03</totfact>
</mgrwt>
</event>
<event>
 5    0  0.4115852E+000  0.4225982E+03  0.7546771E-02  0.1036224E+00
          2   -1    0    0  502    0 -0.00000000000E+00  0.00000000000E+00  0.14850973717E+04  0.14850973717E+04  0.00000000000E+00 0. -1.
         21   -1    0    0  503  502  0.00000000000E+00 -0.00000000000E+00 -0.24256653524E+03  0.24256653524E+03  0.00000000000E+00 0. -1.
         25    1    1    2    0    0 -0.37846168483E+03  0.17859857328E+03  0.32653733754E+02  0.43797484356E+03  0.12500000000E+03 0.  0.
         21    1    1    2  503  501  0.10336897311E+02 -0.18745437306E+02  0.84705991251E+01  0.23021596716E+02  0.00000000000E+00 0.  1.
          2    1    1    2  501    0  0.36812478752E+03 -0.15985313598E+03  0.12014065035E+04  0.12666674666E+04  0.00000000000E+00 0. -1.
<mgrwt>
<rscale>  4 0.42259822E+03</rscale>
<asrwt>0</asrwt>
<pdfrwt beam="1">  1       21 0.37317929E-01 0.42259822E+03</pdfrwt>
<pdfrwt beam="2">  1        2 0.22847651E+00 0.42259822E+03</pdfrwt>
<totfact> 0.11239447E+03</totfact>
</mgrwt>
</event>
<event>
 5    0  0.4115852E+000  0.2081653E+03  0.7546771E-02  0.1143027E+00
          4   -1    0    0  502    0 -0.00000000000E+00  0.00000000000E+00  0.83037970298E+03  0.83037970298E+03  0.00000000000E+00 0.  1.
         21   -1    0    0  503  502  0.00000000000E+00 -0.00000000000E+00 -0.27276722860E+03  0.27276722860E+03  0.00000000000E+00 0.  1.
         25    1    1    2    0    0 -0.19415316333E+03 -0.10582887702E+03  0.15060120794E+03  0.29529802891E+03  0.12500000000E+03 0.  0.
         21    1    1    2  503  501  0.42498547210E+02  0.58039009583E+02 -0.18308255269E+03  0.19670758564E+03  0.00000000000E+00 0.  1.
          4    1    1    2  501    0  0.15165461612E+03  0.47789867434E+02  0.59009381912E+03  0.61114131704E+03  0.00000000000E+00 0.  1.
<mgrwt>
<rscale>  4 0.20816528E+03</rscale>
<asrwt>0</asrwt>
<pdfrwt beam="1">  1       21 0.41964189E-01 0.20816528E+03</pdfrwt>
<pdfrwt beam="2">  1        4 0.12775072E+00 0.20816528E+03</pdfrwt>
<totfact> 0.10892387E+02</totfact>
</mgrwt>
</event>
<event>
 5    0  0.4115852E+000  0.3156154E+03  0.7546771E-02  0.1077685E+00
         21   -1    0    0  503  502  0.00000000000E+00  0.00000000000E+00  0.95029034395E+02  0.95029034395E+02  0.00000000000E+00 0. -1.
          2   -1    0    0  502    0 -0.00000000000E+00 -0.00000000000E+00 -0.19133343714E+04  0.19133343714E+04  0.00000000000E+00 0. -1.
         25    1    1    2    0    0 -0.14022962858E+03  0.15836013633E+03 -0.95049278766E+03  0.98173510730E+03  0.12500000000E+03 0.  0.
         21    1    1    2  503  501  0.21665020548E+03 -0.23146417163E+03 -0.26094738364E+03  0.41061723212E+03  0.00000000000E+00 0. -1.
          2    1    1    2  501    0 -0.76420576901E+02  0.73104035301E+02 -0.60686516570E+03  0.61601106637E+03  0.00000000000E+00 0. -1.
<mgrwt>
<rscale>  4 0.31561540E+03</rscale>
<asrwt>0</asrwt>
<pdfrwt beam="1">  1       21 0.14619852E-01 0.31561540E+03</pdfrwt>
<pdfrwt beam="2">  1        2 0.29435912E+00 0.31561540E+03</pdfrwt>
<totfact> 0.41754407E+03</totfact>
</mgrwt>
</event>
<event>
 5    0  0.4115852E+000  0.3202922E+03  0.7546771E-02  0.1075515E+00
          2   -1    0    0  502    0 -0.00000000000E+00  0.00000000000E+00  0.40693266640E+04  0.40693266640E+04  0.00000000000E+00 0. -1.
         21   -1    0    0  503  502  0.00000000000E+00 -0.00000000000E+00 -0.44904858006E+02  0.44904858006E+02  0.00000000000E+00 0. -1.
         25    1    1    2    0    0  0.30676323058E+03 -0.58262125790E+02  0.91563413952E+03  0.97545324459E+03  0.12500000000E+03 0.  0.
         21    1    1    2  503  501 -0.25967856663E+02 -0.18499916599E+02  0.23056670606E+02  0.39347001834E+02  0.00000000000E+00 0.  1.
          2    1    1    2  501    0 -0.28079537392E+03  0.76762042389E+02  0.30857309959E+04  0.30994312756E+04  0.00000000000E+00 0. -1.
<mgrwt>
<rscale>  4 0.32029217E+03</rscale>
<asrwt>0</asrwt>
<pdfrwt beam="1">  1       21 0.69084429E-02 0.32029217E+03</pdfrwt>
<pdfrwt beam="2">  1        2 0.62604997E+00 0.32029217E+03</pdfrwt>
<totfact> 0.75112991E+02</totfact>
</mgrwt>
</event>
<event>
 5    0  0.4115852E+000  0.2214477E+03  0.7546771E-02  0.1132808E+00
         -1   -1    0    0    0  501 -0.00000000000E+00  0.00000000000E+00  0.49768544787E+03  0.49768544787E+03  0.00000000000E+00 0. -1.
         21   -1    0    0  501  502  0.00000000000E+00 -0.00000000000E+00 -0.34621262794E+03  0.34621262794E+03  0.00000000000E+00 0.  1.
         25    1    1    2    0    0 -0.25750868324E+03  0.51393432607E+02 -0.10444667526E+03  0.30900827631E+03  0.12500000000E+03 0.  0.
         21    1    1    2  503  502  0.87861179475E+02 -0.83333796979E+01 -0.10295716198E+03  0.13560681870E+03  0.00000000000E+00 0.  1.
         -1    1    1    2    0  503  0.16964750376E+03 -0.43060052909E+02  0.35887665718E+03  0.39928298080E+03  0.00000000000E+00 0. -1.
<mgrwt>
<rscale>  4 0.22144767E+03</rscale>
<asrwt>0</asrwt>
<pdfrwt beam="1">  1       21 0.53263481E-01 0.22144767E+03</pdfrwt>
<pdfrwt beam="2">  1       -1 0.76566992E-01 0.22144767E+03</pdfrwt>
<totfact> 0.54909471E+02</totfact>
</mgrwt>
</event>
<event>
 5    0  0.4115852E+000  0.1816845E+03  0.7546771E-02  0.1166183E+00
          3   -1    0    0  502    0 -0.00000000000E+00  0.00000000000E+00  0.62485060988E+03  0.62485060988E+03  0.00000000000E+00 0.  1.
         21   -1    0    0  503  502  0.00000000000E+00 -0.00000000000E+00 -0.20599221123E+03  0.20599221123E+03  0.00000000000E+00 0.  1.
         25    1    1    2    0    0 -0.15225460009E+03  0.15113048640E+03  0.38175115098E+03  0.45539085239E+03  0.12500000000E+03 0.  0.
         21    1    1    2  503  501  0.96581608883E+02 -0.82258551161E+02 -0.13291918153E+03  0.18374434748E+03  0.00000000000E+00 0.  1.
          3    1    1    2  501    0  0.55672991204E+02 -0.68871935241E+02  0.17002642920E+03  0.19170762124E+03  0.00000000000E+00 0.  1.
<mgrwt>
<rscale>  4 0.18168445E+03</rscale>
<asrwt>0</asrwt>
<pdfrwt beam="1">  1       21 0.31691110E-01 0.18168445E+03</pdfrwt>
<pdfrwt beam="2">  1        3 0.96130862E-01 0.18168445E+03</pdfrwt>
<totfact> 0.47008404E+02</totfact>
</mgrwt>
</event>
<event>
 5    0  0.4115852E+000  0.2420934E+03  0.7546771E-02  0.1118406E+00
          1   -1    0    0  502    0 -0.00000000000E+00  0.00000000000E+00  0.13955204739E+04  0.13955204739E+04  0.00000000000E+00 0.  1.
         21   -1    0    0  503  502  0.00000000000E+00 -0.00000000000E+00 -0.38414812527E+02  0.38414812527E+02  0.00000000000E+00 0. -1.
         25    1    1    2    0    0  0.13435304411E+03 -0.15790341305E+03  0.59637334228E+03  0.64363840135E+03  0.12500000000E+03 0.  0.
         21    1    1    2  503  501 -0.28548682292E+02  0.71328130790E+01  0.87081985984E+02  0.91919402555E+02  0.00000000000E+00 0.  1.
          1    1    1    2  501    0 -0.10580436182E+03  0.15077059997E+03  0.67365033310E+03  0.69837748251E+03  0.00000000000E+00 0.  1.
<mgrwt>
<rscale>  4 0.24209343E+03</rscale>
<asrwt>0</asrwt>
<pdfrwt beam="1">  1       21 0.59099722E-02 0.24209343E+03</pdfrwt>
<pdfrwt beam="2">  1        1 0.21469542E+00 0.24209343E+03</pdfrwt>
<totfact> 0.19048658E+04</totfact>
</mgrwt>
</event>
<event>
 5    0  0.4115852E+000  0.3009848E+03  0.7546771E-02  0.1084749E+00
          2   -1    0    0  502    0 -0.00000000000E+00  0.00000000000E+00  0.10798239330E+04  0.10798239330E+04  0.00000000000E+00 0. -1.
         21   -1    0    0  503  502  0.00000000000E+00 -0.00000000000E+00 -0.51929376905E+03  0.51929376905E+03  0.00000000000E+00 0. -1.
         25    1    1    2    0    0  0.49583597795E+02  0.19387090036E+03  0.12545999610E+03  0.26722587786E+03  0.12500000000E+03 0.  0.
         21    1    1    2  503  501  0.47445107224E+02  0.90830920684E+02 -0.41641731818E+03  0.42884108622E+03  0.00000000000E+00 0. -1.
          2    1    1    2  501    0 -0.97028705019E+02 -0.28470182104E+03  0.85148748607E+03  0.90305073802E+03  0.00000000000E+00 0. -1.
<mgrwt>
<rscale>  4 0.30098481E+03</rscale>
<asrwt>0</asrwt>
<pdfrwt beam="1">  1       21 0.79891349E-01 0.30098481E+03</pdfrwt>
<pdfrwt beam="2">  1        2 0.16612676E+00 0.30098481E+03</pdfrwt>
<totfact> 0.38741451E+02</totfact>
</mgrwt>
</event>
<event>
 5    0  0.5562405E+000  0.2593806E+03  0.7546771E-02  0.1107516E+00
         21   -1    0    0  503  502  0.00000000000E+00  0.00000000000E+00  0.11411114674E+04  0.11411114674E+04  0.00000000000E+00 0. -1.
          1   -1    0    0  502    0 -0.00000000000E+00 -0.00000000000E+00 -0.37813770434E+03  0.37813770434E+03  0.00000000000E+00 0.  1.
         25    1    1    2    0    0  0.31868569455E+01 -0.23013157318E+03  0.10231704220E+04  0.10561597462E+04  0.12500000000E+03 0.  0.
         21    1    1    2  503  501 -0.28494798815E+02  0.43109412010E+01  0.62262255233E+02  0.68608499475E+02  0.00000000000E+00 0.  1.
          1    1    1    2  501    0  0.25307941869E+02  0.22582063198E+03 -0.32245891414E+03  0.39448092610E+03  0.00000000000E+00 0.  1.
<mgrwt>
<rscale>  4 0.25938056E+03</rscale>
<asrwt>0</asrwt>
<pdfrwt beam="1">  1       21 0.17555561E+00 0.25938056E+03</pdfrwt>
<pdfrwt beam="2">  1        1 0.58175032E-01 0.25938056E+03</pdfrwt>
<totfact> 0.13285535E+02</totfact>
</mgrwt>
</event>
<event>
 5    0  0.4115852E+000  0.2441388E+03  0.7546771E-02  0.1117066E+00
          2   -1    0    0  502    0 -0.00000000000E+00  0.00000000000E+00  0.28522020644E+04  0.28522020644E+04  0.00000000000E+00 0. -1.
         21   -1    0    0  503  502  0.00000000000E+00 -0.00000000000E+00 -0.14370170420E+03  0.14370170420E+03  0.00000000000E+00 0. -1.
         25    1    1    2    0    0  0.13815069262E+03  0.14708098672E+03 -0.26977576308E+02  0.23889583535E+03  0.12500000000E+03 0.  0.
         21    1    1    2  503  501  0.18790257731E+02 -0.75840336505E+01  0.85257866671E+01  0.21983639150E+02  0.00000000000E+00 0. -1.
          2    1    1    2  501    0 -0.15694095035E+03 -0.13949695307E+03  0.27269521499E+04  0.27350242941E+04  0.00000000000E+00 0. -1.
<mgrwt>
<rscale>  4 0.24413885E+03</rscale>
<asrwt>0</asrwt>
<pdfrwt beam="1">  1       21 0.22107957E-01 0.24413885E+03</pdfrwt>
<pdfrwt beam="2">  1        2 0.43880028E+00 0.24413885E+03</pdfrwt>
<totfact> 0.61508582E+02</totfact>
</mgrwt>
</event>
<event>
 5    0  0.4115852E+000  0.2800269E+03  0.7546771E-02  0.1095674E+00
         21   -1    0    0  501  502  0.00000000000E+00  0.00000000000E+00  0.83014584637E+02  0.83014584637E+02  0.00000000000E+00 0. -1.
         -4   -1    0    0    0  501 -0.00000000000E+00 -0.00000000000E+00 -0.13968413063E+04  0.13968413063E+04  0.00000000000E+00 0. -1.
         25    1    1    2    0    0 -0.15509240876E+03  0.22101238604E+03 -0.73591935987E+03  0.79378991822E+03  0.12500000000E+03 0.  0.
         21    1    1    2  503  502 -0.32815961407E+01 -0.45766586459E+02  0.14649124794E+02  0.48165819484E+02  0.00000000000E+00 0. -1.
         -4    1    1    2    0  503  0.15837400490E+03 -0.17524579958E+03 -0.59255648657E+03  0.63790015322E+03  0.00000000000E+00 0. -1.
<mgrwt>
<rscale>  4 0.28002694E+03</rscale>
<asrwt>0</asrwt>
<pdfrwt beam="1">  1       21 0.12771475E-01 0.28002694E+03</pdfrwt>
<pdfrwt beam="2">  1       -4 0.21489866E+00 0.28002694E+03</pdfrwt>
<totfact> 0.25537687E+02</totfact>
</mgrwt>
</event>
<event>
 5    0  0.4115852E+000  0.3502896E+03  0.7546771E-02  0.1062496E+00
         21   -1    0    0  501  502  0.00000000000E+00  0.00000000000E+00  0.55862943732E+03  0.55862943732E+03  0.00000000000E+00 0. -1.
         -3   -1    0    0    0  501 -0.00000000000E+00 -0.00000000000E+00 -0.34835899632E+03  0.34835899632E+03  0.00000000000E+00 0. -1.
         25    1    1    2    0    0  0.62402747223E+02 -0.25307164955E+03 -0.78392235873E+02  0.29951578475E+03  0.12500000000E+03 0.  0.
         21    1    1    2  503  502 -0.20518864578E+03  0.30242111861E+03  0.27181941801E+03  0.45546318111E+03  0.00000000000E+00 0. -1.
         -3    1    1    2    0  503  0.14278589856E+03 -0.49349469061E+02  0.16843258870E+02  0.15200946778E+03  0.00000000000E+00 0. -1.
<mgrwt>
<rscale>  4 0.35028961E+03</rscale>
<asrwt>0</asrwt>
<pdfrwt beam="1">  1       21 0.85942990E-01 0.35028961E+03</pdfrwt>
<pdfrwt beam="2">  1       -3 0.53593692E-01 0.35028961E+03</pdfrwt>
<totfact> 0.19242742E+02</totfact>
</mgrwt>
</event>
<event>
 5    0  0.4115852E+000  0.3054022E+03  0.7546771E-02  0.1082571E+00
          2   -1    0    0  502    0 -0.00000000000E+00  0.00000000000E+00  0.90327846729E+03  0.90327846729E+03  0.00000000000E+00 0.  1.
         21   -1    0    0  503  502  0.00000000000E+00 -0.00000000000E+00 -0.14444296528E+03  0.14444296528E+03  0.00000000000E+00 0. -1.
         25    1    1    2    0    0 -0.24506959943E+03  0.11760156477E+03  0.11436727812E+03  0.32030315469E+03  0.12500000000E+03 0.  0.
         21    1    1    2  503  501 -0.11145151573E+02  0.36446560766E+02  0.64081216020E+02  0.74558490072E+02  0.00000000000E+00 0. -1.
          2    1    1    2  501    0  0.25621475101E+03 -0.15404812553E+03  0.58038700788E+03  0.65285978780E+03  0.00000000000E+00 0.  1.
<mgrwt>
<rscale>  4 0.30540221E+03</rscale>
<asrwt>0</asrwt>
<pdfrwt beam="1">  1       21 0.22221995E-01 0.30540221E+03</pdfrwt>
<pdfrwt beam="2">  1        2 0.13896591E+00 0.30540221E+03</pdfrwt>
<totfact> 0.70381906E+03</totfact>
</mgrwt>
</event>
<event>
 5    0  0.4115852E+000  0.3855228E+03  0.7546771E-02  0.1048911E+00
         -1   -1    0    0    0  501 -0.00000000000E+00  0.00000000000E+00  0.65366115085E+03  0.65366115085E+03  0.00000000000E+00 0. -1.
         21   -1    0    0  501  502  0.00000000000E+00 -0.00000000000E+00 -0.37511556441E+03  0.37511556441E+03  0.00000000000E+00 0. -1.
         25    1    1    2    0    0  0.42410792603E+03 -0.73497681655E+02  0.14299712923E+03  0.47047063787E+03  0.12500000000E+03 0.  0.
         21    1    1    2  503  502 -0.97969803784E+02  0.16335112485E+02 -0.10840921131E+03  0.14702882524E+03  0.00000000000E+00 0.  1.
         -1    1    1    2    0  503 -0.32613812225E+03  0.57162569170E+02  0.24395766852E+03  0.41127725214E+03  0.00000000000E+00 0. -1.
<mgrwt>
<rscale>  4 0.38552282E+03</rscale>
<asrwt>0</asrwt>
<pdfrwt beam="1">  1       21 0.57710087E-01 0.38552282E+03</pdfrwt>
<pdfrwt beam="2">  1       -1 0.10056325E+00 0.38552282E+03</pdfrwt>
<totfact> 0.24326490E+02</totfact>
</mgrwt>
</event>
<event>
 5    0  0.4115852E+000  0.2555600E+03  0.7546771E-02  0.1109841E+00
         21   -1    0    0  503  502  0.00000000000E+00  0.00000000000E+00  0.93329361039E+03  0.93329361039E+03  0.00000000000E+00 0.  1.
          2   -1    0    0  502    0 -0.00000000000E+00 -0.00000000000E+00 -0.10955725440E+04  0.10955725440E+04  0.00000000000E+00 0. -1.
         25    1    1    2    0    0 -0.18207359400E+03 -0.23041634941E+03  0.95027869112E+02  0.33301318835E+03  0.12500000000E+03 0.  0.
         21    1    1    2  503  501  0.20981905751E+02  0.82017789006E+02  0.70442584517E+03  0.70949484102E+03  0.00000000000E+00 0.  1.
          2    1    1    2  501    0  0.16109168825E+03  0.14839856040E+03 -0.96173264785E+03  0.98635812497E+03  0.00000000000E+00 0. -1.
<mgrwt>
<rscale>  4 0.25555995E+03</rscale>
<asrwt>0</asrwt>
<pdfrwt beam="1">  1       21 0.14358363E+00 0.25555995E+03</pdfrwt>
<pdfrwt beam="2">  1        2 0.16854962E+00 0.25555995E+03</pdfrwt>
<totfact> 0.93104352E+01</totfact>
</mgrwt>
</event>
<event>
 5    0  0.4115852E+000  0.2542368E+03  0.7546771E-02  0.1110656E+00
         21   -1    0    0  503  502  0.00000000000E+00  0.00000000000E+00  0.16024317857E+03  0.16024317857E+03  0.00000000000E+00 0.  1.
          2   -1    0    0  502    0 -0.00000000000E+00 -0.00000000000E+00 -0.51748873810E+03  0.51748873810E+03  0.00000000000E+00 0.  1.
         25    1    1    2    0    0  0.15520498443E+03  0.20253296931E+03 -0.21206974860E+03  0.35455150419E+03  0.12500000000E+03 0.  0.
         21    1    1    2  503  501 -0.10881500608E+03 -0.17525722868E+03 -0.47542199909E+02  0.21169804563E+03  0.00000000000E+00 0.  1.
          2    1    1    2  501    0 -0.46389978354E+02 -0.27275740630E+02 -0.97633611019E+02  0.11148236685E+03  0.00000000000E+00 0.  1.
<mgrwt>
<rscale>  4 0.25423681E+03</rscale>
<asrwt>0</asrwt>
<pdfrwt beam="1">  1       21 0.24652796E-01 0.25423681E+03</pdfrwt>
<pdfrwt beam="2">  1        2 0.79613653E-01 0.25423681E+03</pdfrwt>
<totfact> 0.11518412E+04</totfact>
</mgrwt>
</event>
<event>
 5    0  0.4115852E+000  0.1984041E+03  0.7546771E-02  0.1151092E+00
         21   -1    0    0  501  502  0.00000000000E+00  0.00000000000E+00  0.60510675282E+03  0.60510675282E+03  0.00000000000E+00 0. -1.
         -3   -1    0    0    0  501 -0.00000000000E+00 -0.00000000000E+00 -0.12198573843E+04  0.12198573843E+04  0.00000000000E+00 0. -1.
         25    1    1    2    0    0  0.16546903677E+03 -0.12756609569E+03 -0.23194362346E+03  0.33626768409E+03  0.12500000000E+03 0.  0.
         21    1    1    2  503  502 -0.12746264414E+03  0.82948491133E+02  0.54154261331E+03  0.56249051535E+03  0.00000000000E+00 0. -1.
         -3    1    1    2    0  503 -0.38006392633E+02  0.44617604552E+02 -0.92434962136E+03  0.92620593770E+03  0.00000000000E+00 0. -1.
<mgrwt>
<rscale>  4 0.19840411E+03</rscale>
<asrwt>0</asrwt>
<pdfrwt beam="1">  1       21 0.93093347E-01 0.19840411E+03</pdfrwt>
<pdfrwt beam="2">  1       -3 0.18767037E+00 0.19840411E+03</pdfrwt>
<totfact> 0.91360806E+00</totfact>
</mgrwt>
</event>
<event>
 5    0  0.4115852E+000  0.2070307E+03  0.7546771E-02  0.1143939E+00
         21   -1    0    0  503  502  0.00000000000E+00  0.00000000000E+00  0.44369655187E+03  0.44369655187E+03  0.00000000000E+00 0. -1.
          1   -1    0    0  502    0 -0.00000000000E+00 -0.00000000000E+00 -0.95936778491E+03  0.95936778491E+03  0.00000000000E+00 0.  1.
         25    1    1    2    0    0  0.13854118027E+03  0.14512835467E+03  0.33064192363E+03  0.40645415439E+03  0.12500000000E+03 0.  0.
         21    1    1    2  503  501 -0.26370060336E+02 -0.25044612376E+02  0.62905461740E+02  0.72661611652E+02  0.00000000000E+00 0. -1.
          1    1    1    2  501    0 -0.11217111993E+03 -0.12008374229E+03 -0.90921861841E+03  0.92394857074E+03  0.00000000000E+00 0.  1.
<mgrwt>
<rscale>  4 0.20703073E+03</rscale>
<asrwt>0</asrwt>
<pdfrwt beam="1">  1       21 0.68261009E-01 0.20703073E+03</pdfrwt>
<pdfrwt beam="2">  1        1 0.14759504E+00 0.20703073E+03</pdfrwt>
<totfact> 0.37378432E+02</totfact>
</mgrwt>
</event>
<event>
 5    0  0.4115852E+000  0.3735071E+03  0.7546771E-02  0.1053360E+00
         21   -1    0    0  503  502  0.00000000000E+00  0.00000000000E+00  0.26190320123E+03  0.26190320123E+03  0.00000000000E+00 0. -1.
          2   -1    0    0  502    0 -0.00000000000E+00 -0.00000000000E+00 -0.51856408467E+04  0.51856408467E+04  0.00000000000E+00 0.  1.
         25    1    1    2    0    0 -0.75205628700E+02 -0.40147378075E+03 -0.95482029643E+03  0.10460133277E+04  0.12500000000E+03 0.  0.
         21    1    1    2  503  501  0.42949258932E+02  0.59543236894E+02  0.20281007570E+03  0.21568950532E+03  0.00000000000E+00 0. -1.
          2    1    1    2  501    0  0.32256369768E+02  0.34193054386E+03 -0.41717274247E+04  0.41858412149E+04  0.00000000000E+00 0.  1.
<mgrwt>
<rscale>  4 0.37350712E+03</rscale>
<asrwt>0</asrwt>
<pdfrwt beam="1">  1       21 0.40292806E-01 0.37350712E+03</pdfrwt>
<pdfrwt beam="2">  1        2 0.79779078E+00 0.37350712E+03</pdfrwt>
<totfact> 0.19434471E+00</totfact>
</mgrwt>
</event>
<event>
 5    0  0.4115852E+000  0.2950997E+03  0.7546771E-02  0.1087716E+00
         21   -1    0    0  503  502  0.00000000000E+00  0.00000000000E+00  0.18033897037E+03  0.18033897037E+03  0.00000000000E+00 0.  1.
          2   -1    0    0  502    0 -0.00000000000E+00 -0.00000000000E+00 -0.46870432747E+04  0.46870432747E+04  0.00000000000E+00 0.  1.
         25    1    1    2    0    0 -0.27931080096E+03  0.29779690594E+03 -0.13530682073E+04  0.14188432240E+04  0.12500000000E+03 0.  0.
         21    1    1    2  503  501  0.14314495474E+03 -0.90789500124E+02  0.92402103722E+02  0.19305791921E+03  0.00000000000E+00 0.  1.
          2    1    1    2  501    0  0.13616584622E+03 -0.20700740581E+03 -0.32460382008E+04  0.32554811019E+04  0.00000000000E+00 0.  1.
<mgrwt>
<rscale>  4 0.29509970E+03</rscale>
<asrwt>0</asrwt>
<pdfrwt beam="1">  1       21 0.27744458E-01 0.29509970E+03</pdfrwt>
<pdfrwt beam="2">  1        2 0.72108356E+00 0.29509970E+03</pdfrwt>
<totfact> 0.16823356E+01</totfact>
</mgrwt>
</event>
<event>
 5    0  0.4115852E+000  0.3493155E+03  0.7546771E-02  0.1062896E+00
          2   -1    0    0  502    0 -0.00000000000E+00  0.00000000000E+00  0.36494123473E+03  0.36494123473E+03  0.00000000000E+00 0.  1.
         21   -1    0    0  503  502  0.00000000000E+00 -0.00000000000E+00 -0.46023076025E+03  0.46023076025E+03  0.00000000000E+00 0.  1.
         25    1    1    2    0    0  0.15203036702E+03  0.33320423051E+03 -0.21879817115E+02  0.38761065275E+03  0.12500000000E+03 0.  0.
         21    1    1    2  503  501  0.79890277551E+01 -0.78075425065E+02 -0.10899039063E+03  0.13430748979E+03  0.00000000000E+00 0. -1.
          2    1    1    2  501    0 -0.16001939477E+03 -0.25512880545E+03  0.35580682233E+02  0.30325385244E+03  0.00000000000E+00 0.  1.
<mgrwt>
<rscale>  4 0.34931549E+03</rscale>
<asrwt>0</asrwt>
<pdfrwt beam="1">  1       21 0.70804732E-01 0.34931549E+03</pdfrwt>
<pdfrwt beam="2">  1        2 0.56144806E-01 0.34931549E+03</pdfrwt>
<totfact> 0.18847055E+03</totfact>
</mgrwt>
</event>
<event>
 5    0  0.4115852E+000  0.3783438E+03  0.7546771E-02  0.1051548E+00
          1   -1    0    0  502    0 -0.00000000000E+00  0.00000000000E+00  0.15058647000E+04  0.15058647000E+04  0.00000000000E+00 0.  1.
         21   -1    0    0  503  502  0.00000000000E+00 -0.00000000000E+00 -0.35445878274E+03  0.35445878274E+03  0.00000000000E+00 0.  1.
         25    1    1    2    0    0 -0.19300961227E+03 -0.19955389422E+03 -0.17767971604E+03  0.35251886279E+03  0.12500000000E+03 0.  0.
         21    1    1    2  503  501 -0.65267148202E+02 -0.57306833200E+02 -0.36691250260E+02  0.94287441431E+02  0.00000000000E+00 0.  1.
          1    1    1    2  501    0  0.25827676048E+03  0.25686072742E+03  0.13657768836E+04  0.14135171786E+04  0.00000000000E+00 0.  1.
<mgrwt>
<rscale>  4 0.37834378E+03</rscale>
<asrwt>0</asrwt>
<pdfrwt beam="1">  1       21 0.54532121E-01 0.37834378E+03</pdfrwt>
<pdfrwt beam="2">  1        1 0.23167149E+00 0.37834378E+03</pdfrwt>
<totfact> 0.23049833E+02</totfact>
</mgrwt>
</event>
<event>
 5    0  0.4115852E+000  0.2143590E+03  0.7546771E-02  0.1138160E+00
         21   -1    0    0  503  502  0.00000000000E+00  0.00000000000E+00  0.36443108536E+03  0.36443108536E+03  0.00000000000E+00 0.  1.
          1   -1    0    0  502    0 -0.00000000000E+00 -0.00000000000E+00 -0.28169956086E+04  0.28169956086E+04  0.00000000000E+00 0.  1.
         25    1    1    2    0    0 -0.18971634507E+03  0.66363434291E+02 -0.10215771735E+04  0.10486378395E+04  0.12500000000E+03 0.  0.
         21    1    1    2  503  501  0.27343755436E+02 -0.28809438659E+02  0.34586475138E+03  0.34813803436E+03  0.00000000000E+00 0.  1.
          1    1    1    2  501    0  0.16237258964E+03 -0.37553995632E+02 -0.17768521011E+04  0.17846508201E+04  0.00000000000E+00 0.  1.
<mgrwt>
<rscale>  4 0.21435901E+03</rscale>
<asrwt>0</asrwt>
<pdfrwt beam="1">  1       21 0.56066319E-01 0.21435901E+03</pdfrwt>
<pdfrwt beam="2">  1        1 0.43338395E+00 0.21435901E+03</pdfrwt>
<totfact> 0.32853371E+01</totfact>
</mgrwt>
</event>
<event>
 5    0  0.4115852E+000  0.3438074E+03  0.7546771E-02  0.1065186E+00
          2   -1    0    0  502    0 -0.00000000000E+00  0.00000000000E+00  0.31262225957E+03  0.31262225957E+03  0.00000000000E+00 0.  1.
         21   -1    0    0  503  502  0.00000000000E+00 -0.00000000000E+00 -0.15365096885E+04  0.15365096885E+04  0.00000000000E+00 0.  1.
         25    1    1    2    0    0  0.25744642990E+03 -0.14076972513E+03 -0.92255927417E+03  0.97613287729E+03  0.12500000000E+03 0.  0.
         21    1    1    2  503  501  0.19525365029E+02 -0.25183084389E+02 -0.49530466637E+03  0.49632866142E+03  0.00000000000E+00 0.  1.
          2    1    1    2  501    0 -0.27697179493E+03  0.16595280952E+03  0.19397651166E+03  0.37667040931E+03  0.00000000000E+00 0.  1.
<mgrwt>
<rscale>  4 0.34380736E+03</rscale>
<asrwt>0</asrwt>
<pdfrwt beam="1">  1       21 0.23638610E+00 0.34380736E+03</pdfrwt>
<pdfrwt beam="2">  1        2 0.48095734E-01 0.34380736E+03</pdfrwt>
<totfact> 0.92662958E+01</totfact>
</mgrwt>
</event>
<event>
 5    0  0.4115852E+000  0.4052054E+03  0.7546771E-02  0.1041992E+00
         21   -1    0    0  503  502  0.00000000000E+00  0.00000000000E+00  0.10091761663E+03  0.10091761663E+03  0.00000000000E+00 0.  1.
          2   -1    0    0  502    0 -0.00000000000E+00 -0.00000000000E+00 -0.23804250775E+04  0.23804250775E+04  0.00000000000E+00 0.  1.
         25    1    1    2    0    0  0.16001092370E+03 -0.33999365052E+03 -0.45284234625E+03  0.60157324463E+03  0.12500000000E+03 0.  0.
         21    1    1    2  503  501 -0.12986069262E+02 -0.19320813664E+02 -0.16736737895E+02  0.28671418362E+02  0.00000000000E+00 0.  1.
          2    1    1    2  501    0 -0.14702485444E+03  0.35931446418E+03 -0.18099283767E+04  0.18510980312E+04  0.00000000000E+00 0.  1.
<mgrwt>
<rscale>  4 0.40520539E+03</rscale>
<asrwt>0</asrwt>
<pdfrwt beam="1">  1       21 0.15525788E-01 0.40520539E+03</pdfrwt>
<pdfrwt beam="2">  1        2 0.36621922E+00 0.40520539E+03</pdfrwt>
<totfact> 0.20390100E+03</totfact>
</mgrwt>
</event>
<event>
 5    0  0.4115852E+000  0.5657041E+03  0.7546771E-02  0.9979230E-01
          2   -1    0    0  502    0 -0.00000000000E+00  0.00000000000E+00  0.26024329909E+04  0.26024329909E+04  0.00000000000E+00 0. -1.
         21   -1    0    0  503  502  0.00000000000E+00 -0.00000000000E+00 -0.28736865233E+03  0.28736865233E+03  0.00000000000E+00 0. -1.
         25    1    1    2    0    0  0.44230804930E+03  0.36840412555E+03  0.10753516146E+03  0.59878779308E+03  0.12500000000E+03 0.  0.
         21    1    1    2  503  501 -0.56004954214E+01 -0.36583729001E+02  0.37276083282E+02  0.52528479527E+02  0.00000000000E+00 0.  1.
          2    1    1    2  501    0 -0.43670755388E+03 -0.33182039655E+03  0.21702530938E+04  0.22384853706E+04  0.00000000000E+00 0. -1.
<mgrwt>
<rscale>  4 0.56570406E+03</rscale>
<asrwt>0</asrwt>
<pdfrwt beam="1">  1       21 0.44210564E-01 0.56570406E+03</pdfrwt>
<pdfrwt beam="2">  1        2 0.40037429E+00 0.56570406E+03</pdfrwt>
<totfact> 0.18653456E+02</totfact>
</mgrwt>
</event>
<event>
 5    0  0.4115852E+000  0.2745549E+03  0.7546771E-02  0.1098701E+00
         21   -1    0    0  503  502  0.00000000000E+00  0.00000000000E+00  0.56399825821E+03  0.56399825821E+03  0.00000000000E+00 0. -1.
          1   -1    0    0  502    0 -0.00000000000E+00 -0.00000000000E+00 -0.14394857891E+03  0.14394857891E+03  0.00000000000E+00 0. -1.
         25    1    1    2    0    0  0.22174927457E+03  0.85604918887E+02  0.30117371328E+03  0.40352391315E+03  0.12500000000E+03 0.  0.
         21    1    1    2  503  501  0.10692136922E+02  0.21696524699E+02  0.11930779380E+02  0.26970437011E+02  0.00000000000E+00 0. -1.
          1    1    1    2  501    0 -0.23244141149E+03 -0.10730144359E+03  0.10694518664E+03  0.27745248696E+03  0.00000000000E+00 0. -1.
<mgrwt>
<rscale>  4 0.27455487E+03</rscale>
<asrwt>0</asrwt>
<pdfrwt beam="1">  1       21 0.86768961E-01 0.27455487E+03</pdfrwt>
<pdfrwt beam="2">  1        1 0.22145936E-01 0.27455487E+03</pdfrwt>
<totfact> 0.26850005E+03</totfact>
</mgrwt>
</event>
<event>
 5    0  0.4115852E+000  0.2227563E+03  0.7546771E-02  0.1131845E+00
         21   -1    0    0  501  502  0.00000000000E+00  0.00000000000E+00  0.66268996888E+02  0.66268996888E+02  0.00000000000E+00 0. -1.
         -1   -1    0    0    0  501 -0.00000000000E+00 -0.00000000000E+00 -0.10874506555E+04  0.10874506555E+04  0.00000000000E+00 0. -1.
         25    1    1    2    0    0 -0.98812767156E+02  0.18498829111E+03 -0.73932707381E+03  0.77859755514E+03  0.12500000000E+03 0.  0.
         21    1    1    2  503  502  0.12833255795E+02 -0.52539141497E+02 -0.23975124374E+01  0.54136881231E+02  0.00000000000E+00 0.  1.
         -1    1    1    2    0  503  0.85979511361E+02 -0.13244914961E+03 -0.27945707234E+03  0.32098521599E+03  0.00000000000E+00 0. -1.
<mgrwt>
<rscale>  4 0.22275634E+03</rscale>
<asrwt>0</asrwt>
<pdfrwt beam="1">  1       21 0.10195231E-01 0.22275634E+03</pdfrwt>
<pdfrwt beam="2">  1       -1 0.16730010E+00 0.22275634E+03</pdfrwt>
<totfact> 0.20756451E+03</totfact>
</mgrwt>
</event>
<event>
 5    0  0.4115852E+000  0.3793844E+03  0.7546771E-02  0.1051162E+00
         21   -1    0    0  503  502  0.00000000000E+00  0.00000000000E+00  0.10636757192E+03  0.10636757192E+03  0.00000000000E+00 0. -1.
          1   -1    0    0  502    0 -0.00000000000E+00 -0.00000000000E+00 -0.15765673694E+04  0.15765673694E+04  0.00000000000E+00 0. -1.
         25    1    1    2    0    0  0.22122652162E+03 -0.24011985680E+03 -0.91420023390E+03  0.97876748370E+03  0.12500000000E+03 0.  0.
         21    1    1    2  503  501 -0.26779501457E+03  0.26586667731E+03 -0.50541695338E+03  0.63074999540E+03  0.00000000000E+00 0. -1.
          1    1    1    2  501    0  0.46568492953E+02 -0.25746820513E+02 -0.50582610177E+02  0.73417462192E+02  0.00000000000E+00 0. -1.
<mgrwt>
<rscale>  4 0.37938438E+03</rscale>
<asrwt>0</asrwt>
<pdfrwt beam="1">  1       21 0.16364243E-01 0.37938438E+03</pdfrwt>
<pdfrwt beam="2">  1        1 0.24254881E+00 0.37938438E+03</pdfrwt>
<totfact> 0.22595819E+03</totfact>
</mgrwt>
</event>
<event>
 5    0  0.4115852E+000  0.2562655E+03  0.7546771E-02  0.1109408E+00
          2   -1    0    0  502    0 -0.00000000000E+00  0.00000000000E+00  0.15888669255E+03  0.15888669255E+03  0.00000000000E+00 0. -1.
         21   -1    0    0  503  502  0.00000000000E+00 -0.00000000000E+00 -0.86586948737E+03  0.86586948737E+03  0.00000000000E+00 0.  1.
         25    1    1    2    0    0 -0.13392944814E+03  0.18076432243E+03 -0.73188768669E+03  0.77582048392E+03  0.12500000000E+03 0.  0.
         21    1    1    2  503  501 -0.94393084821E+01 -0.18159259059E+02 -0.18800449654E+02  0.27790576485E+02  0.00000000000E+00 0. -1.
          2    1    1    2  501    0  0.14336875662E+03 -0.16260506337E+03  0.43705341520E+02  0.22114511952E+03  0.00000000000E+00 0. -1.
<mgrwt>
<rscale>  4 0.25626546E+03</rscale>
<asrwt>0</asrwt>
<pdfrwt beam="1">  1       21 0.13321069E+00 0.25626546E+03</pdfrwt>
<pdfrwt beam="2">  1        2 0.24444106E-01 0.25626546E+03</pdfrwt>
<totfact> 0.10677058E+03</totfact>
</mgrwt>
</event>
<event>
 5    0  0.4115852E+000  0.1864767E+03  0.7546771E-02  0.1161678E+00
         21   -1    0    0  503  502  0.00000000000E+00  0.00000000000E+00  0.13110975796E+03  0.13110975796E+03  0.00000000000E+00 0.  1.
          2   -1    0    0  502    0 -0.00000000000E+00 -0.00000000000E+00 -0.53112202603E+03  0.53112202603E+03  0.00000000000E+00 0.  1.
         25    1    1    2    0    0  0.12851461765E+03 -0.15336256166E+03 -0.14237759408E+03  0.27555845399E+03  0.12500000000E+03 0.  0.
         21    1    1    2  503  501 -0.84278731513E+02  0.85691150972E+02 -0.37744361014E+01  0.12025025700E+03  0.00000000000E+00 0.  1.
          2    1    1    2  501    0 -0.44235886139E+02  0.67671410689E+02 -0.25386023789E+03  0.26642307300E+03  0.00000000000E+00 0.  1.
<mgrwt>
<rscale>  4 0.18647674E+03</rscale>
<asrwt>0</asrwt>
<pdfrwt beam="1">  1       21 0.20170732E-01 0.18647674E+03</pdfrwt>
<pdfrwt beam="2">  1        2 0.81711080E-01 0.18647674E+03</pdfrwt>
<totfact> 0.16572142E+04</totfact>
</mgrwt>
</event>
<event>
 5    0  0.4115852E+000  0.4087062E+03  0.7546771E-02  0.1040806E+00
          2   -1    0    0  502    0 -0.00000000000E+00  0.00000000000E+00  0.25564173776E+04  0.25564173776E+04  0.00000000000E+00 0. -1.
         21   -1    0    0  503  502  0.00000000000E+00 -0.00000000000E+00 -0.31643360038E+03  0.31643360038E+03  0.00000000000E+00 0. -1.
         25    1    1    2    0    0 -0.50502375168E+02 -0.42147985662E+03 -0.64164562252E+02  0.44714410483E+03  0.12500000000E+03 0.  0.
         21    1    1    2  503  501  0.10161399366E+03  0.37204896422E+02  0.21438638949E+02  0.11031420247E+03  0.00000000000E+00 0. -1.
          2    1    1    2  501    0 -0.51111618495E+02  0.38427496020E+03  0.22827097005E+04  0.23153926706E+04  0.00000000000E+00 0. -1.
<mgrwt>
<rscale>  4 0.40870620E+03</rscale>
<asrwt>0</asrwt>
<pdfrwt beam="1">  1       21 0.48682094E-01 0.40870620E+03</pdfrwt>
<pdfrwt beam="2">  1        2 0.39329497E+00 0.40870620E+03</pdfrwt>
<totfact> 0.17121538E+02</totfact>
</mgrwt>
</event>
<event>
 5    0  0.4115852E+000  0.2353127E+03  0.7546771E-02  0.1122955E+00
          2   -1    0    0  502    0 -0.00000000000E+00  0.00000000000E+00  0.22764094238E+04  0.22764094238E+04  0.00000000000E+00 0. -1.
         21   -1    0    0  503  502  0.00000000000E+00 -0.00000000000E+00 -0.21167617664E+03  0.21167617664E+03  0.00000000000E+00 0.  1.
         25    1    1    2    0    0  0.18306589952E+03 -0.22948330450E+03  0.84561908386E+03  0.90380990568E+03  0.12500000000E+03 0.  0.
         21    1    1    2  503  501 -0.11025706127E+03  0.15938887103E+03 -0.12871905836E+03  0.23265860774E+03  0.00000000000E+00 0.  1.
          2    1    1    2  501    0 -0.72808838245E+02  0.70094433464E+02  0.13478332216E+04  0.13516170870E+04  0.00000000000E+00 0. -1.
<mgrwt>
<rscale>  4 0.23531273E+03</rscale>
<asrwt>0</asrwt>
<pdfrwt beam="1">  1       21 0.32565567E-01 0.23531273E+03</pdfrwt>
<pdfrwt beam="2">  1        2 0.35021682E+00 0.23531273E+03</pdfrwt>
<totfact> 0.60740754E+02</totfact>
</mgrwt>
</event>
<event>
 5    0  0.4115852E+000  0.2267765E+03  0.7546771E-02  0.1128929E+00
          2   -1    0    0  502    0 -0.00000000000E+00  0.00000000000E+00  0.15168598779E+04  0.15168598779E+04  0.00000000000E+00 0. -1.
         21   -1    0    0  503  502  0.00000000000E+00 -0.00000000000E+00 -0.61373805872E+03  0.61373805872E+03  0.00000000000E+00 0. -1.
         25    1    1    2    0    0  0.11401567738E+03 -0.18903171490E+03 -0.26939555514E+03  0.37004260438E+03  0.12500000000E+03 0.  0.
         21    1    1    2  503  501 -0.18158530047E+01  0.37392685049E+02 -0.28673127732E+03  0.28916489347E+03  0.00000000000E+00 0. -1.
          2    1    1    2  501    0 -0.11219982437E+03  0.15163902985E+03  0.14592486516E+04  0.14713904388E+04  0.00000000000E+00 0. -1.
<mgrwt>
<rscale>  4 0.22677653E+03</rscale>
<asrwt>0</asrwt>
<pdfrwt beam="1">  1       21 0.94421240E-01 0.22677653E+03</pdfrwt>
<pdfrwt beam="2">  1        2 0.23336306E+00 0.22677653E+03</pdfrwt>
<totfact> 0.15695323E+02</totfact>
</mgrwt>
</event>
<event>
 5    0  0.4115852E+000  0.3390556E+03  0.7546771E-02  0.1067199E+00
          1   -1    0    0  502    0 -0.00000000000E+00  0.00000000000E+00  0.17786598343E+04  0.17786598343E+04  0.00000000000E+00 0. -1.
         21   -1    0    0  503  502  0.00000000000E+00 -0.00000000000E+00 -0.13626314073E+03  0.13626314073E+03  0.00000000000E+00 0.  1.
         25    1    1    2    0    0  0.33484160916E+03  0.10533583988E+02  0.21088938999E+03  0.41512551648E+03  0.12500000000E+03 0.  0.
         21    1    1    2  503  501 -0.23143883428E+02 -0.25474296095E+02 -0.25951697066E+00  0.34418693332E+02  0.00000000000E+00 0. -1.
          1    1    1    2  501    0 -0.31169772574E+03  0.14940712107E+02  0.14317668205E+04  0.14653787652E+04  0.00000000000E+00 0. -1.
<mgrwt>
<rscale>  4 0.33905556E+03</rscale>
<asrwt>0</asrwt>
<pdfrwt beam="1">  1       21 0.20963561E-01 0.33905556E+03</pdfrwt>
<pdfrwt beam="2">  1        1 0.27363996E+00 0.33905556E+03</pdfrwt>
<totfact> 0.10562984E+03</totfact>
</mgrwt>
</event>
<event>
 5    0  0.4115852E+000  0.2907896E+03  0.7546771E-02  0.1089938E+00
         21   -1    0    0  503  502  0.00000000000E+00  0.00000000000E+00  0.53331450186E+03  0.53331450186E+03  0.00000000000E+00 0. -1.
          1   -1    0    0  502    0 -0.00000000000E+00 -0.00000000000E+00 -0.52567319107E+03  0.52567319107E+03  0.00000000000E+00 0. -1.
         25    1    1    2    0    0  0.90115338881E+02  0.27312280829E+03  0.28473215384E+03  0.42357318392E+03  0.12500000000E+03 0.  0.
         21    1    1    2  503  501 -0.19489933562E+03 -0.26856092442E+02  0.59359544268E+02  0.20550074507E+03  0.00000000000E+00 0. -1.
          1    1    1    2  501    0  0.10478399674E+03 -0.24626671585E+03 -0.33645038731E+03  0.42991376395E+03  0.00000000000E+00 0. -1.
<mgrwt>
<rscale>  4 0.29078961E+03</rscale>
<asrwt>0</asrwt>
<pdfrwt beam="1">  1       21 0.82048385E-01 0.29078961E+03</pdfrwt>
<pdfrwt beam="2">  1        1 0.80872799E-01 0.29078961E+03</pdfrwt>
<totfact> 0.57771063E+02</totfact>
</mgrwt>
</event>
<event>
 5    0  0.4115852E+000  0.2689133E+03  0.7546771E-02  0.1101903E+00
          2   -1    0    0  502    0 -0.00000000000E+00  0.00000000000E+00  0.11536520990E+04  0.11536520990E+04  0.00000000000E+00 0. -1.
         21   -1    0    0  503  502  0.00000000000E+00 -0.00000000000E+00 -0.10413468295E+03  0.10413468295E+03  0.00000000000E+00 0. -1.
         25    1    1    2    0    0  0.10553625889E+03  0.22062105763E+03  0.14093537857E+03  0.30870590202E+03  0.12500000000E+03 0.  0.
         21    1    1    2  503  501 -0.91573983042E+02 -0.20052276557E+03  0.59463235549E+03  0.63417884865E+03  0.00000000000E+00 0. -1.
          2    1    1    2  501    0 -0.13962275845E+02 -0.20098292060E+02  0.31394968199E+03  0.31490203129E+03  0.00000000000E+00 0. -1.
<mgrwt>
<rscale>  4 0.26891325E+03</rscale>
<asrwt>0</asrwt>
<pdfrwt beam="1">  1       21 0.16020721E-01 0.26891325E+03</pdfrwt>
<pdfrwt beam="2">  1        2 0.17748493E+00 0.26891325E+03</pdfrwt>
<totfact> 0.92240494E+03</totfact>
</mgrwt>
</event>
<event>
 5    0  0.4115852E+000  0.3245905E+03  0.7546771E-02  0.1073556E+00
         21   -1    0    0  501  502  0.00000000000E+00  0.00000000000E+00  0.11839569996E+04  0.11839569996E+04  0.00000000000E+00 0.  1.
         -3   -1    0    0    0  501 -0.00000000000E+00 -0.00000000000E+00 -0.92805044126E+02  0.92805044126E+02  0.00000000000E+00 0. -1.
         25    1    1    2    0    0 -0.21700959039E+03  0.18643889210E+03  0.55797828348E+03  0.63938829177E+03  0.12500000000E+03 0.  0.
         21    1    1    2  503  502 -0.36251659896E+02 -0.50808033997E+01  0.73293150984E+02  0.81926084915E+02  0.00000000000E+00 0.  1.
         -3    1    1    2    0  503  0.25326125028E+03 -0.18135808870E+03  0.45988052103E+03  0.55544766707E+03  0.00000000000E+00 0. -1.
<mgrwt>
<rscale>  4 0.32459050E+03</rscale>
<asrwt>0</asrwt>
<pdfrwt beam="1">  1       21 0.18214722E+00 0.32459050E+03</pdfrwt>
<pdfrwt beam="2">  1       -3 0.14277700E-01 0.32459050E+03</pdfrwt>
<totfact> 0.33537997E+02</totfact>
</mgrwt>
</event>
<event>
 5    0  0.4115852E+000  0.2849369E+03  0.7546771E-02  0.1093023E+00
         21   -1    0    0  503  502  0.00000000000E+00  0.00000000000E+00  0.60260240500E+03  0.60260240500E+03  0.00000000000E+00 0.  1.
          2   -1    0    0  502    0 -0.00000000000E+00 -0.00000000000E+00 -0.35642480403E+04  0.35642480403E+04  0.00000000000E+00 0.  1.
         25    1    1    2    0    0  0.29366013512E+03 -0.17167118205E+03  0.65837047991E+02  0.36832972537E+03  0.12500000000E+03 0.  0.
         21    1    1    2  503  501 -0.66406143551E+02  0.57698076608E+02  0.37569659797E+03  0.38585849436E+03  0.00000000000E+00 0.  1.
          2    1    1    2  501    0 -0.22725399157E+03  0.11397310544E+03 -0.34031792813E+04  0.34126622256E+04  0.00000000000E+00 0.  1.
<mgrwt>
<rscale>  4 0.28493691E+03</rscale>
<asrwt>0</asrwt>
<pdfrwt beam="1">  1       21 0.92708062E-01 0.28493691E+03</pdfrwt>
<pdfrwt beam="2">  1        2 0.54834586E+00 0.28493691E+03</pdfrwt>
<totfact> 0.10778919E+01</totfact>
</mgrwt>
</event>
<event>
 5    0  0.4115852E+000  0.2271803E+03  0.7546771E-02  0.1128640E+00
          1   -1    0    0  502    0 -0.00000000000E+00  0.00000000000E+00  0.22328801312E+04  0.22328801312E+04  0.00000000000E+00 0.  1.
         21   -1    0    0  503  502  0.00000000000E+00 -0.00000000000E+00 -0.34526704158E+02  0.34526704158E+02  0.00000000000E+00 0.  1.
         25    1    1    2    0    0  0.19920775863E+03  0.41153638349E+02  0.57830095863E+03  0.62564714640E+03  0.12500000000E+03 0.  0.
         21    1    1    2  503  501 -0.14123950862E+02 -0.16924490039E+02  0.16899350778E+02  0.27776112179E+02  0.00000000000E+00 0.  1.
          1    1    1    2  501    0 -0.18508380777E+03 -0.24229148310E+02  0.16031531177E+04  0.16139835768E+04  0.00000000000E+00 0.  1.
<mgrwt>
<rscale>  4 0.22718033E+03</rscale>
<asrwt>0</asrwt>
<pdfrwt beam="1">  1       21 0.53118024E-02 0.22718033E+03</pdfrwt>
<pdfrwt beam="2">  1        1 0.34351991E+00 0.22718033E+03</pdfrwt>
<totfact> 0.65366275E+03</totfact>
</mgrwt>
</event>
<event>
 5    0  0.4115852E+000  0.2217641E+03  0.7546771E-02  0.1132575E+00
          2   -1    0    0  502    0 -0.00000000000E+00  0.00000000000E+00  0.47976652212E+03  0.47976652212E+03  0.00000000000E+00 0. -1.
         21   -1    0    0  503  502  0.00000000000E+00 -0.00000000000E+00 -0.16618846051E+03  0.16618846051E+03  0.00000000000E+00 0. -1.
         25    1    1    2    0    0  0.14339694711E+03 -0.14047919118E+03  0.61479141781E+02  0.24433946155E+03  0.12500000000E+03 0.  0.
         21    1    1    2  503  501 -0.36900209335E+02 -0.32681387190E+01 -0.42855692903E+02  0.56647299969E+02  0.00000000000E+00 0. -1.
          2    1    1    2  501    0 -0.10649673778E+03  0.14374732990E+03  0.29495461273E+03  0.34496822112E+03  0.00000000000E+00 0. -1.
<mgrwt>
<rscale>  4 0.22176411E+03</rscale>
<asrwt>0</asrwt>
<pdfrwt beam="1">  1       21 0.25567456E-01 0.22176411E+03</pdfrwt>
<pdfrwt beam="2">  1        2 0.73810233E-01 0.22176411E+03</pdfrwt>
<totfact> 0.11766249E+04</totfact>
</mgrwt>
</event>
<event>
 5    0  0.4115852E+000  0.2826001E+03  0.7546771E-02  0.1094277E+00
         21   -1    0    0  503  502  0.00000000000E+00  0.00000000000E+00  0.73807864779E+02  0.73807864779E+02  0.00000000000E+00 0. -1.
          2   -1    0    0  502    0 -0.00000000000E+00 -0.00000000000E+00 -0.16796229840E+04  0.16796229840E+04  0.00000000000E+00 0.  1.
         25    1    1    2    0    0  0.90736265164E+02 -0.24135879755E+03 -0.35270470646E+03  0.45443673809E+03  0.12500000000E+03 0.  0.
         21    1    1    2  503  501  0.26574805609E+02  0.17495963044E+02 -0.14685237435E+02  0.35042619972E+02  0.00000000000E+00 0. -1.
          2    1    1    2  501    0 -0.11731107077E+03  0.22386283450E+03 -0.12384251753E+04  0.12639514907E+04  0.00000000000E+00 0.  1.
<mgrwt>
<rscale>  4 0.28260006E+03</rscale>
<asrwt>0</asrwt>
<pdfrwt beam="1">  1       21 0.11355056E-01 0.28260006E+03</pdfrwt>
<pdfrwt beam="2">  1        2 0.25840353E+00 0.28260006E+03</pdfrwt>
<totfact> 0.88706803E+03</totfact>
</mgrwt>
</event>
<event>
 5    0  0.4115852E+000  0.3884161E+03  0.7546771E-02  0.1047866E+00
          2   -1    0    0  502    0 -0.00000000000E+00  0.00000000000E+00  0.31138546095E+04  0.31138546095E+04  0.00000000000E+00 0.  1.
         21   -1    0    0  503  502  0.00000000000E+00 -0.00000000000E+00 -0.55621664631E+03  0.55621664631E+03  0.00000000000E+00 0. -1.
         25    1    1    2    0    0  0.27188108697E+03 -0.21526267176E+03 -0.40729854284E+03  0.54934000975E+03  0.12500000000E+03 0.  0.
         21    1    1    2  503  501  0.15856493439E+02 -0.14539317553E+02 -0.65016525380E+02  0.68483346235E+02  0.00000000000E+00 0.  1.
          2    1    1    2  501    0 -0.28773758041E+03  0.22980198931E+03  0.30299530314E+04  0.30522478998E+04  0.00000000000E+00 0.  1.
<mgrwt>
<rscale>  4 0.38841615E+03</rscale>
<asrwt>0</asrwt>
<pdfrwt beam="1">  1       21 0.85571793E-01 0.38841615E+03</pdfrwt>
<pdfrwt beam="2">  1        2 0.47905455E+00 0.38841615E+03</pdfrwt>
<totfact> 0.23418472E+01</totfact>
</mgrwt>
</event>
<event>
 5    0  0.4115852E+000  0.2754463E+03  0.7546771E-02  0.1098202E+00
         21   -1    0    0  503  502  0.00000000000E+00  0.00000000000E+00  0.15279706896E+03  0.15279706896E+03  0.00000000000E+00 0.  1.
          2   -1    0    0  502    0 -0.00000000000E+00 -0.00000000000E+00 -0.11878121221E+04  0.11878121221E+04  0.00000000000E+00 0. -1.
         25    1    1    2    0    0  0.14136777118E+03 -0.23111563917E+03 -0.42330031361E+02  0.30135712527E+03  0.12500000000E+03 0.  0.
         21    1    1    2  503  501 -0.25130395874E+02  0.18228643418E+02 -0.20350026783E+02  0.37120665777E+02  0.00000000000E+00 0.  1.
          2    1    1    2  501    0 -0.11623737531E+03  0.21288699575E+03 -0.97233499503E+03  0.10021314000E+04  0.00000000000E+00 0. -1.
<mgrwt>
<rscale>  4 0.27544629E+03</rscale>
<asrwt>0</asrwt>
<pdfrwt beam="1">  1       21 0.23507242E-01 0.27544629E+03</pdfrwt>
<pdfrwt beam="2">  1        2 0.18274032E+00 0.27544629E+03</pdfrwt>
<totfact> 0.42830966E+03</totfact>
</mgrwt>
</event>
<event>
 5    0  0.4115852E+000  0.2905507E+03  0.7546771E-02  0.1090062E+00
         21   -1    0    0  503  502  0.00000000000E+00  0.00000000000E+00  0.95325050308E+02  0.95325050308E+02  0.00000000000E+00 0. -1.
          2   -1    0    0  502    0 -0.00000000000E+00 -0.00000000000E+00 -0.30117820235E+04  0.30117820235E+04  0.00000000000E+00 0. -1.
         25    1    1    2    0    0 -0.18944674312E+03  0.21586954072E+03 -0.71459904796E+03  0.78023491747E+03  0.12500000000E+03 0.  0.
         21    1    1    2  503  501  0.45447834877E+02 -0.28464511567E+01  0.45782034851E+02  0.64572460805E+02  0.00000000000E+00 0. -1.
          2    1    1    2  501    0  0.14399890825E+03 -0.21302308956E+03 -0.22476399601E+04  0.22622996955E+04  0.00000000000E+00 0. -1.
<mgrwt>
<rscale>  4 0.29055071E+03</rscale>
<asrwt>0</asrwt>
<pdfrwt beam="1">  1       21 0.14665391E-01 0.29055071E+03</pdfrwt>
<pdfrwt beam="2">  1        2 0.46335113E+00 0.29055071E+03</pdfrwt>
<totfact> 0.10372447E+03</totfact>
</mgrwt>
</event>
<event>
 5    0  0.4115852E+000  0.2452000E+03  0.7546771E-02  0.1116376E+00
          2   -1    0    0  502    0 -0.00000000000E+00  0.00000000000E+00  0.29210324930E+04  0.29210324930E+04  0.00000000000E+00 0. -1.
         21   -1    0    0  503  502  0.00000000000E+00 -0.00000000000E+00 -0.24573371739E+03  0.24573371739E+03  0.00000000000E+00 0. -1.
         25    1    1    2    0    0  0.22889512080E+03 -0.92661205548E+02 -0.13273238262E+03  0.30695595895E+03  0.12500000000E+03 0.  0.
         21    1    1    2  503  501 -0.54040160938E+02 -0.24338846596E+02  0.18118052114E+02  0.61975658610E+02  0.00000000000E+00 0. -1.
          2    1    1    2  501    0 -0.17485495986E+03  0.11700005214E+03  0.27899131061E+04  0.27978345928E+04  0.00000000000E+00 0. -1.
<mgrwt>
<rscale>  4 0.24519998E+03</rscale>
<asrwt>0</asrwt>
<pdfrwt beam="1">  1       21 0.37805189E-01 0.24519998E+03</pdfrwt>
<pdfrwt beam="2">  1        2 0.44938959E+00 0.24519998E+03</pdfrwt>
<totfact> 0.19666157E+02</totfact>
</mgrwt>
</event>
<event>
 5    0  0.4115852E+000  0.2806662E+03  0.7546771E-02  0.1095326E+00
          1   -1    0    0  502    0 -0.00000000000E+00  0.00000000000E+00  0.11260607747E+04  0.11260607747E+04  0.00000000000E+00 0.  1.
         21   -1    0    0  503  502  0.00000000000E+00 -0.00000000000E+00 -0.10439554886E+04  0.10439554886E+04  0.00000000000E+00 0.  1.
         25    1    1    2    0    0  0.30566883171E+03 -0.28799798026E+02  0.86572180711E+03  0.92701785870E+03  0.12500000000E+03 0.  0.
         21    1    1    2  503  501 -0.25006509201E+03 -0.12570436136E+02 -0.99214689350E+03  0.10232526689E+04  0.00000000000E+00 0.  1.
          1    1    1    2  501    0 -0.55603739706E+02  0.41370234162E+02  0.20853037247E+03  0.21974573577E+03  0.00000000000E+00 0.  1.
<mgrwt>
<rscale>  4 0.28066619E+03</rscale>
<asrwt>0</asrwt>
<pdfrwt beam="1">  1       21 0.16060854E+00 0.28066619E+03</pdfrwt>
<pdfrwt beam="2">  1        1 0.17324012E+00 0.28066619E+03</pdfrwt>
<totfact> 0.33494912E+01</totfact>
</mgrwt>
</event>
<event>
 5    0  0.4115852E+000  0.2868809E+03  0.7546771E-02  0.1091989E+00
          2   -1    0    0  502    0 -0.00000000000E+00  0.00000000000E+00  0.24337304792E+03  0.24337304792E+03  0.00000000000E+00 0.  1.
         21   -1    0    0  503  502  0.00000000000E+00 -0.00000000000E+00 -0.58123681191E+03  0.58123681191E+03  0.00000000000E+00 0.  1.
         25    1    1    2    0    0 -0.41837903796E+02  0.22008845974E+03 -0.32201146542E+02  0.25855609477E+03  0.12500000000E+03 0.  0.
         21    1    1    2  503  501  0.70592933907E+02  0.94549938118E+02 -0.20126367911E+03  0.23330263960E+03  0.00000000000E+00 0.  1.
          2    1    1    2  501    0 -0.28755030111E+02 -0.31463839786E+03 -0.10439893835E+03  0.33275112546E+03  0.00000000000E+00 0.  1.
<mgrwt>
<rscale>  4 0.28688087E+03</rscale>
<asrwt>0</asrwt>
<pdfrwt beam="1">  1       21 0.89421047E-01 0.28688087E+03</pdfrwt>
<pdfrwt beam="2">  1        2 0.37442008E-01 0.28688087E+03</pdfrwt>
<totfact> 0.17474075E+03</totfact>
</mgrwt>
</event>
<event>
 5    0  0.4115852E+000  0.2593671E+03  0.7546771E-02  0.1107524E+00
         -4   -1    0    0    0  501 -0.00000000000E+00  0.00000000000E+00  0.83930548231E+03  0.83930548231E+03  0.00000000000E+00 0.  1.
         21   -1    0    0  501  502  0.00000000000E+00 -0.00000000000E+00 -0.17002822754E+03  0.17002822754E+03  0.00000000000E+00 0. -1.
         25    1    1    2    0    0  0.22851910389E+03 -0.14420385233E+02 -0.14614955483E+02  0.26128054898E+03  0.12500000000E+03 0.  0.
         21    1    1    2  503  502 -0.19104038395E+01  0.32082803513E+02  0.55143617305E+01  0.32609264165E+02  0.00000000000E+00 0. -1.
         -4    1    1    2    0  503 -0.22660870005E+03 -0.17662418279E+02  0.67837784853E+03  0.71544389670E+03  0.00000000000E+00 0.  1.
<mgrwt>
<rscale>  4 0.25936706E+03</rscale>
<asrwt>0</asrwt>
<pdfrwt beam="1">  1       21 0.26158189E-01 0.25936706E+03</pdfrwt>
<pdfrwt beam="2">  1       -4 0.12912392E+00 0.25936706E+03</pdfrwt>
<totfact> 0.26840507E+02</totfact>
</mgrwt>
</event>
<event>
 5    0  0.4115852E+000  0.2439523E+03  0.7546771E-02  0.1117188E+00
          2   -1    0    0  502    0 -0.00000000000E+00  0.00000000000E+00  0.10859753372E+04  0.10859753372E+04  0.00000000000E+00 0. -1.
         21   -1    0    0  503  502  0.00000000000E+00 -0.00000000000E+00 -0.51672561423E+02  0.51672561423E+02  0.00000000000E+00 0.  1.
         25    1    1    2    0    0  0.20944450563E+03  0.45529249962E+01  0.46344142681E+03  0.52372768320E+03  0.12500000000E+03 0.  0.
         21    1    1    2  503  501 -0.42777562780E+02 -0.73813258750E+01  0.46105692556E+02  0.63325656216E+02  0.00000000000E+00 0.  1.
          2    1    1    2  501    0 -0.16666694285E+03  0.28284008787E+01  0.52475565638E+03  0.55059455917E+03  0.00000000000E+00 0. -1.
<mgrwt>
<rscale>  4 0.24395231E+03</rscale>
<asrwt>0</asrwt>
<pdfrwt beam="1">  1       21 0.79496256E-02 0.24395231E+03</pdfrwt>
<pdfrwt beam="2">  1        2 0.16707311E+00 0.24395231E+03</pdfrwt>
<totfact> 0.35708557E+04</totfact>
</mgrwt>
</event>
<event>
 5    0  0.4115852E+000  0.2906622E+03  0.7546771E-02  0.1090004E+00
         21   -1    0    0  503  502  0.00000000000E+00  0.00000000000E+00  0.50394987906E+03  0.50394987906E+03  0.00000000000E+00 0.  1.
          1   -1    0    0  502    0 -0.00000000000E+00 -0.00000000000E+00 -0.79734651146E+03  0.79734651146E+03  0.00000000000E+00 0.  1.
         25    1    1    2    0    0 -0.73041590116E+02  0.23071965976E+03  0.21221220335E+03  0.34529068122E+03  0.12500000000E+03 0.  0.
         21    1    1    2  503  501  0.99048414447E+01  0.25827807859E+02  0.20033831057E+03  0.20223901756E+03  0.00000000000E+00 0.  1.
          1    1    1    2  501    0  0.63136748671E+02 -0.25654746762E+03 -0.70594714631E+03  0.75376669173E+03  0.00000000000E+00 0.  1.
<mgrwt>
<rscale>  4 0.29066224E+03</rscale>
<asrwt>0</asrwt>
<pdfrwt beam="1">  1       21 0.77530750E-01 0.29066224E+03</pdfrwt>
<pdfrwt beam="2">  1        1 0.12266869E+00 0.29066224E+03</pdfrwt>
<totfact> 0.36140335E+02</totfact>
</mgrwt>
</event>
<event>
 5    0  0.4115852E+000  0.3326063E+03  0.7546771E-02  0.1069989E+00
         21   -1    0    0  503  502  0.00000000000E+00  0.00000000000E+00  0.50926831355E+02  0.50926831355E+02  0.00000000000E+00 0. -1.
          2   -1    0    0  502    0 -0.00000000000E+00 -0.00000000000E+00 -0.25214531847E+04  0.25214531847E+04  0.00000000000E+00 0. -1.
         25    1    1    2    0    0  0.30642738892E+03 -0.11689136787E+03 -0.15173448127E+04  0.15574086225E+04  0.12500000000E+03 0.  0.
         21    1    1    2  503  501 -0.34311819026E+02  0.26848728246E+02 -0.45008585871E+02  0.62641263840E+02  0.00000000000E+00 0.  1.
          2    1    1    2  501    0 -0.27211556990E+03  0.90042639624E+02 -0.90817295472E+03  0.95233012975E+03  0.00000000000E+00 0. -1.
<mgrwt>
<rscale>  4 0.33260630E+03</rscale>
<asrwt>0</asrwt>
<pdfrwt beam="1">  1       21 0.78348981E-02 0.33260630E+03</pdfrwt>
<pdfrwt beam="2">  1        2 0.38791583E+00 0.33260630E+03</pdfrwt>
<totfact> 0.59955610E+03</totfact>
</mgrwt>
</event>
<event>
 5    0  0.4115852E+000  0.2467828E+03  0.7546771E-02  0.1115355E+00
         21   -1    0    0  503  502  0.00000000000E+00  0.00000000000E+00  0.11252739631E+03  0.11252739631E+03  0.00000000000E+00 0. -1.
          2   -1    0    0  502    0 -0.00000000000E+00 -0.00000000000E+00 -0.65795927574E+03  0.65795927574E+03  0.00000000000E+00 0. -1.
         25    1    1    2    0    0 -0.21211476602E+03  0.16854509981E+02 -0.82594594853E+02  0.26023761367E+03  0.12500000000E+03 0.  0.
         21    1    1    2  503  501  0.19762803152E+02 -0.90568906793E+01 -0.36896911755E+02  0.42824966483E+02  0.00000000000E+00 0. -1.
          2    1    1    2  501    0  0.19235196286E+03 -0.77976193012E+01 -0.42594037282E+03  0.46742409190E+03  0.00000000000E+00 0. -1.
<mgrwt>
<rscale>  4 0.24678280E+03</rscale>
<asrwt>0</asrwt>
<pdfrwt beam="1">  1       21 0.17311907E-01 0.24678280E+03</pdfrwt>
<pdfrwt beam="2">  1        2 0.10122450E+00 0.24678280E+03</pdfrwt>
<totfact> 0.17006187E+04</totfact>
</mgrwt>
</event>
<event>
 5    0  0.4115852E+000  0.2824877E+03  0.7546771E-02  0.1094338E+00
         21   -1    0    0  503  502  0.00000000000E+00  0.00000000000E+00  0.43041104145E+02  0.43041104145E+02  0.00000000000E+00 0.  1.
          2   -1    0    0  502    0 -0.00000000000E+00 -0.00000000000E+00 -0.28457733112E+04  0.28457733112E+04  0.00000000000E+00 0.  1.
         25    1    1    2    0    0 -0.90040485877E+02  0.25437285158E+03 -0.69226072601E+03  0.75343397155E+03  0.12500000000E+03 0.  0.
         21    1    1    2  503  501  0.77932584748E+01 -0.18993139290E+02 -0.15759131110E+02  0.25880966580E+02  0.00000000000E+00 0.  1.
          2    1    1    2  501    0  0.82247227402E+02 -0.23537971229E+03 -0.20947123499E+04  0.21094994772E+04  0.00000000000E+00 0.  1.
<mgrwt>
<rscale>  4 0.28248773E+03</rscale>
<asrwt>0</asrwt>
<pdfrwt beam="1">  1       21 0.66217092E-02 0.28248773E+03</pdfrwt>
<pdfrwt beam="2">  1        2 0.43781122E+00 0.28248773E+03</pdfrwt>
<totfact> 0.53726107E+03</totfact>
</mgrwt>
</event>
<event>
 5    0  0.4115852E+000  0.2483342E+03  0.7546771E-02  0.1114362E+00
         21   -1    0    0  503  502  0.00000000000E+00  0.00000000000E+00  0.20592391080E+03  0.20592391080E+03  0.00000000000E+00 0. -1.
          3   -1    0    0  502    0 -0.00000000000E+00 -0.00000000000E+00 -0.19722869713E+04  0.19722869713E+04  0.00000000000E+00 0. -1.
         25    1    1    2    0    0  0.20418388737E+03  0.24815603074E+03 -0.38216843985E+03  0.51473312684E+03  0.12500000000E+03 0.  0.
         21    1    1    2  503  501 -0.13917742141E+03 -0.53623391490E+02  0.90585149220E+02  0.17450355872E+03  0.00000000000E+00 0. -1.
          3    1    1    2  501    0 -0.65006465959E+02 -0.19453263925E+03 -0.14747797698E+04  0.14889741965E+04  0.00000000000E+00 0. -1.
<mgrwt>
<rscale>  4 0.24833418E+03</rscale>
<asrwt>0</asrwt>
<pdfrwt beam="1">  1       21 0.31680602E-01 0.24833418E+03</pdfrwt>
<pdfrwt beam="2">  1        3 0.30342876E+00 0.24833418E+03</pdfrwt>
<totfact> 0.19933416E+01</totfact>
</mgrwt>
</event>
<event>
 5    0  0.4115852E+000  0.4208469E+03  0.7546771E-02  0.1036791E+00
         21   -1    0    0  503  502  0.00000000000E+00  0.00000000000E+00  0.26277507154E+03  0.26277507154E+03  0.00000000000E+00 0. -1.
          2   -1    0    0  502    0 -0.00000000000E+00 -0.00000000000E+00 -0.97147323025E+03  0.97147323025E+03  0.00000000000E+00 0. -1.
         25    1    1    2    0    0  0.11603079598E+03  0.38972939370E+03 -0.13259124813E+03  0.44559800831E+03  0.12500000000E+03 0.  0.
         21    1    1    2  503  501 -0.23717196140E+02 -0.28930166406E+00  0.44356874620E+02  0.50300312268E+02  0.00000000000E+00 0. -1.
          2    1    1    2  501    0 -0.92313599840E+02 -0.38944009203E+03 -0.62046378521E+03  0.73834998121E+03  0.00000000000E+00 0. -1.
<mgrwt>
<rscale>  4 0.42084692E+03</rscale>
<asrwt>0</asrwt>
<pdfrwt beam="1">  1       21 0.40426933E-01 0.42084692E+03</pdfrwt>
<pdfrwt beam="2">  1        2 0.14945742E+00 0.42084692E+03</pdfrwt>
<totfact> 0.18955603E+03</totfact>
</mgrwt>
</event>
<event>
 5    0  0.4115852E+000  0.2562995E+03  0.7546771E-02  0.1109387E+00
          1   -1    0    0  502    0 -0.00000000000E+00  0.00000000000E+00  0.17072659113E+04  0.17072659113E+04  0.00000000000E+00 0.  1.
         21   -1    0    0  503  502  0.00000000000E+00 -0.00000000000E+00 -0.28614461868E+03  0.28614461868E+03  0.00000000000E+00 0.  1.
         25    1    1    2    0    0 -0.13977651512E+03 -0.14688403083E+03  0.84802536998E+03  0.88084301713E+03  0.12500000000E+03 0.  0.
         21    1    1    2  503  501 -0.63937448215E+02  0.23716260423E+01 -0.24706683144E+03  0.25521685111E+03  0.00000000000E+00 0.  1.
          1    1    1    2  501    0  0.20371396333E+03  0.14451240478E+03  0.82016275403E+03  0.85735066169E+03  0.00000000000E+00 0.  1.
<mgrwt>
<rscale>  4 0.25629952E+03</rscale>
<asrwt>0</asrwt>
<pdfrwt beam="1">  1       21 0.44022250E-01 0.25629952E+03</pdfrwt>
<pdfrwt beam="2">  1        1 0.26265629E+00 0.25629952E+03</pdfrwt>
<totfact> 0.28257627E+02</totfact>
</mgrwt>
</event>
<event>
 5    0  0.4115852E+000  0.2970592E+03  0.7546771E-02  0.1086720E+00
         21   -1    0    0  503  502  0.00000000000E+00  0.00000000000E+00  0.13085613943E+03  0.13085613943E+03  0.00000000000E+00 0. -1.
          1   -1    0    0  502    0 -0.00000000000E+00 -0.00000000000E+00 -0.13973014418E+04  0.13973014418E+04  0.00000000000E+00 0.  1.
         25    1    1    2    0    0 -0.85932074842E+02 -0.22588065358E+03 -0.16847907486E+03  0.32002592054E+03  0.12500000000E+03 0.  0.
         21    1    1    2  503  501  0.13553169666E+03 -0.54189304085E+02 -0.11791381493E+03  0.18764058524E+03  0.00000000000E+00 0. -1.
          1    1    1    2  501    0 -0.49599621821E+02  0.28006995767E+03 -0.98005241255E+03  0.10204910754E+04  0.00000000000E+00 0.  1.
<mgrwt>
<rscale>  4 0.29705918E+03</rscale>
<asrwt>0</asrwt>
<pdfrwt beam="1">  1       21 0.20131713E-01 0.29705918E+03</pdfrwt>
<pdfrwt beam="2">  1        1 0.21496946E+00 0.29705918E+03</pdfrwt>
<totfact> 0.20720757E+03</totfact>
</mgrwt>
</event>
<event>
 5    0  0.4115852E+000  0.2567139E+03  0.7546771E-02  0.1109134E+00
         21   -1    0    0  503  502  0.00000000000E+00  0.00000000000E+00  0.48174729356E+02  0.48174729356E+02  0.00000000000E+00 0.  1.
          1   -1    0    0  502    0 -0.00000000000E+00 -0.00000000000E+00 -0.32195741564E+04  0.32195741564E+04  0.00000000000E+00 0.  1.
         25    1    1    2    0    0  0.11224415637E+03 -0.21559991344E+03 -0.42999495412E+03  0.50951225097E+03  0.12500000000E+03 0.  0.
         21    1    1    2  503  501 -0.47666294383E+02  0.27739281077E+01 -0.15258388676E+03  0.15987999499E+03  0.00000000000E+00 0.  1.
          1    1    1    2  501    0 -0.64577861990E+02  0.21282598533E+03 -0.25888205861E+04  0.25983566398E+04  0.00000000000E+00 0.  1.
<mgrwt>
<rscale>  4 0.25671388E+03</rscale>
<asrwt>0</asrwt>
<pdfrwt beam="1">  1       21 0.74114972E-02 0.25671388E+03</pdfrwt>
<pdfrwt beam="2">  1        1 0.49531908E+00 0.25671388E+03</pdfrwt>
<totfact> 0.77426377E+02</totfact>
</mgrwt>
</event>
<event>
 5    0  0.4115852E+000  0.4184743E+03  0.7546771E-02  0.1037564E+00
         21   -1    0    0  503  502  0.00000000000E+00  0.00000000000E+00  0.15202632149E+03  0.15202632149E+03  0.00000000000E+00 0. -1.
          2   -1    0    0  502    0 -0.00000000000E+00 -0.00000000000E+00 -0.50532202499E+04  0.50532202499E+04  0.00000000000E+00 0. -1.
         25    1    1    2    0    0 -0.25720428637E+03 -0.30383556448E+02 -0.89409341522E+02  0.30115815742E+03  0.12500000000E+03 0.  0.
         21    1    1    2  503  501 -0.15426880060E+03  0.37414764014E+02 -0.13258674803E+03  0.20682836642E+03  0.00000000000E+00 0. -1.
          2    1    1    2  501    0  0.41147308696E+03 -0.70312075661E+01 -0.46791978389E+04  0.46972600476E+04  0.00000000000E+00 0. -1.
<mgrwt>
<rscale>  4 0.41847426E+03</rscale>
<asrwt>0</asrwt>
<pdfrwt beam="1">  1       21 0.23388664E-01 0.41847426E+03</pdfrwt>
<pdfrwt beam="2">  1        2 0.77741852E+00 0.41847426E+03</pdfrwt>
<totfact> 0.82527318E+00</totfact>
</mgrwt>
</event>
<event>
 5    0  0.4115852E+000  0.2493462E+03  0.7546771E-02  0.1113719E+00
         21   -1    0    0  503  502  0.00000000000E+00  0.00000000000E+00  0.70496388398E+02  0.70496388398E+02  0.00000000000E+00 0. -1.
          2   -1    0    0  502    0 -0.00000000000E+00 -0.00000000000E+00 -0.17242719129E+04  0.17242719129E+04  0.00000000000E+00 0. -1.
         25    1    1    2    0    0 -0.19827435616E+03  0.62439629720E+02 -0.35283115948E+03  0.42816615323E+03  0.12500000000E+03 0.  0.
         21    1    1    2  503  501  0.41736584703E+02  0.96741566103E+02 -0.10060903074E+03  0.14568133093E+03  0.00000000000E+00 0.  1.
          2    1    1    2  501    0  0.15653777146E+03 -0.15918119582E+03 -0.12003353343E+04  0.12209208172E+04  0.00000000000E+00 0. -1.
<mgrwt>
<rscale>  4 0.24934615E+03</rscale>
<asrwt>0</asrwt>
<pdfrwt beam="1">  1       21 0.10845600E-01 0.24934615E+03</pdfrwt>
<pdfrwt beam="2">  1        2 0.26527256E+00 0.24934615E+03</pdfrwt>
<totfact> 0.92174377E+03</totfact>
</mgrwt>
</event>
<event>
 5    0  0.4115852E+000  0.3074766E+03  0.7546771E-02  0.1081562E+00
         21   -1    0    0  503  502  0.00000000000E+00  0.00000000000E+00  0.37769490191E+03  0.37769490191E+03  0.00000000000E+00 0. -1.
          1   -1    0    0  502    0 -0.00000000000E+00 -0.00000000000E+00 -0.46096247512E+03  0.46096247512E+03  0.00000000000E+00 0.  1.
         25    1    1    2    0    0  0.19943404683E+03  0.17240593299E+03 -0.88642193637E+02  0.30492652108E+03  0.12500000000E+03 0.  0.
         21    1    1    2  503  501  0.27354558966E+02  0.14856584033E+02  0.18599861182E+03  0.18858545433E+03  0.00000000000E+00 0. -1.
          1    1    1    2  501    0 -0.22678860580E+03 -0.18726251702E+03 -0.18062399139E+03  0.34514540163E+03  0.00000000000E+00 0.  1.
<mgrwt>
<rscale>  4 0.30747657E+03</rscale>
<asrwt>0</asrwt>
<pdfrwt beam="1">  1       21 0.58106908E-01 0.30747657E+03</pdfrwt>
<pdfrwt beam="2">  1        1 0.70917304E-01 0.30747657E+03</pdfrwt>
<totfact> 0.14753367E+03</totfact>
</mgrwt>
</event>
<event>
 5    0  0.4115852E+000  0.2702088E+03  0.7546771E-02  0.1101160E+00
          1   -1    0    0  502    0 -0.00000000000E+00  0.00000000000E+00  0.18400619863E+04  0.18400619863E+04  0.00000000000E+00 0. -1.
         21   -1    0    0  503  502  0.00000000000E+00 -0.00000000000E+00 -0.25603491974E+03  0.25603491974E+03  0.00000000000E+00 0.  1.
         25    1    1    2    0    0  0.18099303090E+03 -0.12688712836E+03 -0.12459219948E+03  0.28285515153E+03  0.12500000000E+03 0.  0.
         21    1    1    2  503  501  0.24395341953E+01 -0.28406296177E+02 -0.39479758229E+02  0.48698257663E+02  0.00000000000E+00 0. -1.
          1    1    1    2  501    0 -0.18343256509E+03  0.15529342453E+03  0.17480990242E+04  0.17645434968E+04  0.00000000000E+00 0. -1.
<mgrwt>
<rscale>  4 0.27020879E+03</rscale>
<asrwt>0</asrwt>
<pdfrwt beam="1">  1       21 0.39389989E-01 0.27020879E+03</pdfrwt>
<pdfrwt beam="2">  1        1 0.28308645E+00 0.27020879E+03</pdfrwt>
<totfact> 0.28840299E+02</totfact>
</mgrwt>
</event>
<event>
 5    0  0.4115852E+000  0.2134540E+03  0.7546771E-02  0.1138860E+00
         21   -1    0    0  501  502  0.00000000000E+00  0.00000000000E+00  0.88485338534E+03  0.88485338534E+03  0.00000000000E+00 0. -1.
         -2   -1    0    0    0  501 -0.00000000000E+00 -0.00000000000E+00 -0.12599397108E+04  0.12599397108E+04  0.00000000000E+00 0. -1.
         25    1    1    2    0    0  0.12467887535E+03 -0.17462802677E+03  0.79134662054E+03  0.82939390131E+03  0.12500000000E+03 0.  0.
         21    1    1    2  503  502 -0.84678328706E+02  0.64920759427E+01  0.41947795762E+02  0.94721613013E+02  0.00000000000E+00 0. -1.
         -2    1    1    2    0  503 -0.40000546645E+02  0.16813595083E+03 -0.12083807418E+04  0.12206775818E+04  0.00000000000E+00 0. -1.
<mgrwt>
<rscale>  4 0.21345398E+03</rscale>
<asrwt>0</asrwt>
<pdfrwt beam="1">  1       21 0.13613129E+00 0.21345398E+03</pdfrwt>
<pdfrwt beam="2">  1       -2 0.19383688E+00 0.21345398E+03</pdfrwt>
<totfact> 0.49471132E+00</totfact>
</mgrwt>
</event>
<event>
 5    0  0.4115852E+000  0.1899441E+03  0.7546771E-02  0.1158512E+00
         21   -1    0    0  503  502  0.00000000000E+00  0.00000000000E+00  0.28898916171E+03  0.28898916171E+03  0.00000000000E+00 0.  1.
          2   -1    0    0  502    0 -0.00000000000E+00 -0.00000000000E+00 -0.16528891509E+04  0.16528891509E+04  0.00000000000E+00 0. -1.
         25    1    1    2    0    0 -0.10198566725E+03 -0.17468868206E+03  0.16293547917E+02  0.23834364197E+03  0.12500000000E+03 0.  0.
         21    1    1    2  503  501  0.21438854418E+02  0.58333910191E+02  0.15231493758E+03  0.16450626057E+03  0.00000000000E+00 0.  1.
          2    1    1    2  501    0  0.80546812836E+02  0.11635477187E+03 -0.15325084747E+04  0.15390284101E+04  0.00000000000E+00 0. -1.
<mgrwt>
<rscale>  4 0.18994409E+03</rscale>
<asrwt>0</asrwt>
<pdfrwt beam="1">  1       21 0.44459871E-01 0.18994409E+03</pdfrwt>
<pdfrwt beam="2">  1        2 0.25429064E+00 0.18994409E+03</pdfrwt>
<totfact> 0.71011866E+02</totfact>
</mgrwt>
</event>
<event>
 5    0  0.4115852E+000  0.2375220E+03  0.7546771E-02  0.1121455E+00
         21   -1    0    0  503  502  0.00000000000E+00  0.00000000000E+00  0.15351063978E+03  0.15351063978E+03  0.00000000000E+00 0. -1.
          1   -1    0    0  502    0 -0.00000000000E+00 -0.00000000000E+00 -0.32794152711E+03  0.32794152711E+03  0.00000000000E+00 0. -1.
         25    1    1    2    0    0  0.34543883168E+02 -0.19899356948E+03 -0.54094865136E+02  0.24360413583E+03  0.12500000000E+03 0.  0.
         21    1    1    2  503  501 -0.13020149153E+02  0.26888548055E+02 -0.70881968504E+01  0.30704410678E+02  0.00000000000E+00 0. -1.
          1    1    1    2  501    0 -0.21523734015E+02  0.17210502142E+03 -0.11324782534E+03  0.20714362039E+03  0.00000000000E+00 0. -1.
<mgrwt>
<rscale>  4 0.23752204E+03</rscale>
<asrwt>0</asrwt>
<pdfrwt beam="1">  1       21 0.23617022E-01 0.23752204E+03</pdfrwt>
<pdfrwt beam="2">  1        1 0.50452542E-01 0.23752204E+03</pdfrwt>
<totfact> 0.14354979E+04</totfact>
</mgrwt>
</event>
<event>
 5    0  0.4115852E+000  0.2706429E+03  0.7546771E-02  0.1100912E+00
         21   -1    0    0  503  502  0.00000000000E+00  0.00000000000E+00  0.84333734988E+02  0.84333734988E+02  0.00000000000E+00 0.  1.
          2   -1    0    0  502    0 -0.00000000000E+00 -0.00000000000E+00 -0.31933495453E+04  0.31933495453E+04  0.00000000000E+00 0. -1.
         25    1    1    2    0    0  0.24976962515E+03 -0.65168124943E+02 -0.83708722178E+03  0.88485691896E+03  0.12500000000E+03 0.  0.
         21    1    1    2  503  501 -0.22343865442E+02  0.38709594698E+01  0.52137131836E+02  0.56855194716E+02  0.00000000000E+00 0.  1.
          2    1    1    2  501    0 -0.22742575971E+03  0.61297165473E+02 -0.23240657204E+04  0.23359711666E+04  0.00000000000E+00 0. -1.
<mgrwt>
<rscale>  4 0.27064285E+03</rscale>
<asrwt>0</asrwt>
<pdfrwt beam="1">  1       21 0.12974421E-01 0.27064285E+03</pdfrwt>
<pdfrwt beam="2">  1        2 0.49128453E+00 0.27064285E+03</pdfrwt>
<totfact> 0.10180281E+03</totfact>
</mgrwt>
</event>
<event>
 5    0  0.4115852E+000  0.3858587E+03  0.7546771E-02  0.1048789E+00
          2   -1    0    0  502    0 -0.00000000000E+00  0.00000000000E+00  0.12163216005E+04  0.12163216005E+04  0.00000000000E+00 0.  1.
         21   -1    0    0  503  502  0.00000000000E+00 -0.00000000000E+00 -0.14452726362E+03  0.14452726362E+03  0.00000000000E+00 0.  1.
         25    1    1    2    0    0 -0.34588712722E+03  0.16189783286E+03  0.53579627445E+03  0.66973984559E+03  0.12500000000E+03 0.  0.
         21    1    1    2  503  501  0.18242353643E+02 -0.32310598112E+02 -0.12534172222E+02  0.39164571874E+02  0.00000000000E+00 0.  1.
          2    1    1    2  501    0  0.32764477358E+03 -0.12958723475E+03  0.54853223467E+03  0.65194444667E+03  0.00000000000E+00 0.  1.
<mgrwt>
<rscale>  4 0.38585869E+03</rscale>
<asrwt>0</asrwt>
<pdfrwt beam="1">  1       21 0.22234964E-01 0.38585869E+03</pdfrwt>
<pdfrwt beam="2">  1        2 0.18712639E+00 0.38585869E+03</pdfrwt>
<totfact> 0.44566352E+03</totfact>
</mgrwt>
</event>
<event>
 5    0  0.4115852E+000  0.5199093E+03  0.7546771E-02  0.1008709E+00
          2   -1    0    0  502    0 -0.00000000000E+00  0.00000000000E+00  0.35983671908E+04  0.35983671908E+04  0.00000000000E+00 0.  1.
         21   -1    0    0  503  502  0.00000000000E+00 -0.00000000000E+00 -0.80807107888E+03  0.80807107888E+03  0.00000000000E+00 0. -1.
         25    1    1    2    0    0  0.18199356899E+03 -0.29239017624E+03  0.16242983539E+04  0.16651077494E+04  0.12500000000E+03 0.  0.
         21    1    1    2  503  501 -0.24430807103E+03  0.45093633293E+03 -0.69988897861E+03  0.86768346320E+03  0.00000000000E+00 0. -1.
          2    1    1    2  501    0  0.62314502035E+02 -0.15854615669E+03  0.18658867365E+04  0.18736470571E+04  0.00000000000E+00 0.  1.
<mgrwt>
<rscale>  4 0.51990930E+03</rscale>
<asrwt>0</asrwt>
<pdfrwt beam="1">  1       21 0.12431863E+00 0.51990930E+03</pdfrwt>
<pdfrwt beam="2">  1        2 0.55359494E+00 0.51990930E+03</pdfrwt>
<totfact> 0.42174816E+00</totfact>
</mgrwt>
</event>
<event>
 5    0  0.4115852E+000  0.2354757E+03  0.7546771E-02  0.1122844E+00
          1   -1    0    0  502    0 -0.00000000000E+00  0.00000000000E+00  0.14595826994E+04  0.14595826994E+04  0.00000000000E+00 0. -1.
         21   -1    0    0  503  502  0.00000000000E+00 -0.00000000000E+00 -0.83755426691E+03  0.83755426691E+03  0.00000000000E+00 0. -1.
         25    1    1    2    0    0  0.69274082461E+02 -0.20227780034E+03 -0.75033403148E+03  0.79015274841E+03  0.12500000000E+03 0.  0.
         21    1    1    2  503  501  0.84712928802E+01  0.18619708897E+02 -0.58663525523E+02  0.62127816550E+02  0.00000000000E+00 0. -1.
          1    1    1    2  501    0 -0.77745375341E+02  0.18365809144E+03  0.14310259895E+04  0.14448564014E+04  0.00000000000E+00 0. -1.
<mgrwt>
<rscale>  4 0.23547570E+03</rscale>
<asrwt>0</asrwt>
<pdfrwt beam="1">  1       21 0.12885450E+00 0.23547570E+03</pdfrwt>
<pdfrwt beam="2">  1        1 0.22455118E+00 0.23547570E+03</pdfrwt>
<totfact> 0.36611522E+01</totfact>
</mgrwt>
</event>
<event>
 5    0  0.4115852E+000  0.2476515E+03  0.7546771E-02  0.1114798E+00
         21   -1    0    0  501  502  0.00000000000E+00  0.00000000000E+00  0.25933382683E+03  0.25933382683E+03  0.00000000000E+00 0.  1.
         -1   -1    0    0    0  501 -0.00000000000E+00 -0.00000000000E+00 -0.24721112209E+03  0.24721112209E+03  0.00000000000E+00 0.  1.
         25    1    1    2    0    0  0.19222043077E+03 -0.93581971998E+02 -0.84741400816E+02  0.26174870487E+03  0.12500000000E+03 0.  0.
         21    1    1    2  503  502 -0.67026341805E+02  0.98554684810E+01  0.58170336132E+02  0.89294169801E+02  0.00000000000E+00 0.  1.
         -1    1    1    2    0  503 -0.12519408896E+03  0.83726503517E+02  0.38693769422E+02  0.15550207424E+03  0.00000000000E+00 0.  1.
<mgrwt>
<rscale>  4 0.24765153E+03</rscale>
<asrwt>0</asrwt>
<pdfrwt beam="1">  1       21 0.39897512E-01 0.24765153E+03</pdfrwt>
<pdfrwt beam="2">  1       -1 0.38032480E-01 0.24765153E+03</pdfrwt>
<totfact> 0.37110158E+03</totfact>
</mgrwt>
</event>
<event>
 5    0  0.4115852E+000  0.2484425E+03  0.7546771E-02  0.1114293E+00
         21   -1    0    0  501  502  0.00000000000E+00  0.00000000000E+00  0.23889696996E+03  0.23889696996E+03  0.00000000000E+00 0. -1.
         -3   -1    0    0    0  501 -0.00000000000E+00 -0.00000000000E+00 -0.52355610997E+03  0.52355610997E+03  0.00000000000E+00 0. -1.
         25    1    1    2    0    0  0.24511953031E+03 -0.54207378414E+02  0.15750900218E+02  0.28088274221E+03  0.12500000000E+03 0.  0.
         21    1    1    2  503  502 -0.39017816103E+02  0.26793802158E+02  0.53296924051E+02  0.71280150960E+02  0.00000000000E+00 0. -1.
         -3    1    1    2    0  503 -0.20610171421E+03  0.27413576256E+02 -0.35370696428E+03  0.41029018675E+03  0.00000000000E+00 0. -1.
<mgrwt>
<rscale>  4 0.24844252E+03</rscale>
<asrwt>0</asrwt>
<pdfrwt beam="1">  1       21 0.36753380E-01 0.24844252E+03</pdfrwt>
<pdfrwt beam="2">  1       -3 0.80547093E-01 0.24844252E+03</pdfrwt>
<totfact> 0.51340188E+02</totfact>
</mgrwt>
</event>
<event>
 5    0  0.4115852E+000  0.3545042E+03  0.7546771E-02  0.1060781E+00
          2   -1    0    0  502    0 -0.00000000000E+00  0.00000000000E+00  0.19468749419E+04  0.19468749419E+04  0.00000000000E+00 0. -1.
         21   -1    0    0  503  502  0.00000000000E+00 -0.00000000000E+00 -0.12465315378E+03  0.12465315378E+03  0.00000000000E+00 0. -1.
         25    1    1    2    0    0  0.28858759718E+03  0.19537001221E+03  0.45231635003E+03  0.58452315901E+03  0.12500000000E+03 0.  0.
         21    1    1    2  503  501 -0.24618385967E+03 -0.20172022914E+03  0.37788922366E+03  0.49406255572E+03  0.00000000000E+00 0. -1.
          2    1    1    2  501    0 -0.42403737509E+02  0.63502169292E+01  0.99201621440E+03  0.99294238093E+03  0.00000000000E+00 0. -1.
<mgrwt>
<rscale>  4 0.35450417E+03</rscale>
<asrwt>0</asrwt>
<pdfrwt beam="1">  1       21 0.19177410E-01 0.35450417E+03</pdfrwt>
<pdfrwt beam="2">  1        2 0.29951920E+00 0.35450417E+03</pdfrwt>
<totfact> 0.23885508E+03</totfact>
</mgrwt>
</event>
