<event>
 5    0  0.2659110E+000  0.3203091E+03  0.7546771E-02  0.1075507E+00
         21   -1    0    0  502  501  0.00000000000E+00  0.00000000000E+00  0.60841106700E+03  0.60841106700E+03  0.00000000000E+00 0.  1.
         21   -1    0    0  503  502 -0.00000000000E+00 -0.00000000000E+00 -0.22555016980E+03  0.22555016980E+03  0.00000000000E+00 0.  1.
         25    1    1    2    0    0 -0.27739274198E+03 -0.10013088084E+03  0.42102141802E+03  0.52901508583E+03  0.12500000000E+03 0.  0.
         21    1    1    2  503  504  0.22635825541E+03  0.77903365904E+02 -0.35820145017E+01  0.23941559064E+03  0.00000000000E+00 0.  1.
         21    1    1    2  504  501  0.51034486574E+02  0.22227514931E+02 -0.34578506315E+02  0.65530560343E+02  0.00000000000E+00 0.  1.
<mgrwt>
<rscale>  4 0.32030911E+03</rscale>
<asrwt>0</asrwt>
<pdfrwt beam="1">  1       21 0.93601702E-01 0.32030911E+03</pdfrwt>
<pdfrwt beam="2">  1       21 0.34700026E-01 0.32030911E+03</pdfrwt>
<totfact> 0.71263335E+03</totfact>
</mgrwt>
</event>
<event>
 5    0  0.2159162E+000  0.2469872E+03  0.7546771E-02  0.1115224E+00
         21   -1    0    0  502  501  0.00000000000E+00  0.00000000000E+00  0.58198913735E+03  0.58198913735E+03  0.00000000000E+00 0.  1.
         21   -1    0    0  503  502 -0.00000000000E+00 -0.00000000000E+00 -0.10902359773E+03  0.10902359773E+03  0.00000000000E+00 0. -1.
         25    1    1    2    0    0  0.14964190801E+03 -0.15160789179E+03  0.33999922384E+03  0.42024055694E+03  0.12500000000E+03 0.  0.
         21    1    1    2  503  504 -0.65620973065E+02  0.24375855630E+02  0.24119750627E+01  0.70043644018E+02  0.00000000000E+00 0. -1.
         21    1    1    2  504  501 -0.84020934943E+02  0.12723203616E+03  0.13055434072E+03  0.20072853413E+03  0.00000000000E+00 0. -1.
<mgrwt>
<rscale>  4 0.24698715E+03</rscale>
<asrwt>0</asrwt>
<pdfrwt beam="1">  1       21 0.89536788E-01 0.24698715E+03</pdfrwt>
<pdfrwt beam="2">  1       21 0.16772862E-01 0.24698715E+03</pdfrwt>
<totfact> 0.33074876E+04</totfact>
</mgrwt>
</event>
<event>
 5    0  0.2990058E+000  0.3238542E+03  0.7546771E-02  0.1073889E+00
         21   -1    0    0  502  501  0.00000000000E+00  0.00000000000E+00  0.43348750151E+03  0.43348750151E+03  0.00000000000E+00 0.  1.
         21   -1    0    0  503  502 -0.00000000000E+00 -0.00000000000E+00 -0.27754281719E+03  0.27754281719E+03  0.00000000000E+00 0.  1.
         25    1    1    2    0    0  0.62392041530E+02  0.30301818936E+03  0.17289348489E+03  0.37580573047E+03  0.12500000000E+03 0.  0.
         21    1    1    2  503  504 -0.95637097950E+02 -0.26755129153E+03 -0.27572412130E+02  0.28546520982E+03  0.00000000000E+00 0.  1.
         21    1    1    2  504  501  0.33245056420E+02 -0.35466897833E+02  0.10623611555E+02  0.49759378420E+02  0.00000000000E+00 0.  1.
<mgrwt>
<rscale>  4 0.32385423E+03</rscale>
<asrwt>0</asrwt>
<pdfrwt beam="1">  1       21 0.66690385E-01 0.32385423E+03</pdfrwt>
<pdfrwt beam="2">  1       21 0.42698895E-01 0.32385423E+03</pdfrwt>
<totfact> 0.10132059E+04</totfact>
</mgrwt>
</event>
<event>
 5    0  0.2159162E+000  0.3381310E+03  0.7546771E-02  0.1067595E+00
         21   -1    0    0  502  501  0.00000000000E+00  0.00000000000E+00  0.10996695657E+04  0.10996695657E+04  0.00000000000E+00 0. -1.
         21   -1    0    0  503  502 -0.00000000000E+00 -0.00000000000E+00 -0.76678917773E+03  0.76678917773E+03  0.00000000000E+00 0. -1.
         25    1    1    2    0    0 -0.69381647078E+02 -0.30642087521E+03  0.10381574815E+04  0.10918349335E+04  0.12500000000E+03 0.  0.
         21    1    1    2  503  504  0.33971067736E+02  0.25865115153E+03 -0.57750924757E+03  0.63369660142E+03  0.00000000000E+00 0. -1.
         21    1    1    2  504  501  0.35410579341E+02  0.47769723683E+02 -0.12776784595E+03  0.14092720848E+03  0.00000000000E+00 0. -1.
<mgrwt>
<rscale>  4 0.33813099E+03</rscale>
<asrwt>0</asrwt>
<pdfrwt beam="1">  1       21 0.16917993E+00 0.33813099E+03</pdfrwt>
<pdfrwt beam="2">  1       21 0.11796757E+00 0.33813099E+03</pdfrwt>
<totfact> 0.10248973E+02</totfact>
</mgrwt>
</event>
<event>
 5    0  0.2310554E+000  0.2701925E+03  0.7546771E-02  0.1101169E+00
         21   -1    0    0  502  501  0.00000000000E+00  0.00000000000E+00  0.74462456072E+03  0.74462456072E+03  0.00000000000E+00 0.  1.
         21   -1    0    0  503  502 -0.00000000000E+00 -0.00000000000E+00 -0.89053851431E+02  0.89053851431E+02  0.00000000000E+00 0.  1.
         25    1    1    2    0    0 -0.11433769157E+03 -0.21048960461E+03  0.31229116011E+03  0.41295247916E+03  0.12500000000E+03 0.  0.
         21    1    1    2  503  504  0.90159815067E+02  0.18218016240E+03  0.31052535744E+03  0.37113932888E+03  0.00000000000E+00 0.  1.
         21    1    1    2  504  501  0.24177876503E+02  0.28309442210E+02  0.32754191737E+02  0.49586604106E+02  0.00000000000E+00 0.  1.
<mgrwt>
<rscale>  4 0.27019249E+03</rscale>
<asrwt>0</asrwt>
<pdfrwt beam="1">  1       21 0.11455762E+00 0.27019249E+03</pdfrwt>
<pdfrwt beam="2">  1       21 0.13700593E-01 0.27019249E+03</pdfrwt>
<totfact> 0.26274063E+04</totfact>
</mgrwt>
</event>
<event>
 5    0  0.2159162E+000  0.2867160E+03  0.7546771E-02  0.1092076E+00
         21   -1    0    0  502  501  0.00000000000E+00  0.00000000000E+00  0.10958878585E+04  0.10958878585E+04  0.00000000000E+00 0. -1.
         21   -1    0    0  503  502 -0.00000000000E+00 -0.00000000000E+00 -0.17185307298E+03  0.17185307298E+03  0.00000000000E+00 0. -1.
         25    1    1    2    0    0  0.21519599620E+03  0.14237887739E+03  0.96045786960E+03  0.10023399527E+04  0.12500000000E+03 0.  0.
         21    1    1    2  503  504 -0.11289780763E+02 -0.25381983107E+02 -0.27731226270E+01  0.27917636455E+02  0.00000000000E+00 0. -1.
         21    1    1    2  504  501 -0.20390621544E+03 -0.11699689429E+03 -0.33649961462E+02  0.23748334231E+03  0.00000000000E+00 0. -1.
<mgrwt>
<rscale>  4 0.28671599E+03</rscale>
<asrwt>0</asrwt>
<pdfrwt beam="1">  1       21 0.16859813E+00 0.28671599E+03</pdfrwt>
<pdfrwt beam="2">  1       21 0.26438935E-01 0.28671599E+03</pdfrwt>
<totfact> 0.27598175E+03</totfact>
</mgrwt>
</event>
<event>
 5    0  0.2159162E+000  0.2953744E+03  0.7546771E-02  0.1087576E+00
         21   -1    0    0  502  501  0.00000000000E+00  0.00000000000E+00  0.28494507124E+03  0.28494507124E+03  0.00000000000E+00 0.  1.
         21   -1    0    0  503  502 -0.00000000000E+00 -0.00000000000E+00 -0.79970819112E+03  0.79970819112E+03  0.00000000000E+00 0.  1.
         25    1    1    2    0    0  0.15349715426E+03 -0.21922512315E+03  0.17317479541E+03  0.34239675926E+03  0.12500000000E+03 0.  0.
         21    1    1    2  503  504 -0.26855239609E+02  0.19799571551E+02 -0.37232794420E+02  0.49995078842E+02  0.00000000000E+00 0.  1.
         21    1    1    2  504  501 -0.12664191465E+03  0.19942555160E+03 -0.65070512088E+03  0.69226142426E+03  0.00000000000E+00 0.  1.
<mgrwt>
<rscale>  4 0.29537439E+03</rscale>
<asrwt>0</asrwt>
<pdfrwt beam="1">  1       21 0.43837704E-01 0.29537439E+03</pdfrwt>
<pdfrwt beam="2">  1       21 0.12303203E+00 0.29537439E+03</pdfrwt>
<totfact> 0.22996851E+03</totfact>
</mgrwt>
</event>
<event>
 5    0  0.2159162E+000  0.4282942E+03  0.7546771E-02  0.1034400E+00
         21   -1    0    0  502  501  0.00000000000E+00  0.00000000000E+00  0.11013707392E+04  0.11013707392E+04  0.00000000000E+00 0. -1.
         21   -1    0    0  503  502 -0.00000000000E+00 -0.00000000000E+00 -0.30842752727E+03  0.30842752727E+03  0.00000000000E+00 0. -1.
         25    1    1    2    0    0 -0.36898301281E+03 -0.17793953919E+03  0.87892404519E+03  0.97772359108E+03  0.12500000000E+03 0.  0.
         21    1    1    2  503  504  0.75082557070E+02  0.47954916085E+02  0.24252585341E+02  0.92332292556E+02  0.00000000000E+00 0.  1.
         21    1    1    2  504  501  0.29390045574E+03  0.12998462310E+03 -0.11023341859E+03  0.33974238284E+03  0.00000000000E+00 0. -1.
<mgrwt>
<rscale>  4 0.42829423E+03</rscale>
<asrwt>0</asrwt>
<pdfrwt beam="1">  1       21 0.16944165E+00 0.42829423E+03</pdfrwt>
<pdfrwt beam="2">  1       21 0.47450389E-01 0.42829423E+03</pdfrwt>
<totfact> 0.77308157E+02</totfact>
</mgrwt>
</event>
<event>
 5    0  0.2159162E+000  0.2034207E+03  0.7546771E-02  0.1146885E+00
         21   -1    0    0  502  501  0.00000000000E+00  0.00000000000E+00  0.93949607360E+03  0.93949607360E+03  0.00000000000E+00 0.  1.
         21   -1    0    0  503  502 -0.00000000000E+00 -0.00000000000E+00 -0.19735652409E+03  0.19735652409E+03  0.00000000000E+00 0.  1.
         25    1    1    2    0    0 -0.18521173787E+03 -0.97516222579E+02  0.80820746691E+03  0.84417836450E+03  0.12500000000E+03 0.  0.
         21    1    1    2  503  504  0.15054835053E+03  0.49251732404E+02 -0.13034736412E+03  0.20513647732E+03  0.00000000000E+00 0.  1.
         21    1    1    2  504  501  0.34663387343E+02  0.48264490176E+02  0.64279446710E+02  0.87537755874E+02  0.00000000000E+00 0.  1.
<mgrwt>
<rscale>  4 0.20342065E+03</rscale>
<asrwt>0</asrwt>
<pdfrwt beam="1">  1       21 0.14453786E+00 0.20342065E+03</pdfrwt>
<pdfrwt beam="2">  1       21 0.30362543E-01 0.20342065E+03</pdfrwt>
<totfact> 0.33966085E+03</totfact>
</mgrwt>
</event>
