<event>
 5    0  0.5719562E-003  0.1265209E+04  0.7546771E-02  0.9057619E-01
         -1   -1    0    0    0  501 -0.00000000000E+00  0.00000000000E+00  0.24276614302E+04  0.24276614302E+04  0.00000000000E+00 0.  1.
          1   -1    0    0  502    0  0.00000000000E+00 -0.00000000000E+00 -0.16484512946E+03  0.16484512946E+03  0.00000000000E+00 0. -1.
         25    1    1    2    0    0 -0.37985157442E+03 -0.24212990572E+03  0.25668814602E+03  0.53331783595E+03  0.12500000000E+03 0.  0.
          1    1    1    2  502    0  0.16228768783E+03  0.96916909707E+02  0.10975091157E+04  0.11136680116E+04  0.00000000000E+00 0. -1.
         -1    1    1    2    0  501  0.21756388659E+03  0.14521299601E+03  0.90861903897E+03  0.94552071206E+03  0.00000000000E+00 0.  1.
<mgrwt>
<rscale>  4 0.12652085E+04</rscale>
<asrwt>0</asrwt>
<pdfrwt beam="1">  1        1 0.25360791E-01 0.12652085E+04</pdfrwt>
<pdfrwt beam="2">  1       -1 0.37348635E+00 0.12652085E+04</pdfrwt>
<totfact> 0.20672326E+00</totfact>
</mgrwt>
</event>
<event>
 5    0  0.5719562E-003  0.5345832E+03  0.7546771E-02  0.1005127E+00
         -3   -1    0    0    0  501 -0.00000000000E+00  0.00000000000E+00  0.72736630349E+03  0.72736630349E+03  0.00000000000E+00 0.  1.
          3   -1    0    0  502    0  0.00000000000E+00 -0.00000000000E+00 -0.98223954046E+02  0.98223954046E+02  0.00000000000E+00 0. -1.
         25    1    1    2    0    0  0.19601218717E+03  0.10359146382E+03  0.17352837302E+03  0.30804068747E+03  0.12500000000E+03 0.  0.
          4    1    1    2  502    0 -0.10434903505E+03 -0.91291344424E+02  0.18243932499E+03  0.22914392418E+03  0.00000000000E+00 0. -1.
         -4    1    1    2    0  501 -0.91663152122E+02 -0.12300119398E+02  0.27317465144E+03  0.28840564589E+03  0.00000000000E+00 0.  1.
<mgrwt>
<rscale>  4 0.53458318E+03</rscale>
<asrwt>0</asrwt>
<pdfrwt beam="1">  1        3 0.15111378E-01 0.53458318E+03</pdfrwt>
<pdfrwt beam="2">  1       -3 0.11190251E+00 0.53458318E+03</pdfrwt>
<totfact> 0.66300765E+01</totfact>
</mgrwt>
</event>
<event>
 5    0  0.5719562E-003  0.8653258E+03  0.7546771E-02  0.9469995E-01
         -1   -1    0    0    0  501 -0.00000000000E+00  0.00000000000E+00  0.51965851525E+03  0.51965851525E+03  0.00000000000E+00 0.  1.
          1   -1    0    0  502    0  0.00000000000E+00 -0.00000000000E+00 -0.36023116304E+03  0.36023116304E+03  0.00000000000E+00 0. -1.
         25    1    1    2    0    0 -0.87571768950E+02  0.18008186478E+03  0.38578373706E+03  0.45227467818E+03  0.12500000000E+03 0.  0.
          2    1    1    2  502    0  0.97901127352E+02 -0.53617920607E+02  0.50918048892E+02  0.12268724404E+03  0.00000000000E+00 0.  1.
         -2    1    1    2    0  501 -0.10329358401E+02 -0.12646394418E+03 -0.27727443374E+03  0.30492775608E+03  0.00000000000E+00 0. -1.
<mgrwt>
<rscale>  4 0.86532581E+03</rscale>
<asrwt>0</asrwt>
<pdfrwt beam="1">  1        1 0.55420179E-01 0.86532581E+03</pdfrwt>
<pdfrwt beam="2">  1       -1 0.79947464E-01 0.86532581E+03</pdfrwt>
<totfact> 0.10878497E+02</totfact>
</mgrwt>
</event>
<event>
 5    0  0.5719562E-003  0.5565400E+03  0.7546771E-02  0.9999914E-01
         -2   -1    0    0    0  501 -0.00000000000E+00  0.00000000000E+00  0.14613089126E+03  0.14613089126E+03  0.00000000000E+00 0. -1.
          2   -1    0    0  502    0  0.00000000000E+00 -0.00000000000E+00 -0.52989608106E+03  0.52989608106E+03  0.00000000000E+00 0.  1.
         25    1    1    2    0    0 -0.14520255314E+03  0.14488426143E+03 -0.23955097798E+03  0.33924165679E+03  0.12500000000E+03 0.  0.
          3    1    1    2  502    0  0.21830354096E+02 -0.13454055293E+03 -0.16199759295E+03  0.21170957669E+03  0.00000000000E+00 0.  1.
         -3    1    1    2    0  501  0.12337219905E+03 -0.10343708503E+02  0.17783381130E+02  0.12507573884E+03  0.00000000000E+00 0. -1.
<mgrwt>
<rscale>  4 0.55653998E+03</rscale>
<asrwt>0</asrwt>
<pdfrwt beam="1">  1        2 0.81522472E-01 0.55653998E+03</pdfrwt>
<pdfrwt beam="2">  1       -2 0.22481676E-01 0.55653998E+03</pdfrwt>
<totfact> 0.10011042E+03</totfact>
</mgrwt>
</event>
<event>
 5    0  0.5719562E-003  0.5620433E+03  0.7546771E-02  0.9987442E-01
          1   -1    0    0  502    0  0.00000000000E+00  0.00000000000E+00  0.27078716488E+04  0.27078716488E+04  0.00000000000E+00 0.  1.
         -1   -1    0    0    0  501 -0.00000000000E+00 -0.00000000000E+00 -0.29164289963E+02  0.29164289963E+02  0.00000000000E+00 0. -1.
         25    1    1    2    0    0 -0.34470198156E+02 -0.25499260082E+03  0.16714233238E+04  0.16957270855E+04  0.12500000000E+03 0.  0.
          2    1    1    2  502    0  0.43991341728E+02  0.22666308168E+03  0.93506522853E+03  0.96315023353E+03  0.00000000000E+00 0. -1.
         -2    1    1    2    0  501 -0.95211435723E+01  0.28329519141E+02  0.72218806422E+02  0.78158619683E+02  0.00000000000E+00 0.  1.
<mgrwt>
<rscale>  4 0.56204325E+03</rscale>
<asrwt>0</asrwt>
<pdfrwt beam="1">  1        1 0.41659544E+00 0.56204325E+03</pdfrwt>
<pdfrwt beam="2">  1       -1 0.44868159E-02 0.56204325E+03</pdfrwt>
<totfact> 0.22713295E+02</totfact>
</mgrwt>
</event>
<event>
 5    0  0.5719562E-003  0.7075518E+03  0.7546771E-02  0.9704404E-01
         -2   -1    0    0    0  501 -0.00000000000E+00  0.00000000000E+00  0.14687290289E+03  0.14687290289E+03  0.00000000000E+00 0.  1.
          2   -1    0    0  502    0  0.00000000000E+00 -0.00000000000E+00 -0.85214753834E+03  0.85214753834E+03  0.00000000000E+00 0. -1.
         25    1    1    2    0    0  0.27106674604E+02  0.20760097873E+03 -0.71739941029E+03  0.75770696979E+03  0.12500000000E+03 0.  0.
          4    1    1    2  502    0  0.38173004058E+02 -0.57174306902E+02 -0.25056628711E+02  0.73170446567E+02  0.00000000000E+00 0. -1.
         -4    1    1    2    0  501 -0.65279678662E+02 -0.15042667183E+03  0.37181403560E+02  0.16814302487E+03  0.00000000000E+00 0.  1.
<mgrwt>
<rscale>  4 0.70755179E+03</rscale>
<asrwt>0</asrwt>
<pdfrwt beam="1">  1        2 0.13109962E+00 0.70755179E+03</pdfrwt>
<pdfrwt beam="2">  1       -2 0.22595831E-01 0.70755179E+03</pdfrwt>
<totfact> 0.54705034E+02</totfact>
</mgrwt>
</event>
<event>
 5    0  0.5719562E-003  0.4775345E+03  0.7546771E-02  0.1019815E+00
          1   -1    0    0  502    0  0.00000000000E+00  0.00000000000E+00  0.29612435842E+03  0.29612435842E+03  0.00000000000E+00 0.  1.
         -1   -1    0    0    0  501 -0.00000000000E+00 -0.00000000000E+00 -0.19251977958E+03  0.19251977958E+03  0.00000000000E+00 0. -1.
         25    1    1    2    0    0 -0.10741600047E+03 -0.18770490940E+03  0.81563015849E+02  0.26277148956E+03  0.12500000000E+03 0.  0.
          4    1    1    2  502    0  0.33481500424E+02  0.28473274502E+02  0.24454829698E+02  0.50296887846E+02  0.00000000000E+00 0.  1.
         -4    1    1    2    0  501  0.73934500046E+02  0.15923163490E+03 -0.24132667021E+01  0.17557576059E+03  0.00000000000E+00 0. -1.
<mgrwt>
<rscale>  4 0.47753449E+03</rscale>
<asrwt>0</asrwt>
<pdfrwt beam="1">  1        1 0.45557594E-01 0.47753449E+03</pdfrwt>
<pdfrwt beam="2">  1       -1 0.29618428E-01 0.47753449E+03</pdfrwt>
<totfact> 0.93341077E+02</totfact>
</mgrwt>
</event>
<event>
 5    0  0.5719562E-003  0.5384728E+03  0.7546771E-02  0.1004198E+00
         -2   -1    0    0    0  501 -0.00000000000E+00  0.00000000000E+00  0.26733884499E+03  0.26733884499E+03  0.00000000000E+00 0.  1.
          2   -1    0    0  502    0  0.00000000000E+00 -0.00000000000E+00 -0.27114742085E+03  0.27114742085E+03  0.00000000000E+00 0. -1.
         25    1    1    2    0    0 -0.17732293605E+03  0.11226439287E+03  0.12139753768E+03  0.27278027735E+03  0.12500000000E+03 0.  0.
          2    1    1    2  502    0  0.13672974721E+03 -0.84772927411E+02 -0.37442078574E+02  0.16517682114E+03  0.00000000000E+00 0.  1.
         -2    1    1    2    0  501  0.40593188835E+02 -0.27491465457E+02 -0.87764034973E+02  0.10052916735E+03  0.00000000000E+00 0. -1.
<mgrwt>
<rscale>  4 0.53847280E+03</rscale>
<asrwt>0</asrwt>
<pdfrwt beam="1">  1        2 0.41714988E-01 0.53847280E+03</pdfrwt>
<pdfrwt beam="2">  1       -2 0.41129053E-01 0.53847280E+03</pdfrwt>
<totfact> 0.69211553E+02</totfact>
</mgrwt>
</event>
<event>
 5    0  0.5719562E-003  0.7240227E+03  0.7546771E-02  0.9677010E-01
         -1   -1    0    0    0  501 -0.00000000000E+00  0.00000000000E+00  0.54943507817E+03  0.54943507817E+03  0.00000000000E+00 0. -1.
          1   -1    0    0  502    0  0.00000000000E+00 -0.00000000000E+00 -0.23852176698E+03  0.23852176698E+03  0.00000000000E+00 0.  1.
         25    1    1    2    0    0  0.76716944754E+02 -0.22579328908E+03  0.24957265733E+03  0.36712342652E+03  0.12500000000E+03 0.  0.
          3    1    1    2  502    0  0.12140906544E+03  0.76637159126E+01  0.16508625157E+02  0.12276574611E+03  0.00000000000E+00 0.  1.
         -3    1    1    2    0  501 -0.19812601020E+03  0.21812957317E+03  0.44832028694E+02  0.29806767252E+03  0.00000000000E+00 0. -1.
<mgrwt>
<rscale>  4 0.72402272E+03</rscale>
<asrwt>0</asrwt>
<pdfrwt beam="1">  1        1 0.36695657E-01 0.72402272E+03</pdfrwt>
<pdfrwt beam="2">  1       -1 0.84528473E-01 0.72402272E+03</pdfrwt>
<totfact> 0.16623854E+02</totfact>
</mgrwt>
</event>
<event>
 5    0  0.5719562E-003  0.5358234E+03  0.7546771E-02  0.1004830E+00
         -2   -1    0    0    0  501 -0.00000000000E+00  0.00000000000E+00  0.25345864333E+02  0.25345864333E+02  0.00000000000E+00 0.  1.
          2   -1    0    0  502    0  0.00000000000E+00 -0.00000000000E+00 -0.28318890479E+04  0.28318890479E+04  0.00000000000E+00 0. -1.
         25    1    1    2    0    0  0.19596287623E+03 -0.98348777647E+02 -0.11817155740E+04  0.12083669264E+04  0.12500000000E+03 0.  0.
          4    1    1    2  502    0 -0.19948195213E+03  0.58280317612E+02 -0.15504037342E+04  0.15642702400E+04  0.00000000000E+00 0. -1.
         -4    1    1    2    0  501  0.35190759085E+01  0.40068460035E+02 -0.74423875408E+02  0.84597745925E+02  0.00000000000E+00 0.  1.
<mgrwt>
<rscale>  4 0.53582339E+03</rscale>
<asrwt>0</asrwt>
<pdfrwt beam="1">  1        2 0.43567517E+00 0.53582339E+03</pdfrwt>
<pdfrwt beam="2">  1       -2 0.38993644E-02 0.53582339E+03</pdfrwt>
<totfact> 0.71827694E+02</totfact>
</mgrwt>
</event>
<event>
 5    0  0.5719562E-003  0.5031613E+03  0.7546771E-02  0.1012957E+00
          2   -1    0    0  502    0  0.00000000000E+00  0.00000000000E+00  0.27703098863E+04  0.27703098863E+04  0.00000000000E+00 0. -1.
         -2   -1    0    0    0  501 -0.00000000000E+00 -0.00000000000E+00 -0.22846842252E+02  0.22846842252E+02  0.00000000000E+00 0.  1.
         25    1    1    2    0    0  0.22629101389E+03 -0.52752809337E+02  0.14451337540E+04  0.14690224807E+04  0.12500000000E+03 0.  0.
          2    1    1    2  502    0 -0.20214545069E+02 -0.84531402067E+01  0.75595258193E+02  0.78706584686E+02  0.00000000000E+00 0. -1.
         -2    1    1    2    0  501 -0.20607646882E+03  0.61205949544E+02  0.12267340319E+04  0.12454276632E+04  0.00000000000E+00 0.  1.
<mgrwt>
<rscale>  4 0.50316134E+03</rscale>
<asrwt>0</asrwt>
<pdfrwt beam="1">  1        2 0.42620126E+00 0.50316134E+03</pdfrwt>
<pdfrwt beam="2">  1       -2 0.35149010E-02 0.50316134E+03</pdfrwt>
<totfact> 0.91739997E+02</totfact>
</mgrwt>
</event>
<event>
 5    0  0.5719562E-003  0.4606454E+03  0.7546771E-02  0.1024594E+00
         -2   -1    0    0    0  501 -0.00000000000E+00  0.00000000000E+00  0.99002727487E+02  0.99002727487E+02  0.00000000000E+00 0. -1.
          2   -1    0    0  502    0  0.00000000000E+00 -0.00000000000E+00 -0.53582911068E+03  0.53582911068E+03  0.00000000000E+00 0.  1.
         25    1    1    2    0    0  0.19897943966E+03  0.30647249581E+02 -0.16319173308E+03  0.28773010455E+03  0.12500000000E+03 0.  0.
          4    1    1    2  502    0 -0.62053231884E+02 -0.11990117141E+02 -0.37460956291E+02  0.73468971291E+02  0.00000000000E+00 0. -1.
         -4    1    1    2    0  501 -0.13692620778E+03 -0.18657132439E+02 -0.23617369382E+03  0.27363276233E+03  0.00000000000E+00 0.  1.
<mgrwt>
<rscale>  4 0.46064539E+03</rscale>
<asrwt>0</asrwt>
<pdfrwt beam="1">  1        2 0.82435246E-01 0.46064539E+03</pdfrwt>
<pdfrwt beam="2">  1       -2 0.15231189E-01 0.46064539E+03</pdfrwt>
<totfact> 0.19307676E+03</totfact>
</mgrwt>
</event>
<event>
 5    0  0.5719562E-003  0.4764914E+03  0.7546771E-02  0.1020104E+00
          1   -1    0    0  502    0  0.00000000000E+00  0.00000000000E+00  0.67758911415E+03  0.67758911415E+03  0.00000000000E+00 0.  1.
         -1   -1    0    0    0  501 -0.00000000000E+00 -0.00000000000E+00 -0.83769063281E+02  0.83769063281E+02  0.00000000000E+00 0. -1.
         25    1    1    2    0    0 -0.23219412594E+02 -0.21853211358E+03  0.31508409548E+03  0.40397823334E+03  0.12500000000E+03 0.  0.
          1    1    1    2  502    0 -0.49778405861E+00  0.32872589765E+02  0.67971018161E+02  0.75504398923E+02  0.00000000000E+00 0.  1.
         -1    1    1    2    0  501  0.23717196653E+02  0.18565952381E+03  0.21076493723E+03  0.28187554517E+03  0.00000000000E+00 0. -1.
<mgrwt>
<rscale>  4 0.47649137E+03</rscale>
<asrwt>0</asrwt>
<pdfrwt beam="1">  1        1 0.10424448E+00 0.47649137E+03</pdfrwt>
<pdfrwt beam="2">  1       -1 0.12887549E-01 0.47649137E+03</pdfrwt>
<totfact> 0.12105224E+03</totfact>
</mgrwt>
</event>
<event>
 5    0  0.5719562E-003  0.6049300E+03  0.7546771E-02  0.9895230E-01
         -3   -1    0    0    0  501 -0.00000000000E+00  0.00000000000E+00  0.52418793936E+03  0.52418793936E+03  0.00000000000E+00 0. -1.
          3   -1    0    0  502    0  0.00000000000E+00 -0.00000000000E+00 -0.17452724148E+03  0.17452724148E+03  0.00000000000E+00 0.  1.
         25    1    1    2    0    0 -0.23650871437E+03  0.21728530248E+02  0.28485492978E+03  0.39137684144E+03  0.12500000000E+03 0.  0.
          2    1    1    2  502    0  0.18439362389E+03  0.34038588301E+02 -0.25345960916E+02  0.18921430115E+03  0.00000000000E+00 0.  1.
         -2    1    1    2    0  501  0.52115090481E+02 -0.55767118549E+02  0.90151729022E+02  0.11812403825E+03  0.00000000000E+00 0. -1.
<mgrwt>
<rscale>  4 0.60493000E+03</rscale>
<asrwt>0</asrwt>
<pdfrwt beam="1">  1        3 0.26850345E-01 0.60493000E+03</pdfrwt>
<pdfrwt beam="2">  1       -3 0.80644298E-01 0.60493000E+03</pdfrwt>
<totfact> 0.50165060E+01</totfact>
</mgrwt>
</event>
<event>
 5    0  0.5719562E-003  0.6803764E+03  0.7546771E-02  0.9751392E-01
         -2   -1    0    0    0  501 -0.00000000000E+00  0.00000000000E+00  0.96880545844E+02  0.96880545844E+02  0.00000000000E+00 0.  1.
          2   -1    0    0  502    0  0.00000000000E+00 -0.00000000000E+00 -0.11945432073E+04  0.11945432073E+04  0.00000000000E+00 0. -1.
         25    1    1    2    0    0 -0.21688143200E+03 -0.13849152571E+03 -0.70756119717E+03  0.76320724969E+03  0.12500000000E+03 0.  0.
          1    1    1    2  502    0  0.13179557430E+02 -0.29528873284E+02 -0.20062425092E+03  0.20321354569E+03  0.00000000000E+00 0. -1.
         -1    1    1    2    0  501  0.20370187457E+03  0.16802039900E+03 -0.18947721341E+03  0.32500295781E+03  0.00000000000E+00 0.  1.
<mgrwt>
<rscale>  4 0.68037636E+03</rscale>
<asrwt>0</asrwt>
<pdfrwt beam="1">  1        2 0.18377587E+00 0.68037636E+03</pdfrwt>
<pdfrwt beam="2">  1       -2 0.14904700E-01 0.68037636E+03</pdfrwt>
<totfact> 0.68258776E+02</totfact>
</mgrwt>
</event>
<event>
 5    0  0.5719562E-003  0.6391405E+03  0.7546771E-02  0.9827372E-01
         -2   -1    0    0    0  501 -0.00000000000E+00  0.00000000000E+00  0.26557489750E+03  0.26557489750E+03  0.00000000000E+00 0. -1.
          2   -1    0    0  502    0  0.00000000000E+00 -0.00000000000E+00 -0.38454361475E+03  0.38454361475E+03  0.00000000000E+00 0.  1.
         25    1    1    2    0    0 -0.23443026904E+03 -0.16590808076E+03 -0.19820855953E+02  0.31384854410E+03  0.12500000000E+03 0.  0.
          3    1    1    2  502    0  0.22869988459E+03  0.18945620106E+03 -0.89363145841E+02  0.31013394068E+03  0.00000000000E+00 0.  1.
         -3    1    1    2    0  501  0.57303844559E+01 -0.23548120297E+02 -0.97847154532E+01  0.26136027473E+02  0.00000000000E+00 0. -1.
<mgrwt>
<rscale>  4 0.63914046E+03</rscale>
<asrwt>0</asrwt>
<pdfrwt beam="1">  1        2 0.59160556E-01 0.63914046E+03</pdfrwt>
<pdfrwt beam="2">  1       -2 0.40857677E-01 0.63914046E+03</pdfrwt>
<totfact> 0.47547882E+02</totfact>
</mgrwt>
</event>
<event>
 5    0  0.5719562E-003  0.7246579E+03  0.7546771E-02  0.9675969E-01
         -2   -1    0    0    0  501 -0.00000000000E+00  0.00000000000E+00  0.53604204903E+02  0.53604204903E+02  0.00000000000E+00 0. -1.
          2   -1    0    0  502    0  0.00000000000E+00 -0.00000000000E+00 -0.24491038181E+04  0.24491038181E+04  0.00000000000E+00 0.  1.
         25    1    1    2    0    0  0.22575945807E+03  0.72186493180E+02 -0.21194790953E+04  0.21363508275E+04  0.12500000000E+03 0.  0.
          4    1    1    2  502    0 -0.18866249151E+03 -0.75615566403E+02 -0.24048814549E+03  0.31487425698E+03  0.00000000000E+00 0. -1.
         -4    1    1    2    0  501 -0.37096966561E+02  0.34290732226E+01 -0.35532372407E+02  0.51482938534E+02  0.00000000000E+00 0.  1.
<mgrwt>
<rscale>  4 0.72465789E+03</rscale>
<asrwt>0</asrwt>
<pdfrwt beam="1">  1        2 0.37678521E+00 0.72465789E+03</pdfrwt>
<pdfrwt beam="2">  1       -2 0.82468007E-02 0.72465789E+03</pdfrwt>
<totfact> 0.36262249E+02</totfact>
</mgrwt>
</event>
<event>
 5    0  0.5719562E-003  0.5472589E+03  0.7546771E-02  0.1002130E+00
          2   -1    0    0  502    0  0.00000000000E+00  0.00000000000E+00  0.46769266382E+03  0.46769266382E+03  0.00000000000E+00 0. -1.
         -2   -1    0    0    0  501 -0.00000000000E+00 -0.00000000000E+00 -0.16009035834E+03  0.16009035834E+03  0.00000000000E+00 0.  1.
         25    1    1    2    0    0 -0.17168929998E+03 -0.17842834983E+03  0.12415282497E+03  0.30389606069E+03  0.12500000000E+03 0.  0.
          3    1    1    2  502    0  0.53349591066E+02  0.10638764713E+03  0.42837981788E+02  0.12648953717E+03  0.00000000000E+00 0.  1.
         -3    1    1    2    0  501  0.11833970891E+03  0.72040702700E+02  0.14061149871E+03  0.19739742430E+03  0.00000000000E+00 0. -1.
<mgrwt>
<rscale>  4 0.54725894E+03</rscale>
<asrwt>0</asrwt>
<pdfrwt beam="1">  1        2 0.71952717E-01 0.54725894E+03</pdfrwt>
<pdfrwt beam="2">  1       -2 0.24629286E-01 0.54725894E+03</pdfrwt>
<totfact> 0.98260219E+02</totfact>
</mgrwt>
</event>
<event>
 5    0  0.5719562E-003  0.7391522E+03  0.7546771E-02  0.9652524E-01
          1   -1    0    0  502    0  0.00000000000E+00  0.00000000000E+00  0.61928609586E+03  0.61928609586E+03  0.00000000000E+00 0. -1.
         -1   -1    0    0    0  501 -0.00000000000E+00 -0.00000000000E+00 -0.22055475527E+03  0.22055475527E+03  0.00000000000E+00 0.  1.
         25    1    1    2    0    0 -0.29064437612E+03 -0.12862703930E+03  0.13376949221E+03  0.36679469142E+03  0.12500000000E+03 0.  0.
          1    1    1    2  502    0  0.37093154614E+02 -0.47210335094E+02 -0.86387844703E+01  0.60657616637E+02  0.00000000000E+00 0. -1.
         -1    1    1    2    0  501  0.25355122151E+03  0.17583737439E+03  0.27360063285E+03  0.41238854307E+03  0.00000000000E+00 0.  1.
<mgrwt>
<rscale>  4 0.73915220E+03</rscale>
<asrwt>0</asrwt>
<pdfrwt beam="1">  1        1 0.95274783E-01 0.73915220E+03</pdfrwt>
<pdfrwt beam="2">  1       -1 0.33931501E-01 0.73915220E+03</pdfrwt>
<totfact> 0.27135760E+02</totfact>
</mgrwt>
</event>
<event>
 5    0  0.5719562E-003  0.5873109E+03  0.7546771E-02  0.9932087E-01
         -2   -1    0    0    0  501 -0.00000000000E+00  0.00000000000E+00  0.58372535666E+02  0.58372535666E+02  0.00000000000E+00 0. -1.
          2   -1    0    0  502    0  0.00000000000E+00 -0.00000000000E+00 -0.14772963363E+04  0.14772963363E+04  0.00000000000E+00 0.  1.
         25    1    1    2    0    0 -0.15358617624E+02 -0.21919508433E+03 -0.30349579717E+03  0.39498996320E+03  0.12500000000E+03 0.  0.
          4    1    1    2  502    0  0.37248470230E+02  0.11249195846E+03 -0.75198096103E+03  0.76126030699E+03  0.00000000000E+00 0.  1.
         -4    1    1    2    0  501 -0.21889852606E+02  0.10670312587E+03 -0.36344704248E+03  0.37941860181E+03  0.00000000000E+00 0. -1.
<mgrwt>
<rscale>  4 0.58731093E+03</rscale>
<asrwt>0</asrwt>
<pdfrwt beam="1">  1        2 0.22727634E+00 0.58731093E+03</pdfrwt>
<pdfrwt beam="2">  1       -2 0.89803909E-02 0.58731093E+03</pdfrwt>
<totfact> 0.10880739E+03</totfact>
</mgrwt>
</event>
<event>
 5    0  0.5719562E-003  0.6673294E+03  0.7546771E-02  0.9774794E-01
         -1   -1    0    0    0  501 -0.00000000000E+00  0.00000000000E+00  0.11429431745E+03  0.11429431745E+03  0.00000000000E+00 0. -1.
          1   -1    0    0  502    0  0.00000000000E+00 -0.00000000000E+00 -0.97408283138E+03  0.97408283138E+03  0.00000000000E+00 0.  1.
         25    1    1    2    0    0  0.64720613942E+02  0.26710620313E+03 -0.19542358336E+03  0.35965241352E+03  0.12500000000E+03 0.  0.
          4    1    1    2  502    0 -0.94148288433E+02 -0.22673483703E+03 -0.59101547115E+03  0.63997802594E+03  0.00000000000E+00 0.  1.
         -4    1    1    2    0  501  0.29427674491E+02 -0.40371366099E+02 -0.73349459418E+02  0.88746709368E+02  0.00000000000E+00 0. -1.
<mgrwt>
<rscale>  4 0.66732940E+03</rscale>
<asrwt>0</asrwt>
<pdfrwt beam="1">  1        1 0.14985889E+00 0.66732940E+03</pdfrwt>
<pdfrwt beam="2">  1       -1 0.17583741E-01 0.66732940E+03</pdfrwt>
<totfact> 0.40709721E+02</totfact>
</mgrwt>
</event>
<event>
 5    0  0.5719562E-003  0.4723787E+03  0.7546771E-02  0.1021251E+00
          1   -1    0    0  502    0  0.00000000000E+00  0.00000000000E+00  0.15137262133E+03  0.15137262133E+03  0.00000000000E+00 0.  1.
         -1   -1    0    0    0  501 -0.00000000000E+00 -0.00000000000E+00 -0.36853030894E+03  0.36853030894E+03  0.00000000000E+00 0. -1.
         25    1    1    2    0    0 -0.65902902591E+01  0.20776383525E+03 -0.13952404961E+03  0.27982352221E+03  0.12500000000E+03 0.  0.
          4    1    1    2  502    0  0.98289650912E+01 -0.70960098476E+02 -0.74280027759E+02  0.10319625310E+03  0.00000000000E+00 0. -1.
         -4    1    1    2    0  501 -0.32386748321E+01 -0.13680373677E+03 -0.33536102464E+01  0.13688315496E+03  0.00000000000E+00 0.  1.
<mgrwt>
<rscale>  4 0.47237866E+03</rscale>
<asrwt>0</asrwt>
<pdfrwt beam="1">  1        1 0.23288095E-01 0.47237866E+03</pdfrwt>
<pdfrwt beam="2">  1       -1 0.56696971E-01 0.47237866E+03</pdfrwt>
<totfact> 0.68064377E+02</totfact>
</mgrwt>
</event>
<event>
 5    0  0.5719562E-003  0.4950051E+03  0.7546771E-02  0.1015091E+00
          2   -1    0    0  502    0  0.00000000000E+00  0.00000000000E+00  0.57517176000E+02  0.57517176000E+02  0.00000000000E+00 0.  1.
         -2   -1    0    0    0  501 -0.00000000000E+00 -0.00000000000E+00 -0.10650297094E+04  0.10650297094E+04  0.00000000000E+00 0. -1.
         25    1    1    2    0    0  0.13628718224E+03  0.15167766352E+03 -0.53049779746E+03  0.58192200746E+03  0.12500000000E+03 0.  0.
          1    1    1    2  502    0 -0.16256581225E+03 -0.10486216555E+03 -0.41944555476E+03  0.46190723146E+03  0.00000000000E+00 0. -1.
         -1    1    1    2    0  501  0.26278630003E+02 -0.46815497974E+02 -0.57569181211E+02  0.78717646501E+02  0.00000000000E+00 0.  1.
<mgrwt>
<rscale>  4 0.49500506E+03</rscale>
<asrwt>0</asrwt>
<pdfrwt beam="1">  1        2 0.88487961E-02 0.49500506E+03</pdfrwt>
<pdfrwt beam="2">  1       -2 0.16385073E+00 0.49500506E+03</pdfrwt>
<totfact> 0.18721542E+02</totfact>
</mgrwt>
</event>
<event>
 5    0  0.5719562E-003  0.7471057E+03  0.7546771E-02  0.9639902E-01
          1   -1    0    0  502    0  0.00000000000E+00  0.00000000000E+00  0.38067837805E+03  0.38067837805E+03  0.00000000000E+00 0. -1.
         -1   -1    0    0    0  501 -0.00000000000E+00 -0.00000000000E+00 -0.36656065311E+03  0.36656065311E+03  0.00000000000E+00 0.  1.
         25    1    1    2    0    0 -0.20932757479E+03 -0.13390787807E+03  0.70896125515E+00  0.27816336208E+03  0.12500000000E+03 0.  0.
          1    1    1    2  502    0  0.14361165181E+03 -0.13138371892E+03  0.20144983448E+02  0.19568292847E+03  0.00000000000E+00 0.  1.
         -1    1    1    2    0  501  0.65715922976E+02  0.26529159699E+03 -0.67362197577E+01  0.27339274062E+03  0.00000000000E+00 0. -1.
<mgrwt>
<rscale>  4 0.74710565E+03</rscale>
<asrwt>0</asrwt>
<pdfrwt beam="1">  1        1 0.58565905E-01 0.74710565E+03</pdfrwt>
<pdfrwt beam="2">  1       -1 0.56393946E-01 0.74710565E+03</pdfrwt>
<totfact> 0.20663848E+02</totfact>
</mgrwt>
</event>
<event>
 5    0  0.5719562E-003  0.5021512E+03  0.7546771E-02  0.1013219E+00
          2   -1    0    0  502    0  0.00000000000E+00  0.00000000000E+00  0.48505132834E+03  0.48505132834E+03  0.00000000000E+00 0. -1.
         -2   -1    0    0    0  501 -0.00000000000E+00 -0.00000000000E+00 -0.12996347851E+03  0.12996347851E+03  0.00000000000E+00 0.  1.
         25    1    1    2    0    0 -0.20989589524E+03 -0.77055820986E+02  0.19797219407E+03  0.32374662316E+03  0.12500000000E+03 0.  0.
          1    1    1    2  502    0  0.60534835116E+02  0.59257041891E+02  0.18471411135E+02  0.86700959081E+02  0.00000000000E+00 0.  1.
         -1    1    1    2    0  501  0.14936106012E+03  0.17798779095E+02  0.13864424462E+03  0.20456722461E+03  0.00000000000E+00 0. -1.
<mgrwt>
<rscale>  4 0.50215120E+03</rscale>
<asrwt>0</asrwt>
<pdfrwt beam="1">  1        2 0.74623280E-01 0.50215120E+03</pdfrwt>
<pdfrwt beam="2">  1       -2 0.19994382E-01 0.50215120E+03</pdfrwt>
<totfact> 0.13613974E+03</totfact>
</mgrwt>
</event>
<event>
 5    0  0.5719562E-003  0.7339341E+03  0.7546771E-02  0.9660898E-01
         -1   -1    0    0    0  501 -0.00000000000E+00  0.00000000000E+00  0.18884898299E+03  0.18884898299E+03  0.00000000000E+00 0.  1.
          1   -1    0    0  502    0  0.00000000000E+00 -0.00000000000E+00 -0.71308209874E+03  0.71308209874E+03  0.00000000000E+00 0. -1.
         25    1    1    2    0    0 -0.15060883093E+03 -0.14179666415E+03 -0.14391439695E+03  0.28129285019E+03  0.12500000000E+03 0.  0.
          4    1    1    2  502    0 -0.89934104688E+02 -0.84279168448E+02 -0.86759935577E+01  0.12355725104E+03  0.00000000000E+00 0. -1.
         -4    1    1    2    0  501  0.24054293562E+03  0.22607583260E+03 -0.37164272525E+03  0.49708098051E+03  0.00000000000E+00 0.  1.
<mgrwt>
<rscale>  4 0.73393414E+03</rscale>
<asrwt>0</asrwt>
<pdfrwt beam="1">  1        1 0.10970494E+00 0.73393414E+03</pdfrwt>
<pdfrwt beam="2">  1       -1 0.29053689E-01 0.73393414E+03</pdfrwt>
<totfact> 0.28900374E+02</totfact>
</mgrwt>
</event>
<event>
 5    0  0.5719562E-003  0.6621911E+03  0.7546771E-02  0.9784169E-01
         -2   -1    0    0    0  501 -0.00000000000E+00  0.00000000000E+00  0.17899135819E+03  0.17899135819E+03  0.00000000000E+00 0.  1.
          2   -1    0    0  502    0  0.00000000000E+00 -0.00000000000E+00 -0.61245566671E+03  0.61245566671E+03  0.00000000000E+00 0. -1.
         25    1    1    2    0    0  0.16866371921E+00 -0.30499337516E+03 -0.15901522123E+03  0.36596697655E+03  0.12500000000E+03 0.  0.
          2    1    1    2  502    0  0.48051754356E+02  0.22333429346E+03 -0.17261521778E+03  0.28632707022E+03  0.00000000000E+00 0. -1.
         -2    1    1    2    0  501 -0.48220418075E+02  0.81659081704E+02 -0.10183386950E+03  0.13915297813E+03  0.00000000000E+00 0.  1.
<mgrwt>
<rscale>  4 0.66219113E+03</rscale>
<asrwt>0</asrwt>
<pdfrwt beam="1">  1        2 0.94223949E-01 0.66219113E+03</pdfrwt>
<pdfrwt beam="2">  1       -2 0.27537132E-01 0.66219113E+03</pdfrwt>
<totfact> 0.58468600E+02</totfact>
</mgrwt>
</event>
<event>
 5    0  0.5719562E-003  0.7623027E+03  0.7546771E-02  0.9616245E-01
          1   -1    0    0  502    0  0.00000000000E+00  0.00000000000E+00  0.25956130415E+04  0.25956130415E+04  0.00000000000E+00 0. -1.
         -1   -1    0    0    0  501 -0.00000000000E+00 -0.00000000000E+00 -0.55969961753E+02  0.55969961753E+02  0.00000000000E+00 0.  1.
         25    1    1    2    0    0 -0.62611022256E+02 -0.28495082196E+03  0.56528391395E+03  0.64829623970E+03  0.12500000000E+03 0.  0.
          1    1    1    2  502    0  0.66451942688E+02  0.21918027264E+03  0.96609012337E+03  0.99286755364E+03  0.00000000000E+00 0.  1.
         -1    1    1    2    0  501 -0.38409204317E+01  0.65770549323E+02  0.10082690424E+04  0.10104192099E+04  0.00000000000E+00 0. -1.
<mgrwt>
<rscale>  4 0.76230273E+03</rscale>
<asrwt>0</asrwt>
<pdfrwt beam="1">  1        1 0.39932499E+00 0.76230273E+03</pdfrwt>
<pdfrwt beam="2">  1       -1 0.86107653E-02 0.76230273E+03</pdfrwt>
<totfact> 0.96917662E+01</totfact>
</mgrwt>
</event>
<event>
 5    0  0.5719562E-003  0.5104983E+03  0.7546771E-02  0.1011074E+00
          2   -1    0    0  502    0  0.00000000000E+00  0.00000000000E+00  0.19398167267E+04  0.19398167267E+04  0.00000000000E+00 0. -1.
         -2   -1    0    0    0  501 -0.00000000000E+00 -0.00000000000E+00 -0.33586743970E+02  0.33586743970E+02  0.00000000000E+00 0.  1.
         25    1    1    2    0    0  0.13482473581E+03 -0.16490379084E+03  0.65663731265E+03  0.70154724002E+03  0.12500000000E+03 0.  0.
          2    1    1    2  502    0 -0.39548262570E+02  0.61432390365E+01  0.10470977844E+03  0.11209791327E+03  0.00000000000E+00 0.  1.
         -2    1    1    2    0  501 -0.95276473236E+02  0.15876055180E+03  0.11448828916E+04  0.11597583174E+04  0.00000000000E+00 0. -1.
<mgrwt>
<rscale>  4 0.51049830E+03</rscale>
<asrwt>0</asrwt>
<pdfrwt beam="1">  1        2 0.29843326E+00 0.51049830E+03</pdfrwt>
<pdfrwt beam="2">  1       -2 0.51671929E-02 0.51049830E+03</pdfrwt>
<totfact> 0.14641206E+03</totfact>
</mgrwt>
</event>
<event>
 5    0  0.5719562E-003  0.6829467E+03  0.7546771E-02  0.9746848E-01
         -1   -1    0    0    0  501 -0.00000000000E+00  0.00000000000E+00  0.15737913195E+03  0.15737913195E+03  0.00000000000E+00 0.  1.
          1   -1    0    0  502    0  0.00000000000E+00 -0.00000000000E+00 -0.74091181766E+03  0.74091181766E+03  0.00000000000E+00 0. -1.
         25    1    1    2    0    0 -0.28711304331E+03 -0.48571536644E+02 -0.29407535184E+03  0.43231748330E+03  0.12500000000E+03 0.  0.
          4    1    1    2  502    0  0.12892393617E+03 -0.78348413628E+02 -0.67391548982E+02  0.16523158327E+03  0.00000000000E+00 0.  1.
         -4    1    1    2    0  501  0.15818910714E+03  0.12691995027E+03 -0.22206578490E+03  0.30074188304E+03  0.00000000000E+00 0. -1.
<mgrwt>
<rscale>  4 0.68294673E+03</rscale>
<asrwt>0</asrwt>
<pdfrwt beam="1">  1        1 0.11398643E+00 0.68294673E+03</pdfrwt>
<pdfrwt beam="2">  1       -1 0.24212174E-01 0.68294673E+03</pdfrwt>
<totfact> 0.37347842E+02</totfact>
</mgrwt>
</event>
<event>
 5    0  0.5719562E-003  0.6204699E+03  0.7546771E-02  0.9863825E-01
         -2   -1    0    0    0  501 -0.00000000000E+00  0.00000000000E+00  0.29770379193E+03  0.29770379193E+03  0.00000000000E+00 0.  1.
          2   -1    0    0  502    0  0.00000000000E+00 -0.00000000000E+00 -0.32329354047E+03  0.32329354047E+03  0.00000000000E+00 0. -1.
         25    1    1    2    0    0  0.12063077511E+03 -0.26400938567E+03 -0.10396470107E+02  0.31620535450E+03  0.12500000000E+03 0.  0.
          2    1    1    2  502    0 -0.93783377543E+02  0.25190079856E+03 -0.32310461880E+02  0.27072735393E+03  0.00000000000E+00 0. -1.
         -2    1    1    2    0  501 -0.26847397564E+02  0.12108587104E+02  0.17117183448E+02  0.34064623979E+02  0.00000000000E+00 0.  1.
<mgrwt>
<rscale>  4 0.62046986E+03</rscale>
<asrwt>0</asrwt>
<pdfrwt beam="1">  1        2 0.49737468E-01 0.62046986E+03</pdfrwt>
<pdfrwt beam="2">  1       -2 0.45800583E-01 0.62046986E+03</pdfrwt>
<totfact> 0.46051518E+02</totfact>
</mgrwt>
</event>
<event>
 5    0  0.5719562E-003  0.5741178E+03  0.7546771E-02  0.9960608E-01
         -1   -1    0    0    0  501 -0.00000000000E+00  0.00000000000E+00  0.73055496650E+02  0.73055496650E+02  0.00000000000E+00 0.  1.
          1   -1    0    0  502    0  0.00000000000E+00 -0.00000000000E+00 -0.11279481938E+04  0.11279481938E+04  0.00000000000E+00 0. -1.
         25    1    1    2    0    0 -0.23721011841E+03  0.85344891718E+02 -0.75407454585E+03  0.80486384657E+03  0.12500000000E+03 0.  0.
          1    1    1    2  502    0  0.19279343925E+03 -0.87193802773E+02 -0.23000431805E+03  0.31252848795E+03  0.00000000000E+00 0.  1.
         -1    1    1    2    0  501  0.44416679160E+02  0.18489110548E+01 -0.70813833216E+02  0.83611355894E+02  0.00000000000E+00 0. -1.
<mgrwt>
<rscale>  4 0.57411781E+03</rscale>
<asrwt>0</asrwt>
<pdfrwt beam="1">  1        1 0.17353049E+00 0.57411781E+03</pdfrwt>
<pdfrwt beam="2">  1       -1 0.11239307E-01 0.57411781E+03</pdfrwt>
<totfact> 0.64420505E+02</totfact>
</mgrwt>
</event>
<event>
 5    0  0.5719562E-003  0.6158513E+03  0.7546771E-02  0.9873055E-01
         -1   -1    0    0    0  501 -0.00000000000E+00  0.00000000000E+00  0.41792234373E+03  0.41792234373E+03  0.00000000000E+00 0. -1.
          1   -1    0    0  502    0  0.00000000000E+00 -0.00000000000E+00 -0.22687997903E+03  0.22687997903E+03  0.00000000000E+00 0.  1.
         25    1    1    2    0    0 -0.23697117769E+03  0.13448903175E+03  0.19483931782E+03  0.35753321312E+03  0.12500000000E+03 0.  0.
          2    1    1    2  502    0  0.79412004221E+02 -0.63196080964E+02  0.39646146600E+02  0.10895791850E+03  0.00000000000E+00 0. -1.
         -2    1    1    2    0  501  0.15755917346E+03 -0.71292950783E+02 -0.43443099721E+02  0.17831119115E+03  0.00000000000E+00 0.  1.
<mgrwt>
<rscale>  4 0.61585132E+03</rscale>
<asrwt>0</asrwt>
<pdfrwt beam="1">  1        1 0.34904612E-01 0.61585132E+03</pdfrwt>
<pdfrwt beam="2">  1       -1 0.64295745E-01 0.61585132E+03</pdfrwt>
<totfact> 0.31403651E+02</totfact>
</mgrwt>
</event>
<event>
 5    0  0.5719562E-003  0.5910402E+03  0.7546771E-02  0.9924171E-01
         -1   -1    0    0    0  501 -0.00000000000E+00  0.00000000000E+00  0.32655014588E+03  0.32655014588E+03  0.00000000000E+00 0.  1.
          1   -1    0    0  502    0  0.00000000000E+00 -0.00000000000E+00 -0.26743861417E+03  0.26743861417E+03  0.00000000000E+00 0. -1.
         25    1    1    2    0    0 -0.18982310036E+03 -0.14861049055E+03 -0.10933474801E+03  0.29274045579E+03  0.12500000000E+03 0.  0.
          1    1    1    2  502    0  0.11013345235E+03  0.87804410830E+02  0.58640340768E+02  0.15257025088E+03  0.00000000000E+00 0.  1.
         -1    1    1    2    0  501  0.79689648011E+02  0.60806079720E+02  0.10980593894E+03  0.14867805338E+03  0.00000000000E+00 0. -1.
<mgrwt>
<rscale>  4 0.59104016E+03</rscale>
<asrwt>0</asrwt>
<pdfrwt beam="1">  1        1 0.41144402E-01 0.59104016E+03</pdfrwt>
<pdfrwt beam="2">  1       -1 0.50238484E-01 0.59104016E+03</pdfrwt>
<totfact> 0.41032887E+02</totfact>
</mgrwt>
</event>
<event>
 5    0  0.5719562E-003  0.7802345E+03  0.7546771E-02  0.9589076E-01
         -2   -1    0    0    0  501 -0.00000000000E+00  0.00000000000E+00  0.11834296210E+04  0.11834296210E+04  0.00000000000E+00 0. -1.
          2   -1    0    0  502    0  0.00000000000E+00 -0.00000000000E+00 -0.12860203133E+03  0.12860203133E+03  0.00000000000E+00 0.  1.
         25    1    1    2    0    0 -0.99254358787E+01 -0.30595274796E+03  0.28044139418E+03  0.43356426725E+03  0.12500000000E+03 0.  0.
          3    1    1    2  502    0  0.63176739528E+02  0.11846051641E+03  0.77888423523E+02  0.15521211578E+03  0.00000000000E+00 0.  1.
         -3    1    1    2    0  501 -0.53251303650E+02  0.18749223156E+03  0.69649777191E+03  0.72325526926E+03  0.00000000000E+00 0. -1.
<mgrwt>
<rscale>  4 0.78023446E+03</rscale>
<asrwt>0</asrwt>
<pdfrwt beam="1">  1        2 0.19784929E-01 0.78023446E+03</pdfrwt>
<pdfrwt beam="2">  1       -2 0.18206609E+00 0.78023446E+03</pdfrwt>
<totfact> 0.51138666E+01</totfact>
</mgrwt>
</event>
<event>
 5    0  0.5719562E-003  0.7744242E+03  0.7546771E-02  0.9597793E-01
          2   -1    0    0  502    0  0.00000000000E+00  0.00000000000E+00  0.17431999711E+04  0.17431999711E+04  0.00000000000E+00 0. -1.
         -2   -1    0    0    0  501 -0.00000000000E+00 -0.00000000000E+00 -0.86010322346E+02  0.86010322346E+02  0.00000000000E+00 0.  1.
         25    1    1    2    0    0  0.28093083337E+03 -0.34026737821E+02  0.51852672535E+03  0.60380039494E+03  0.12500000000E+03 0.  0.
          4    1    1    2  502    0 -0.14534040509E+03 -0.15734838743E+03  0.46170283536E+03  0.50897137106E+03  0.00000000000E+00 0.  1.
         -4    1    1    2    0  501 -0.13559042828E+03  0.19137512525E+03  0.67696008803E+03  0.71643852743E+03  0.00000000000E+00 0. -1.
<mgrwt>
<rscale>  4 0.77442415E+03</rscale>
<asrwt>0</asrwt>
<pdfrwt beam="1">  1        2 0.26818459E+00 0.77442415E+03</pdfrwt>
<pdfrwt beam="2">  1       -2 0.13232359E-01 0.77442415E+03</pdfrwt>
<totfact> 0.40776937E+02</totfact>
</mgrwt>
</event>
<event>
 5    0  0.5719562E-003  0.5894435E+03  0.7546771E-02  0.9927553E-01
         -2   -1    0    0    0  501 -0.00000000000E+00  0.00000000000E+00  0.65741296985E+02  0.65741296985E+02  0.00000000000E+00 0. -1.
          2   -1    0    0  502    0  0.00000000000E+00 -0.00000000000E+00 -0.13212535394E+04  0.13212535394E+04  0.00000000000E+00 0.  1.
         25    1    1    2    0    0  0.18519648771E+01 -0.25165327900E+03 -0.38874615486E+03  0.47966798468E+03  0.12500000000E+03 0.  0.
          1    1    1    2  502    0  0.22419309380E+02  0.84136478585E+02 -0.17922667219E+03  0.19925805501E+03  0.00000000000E+00 0. -1.
         -1    1    1    2    0  501 -0.24271274257E+02  0.16751680042E+03 -0.68753941536E+03  0.70806879670E+03  0.00000000000E+00 0.  1.
<mgrwt>
<rscale>  4 0.58944354E+03</rscale>
<asrwt>0</asrwt>
<pdfrwt beam="1">  1        2 0.20326975E+00 0.58944354E+03</pdfrwt>
<pdfrwt beam="2">  1       -2 0.10114047E-01 0.58944354E+03</pdfrwt>
<totfact> 0.10983869E+03</totfact>
</mgrwt>
</event>
<event>
 5    0  0.5719562E-003  0.4721920E+03  0.7546771E-02  0.1021303E+00
         -1   -1    0    0    0  501 -0.00000000000E+00  0.00000000000E+00  0.66346542453E+02  0.66346542453E+02  0.00000000000E+00 0.  1.
          1   -1    0    0  502    0  0.00000000000E+00 -0.00000000000E+00 -0.84015418277E+03  0.84015418277E+03  0.00000000000E+00 0. -1.
         25    1    1    2    0    0 -0.20060114536E+03  0.37230992092E+01 -0.31749677432E+03  0.39583315006E+03  0.12500000000E+03 0.  0.
          3    1    1    2  502    0  0.13398161438E+03 -0.53335806969E+02 -0.32084716992E+03  0.35176510308E+03  0.00000000000E+00 0. -1.
         -3    1    1    2    0  501  0.66619530974E+02  0.49612707760E+02 -0.13546369607E+03  0.15890247208E+03  0.00000000000E+00 0.  1.
<mgrwt>
<rscale>  4 0.47219202E+03</rscale>
<asrwt>0</asrwt>
<pdfrwt beam="1">  1        1 0.12925448E+00 0.47219202E+03</pdfrwt>
<pdfrwt beam="2">  1       -1 0.10207161E-01 0.47219202E+03</pdfrwt>
<totfact> 0.12581575E+03</totfact>
</mgrwt>
</event>
<event>
 5    0  0.5719562E-003  0.6352347E+03  0.7546771E-02  0.9834887E-01
          2   -1    0    0  502    0  0.00000000000E+00  0.00000000000E+00  0.66326462108E+03  0.66326462108E+03  0.00000000000E+00 0.  1.
         -2   -1    0    0    0  501 -0.00000000000E+00 -0.00000000000E+00 -0.15209732043E+03  0.15209732043E+03  0.00000000000E+00 0. -1.
         25    1    1    2    0    0 -0.19466209429E+03 -0.16530357914E+03  0.13300152131E+03  0.31389967967E+03  0.12500000000E+03 0.  0.
          2    1    1    2  502    0  0.46504894085E+01  0.11980646172E+03  0.21810614710E+03  0.24888854278E+03  0.00000000000E+00 0. -1.
         -2    1    1    2    0  501  0.19001160488E+03  0.45497117415E+02  0.16005963224E+03  0.25257371905E+03  0.00000000000E+00 0.  1.
<mgrwt>
<rscale>  4 0.63523467E+03</rscale>
<asrwt>0</asrwt>
<pdfrwt beam="1">  1        2 0.10204071E+00 0.63523467E+03</pdfrwt>
<pdfrwt beam="2">  1       -2 0.23399588E-01 0.63523467E+03</pdfrwt>
<totfact> 0.71198641E+02</totfact>
</mgrwt>
</event>
<event>
 5    0  0.5719562E-003  0.4780751E+03  0.7546771E-02  0.1019666E+00
          1   -1    0    0  502    0  0.00000000000E+00  0.00000000000E+00  0.45915898002E+03  0.45915898002E+03  0.00000000000E+00 0.  1.
         -1   -1    0    0    0  501 -0.00000000000E+00 -0.00000000000E+00 -0.12444264707E+03  0.12444264707E+03  0.00000000000E+00 0. -1.
         25    1    1    2    0    0 -0.16823088568E+03 -0.11966639356E+03  0.21688341202E+03  0.32447664177E+03  0.12500000000E+03 0.  0.
          2    1    1    2  502    0 -0.52533806495E+00  0.44600683680E+02  0.35029181510E+02  0.56714553001E+02  0.00000000000E+00 0.  1.
         -2    1    1    2    0  501  0.16875622375E+03  0.75065709879E+02  0.82803739416E+02  0.20241043232E+03  0.00000000000E+00 0. -1.
<mgrwt>
<rscale>  4 0.47807514E+03</rscale>
<asrwt>0</asrwt>
<pdfrwt beam="1">  1        1 0.70639842E-01 0.47807514E+03</pdfrwt>
<pdfrwt beam="2">  1       -1 0.19145023E-01 0.47807514E+03</pdfrwt>
<totfact> 0.10983764E+03</totfact>
</mgrwt>
</event>
<event>
 5    0  0.5719562E-003  0.5100224E+03  0.7546771E-02  0.1011196E+00
          2   -1    0    0  502    0  0.00000000000E+00  0.00000000000E+00  0.22627835502E+03  0.22627835502E+03  0.00000000000E+00 0. -1.
         -2   -1    0    0    0  501 -0.00000000000E+00 -0.00000000000E+00 -0.28739254164E+03  0.28739254164E+03  0.00000000000E+00 0.  1.
         25    1    1    2    0    0 -0.15179797556E+03  0.14894494173E+03 -0.42127190488E+02  0.25025371372E+03  0.12500000000E+03 0.  0.
          2    1    1    2  502    0  0.79061581092E+01 -0.66879901710E+02 -0.62788534864E+02  0.92075125301E+02  0.00000000000E+00 0.  1.
         -2    1    1    2    0  501  0.14389181745E+03 -0.82065040025E+02  0.43801538735E+02  0.17134205764E+03  0.00000000000E+00 0. -1.
<mgrwt>
<rscale>  4 0.51002240E+03</rscale>
<asrwt>0</asrwt>
<pdfrwt beam="1">  1        2 0.34812055E-01 0.51002240E+03</pdfrwt>
<pdfrwt beam="2">  1       -2 0.44214237E-01 0.51002240E+03</pdfrwt>
<totfact> 0.73366579E+02</totfact>
</mgrwt>
</event>
<event>
 5    0  0.5719562E-003  0.6475326E+03  0.7546771E-02  0.9811420E-01
         -1   -1    0    0    0  501 -0.00000000000E+00  0.00000000000E+00  0.12528095369E+03  0.12528095369E+03  0.00000000000E+00 0. -1.
          1   -1    0    0  502    0  0.00000000000E+00 -0.00000000000E+00 -0.83671633391E+03  0.83671633391E+03  0.00000000000E+00 0.  1.
         25    1    1    2    0    0  0.20689432421E+03 -0.10159806021E+03 -0.56947931516E+03  0.62694426995E+03  0.12500000000E+03 0.  0.
          2    1    1    2  502    0 -0.14084276764E+03 -0.40025929174E+02 -0.80870215123E+02  0.16726850240E+03  0.00000000000E+00 0.  1.
         -2    1    1    2    0  501 -0.66051556570E+02  0.14162398938E+03 -0.61085849940E+02  0.16778451525E+03  0.00000000000E+00 0. -1.
<mgrwt>
<rscale>  4 0.64753261E+03</rscale>
<asrwt>0</asrwt>
<pdfrwt beam="1">  1        1 0.12872560E+00 0.64753261E+03</pdfrwt>
<pdfrwt beam="2">  1       -1 0.19273992E-01 0.64753261E+03</pdfrwt>
<totfact> 0.45240199E+02</totfact>
</mgrwt>
</event>
<event>
 5    0  0.5719562E-003  0.6419302E+03  0.7546771E-02  0.9822041E-01
         -2   -1    0    0    0  501 -0.00000000000E+00  0.00000000000E+00  0.14792777757E+03  0.14792777757E+03  0.00000000000E+00 0. -1.
          2   -1    0    0  502    0  0.00000000000E+00 -0.00000000000E+00 -0.69641139316E+03  0.69641139316E+03  0.00000000000E+00 0.  1.
         25    1    1    2    0    0 -0.16122667405E+03 -0.23501944458E+03 -0.35351174518E+03  0.47098167028E+03  0.12500000000E+03 0.  0.
          2    1    1    2  502    0  0.10664557656E+03  0.22035086520E+03 -0.20069081134E+03  0.31655107732E+03  0.00000000000E+00 0. -1.
         -2    1    1    2    0  501  0.54581097489E+02  0.14668579380E+02  0.57189409191E+01  0.56806423135E+02  0.00000000000E+00 0.  1.
<mgrwt>
<rscale>  4 0.64193018E+03</rscale>
<asrwt>0</asrwt>
<pdfrwt beam="1">  1        2 0.10714022E+00 0.64193018E+03</pdfrwt>
<pdfrwt beam="2">  1       -2 0.22758119E-01 0.64193018E+03</pdfrwt>
<totfact> 0.70391918E+02</totfact>
</mgrwt>
</event>
<event>
 5    0  0.5719562E-003  0.8455575E+03  0.7546771E-02  0.9496319E-01
         -1   -1    0    0    0  501 -0.00000000000E+00  0.00000000000E+00  0.27678028128E+03  0.27678028128E+03  0.00000000000E+00 0.  1.
          1   -1    0    0  502    0  0.00000000000E+00 -0.00000000000E+00 -0.64578974557E+03  0.64578974557E+03  0.00000000000E+00 0. -1.
         25    1    1    2    0    0  0.34378170773E+03  0.12996093814E+02 -0.12289368237E+03  0.38611218343E+03  0.12500000000E+03 0.  0.
          2    1    1    2  502    0 -0.14090381585E+03 -0.16933855780E+03 -0.12240507269E+03  0.25201673416E+03  0.00000000000E+00 0. -1.
         -2    1    1    2    0  501 -0.20287789188E+03  0.15634246398E+03 -0.12371070922E+03  0.28444110926E+03  0.00000000000E+00 0.  1.
<mgrwt>
<rscale>  4 0.84555749E+03</rscale>
<asrwt>0</asrwt>
<pdfrwt beam="1">  1        1 0.99352268E-01 0.84555749E+03</pdfrwt>
<pdfrwt beam="2">  1       -1 0.42581582E-01 0.84555749E+03</pdfrwt>
<totfact> 0.16846258E+02</totfact>
</mgrwt>
</event>
<event>
 5    0  0.5719562E-003  0.6635221E+03  0.7546771E-02  0.9781732E-01
          1   -1    0    0  502    0  0.00000000000E+00  0.00000000000E+00  0.15996393170E+04  0.15996393170E+04  0.00000000000E+00 0.  1.
         -1   -1    0    0    0  501 -0.00000000000E+00 -0.00000000000E+00 -0.68806391079E+02  0.68806391079E+02  0.00000000000E+00 0. -1.
         25    1    1    2    0    0 -0.57411764540E+02  0.30903158964E+03  0.68922543310E+03  0.76775864159E+03  0.12500000000E+03 0.  0.
          1    1    1    2  502    0  0.18895496471E+02 -0.18253566512E+02  0.49953023789E+02  0.56440562213E+02  0.00000000000E+00 0. -1.
         -1    1    1    2    0  501  0.38516268069E+02 -0.29077802313E+03  0.79165446902E+03  0.84424650426E+03  0.00000000000E+00 0.  1.
<mgrwt>
<rscale>  4 0.66352214E+03</rscale>
<asrwt>0</asrwt>
<pdfrwt beam="1">  1        1 0.24609833E+00 0.66352214E+03</pdfrwt>
<pdfrwt beam="2">  1       -1 0.10585600E-01 0.66352214E+03</pdfrwt>
<totfact> 0.33020010E+02</totfact>
</mgrwt>
</event>
<event>
 5    0  0.5719562E-003  0.4561976E+03  0.7546771E-02  0.1025890E+00
         -4   -1    0    0    0  501 -0.00000000000E+00  0.00000000000E+00  0.40908658411E+03  0.40908658411E+03  0.00000000000E+00 0.  1.
          4   -1    0    0  502    0  0.00000000000E+00 -0.00000000000E+00 -0.12718348270E+03  0.12718348270E+03  0.00000000000E+00 0. -1.
         25    1    1    2    0    0  0.12953815853E+03 -0.16117835228E+03  0.15061229414E+03  0.28472382918E+03  0.12500000000E+03 0.  0.
          4    1    1    2  502    0 -0.79632142894E+02  0.64442239104E+02  0.41836772162E+02  0.11065439832E+03  0.00000000000E+00 0. -1.
         -4    1    1    2    0  501 -0.49906015634E+02  0.96736113175E+02  0.89454035103E+02  0.14089183931E+03  0.00000000000E+00 0.  1.
<mgrwt>
<rscale>  4 0.45619757E+03</rscale>
<asrwt>0</asrwt>
<pdfrwt beam="1">  1        4 0.19566690E-01 0.45619757E+03</pdfrwt>
<pdfrwt beam="2">  1       -4 0.62936397E-01 0.45619757E+03</pdfrwt>
<totfact> 0.10983380E+02</totfact>
</mgrwt>
</event>
<event>
 5    0  0.5719562E-003  0.5656121E+03  0.7546771E-02  0.9979436E-01
         -2   -1    0    0    0  501 -0.00000000000E+00  0.00000000000E+00  0.56535191894E+03  0.56535191894E+03  0.00000000000E+00 0.  1.
          2   -1    0    0  502    0  0.00000000000E+00 -0.00000000000E+00 -0.14146809158E+03  0.14146809158E+03  0.00000000000E+00 0. -1.
         25    1    1    2    0    0  0.13578136716E+03 -0.18125758501E+03  0.44220226035E+02  0.26243345858E+03  0.12500000000E+03 0.  0.
          2    1    1    2  502    0 -0.59673019060E+02  0.46814212670E+02  0.11021067138E+03  0.13378651575E+03  0.00000000000E+00 0. -1.
         -2    1    1    2    0  501 -0.76108348101E+02  0.13444337234E+03  0.26945292995E+03  0.31060003618E+03  0.00000000000E+00 0.  1.
<mgrwt>
<rscale>  4 0.56561208E+03</rscale>
<asrwt>0</asrwt>
<pdfrwt beam="1">  1        2 0.21764322E-01 0.56561208E+03</pdfrwt>
<pdfrwt beam="2">  1       -2 0.86977217E-01 0.56561208E+03</pdfrwt>
<totfact> 0.29753267E+02</totfact>
</mgrwt>
</event>
<event>
 5    0  0.5719562E-003  0.8245331E+03  0.7546771E-02  0.9525170E-01
         -2   -1    0    0    0  501 -0.00000000000E+00  0.00000000000E+00  0.39112151947E+02  0.39112151947E+02  0.00000000000E+00 0.  1.
          2   -1    0    0  502    0  0.00000000000E+00 -0.00000000000E+00 -0.43455476428E+04  0.43455476428E+04  0.00000000000E+00 0. -1.
         25    1    1    2    0    0 -0.24992438128E+03  0.59137582174E+02 -0.35202757706E+04  0.35318445537E+04  0.12500000000E+03 0.  0.
          3    1    1    2  502    0  0.20496075461E+02 -0.87169008797E+02 -0.32304605453E+03  0.33522720438E+03  0.00000000000E+00 0. -1.
         -3    1    1    2    0  501  0.22942830582E+03  0.28031426622E+02 -0.46311366568E+03  0.51758803670E+03  0.00000000000E+00 0.  1.
<mgrwt>
<rscale>  4 0.82453313E+03</rscale>
<asrwt>0</asrwt>
<pdfrwt beam="1">  1        2 0.66854588E+00 0.82453313E+03</pdfrwt>
<pdfrwt beam="2">  1       -2 0.60172533E-02 0.82453313E+03</pdfrwt>
<totfact> 0.29514896E+01</totfact>
</mgrwt>
</event>
<event>
 5    0  0.5719562E-003  0.4916054E+03  0.7546771E-02  0.1015994E+00
         -1   -1    0    0    0  501 -0.00000000000E+00  0.00000000000E+00  0.85427057902E+03  0.85427057902E+03  0.00000000000E+00 0. -1.
          1   -1    0    0  502    0  0.00000000000E+00 -0.00000000000E+00 -0.70725806599E+02  0.70725806599E+02  0.00000000000E+00 0.  1.
         25    1    1    2    0    0 -0.11126458347E+03 -0.18128846105E+03  0.32477705076E+03  0.40786081737E+03  0.12500000000E+03 0.  0.
          4    1    1    2  502    0  0.18798728724E+02  0.63123401144E+02  0.25930766413E+03  0.26754143726E+03  0.00000000000E+00 0.  1.
         -4    1    1    2    0  501  0.92465854744E+02  0.11816505990E+03  0.19946005754E+03  0.24959413100E+03  0.00000000000E+00 0. -1.
<mgrwt>
<rscale>  4 0.49160543E+03</rscale>
<asrwt>0</asrwt>
<pdfrwt beam="1">  1        1 0.10880894E-01 0.49160543E+03</pdfrwt>
<pdfrwt beam="2">  1       -1 0.13142624E+00 0.49160543E+03</pdfrwt>
<totfact> 0.30121783E+02</totfact>
</mgrwt>
</event>
<event>
 5    0  0.5719562E-003  0.5134339E+03  0.7546771E-02  0.1010331E+00
          1   -1    0    0  502    0  0.00000000000E+00  0.00000000000E+00  0.23575878080E+04  0.23575878080E+04  0.00000000000E+00 0.  1.
         -1   -1    0    0    0  501 -0.00000000000E+00 -0.00000000000E+00 -0.27953817981E+02  0.27953817981E+02  0.00000000000E+00 0. -1.
         25    1    1    2    0    0  0.20739700944E+03 -0.47276352700E+02  0.17499094487E+04  0.17672172056E+04  0.12500000000E+03 0.  0.
          3    1    1    2  502    0 -0.18252245049E+03  0.34168062415E+02  0.47852286113E+03  0.51328942133E+03  0.00000000000E+00 0. -1.
         -3    1    1    2    0  501 -0.24874558945E+02  0.13108290285E+02  0.10120168019E+03  0.10503499907E+03  0.00000000000E+00 0.  1.
<mgrwt>
<rscale>  4 0.51343385E+03</rscale>
<asrwt>0</asrwt>
<pdfrwt beam="1">  1        1 0.36270566E+00 0.51343385E+03</pdfrwt>
<pdfrwt beam="2">  1       -1 0.43005892E-02 0.51343385E+03</pdfrwt>
<totfact> 0.42117922E+02</totfact>
</mgrwt>
</event>
<event>
 5    0  0.5719562E-003  0.5176243E+03  0.7546771E-02  0.1009278E+00
          2   -1    0    0  502    0  0.00000000000E+00  0.00000000000E+00  0.87112139344E+03  0.87112139344E+03  0.00000000000E+00 0.  1.
         -2   -1    0    0    0  501 -0.00000000000E+00 -0.00000000000E+00 -0.76893665524E+02  0.76893665524E+02  0.00000000000E+00 0. -1.
         25    1    1    2    0    0 -0.14373788827E+03 -0.18731256589E+03  0.51371220155E+03  0.57902660032E+03  0.12500000000E+03 0.  0.
          1    1    1    2  502    0  0.12241885089E+03  0.15957778218E+03  0.25899386243E+03  0.32791655096E+03  0.00000000000E+00 0. -1.
         -1    1    1    2    0  501  0.21319037372E+02  0.27734783706E+02  0.21521663944E+02  0.41071907682E+02  0.00000000000E+00 0.  1.
<mgrwt>
<rscale>  4 0.51762425E+03</rscale>
<asrwt>0</asrwt>
<pdfrwt beam="1">  1        2 0.13401867E+00 0.51762425E+03</pdfrwt>
<pdfrwt beam="2">  1       -2 0.11829795E-01 0.51762425E+03</pdfrwt>
<totfact> 0.16060205E+03</totfact>
</mgrwt>
</event>
<event>
 5    0  0.5719562E-003  0.6551252E+03  0.7546771E-02  0.9797209E-01
         -2   -1    0    0    0  501 -0.00000000000E+00  0.00000000000E+00  0.13317104998E+03  0.13317104998E+03  0.00000000000E+00 0. -1.
          2   -1    0    0  502    0  0.00000000000E+00 -0.00000000000E+00 -0.80571002592E+03  0.80571002592E+03  0.00000000000E+00 0.  1.
         25    1    1    2    0    0  0.11407144738E+03 -0.18565751531E+03 -0.18953119122E+03  0.31468727420E+03  0.12500000000E+03 0.  0.
          2    1    1    2  502    0  0.47899732258E+02  0.14127205870E+03 -0.46119847959E+02  0.15613846193E+03  0.00000000000E+00 0. -1.
         -2    1    1    2    0  501 -0.16197117964E+03  0.44385456614E+02 -0.43688793677E+03  0.46805533977E+03  0.00000000000E+00 0.  1.
<mgrwt>
<rscale>  4 0.65512518E+03</rscale>
<asrwt>0</asrwt>
<pdfrwt beam="1">  1        2 0.12395539E+00 0.65512518E+03</pdfrwt>
<pdfrwt beam="2">  1       -2 0.20487854E-01 0.65512518E+03</pdfrwt>
<totfact> 0.70206024E+02</totfact>
</mgrwt>
</event>
<event>
 5    0  0.5719562E-003  0.7077149E+03  0.7546771E-02  0.9704129E-01
         -3   -1    0    0    0  501 -0.00000000000E+00  0.00000000000E+00  0.23263695319E+03  0.23263695319E+03  0.00000000000E+00 0. -1.
          3   -1    0    0  502    0  0.00000000000E+00 -0.00000000000E+00 -0.53824245364E+03  0.53824245364E+03  0.00000000000E+00 0.  1.
         25    1    1    2    0    0 -0.88646624095E+02 -0.25341754440E+03 -0.10161074372E+03  0.31309490417E+03  0.12500000000E+03 0.  0.
          2    1    1    2  502    0  0.18693763187E+03  0.11424841395E+03 -0.42781149383E+02  0.22322321797E+03  0.00000000000E+00 0. -1.
         -2    1    1    2    0  501 -0.98291007776E+02  0.13916913046E+03 -0.16121360735E+03  0.23456128469E+03  0.00000000000E+00 0.  1.
<mgrwt>
<rscale>  4 0.70771487E+03</rscale>
<asrwt>0</asrwt>
<pdfrwt beam="1">  1        3 0.82806531E-01 0.70771487E+03</pdfrwt>
<pdfrwt beam="2">  1       -3 0.35790301E-01 0.70771487E+03</pdfrwt>
<totfact> 0.27445905E+01</totfact>
</mgrwt>
</event>
<event>
 5    0  0.5719562E-003  0.8250872E+03  0.7546771E-02  0.9524398E-01
         -2   -1    0    0    0  501 -0.00000000000E+00  0.00000000000E+00  0.37061272727E+03  0.37061272727E+03  0.00000000000E+00 0. -1.
          2   -1    0    0  502    0  0.00000000000E+00 -0.00000000000E+00 -0.45921847363E+03  0.45921847363E+03  0.00000000000E+00 0.  1.
         25    1    1    2    0    0  0.35299058405E+02 -0.20807182366E+03 -0.34774936910E+03  0.42555203094E+03  0.12500000000E+03 0.  0.
          2    1    1    2  502    0 -0.60955126038E+02 -0.98728357225E+01 -0.37103045880E+01  0.61860865138E+02  0.00000000000E+00 0.  1.
         -2    1    1    2    0  501  0.25656067633E+02  0.21794465938E+03  0.26285392734E+03  0.34241830482E+03  0.00000000000E+00 0. -1.
<mgrwt>
<rscale>  4 0.82508717E+03</rscale>
<asrwt>0</asrwt>
<pdfrwt beam="1">  1        2 0.70648996E-01 0.82508717E+03</pdfrwt>
<pdfrwt beam="2">  1       -2 0.57017343E-01 0.82508717E+03</pdfrwt>
<totfact> 0.19725170E+02</totfact>
</mgrwt>
</event>
<event>
 5    0  0.5719562E-003  0.5034482E+03  0.7546771E-02  0.1012883E+00
         -2   -1    0    0    0  501 -0.00000000000E+00  0.00000000000E+00  0.25740419315E+02  0.25740419315E+02  0.00000000000E+00 0. -1.
          2   -1    0    0  502    0  0.00000000000E+00 -0.00000000000E+00 -0.24616935333E+04  0.24616935333E+04  0.00000000000E+00 0.  1.
         25    1    1    2    0    0 -0.13358058846E+03  0.18980330559E+03 -0.12556331908E+04  0.12830077078E+04  0.12500000000E+03 0.  0.
          2    1    1    2  502    0  0.10120436472E+03 -0.92545351274E+02 -0.65638187008E+03  0.67055508711E+03  0.00000000000E+00 0. -1.
         -2    1    1    2    0  501  0.32376223739E+02 -0.97257954318E+02 -0.52393805306E+03  0.53387115767E+03  0.00000000000E+00 0.  1.
<mgrwt>
<rscale>  4 0.50344820E+03</rscale>
<asrwt>0</asrwt>
<pdfrwt beam="1">  1        2 0.37872211E+00 0.50344820E+03</pdfrwt>
<pdfrwt beam="2">  1       -2 0.39600642E-02 0.50344820E+03</pdfrwt>
<totfact> 0.11455120E+03</totfact>
</mgrwt>
</event>
<event>
 5    0  0.5719562E-003  0.5277448E+03  0.7546771E-02  0.1006781E+00
          1   -1    0    0  502    0  0.00000000000E+00  0.00000000000E+00  0.15959583341E+03  0.15959583341E+03  0.00000000000E+00 0.  1.
         -1   -1    0    0    0  501 -0.00000000000E+00 -0.00000000000E+00 -0.43628102412E+03  0.43628102412E+03  0.00000000000E+00 0. -1.
         25    1    1    2    0    0 -0.22409338168E+03  0.13714464236E+02 -0.30721367737E+02  0.25879476942E+03  0.12500000000E+03 0.  0.
          4    1    1    2  502    0  0.10889650931E+03 -0.15086072270E+01 -0.15674382415E+03  0.19086474804E+03  0.00000000000E+00 0.  1.
         -4    1    1    2    0  501  0.11519687237E+03 -0.12205857009E+02 -0.89219998821E+02  0.14621734008E+03  0.00000000000E+00 0. -1.
<mgrwt>
<rscale>  4 0.52774476E+03</rscale>
<asrwt>0</asrwt>
<pdfrwt beam="1">  1        1 0.24553206E-01 0.52774476E+03</pdfrwt>
<pdfrwt beam="2">  1       -1 0.67120156E-01 0.52774476E+03</pdfrwt>
<totfact> 0.45537170E+02</totfact>
</mgrwt>
</event>
<event>
 5    0  0.5719562E-003  0.5009333E+03  0.7546771E-02  0.1013536E+00
          3   -1    0    0  502    0  0.00000000000E+00  0.00000000000E+00  0.29819960443E+03  0.29819960443E+03  0.00000000000E+00 0.  1.
         -3   -1    0    0    0  501 -0.00000000000E+00 -0.00000000000E+00 -0.21037437432E+03  0.21037437432E+03  0.00000000000E+00 0. -1.
         25    1    1    2    0    0 -0.12793243175E+03  0.15942886942E+03  0.56199115447E+02  0.24610488024E+03  0.12500000000E+03 0.  0.
          1    1    1    2  502    0  0.60142565717E+02 -0.48662613526E+02  0.91199240526E+02  0.11959297487E+03  0.00000000000E+00 0.  1.
         -1    1    1    2    0  501  0.67789866030E+02 -0.11076625590E+03 -0.59573125867E+02  0.14287612364E+03  0.00000000000E+00 0. -1.
<mgrwt>
<rscale>  4 0.50093335E+03</rscale>
<asrwt>0</asrwt>
<pdfrwt beam="1">  1        3 0.45876862E-01 0.50093335E+03</pdfrwt>
<pdfrwt beam="2">  1       -3 0.32365288E-01 0.50093335E+03</pdfrwt>
<totfact> 0.11554533E+02</totfact>
</mgrwt>
</event>
<event>
 5    0  0.5719562E-003  0.7274211E+03  0.7546771E-02  0.9671454E-01
         -1   -1    0    0    0  501 -0.00000000000E+00  0.00000000000E+00  0.27639607275E+03  0.27639607275E+03  0.00000000000E+00 0. -1.
          1   -1    0    0  502    0  0.00000000000E+00 -0.00000000000E+00 -0.47860796324E+03  0.47860796324E+03  0.00000000000E+00 0.  1.
         25    1    1    2    0    0  0.21925273719E+03 -0.24296128980E+03  0.15649292261E+01  0.35032756116E+03  0.12500000000E+03 0.  0.
          3    1    1    2  502    0 -0.13651915204E+02  0.69365994028E+02 -0.64452554589E+01  0.70989838950E+02  0.00000000000E+00 0. -1.
         -3    1    1    2    0  501 -0.20560082198E+03  0.17359529577E+03 -0.19733156425E+03  0.33368663588E+03  0.00000000000E+00 0.  1.
<mgrwt>
<rscale>  4 0.72742109E+03</rscale>
<asrwt>0</asrwt>
<pdfrwt beam="1">  1        1 0.73631993E-01 0.72742109E+03</pdfrwt>
<pdfrwt beam="2">  1       -1 0.42522473E-01 0.72742109E+03</pdfrwt>
<totfact> 0.25940054E+02</totfact>
</mgrwt>
</event>
<event>
 5    0  0.5719562E-003  0.4446770E+03  0.7546771E-02  0.1029321E+00
         -1   -1    0    0    0  501 -0.00000000000E+00  0.00000000000E+00  0.12034955935E+04  0.12034955935E+04  0.00000000000E+00 0. -1.
          1   -1    0    0  502    0  0.00000000000E+00 -0.00000000000E+00 -0.41075683449E+02  0.41075683449E+02  0.00000000000E+00 0.  1.
         25    1    1    2    0    0 -0.17631529412E+03  0.94526088247E+02  0.53851689834E+03  0.58791811854E+03  0.12500000000E+03 0.  0.
          2    1    1    2  502    0  0.36372826962E+02 -0.37855405254E+02  0.13039227962E+03  0.14056372516E+03  0.00000000000E+00 0.  1.
         -2    1    1    2    0  501  0.13994246716E+03 -0.56670682993E+02  0.49351073214E+03  0.51608943329E+03  0.00000000000E+00 0. -1.
<mgrwt>
<rscale>  4 0.44467698E+03</rscale>
<asrwt>0</asrwt>
<pdfrwt beam="1">  1        1 0.63193368E-02 0.44467698E+03</pdfrwt>
<pdfrwt beam="2">  1       -1 0.18515314E+00 0.44467698E+03</pdfrwt>
<totfact> 0.25142268E+02</totfact>
</mgrwt>
</event>
<event>
 5    0  0.5719562E-003  0.5679993E+03  0.7546771E-02  0.9974116E-01
         -1   -1    0    0    0  501 -0.00000000000E+00  0.00000000000E+00  0.28810894556E+03  0.28810894556E+03  0.00000000000E+00 0.  1.
          1   -1    0    0  502    0  0.00000000000E+00 -0.00000000000E+00 -0.27994893563E+03  0.27994893563E+03  0.00000000000E+00 0. -1.
         25    1    1    2    0    0 -0.17421132208E+03 -0.17755284292E+03  0.94660337952E+02  0.29404111337E+03  0.12500000000E+03 0.  0.
          2    1    1    2  502    0  0.91051931076E+02  0.12433832381E+03 -0.83419048476E+02  0.17524043645E+03  0.00000000000E+00 0. -1.
         -2    1    1    2    0  501  0.83159391005E+02  0.53214519108E+02 -0.30812795469E+01  0.98776331374E+02  0.00000000000E+00 0.  1.
<mgrwt>
<rscale>  4 0.56799927E+03</rscale>
<asrwt>0</asrwt>
<pdfrwt beam="1">  1        1 0.43069067E-01 0.56799927E+03</pdfrwt>
<pdfrwt beam="2">  1       -1 0.44324453E-01 0.56799927E+03</pdfrwt>
<totfact> 0.48894243E+02</totfact>
</mgrwt>
</event>
<event>
 5    0  0.5719562E-003  0.4947809E+03  0.7546771E-02  0.1015150E+00
          1   -1    0    0  502    0  0.00000000000E+00  0.00000000000E+00  0.34838100667E+02  0.34838100667E+02  0.00000000000E+00 0.  1.
         -1   -1    0    0    0  501 -0.00000000000E+00 -0.00000000000E+00 -0.17567560218E+04  0.17567560218E+04  0.00000000000E+00 0. -1.
         25    1    1    2    0    0 -0.90865259493E+02  0.19466048830E+03 -0.84082119129E+03  0.87678644881E+03  0.12500000000E+03 0.  0.
          3    1    1    2  502    0  0.81568878497E+02 -0.12927435255E+03 -0.38339799970E+03  0.41274612820E+03  0.00000000000E+00 0.  1.
         -3    1    1    2    0  501  0.92963809962E+01 -0.65386135747E+02 -0.49769873015E+03  0.50206154547E+03  0.00000000000E+00 0. -1.
<mgrwt>
<rscale>  4 0.49478093E+03</rscale>
<asrwt>0</asrwt>
<pdfrwt beam="1">  1        1 0.53597084E-02 0.49478093E+03</pdfrwt>
<pdfrwt beam="2">  1       -1 0.27027013E+00 0.49478093E+03</pdfrwt>
<totfact> 0.87336187E+01</totfact>
</mgrwt>
</event>
<event>
 5    0  0.5719562E-003  0.8457718E+03  0.7546771E-02  0.9496030E-01
         -2   -1    0    0    0  501 -0.00000000000E+00  0.00000000000E+00  0.90061059557E+02  0.90061059557E+02  0.00000000000E+00 0. -1.
          2   -1    0    0  502    0  0.00000000000E+00 -0.00000000000E+00 -0.19856803067E+04  0.19856803067E+04  0.00000000000E+00 0.  1.
         25    1    1    2    0    0 -0.58428687496E+02  0.35197065167E+03 -0.14005425986E+04  0.14506694391E+04  0.12500000000E+03 0.  0.
          1    1    1    2  502    0 -0.18735574664E+02 -0.22617916342E+03 -0.23951742411E+03  0.32996459231E+03  0.00000000000E+00 0. -1.
         -1    1    1    2    0  501  0.77164262160E+02 -0.12579148825E+03 -0.25555922445E+03  0.29510733484E+03  0.00000000000E+00 0.  1.
<mgrwt>
<rscale>  4 0.84577177E+03</rscale>
<asrwt>0</asrwt>
<pdfrwt beam="1">  1        2 0.30548928E+00 0.84577177E+03</pdfrwt>
<pdfrwt beam="2">  1       -2 0.13855548E-01 0.84577177E+03</pdfrwt>
<totfact> 0.27685036E+02</totfact>
</mgrwt>
</event>
<event>
 5    0  0.5719562E-003  0.5476294E+03  0.7546771E-02  0.1002044E+00
         -1   -1    0    0    0  501 -0.00000000000E+00  0.00000000000E+00  0.12666219583E+03  0.12666219583E+03  0.00000000000E+00 0. -1.
          1   -1    0    0  502    0  0.00000000000E+00 -0.00000000000E+00 -0.59192478418E+03  0.59192478418E+03  0.00000000000E+00 0.  1.
         25    1    1    2    0    0 -0.16007038454E+03  0.19624230779E+03 -0.18147589920E+03  0.33569640058E+03  0.12500000000E+03 0.  0.
          2    1    1    2  502    0  0.11550872608E+03 -0.15871419855E+03 -0.23976197848E+03  0.30986814768E+03  0.00000000000E+00 0.  1.
         -2    1    1    2    0  501  0.44561658454E+02 -0.37528109246E+02 -0.44024710671E+02  0.73022431741E+02  0.00000000000E+00 0. -1.
<mgrwt>
<rscale>  4 0.54762941E+03</rscale>
<asrwt>0</asrwt>
<pdfrwt beam="1">  1        1 0.91065348E-01 0.54762941E+03</pdfrwt>
<pdfrwt beam="2">  1       -1 0.19486492E-01 0.54762941E+03</pdfrwt>
<totfact> 0.75178988E+02</totfact>
</mgrwt>
</event>
<event>
 5    0  0.5719562E-003  0.5908448E+03  0.7546771E-02  0.9924584E-01
         -1   -1    0    0    0  501 -0.00000000000E+00  0.00000000000E+00  0.11234374169E+03  0.11234374169E+03  0.00000000000E+00 0. -1.
          1   -1    0    0  502    0  0.00000000000E+00 -0.00000000000E+00 -0.77685128223E+03  0.77685128223E+03  0.00000000000E+00 0.  1.
         25    1    1    2    0    0 -0.11849260756E+03  0.16627960688E+03 -0.15818718680E+03  0.28694527663E+03  0.12500000000E+03 0.  0.
          3    1    1    2  502    0  0.88630512453E+02  0.12397658884E+02 -0.32893348007E+02  0.95346956042E+02  0.00000000000E+00 0. -1.
         -3    1    1    2    0  501  0.29862095105E+02 -0.17867726576E+03 -0.47342700573E+03  0.50690279125E+03  0.00000000000E+00 0.  1.
<mgrwt>
<rscale>  4 0.59084475E+03</rscale>
<asrwt>0</asrwt>
<pdfrwt beam="1">  1        1 0.11951559E+00 0.59084475E+03</pdfrwt>
<pdfrwt beam="2">  1       -1 0.17283652E-01 0.59084475E+03</pdfrwt>
<totfact> 0.61065274E+02</totfact>
</mgrwt>
</event>
<event>
 5    0  0.5719562E-003  0.4721628E+03  0.7546771E-02  0.1021312E+00
         -2   -1    0    0    0  501 -0.00000000000E+00  0.00000000000E+00  0.28913196485E+03  0.28913196485E+03  0.00000000000E+00 0. -1.
          2   -1    0    0  502    0  0.00000000000E+00 -0.00000000000E+00 -0.19276464100E+03  0.19276464100E+03  0.00000000000E+00 0.  1.
         25    1    1    2    0    0  0.13629330036E+03  0.15709993126E+03  0.14748010506E+02  0.24310235692E+03  0.12500000000E+03 0.  0.
          1    1    1    2  502    0 -0.60150822433E+02 -0.12788596783E+03  0.65030959944E+02  0.15556981699E+03  0.00000000000E+00 0. -1.
         -1    1    1    2    0  501 -0.76142477925E+02 -0.29213963435E+02  0.16588353400E+02  0.83224431946E+02  0.00000000000E+00 0.  1.
<mgrwt>
<rscale>  4 0.47216277E+03</rscale>
<asrwt>0</asrwt>
<pdfrwt beam="1">  1        2 0.29656099E-01 0.47216277E+03</pdfrwt>
<pdfrwt beam="2">  1       -2 0.44481841E-01 0.47216277E+03</pdfrwt>
<totfact> 0.86666376E+02</totfact>
</mgrwt>
</event>
<event>
 5    0  0.5719562E-003  0.1008694E+04  0.7546771E-02  0.9299060E-01
          1   -1    0    0  502    0  0.00000000000E+00  0.00000000000E+00  0.17957039104E+04  0.17957039104E+04  0.00000000000E+00 0. -1.
         -1   -1    0    0    0  501 -0.00000000000E+00 -0.00000000000E+00 -0.14165252157E+03  0.14165252157E+03  0.00000000000E+00 0.  1.
         25    1    1    2    0    0  0.24601054007E+03 -0.40469443094E+03  0.88508072296E+03  0.10115787930E+04  0.12500000000E+03 0.  0.
          2    1    1    2  502    0 -0.19332539275E+03  0.41683123020E+03  0.71062804565E+03  0.84623590164E+03  0.00000000000E+00 0. -1.
         -2    1    1    2    0  501 -0.52685147325E+02 -0.12136799264E+02  0.58342620180E+02  0.79541737311E+02  0.00000000000E+00 0.  1.
<mgrwt>
<rscale>  4 0.10086942E+04</rscale>
<asrwt>0</asrwt>
<pdfrwt beam="1">  1        1 0.27626212E+00 0.10086942E+04</pdfrwt>
<pdfrwt beam="2">  1       -1 0.21792697E-01 0.10086942E+04</pdfrwt>
<totfact> 0.72921355E+01</totfact>
</mgrwt>
</event>
<event>
 5    0  0.5719562E-003  0.5478596E+03  0.7546771E-02  0.1001991E+00
          2   -1    0    0  502    0  0.00000000000E+00  0.00000000000E+00  0.20404590177E+04  0.20404590177E+04  0.00000000000E+00 0. -1.
         -2   -1    0    0    0  501 -0.00000000000E+00 -0.00000000000E+00 -0.36774833518E+02  0.36774833518E+02  0.00000000000E+00 0.  1.
         25    1    1    2    0    0  0.19120773704E+03  0.80167201874E+02  0.10705418228E+04  0.10975754978E+04  0.12500000000E+03 0.  0.
          4    1    1    2  502    0 -0.22692637153E+03 -0.98780233568E+02  0.68652763017E+03  0.72977619832E+03  0.00000000000E+00 0.  1.
         -4    1    1    2    0  501  0.35718634488E+02  0.18613031694E+02  0.24661473121E+03  0.24988215512E+03  0.00000000000E+00 0. -1.
<mgrwt>
<rscale>  4 0.54785962E+03</rscale>
<asrwt>0</asrwt>
<pdfrwt beam="1">  1        2 0.31391668E+00 0.54785962E+03</pdfrwt>
<pdfrwt beam="2">  1       -2 0.56576683E-02 0.54785962E+03</pdfrwt>
<totfact> 0.11198173E+03</totfact>
</mgrwt>
</event>
<event>
 5    0  0.5719562E-003  0.6902415E+03  0.7546771E-02  0.9734068E-01
         -1   -1    0    0    0  501 -0.00000000000E+00  0.00000000000E+00  0.13099146020E+03  0.13099146020E+03  0.00000000000E+00 0. -1.
          1   -1    0    0  502    0  0.00000000000E+00 -0.00000000000E+00 -0.90928317243E+03  0.90928317243E+03  0.00000000000E+00 0.  1.
         25    1    1    2    0    0  0.26206421606E+03 -0.20358333707E+03 -0.40605964460E+03  0.53910413043E+03  0.12500000000E+03 0.  0.
          3    1    1    2  502    0 -0.32341099602E+02  0.23331425484E+02 -0.23327667896E+02  0.46200457012E+02  0.00000000000E+00 0.  1.
         -3    1    1    2    0  501 -0.22972311646E+03  0.18025191159E+03 -0.34890439974E+03  0.45497004519E+03  0.00000000000E+00 0. -1.
<mgrwt>
<rscale>  4 0.69024150E+03</rscale>
<asrwt>0</asrwt>
<pdfrwt beam="1">  1        1 0.13988972E+00 0.69024150E+03</pdfrwt>
<pdfrwt beam="2">  1       -1 0.20152532E-01 0.69024150E+03</pdfrwt>
<totfact> 0.36535401E+02</totfact>
</mgrwt>
</event>
<event>
 5    0  0.5719562E-003  0.5701717E+03  0.7546771E-02  0.9969299E-01
          1   -1    0    0  502    0  0.00000000000E+00  0.00000000000E+00  0.47109584444E+03  0.47109584444E+03  0.00000000000E+00 0.  1.
         -1   -1    0    0    0  501 -0.00000000000E+00 -0.00000000000E+00 -0.17252100549E+03  0.17252100549E+03  0.00000000000E+00 0. -1.
         25    1    1    2    0    0  0.19078586770E+02 -0.22509418928E+03  0.19236875638E+03  0.32196603074E+03  0.12500000000E+03 0.  0.
          2    1    1    2  502    0  0.31366421995E+02  0.12280935276E+03  0.15273300170E+03  0.19847760418E+03  0.00000000000E+00 0.  1.
         -2    1    1    2    0  501 -0.50445008765E+02  0.10228483652E+03 -0.46526919130E+02  0.12317321501E+03  0.00000000000E+00 0. -1.
<mgrwt>
<rscale>  4 0.57017165E+03</rscale>
<asrwt>0</asrwt>
<pdfrwt beam="1">  1        1 0.72476283E-01 0.57017165E+03</pdfrwt>
<pdfrwt beam="2">  1       -1 0.26541693E-01 0.57017165E+03</pdfrwt>
<totfact> 0.61313538E+02</totfact>
</mgrwt>
</event>
<event>
 5    0  0.5719562E-003  0.6798215E+03  0.7546771E-02  0.9752376E-01
          2   -1    0    0  502    0  0.00000000000E+00  0.00000000000E+00  0.11757482592E+04  0.11757482592E+04  0.00000000000E+00 0. -1.
         -2   -1    0    0    0  501 -0.00000000000E+00 -0.00000000000E+00 -0.98268758825E+02  0.98268758825E+02  0.00000000000E+00 0.  1.
         25    1    1    2    0    0  0.17676481913E+03 -0.14901381561E+03  0.12129931871E+03  0.28946406209E+03  0.12500000000E+03 0.  0.
          4    1    1    2  502    0 -0.30333601340E+02  0.32762767977E+02  0.12907351847E+03  0.13657781484E+03  0.00000000000E+00 0. -1.
         -4    1    1    2    0  501 -0.14643121779E+03  0.11625104763E+03  0.82710666320E+03  0.84797514111E+03  0.00000000000E+00 0.  1.
<mgrwt>
<rscale>  4 0.67982151E+03</rscale>
<asrwt>0</asrwt>
<pdfrwt beam="1">  1        2 0.18088434E+00 0.67982151E+03</pdfrwt>
<pdfrwt beam="2">  1       -2 0.15118271E-01 0.67982151E+03</pdfrwt>
<totfact> 0.68370578E+02</totfact>
</mgrwt>
</event>
<event>
 5    0  0.5719562E-003  0.4735382E+03  0.7546771E-02  0.1020926E+00
          2   -1    0    0  502    0  0.00000000000E+00  0.00000000000E+00  0.51009422073E+03  0.51009422073E+03  0.00000000000E+00 0.  1.
         -2   -1    0    0    0  501 -0.00000000000E+00 -0.00000000000E+00 -0.10990049630E+03  0.10990049630E+03  0.00000000000E+00 0. -1.
         25    1    1    2    0    0  0.20144672509E+03 -0.34721306860E+02  0.25773975816E+03  0.35191069199E+03  0.12500000000E+03 0.  0.
          4    1    1    2  502    0 -0.16330020077E+03  0.31986668056E+02  0.15542539165E+03  0.22769970328E+03  0.00000000000E+00 0.  1.
         -4    1    1    2    0  501 -0.38146524328E+02  0.27346388039E+01 -0.12971425377E+02  0.40384321760E+02  0.00000000000E+00 0. -1.
<mgrwt>
<rscale>  4 0.47353821E+03</rscale>
<asrwt>0</asrwt>
<pdfrwt beam="1">  1        2 0.78476033E-01 0.47353821E+03</pdfrwt>
<pdfrwt beam="2">  1       -2 0.16907769E-01 0.47353821E+03</pdfrwt>
<totfact> 0.17135708E+03</totfact>
</mgrwt>
</event>
<event>
 5    0  0.5719562E-003  0.6744514E+03  0.7546771E-02  0.9761950E-01
          2   -1    0    0  502    0  0.00000000000E+00  0.00000000000E+00  0.29996513940E+03  0.29996513940E+03  0.00000000000E+00 0.  1.
         -2   -1    0    0    0  501 -0.00000000000E+00 -0.00000000000E+00 -0.37911464388E+03  0.37911464388E+03  0.00000000000E+00 0. -1.
         25    1    1    2    0    0 -0.16296250154E+03  0.13521419657E+03  0.18883451512E+03  0.31003730415E+03  0.12500000000E+03 0.  0.
          4    1    1    2  502    0 -0.11016727467E+02 -0.49003023932E+02 -0.19940383749E+02  0.54039647876E+02  0.00000000000E+00 0.  1.
         -4    1    1    2    0  501  0.17397922901E+03 -0.86211172636E+02 -0.24804363585E+03  0.31500283126E+03  0.00000000000E+00 0. -1.
<mgrwt>
<rscale>  4 0.67445141E+03</rscale>
<asrwt>0</asrwt>
<pdfrwt beam="1">  1        2 0.46148483E-01 0.67445141E+03</pdfrwt>
<pdfrwt beam="2">  1       -2 0.58325330E-01 0.67445141E+03</pdfrwt>
<totfact> 0.30487434E+02</totfact>
</mgrwt>
</event>
<event>
 5    0  0.5719562E-003  0.5989854E+03  0.7546771E-02  0.9907513E-01
         -3   -1    0    0    0  501 -0.00000000000E+00  0.00000000000E+00  0.38734848145E+03  0.38734848145E+03  0.00000000000E+00 0. -1.
          3   -1    0    0  502    0  0.00000000000E+00 -0.00000000000E+00 -0.23156375123E+03  0.23156375123E+03  0.00000000000E+00 0.  1.
         25    1    1    2    0    0 -0.45629805341E+02  0.21857917828E+03 -0.61993600306E+02  0.26330048005E+03  0.12500000000E+03 0.  0.
          4    1    1    2  502    0  0.29322271289E+01 -0.19225850007E+03  0.23402711967E+03  0.30288714325E+03  0.00000000000E+00 0. -1.
         -4    1    1    2    0  501  0.42697578212E+02 -0.26320678214E+02 -0.16248789143E+02  0.52724609391E+02  0.00000000000E+00 0.  1.
<mgrwt>
<rscale>  4 0.59898537E+03</rscale>
<asrwt>0</asrwt>
<pdfrwt beam="1">  1        3 0.35625192E-01 0.59898537E+03</pdfrwt>
<pdfrwt beam="2">  1       -3 0.59592074E-01 0.59898537E+03</pdfrwt>
<totfact> 0.56418971E+01</totfact>
</mgrwt>
</event>
<event>
 5    0  0.5719562E-003  0.4800144E+03  0.7546771E-02  0.1019131E+00
         -1   -1    0    0    0  501 -0.00000000000E+00  0.00000000000E+00  0.17259232629E+04  0.17259232629E+04  0.00000000000E+00 0. -1.
          1   -1    0    0  502    0  0.00000000000E+00 -0.00000000000E+00 -0.33375442269E+02  0.33375442269E+02  0.00000000000E+00 0.  1.
         25    1    1    2    0    0  0.20453441227E+03 -0.38224960775E+02  0.97583918782E+03  0.10055757524E+04  0.12500000000E+03 0.  0.
          2    1    1    2  502    0 -0.20608230783E+03  0.14196036030E+02  0.60022721569E+03  0.63477882407E+03  0.00000000000E+00 0.  1.
         -2    1    1    2    0  501  0.15478955616E+01  0.24028924745E+02  0.11648141716E+03  0.11894412869E+03  0.00000000000E+00 0. -1.
<mgrwt>
<rscale>  4 0.48001438E+03</rscale>
<asrwt>0</asrwt>
<pdfrwt beam="1">  1        1 0.51346848E-02 0.48001438E+03</pdfrwt>
<pdfrwt beam="2">  1       -1 0.26552659E+00 0.48001438E+03</pdfrwt>
<totfact> 0.99558156E+01</totfact>
</mgrwt>
</event>
<event>
 5    0  0.5719562E-003  0.5630319E+03  0.7546771E-02  0.9985218E-01
          2   -1    0    0  502    0  0.00000000000E+00  0.00000000000E+00  0.12997675602E+04  0.12997675602E+04  0.00000000000E+00 0. -1.
         -2   -1    0    0    0  501 -0.00000000000E+00 -0.00000000000E+00 -0.60973396510E+02  0.60973396510E+02  0.00000000000E+00 0.  1.
         25    1    1    2    0    0  0.76621302535E+02  0.18622174879E+03  0.10117828875E+04  0.10391722548E+04  0.12500000000E+03 0.  0.
          4    1    1    2  502    0 -0.14001505132E+02 -0.12194414329E+03  0.18612650951E+03  0.22295625978E+03  0.00000000000E+00 0. -1.
         -4    1    1    2    0  501 -0.62619797403E+02 -0.64277605498E+02  0.40884766672E+02  0.98612442122E+02  0.00000000000E+00 0.  1.
<mgrwt>
<rscale>  4 0.56303195E+03</rscale>
<asrwt>0</asrwt>
<pdfrwt beam="1">  1        2 0.19996422E+00 0.56303195E+03</pdfrwt>
<pdfrwt beam="2">  1       -2 0.93805235E-02 0.56303195E+03</pdfrwt>
<totfact> 0.12772575E+03</totfact>
</mgrwt>
</event>
<event>
 5    0  0.5719562E-003  0.6498860E+03  0.7546771E-02  0.9806993E-01
          1   -1    0    0  502    0  0.00000000000E+00  0.00000000000E+00  0.20104961089E+03  0.20104961089E+03  0.00000000000E+00 0.  1.
         -1   -1    0    0    0  501 -0.00000000000E+00 -0.00000000000E+00 -0.52518355685E+03  0.52518355685E+03  0.00000000000E+00 0. -1.
         25    1    1    2    0    0 -0.21760318837E+03  0.14926016009E+03 -0.41411302853E+01  0.29201351328E+03  0.12500000000E+03 0.  0.
          3    1    1    2  502    0  0.11094476521E+03 -0.12937373980E+03 -0.25815379156E+03  0.30933749461E+03  0.00000000000E+00 0. -1.
         -3    1    1    2    0  501  0.10665842317E+03 -0.19886420286E+02 -0.61839024117E+02  0.12488215985E+03  0.00000000000E+00 0.  1.
<mgrwt>
<rscale>  4 0.64988599E+03</rscale>
<asrwt>0</asrwt>
<pdfrwt beam="1">  1        1 0.30930709E-01 0.64988599E+03</pdfrwt>
<pdfrwt beam="2">  1       -1 0.80797471E-01 0.64988599E+03</pdfrwt>
<totfact> 0.22915957E+02</totfact>
</mgrwt>
</event>
<event>
 5    0  0.5719562E-003  0.7377261E+03  0.7546771E-02  0.9654805E-01
          2   -1    0    0  502    0  0.00000000000E+00  0.00000000000E+00  0.71774260741E+02  0.71774260741E+02  0.00000000000E+00 0. -1.
         -2   -1    0    0    0  501 -0.00000000000E+00 -0.00000000000E+00 -0.18956649356E+04  0.18956649356E+04  0.00000000000E+00 0.  1.
         25    1    1    2    0    0  0.20578905921E+03 -0.15859892395E+03 -0.84927036987E+03  0.89687675670E+03  0.12500000000E+03 0.  0.
          1    1    1    2  502    0  0.10141582912E+03  0.17296779004E+02 -0.18720285147E+03  0.21361005725E+03  0.00000000000E+00 0.  1.
         -1    1    1    2    0  501 -0.30720488833E+03  0.14130214494E+03 -0.78741745347E+03  0.85695238235E+03  0.00000000000E+00 0. -1.
<mgrwt>
<rscale>  4 0.73772610E+03</rscale>
<asrwt>0</asrwt>
<pdfrwt beam="1">  1        2 0.11042195E-01 0.73772610E+03</pdfrwt>
<pdfrwt beam="2">  1       -2 0.29164074E+00 0.73772610E+03</pdfrwt>
<totfact> 0.21790682E+01</totfact>
</mgrwt>
</event>
<event>
 5    0  0.5719562E-003  0.5790699E+03  0.7546771E-02  0.9949807E-01
         -2   -1    0    0    0  501 -0.00000000000E+00  0.00000000000E+00  0.90820218912E+02  0.90820218912E+02  0.00000000000E+00 0.  1.
          2   -1    0    0  502    0  0.00000000000E+00 -0.00000000000E+00 -0.92303769003E+03  0.92303769003E+03  0.00000000000E+00 0. -1.
         25    1    1    2    0    0 -0.17581371034E+03 -0.12499591146E+03 -0.13879477201E+03  0.28534790583E+03  0.12500000000E+03 0.  0.
          3    1    1    2  502    0  0.17294151899E+02  0.22876231350E+02 -0.16447325880E+03  0.16695467203E+03  0.00000000000E+00 0. -1.
         -3    1    1    2    0  501  0.15851955844E+03  0.10211968011E+03 -0.52894944031E+03  0.56155533109E+03  0.00000000000E+00 0.  1.
<mgrwt>
<rscale>  4 0.57906989E+03</rscale>
<asrwt>0</asrwt>
<pdfrwt beam="1">  1        2 0.14200581E+00 0.57906989E+03</pdfrwt>
<pdfrwt beam="2">  1       -2 0.13972340E-01 0.57906989E+03</pdfrwt>
<totfact> 0.11247755E+03</totfact>
</mgrwt>
</event>
<event>
 5    0  0.5719562E-003  0.5018972E+03  0.7546771E-02  0.1013285E+00
         -2   -1    0    0    0  501 -0.00000000000E+00  0.00000000000E+00  0.23620146916E+03  0.23620146916E+03  0.00000000000E+00 0. -1.
          2   -1    0    0  502    0  0.00000000000E+00 -0.00000000000E+00 -0.26661645546E+03  0.26661645546E+03  0.00000000000E+00 0.  1.
         25    1    1    2    0    0  0.20019425294E+03  0.50159037407E+02 -0.53927229991E+02  0.24723837502E+03  0.12500000000E+03 0.  0.
          4    1    1    2  502    0 -0.19513928946E+02  0.40613489078E+02 -0.19097331579E+02  0.48938297799E+02  0.00000000000E+00 0.  1.
         -4    1    1    2    0  501 -0.18068032400E+03 -0.90772526485E+02  0.42609575274E+02  0.20664125181E+03  0.00000000000E+00 0. -1.
<mgrwt>
<rscale>  4 0.50189719E+03</rscale>
<asrwt>0</asrwt>
<pdfrwt beam="1">  1        2 0.41017916E-01 0.50189719E+03</pdfrwt>
<pdfrwt beam="2">  1       -2 0.36338688E-01 0.50189719E+03</pdfrwt>
<totfact> 0.89505422E+02</totfact>
</mgrwt>
</event>
<event>
 5    0  0.5719562E-003  0.4859720E+03  0.7546771E-02  0.1017507E+00
          1   -1    0    0  502    0  0.00000000000E+00  0.00000000000E+00  0.79554626480E+03  0.79554626480E+03  0.00000000000E+00 0.  1.
         -1   -1    0    0    0  501 -0.00000000000E+00 -0.00000000000E+00 -0.74215923266E+02  0.74215923266E+02  0.00000000000E+00 0. -1.
         25    1    1    2    0    0  0.27227208370E+02 -0.20732122169E+03  0.53437383990E+03  0.58728511867E+03  0.12500000000E+03 0.  0.
          4    1    1    2  502    0  0.34030181044E+01  0.37207685067E+02  0.47187779539E+02  0.60188694105E+02  0.00000000000E+00 0.  1.
         -4    1    1    2    0  501 -0.30630226475E+02  0.17011353662E+03  0.13976872209E+03  0.22228837529E+03  0.00000000000E+00 0. -1.
<mgrwt>
<rscale>  4 0.48597202E+03</rscale>
<asrwt>0</asrwt>
<pdfrwt beam="1">  1        1 0.12239173E+00 0.48597202E+03</pdfrwt>
<pdfrwt beam="2">  1       -1 0.11417835E-01 0.48597202E+03</pdfrwt>
<totfact> 0.11495334E+03</totfact>
</mgrwt>
</event>
<event>
 5    0  0.5719562E-003  0.5843006E+03  0.7546771E-02  0.9938523E-01
         -2   -1    0    0    0  501 -0.00000000000E+00  0.00000000000E+00  0.49739964033E+02  0.49739964033E+02  0.00000000000E+00 0.  1.
          2   -1    0    0  502    0  0.00000000000E+00 -0.00000000000E+00 -0.17159602406E+04  0.17159602406E+04  0.00000000000E+00 0. -1.
         25    1    1    2    0    0  0.20346860812E+03  0.15223443465E+03 -0.58455742759E+03  0.64954382742E+03  0.12500000000E+03 0.  0.
          4    1    1    2  502    0 -0.10762221431E+03 -0.14091983943E+03 -0.64289688527E+03  0.66690130248E+03  0.00000000000E+00 0.  1.
         -4    1    1    2    0  501 -0.95846393810E+02 -0.11314595219E+02 -0.43876596373E+03  0.44925507476E+03  0.00000000000E+00 0. -1.
<mgrwt>
<rscale>  4 0.58430061E+03</rscale>
<asrwt>0</asrwt>
<pdfrwt beam="1">  1        2 0.26399384E+00 0.58430061E+03</pdfrwt>
<pdfrwt beam="2">  1       -2 0.76523034E-02 0.58430061E+03</pdfrwt>
<totfact> 0.10404352E+03</totfact>
</mgrwt>
</event>
<event>
 5    0  0.5719562E-003  0.6635847E+03  0.7546771E-02  0.9781617E-01
          1   -1    0    0  502    0  0.00000000000E+00  0.00000000000E+00  0.29551131969E+04  0.29551131969E+04  0.00000000000E+00 0.  1.
         -1   -1    0    0    0  501 -0.00000000000E+00 -0.00000000000E+00 -0.37252779412E+02  0.37252779412E+02  0.00000000000E+00 0. -1.
         25    1    1    2    0    0 -0.16582839082E+03  0.22427420816E+03  0.85422960087E+03  0.90726577509E+03  0.12500000000E+03 0.  0.
          2    1    1    2  502    0  0.11107323959E+03 -0.93961025187E+02  0.75759612117E+03  0.77143879966E+03  0.00000000000E+00 0. -1.
         -2    1    1    2    0  501  0.54755151222E+02 -0.13031318297E+03  0.13060346955E+04  0.13136614016E+04  0.00000000000E+00 0.  1.
<mgrwt>
<rscale>  4 0.66358475E+03</rscale>
<asrwt>0</asrwt>
<pdfrwt beam="1">  1        1 0.45463261E+00 0.66358475E+03</pdfrwt>
<pdfrwt beam="2">  1       -1 0.57311992E-02 0.66358475E+03</pdfrwt>
<totfact> 0.10353846E+02</totfact>
</mgrwt>
</event>
<event>
 5    0  0.5719562E-003  0.7345268E+03  0.7546771E-02  0.9659943E-01
         -2   -1    0    0    0  501 -0.00000000000E+00  0.00000000000E+00  0.14742541643E+04  0.14742541643E+04  0.00000000000E+00 0.  1.
          2   -1    0    0  502    0  0.00000000000E+00 -0.00000000000E+00 -0.91491961596E+02  0.91491961596E+02  0.00000000000E+00 0. -1.
         25    1    1    2    0    0  0.12469294408E+03  0.28157326552E+03  0.62955081942E+03  0.71189259611E+03  0.12500000000E+03 0.  0.
          2    1    1    2  502    0 -0.44671086090E+01 -0.83809882628E+02  0.51474426996E+03  0.52154167134E+03  0.00000000000E+00 0.  1.
         -2    1    1    2    0  501 -0.12022583547E+03 -0.19776338290E+03  0.23846711332E+03  0.33231185844E+03  0.00000000000E+00 0. -1.
<mgrwt>
<rscale>  4 0.73452680E+03</rscale>
<asrwt>0</asrwt>
<pdfrwt beam="1">  1        2 0.14075687E-01 0.73452680E+03</pdfrwt>
<pdfrwt beam="2">  1       -2 0.22680832E+00 0.73452680E+03</pdfrwt>
<totfact> 0.39716977E+01</totfact>
</mgrwt>
</event>
<event>
 5    0  0.5719562E-003  0.6391946E+03  0.7546771E-02  0.9827269E-01
          1   -1    0    0  502    0  0.00000000000E+00  0.00000000000E+00  0.13601953574E+04  0.13601953574E+04  0.00000000000E+00 0. -1.
         -1   -1    0    0    0  501 -0.00000000000E+00 -0.00000000000E+00 -0.75093934168E+02  0.75093934168E+02  0.00000000000E+00 0.  1.
         25    1    1    2    0    0  0.13686814147E+03 -0.24026965537E+03  0.95711483184E+03  0.10040698167E+04  0.12500000000E+03 0.  0.
          1    1    1    2  502    0 -0.22355618176E+01  0.27286860727E+02  0.41209572555E+02  0.49475240021E+02  0.00000000000E+00 0. -1.
         -1    1    1    2    0  501 -0.13463257965E+03  0.21298279464E+03  0.28677701881E+03  0.38174423484E+03  0.00000000000E+00 0.  1.
<mgrwt>
<rscale>  4 0.63919456E+03</rscale>
<asrwt>0</asrwt>
<pdfrwt beam="1">  1        1 0.20926081E+00 0.63919456E+03</pdfrwt>
<pdfrwt beam="2">  1       -1 0.11552914E-01 0.63919456E+03</pdfrwt>
<totfact> 0.41974587E+02</totfact>
</mgrwt>
</event>
<event>
 5    0  0.5719562E-003  0.6423476E+03  0.7546771E-02  0.9821245E-01
         -2   -1    0    0    0  501 -0.00000000000E+00  0.00000000000E+00  0.14556186170E+03  0.14556186170E+03  0.00000000000E+00 0.  1.
          2   -1    0    0  502    0  0.00000000000E+00 -0.00000000000E+00 -0.70865144229E+03  0.70865144229E+03  0.00000000000E+00 0. -1.
         25    1    1    2    0    0 -0.64795208715E+02  0.21516226179E+03 -0.18573584959E+03  0.31720028971E+03  0.12500000000E+03 0.  0.
          2    1    1    2  502    0 -0.78836356457E+02 -0.18692943510E+02 -0.24903601040E+03  0.26188457708E+03  0.00000000000E+00 0. -1.
         -2    1    1    2    0  501  0.14363156517E+03 -0.19646931828E+03 -0.12831772060E+03  0.27512843721E+03  0.00000000000E+00 0.  1.
<mgrwt>
<rscale>  4 0.64234764E+03</rscale>
<asrwt>0</asrwt>
<pdfrwt beam="1">  1        2 0.10902330E+00 0.64234764E+03</pdfrwt>
<pdfrwt beam="2">  1       -2 0.22394133E-01 0.64234764E+03</pdfrwt>
<totfact> 0.70863244E+02</totfact>
</mgrwt>
</event>
<event>
 5    0  0.5719562E-003  0.5285014E+03  0.7546771E-02  0.1006596E+00
         -2   -1    0    0    0  501 -0.00000000000E+00  0.00000000000E+00  0.89020890168E+02  0.89020890168E+02  0.00000000000E+00 0.  1.
          2   -1    0    0  502    0  0.00000000000E+00 -0.00000000000E+00 -0.78440490093E+03  0.78440490093E+03  0.00000000000E+00 0. -1.
         25    1    1    2    0    0 -0.22303516690E+03 -0.92961864286E+01 -0.22578461342E+03  0.34122543342E+03  0.12500000000E+03 0.  0.
          2    1    1    2  502    0  0.20740934881E+03  0.22485352502E+02 -0.46713465877E+03  0.51160435737E+03  0.00000000000E+00 0. -1.
         -2    1    1    2    0  501  0.15625818083E+02 -0.13189166074E+02 -0.24647385707E+01  0.20596000308E+02  0.00000000000E+00 0.  1.
<mgrwt>
<rscale>  4 0.52850136E+03</rscale>
<asrwt>0</asrwt>
<pdfrwt beam="1">  1        2 0.12067768E+00 0.52850136E+03</pdfrwt>
<pdfrwt beam="2">  1       -2 0.13695521E-01 0.52850136E+03</pdfrwt>
<totfact> 0.14489607E+03</totfact>
</mgrwt>
</event>
<event>
 5    0  0.5719562E-003  0.7213733E+03  0.7546771E-02  0.9681363E-01
         -2   -1    0    0    0  501 -0.00000000000E+00  0.00000000000E+00  0.77358758914E+03  0.77358758914E+03  0.00000000000E+00 0. -1.
          2   -1    0    0  502    0  0.00000000000E+00 -0.00000000000E+00 -0.16817082355E+03  0.16817082355E+03  0.00000000000E+00 0.  1.
         25    1    1    2    0    0  0.24082164483E+03 -0.19747394196E+03  0.30261789657E+03  0.45187787476E+03  0.12500000000E+03 0.  0.
          4    1    1    2  502    0  0.42865683974E+02  0.71434783947E+01  0.32806021609E+02  0.54449345266E+02  0.00000000000E+00 0. -1.
         -4    1    1    2    0  501 -0.28368732880E+03  0.19033046357E+03  0.26999284741E+03  0.43543119266E+03  0.00000000000E+00 0.  1.
<mgrwt>
<rscale>  4 0.72137331E+03</rscale>
<asrwt>0</asrwt>
<pdfrwt beam="1">  1        2 0.25872435E-01 0.72137331E+03</pdfrwt>
<pdfrwt beam="2">  1       -2 0.11901347E+00 0.72137331E+03</pdfrwt>
<totfact> 0.11535950E+02</totfact>
</mgrwt>
</event>
<event>
 5    0  0.5719562E-003  0.5147539E+03  0.7546771E-02  0.1009998E+00
          2   -1    0    0  502    0  0.00000000000E+00  0.00000000000E+00  0.11984752433E+03  0.11984752433E+03  0.00000000000E+00 0.  1.
         -2   -1    0    0    0  501 -0.00000000000E+00 -0.00000000000E+00 -0.55272647345E+03  0.55272647345E+03  0.00000000000E+00 0. -1.
         25    1    1    2    0    0 -0.34663018606E+02  0.21254121376E+03 -0.15193240117E+03  0.29169118418E+03  0.12500000000E+03 0.  0.
          1    1    1    2  502    0 -0.12817205383E+02 -0.20810946094E+03 -0.21496089219E+03  0.29946955380E+03  0.00000000000E+00 0.  1.
         -1    1    1    2    0  501  0.47480223989E+02 -0.44317528275E+01 -0.65985655769E+02  0.81413259794E+02  0.00000000000E+00 0. -1.
<mgrwt>
<rscale>  4 0.51475392E+03</rscale>
<asrwt>0</asrwt>
<pdfrwt beam="1">  1        2 0.18438080E-01 0.51475392E+03</pdfrwt>
<pdfrwt beam="2">  1       -2 0.85034844E-01 0.51475392E+03</pdfrwt>
<totfact> 0.38053894E+02</totfact>
</mgrwt>
</event>
<event>
 5    0  0.5719562E-003  0.8802349E+03  0.7546771E-02  0.9450632E-01
          2   -1    0    0  502    0  0.00000000000E+00  0.00000000000E+00  0.12134172512E+04  0.12134172512E+04  0.00000000000E+00 0.  1.
         -2   -1    0    0    0  501 -0.00000000000E+00 -0.00000000000E+00 -0.15963459418E+03  0.15963459418E+03  0.00000000000E+00 0. -1.
         25    1    1    2    0    0 -0.20801438649E+03 -0.81617941274E+02 -0.35666693938E+02  0.25851225577E+03  0.12500000000E+03 0.  0.
          2    1    1    2  502    0  0.12225502292E+03  0.61359083458E+02  0.49335645342E+03  0.51196857119E+03  0.00000000000E+00 0. -1.
         -2    1    1    2    0  501  0.85759363573E+02  0.20258857816E+02  0.59609289755E+03  0.60257101845E+03  0.00000000000E+00 0.  1.
<mgrwt>
<rscale>  4 0.88023490E+03</rscale>
<asrwt>0</asrwt>
<pdfrwt beam="1">  1        2 0.18667957E+00 0.88023490E+03</pdfrwt>
<pdfrwt beam="2">  1       -2 0.24559169E-01 0.88023490E+03</pdfrwt>
<totfact> 0.27600775E+02</totfact>
</mgrwt>
</event>
<event>
 5    0  0.5719562E-003  0.5262828E+03  0.7546771E-02  0.1007138E+00
          2   -1    0    0  502    0  0.00000000000E+00  0.00000000000E+00  0.38947312116E+03  0.38947312116E+03  0.00000000000E+00 0.  1.
         -2   -1    0    0    0  501 -0.00000000000E+00 -0.00000000000E+00 -0.17778736811E+03  0.17778736811E+03  0.00000000000E+00 0. -1.
         25    1    1    2    0    0 -0.18064789943E+03 -0.10322683369E+03  0.22985247694E+03  0.33428521343E+03  0.12500000000E+03 0.  0.
          2    1    1    2  502    0  0.62837052340E+01  0.20022187687E+02  0.27363426195E+02  0.34483764939E+02  0.00000000000E+00 0. -1.
         -2    1    1    2    0  501  0.17436419419E+03  0.83204646008E+02 -0.45530150085E+02  0.19849151090E+03  0.00000000000E+00 0.  1.
<mgrwt>
<rscale>  4 0.52628282E+03</rscale>
<asrwt>0</asrwt>
<pdfrwt beam="1">  1        2 0.59918942E-01 0.52628282E+03</pdfrwt>
<pdfrwt beam="2">  1       -2 0.27351903E-01 0.52628282E+03</pdfrwt>
<totfact> 0.99910902E+02</totfact>
</mgrwt>
</event>
<event>
 5    0  0.5719562E-003  0.5441780E+03  0.7546771E-02  0.1002851E+00
          2   -1    0    0  502    0  0.00000000000E+00  0.00000000000E+00  0.15234731963E+04  0.15234731963E+04  0.00000000000E+00 0. -1.
         -2   -1    0    0    0  501 -0.00000000000E+00 -0.00000000000E+00 -0.48594508986E+02  0.48594508986E+02  0.00000000000E+00 0.  1.
         25    1    1    2    0    0 -0.11643287066E+03  0.20056965863E+03  0.49084097712E+03  0.55707689429E+03  0.12500000000E+03 0.  0.
          1    1    1    2  502    0  0.42049132372E+02 -0.10420997792E+03  0.64604768894E+03  0.65574801976E+03  0.00000000000E+00 0. -1.
         -1    1    1    2    0  501  0.74383738290E+02 -0.96359680706E+02  0.33799002121E+03  0.35924279120E+03  0.00000000000E+00 0.  1.
<mgrwt>
<rscale>  4 0.54417803E+03</rscale>
<asrwt>0</asrwt>
<pdfrwt beam="1">  1        2 0.23438046E+00 0.54417803E+03</pdfrwt>
<pdfrwt beam="2">  1       -2 0.74760795E-02 0.54417803E+03</pdfrwt>
<totfact> 0.13772196E+03</totfact>
</mgrwt>
</event>
<event>
 5    0  0.5719562E-003  0.4788881E+03  0.7546771E-02  0.1019441E+00
         -2   -1    0    0    0  501 -0.00000000000E+00  0.00000000000E+00  0.20895312776E+03  0.20895312776E+03  0.00000000000E+00 0. -1.
          2   -1    0    0  502    0  0.00000000000E+00 -0.00000000000E+00 -0.27438427639E+03  0.27438427639E+03  0.00000000000E+00 0.  1.
         25    1    1    2    0    0  0.99065005256E+02  0.17859679793E+03 -0.39758297751E+02  0.24272703545E+03  0.12500000000E+03 0.  0.
          4    1    1    2  502    0  0.10012948242E+01 -0.12200650709E+03 -0.29724943693E+02  0.12557930817E+03  0.00000000000E+00 0.  1.
         -4    1    1    2    0  501 -0.10006630008E+03 -0.56590290841E+02  0.40520928177E+01  0.11503106052E+03  0.00000000000E+00 0. -1.
<mgrwt>
<rscale>  4 0.47888810E+03</rscale>
<asrwt>0</asrwt>
<pdfrwt beam="1">  1        2 0.42212966E-01 0.47888810E+03</pdfrwt>
<pdfrwt beam="2">  1       -2 0.32146635E-01 0.47888810E+03</pdfrwt>
<totfact> 0.10921176E+03</totfact>
</mgrwt>
</event>
<event>
 5    0  0.5719562E-003  0.6499472E+03  0.7546771E-02  0.9806878E-01
          2   -1    0    0  502    0  0.00000000000E+00  0.00000000000E+00  0.52216192970E+03  0.52216192970E+03  0.00000000000E+00 0. -1.
         -2   -1    0    0    0  501 -0.00000000000E+00 -0.00000000000E+00 -0.20225112900E+03  0.20225112900E+03  0.00000000000E+00 0.  1.
         25    1    1    2    0    0 -0.48162726272E+02  0.21448478183E+03  0.30610743749E+03  0.39705180156E+03  0.12500000000E+03 0.  0.
          1    1    1    2  502    0 -0.52330343735E+01 -0.10196148308E+03  0.12430533146E+03  0.16085814904E+03  0.00000000000E+00 0. -1.
         -1    1    1    2    0  501  0.53395760646E+02 -0.11252329874E+03 -0.11050196826E+03  0.16650310809E+03  0.00000000000E+00 0.  1.
<mgrwt>
<rscale>  4 0.64994720E+03</rscale>
<asrwt>0</asrwt>
<pdfrwt beam="1">  1        2 0.80332604E-01 0.64994720E+03</pdfrwt>
<pdfrwt beam="2">  1       -2 0.31115559E-01 0.64994720E+03</pdfrwt>
<totfact> 0.56405430E+02</totfact>
</mgrwt>
</event>
<event>
 5    0  0.5719562E-003  0.6751640E+03  0.7546771E-02  0.9760674E-01
          1   -1    0    0  502    0  0.00000000000E+00  0.00000000000E+00  0.78118703291E+03  0.78118703291E+03  0.00000000000E+00 0. -1.
         -1   -1    0    0    0  501 -0.00000000000E+00 -0.00000000000E+00 -0.14588261080E+03  0.14588261080E+03  0.00000000000E+00 0.  1.
         25    1    1    2    0    0 -0.39272189990E+02 -0.28725493822E+03  0.32524129675E+03  0.45328203753E+03  0.12500000000E+03 0.  0.
          3    1    1    2  502    0  0.15833747345E+01  0.10116123055E+03 -0.99751957781E+01  0.10166418333E+03  0.00000000000E+00 0.  1.
         -3    1    1    2    0  501  0.37688815256E+02  0.18609370768E+03  0.32003832115E+03  0.37212342285E+03  0.00000000000E+00 0. -1.
<mgrwt>
<rscale>  4 0.67516399E+03</rscale>
<asrwt>0</asrwt>
<pdfrwt beam="1">  1        1 0.12018262E+00 0.67516399E+03</pdfrwt>
<pdfrwt beam="2">  1       -1 0.22443479E-01 0.67516399E+03</pdfrwt>
<totfact> 0.39108684E+02</totfact>
</mgrwt>
</event>
<event>
 5    0  0.5719562E-003  0.5780236E+03  0.7546771E-02  0.9952079E-01
          1   -1    0    0  502    0  0.00000000000E+00  0.00000000000E+00  0.22224522162E+03  0.22224522162E+03  0.00000000000E+00 0. -1.
         -1   -1    0    0    0  501 -0.00000000000E+00 -0.00000000000E+00 -0.37583631020E+03  0.37583631020E+03  0.00000000000E+00 0.  1.
         25    1    1    2    0    0 -0.21341034161E+03 -0.35457546511E+02 -0.15747876413E+03  0.29534009660E+03  0.12500000000E+03 0.  0.
          2    1    1    2  502    0  0.13642586987E+03  0.12412459184E+03 -0.86813465787E+01  0.18464641358E+03  0.00000000000E+00 0.  1.
         -2    1    1    2    0  501  0.76984471744E+02 -0.88667045328E+02  0.12569022124E+02  0.11809502163E+03  0.00000000000E+00 0. -1.
<mgrwt>
<rscale>  4 0.57802361E+03</rscale>
<asrwt>0</asrwt>
<pdfrwt beam="1">  1        1 0.34191573E-01 0.57802361E+03</pdfrwt>
<pdfrwt beam="2">  1       -1 0.57820971E-01 0.57802361E+03</pdfrwt>
<totfact> 0.39798695E+02</totfact>
</mgrwt>
</event>
<event>
 5    0  0.5719562E-003  0.8266119E+03  0.7546771E-02  0.9522277E-01
         -2   -1    0    0    0  501 -0.00000000000E+00  0.00000000000E+00  0.59339296211E+02  0.59339296211E+02  0.00000000000E+00 0.  1.
          2   -1    0    0  502    0  0.00000000000E+00 -0.00000000000E+00 -0.28787300869E+04  0.28787300869E+04  0.00000000000E+00 0. -1.
         25    1    1    2    0    0 -0.20428998227E+03 -0.24268691439E+03 -0.21056221171E+04  0.21330496560E+04  0.12500000000E+03 0.  0.
          1    1    1    2  502    0  0.41404241845E+02  0.44267218733E+02 -0.37554681745E+03  0.38040676912E+03  0.00000000000E+00 0. -1.
         -1    1    1    2    0  501  0.16288574043E+03  0.19841969566E+03 -0.33822185616E+03  0.42461295793E+03  0.00000000000E+00 0.  1.
<mgrwt>
<rscale>  4 0.82661192E+03</rscale>
<asrwt>0</asrwt>
<pdfrwt beam="1">  1        2 0.44288158E+00 0.82661192E+03</pdfrwt>
<pdfrwt beam="2">  1       -2 0.91291219E-02 0.82661192E+03</pdfrwt>
<totfact> 0.17168688E+02</totfact>
</mgrwt>
</event>
<event>
 5    0  0.5719562E-003  0.4963060E+03  0.7546771E-02  0.1014748E+00
         -1   -1    0    0    0  501 -0.00000000000E+00  0.00000000000E+00  0.38138181085E+02  0.38138181085E+02  0.00000000000E+00 0.  1.
          1   -1    0    0  502    0  0.00000000000E+00 -0.00000000000E+00 -0.16146524010E+04  0.16146524010E+04  0.00000000000E+00 0. -1.
         25    1    1    2    0    0 -0.21283307025E+03 -0.19821263408E+02 -0.61403868722E+03  0.66208708466E+03  0.12500000000E+03 0.  0.
          1    1    1    2  502    0  0.99530092334E+02  0.29405039156E+01 -0.25038703758E+03  0.26945974548E+03  0.00000000000E+00 0. -1.
         -1    1    1    2    0  501  0.11330297792E+03  0.16880759492E+02 -0.71208849511E+03  0.72124375194E+03  0.00000000000E+00 0.  1.
<mgrwt>
<rscale>  4 0.49630598E+03</rscale>
<asrwt>0</asrwt>
<pdfrwt beam="1">  1        1 0.24840802E+00 0.49630598E+03</pdfrwt>
<pdfrwt beam="2">  1       -1 0.58674135E-02 0.49630598E+03</pdfrwt>
<totfact> 0.81795258E+02</totfact>
</mgrwt>
</event>
<event>
 5    0  0.5719562E-003  0.7598355E+03  0.7546771E-02  0.9620045E-01
          2   -1    0    0  502    0  0.00000000000E+00  0.00000000000E+00  0.10548560357E+03  0.10548560357E+03  0.00000000000E+00 0.  1.
         -2   -1    0    0    0  501 -0.00000000000E+00 -0.00000000000E+00 -0.13683148295E+04  0.13683148295E+04  0.00000000000E+00 0. -1.
         25    1    1    2    0    0  0.24736626445E+03 -0.59419364906E+02 -0.26322479744E+03  0.38682428014E+03  0.12500000000E+03 0.  0.
          3    1    1    2  502    0 -0.25462441950E+03  0.16171889069E+02 -0.10101510347E+04  0.10418734271E+04  0.00000000000E+00 0. -1.
         -3    1    1    2    0  501  0.72581550435E+01  0.43247475837E+02  0.10546606231E+02  0.45102725903E+02  0.00000000000E+00 0.  1.
<mgrwt>
<rscale>  4 0.75983555E+03</rscale>
<asrwt>0</asrwt>
<pdfrwt beam="1">  1        2 0.16228556E-01 0.75983555E+03</pdfrwt>
<pdfrwt beam="2">  1       -2 0.21050996E+00 0.75983555E+03</pdfrwt>
<totfact> 0.42189109E+01</totfact>
</mgrwt>
</event>
<event>
 5    0  0.5719562E-003  0.4920214E+03  0.7546771E-02  0.1015883E+00
          1   -1    0    0  502    0  0.00000000000E+00  0.00000000000E+00  0.13609249782E+04  0.13609249782E+04  0.00000000000E+00 0.  1.
         -1   -1    0    0    0  501 -0.00000000000E+00 -0.00000000000E+00 -0.44470681176E+02  0.44470681176E+02  0.00000000000E+00 0. -1.
         25    1    1    2    0    0  0.20300195238E+03 -0.56891421956E+02  0.76484343596E+03  0.80315434886E+03  0.12500000000E+03 0.  0.
          3    1    1    2  502    0 -0.19872429762E+03  0.82914481602E+02  0.49220070697E+03  0.53724081534E+03  0.00000000000E+00 0.  1.
         -3    1    1    2    0  501 -0.42776547641E+01 -0.26023059646E+02  0.59410154059E+02  0.65000495144E+02  0.00000000000E+00 0. -1.
<mgrwt>
<rscale>  4 0.49202138E+03</rscale>
<asrwt>0</asrwt>
<pdfrwt beam="1">  1        1 0.20937304E+00 0.49202138E+03</pdfrwt>
<pdfrwt beam="2">  1       -1 0.68416443E-02 0.49202138E+03</pdfrwt>
<totfact> 0.96016861E+02</totfact>
</mgrwt>
</event>
<event>
 5    0  0.5719562E-003  0.6179829E+03  0.7546771E-02  0.9868784E-01
          1   -1    0    0  502    0  0.00000000000E+00  0.00000000000E+00  0.27244633493E+04  0.27244633493E+04  0.00000000000E+00 0.  1.
         -1   -1    0    0    0  501 -0.00000000000E+00 -0.00000000000E+00 -0.35043863639E+02  0.35043863639E+02  0.00000000000E+00 0. -1.
         25    1    1    2    0    0  0.10161994465E+02  0.24494726214E+03  0.20474510670E+04  0.20658613940E+04  0.12500000000E+03 0.  0.
          2    1    1    2  502    0  0.21818164949E+02 -0.45647050988E+02  0.22194327162E+03  0.22763677516E+03  0.00000000000E+00 0.  1.
         -2    1    1    2    0  501 -0.31980159415E+02 -0.19930021116E+03  0.42002514704E+03  0.46600904381E+03  0.00000000000E+00 0. -1.
<mgrwt>
<rscale>  4 0.61798292E+03</rscale>
<asrwt>0</asrwt>
<pdfrwt beam="1">  1        1 0.41914804E+00 0.61798292E+03</pdfrwt>
<pdfrwt beam="2">  1       -1 0.53913658E-02 0.61798292E+03</pdfrwt>
<totfact> 0.16599598E+02</totfact>
</mgrwt>
</event>
<event>
 5    0  0.5719562E-003  0.5942082E+03  0.7546771E-02  0.9917496E-01
         -2   -1    0    0    0  501 -0.00000000000E+00  0.00000000000E+00  0.63230981107E+02  0.63230981107E+02  0.00000000000E+00 0. -1.
          2   -1    0    0  502    0  0.00000000000E+00 -0.00000000000E+00 -0.13960063954E+04  0.13960063954E+04  0.00000000000E+00 0.  1.
         25    1    1    2    0    0 -0.75856639971E+02 -0.26317391977E+03 -0.72427060665E+03  0.78435174095E+03  0.12500000000E+03 0.  0.
          1    1    1    2  502    0  0.74368199027E+02  0.19114504822E+03 -0.53016052288E+03  0.56845161492E+03  0.00000000000E+00 0.  1.
         -1    1    1    2    0  501  0.14884409447E+01  0.72028871544E+02 -0.78344284733E+02  0.10643402061E+03  0.00000000000E+00 0. -1.
<mgrwt>
<rscale>  4 0.59420823E+03</rscale>
<asrwt>0</asrwt>
<pdfrwt beam="1">  1        2 0.21477020E+00 0.59420823E+03</pdfrwt>
<pdfrwt beam="2">  1       -2 0.97278437E-02 0.59420823E+03</pdfrwt>
<totfact> 0.10613039E+03</totfact>
</mgrwt>
</event>
<event>
 5    0  0.5719562E-003  0.4676319E+03  0.7546771E-02  0.1022591E+00
          2   -1    0    0  502    0  0.00000000000E+00  0.00000000000E+00  0.66352118002E+03  0.66352118002E+03  0.00000000000E+00 0. -1.
         -2   -1    0    0    0  501 -0.00000000000E+00 -0.00000000000E+00 -0.82393583875E+02  0.82393583875E+02  0.00000000000E+00 0.  1.
         25    1    1    2    0    0  0.19396927665E+03  0.93294307373E+02  0.32017482080E+03  0.40554262902E+03  0.12500000000E+03 0.  0.
          1    1    1    2  502    0 -0.35567047447E+02 -0.62485297179E+01  0.29006238169E+02  0.46318687810E+02  0.00000000000E+00 0.  1.
         -1    1    1    2    0  501 -0.15840222921E+03 -0.87045777655E+02  0.23194653717E+03  0.29405344706E+03  0.00000000000E+00 0. -1.
<mgrwt>
<rscale>  4 0.46763186E+03</rscale>
<asrwt>0</asrwt>
<pdfrwt beam="1">  1        2 0.10208018E+00 0.46763186E+03</pdfrwt>
<pdfrwt beam="2">  1       -2 0.12675936E-01 0.46763186E+03</pdfrwt>
<totfact> 0.20329642E+03</totfact>
</mgrwt>
</event>
<event>
 5    0  0.5719562E-003  0.6294241E+03  0.7546771E-02  0.9846173E-01
         -2   -1    0    0    0  501 -0.00000000000E+00  0.00000000000E+00  0.82160671517E+02  0.82160671517E+02  0.00000000000E+00 0.  1.
          2   -1    0    0  502    0  0.00000000000E+00 -0.00000000000E+00 -0.12054875253E+04  0.12054875253E+04  0.00000000000E+00 0. -1.
         25    1    1    2    0    0  0.22729554630E+03  0.15866415023E+03 -0.36381583116E+03  0.47415665865E+03  0.12500000000E+03 0.  0.
          3    1    1    2  502    0 -0.17604648110E+03 -0.71182828232E+02 -0.50594522511E+03  0.54040718848E+03  0.00000000000E+00 0. -1.
         -3    1    1    2    0  501 -0.51249065194E+02 -0.87481322003E+02 -0.25356579756E+03  0.27308434974E+03  0.00000000000E+00 0.  1.
<mgrwt>
<rscale>  4 0.62942407E+03</rscale>
<asrwt>0</asrwt>
<pdfrwt beam="1">  1        2 0.18545962E+00 0.62942407E+03</pdfrwt>
<pdfrwt beam="2">  1       -2 0.12640103E-01 0.62942407E+03</pdfrwt>
<totfact> 0.88770433E+02</totfact>
</mgrwt>
</event>
<event>
 5    0  0.5719562E-003  0.6913863E+03  0.7546771E-02  0.9732077E-01
         -1   -1    0    0    0  501 -0.00000000000E+00  0.00000000000E+00  0.93822057095E+02  0.93822057095E+02  0.00000000000E+00 0.  1.
          1   -1    0    0  502    0  0.00000000000E+00 -0.00000000000E+00 -0.12737278273E+04  0.12737278273E+04  0.00000000000E+00 0. -1.
         25    1    1    2    0    0 -0.62849058782E+02 -0.28495040030E+03 -0.92143082695E+03  0.97458016791E+03  0.12500000000E+03 0.  0.
          2    1    1    2  502    0  0.68928295730E+02  0.22361119693E+03 -0.21234156977E+03  0.31597787834E+03  0.00000000000E+00 0.  1.
         -2    1    1    2    0  501 -0.60792369481E+01  0.61339203368E+02 -0.46133373452E+02  0.76991838124E+02  0.00000000000E+00 0. -1.
<mgrwt>
<rscale>  4 0.69138633E+03</rscale>
<asrwt>0</asrwt>
<pdfrwt beam="1">  1        1 0.19595813E+00 0.69138633E+03</pdfrwt>
<pdfrwt beam="2">  1       -1 0.14434163E-01 0.69138633E+03</pdfrwt>
<totfact> 0.33653362E+02</totfact>
</mgrwt>
</event>
<event>
 5    0  0.5719562E-003  0.5453399E+03  0.7546771E-02  0.1002578E+00
         -2   -1    0    0    0  501 -0.00000000000E+00  0.00000000000E+00  0.44575428784E+02  0.44575428784E+02  0.00000000000E+00 0.  1.
          2   -1    0    0  502    0  0.00000000000E+00 -0.00000000000E+00 -0.16679348017E+04  0.16679348017E+04  0.00000000000E+00 0. -1.
         25    1    1    2    0    0 -0.16914657211E+03  0.11535726284E+03 -0.13412647405E+04  0.13625468671E+04  0.12500000000E+03 0.  0.
          2    1    1    2  502    0  0.14551294444E+03 -0.10391171238E+03 -0.26051735561E+03  0.31597619142E+03  0.00000000000E+00 0.  1.
         -2    1    1    2    0  501  0.23633627677E+02 -0.11445550461E+02 -0.21577276760E+02  0.33987171917E+02  0.00000000000E+00 0. -1.
<mgrwt>
<rscale>  4 0.54533993E+03</rscale>
<asrwt>0</asrwt>
<pdfrwt beam="1">  1        2 0.25660534E+00 0.54533993E+03</pdfrwt>
<pdfrwt beam="2">  1       -2 0.68577587E-02 0.54533993E+03</pdfrwt>
<totfact> 0.13165464E+03</totfact>
</mgrwt>
</event>
<event>
 5    0  0.5719562E-003  0.5403125E+03  0.7546771E-02  0.1003761E+00
          2   -1    0    0  502    0  0.00000000000E+00  0.00000000000E+00  0.20025951302E+03  0.20025951302E+03  0.00000000000E+00 0. -1.
         -2   -1    0    0    0  501 -0.00000000000E+00 -0.00000000000E+00 -0.36444912614E+03  0.36444912614E+03  0.00000000000E+00 0.  1.
         25    1    1    2    0    0 -0.17651042450E+03  0.17910848139E+03 -0.12865167941E+03  0.30888838223E+03  0.12500000000E+03 0.  0.
          4    1    1    2  502    0  0.16289308433E+03 -0.15773516517E+03 -0.39522112653E+02  0.23016632387E+03  0.00000000000E+00 0.  1.
         -4    1    1    2    0  501  0.13617340164E+02 -0.21373316220E+02  0.39841789453E+01  0.25653933056E+02  0.00000000000E+00 0. -1.
<mgrwt>
<rscale>  4 0.54031252E+03</rscale>
<asrwt>0</asrwt>
<pdfrwt beam="1">  1        2 0.30809156E-01 0.54031252E+03</pdfrwt>
<pdfrwt beam="2">  1       -2 0.56069096E-01 0.54031252E+03</pdfrwt>
<totfact> 0.51996499E+02</totfact>
</mgrwt>
</event>
<event>
 5    0  0.5719562E-003  0.6725036E+03  0.7546771E-02  0.9765446E-01
         -2   -1    0    0    0  501 -0.00000000000E+00  0.00000000000E+00  0.10418727800E+03  0.10418727800E+03  0.00000000000E+00 0. -1.
          2   -1    0    0  502    0  0.00000000000E+00 -0.00000000000E+00 -0.10852118597E+04  0.10852118597E+04  0.00000000000E+00 0.  1.
         25    1    1    2    0    0  0.49572656102E+02 -0.20145884524E+03 -0.66593243708E+03  0.70861422884E+03  0.12500000000E+03 0.  0.
          4    1    1    2  502    0 -0.14042384756E+03  0.13049564362E+03 -0.60024100989E+02  0.20087524155E+03  0.00000000000E+00 0. -1.
         -4    1    1    2    0  501  0.90851191462E+02  0.70963201622E+02 -0.25506804367E+03  0.27990966735E+03  0.00000000000E+00 0.  1.
<mgrwt>
<rscale>  4 0.67250359E+03</rscale>
<asrwt>0</asrwt>
<pdfrwt beam="1">  1        2 0.16695567E+00 0.67250359E+03</pdfrwt>
<pdfrwt beam="2">  1       -2 0.16028812E-01 0.67250359E+03</pdfrwt>
<totfact> 0.70233964E+02</totfact>
</mgrwt>
</event>
<event>
 5    0  0.5719562E-003  0.5399345E+03  0.7546771E-02  0.1003851E+00
         -2   -1    0    0    0  501 -0.00000000000E+00  0.00000000000E+00  0.11234160465E+03  0.11234160465E+03  0.00000000000E+00 0. -1.
          2   -1    0    0  502    0  0.00000000000E+00 -0.00000000000E+00 -0.64875621043E+03  0.64875621043E+03  0.00000000000E+00 0.  1.
         25    1    1    2    0    0 -0.13977566807E+03 -0.17946229627E+03 -0.43026052275E+03  0.50248688601E+03  0.12500000000E+03 0.  0.
          2    1    1    2  502    0  0.92269307112E+02  0.76007352764E+02 -0.35819761657E+02  0.12479502408E+03  0.00000000000E+00 0. -1.
         -2    1    1    2    0  501  0.47506360954E+02  0.10345494351E+03 -0.70334321373E+02  0.13381590500E+03  0.00000000000E+00 0.  1.
<mgrwt>
<rscale>  4 0.53993449E+03</rscale>
<asrwt>0</asrwt>
<pdfrwt beam="1">  1        2 0.99808650E-01 0.53993449E+03</pdfrwt>
<pdfrwt beam="2">  1       -2 0.17283323E-01 0.53993449E+03</pdfrwt>
<totfact> 0.12426846E+03</totfact>
</mgrwt>
</event>
<event>
 5    0  0.5719562E-003  0.6208026E+03  0.7546771E-02  0.9863163E-01
         -2   -1    0    0    0  501 -0.00000000000E+00  0.00000000000E+00  0.26964285852E+04  0.26964285852E+04  0.00000000000E+00 0.  1.
          2   -1    0    0  502    0  0.00000000000E+00 -0.00000000000E+00 -0.35732066284E+02  0.35732066284E+02  0.00000000000E+00 0. -1.
         25    1    1    2    0    0 -0.21524499388E+03 -0.98728540831E+02  0.10868145181E+04  0.11193160987E+04  0.12500000000E+03 0.  0.
          3    1    1    2  502    0  0.89738169692E+02 -0.84235102773E+02  0.72891769529E+03  0.73923575275E+03  0.00000000000E+00 0.  1.
         -3    1    1    2    0  501  0.12550682419E+03  0.18296364360E+03  0.84496430557E+03  0.87360880003E+03  0.00000000000E+00 0. -1.
<mgrwt>
<rscale>  4 0.62080259E+03</rscale>
<asrwt>0</asrwt>
<pdfrwt beam="1">  1        2 0.54972431E-02 0.62080259E+03</pdfrwt>
<pdfrwt beam="2">  1       -2 0.41483501E+00 0.62080259E+03</pdfrwt>
<totfact> 0.93759642E+00</totfact>
</mgrwt>
</event>
<event>
 5    0  0.5719562E-003  0.4752087E+03  0.7546771E-02  0.1020460E+00
          2   -1    0    0  502    0  0.00000000000E+00  0.00000000000E+00  0.16738702012E+03  0.16738702012E+03  0.00000000000E+00 0.  1.
         -2   -1    0    0    0  501 -0.00000000000E+00 -0.00000000000E+00 -0.33727724416E+03  0.33727724416E+03  0.00000000000E+00 0. -1.
         25    1    1    2    0    0 -0.34788410944E+02  0.20695454793E+03 -0.90765338374E+02  0.26058350887E+03  0.12500000000E+03 0.  0.
          2    1    1    2  502    0  0.21874471167E+02 -0.16699056578E+03 -0.10135317674E+03  0.19656247857E+03  0.00000000000E+00 0. -1.
         -2    1    1    2    0  501  0.12913939777E+02 -0.39963982153E+02  0.22228291070E+02  0.47518276841E+02  0.00000000000E+00 0.  1.
<mgrwt>
<rscale>  4 0.47520872E+03</rscale>
<asrwt>0</asrwt>
<pdfrwt beam="1">  1        2 0.25751849E-01 0.47520872E+03</pdfrwt>
<pdfrwt beam="2">  1       -2 0.51888807E-01 0.47520872E+03</pdfrwt>
<totfact> 0.74631969E+02</totfact>
</mgrwt>
</event>
<event>
 5    0  0.5719562E-003  0.6092209E+03  0.7546771E-02  0.9886458E-01
          2   -1    0    0  502    0  0.00000000000E+00  0.00000000000E+00  0.43478331550E+03  0.43478331550E+03  0.00000000000E+00 0. -1.
         -2   -1    0    0    0  501 -0.00000000000E+00 -0.00000000000E+00 -0.21341097609E+03  0.21341097609E+03  0.00000000000E+00 0.  1.
         25    1    1    2    0    0  0.13293567480E+03  0.19017629231E+03  0.60232024006E+02  0.27035497500E+03  0.12500000000E+03 0.  0.
          3    1    1    2  502    0 -0.12929134452E+03 -0.91167083022E+01 -0.82433434719E+01  0.12987424244E+03  0.00000000000E+00 0.  1.
         -3    1    1    2    0  501 -0.36443302804E+01 -0.18105958401E+03  0.16938365887E+03  0.24796507415E+03  0.00000000000E+00 0. -1.
<mgrwt>
<rscale>  4 0.60922092E+03</rscale>
<asrwt>0</asrwt>
<pdfrwt beam="1">  1        2 0.66889741E-01 0.60922092E+03</pdfrwt>
<pdfrwt beam="2">  1       -2 0.32832458E-01 0.60922092E+03</pdfrwt>
<totfact> 0.62985424E+02</totfact>
</mgrwt>
</event>
<event>
 5    0  0.5719562E-003  0.6712297E+03  0.7546771E-02  0.9767739E-01
         -2   -1    0    0    0  501 -0.00000000000E+00  0.00000000000E+00  0.19045239816E+03  0.19045239816E+03  0.00000000000E+00 0.  1.
          2   -1    0    0  502    0  0.00000000000E+00 -0.00000000000E+00 -0.59141987620E+03  0.59141987620E+03  0.00000000000E+00 0. -1.
         25    1    1    2    0    0  0.17515210270E+03  0.99851295032E+02 -0.37487685957E+03  0.44362844819E+03  0.12500000000E+03 0.  0.
          4    1    1    2  502    0 -0.88195470935E+02 -0.49717669317E+02 -0.14863423454E+03  0.17983999392E+03  0.00000000000E+00 0. -1.
         -4    1    1    2    0  501 -0.86956631761E+02 -0.50133625714E+02  0.12254361607E+03  0.15840383226E+03  0.00000000000E+00 0.  1.
<mgrwt>
<rscale>  4 0.67122972E+03</rscale>
<asrwt>0</asrwt>
<pdfrwt beam="1">  1        2 0.90987673E-01 0.67122972E+03</pdfrwt>
<pdfrwt beam="2">  1       -2 0.29300369E-01 0.67122972E+03</pdfrwt>
<totfact> 0.54399894E+02</totfact>
</mgrwt>
</event>
