<event>
 5    0  0.2159162E+000  0.2935525E+03  0.7546771E-02  0.1088509E+00
         21   -1    0    0  502  501  0.00000000000E+00  0.00000000000E+00  0.24524398418E+03  0.24524398418E+03  0.00000000000E+00 0.  1.
         21   -1    0    0  503  502 -0.00000000000E+00 -0.00000000000E+00 -0.32838278172E+03  0.32838278172E+03  0.00000000000E+00 0.  1.
         25    1    1    2    0    0  0.26184842418E+03 -0.44536511758E+02 -0.10712259140E+02  0.29374793722E+03  0.12500000000E+03 0.  0.
         21    1    1    2  503  504 -0.65329536574E+02 -0.22077814616E+01 -0.35981829531E+02  0.74615780531E+02  0.00000000000E+00 0.  1.
         21    1    1    2  504  501 -0.19651888760E+03  0.46744293220E+02 -0.36444708875E+02  0.20526304815E+03  0.00000000000E+00 0.  1.
<mgrwt>
<rscale>  4 0.29355255E+03</rscale>
<asrwt>0</asrwt>
<pdfrwt beam="1">  1       21 0.37729844E-01 0.29355255E+03</pdfrwt>
<pdfrwt beam="2">  1       21 0.50520428E-01 0.29355255E+03</pdfrwt>
<totfact> 0.24067884E+04</totfact>
</mgrwt>
</event>
<event>
 5    0  0.2182879E+000  0.2790720E+03  0.7546771E-02  0.1096197E+00
         21   -1    0    0  502  501  0.00000000000E+00  0.00000000000E+00  0.15584257281E+04  0.15584257281E+04  0.00000000000E+00 0.  1.
         21   -1    0    0  503  502 -0.00000000000E+00 -0.00000000000E+00 -0.74361174344E+02  0.74361174344E+02  0.00000000000E+00 0. -1.
         25    1    1    2    0    0  0.13338161559E+02  0.24915509470E+03  0.12239200587E+04  0.12553332138E+04  0.12500000000E+03 0.  0.
         21    1    1    2  503  504 -0.33001269854E+02 -0.16805221463E+03  0.10388690136E+03  0.20030756084E+03  0.00000000000E+00 0. -1.
         21    1    1    2  504  501  0.19663108294E+02 -0.81102880073E+02  0.15625759372E+03  0.17714612776E+03  0.00000000000E+00 0. -1.
<mgrwt>
<rscale>  4 0.27907198E+03</rscale>
<asrwt>0</asrwt>
<pdfrwt beam="1">  1       21 0.23975778E+00 0.27907198E+03</pdfrwt>
<pdfrwt beam="2">  1       21 0.11440182E-01 0.27907198E+03</pdfrwt>
<totfact> 0.45360530E+03</totfact>
</mgrwt>
</event>
<event>
 5    0  0.2408395E+000  0.2524976E+03  0.7546771E-02  0.1111737E+00
         21   -1    0    0  502  501  0.00000000000E+00  0.00000000000E+00  0.15923123337E+04  0.15923123337E+04  0.00000000000E+00 0. -1.
         21   -1    0    0  503  502 -0.00000000000E+00 -0.00000000000E+00 -0.39800193246E+02  0.39800193246E+02  0.00000000000E+00 0. -1.
         25    1    1    2    0    0  0.13540385900E+03  0.17261464791E+03  0.10947519120E+04  0.11234931110E+04  0.12500000000E+03 0.  0.
         21    1    1    2  503  504 -0.78035842620E+01 -0.26791514784E+02  0.60093319450E+02  0.66256231663E+02  0.00000000000E+00 0. -1.
         21    1    1    2  504  501 -0.12760027474E+03 -0.14582313312E+03  0.39766690902E+03  0.44236318427E+03  0.00000000000E+00 0. -1.
<mgrwt>
<rscale>  4 0.25249757E+03</rscale>
<asrwt>0</asrwt>
<pdfrwt beam="1">  1       21 0.24497108E+00 0.25249757E+03</pdfrwt>
<pdfrwt beam="2">  1       21 0.61231079E-02 0.25249757E+03</pdfrwt>
<totfact> 0.12915638E+04</totfact>
</mgrwt>
</event>
<event>
 5    0  0.2159162E+000  0.3435431E+03  0.7546771E-02  0.1065297E+00
         21   -1    0    0  502  501  0.00000000000E+00  0.00000000000E+00  0.96224973556E+02  0.96224973556E+02  0.00000000000E+00 0.  1.
         21   -1    0    0  503  502 -0.00000000000E+00 -0.00000000000E+00 -0.12441987661E+04  0.12441987661E+04  0.00000000000E+00 0.  1.
         25    1    1    2    0    0 -0.26027244844E+03 -0.18615886607E+03 -0.46015022911E+03  0.57424742419E+03  0.12500000000E+03 0.  0.
         21    1    1    2  503  504  0.10248301393E+03  0.14026739368E+02 -0.19090999572E+03  0.21713162834E+03  0.00000000000E+00 0.  1.
         21    1    1    2  504  501  0.15778943451E+03  0.17213212670E+03 -0.49691356775E+03  0.54904468716E+03  0.00000000000E+00 0.  1.
<mgrwt>
<rscale>  4 0.34354311E+03</rscale>
<asrwt>0</asrwt>
<pdfrwt beam="1">  1       21 0.14803842E-01 0.34354311E+03</pdfrwt>
<pdfrwt beam="2">  1       21 0.19141519E+00 0.34354311E+03</pdfrwt>
<totfact> 0.55440983E+03</totfact>
</mgrwt>
</event>
<event>
 5    0  0.2159162E+000  0.4111800E+03  0.7546771E-02  0.1039976E+00
         21   -1    0    0  502  501  0.00000000000E+00  0.00000000000E+00  0.49685962171E+03  0.49685962171E+03  0.00000000000E+00 0. -1.
         21   -1    0    0  503  502 -0.00000000000E+00 -0.00000000000E+00 -0.67819848800E+03  0.67819848800E+03  0.00000000000E+00 0. -1.
         25    1    1    2    0    0 -0.38937456857E+03  0.42795114521E+02  0.32924891835E+03  0.52675784447E+03  0.12500000000E+03 0.  0.
         21    1    1    2  503  504  0.39259038139E+02  0.86682236617E+01 -0.24635018162E+02  0.47151821777E+02  0.00000000000E+00 0. -1.
         21    1    1    2  504  501  0.35011553043E+03 -0.51463338182E+02 -0.48595276648E+03  0.60114844346E+03  0.00000000000E+00 0. -1.
<mgrwt>
<rscale>  4 0.41117998E+03</rscale>
<asrwt>0</asrwt>
<pdfrwt beam="1">  1       21 0.76439942E-01 0.41117998E+03</pdfrwt>
<pdfrwt beam="2">  1       21 0.10433823E+00 0.41117998E+03</pdfrwt>
<totfact> 0.97606674E+02</totfact>
</mgrwt>
</event>
<event>
 5    0  0.3774754E+000  0.2854822E+03  0.7546771E-02  0.1092732E+00
         21   -1    0    0  502  501  0.00000000000E+00  0.00000000000E+00  0.22254774735E+03  0.22254774735E+03  0.00000000000E+00 0. -1.
         21   -1    0    0  503  502 -0.00000000000E+00 -0.00000000000E+00 -0.55281235683E+03  0.55281235683E+03  0.00000000000E+00 0. -1.
         25    1    1    2    0    0  0.15106244355E+03 -0.20749748208E+03  0.73098916644E+02  0.29469224376E+03  0.12500000000E+03 0.  0.
         21    1    1    2  503  504 -0.14468420347E+03  0.18649762642E+03 -0.38695553550E+03  0.45326534155E+03  0.00000000000E+00 0. -1.
         21    1    1    2  504  501 -0.63782400822E+01  0.20999855660E+02 -0.16407990626E+02  0.27402518874E+02  0.00000000000E+00 0. -1.
<mgrwt>
<rscale>  4 0.28548217E+03</rscale>
<asrwt>0</asrwt>
<pdfrwt beam="1">  1       21 0.34238115E-01 0.28548217E+03</pdfrwt>
<pdfrwt beam="2">  1       21 0.85048055E-01 0.28548217E+03</pdfrwt>
<totfact> 0.93108298E+03</totfact>
</mgrwt>
</event>
<event>
 5    0  0.2159162E+000  0.2379748E+03  0.7546771E-02  0.1121149E+00
         21   -1    0    0  502  501  0.00000000000E+00  0.00000000000E+00  0.41007301963E+03  0.41007301963E+03  0.00000000000E+00 0.  1.
         21   -1    0    0  503  502 -0.00000000000E+00 -0.00000000000E+00 -0.14920925203E+03  0.14920925203E+03  0.00000000000E+00 0.  1.
         25    1    1    2    0    0 -0.46585340056E+02 -0.19707060271E+03  0.27653426250E+02  0.23957614310E+03  0.12500000000E+03 0.  0.
         21    1    1    2  503  504  0.46396654016E+02  0.14370160495E+03  0.11435940975E+03  0.18942247852E+03  0.00000000000E+00 0.  1.
         21    1    1    2  504  501  0.18868604010E+00  0.53368997758E+02  0.11885093160E+03  0.13028365003E+03  0.00000000000E+00 0.  1.
<mgrwt>
<rscale>  4 0.23797482E+03</rscale>
<asrwt>0</asrwt>
<pdfrwt beam="1">  1       21 0.63088156E-01 0.23797482E+03</pdfrwt>
<pdfrwt beam="2">  1       21 0.22955270E-01 0.23797482E+03</pdfrwt>
<totfact> 0.40527533E+04</totfact>
</mgrwt>
</event>
<event>
 5    0  0.2159162E+000  0.3082271E+03  0.7546771E-02  0.1081199E+00
         21   -1    0    0  502  501  0.00000000000E+00  0.00000000000E+00  0.52511039385E+03  0.52511039385E+03  0.00000000000E+00 0.  1.
         21   -1    0    0  503  502 -0.00000000000E+00 -0.00000000000E+00 -0.18909030784E+03  0.18909030784E+03  0.00000000000E+00 0. -1.
         25    1    1    2    0    0  0.37254028444E+02 -0.27926886474E+03  0.26408038036E+03  0.40588472347E+03  0.12500000000E+03 0.  0.
         21    1    1    2  503  504  0.19783503391E+02  0.14135372799E+03  0.70201942831E+02  0.15906154846E+03  0.00000000000E+00 0. -1.
         21    1    1    2  504  501 -0.57037531835E+02  0.13791513676E+03  0.17377628124E+01  0.14925442976E+03  0.00000000000E+00 0. -1.
<mgrwt>
<rscale>  4 0.30822713E+03</rscale>
<asrwt>0</asrwt>
<pdfrwt beam="1">  1       21 0.80786214E-01 0.30822713E+03</pdfrwt>
<pdfrwt beam="2">  1       21 0.29090817E-01 0.30822713E+03</pdfrwt>
<totfact> 0.14325740E+04</totfact>
</mgrwt>
</event>
<event>
 5    0  0.2159162E+000  0.3884553E+03  0.7546771E-02  0.1049416E+00
         21   -1    0    0  502  501  0.00000000000E+00  0.00000000000E+00  0.24478871402E+03  0.24478871402E+03  0.00000000000E+00 0.  1.
         21   -1    0    0  503  502 -0.00000000000E+00 -0.00000000000E+00 -0.68926471401E+03  0.68926471401E+03  0.00000000000E+00 0.  1.
         25    1    1    2    0    0 -0.32319600462E+03  0.13380149754E+03 -0.40581994444E+02  0.37367150871E+03  0.12500000000E+03 0.  0.
         21    1    1    2  503  504  0.21896964370E+03 -0.11028244901E+01 -0.21080009609E+03  0.30394999851E+03  0.00000000000E+00 0.  1.
         21    1    1    2  504  501  0.10422636092E+03 -0.13269867305E+03 -0.19309390945E+03  0.25643192080E+03  0.00000000000E+00 0.  1.
<mgrwt>
<rscale>  4 0.38413528E+03</rscale>
<asrwt>0</asrwt>
<pdfrwt beam="1">  1       21 0.37659802E-01 0.38845531E+03</pdfrwt>
<pdfrwt beam="2">  1       21 0.10604072E+00 0.38845531E+03</pdfrwt>
<totfact> 0.43421989E+03</totfact>
</mgrwt>
</event>
<event>
 5    0  0.2159162E+000  0.3657220E+03  0.7546771E-02  0.1056341E+00
         21   -1    0    0  502  501  0.00000000000E+00  0.00000000000E+00  0.15654473517E+04  0.15654473517E+04  0.00000000000E+00 0. -1.
         21   -1    0    0  503  502 -0.00000000000E+00 -0.00000000000E+00 -0.12085704300E+03  0.12085704300E+03  0.00000000000E+00 0. -1.
         25    1    1    2    0    0  0.24659677746E+03  0.23941095764E+03  0.12165410201E+04  0.12703246163E+04  0.12500000000E+03 0.  0.
         21    1    1    2  503  504 -0.21272656401E+03 -0.22848397946E+03  0.20124434607E+03  0.37142537168E+03  0.00000000000E+00 0. -1.
         21    1    1    2  504  501 -0.33870213458E+02 -0.10926978183E+02  0.26804942573E+02  0.44554406720E+02  0.00000000000E+00 0. -1.
<mgrwt>
<rscale>  4 0.36572199E+03</rscale>
<asrwt>0</asrwt>
<pdfrwt beam="1">  1       21 0.24083804E+00 0.36572199E+03</pdfrwt>
<pdfrwt beam="2">  1       21 0.18593392E-01 0.36572199E+03</pdfrwt>
<totfact> 0.17308242E+03</totfact>
</mgrwt>
</event>
