<event>
 5    0  0.1828625E+000  0.7464931E+03  0.7546771E-02  0.9640868E-01
         21   -1    0    0  502  501  0.00000000000E+00  0.00000000000E+00  0.21658501485E+03  0.21658501485E+03  0.00000000000E+00 0. -1.
         21   -1    0    0  504  502 -0.00000000000E+00 -0.00000000000E+00 -0.10234011848E+04  0.10234011848E+04  0.00000000000E+00 0. -1.
         25    1    1    2    0    0  0.15182685047E+03  0.24424762195E+03 -0.29611333818E+03  0.43129618871E+03  0.12500000000E+03 0.  0.
         21    1    1    2  503  501  0.13896638795E+03  0.74562875766E+02 -0.26165099969E+02  0.15986210270E+03  0.00000000000E+00 0. -1.
         21    1    1    2  504  503 -0.29079323842E+03 -0.31881049772E+03 -0.48453773185E+03  0.64882790827E+03  0.00000000000E+00 0. -1.
<mgrwt>
<rscale>  4 0.74649312E+03</rscale>
<asrwt>0</asrwt>
<pdfrwt beam="1">  1       21 0.33320772E-01 0.74649312E+03</pdfrwt>
<pdfrwt beam="2">  1       21 0.15744633E+00 0.74649312E+03</pdfrwt>
<totfact> 0.17799024E+03</totfact>
</mgrwt>
</event>
<event>
 5    0  0.1828625E+000  0.4907825E+03  0.7546771E-02  0.1016213E+00
         21   -1    0    0  502  501  0.00000000000E+00  0.00000000000E+00  0.93147995117E+02  0.93147995117E+02  0.00000000000E+00 0. -1.
         21   -1    0    0  504  502 -0.00000000000E+00 -0.00000000000E+00 -0.12331083155E+04  0.12331083155E+04  0.00000000000E+00 0. -1.
         25    1    1    2    0    0  0.18438815707E+03 -0.79521633058E+02 -0.98961380604E+03  0.10174886573E+04  0.12500000000E+03 0.  0.
         21    1    1    2  503  501 -0.16781797114E+02  0.19921212643E+02  0.40321144499E+02  0.48002897009E+02  0.00000000000E+00 0. -1.
         21    1    1    2  504  503 -0.16760635995E+03  0.59600420415E+02 -0.19066765882E+03  0.26076475631E+03  0.00000000000E+00 0. -1.
<mgrwt>
<rscale>  4 0.49078249E+03</rscale>
<asrwt>0</asrwt>
<pdfrwt beam="1">  1       21 0.14330462E-01 0.49078249E+03</pdfrwt>
<pdfrwt beam="2">  1       21 0.18970896E+00 0.49078249E+03</pdfrwt>
<totfact> 0.56917544E+03</totfact>
</mgrwt>
</event>
<event>
 5    0  0.1828625E+000  0.5567793E+03  0.7546771E-02  0.9999369E-01
         21   -1    0    0  502  501  0.00000000000E+00  0.00000000000E+00  0.39628546832E+03  0.39628546832E+03  0.00000000000E+00 0. -1.
         21   -1    0    0  504  502 -0.00000000000E+00 -0.00000000000E+00 -0.29169335556E+03  0.29169335556E+03  0.00000000000E+00 0. -1.
         25    1    1    2    0    0  0.15084465755E+03  0.15635771180E+03  0.12394704453E+03  0.27962423822E+03  0.12500000000E+03 0.  0.
         21    1    1    2  503  501 -0.93068915909E+01  0.32904826954E+02  0.12622943872E+03  0.13077926849E+03  0.00000000000E+00 0. -1.
         21    1    1    2  504  503 -0.14153776596E+03 -0.18926253876E+03 -0.14558437049E+03  0.27757531717E+03  0.00000000000E+00 0. -1.
<mgrwt>
<rscale>  4 0.55677928E+03</rscale>
<asrwt>0</asrwt>
<pdfrwt beam="1">  1       21 0.60966995E-01 0.55677928E+03</pdfrwt>
<pdfrwt beam="2">  1       21 0.44875901E-01 0.55677928E+03</pdfrwt>
<totfact> 0.10370202E+04</totfact>
</mgrwt>
</event>
<event>
 5    0  0.1828625E+000  0.8843978E+03  0.7546771E-02  0.9445298E-01
         21   -1    0    0  503  501  0.00000000000E+00  0.00000000000E+00  0.91776968538E+03  0.91776968538E+03  0.00000000000E+00 0. -1.
         21   -1    0    0  504  502 -0.00000000000E+00 -0.00000000000E+00 -0.28266286378E+03  0.28266286378E+03  0.00000000000E+00 0. -1.
         25    1    1    2    0    0  0.15374590519E+02 -0.43884863917E+03  0.27202110765E+03  0.53145553825E+03  0.12500000000E+03 0.  0.
         21    1    1    2  503  502 -0.31791170902E+02  0.42030781388E+03  0.13945400705E+03  0.44397832947E+03  0.00000000000E+00 0. -1.
         21    1    1    2  504  501  0.16416580383E+02  0.18540825285E+02  0.22363170691E+03  0.22499868144E+03  0.00000000000E+00 0. -1.
<mgrwt>
<rscale>  4 0.88439780E+03</rscale>
<asrwt>0</asrwt>
<pdfrwt beam="1">  1       21 0.14119533E+00 0.88439780E+03</pdfrwt>
<pdfrwt beam="2">  1       21 0.43486595E-01 0.88439780E+03</pdfrwt>
<totfact> 0.13452917E+03</totfact>
</mgrwt>
</event>
<event>
 5    0  0.1828625E+000  0.6414705E+03  0.7546771E-02  0.9822917E-01
         21   -1    0    0  503  501  0.00000000000E+00  0.00000000000E+00  0.62421615359E+03  0.62421615359E+03  0.00000000000E+00 0. -1.
         21   -1    0    0  504  502 -0.00000000000E+00 -0.00000000000E+00 -0.73415226068E+03  0.73415226068E+03  0.00000000000E+00 0. -1.
         25    1    1    2    0    0  0.15694319964E+03 -0.19645922938E+03 -0.58784803721E+03  0.65147349261E+03  0.12500000000E+03 0.  0.
         21    1    1    2  503  502 -0.17832500923E+03  0.13011364608E+03 -0.31890956871E+01  0.22077033348E+03  0.00000000000E+00 0.  1.
         21    1    1    2  504  501  0.21381809596E+02  0.66345583299E+02  0.48110102580E+03  0.48612458818E+03  0.00000000000E+00 0. -1.
<mgrwt>
<rscale>  4 0.64147050E+03</rscale>
<asrwt>0</asrwt>
<pdfrwt beam="1">  1       21 0.96033255E-01 0.64147050E+03</pdfrwt>
<pdfrwt beam="2">  1       21 0.11294650E+00 0.64147050E+03</pdfrwt>
<totfact> 0.42983040E+02</totfact>
</mgrwt>
</event>
<event>
 5    0  0.1828625E+000  0.4822215E+03  0.7546771E-02  0.1018526E+00
         21   -1    0    0  503  501  0.00000000000E+00  0.00000000000E+00  0.51954437964E+03  0.51954437964E+03  0.00000000000E+00 0.  1.
         21   -1    0    0  504  502 -0.00000000000E+00 -0.00000000000E+00 -0.12455576059E+03  0.12455576059E+03  0.00000000000E+00 0.  1.
         25    1    1    2    0    0 -0.20285633486E+03 -0.32910131391E+02  0.65573718612E+02  0.24931642929E+03  0.12500000000E+03 0.  0.
         21    1    1    2  503  502  0.71985443159E+01  0.19680207208E+02  0.40506888319E+02  0.45606332864E+02  0.00000000000E+00 0. -1.
         21    1    1    2  504  501  0.19565779054E+03  0.13229924183E+02  0.28890801212E+03  0.34917737808E+03  0.00000000000E+00 0.  1.
<mgrwt>
<rscale>  4 0.48222146E+03</rscale>
<asrwt>0</asrwt>
<pdfrwt beam="1">  1       21 0.79929903E-01 0.48222146E+03</pdfrwt>
<pdfrwt beam="2">  1       21 0.19162425E-01 0.48222146E+03</pdfrwt>
<totfact> 0.31153357E+04</totfact>
</mgrwt>
</event>
<event>
 5    0  0.1828625E+000  0.4009688E+03  0.7546771E-02  0.1043445E+00
         21   -1    0    0  503  501  0.00000000000E+00  0.00000000000E+00  0.10869044969E+04  0.10869044969E+04  0.00000000000E+00 0. -1.
         21   -1    0    0  504  502 -0.00000000000E+00 -0.00000000000E+00 -0.76181010422E+02  0.76181010422E+02  0.00000000000E+00 0. -1.
         25    1    1    2    0    0 -0.17876681815E+03  0.15029993286E+03  0.32504171065E+03  0.41931462979E+03  0.12500000000E+03 0.  0.
         21    1    1    2  503  502  0.79223744775E+02 -0.82965206164E+01  0.41303009371E+03  0.42064128697E+03  0.00000000000E+00 0.  1.
         21    1    1    2  504  501  0.99543073370E+02 -0.14200341225E+03  0.27265168216E+03  0.32312959061E+03  0.00000000000E+00 0. -1.
<mgrwt>
<rscale>  4 0.40096877E+03</rscale>
<asrwt>0</asrwt>
<pdfrwt beam="1">  1       21 0.16721607E+00 0.40096877E+03</pdfrwt>
<pdfrwt beam="2">  1       21 0.11720156E-01 0.40096877E+03</pdfrwt>
<totfact> 0.12257323E+04</totfact>
</mgrwt>
</event>
<event>
 5    0  0.1828625E+000  0.6930136E+03  0.7546771E-02  0.9729255E-01
         21   -1    0    0  503  501  0.00000000000E+00  0.00000000000E+00  0.40875832705E+03  0.40875832705E+03  0.00000000000E+00 0.  1.
         21   -1    0    0  504  502 -0.00000000000E+00 -0.00000000000E+00 -0.57820383909E+03  0.57820383909E+03  0.00000000000E+00 0.  1.
         25    1    1    2    0    0 -0.18644412430E+03  0.33512558198E+03 -0.26991938996E+02  0.40425750699E+03  0.12500000000E+03 0.  0.
         21    1    1    2  503  502  0.12555805915E+03 -0.12925852291E+03  0.13980921025E+03  0.22807719578E+03  0.00000000000E+00 0.  1.
         21    1    1    2  504  501  0.60886065149E+02 -0.20586705907E+03 -0.28226278330E+03  0.35462746337E+03  0.00000000000E+00 0.  1.
<mgrwt>
<rscale>  4 0.69301365E+03</rscale>
<asrwt>0</asrwt>
<pdfrwt beam="1">  1       21 0.62885896E-01 0.69301365E+03</pdfrwt>
<pdfrwt beam="2">  1       21 0.88954437E-01 0.69301365E+03</pdfrwt>
<totfact> 0.20353804E+03</totfact>
</mgrwt>
</event>
<event>
 5    0  0.1828625E+000  0.3896894E+03  0.7546771E-02  0.1047410E+00
         21   -1    0    0  504  501  0.00000000000E+00  0.00000000000E+00  0.89128108687E+03  0.89128108687E+03  0.00000000000E+00 0.  1.
         21   -1    0    0  501  502 -0.00000000000E+00 -0.00000000000E+00 -0.17860773784E+03  0.17860773784E+03  0.00000000000E+00 0.  1.
         25    1    1    2    0    0  0.91156587717E+02 -0.18884413859E+03 -0.60391197469E+02  0.25148305886E+03  0.12500000000E+03 0.  0.
         21    1    1    2  503  502 -0.38013213956E+02  0.85070530623E+02  0.10558270183E+03  0.14081799083E+03  0.00000000000E+00 0. -1.
         21    1    1    2  504  503 -0.53143373761E+02  0.10377360796E+03  0.66748184468E+03  0.67758777502E+03  0.00000000000E+00 0.  1.
<mgrwt>
<rscale>  4 0.38968942E+03</rscale>
<asrwt>0</asrwt>
<pdfrwt beam="1">  1       21 0.13712016E+00 0.38968942E+03</pdfrwt>
<pdfrwt beam="2">  1       21 0.27478114E-01 0.38968942E+03</pdfrwt>
<totfact> 0.42487368E+03</totfact>
</mgrwt>
</event>
<event>
 5    0  0.1828625E+000  0.4804970E+03  0.7546771E-02  0.1018999E+00
         21   -1    0    0  503  501  0.00000000000E+00  0.00000000000E+00  0.10316094307E+04  0.10316094307E+04  0.00000000000E+00 0.  1.
         21   -1    0    0  504  502 -0.00000000000E+00 -0.00000000000E+00 -0.13768934431E+03  0.13768934431E+03  0.00000000000E+00 0.  1.
         25    1    1    2    0    0  0.24617472866E+03 -0.10205080512E+02  0.22179441574E+03  0.35429352739E+03  0.12500000000E+03 0.  0.
         21    1    1    2  503  502 -0.93195406524E+02  0.14218132524E+03  0.55721786712E+03  0.58257417080E+03  0.00000000000E+00 0.  1.
         21    1    1    2  504  501 -0.15297932214E+03 -0.13197624473E+03  0.11490780358E+03  0.23243107687E+03  0.00000000000E+00 0.  1.
<mgrwt>
<rscale>  4 0.48049701E+03</rscale>
<asrwt>0</asrwt>
<pdfrwt beam="1">  1       21 0.15870914E+00 0.48049701E+03</pdfrwt>
<pdfrwt beam="2">  1       21 0.21182977E-01 0.48049701E+03</pdfrwt>
<totfact> 0.45802594E+03</totfact>
</mgrwt>
</event>
<event>
 5    0  0.1828625E+000  0.4580971E+03  0.7546771E-02  0.1025335E+00
         21   -1    0    0  502  501  0.00000000000E+00  0.00000000000E+00  0.11657939430E+04  0.11657939430E+04  0.00000000000E+00 0.  1.
         21   -1    0    0  504  502 -0.00000000000E+00 -0.00000000000E+00 -0.14001734569E+03  0.14001734569E+03  0.00000000000E+00 0.  1.
         25    1    1    2    0    0 -0.64813467745E+02  0.22183564518E+03  0.64459345205E+02  0.27053991620E+03  0.12500000000E+03 0.  0.
         21    1    1    2  503  501 -0.66074129526E+02 -0.11866724075E+03  0.76850415079E+03  0.78041420695E+03  0.00000000000E+00 0.  1.
         21    1    1    2  504  503  0.13088759727E+03 -0.10316840444E+03  0.19281310136E+03  0.25485716558E+03  0.00000000000E+00 0. -1.
<mgrwt>
<rscale>  4 0.45809713E+03</rscale>
<asrwt>0</asrwt>
<pdfrwt beam="1">  1       21 0.17935291E+00 0.45809713E+03</pdfrwt>
<pdfrwt beam="2">  1       21 0.21541131E-01 0.45809713E+03</pdfrwt>
<totfact> 0.31567392E+03</totfact>
</mgrwt>
</event>
<event>
 5    0  0.1828625E+000  0.5636942E+03  0.7546771E-02  0.9983730E-01
         21   -1    0    0  502  501  0.00000000000E+00  0.00000000000E+00  0.60884719817E+03  0.60884719817E+03  0.00000000000E+00 0.  1.
         21   -1    0    0  504  502 -0.00000000000E+00 -0.00000000000E+00 -0.14612751514E+03  0.14612751514E+03  0.00000000000E+00 0.  1.
         25    1    1    2    0    0 -0.13317041917E+03  0.23914109550E+03  0.15997948118E+03  0.34079503884E+03  0.12500000000E+03 0.  0.
         21    1    1    2  503  501 -0.40964606581E+01 -0.26507538471E+02  0.48610605753E+02  0.55519560314E+02  0.00000000000E+00 0. -1.
         21    1    1    2  504  503  0.13726687982E+03 -0.21263355703E+03  0.25412959610E+03  0.35866011416E+03  0.00000000000E+00 0.  1.
<mgrwt>
<rscale>  4 0.56369423E+03</rscale>
<asrwt>0</asrwt>
<pdfrwt beam="1">  1       21 0.93668798E-01 0.56369423E+03</pdfrwt>
<pdfrwt beam="2">  1       21 0.22481157E-01 0.56369423E+03</pdfrwt>
<totfact> 0.15498460E+04</totfact>
</mgrwt>
</event>
<event>
 5    0  0.1828625E+000  0.5422075E+03  0.7546771E-02  0.1003314E+00
         21   -1    0    0  504  501  0.00000000000E+00  0.00000000000E+00  0.39884679978E+03  0.39884679978E+03  0.00000000000E+00 0. -1.
         21   -1    0    0  503  502 -0.00000000000E+00 -0.00000000000E+00 -0.30694988786E+03  0.30694988786E+03  0.00000000000E+00 0. -1.
         25    1    1    2    0    0  0.63153030194E+02 -0.27562429582E+03 -0.98948655295E+02  0.32461191299E+03  0.12500000000E+03 0.  0.
         21    1    1    2  503  501 -0.30546456005E+02  0.21311139445E+03  0.46084350748E+02  0.22016657286E+03  0.00000000000E+00 0. -1.
         21    1    1    2  504  502 -0.32606574189E+02  0.62512901367E+02  0.14476121647E+03  0.16101820180E+03  0.00000000000E+00 0. -1.
<mgrwt>
<rscale>  4 0.54220749E+03</rscale>
<asrwt>0</asrwt>
<pdfrwt beam="1">  1       21 0.61361046E-01 0.54220749E+03</pdfrwt>
<pdfrwt beam="2">  1       21 0.47223059E-01 0.54220749E+03</pdfrwt>
<totfact> 0.92126727E+03</totfact>
</mgrwt>
</event>
<event>
 5    0  0.1828625E+000  0.7801188E+03  0.7546771E-02  0.9589249E-01
         21   -1    0    0  502  501  0.00000000000E+00  0.00000000000E+00  0.75062868537E+03  0.75062868537E+03  0.00000000000E+00 0.  1.
         21   -1    0    0  504  502 -0.00000000000E+00 -0.00000000000E+00 -0.25285809147E+03  0.25285809147E+03  0.00000000000E+00 0. -1.
         25    1    1    2    0    0  0.34355918017E+02  0.30304685560E+03 -0.86143451234E+02  0.34068081834E+03  0.12500000000E+03 0.  0.
         21    1    1    2  503  501 -0.11886637981E+01 -0.39284660943E+02  0.13968706891E+03  0.14511090492E+03  0.00000000000E+00 0.  1.
         21    1    1    2  504  503 -0.33167254219E+02 -0.26376219466E+03  0.44422697623E+03  0.51769505357E+03  0.00000000000E+00 0.  1.
<mgrwt>
<rscale>  4 0.78011879E+03</rscale>
<asrwt>0</asrwt>
<pdfrwt beam="1">  1       21 0.11548134E+00 0.78011879E+03</pdfrwt>
<pdfrwt beam="2">  1       21 0.38901245E-01 0.78011879E+03</pdfrwt>
<totfact> 0.29441597E+03</totfact>
</mgrwt>
</event>
<event>
 5    0  0.1828625E+000  0.4800709E+03  0.7546771E-02  0.1019116E+00
         21   -1    0    0  504  501  0.00000000000E+00  0.00000000000E+00  0.27818855410E+03  0.27818855410E+03  0.00000000000E+00 0. -1.
         21   -1    0    0  501  502 -0.00000000000E+00 -0.00000000000E+00 -0.24594878241E+03  0.24594878241E+03  0.00000000000E+00 0. -1.
         25    1    1    2    0    0 -0.81608918904E+02 -0.22115195604E+03  0.83224158128E+01  0.26695030607E+03  0.12500000000E+03 0.  0.
         21    1    1    2  503  502  0.52572015884E+02  0.20646054113E+03 -0.57858434373E+01  0.21312730441E+03  0.00000000000E+00 0. -1.
         21    1    1    2  504  503  0.29036903020E+02  0.14691414907E+02  0.29703199308E+02  0.44059726033E+02  0.00000000000E+00 0. -1.
<mgrwt>
<rscale>  4 0.48007091E+03</rscale>
<asrwt>0</asrwt>
<pdfrwt beam="1">  1       21 0.42798239E-01 0.48007091E+03</pdfrwt>
<pdfrwt beam="2">  1       21 0.37838274E-01 0.48007091E+03</pdfrwt>
<totfact> 0.32083963E+04</totfact>
</mgrwt>
</event>
<event>
 5    0  0.1828625E+000  0.5171564E+03  0.7546771E-02  0.1009395E+00
         21   -1    0    0  502  501  0.00000000000E+00  0.00000000000E+00  0.75602656197E+03  0.75602656197E+03  0.00000000000E+00 0.  1.
         21   -1    0    0  503  502 -0.00000000000E+00 -0.00000000000E+00 -0.33794178486E+03  0.33794178486E+03  0.00000000000E+00 0. -1.
         25    1    1    2    0    0 -0.15914118618E+03 -0.19163403276E+03  0.54746964982E+01  0.27875525457E+03  0.12500000000E+03 0.  0.
         21    1    1    2  503  504  0.14325068760E+03  0.15660124673E+03 -0.14451148401E+03  0.25676502680E+03  0.00000000000E+00 0.  1.
         21    1    1    2  504  501  0.15890498578E+02  0.35032786029E+02  0.55712156463E+03  0.55844806546E+03  0.00000000000E+00 0.  1.
<mgrwt>
<rscale>  4 0.51715640E+03</rscale>
<asrwt>0</asrwt>
<pdfrwt beam="1">  1       21 0.11631178E+00 0.51715640E+03</pdfrwt>
<pdfrwt beam="2">  1       21 0.51991044E-01 0.51715640E+03</pdfrwt>
<totfact> 0.16776835E+03</totfact>
</mgrwt>
</event>
<event>
 5    0  0.1828625E+000  0.5620644E+03  0.7546771E-02  0.9987394E-01
         21   -1    0    0  503  501  0.00000000000E+00  0.00000000000E+00  0.11588520446E+04  0.11588520446E+04  0.00000000000E+00 0.  1.
         21   -1    0    0  504  502 -0.00000000000E+00 -0.00000000000E+00 -0.24503085960E+03  0.24503085960E+03  0.00000000000E+00 0.  1.
         25    1    1    2    0    0 -0.73016481931E+02  0.20524110250E+03  0.13504323144E+03  0.28516134231E+03  0.12500000000E+03 0.  0.
         21    1    1    2  503  502  0.32484050542E+01  0.63009853213E+02  0.83376145539E+03  0.83614529732E+03  0.00000000000E+00 0.  1.
         21    1    1    2  504  501  0.69768076877E+02 -0.26825095572E+03 -0.54983501876E+02  0.28257626452E+03  0.00000000000E+00 0.  1.
<mgrwt>
<rscale>  4 0.56206444E+03</rscale>
<asrwt>0</asrwt>
<pdfrwt beam="1">  1       21 0.17828493E+00 0.56206444E+03</pdfrwt>
<pdfrwt beam="2">  1       21 0.37697056E-01 0.56206444E+03</pdfrwt>
<totfact> 0.10203208E+03</totfact>
</mgrwt>
</event>
<event>
 5    0  0.1828625E+000  0.5272282E+03  0.7546771E-02  0.1006907E+00
         21   -1    0    0  504  501  0.00000000000E+00  0.00000000000E+00  0.67183159976E+03  0.67183159976E+03  0.00000000000E+00 0. -1.
         21   -1    0    0  503  502 -0.00000000000E+00 -0.00000000000E+00 -0.11989606189E+03  0.11989606189E+03  0.00000000000E+00 0. -1.
         25    1    1    2    0    0 -0.94050873849E+02  0.20741609228E+03  0.45605529031E+03  0.52486039099E+03  0.12500000000E+03 0.  0.
         21    1    1    2  503  501  0.55035197461E+02 -0.19822651805E+03  0.63388494325E+02  0.21526896346E+03  0.00000000000E+00 0. -1.
         21    1    1    2  504  502  0.39015676388E+02 -0.91895742245E+01  0.32491753233E+02  0.51598307207E+02  0.00000000000E+00 0.  1.
<mgrwt>
<rscale>  4 0.52722824E+03</rscale>
<asrwt>0</asrwt>
<pdfrwt beam="1">  1       21 0.10335871E+00 0.52722824E+03</pdfrwt>
<pdfrwt beam="2">  1       21 0.18445548E-01 0.52722824E+03</pdfrwt>
<totfact> 0.17963376E+04</totfact>
</mgrwt>
</event>
<event>
 5    0  0.1828625E+000  0.6385537E+03  0.7546771E-02  0.9828498E-01
         21   -1    0    0  503  501  0.00000000000E+00  0.00000000000E+00  0.39581514700E+03  0.39581514700E+03  0.00000000000E+00 0.  1.
         21   -1    0    0  504  502 -0.00000000000E+00 -0.00000000000E+00 -0.32657453682E+03  0.32657453682E+03  0.00000000000E+00 0. -1.
         25    1    1    2    0    0  0.31115470181E+02 -0.26020680034E+03 -0.15662121742E+03  0.32989537308E+03  0.12500000000E+03 0.  0.
         21    1    1    2  503  502 -0.30830860763E+02 -0.10357468602E+02  0.77216006701E+02  0.83786220956E+02  0.00000000000E+00 0.  1.
         21    1    1    2  504  501 -0.28460941841E+00  0.27056426895E+03  0.14864582090E+03  0.30870808980E+03  0.00000000000E+00 0.  1.
<mgrwt>
<rscale>  4 0.63855366E+03</rscale>
<asrwt>0</asrwt>
<pdfrwt beam="1">  1       21 0.60894638E-01 0.63855366E+03</pdfrwt>
<pdfrwt beam="2">  1       21 0.50242236E-01 0.63855366E+03</pdfrwt>
<totfact> 0.80335683E+03</totfact>
</mgrwt>
</event>
<event>
 5    0  0.1828625E+000  0.5197929E+03  0.7546771E-02  0.1008738E+00
         21   -1    0    0  502  501  0.00000000000E+00  0.00000000000E+00  0.71821176902E+03  0.71821176902E+03  0.00000000000E+00 0.  1.
         21   -1    0    0  504  502 -0.00000000000E+00 -0.00000000000E+00 -0.50398255934E+03  0.50398255934E+03  0.00000000000E+00 0.  1.
         25    1    1    2    0    0 -0.22785045041E+03 -0.58106442659E+02 -0.48087989064E+02  0.27060975800E+03  0.12500000000E+03 0.  0.
         21    1    1    2  503  501  0.60407133322E+02 -0.33316098489E+01  0.58220139264E+03  0.58533629904E+03  0.00000000000E+00 0.  1.
         21    1    1    2  504  503  0.16744331709E+03  0.61438052508E+02 -0.31988419390E+03  0.36624827131E+03  0.00000000000E+00 0.  1.
<mgrwt>
<rscale>  4 0.51979286E+03</rscale>
<asrwt>0</asrwt>
<pdfrwt beam="1">  1       21 0.11049412E+00 0.51979286E+03</pdfrwt>
<pdfrwt beam="2">  1       21 0.77535778E-01 0.51979286E+03</pdfrwt>
<totfact> 0.78434811E+02</totfact>
</mgrwt>
</event>
<event>
 5    0  0.1828625E+000  0.4205802E+03  0.7546771E-02  0.1036878E+00
         21   -1    0    0  503  501  0.00000000000E+00  0.00000000000E+00  0.10106540418E+04  0.10106540418E+04  0.00000000000E+00 0.  1.
         21   -1    0    0  504  502 -0.00000000000E+00 -0.00000000000E+00 -0.45301347144E+03  0.45301347144E+03  0.00000000000E+00 0.  1.
         25    1    1    2    0    0 -0.57010513870E+02 -0.27987300653E+03 -0.30822920849E+03  0.43841686035E+03  0.12500000000E+03 0.  0.
         21    1    1    2  503  502  0.12961432348E+02  0.19196429946E+03  0.90063607705E+03  0.92095799810E+03  0.00000000000E+00 0.  1.
         21    1    1    2  504  501  0.44049081522E+02  0.87908707074E+02 -0.34766298155E+02  0.10429265482E+03  0.00000000000E+00 0.  1.
<mgrwt>
<rscale>  4 0.42058019E+03</rscale>
<asrwt>0</asrwt>
<pdfrwt beam="1">  1       21 0.15548524E+00 0.42058019E+03</pdfrwt>
<pdfrwt beam="2">  1       21 0.69694380E-01 0.42058019E+03</pdfrwt>
<totfact> 0.42774278E+02</totfact>
</mgrwt>
</event>
<event>
 5    0  0.1828625E+000  0.4084812E+03  0.7546771E-02  0.1040882E+00
         21   -1    0    0  504  501  0.00000000000E+00  0.00000000000E+00  0.15611107682E+03  0.15611107682E+03  0.00000000000E+00 0. -1.
         21   -1    0    0  503  502 -0.00000000000E+00 -0.00000000000E+00 -0.10759469721E+04  0.10759469721E+04  0.00000000000E+00 0.  1.
         25    1    1    2    0    0 -0.18132032394E+03 -0.17219684766E+03 -0.53541170965E+03  0.60400290815E+03  0.12500000000E+03 0.  0.
         21    1    1    2  503  501  0.91566646111E+02  0.55512781865E+02 -0.45312328834E+03  0.46560373073E+03  0.00000000000E+00 0.  1.
         21    1    1    2  504  502  0.89753677825E+02  0.11668406580E+03  0.68699102756E+02  0.16245141001E+03  0.00000000000E+00 0. -1.
<mgrwt>
<rscale>  4 0.40848124E+03</rscale>
<asrwt>0</asrwt>
<pdfrwt beam="1">  1       21 0.24017089E-01 0.40848124E+03</pdfrwt>
<pdfrwt beam="2">  1       21 0.16553030E+00 0.40848124E+03</pdfrwt>
<totfact> 0.32853793E+03</totfact>
</mgrwt>
</event>
<event>
 5    0  0.1828625E+000  0.4952758E+03  0.7546771E-02  0.1015019E+00
         21   -1    0    0  502  501  0.00000000000E+00  0.00000000000E+00  0.47484120270E+03  0.47484120270E+03  0.00000000000E+00 0.  1.
         21   -1    0    0  503  502 -0.00000000000E+00 -0.00000000000E+00 -0.16904186715E+03  0.16904186715E+03  0.00000000000E+00 0. -1.
         25    1    1    2    0    0  0.23677061583E+03  0.23789913497E+02  0.52138817756E+02  0.27380602773E+03  0.12500000000E+03 0.  0.
         21    1    1    2  503  504 -0.21404125246E+03 -0.27053693045E+01  0.14871409025E+03  0.26064699772E+03  0.00000000000E+00 0.  1.
         21    1    1    2  504  501 -0.22729363365E+02 -0.21084544192E+02  0.10494642755E+03  0.10943004440E+03  0.00000000000E+00 0.  1.
<mgrwt>
<rscale>  4 0.49527583E+03</rscale>
<asrwt>0</asrwt>
<pdfrwt beam="1">  1       21 0.73052492E-01 0.49527583E+03</pdfrwt>
<pdfrwt beam="2">  1       21 0.26006441E-01 0.49527583E+03</pdfrwt>
<totfact> 0.21192896E+04</totfact>
</mgrwt>
</event>
<event>
 5    0  0.1828625E+000  0.7978428E+03  0.7546771E-02  0.9563145E-01
         21   -1    0    0  503  501  0.00000000000E+00  0.00000000000E+00  0.35031061900E+03  0.35031061900E+03  0.00000000000E+00 0.  1.
         21   -1    0    0  504  502 -0.00000000000E+00 -0.00000000000E+00 -0.10499080548E+04  0.10499080548E+04  0.00000000000E+00 0. -1.
         25    1    1    2    0    0 -0.68806900776E+02  0.19887225477E+03 -0.96311765686E+03  0.99373295420E+03  0.12500000000E+03 0.  0.
         21    1    1    2  503  502  0.44852346261E+02 -0.63036016851E+01  0.19577737693E+03  0.20094837566E+03  0.00000000000E+00 0.  1.
         21    1    1    2  504  501  0.23954554514E+02 -0.19256865308E+03  0.67742844105E+02  0.20553734396E+03  0.00000000000E+00 0.  1.
<mgrwt>
<rscale>  4 0.79784284E+03</rscale>
<asrwt>0</asrwt>
<pdfrwt beam="1">  1       21 0.53893943E-01 0.79784284E+03</pdfrwt>
<pdfrwt beam="2">  1       21 0.16152431E+00 0.79784284E+03</pdfrwt>
<totfact> 0.59528326E+02</totfact>
</mgrwt>
</event>
<event>
 5    0  0.1828625E+000  0.6084271E+03  0.7546771E-02  0.9888075E-01
         21   -1    0    0  503  501  0.00000000000E+00  0.00000000000E+00  0.11840697180E+04  0.11840697180E+04  0.00000000000E+00 0.  1.
         21   -1    0    0  504  502 -0.00000000000E+00 -0.00000000000E+00 -0.89851688159E+02  0.89851688159E+02  0.00000000000E+00 0.  1.
         25    1    1    2    0    0 -0.22717341076E+03  0.14774801431E+03  0.48815110833E+03  0.57214835388E+03  0.12500000000E+03 0.  0.
         21    1    1    2  503  502  0.27021460945E+03 -0.15187149038E+03  0.51788141262E+03  0.60355782017E+03  0.00000000000E+00 0.  1.
         21    1    1    2  504  501 -0.43041198692E+02  0.41234760653E+01  0.88185508902E+02  0.98215232118E+02  0.00000000000E+00 0.  1.
<mgrwt>
<rscale>  4 0.60842713E+03</rscale>
<asrwt>0</asrwt>
<pdfrwt beam="1">  1       21 0.18216456E+00 0.60842713E+03</pdfrwt>
<pdfrwt beam="2">  1       21 0.13823337E-01 0.60842713E+03</pdfrwt>
<totfact> 0.66324617E+03</totfact>
</mgrwt>
</event>
<event>
 5    0  0.1828625E+000  0.5661139E+03  0.7546771E-02  0.9978315E-01
         21   -1    0    0  503  501  0.00000000000E+00  0.00000000000E+00  0.15126389037E+03  0.15126389037E+03  0.00000000000E+00 0.  1.
         21   -1    0    0  504  502 -0.00000000000E+00 -0.00000000000E+00 -0.15442921540E+04  0.15442921540E+04  0.00000000000E+00 0.  1.
         25    1    1    2    0    0 -0.17018159584E+03 -0.13362428366E+03 -0.13502057896E+04  0.13731343340E+04  0.12500000000E+03 0.  0.
         21    1    1    2  503  502  0.49636661649E+02  0.15057939670E+02  0.92368987018E+02  0.10593662959E+03  0.00000000000E+00 0.  1.
         21    1    1    2  504  501  0.12054493419E+03  0.11856634399E+03 -0.13519146102E+03  0.21648508082E+03  0.00000000000E+00 0. -1.
<mgrwt>
<rscale>  4 0.56611385E+03</rscale>
<asrwt>0</asrwt>
<pdfrwt beam="1">  1       21 0.23271370E-01 0.56611385E+03</pdfrwt>
<pdfrwt beam="2">  1       21 0.23758339E+00 0.56611385E+03</pdfrwt>
<totfact> 0.10756392E+03</totfact>
</mgrwt>
</event>
<event>
 5    0  0.1828625E+000  0.5351957E+03  0.7546771E-02  0.1004980E+00
         21   -1    0    0  502  501  0.00000000000E+00  0.00000000000E+00  0.12698283418E+04  0.12698283418E+04  0.00000000000E+00 0.  1.
         21   -1    0    0  504  502 -0.00000000000E+00 -0.00000000000E+00 -0.17470226186E+03  0.17470226186E+03  0.00000000000E+00 0. -1.
         25    1    1    2    0    0  0.19950479411E+03  0.16542578223E+03  0.28568168789E+02  0.28915219620E+03  0.12500000000E+03 0.  0.
         21    1    1    2  503  501 -0.14541840789E+02 -0.67724670622E+02  0.85522678172E+03  0.85802735639E+03  0.00000000000E+00 0.  1.
         21    1    1    2  504  503 -0.18496295332E+03 -0.97701111607E+02  0.21133112948E+03  0.29735105112E+03  0.00000000000E+00 0.  1.
<mgrwt>
<rscale>  4 0.53519565E+03</rscale>
<asrwt>0</asrwt>
<pdfrwt beam="1">  1       21 0.19535820E+00 0.53519565E+03</pdfrwt>
<pdfrwt beam="2">  1       21 0.26877272E-01 0.53519565E+03</pdfrwt>
<totfact> 0.15462049E+03</totfact>
</mgrwt>
</event>
<event>
 5    0  0.1828625E+000  0.4743766E+03  0.7546771E-02  0.1020692E+00
         21   -1    0    0  504  501  0.00000000000E+00  0.00000000000E+00  0.56855416678E+02  0.56855416678E+02  0.00000000000E+00 0.  1.
         21   -1    0    0  501  502 -0.00000000000E+00 -0.00000000000E+00 -0.13795387645E+04  0.13795387645E+04  0.00000000000E+00 0.  1.
         25    1    1    2    0    0 -0.18318357739E+03 -0.14279562296E+03 -0.77274964950E+03  0.81652546424E+03  0.12500000000E+03 0.  0.
         21    1    1    2  503  502  0.16134240818E+03  0.13457186306E+03 -0.55714468400E+03  0.59544198535E+03  0.00000000000E+00 0.  1.
         21    1    1    2  504  503  0.21841169211E+02  0.82237598938E+01  0.72109857113E+01  0.24426731550E+02  0.00000000000E+00 0. -1.
<mgrwt>
<rscale>  4 0.47437658E+03</rscale>
<asrwt>0</asrwt>
<pdfrwt beam="1">  1       21 0.87469867E-02 0.47437658E+03</pdfrwt>
<pdfrwt beam="2">  1       21 0.21223675E+00 0.47437658E+03</pdfrwt>
<totfact> 0.99255133E+03</totfact>
</mgrwt>
</event>
<event>
 5    0  0.1828625E+000  0.6634018E+03  0.7546771E-02  0.9781952E-01
         21   -1    0    0  503  501  0.00000000000E+00  0.00000000000E+00  0.16841858618E+04  0.16841858618E+04  0.00000000000E+00 0.  1.
         21   -1    0    0  504  502 -0.00000000000E+00 -0.00000000000E+00 -0.12582403836E+03  0.12582403836E+03  0.00000000000E+00 0.  1.
         25    1    1    2    0    0  0.57285474809E+02 -0.22234224353E+03  0.72463889196E+03  0.77035331025E+03  0.12500000000E+03 0.  0.
         21    1    1    2  503  502  0.21718193756E+02  0.68894045758E+01  0.80846927924E+03  0.80879028141E+03  0.00000000000E+00 0.  1.
         21    1    1    2  504  501 -0.79003668565E+02  0.21545283896E+03  0.25253652288E+02  0.23086630853E+03  0.00000000000E+00 0.  1.
<mgrwt>
<rscale>  4 0.66340176E+03</rscale>
<asrwt>0</asrwt>
<pdfrwt beam="1">  1       21 0.25910550E+00 0.66340176E+03</pdfrwt>
<pdfrwt beam="2">  1       21 0.19357546E-01 0.66340176E+03</pdfrwt>
<totfact> 0.10879951E+03</totfact>
</mgrwt>
</event>
<event>
 5    0  0.1828625E+000  0.4959106E+03  0.7546771E-02  0.1014852E+00
         21   -1    0    0  503  501  0.00000000000E+00  0.00000000000E+00  0.73798918408E+03  0.73798918408E+03  0.00000000000E+00 0.  1.
         21   -1    0    0  504  502 -0.00000000000E+00 -0.00000000000E+00 -0.22100415785E+03  0.22100415785E+03  0.00000000000E+00 0.  1.
         25    1    1    2    0    0 -0.24411512710E+03  0.22737802976E+03  0.21460246813E+03  0.41589924624E+03  0.12500000000E+03 0.  0.
         21    1    1    2  503  502  0.11832701833E+03 -0.28799871995E+03  0.21486357838E+03  0.37830001754E+03  0.00000000000E+00 0.  1.
         21    1    1    2  504  501  0.12578810877E+03  0.60620690187E+02  0.87518979718E+02  0.16479407816E+03  0.00000000000E+00 0.  1.
<mgrwt>
<rscale>  4 0.49591064E+03</rscale>
<asrwt>0</asrwt>
<pdfrwt beam="1">  1       21 0.11353680E+00 0.49591064E+03</pdfrwt>
<pdfrwt beam="2">  1       21 0.34000640E-01 0.49591064E+03</pdfrwt>
<totfact> 0.43428514E+03</totfact>
</mgrwt>
</event>
<event>
 5    0  0.1828625E+000  0.1855188E+04  0.7546771E-02  0.8677489E-01
         21   -1    0    0  502  501  0.00000000000E+00  0.00000000000E+00  0.11316928892E+04  0.11316928892E+04  0.00000000000E+00 0.  1.
         21   -1    0    0  503  502 -0.00000000000E+00 -0.00000000000E+00 -0.86847605720E+03  0.86847605720E+03  0.00000000000E+00 0. -1.
         25    1    1    2    0    0 -0.21780319520E+03  0.80493046457E+03 -0.25300398307E+03  0.88033362998E+03  0.12500000000E+03 0.  0.
         21    1    1    2  503  504  0.20577844654E+03 -0.87321498735E+03  0.39511965929E+03  0.98029012458E+03  0.00000000000E+00 0.  1.
         21    1    1    2  504  501  0.12024748664E+02  0.68284522788E+02  0.12110115581E+03  0.13954519186E+03  0.00000000000E+00 0.  1.
<mgrwt>
<rscale>  4 0.18551884E+04</rscale>
<asrwt>0</asrwt>
<pdfrwt beam="1">  1       21 0.17410660E+00 0.18551884E+04</pdfrwt>
<pdfrwt beam="2">  1       21 0.13361170E+00 0.18551884E+04</pdfrwt>
<totfact> 0.44597247E+01</totfact>
</mgrwt>
</event>
<event>
 5    0  0.1828625E+000  0.1120788E+04  0.7546771E-02  0.9185164E-01
         21   -1    0    0  503  501  0.00000000000E+00  0.00000000000E+00  0.39026956475E+03  0.39026956475E+03  0.00000000000E+00 0. -1.
         21   -1    0    0  504  502 -0.00000000000E+00 -0.00000000000E+00 -0.10284830499E+04  0.10284830499E+04  0.00000000000E+00 0. -1.
         25    1    1    2    0    0 -0.80124569148E+02  0.19995102169E+03  0.23820078519E+03  0.34462294137E+03  0.12500000000E+03 0.  0.
         21    1    1    2  503  502 -0.47112641508E+01  0.20497076533E+02  0.83228107730E+02  0.85844301340E+02  0.00000000000E+00 0. -1.
         21    1    1    2  504  501  0.84835833299E+02 -0.22044809822E+03 -0.95964237804E+03  0.98828537192E+03  0.00000000000E+00 0. -1.
<mgrwt>
<rscale>  4 0.11207884E+04</rscale>
<asrwt>0</asrwt>
<pdfrwt beam="1">  1       21 0.60041472E-01 0.11207884E+04</pdfrwt>
<pdfrwt beam="2">  1       21 0.15822816E+00 0.11207884E+04</pdfrwt>
<totfact> 0.46559709E+02</totfact>
</mgrwt>
</event>
<event>
 5    0  0.1828625E+000  0.5869079E+03  0.7546771E-02  0.9932946E-01
         21   -1    0    0  502  501  0.00000000000E+00  0.00000000000E+00  0.57481098919E+03  0.57481098919E+03  0.00000000000E+00 0. -1.
         21   -1    0    0  503  502 -0.00000000000E+00 -0.00000000000E+00 -0.18877968240E+03  0.18877968240E+03  0.00000000000E+00 0. -1.
         25    1    1    2    0    0 -0.20535285900E+03 -0.11388492641E+03 -0.27611657222E+02  0.26744527810E+03  0.12500000000E+03 0.  0.
         21    1    1    2  503  504  0.21396628460E+03  0.93022215534E+02  0.29876725851E+03  0.37907331518E+03  0.00000000000E+00 0. -1.
         21    1    1    2  504  501 -0.86134255940E+01  0.20862710872E+02  0.11487570550E+03  0.11707207831E+03  0.00000000000E+00 0. -1.
<mgrwt>
<rscale>  4 0.58690794E+03</rscale>
<asrwt>0</asrwt>
<pdfrwt beam="1">  1       21 0.88432459E-01 0.58690794E+03</pdfrwt>
<pdfrwt beam="2">  1       21 0.29043028E-01 0.58690794E+03</pdfrwt>
<totfact> 0.10706092E+04</totfact>
</mgrwt>
</event>
<event>
 5    0  0.1828625E+000  0.3488079E+03  0.7546771E-02  0.1063105E+00
         21   -1    0    0  503  501  0.00000000000E+00  0.00000000000E+00  0.39555762487E+02  0.39555762487E+02  0.00000000000E+00 0.  1.
         21   -1    0    0  504  502 -0.00000000000E+00 -0.00000000000E+00 -0.15675056476E+04  0.15675056476E+04  0.00000000000E+00 0.  1.
         25    1    1    2    0    0  0.85415132939E+02  0.20414960149E+03 -0.63730619185E+03  0.68611732735E+03  0.12500000000E+03 0.  0.
         21    1    1    2  503  502 -0.40335652241E+02 -0.14364595903E+03 -0.45567041630E+03  0.47947539528E+03  0.00000000000E+00 0.  1.
         21    1    1    2  504  501 -0.45079480698E+02 -0.60503642457E+02 -0.43497327702E+03  0.44146868751E+03  0.00000000000E+00 0. -1.
<mgrwt>
<rscale>  4 0.34880791E+03</rscale>
<asrwt>0</asrwt>
<pdfrwt beam="1">  1       21 0.60855032E-02 0.34880791E+03</pdfrwt>
<pdfrwt beam="2">  1       21 0.24115466E+00 0.34880791E+03</pdfrwt>
<totfact> 0.13005574E+04</totfact>
</mgrwt>
</event>
<event>
 5    0  0.1828625E+000  0.3737239E+03  0.7546771E-02  0.1053278E+00
         21   -1    0    0  502  501  0.00000000000E+00  0.00000000000E+00  0.45839084832E+03  0.45839084832E+03  0.00000000000E+00 0. -1.
         21   -1    0    0  504  502 -0.00000000000E+00 -0.00000000000E+00 -0.12282403974E+03  0.12282403974E+03  0.00000000000E+00 0.  1.
         25    1    1    2    0    0 -0.20514450867E+03  0.12747381023E+02  0.10256043613E+03  0.26151559842E+03  0.12500000000E+03 0.  0.
         21    1    1    2  503  501  0.74454962806E+02 -0.94533794741E+01  0.14134656961E+03  0.16003674768E+03  0.00000000000E+00 0. -1.
         21    1    1    2  504  503  0.13068954586E+03 -0.32940015486E+01  0.91659802852E+02  0.15966254195E+03  0.00000000000E+00 0. -1.
<mgrwt>
<rscale>  4 0.37372386E+03</rscale>
<asrwt>0</asrwt>
<pdfrwt beam="1">  1       21 0.70521668E-01 0.37372386E+03</pdfrwt>
<pdfrwt beam="2">  1       21 0.18896006E-01 0.37372386E+03</pdfrwt>
<totfact> 0.43718053E+04</totfact>
</mgrwt>
</event>
<event>
 5    0  0.1828625E+000  0.4726521E+03  0.7546771E-02  0.1021174E+00
         21   -1    0    0  502  501  0.00000000000E+00  0.00000000000E+00  0.29975360404E+03  0.29975360404E+03  0.00000000000E+00 0. -1.
         21   -1    0    0  503  502 -0.00000000000E+00 -0.00000000000E+00 -0.11754553942E+04  0.11754553942E+04  0.00000000000E+00 0.  1.
         25    1    1    2    0    0  0.30651428959E+03  0.96482404445E+02 -0.86760448759E+03  0.93360720380E+03  0.12500000000E+03 0.  0.
         21    1    1    2  503  504 -0.94819510089E+02  0.72427046195E+02 -0.18354244133E+03  0.21891606675E+03  0.00000000000E+00 0. -1.
         21    1    1    2  504  501 -0.21169477950E+03 -0.16890945064E+03  0.17544513871E+03  0.32268572773E+03  0.00000000000E+00 0. -1.
<mgrwt>
<rscale>  4 0.47265212E+03</rscale>
<asrwt>0</asrwt>
<pdfrwt beam="1">  1       21 0.46115939E-01 0.47265212E+03</pdfrwt>
<pdfrwt beam="2">  1       21 0.18083929E+00 0.47265212E+03</pdfrwt>
<totfact> 0.66660877E+02</totfact>
</mgrwt>
</event>
<event>
 5    0  0.1828625E+000  0.1003914E+04  0.7546771E-02  0.9304262E-01
         21   -1    0    0  502  501  0.00000000000E+00  0.00000000000E+00  0.92882724617E+03  0.92882724617E+03  0.00000000000E+00 0. -1.
         21   -1    0    0  504  502 -0.00000000000E+00 -0.00000000000E+00 -0.45947102151E+03  0.45947102151E+03  0.00000000000E+00 0.  1.
         25    1    1    2    0    0 -0.17819508516E+03 -0.27019989078E+03  0.40999434420E+03  0.53710504711E+03  0.12500000000E+03 0.  0.
         21    1    1    2  503  501 -0.11083192775E+02 -0.18139312672E+02  0.37980326569E+03  0.38039767672E+03  0.00000000000E+00 0. -1.
         21    1    1    2  504  503  0.18927827794E+03  0.28833920345E+03 -0.32044138523E+03  0.47079554385E+03  0.00000000000E+00 0.  1.
<mgrwt>
<rscale>  4 0.10039143E+04</rscale>
<asrwt>0</asrwt>
<pdfrwt beam="1">  1       21 0.14289650E+00 0.10039143E+04</pdfrwt>
<pdfrwt beam="2">  1       21 0.70687850E-01 0.10039143E+04</pdfrwt>
<totfact> 0.43701161E+02</totfact>
</mgrwt>
</event>
<event>
 5    0  0.1828625E+000  0.5694228E+03  0.7546771E-02  0.9970957E-01
         21   -1    0    0  503  501  0.00000000000E+00  0.00000000000E+00  0.44577182701E+03  0.44577182701E+03  0.00000000000E+00 0.  1.
         21   -1    0    0  504  502 -0.00000000000E+00 -0.00000000000E+00 -0.22276813924E+03  0.22276813924E+03  0.00000000000E+00 0.  1.
         25    1    1    2    0    0 -0.25322870254E+03 -0.56810740258E+02  0.42555495195E+02  0.29118414477E+03  0.12500000000E+03 0.  0.
         21    1    1    2  503  502 -0.22631147523E+02  0.34685515254E+02  0.65914782625E+02  0.77846081309E+02  0.00000000000E+00 0.  1.
         21    1    1    2  504  501  0.27585985006E+03  0.22125225004E+02  0.11453340995E+03  0.29950974016E+03  0.00000000000E+00 0. -1.
<mgrwt>
<rscale>  4 0.56942281E+03</rscale>
<asrwt>0</asrwt>
<pdfrwt beam="1">  1       21 0.68580281E-01 0.56942281E+03</pdfrwt>
<pdfrwt beam="2">  1       21 0.34272022E-01 0.56942281E+03</pdfrwt>
<totfact> 0.13874740E+04</totfact>
</mgrwt>
</event>
<event>
 5    0  0.1828625E+000  0.9453998E+03  0.7546771E-02  0.9370544E-01
         21   -1    0    0  503  501  0.00000000000E+00  0.00000000000E+00  0.34437359529E+03  0.34437359529E+03  0.00000000000E+00 0. -1.
         21   -1    0    0  504  502 -0.00000000000E+00 -0.00000000000E+00 -0.10079359980E+04  0.10079359980E+04  0.00000000000E+00 0.  1.
         25    1    1    2    0    0  0.23800137060E+03 -0.14149628645E+03  0.62711771192E+02  0.31019931936E+03  0.12500000000E+03 0.  0.
         21    1    1    2  503  502 -0.37213292863E+03  0.11177381939E+03 -0.79767582969E+03  0.88727844138E+03  0.00000000000E+00 0.  1.
         21    1    1    2  504  501  0.13413155804E+03  0.29722467053E+02  0.71401655808E+02  0.15483183252E+03  0.00000000000E+00 0. -1.
<mgrwt>
<rscale>  4 0.94539982E+03</rscale>
<asrwt>0</asrwt>
<pdfrwt beam="1">  1       21 0.52980555E-01 0.94539982E+03</pdfrwt>
<pdfrwt beam="2">  1       21 0.15506707E+00 0.94539982E+03</pdfrwt>
<totfact> 0.67137998E+02</totfact>
</mgrwt>
</event>
<event>
 5    0  0.1828625E+000  0.8165478E+03  0.7546771E-02  0.9536369E-01
         21   -1    0    0  502  501  0.00000000000E+00  0.00000000000E+00  0.89600005585E+03  0.89600005585E+03  0.00000000000E+00 0.  1.
         21   -1    0    0  504  502 -0.00000000000E+00 -0.00000000000E+00 -0.26443896500E+03  0.26443896500E+03  0.00000000000E+00 0.  1.
         25    1    1    2    0    0 -0.23611272423E+03  0.31267256903E+03  0.14136510609E+03  0.43488210722E+03  0.12500000000E+03 0.  0.
         21    1    1    2  503  501 -0.25863771133E+02 -0.88938526811E+01  0.26325406114E+03  0.26467099573E+03  0.00000000000E+00 0.  1.
         21    1    1    2  504  503  0.26197649536E+03 -0.30377871634E+03  0.22694192362E+03  0.46088591790E+03  0.00000000000E+00 0.  1.
<mgrwt>
<rscale>  4 0.81654779E+03</rscale>
<asrwt>0</asrwt>
<pdfrwt beam="1">  1       21 0.13784616E+00 0.81654779E+03</pdfrwt>
<pdfrwt beam="2">  1       21 0.40682918E-01 0.81654779E+03</pdfrwt>
<totfact> 0.16747471E+03</totfact>
</mgrwt>
</event>
<event>
 5    0  0.1828625E+000  0.4738315E+03  0.7546771E-02  0.1020844E+00
         21   -1    0    0  503  501  0.00000000000E+00  0.00000000000E+00  0.28437251129E+03  0.28437251129E+03  0.00000000000E+00 0. -1.
         21   -1    0    0  504  502 -0.00000000000E+00 -0.00000000000E+00 -0.22535958258E+03  0.22535958258E+03  0.00000000000E+00 0. -1.
         25    1    1    2    0    0 -0.13688312555E+03 -0.15893218656E+03  0.51742234754E+02  0.24959705295E+03  0.12500000000E+03 0.  0.
         21    1    1    2  503  502  0.12641882271E+03  0.18755174984E+03 -0.74295293924E+01  0.22630195649E+03  0.00000000000E+00 0. -1.
         21    1    1    2  504  501  0.10464302840E+02 -0.28619563279E+02  0.14700223342E+02  0.33833084437E+02  0.00000000000E+00 0. -1.
<mgrwt>
<rscale>  4 0.47383146E+03</rscale>
<asrwt>0</asrwt>
<pdfrwt beam="1">  1       21 0.43749617E-01 0.47383146E+03</pdfrwt>
<pdfrwt beam="2">  1       21 0.34670705E-01 0.47383146E+03</pdfrwt>
<totfact> 0.36663593E+04</totfact>
</mgrwt>
</event>
<event>
 5    0  0.1828625E+000  0.9030321E+03  0.7546771E-02  0.9421799E-01
         21   -1    0    0  502  501  0.00000000000E+00  0.00000000000E+00  0.41708027586E+03  0.41708027586E+03  0.00000000000E+00 0. -1.
         21   -1    0    0  504  502 -0.00000000000E+00 -0.00000000000E+00 -0.84956341503E+03  0.84956341503E+03  0.00000000000E+00 0.  1.
         25    1    1    2    0    0  0.15307604785E+02  0.34223826317E+03 -0.64375861276E+03  0.73987262623E+03  0.12500000000E+03 0.  0.
         21    1    1    2  503  501  0.22315091767E+02  0.30942169285E+01  0.17619379533E+03  0.17762823822E+03  0.00000000000E+00 0. -1.
         21    1    1    2  504  503 -0.37622696552E+02 -0.34533248010E+03  0.35081678260E+02  0.34914282644E+03  0.00000000000E+00 0. -1.
<mgrwt>
<rscale>  4 0.90303214E+03</rscale>
<asrwt>0</asrwt>
<pdfrwt beam="1">  1       21 0.64166196E-01 0.90303214E+03</pdfrwt>
<pdfrwt beam="2">  1       21 0.13070206E+00 0.90303214E+03</pdfrwt>
<totfact> 0.70666386E+02</totfact>
</mgrwt>
</event>
<event>
 5    0  0.1828625E+000  0.5957539E+03  0.7546771E-02  0.9914255E-01
         21   -1    0    0  503  501  0.00000000000E+00  0.00000000000E+00  0.14443564961E+03  0.14443564961E+03  0.00000000000E+00 0. -1.
         21   -1    0    0  504  502 -0.00000000000E+00 -0.00000000000E+00 -0.13215878222E+04  0.13215878222E+04  0.00000000000E+00 0. -1.
         25    1    1    2    0    0 -0.29545385743E+03  0.70115964503E+02 -0.80529912652E+03  0.86967862657E+03  0.12500000000E+03 0.  0.
         21    1    1    2  503  502  0.53390219908E+02  0.22684297830E+02  0.65771146925E+02  0.87697985825E+02  0.00000000000E+00 0. -1.
         21    1    1    2  504  501  0.24206363753E+03 -0.92800262333E+02 -0.43762419301E+03  0.50864685943E+03  0.00000000000E+00 0. -1.
<mgrwt>
<rscale>  4 0.59575395E+03</rscale>
<asrwt>0</asrwt>
<pdfrwt beam="1">  1       21 0.22220869E-01 0.59575395E+03</pdfrwt>
<pdfrwt beam="2">  1       21 0.20332121E+00 0.59575395E+03</pdfrwt>
<totfact> 0.19396982E+03</totfact>
</mgrwt>
</event>
<event>
 5    0  0.1828625E+000  0.4551201E+03  0.7546771E-02  0.1026206E+00
         21   -1    0    0  503  501  0.00000000000E+00  0.00000000000E+00  0.27835200170E+03  0.27835200170E+03  0.00000000000E+00 0. -1.
         21   -1    0    0  504  502 -0.00000000000E+00 -0.00000000000E+00 -0.31723564138E+03  0.31723564138E+03  0.00000000000E+00 0. -1.
         25    1    1    2    0    0  0.14040947022E+03  0.14745709825E+03 -0.36902472646E+02  0.24175443665E+03  0.12500000000E+03 0.  0.
         21    1    1    2  503  502 -0.20008316042E+03 -0.73862564130E+02 -0.83302554217E+02  0.22897219264E+03  0.00000000000E+00 0. -1.
         21    1    1    2  504  501  0.59673690201E+02 -0.73594534119E+02  0.81321387179E+02  0.12486101380E+03  0.00000000000E+00 0. -1.
<mgrwt>
<rscale>  4 0.45512011E+03</rscale>
<asrwt>0</asrwt>
<pdfrwt beam="1">  1       21 0.42823385E-01 0.45512011E+03</pdfrwt>
<pdfrwt beam="2">  1       21 0.48805483E-01 0.45512011E+03</pdfrwt>
<totfact> 0.18971681E+04</totfact>
</mgrwt>
</event>
<event>
 5    0  0.1828625E+000  0.5343333E+03  0.7546771E-02  0.1005187E+00
         21   -1    0    0  502  501  0.00000000000E+00  0.00000000000E+00  0.23340149227E+04  0.23340149227E+04  0.00000000000E+00 0.  1.
         21   -1    0    0  503  502 -0.00000000000E+00 -0.00000000000E+00 -0.41168790490E+02  0.41168790490E+02  0.00000000000E+00 0.  1.
         25    1    1    2    0    0 -0.21945007547E+03 -0.10948541729E+02  0.92569744826E+03  0.95959312832E+03  0.12500000000E+03 0.  0.
         21    1    1    2  503  504  0.27851001839E+03 -0.33381196729E+02  0.90176772837E+03  0.94438719314E+03  0.00000000000E+00 0.  1.
         21    1    1    2  504  501 -0.59059942914E+02  0.44329738458E+02  0.46538095559E+03  0.47120339175E+03  0.00000000000E+00 0.  1.
<mgrwt>
<rscale>  4 0.53433332E+03</rscale>
<asrwt>0</asrwt>
<pdfrwt beam="1">  1       21 0.35907911E+00 0.53433332E+03</pdfrwt>
<pdfrwt beam="2">  1       21 0.63336619E-02 0.53433332E+03</pdfrwt>
<totfact> 0.21419668E+03</totfact>
</mgrwt>
</event>
<event>
 5    0  0.1828625E+000  0.5604441E+03  0.7546771E-02  0.9991050E-01
         21   -1    0    0  503  501  0.00000000000E+00  0.00000000000E+00  0.53403142281E+03  0.53403142281E+03  0.00000000000E+00 0.  1.
         21   -1    0    0  504  502 -0.00000000000E+00 -0.00000000000E+00 -0.59655153591E+03  0.59655153591E+03  0.00000000000E+00 0.  1.
         25    1    1    2    0    0  0.68716664021E+01  0.23533262199E+03 -0.50499027573E+03  0.57102437895E+03  0.12500000000E+03 0.  0.
         21    1    1    2  503  502  0.19939586545E+01 -0.14612557698E+03  0.46190060088E+02  0.15326507028E+03  0.00000000000E+00 0. -1.
         21    1    1    2  504  501 -0.88656250566E+01 -0.89207045013E+02  0.39628010254E+03  0.40629350949E+03  0.00000000000E+00 0.  1.
<mgrwt>
<rscale>  4 0.56044408E+03</rscale>
<asrwt>0</asrwt>
<pdfrwt beam="1">  1       21 0.82158680E-01 0.56044408E+03</pdfrwt>
<pdfrwt beam="2">  1       21 0.91777160E-01 0.56044408E+03</pdfrwt>
<totfact> 0.10647053E+03</totfact>
</mgrwt>
</event>
<event>
 5    0  0.1828625E+000  0.4359482E+03  0.7546771E-02  0.1031997E+00
         21   -1    0    0  502  501  0.00000000000E+00  0.00000000000E+00  0.84060382800E+03  0.84060382800E+03  0.00000000000E+00 0.  1.
         21   -1    0    0  504  502 -0.00000000000E+00 -0.00000000000E+00 -0.13115840440E+03  0.13115840440E+03  0.00000000000E+00 0.  1.
         25    1    1    2    0    0 -0.19127175943E+03  0.20579626633E+03  0.28771191260E+03  0.42111771970E+03  0.12500000000E+03 0.  0.
         21    1    1    2  503  501  0.20820756196E+03 -0.78478870794E+02  0.30146346125E+03  0.37468592246E+03  0.00000000000E+00 0.  1.
         21    1    1    2  504  503 -0.16935802535E+02 -0.12731739553E+03  0.12027004974E+03  0.17595859024E+03  0.00000000000E+00 0. -1.
<mgrwt>
<rscale>  4 0.43594821E+03</rscale>
<asrwt>0</asrwt>
<pdfrwt beam="1">  1       21 0.12932366E+00 0.43594821E+03</pdfrwt>
<pdfrwt beam="2">  1       21 0.20178217E-01 0.43594821E+03</pdfrwt>
<totfact> 0.88300770E+03</totfact>
</mgrwt>
</event>
<event>
 5    0  0.1828625E+000  0.4881721E+03  0.7546771E-02  0.1016913E+00
         21   -1    0    0  504  501  0.00000000000E+00  0.00000000000E+00  0.48329236736E+02  0.48329236736E+02  0.00000000000E+00 0. -1.
         21   -1    0    0  503  502 -0.00000000000E+00 -0.00000000000E+00 -0.25570830080E+04  0.25570830080E+04  0.00000000000E+00 0. -1.
         25    1    1    2    0    0 -0.20099862496E+03 -0.84831654238E+02 -0.17581166881E+04  0.17760056717E+04  0.12500000000E+03 0.  0.
         21    1    1    2  503  501  0.20866350795E+03  0.30402261387E+02 -0.74486565020E+03  0.77413796825E+03  0.00000000000E+00 0. -1.
         21    1    1    2  504  502 -0.76648829886E+01  0.54429392851E+02 -0.57714329343E+01  0.55268604790E+02  0.00000000000E+00 0. -1.
<mgrwt>
<rscale>  4 0.48817210E+03</rscale>
<asrwt>0</asrwt>
<pdfrwt beam="1">  1       21 0.74352654E-02 0.48817210E+03</pdfrwt>
<pdfrwt beam="2">  1       21 0.39339748E+00 0.48817210E+03</pdfrwt>
<totfact> 0.10041743E+03</totfact>
</mgrwt>
</event>
<event>
 5    0  0.1828625E+000  0.1469557E+04  0.7546771E-02  0.8904953E-01
         21   -1    0    0  503  501  0.00000000000E+00  0.00000000000E+00  0.37703889307E+03  0.37703889307E+03  0.00000000000E+00 0.  1.
         21   -1    0    0  504  502 -0.00000000000E+00 -0.00000000000E+00 -0.16454894959E+04  0.16454894959E+04  0.00000000000E+00 0. -1.
         25    1    1    2    0    0 -0.43707985224E+03  0.46022623613E+03 -0.17108657378E+03  0.66913571223E+03  0.12500000000E+03 0.  0.
         21    1    1    2  503  502 -0.73640296537E+02 -0.55375773873E+02 -0.20059381528E+02  0.94296067752E+02  0.00000000000E+00 0.  1.
         21    1    1    2  504  501  0.51072014878E+03 -0.40485046225E+03 -0.10773046475E+04  0.12590966089E+04  0.00000000000E+00 0. -1.
<mgrwt>
<rscale>  4 0.14695575E+04</rscale>
<asrwt>0</asrwt>
<pdfrwt beam="1">  1       21 0.58005983E-01 0.14695575E+04</pdfrwt>
<pdfrwt beam="2">  1       21 0.25315223E+00 0.14695575E+04</pdfrwt>
<totfact> 0.10392432E+02</totfact>
</mgrwt>
</event>
<event>
 5    0  0.1828625E+000  0.1114937E+04  0.7546771E-02  0.9190755E-01
         21   -1    0    0  502  501  0.00000000000E+00  0.00000000000E+00  0.11869452211E+04  0.11869452211E+04  0.00000000000E+00 0.  1.
         21   -1    0    0  504  502 -0.00000000000E+00 -0.00000000000E+00 -0.35994150046E+03  0.35994150046E+03  0.00000000000E+00 0. -1.
         25    1    1    2    0    0  0.21893385886E+03  0.41627448424E+03  0.54238561461E+03  0.72871368570E+03  0.12500000000E+03 0.  0.
         21    1    1    2  503  501  0.18325851078E+02  0.16894181522E+02  0.32191346433E+03  0.32287695598E+03  0.00000000000E+00 0.  1.
         21    1    1    2  504  503 -0.23725970994E+03 -0.43316866576E+03 -0.37295358330E+02  0.49529607985E+03  0.00000000000E+00 0. -1.
<mgrwt>
<rscale>  4 0.11149367E+04</rscale>
<asrwt>0</asrwt>
<pdfrwt beam="1">  1       21 0.18260695E+00 0.11149367E+04</pdfrwt>
<pdfrwt beam="2">  1       21 0.55375616E-01 0.11149367E+04</pdfrwt>
<totfact> 0.36578270E+02</totfact>
</mgrwt>
</event>
<event>
 5    0  0.1828625E+000  0.6570104E+03  0.7546771E-02  0.9793713E-01
         21   -1    0    0  502  501  0.00000000000E+00  0.00000000000E+00  0.31457644635E+03  0.31457644635E+03  0.00000000000E+00 0. -1.
         21   -1    0    0  504  502 -0.00000000000E+00 -0.00000000000E+00 -0.42614691351E+03  0.42614691351E+03  0.00000000000E+00 0. -1.
         25    1    1    2    0    0  0.24524208852E+03  0.62182750465E+02  0.87241806792E+02  0.29537520087E+03  0.12500000000E+03 0.  0.
         21    1    1    2  503  501  0.29385451547E+02  0.26766026284E+02  0.50257948728E+02  0.64076410137E+02  0.00000000000E+00 0. -1.
         21    1    1    2  504  503 -0.27462754007E+03 -0.88948776749E+02 -0.24907022268E+03  0.38127174885E+03  0.00000000000E+00 0. -1.
<mgrwt>
<rscale>  4 0.65701039E+03</rscale>
<asrwt>0</asrwt>
<pdfrwt beam="1">  1       21 0.48396377E-01 0.65701039E+03</pdfrwt>
<pdfrwt beam="2">  1       21 0.65561063E-01 0.65701039E+03</pdfrwt>
<totfact> 0.73542563E+03</totfact>
</mgrwt>
</event>
<event>
 5    0  0.1828625E+000  0.8084053E+03  0.7546771E-02  0.9547930E-01
         21   -1    0    0  504  501  0.00000000000E+00  0.00000000000E+00  0.46959305783E+03  0.46959305783E+03  0.00000000000E+00 0.  1.
         21   -1    0    0  503  502 -0.00000000000E+00 -0.00000000000E+00 -0.69196702109E+03  0.69196702109E+03  0.00000000000E+00 0. -1.
         25    1    1    2    0    0  0.87047423181E+00 -0.21418557494E+03  0.13300875863E+03  0.28141170571E+03  0.12500000000E+03 0.  0.
         21    1    1    2  503  501  0.19760032047E+02  0.27197218052E+03 -0.58341924148E+03  0.64400103818E+03  0.00000000000E+00 0. -1.
         21    1    1    2  504  502 -0.20630506278E+02 -0.57786605577E+02  0.22803651959E+03  0.23614733503E+03  0.00000000000E+00 0.  1.
<mgrwt>
<rscale>  4 0.80840531E+03</rscale>
<asrwt>0</asrwt>
<pdfrwt beam="1">  1       21 0.72245086E-01 0.80840531E+03</pdfrwt>
<pdfrwt beam="2">  1       21 0.10645646E+00 0.80840531E+03</pdfrwt>
<totfact> 0.93371716E+02</totfact>
</mgrwt>
</event>
<event>
 5    0  0.1828625E+000  0.4751920E+03  0.7546771E-02  0.1020465E+00
         21   -1    0    0  503  501  0.00000000000E+00  0.00000000000E+00  0.16057662540E+03  0.16057662540E+03  0.00000000000E+00 0.  1.
         21   -1    0    0  504  502 -0.00000000000E+00 -0.00000000000E+00 -0.11103548072E+04  0.11103548072E+04  0.00000000000E+00 0. -1.
         25    1    1    2    0    0 -0.96572757256E+02  0.22791273275E+03 -0.39626469375E+03  0.48365402790E+03  0.12500000000E+03 0.  0.
         21    1    1    2  503  502 -0.18619936360E+02 -0.13018403213E+03  0.67733939811E+02  0.14792724851E+03  0.00000000000E+00 0.  1.
         21    1    1    2  504  501  0.11519269362E+03 -0.97728700620E+02 -0.62124742783E+03  0.63935015615E+03  0.00000000000E+00 0. -1.
<mgrwt>
<rscale>  4 0.47519205E+03</rscale>
<asrwt>0</asrwt>
<pdfrwt beam="1">  1       21 0.24704096E-01 0.47519205E+03</pdfrwt>
<pdfrwt beam="2">  1       21 0.17082382E+00 0.47519205E+03</pdfrwt>
<totfact> 0.27710816E+03</totfact>
</mgrwt>
</event>
<event>
 5    0  0.1828625E+000  0.5098156E+03  0.7546771E-02  0.1011248E+00
         21   -1    0    0  503  501  0.00000000000E+00  0.00000000000E+00  0.40665100628E+03  0.40665100628E+03  0.00000000000E+00 0.  1.
         21   -1    0    0  504  502 -0.00000000000E+00 -0.00000000000E+00 -0.14297618779E+04  0.14297618779E+04  0.00000000000E+00 0.  1.
         25    1    1    2    0    0 -0.29413008220E+02 -0.21688872766E+03 -0.96251937547E+03  0.99497456922E+03  0.12500000000E+03 0.  0.
         21    1    1    2  503  502  0.18039102237E+02 -0.12379576104E+02  0.36086243898E+03  0.36152505166E+03  0.00000000000E+00 0.  1.
         21    1    1    2  504  501  0.11373905984E+02  0.22926830377E+03 -0.42145393513E+03  0.47991326329E+03  0.00000000000E+00 0.  1.
<mgrwt>
<rscale>  4 0.50981565E+03</rscale>
<asrwt>0</asrwt>
<pdfrwt beam="1">  1       21 0.62561693E-01 0.50981565E+03</pdfrwt>
<pdfrwt beam="2">  1       21 0.21996337E+00 0.50981565E+03</pdfrwt>
<totfact> 0.18555323E+02</totfact>
</mgrwt>
</event>
<event>
 5    0  0.1828625E+000  0.4164532E+03  0.7546771E-02  0.1038227E+00
         21   -1    0    0  503  501  0.00000000000E+00  0.00000000000E+00  0.67376616919E+03  0.67376616919E+03  0.00000000000E+00 0.  1.
         21   -1    0    0  504  502 -0.00000000000E+00 -0.00000000000E+00 -0.14780864746E+03  0.14780864746E+03  0.00000000000E+00 0. -1.
         25    1    1    2    0    0 -0.10514319809E+03 -0.20326622709E+03  0.21615944636E+03  0.33870659490E+03  0.12500000000E+03 0.  0.
         21    1    1    2  503  502  0.21596687799E+02  0.10782057487E+03 -0.35064394050E+02  0.11541752475E+03  0.00000000000E+00 0. -1.
         21    1    1    2  504  501  0.83546510288E+02  0.95445652221E+02  0.34486246943E+03  0.36745069701E+03  0.00000000000E+00 0.  1.
<mgrwt>
<rscale>  4 0.41645324E+03</rscale>
<asrwt>0</asrwt>
<pdfrwt beam="1">  1       21 0.10365633E+00 0.41645324E+03</pdfrwt>
<pdfrwt beam="2">  1       21 0.22739792E-01 0.41645324E+03</pdfrwt>
<totfact> 0.12325584E+04</totfact>
</mgrwt>
</event>
<event>
 5    0  0.1828625E+000  0.8525687E+03  0.7546771E-02  0.9486896E-01
         21   -1    0    0  504  501  0.00000000000E+00  0.00000000000E+00  0.13271759536E+04  0.13271759536E+04  0.00000000000E+00 0. -1.
         21   -1    0    0  501  502 -0.00000000000E+00 -0.00000000000E+00 -0.23740483065E+03  0.23740483065E+03  0.00000000000E+00 0.  1.
         25    1    1    2    0    0 -0.23163792719E+03 -0.15752969628E+03 -0.93028092029E+02  0.32054790660E+03  0.12500000000E+03 0.  0.
         21    1    1    2  503  502  0.21485271208E+03  0.18115535439E+03  0.62264421500E+03  0.68312866196E+03  0.00000000000E+00 0. -1.
         21    1    1    2  504  503  0.16785215107E+02 -0.23625658110E+02  0.56015500003E+03  0.56090421573E+03  0.00000000000E+00 0. -1.
<mgrwt>
<rscale>  4 0.85256872E+03</rscale>
<asrwt>0</asrwt>
<pdfrwt beam="1">  1       21 0.20418091E+00 0.85256872E+03</pdfrwt>
<pdfrwt beam="2">  1       21 0.36523821E-01 0.85256872E+03</pdfrwt>
<totfact> 0.66214109E+02</totfact>
</mgrwt>
</event>
<event>
 5    0  0.1828625E+000  0.6359847E+03  0.7546771E-02  0.9833439E-01
         21   -1    0    0  502  501  0.00000000000E+00  0.00000000000E+00  0.69915039139E+02  0.69915039139E+02  0.00000000000E+00 0. -1.
         21   -1    0    0  504  502 -0.00000000000E+00 -0.00000000000E+00 -0.21657055061E+04  0.21657055061E+04  0.00000000000E+00 0.  1.
         25    1    1    2    0    0 -0.10915704714E+03 -0.24640609400E+03 -0.54808196306E+03  0.62341804780E+03  0.12500000000E+03 0.  0.
         21    1    1    2  503  501  0.11476910950E+02  0.26442180472E+02  0.14008310269E+02  0.32049042882E+02  0.00000000000E+00 0. -1.
         21    1    1    2  504  503  0.97680136191E+02  0.21996391353E+03 -0.15617168141E+04  0.15801534545E+04  0.00000000000E+00 0.  1.
<mgrwt>
<rscale>  4 0.63598466E+03</rscale>
<asrwt>0</asrwt>
<pdfrwt beam="1">  1       21 0.10756160E-01 0.63598466E+03</pdfrwt>
<pdfrwt beam="2">  1       21 0.33318546E+00 0.63598466E+03</pdfrwt>
<totfact> 0.11534938E+03</totfact>
</mgrwt>
</event>
<event>
 5    0  0.1828625E+000  0.3590148E+03  0.7546771E-02  0.1058975E+00
         21   -1    0    0  503  501  0.00000000000E+00  0.00000000000E+00  0.15072420216E+04  0.15072420216E+04  0.00000000000E+00 0. -1.
         21   -1    0    0  504  502 -0.00000000000E+00 -0.00000000000E+00 -0.15263941797E+03  0.15263941797E+03  0.00000000000E+00 0. -1.
         25    1    1    2    0    0  0.57467737416E+02  0.19661052636E+03  0.11247422589E+03  0.26501639837E+03  0.12500000000E+03 0.  0.
         21    1    1    2  503  502 -0.41786572052E+02 -0.77416609654E+02 -0.47273254362E+02  0.99870964911E+02  0.00000000000E+00 0. -1.
         21    1    1    2  504  501 -0.15681165364E+02 -0.11919391670E+03  0.12894016321E+04  0.12949940762E+04  0.00000000000E+00 0. -1.
<mgrwt>
<rscale>  4 0.35901479E+03</rscale>
<asrwt>0</asrwt>
<pdfrwt beam="1">  1       21 0.23188338E+00 0.35901479E+03</pdfrwt>
<pdfrwt beam="2">  1       21 0.23482988E-01 0.35901479E+03</pdfrwt>
<totfact> 0.12656881E+03</totfact>
</mgrwt>
</event>
<event>
 5    0  0.1828625E+000  0.5626893E+03  0.7546771E-02  0.9985988E-01
         21   -1    0    0  504  501  0.00000000000E+00  0.00000000000E+00  0.36325338946E+03  0.36325338946E+03  0.00000000000E+00 0. -1.
         21   -1    0    0  501  502 -0.00000000000E+00 -0.00000000000E+00 -0.40591216907E+03  0.40591216907E+03  0.00000000000E+00 0. -1.
         25    1    1    2    0    0 -0.23324989556E+03  0.16682071071E+03 -0.52092667764E+02  0.31713295214E+03  0.12500000000E+03 0.  0.
         21    1    1    2  503  502  0.16954393785E+03 -0.16616015508E+03 -0.14967906707E+03  0.28063885532E+03  0.00000000000E+00 0. -1.
         21    1    1    2  504  503  0.63705957712E+02 -0.66055562454E+00  0.15911295522E+03  0.17139375106E+03  0.00000000000E+00 0. -1.
<mgrwt>
<rscale>  4 0.56268935E+03</rscale>
<asrwt>0</asrwt>
<pdfrwt beam="1">  1       21 0.55885137E-01 0.56268935E+03</pdfrwt>
<pdfrwt beam="2">  1       21 0.62448026E-01 0.56268935E+03</pdfrwt>
<totfact> 0.61427697E+03</totfact>
</mgrwt>
</event>
<event>
 5    0  0.1828625E+000  0.3949834E+03  0.7546771E-02  0.1045531E+00
         21   -1    0    0  504  501  0.00000000000E+00  0.00000000000E+00  0.13803146962E+03  0.13803146962E+03  0.00000000000E+00 0. -1.
         21   -1    0    0  501  502 -0.00000000000E+00 -0.00000000000E+00 -0.64073058850E+03  0.64073058850E+03  0.00000000000E+00 0.  1.
         25    1    1    2    0    0 -0.20703869533E+03 -0.54335056960E+02 -0.49837790802E+03  0.55661733622E+03  0.12500000000E+03 0.  0.
         21    1    1    2  503  502  0.79154194539E+02 -0.84868837941E+01 -0.39243289972E+00  0.79608841929E+02  0.00000000000E+00 0. -1.
         21    1    1    2  504  503  0.12788450079E+03  0.62821940754E+02 -0.39287779542E+01  0.14253587997E+03  0.00000000000E+00 0. -1.
<mgrwt>
<rscale>  4 0.39498341E+03</rscale>
<asrwt>0</asrwt>
<pdfrwt beam="1">  1       21 0.21235611E-01 0.39498341E+03</pdfrwt>
<pdfrwt beam="2">  1       21 0.98573936E-01 0.39498341E+03</pdfrwt>
<totfact> 0.15990430E+04</totfact>
</mgrwt>
</event>
<event>
 5    0  0.1828625E+000  0.5367204E+03  0.7546771E-02  0.1004615E+00
         21   -1    0    0  502  501  0.00000000000E+00  0.00000000000E+00  0.23230717796E+03  0.23230717796E+03  0.00000000000E+00 0.  1.
         21   -1    0    0  504  502 -0.00000000000E+00 -0.00000000000E+00 -0.11973300829E+04  0.11973300829E+04  0.00000000000E+00 0. -1.
         25    1    1    2    0    0  0.17088188004E+02  0.25942596791E+03 -0.50578621959E+03  0.58227015974E+03  0.12500000000E+03 0.  0.
         21    1    1    2  503  501  0.62209273010E+02 -0.33002562291E+02  0.16457757095E+03  0.17901100420E+03  0.00000000000E+00 0.  1.
         21    1    1    2  504  503 -0.79297461014E+02 -0.22642340562E+03 -0.62381425629E+03  0.66835609692E+03  0.00000000000E+00 0.  1.
<mgrwt>
<rscale>  4 0.53672041E+03</rscale>
<asrwt>0</asrwt>
<pdfrwt beam="1">  1       21 0.35739567E-01 0.53672041E+03</pdfrwt>
<pdfrwt beam="2">  1       21 0.18420462E+00 0.53672041E+03</pdfrwt>
<totfact> 0.10426551E+03</totfact>
</mgrwt>
</event>
<event>
 5    0  0.1828625E+000  0.6417238E+03  0.7546771E-02  0.9822434E-01
         21   -1    0    0  503  501  0.00000000000E+00  0.00000000000E+00  0.10585778020E+04  0.10585778020E+04  0.00000000000E+00 0. -1.
         21   -1    0    0  504  502 -0.00000000000E+00 -0.00000000000E+00 -0.20942281076E+03  0.20942281076E+03  0.00000000000E+00 0. -1.
         25    1    1    2    0    0  0.19333636849E+03 -0.16326177501E+03  0.36479276352E+03  0.46122892242E+03  0.12500000000E+03 0.  0.
         21    1    1    2  503  502 -0.37407866740E+01  0.38649577296E+02  0.56474064685E+03  0.56607400710E+03  0.00000000000E+00 0. -1.
         21    1    1    2  504  501 -0.18959558181E+03  0.12461219772E+03 -0.80378419115E+02  0.24069768325E+03  0.00000000000E+00 0. -1.
<mgrwt>
<rscale>  4 0.64172380E+03</rscale>
<asrwt>0</asrwt>
<pdfrwt beam="1">  1       21 0.16285812E+00 0.64172380E+03</pdfrwt>
<pdfrwt beam="2">  1       21 0.32218895E-01 0.64172380E+03</pdfrwt>
<totfact> 0.17785897E+03</totfact>
</mgrwt>
</event>
<event>
 5    0  0.1828625E+000  0.3863566E+03  0.7546771E-02  0.1048609E+00
         21   -1    0    0  504  501  0.00000000000E+00  0.00000000000E+00  0.17073570269E+03  0.17073570269E+03  0.00000000000E+00 0. -1.
         21   -1    0    0  501  502 -0.00000000000E+00 -0.00000000000E+00 -0.44911439469E+03  0.44911439469E+03  0.00000000000E+00 0. -1.
         25    1    1    2    0    0 -0.21815425228E+03 -0.15759834015E+02 -0.16014798829E+03  0.29851637863E+03  0.12500000000E+03 0.  0.
         21    1    1    2  503  502  0.74606342154E+02  0.97122066071E+02 -0.76594031731E+01  0.12270887688E+03  0.00000000000E+00 0.  1.
         21    1    1    2  504  503  0.14354791013E+03 -0.81362232055E+02 -0.11057130053E+03  0.19862484187E+03  0.00000000000E+00 0. -1.
<mgrwt>
<rscale>  4 0.38635656E+03</rscale>
<asrwt>0</asrwt>
<pdfrwt beam="1">  1       21 0.26267031E-01 0.38635656E+03</pdfrwt>
<pdfrwt beam="2">  1       21 0.69094523E-01 0.38635656E+03</pdfrwt>
<totfact> 0.24254315E+04</totfact>
</mgrwt>
</event>
<event>
 5    0  0.1828625E+000  0.5399107E+03  0.7546771E-02  0.1003857E+00
         21   -1    0    0  504  501  0.00000000000E+00  0.00000000000E+00  0.51623894111E+03  0.51623894111E+03  0.00000000000E+00 0.  1.
         21   -1    0    0  503  502 -0.00000000000E+00 -0.00000000000E+00 -0.18153635967E+03  0.18153635967E+03  0.00000000000E+00 0.  1.
         25    1    1    2    0    0  0.25039834518E+03 -0.23954227246E+02  0.74270866012E+02  0.29054138743E+03  0.12500000000E+03 0.  0.
         21    1    1    2  503  501 -0.24851760285E+03  0.47510367104E+02  0.14965353040E+03  0.29396328524E+03  0.00000000000E+00 0.  1.
         21    1    1    2  504  502 -0.18807423268E+01 -0.23556139859E+02  0.11077818503E+03  0.11327062812E+03  0.00000000000E+00 0.  1.
<mgrwt>
<rscale>  4 0.53991071E+03</rscale>
<asrwt>0</asrwt>
<pdfrwt beam="1">  1       21 0.79421375E-01 0.53991071E+03</pdfrwt>
<pdfrwt beam="2">  1       21 0.27928671E-01 0.53991071E+03</pdfrwt>
<totfact> 0.15046905E+04</totfact>
</mgrwt>
</event>
<event>
 5    0  0.1828625E+000  0.6422004E+03  0.7546771E-02  0.9821526E-01
         21   -1    0    0  502  501  0.00000000000E+00  0.00000000000E+00  0.63277998277E+03  0.63277998277E+03  0.00000000000E+00 0.  1.
         21   -1    0    0  503  502 -0.00000000000E+00 -0.00000000000E+00 -0.24805860737E+03  0.24805860737E+03  0.00000000000E+00 0.  1.
         25    1    1    2    0    0 -0.11704256908E+03 -0.20784605695E+03  0.24604471348E+03  0.36477657189E+03  0.12500000000E+03 0.  0.
         21    1    1    2  503  504  0.16252411096E+03  0.24528419583E+03 -0.67288709195E+02  0.30183802568E+03  0.00000000000E+00 0.  1.
         21    1    1    2  504  501 -0.45481541873E+02 -0.37438138874E+02  0.20596537111E+03  0.21422399256E+03  0.00000000000E+00 0.  1.
<mgrwt>
<rscale>  4 0.64220037E+03</rscale>
<asrwt>0</asrwt>
<pdfrwt beam="1">  1       21 0.97350766E-01 0.64220037E+03</pdfrwt>
<pdfrwt beam="2">  1       21 0.38162863E-01 0.64220037E+03</pdfrwt>
<totfact> 0.48285363E+03</totfact>
</mgrwt>
</event>
<event>
 5    0  0.1828625E+000  0.4528934E+03  0.7546771E-02  0.1026863E+00
         21   -1    0    0  502  501  0.00000000000E+00  0.00000000000E+00  0.26596124979E+03  0.26596124979E+03  0.00000000000E+00 0.  1.
         21   -1    0    0  503  502 -0.00000000000E+00 -0.00000000000E+00 -0.45789087522E+03  0.45789087522E+03  0.00000000000E+00 0.  1.
         25    1    1    2    0    0  0.17641921216E+03 -0.14483989523E+03 -0.32091934565E+03  0.41317860555E+03  0.12500000000E+03 0.  0.
         21    1    1    2  503  504  0.95731787921E+01  0.56735926080E+02  0.80986360335E+02  0.99344862075E+02  0.00000000000E+00 0. -1.
         21    1    1    2  504  501 -0.18599239096E+03  0.88103969153E+02  0.48003359888E+02  0.21132865739E+03  0.00000000000E+00 0.  1.
<mgrwt>
<rscale>  4 0.45289344E+03</rscale>
<asrwt>0</asrwt>
<pdfrwt beam="1">  1       21 0.40917116E-01 0.45289344E+03</pdfrwt>
<pdfrwt beam="2">  1       21 0.70444749E-01 0.45289344E+03</pdfrwt>
<totfact> 0.93588629E+03</totfact>
</mgrwt>
</event>
<event>
 5    0  0.1828625E+000  0.6043351E+03  0.7546771E-02  0.9896453E-01
         21   -1    0    0  503  501  0.00000000000E+00  0.00000000000E+00  0.77621425937E+02  0.77621425937E+02  0.00000000000E+00 0. -1.
         21   -1    0    0  504  502 -0.00000000000E+00 -0.00000000000E+00 -0.15341032007E+04  0.15341032007E+04  0.00000000000E+00 0.  1.
         25    1    1    2    0    0  0.18491329388E+03  0.12267325477E+03 -0.28836989174E+03  0.38473867515E+03  0.12500000000E+03 0.  0.
         21    1    1    2  503  502 -0.13630542091E+02  0.58940034401E+02 -0.42274059999E+02  0.73802543870E+02  0.00000000000E+00 0. -1.
         21    1    1    2  504  501 -0.17128275179E+03 -0.18161328917E+03 -0.11258378230E+04  0.11531834076E+04  0.00000000000E+00 0.  1.
<mgrwt>
<rscale>  4 0.60433507E+03</rscale>
<asrwt>0</asrwt>
<pdfrwt beam="1">  1       21 0.11941758E-01 0.60433507E+03</pdfrwt>
<pdfrwt beam="2">  1       21 0.23601588E+00 0.60433507E+03</pdfrwt>
<totfact> 0.38151691E+03</totfact>
</mgrwt>
</event>
<event>
 5    0  0.1828625E+000  0.5041889E+03  0.7546771E-02  0.1012691E+00
         21   -1    0    0  504  501  0.00000000000E+00  0.00000000000E+00  0.10637448792E+04  0.10637448792E+04  0.00000000000E+00 0. -1.
         21   -1    0    0  501  502 -0.00000000000E+00 -0.00000000000E+00 -0.75326747244E+02  0.75326747244E+02  0.00000000000E+00 0. -1.
         25    1    1    2    0    0  0.13637356287E+03 -0.16090745475E+03  0.52452424743E+03  0.57899882883E+03  0.12500000000E+03 0.  0.
         21    1    1    2  503  502 -0.13366868885E+03  0.20046632619E+03  0.26876184147E+03  0.36095289685E+03  0.00000000000E+00 0. -1.
         21    1    1    2  504  503 -0.27048740195E+01 -0.39558871441E+02  0.19513204311E+03  0.19911990082E+03  0.00000000000E+00 0. -1.
<mgrwt>
<rscale>  4 0.50418888E+03</rscale>
<asrwt>0</asrwt>
<pdfrwt beam="1">  1       21 0.16365305E+00 0.50418888E+03</pdfrwt>
<pdfrwt beam="2">  1       21 0.11588731E-01 0.50418888E+03</pdfrwt>
<totfact> 0.12861123E+04</totfact>
</mgrwt>
</event>
