<event>
 5    0  0.1856407E+000  0.2394545E+03  0.7546771E-02  0.1120157E+00
         21   -1    0    0  502  501  0.00000000000E+00  0.00000000000E+00  0.96019628889E+03  0.96019628889E+03  0.00000000000E+00 0.  1.
         21   -1    0    0  503  502 -0.00000000000E+00 -0.00000000000E+00 -0.55597214796E+03  0.55597214796E+03  0.00000000000E+00 0.  1.
         25    1    1    2    0    0 -0.18876357224E+03 -0.77458120508E+02  0.90644016823E+03  0.93749145341E+03  0.12500000000E+03 0.  0.
         21    1    1    2  503  504  0.74531706562E+01 -0.36150230601E+02 -0.48337217334E+01  0.37225714112E+02  0.00000000000E+00 0. -1.
         21    1    1    2  504  501  0.18131040158E+03  0.11360835111E+03 -0.49738230557E+03  0.54145126932E+03  0.00000000000E+00 0.  1.
<mgrwt>
<rscale>  4 0.23945452E+03</rscale>
<asrwt>0</asrwt>
<pdfrwt beam="1">  1       21 0.14772251E+00 0.23945452E+03</pdfrwt>
<pdfrwt beam="2">  1       21 0.85534177E-01 0.23945452E+03</pdfrwt>
<totfact> 0.34937970E+02</totfact>
</mgrwt>
</event>
<event>
 5    0  0.1856407E+000  0.2374451E+03  0.7546771E-02  0.1121507E+00
         21   -1    0    0  502  501  0.00000000000E+00  0.00000000000E+00  0.51261611932E+03  0.51261611932E+03  0.00000000000E+00 0. -1.
         21   -1    0    0  503  502 -0.00000000000E+00 -0.00000000000E+00 -0.10534663724E+03  0.10534663724E+03  0.00000000000E+00 0. -1.
         25    1    1    2    0    0  0.18183744612E+03  0.87694584300E+02  0.12480932686E+03  0.26824907269E+03  0.12500000000E+03 0.  0.
         21    1    1    2  503  504 -0.66695972643E+02 -0.14867318884E+02  0.11574415383E+03  0.13441018965E+03  0.00000000000E+00 0. -1.
         21    1    1    2  504  501 -0.11514147348E+03 -0.72827265416E+02  0.16671600139E+03  0.21530349422E+03  0.00000000000E+00 0. -1.
<mgrwt>
<rscale>  4 0.23744515E+03</rscale>
<asrwt>0</asrwt>
<pdfrwt beam="1">  1       21 0.78864017E-01 0.23744515E+03</pdfrwt>
<pdfrwt beam="2">  1       21 0.16207175E-01 0.23744515E+03</pdfrwt>
<totfact> 0.47361428E+04</totfact>
</mgrwt>
</event>
<event>
 5    0  0.1856407E+000  0.2741096E+03  0.7546771E-02  0.1098950E+00
         21   -1    0    0  502  501  0.00000000000E+00  0.00000000000E+00  0.79287021521E+03  0.79287021521E+03  0.00000000000E+00 0. -1.
         21   -1    0    0  503  502 -0.00000000000E+00 -0.00000000000E+00 -0.10635174474E+03  0.10635174474E+03  0.00000000000E+00 0.  1.
         25    1    1    2    0    0 -0.20635296109E+03 -0.13011359299E+03  0.54475915669E+03  0.60983492063E+03  0.12500000000E+03 0.  0.
         21    1    1    2  503  504  0.47636763075E+02  0.96256436688E+01  0.50917916393E+02  0.70388553203E+02  0.00000000000E+00 0.  1.
         21    1    1    2  504  501  0.15871619801E+03  0.12048794932E+03  0.90841397385E+02  0.21899848612E+03  0.00000000000E+00 0.  1.
<mgrwt>
<rscale>  4 0.27410963E+03</rscale>
<asrwt>0</asrwt>
<pdfrwt beam="1">  1       21 0.12198003E+00 0.27410963E+03</pdfrwt>
<pdfrwt beam="2">  1       21 0.16361807E-01 0.27410963E+03</pdfrwt>
<totfact> 0.16195233E+04</totfact>
</mgrwt>
</event>
<event>
 5    0  0.1856407E+000  0.3109202E+03  0.7546771E-02  0.1079906E+00
         21   -1    0    0  502  501  0.00000000000E+00  0.00000000000E+00  0.15377790024E+04  0.15377790024E+04  0.00000000000E+00 0.  1.
         21   -1    0    0  503  502 -0.00000000000E+00 -0.00000000000E+00 -0.25994329945E+03  0.25994329945E+03  0.00000000000E+00 0.  1.
         25    1    1    2    0    0 -0.24382856213E+03 -0.14694894332E+03  0.14337666395E+04  0.14670917272E+04  0.12500000000E+03 0.  0.
         21    1    1    2  503  504  0.10228828129E+03  0.27222023943E+02 -0.64121945979E+02  0.12375603029E+03  0.00000000000E+00 0.  1.
         21    1    1    2  504  501  0.14154028083E+03  0.11972691937E+03 -0.91808990581E+02  0.20687454428E+03  0.00000000000E+00 0.  1.
<mgrwt>
<rscale>  4 0.31092018E+03</rscale>
<asrwt>0</asrwt>
<pdfrwt beam="1">  1       21 0.23658138E+00 0.31092018E+03</pdfrwt>
<pdfrwt beam="2">  1       21 0.39991278E-01 0.31092018E+03</pdfrwt>
<totfact> 0.42658518E+02</totfact>
</mgrwt>
</event>
<event>
 5    0  0.1922805E+000  0.2697571E+03  0.7546771E-02  0.1101419E+00
         21   -1    0    0  502  501  0.00000000000E+00  0.00000000000E+00  0.50855307095E+03  0.50855307095E+03  0.00000000000E+00 0.  1.
         21   -1    0    0  503  502 -0.00000000000E+00 -0.00000000000E+00 -0.21730414708E+03  0.21730414708E+03  0.00000000000E+00 0.  1.
         25    1    1    2    0    0 -0.22952510866E+03  0.66798933428E+02  0.36836807870E+03  0.45657848659E+03  0.12500000000E+03 0.  0.
         21    1    1    2  503  504  0.18203523038E+03 -0.22926928303E+02 -0.22893965708E+02  0.18489619468E+03  0.00000000000E+00 0.  1.
         21    1    1    2  504  501  0.47489878279E+02 -0.43872005125E+02 -0.54225189130E+02  0.84382536753E+02  0.00000000000E+00 0.  1.
<mgrwt>
<rscale>  4 0.26975706E+03</rscale>
<asrwt>0</asrwt>
<pdfrwt beam="1">  1       21 0.78238933E-01 0.26975706E+03</pdfrwt>
<pdfrwt beam="2">  1       21 0.33431407E-01 0.26975706E+03</pdfrwt>
<totfact> 0.11913689E+04</totfact>
</mgrwt>
</event>
<event>
 5    0  0.1856407E+000  0.2988420E+03  0.7546771E-02  0.1085821E+00
         21   -1    0    0  502  501  0.00000000000E+00  0.00000000000E+00  0.22604358859E+03  0.22604358859E+03  0.00000000000E+00 0.  1.
         21   -1    0    0  503  502 -0.00000000000E+00 -0.00000000000E+00 -0.17106236207E+04  0.17106236207E+04  0.00000000000E+00 0.  1.
         25    1    1    2    0    0  0.32226686985E+03 -0.42979250887E+02  0.14380545927E+02  0.34861863334E+03  0.12500000000E+03 0.  0.
         21    1    1    2  503  504 -0.16371712351E+03  0.12063816844E+03 -0.23061126125E+03  0.30747100356E+03  0.00000000000E+00 0.  1.
         21    1    1    2  504  501 -0.15854974634E+03 -0.77658917553E+02 -0.12683493168E+04  0.12805775724E+04  0.00000000000E+00 0.  1.
<mgrwt>
<rscale>  4 0.29884196E+03</rscale>
<asrwt>0</asrwt>
<pdfrwt beam="1">  1       21 0.34775937E-01 0.29884196E+03</pdfrwt>
<pdfrwt beam="2">  1       21 0.26317286E+00 0.29884196E+03</pdfrwt>
<totfact> 0.39512603E+02</totfact>
</mgrwt>
</event>
<event>
 5    0  0.2011948E+000  0.2808565E+03  0.7546771E-02  0.1095222E+00
         21   -1    0    0  502  501  0.00000000000E+00  0.00000000000E+00  0.42728290880E+03  0.42728290880E+03  0.00000000000E+00 0.  1.
         21   -1    0    0  503  502 -0.00000000000E+00 -0.00000000000E+00 -0.17464437868E+03  0.17464437868E+03  0.00000000000E+00 0.  1.
         25    1    1    2    0    0 -0.14030706589E+03  0.20873261169E+03  0.11351518234E+03  0.30292915433E+03  0.12500000000E+03 0.  0.
         21    1    1    2  503  504  0.12867935503E+02 -0.86000761172E+02  0.35250075359E+02  0.93831138217E+02  0.00000000000E+00 0.  1.
         21    1    1    2  504  501  0.12743913039E+03 -0.12273185051E+03  0.10387327242E+03  0.20516699493E+03  0.00000000000E+00 0.  1.
<mgrwt>
<rscale>  4 0.28085650E+03</rscale>
<asrwt>0</asrwt>
<pdfrwt beam="1">  1       21 0.65735832E-01 0.28085650E+03</pdfrwt>
<pdfrwt beam="2">  1       21 0.26868366E-01 0.28085650E+03</pdfrwt>
<totfact> 0.26883441E+04</totfact>
</mgrwt>
</event>
<event>
 5    0  0.2480160E+000  0.2572955E+03  0.7546771E-02  0.1108779E+00
         21   -1    0    0  502  501  0.00000000000E+00  0.00000000000E+00  0.61017043025E+03  0.61017043025E+03  0.00000000000E+00 0.  1.
         21   -1    0    0  503  502 -0.00000000000E+00 -0.00000000000E+00 -0.13319390597E+03  0.13319390597E+03  0.00000000000E+00 0.  1.
         25    1    1    2    0    0 -0.45373888686E+01  0.22484529900E+03  0.44019759623E+03  0.50987735791E+03  0.12500000000E+03 0.  0.
         21    1    1    2  503  504 -0.75103267491E+01 -0.66190993720E+02  0.32975160155E+02  0.74330436866E+02  0.00000000000E+00 0. -1.
         21    1    1    2  504  501  0.12047715618E+02 -0.15865430528E+03  0.38037679005E+01  0.15915654145E+03  0.00000000000E+00 0.  1.
<mgrwt>
<rscale>  4 0.25729554E+03</rscale>
<asrwt>0</asrwt>
<pdfrwt beam="1">  1       21 0.93872372E-01 0.25729554E+03</pdfrwt>
<pdfrwt beam="2">  1       21 0.20491371E-01 0.25729554E+03</pdfrwt>
<totfact> 0.20279001E+04</totfact>
</mgrwt>
</event>
<event>
 5    0  0.1856407E+000  0.2496230E+03  0.7546771E-02  0.1113543E+00
         21   -1    0    0  502  501  0.00000000000E+00  0.00000000000E+00  0.11506520042E+03  0.11506520042E+03  0.00000000000E+00 0.  1.
         21   -1    0    0  503  502 -0.00000000000E+00 -0.00000000000E+00 -0.21431075596E+04  0.21431075596E+04  0.00000000000E+00 0.  1.
         25    1    1    2    0    0 -0.11203573490E+02 -0.21578029197E+03 -0.34413015135E+02  0.25198394805E+03  0.12500000000E+03 0.  0.
         21    1    1    2  503  504  0.25438890606E+02  0.15519575468E+03 -0.15944611752E+04  0.16021982707E+04  0.00000000000E+00 0.  1.
         21    1    1    2  504  501 -0.14235317116E+02  0.60584537289E+02 -0.39916816888E+03  0.40399054130E+03  0.00000000000E+00 0.  1.
<mgrwt>
<rscale>  4 0.24962302E+03</rscale>
<asrwt>0</asrwt>
<pdfrwt beam="1">  1       21 0.17702340E-01 0.24962302E+03</pdfrwt>
<pdfrwt beam="2">  1       21 0.32970883E+00 0.24962302E+03</pdfrwt>
<totfact> 0.61828234E+02</totfact>
</mgrwt>
</event>
<event>
 5    0  0.1856407E+000  0.2785754E+03  0.7546771E-02  0.1096470E+00
         21   -1    0    0  502  501  0.00000000000E+00  0.00000000000E+00  0.48262092528E+03  0.48262092528E+03  0.00000000000E+00 0. -1.
         21   -1    0    0  503  502 -0.00000000000E+00 -0.00000000000E+00 -0.28681562507E+03  0.28681562507E+03  0.00000000000E+00 0. -1.
         25    1    1    2    0    0  0.16377911727E+03  0.18749843320E+03  0.36967978390E+03  0.46289027246E+03  0.12500000000E+03 0.  0.
         21    1    1    2  503  504 -0.41102816883E+02 -0.23670538134E+02 -0.26425404349E+02  0.54295837099E+02  0.00000000000E+00 0. -1.
         21    1    1    2  504  501 -0.12267630039E+03 -0.16382789507E+03 -0.14744907935E+03  0.25225044079E+03  0.00000000000E+00 0. -1.
<mgrwt>
<rscale>  4 0.27857541E+03</rscale>
<asrwt>0</asrwt>
<pdfrwt beam="1">  1       21 0.74249373E-01 0.27857541E+03</pdfrwt>
<pdfrwt beam="2">  1       21 0.44125481E-01 0.27857541E+03</pdfrwt>
<totfact> 0.76066083E+03</totfact>
</mgrwt>
</event>
<event>
 5    0  0.1856407E+000  0.2519938E+03  0.7546771E-02  0.1112051E+00
         21   -1    0    0  502  501  0.00000000000E+00  0.00000000000E+00  0.14382443396E+03  0.14382443396E+03  0.00000000000E+00 0. -1.
         21   -1    0    0  503  502 -0.00000000000E+00 -0.00000000000E+00 -0.80408949445E+03  0.80408949445E+03  0.00000000000E+00 0. -1.
         25    1    1    2    0    0  0.18463223434E+02 -0.21802522962E+03 -0.45592452565E+00  0.25199424446E+03  0.12500000000E+03 0.  0.
         21    1    1    2  503  504  0.65428727252E+01  0.23852689469E+02 -0.57577356932E+02  0.62665078071E+02  0.00000000000E+00 0. -1.
         21    1    1    2  504  501 -0.25006096159E+02  0.19417254016E+03 -0.60223177904E+03  0.63325460589E+03  0.00000000000E+00 0. -1.
<mgrwt>
<rscale>  4 0.25199383E+03</rscale>
<asrwt>0</asrwt>
<pdfrwt beam="1">  1       21 0.22126836E-01 0.25199383E+03</pdfrwt>
<pdfrwt beam="2">  1       21 0.12370607E+00 0.25199383E+03</pdfrwt>
<totfact> 0.89875710E+03</totfact>
</mgrwt>
</event>
<event>
 5    0  0.1856407E+000  0.2775351E+03  0.7546771E-02  0.1097043E+00
         21   -1    0    0  502  501  0.00000000000E+00  0.00000000000E+00  0.14727166675E+03  0.14727166675E+03  0.00000000000E+00 0.  1.
         21   -1    0    0  503  502 -0.00000000000E+00 -0.00000000000E+00 -0.10371106298E+04  0.10371106298E+04  0.00000000000E+00 0.  1.
         25    1    1    2    0    0  0.10893167805E+03  0.22256378966E+03 -0.20423153765E+02  0.27828556585E+03  0.12500000000E+03 0.  0.
         21    1    1    2  503  504 -0.84280874618E+02 -0.20075662299E+03 -0.80268668824E+03  0.83169249544E+03  0.00000000000E+00 0.  1.
         21    1    1    2  504  501 -0.24650803435E+02 -0.21807166669E+02 -0.66729121035E+02  0.74404235244E+02  0.00000000000E+00 0.  1.
<mgrwt>
<rscale>  4 0.27753513E+03</rscale>
<asrwt>0</asrwt>
<pdfrwt beam="1">  1       21 0.22657179E-01 0.27753513E+03</pdfrwt>
<pdfrwt beam="2">  1       21 0.15955548E+00 0.27753513E+03</pdfrwt>
<totfact> 0.43486331E+03</totfact>
</mgrwt>
</event>
