<event>
 5    0  0.1814147E+000  0.2954082E+03  0.7546771E-02  0.1087559E+00
         21   -1    0    0  503  501  0.00000000000E+00  0.00000000000E+00  0.37337242685E+03  0.37337242685E+03  0.00000000000E+00 0. -1.
         21   -1    0    0  504  502 -0.00000000000E+00 -0.00000000000E+00 -0.16273963071E+04  0.16273963071E+04  0.00000000000E+00 0. -1.
         25    1    1    2    0    0 -0.11682216627E+03 -0.23648955981E+03  0.56109446567E+02  0.29723391534E+03  0.12500000000E+03 0.  0.
         21    1    1    2  503  502  0.96701510404E+02  0.24993251151E+03 -0.14941202833E+04  0.15179633933E+04  0.00000000000E+00 0. -1.
         21    1    1    2  504  501  0.20120655865E+02 -0.13442951692E+02  0.18398695648E+03  0.18557142532E+03  0.00000000000E+00 0. -1.
<mgrwt>
<rscale>  4 0.29540819E+03</rscale>
<asrwt>0</asrwt>
<pdfrwt beam="1">  1       21 0.57441912E-01 0.29540819E+03</pdfrwt>
<pdfrwt beam="2">  1       21 0.25036866E+00 0.29540819E+03</pdfrwt>
<totfact> 0.16690623E+02</totfact>
</mgrwt>
</event>
<event>
 5    0  0.1814147E+000  0.3341105E+03  0.7546771E-02  0.1069332E+00
         21   -1    0    0  503  501  0.00000000000E+00  0.00000000000E+00  0.14828510528E+03  0.14828510528E+03  0.00000000000E+00 0. -1.
         21   -1    0    0  501  502 -0.00000000000E+00 -0.00000000000E+00 -0.21115625132E+04  0.21115625132E+04  0.00000000000E+00 0. -1.
         25    1    1    2    0    0  0.21905468148E+03 -0.14630181203E+03 -0.10570643642E+04  0.10965396681E+04  0.12500000000E+03 0.  0.
         21    1    1    2  503  504  0.11279076128E+03 -0.10363109485E+03  0.13855940067E+02  0.15379579554E+03  0.00000000000E+00 0. -1.
         21    1    1    2  504  502 -0.33184544276E+03  0.24993290688E+03 -0.92006898387E+03  0.10095121549E+04  0.00000000000E+00 0. -1.
<mgrwt>
<rscale>  4 0.33411050E+03</rscale>
<asrwt>0</asrwt>
<pdfrwt beam="1">  1       21 0.22813096E-01 0.33411050E+03</pdfrwt>
<pdfrwt beam="2">  1       21 0.32485573E+00 0.33411050E+03</pdfrwt>
<totfact> 0.37704019E+02</totfact>
</mgrwt>
</event>
<event>
 5    0  0.1814147E+000  0.2470036E+03  0.7546771E-02  0.1115213E+00
         21   -1    0    0  503  501  0.00000000000E+00  0.00000000000E+00  0.28270913501E+03  0.28270913501E+03  0.00000000000E+00 0.  1.
         21   -1    0    0  504  502 -0.00000000000E+00 -0.00000000000E+00 -0.37123182692E+03  0.37123182692E+03  0.00000000000E+00 0.  1.
         25    1    1    2    0    0  0.74494698579E+02 -0.20174097200E+03 -0.25809902792E+03  0.35845360664E+03  0.12500000000E+03 0.  0.
         21    1    1    2  503  502 -0.48583127445E+02  0.20117401780E+03  0.11918851397E+03  0.23882463770E+03  0.00000000000E+00 0.  1.
         21    1    1    2  504  501 -0.25911571134E+02  0.56695420196E+00  0.50387822032E+02  0.56662717591E+02  0.00000000000E+00 0.  1.
<mgrwt>
<rscale>  4 0.24700358E+03</rscale>
<asrwt>0</asrwt>
<pdfrwt beam="1">  1       21 0.43493714E-01 0.24700358E+03</pdfrwt>
<pdfrwt beam="2">  1       21 0.57112588E-01 0.24700358E+03</pdfrwt>
<totfact> 0.14170543E+04</totfact>
</mgrwt>
</event>
<event>
 5    0  0.1814147E+000  0.4556998E+03  0.7546771E-02  0.1026036E+00
         21   -1    0    0  503  501  0.00000000000E+00  0.00000000000E+00  0.15750998594E+04  0.15750998594E+04  0.00000000000E+00 0.  1.
         21   -1    0    0  504  502 -0.00000000000E+00 -0.00000000000E+00 -0.10866825760E+04  0.10866825760E+04  0.00000000000E+00 0.  1.
         25    1    1    2    0    0 -0.13477475778E+02 -0.58946996470E+03 -0.22978166980E+03  0.64504348490E+03  0.12500000000E+03 0.  0.
         21    1    1    2  503  502 -0.81395012834E+02  0.38815027135E+03 -0.57832869929E+03  0.70124879015E+03  0.00000000000E+00 0.  1.
         21    1    1    2  504  501  0.94872488612E+02  0.20131969335E+03  0.12965276526E+04  0.13154901603E+04  0.00000000000E+00 0.  1.
<mgrwt>
<rscale>  4 0.45569983E+03</rscale>
<asrwt>0</asrwt>
<pdfrwt beam="1">  1       21 0.24232306E+00 0.45569983E+03</pdfrwt>
<pdfrwt beam="2">  1       21 0.16718193E+00 0.45569983E+03</pdfrwt>
<totfact> 0.12240902E+01</totfact>
</mgrwt>
</event>
<event>
 5    0  0.1814147E+000  0.3299152E+03  0.7546771E-02  0.1071174E+00
         21   -1    0    0  503  501  0.00000000000E+00  0.00000000000E+00  0.16584210588E+03  0.16584210588E+03  0.00000000000E+00 0.  1.
         21   -1    0    0  501  502 -0.00000000000E+00 -0.00000000000E+00 -0.81184145134E+03  0.81184145134E+03  0.00000000000E+00 0.  1.
         25    1    1    2    0    0  0.23149371468E+02 -0.29560224854E+03 -0.37371122283E+03  0.49315480410E+03  0.12500000000E+03 0.  0.
         21    1    1    2  503  504 -0.73770018055E+02 -0.22876008241E+02 -0.39056435587E+02  0.86549017774E+02  0.00000000000E+00 0.  1.
         21    1    1    2  504  502  0.50620646586E+02  0.31847825678E+03 -0.23323168704E+03  0.39797973534E+03  0.00000000000E+00 0.  1.
<mgrwt>
<rscale>  4 0.32991521E+03</rscale>
<asrwt>0</asrwt>
<pdfrwt beam="1">  1       21 0.25514170E-01 0.32991521E+03</pdfrwt>
<pdfrwt beam="2">  1       21 0.12489869E+00 0.32991521E+03</pdfrwt>
<totfact> 0.64117746E+03</totfact>
</mgrwt>
</event>
<event>
 5    0  0.1814147E+000  0.3037890E+03  0.7546771E-02  0.1083362E+00
         21   -1    0    0  503  501  0.00000000000E+00  0.00000000000E+00  0.14794858081E+03  0.14794858081E+03  0.00000000000E+00 0. -1.
         21   -1    0    0  504  502 -0.00000000000E+00 -0.00000000000E+00 -0.69009371624E+03  0.69009371624E+03  0.00000000000E+00 0. -1.
         25    1    1    2    0    0  0.24582236846E+03  0.89788425534E+02 -0.16048604611E+03  0.33146850407E+03  0.12500000000E+03 0.  0.
         21    1    1    2  503  502 -0.27464465298E+03 -0.78314528208E+02 -0.38020258292E+03  0.47551746004E+03  0.00000000000E+00 0. -1.
         21    1    1    2  504  501  0.28822284523E+02 -0.11473897326E+02 -0.14565064020E+01  0.31056332943E+02  0.00000000000E+00 0. -1.
<mgrwt>
<rscale>  4 0.30378903E+03</rscale>
<asrwt>0</asrwt>
<pdfrwt beam="1">  1       21 0.22761320E-01 0.30378903E+03</pdfrwt>
<pdfrwt beam="2">  1       21 0.10616826E+00 0.30378903E+03</pdfrwt>
<totfact> 0.12104864E+04</totfact>
</mgrwt>
</event>
<event>
 5    0  0.1814147E+000  0.2954844E+03  0.7546771E-02  0.1087520E+00
         21   -1    0    0  503  501  0.00000000000E+00  0.00000000000E+00  0.21874018098E+03  0.21874018098E+03  0.00000000000E+00 0. -1.
         21   -1    0    0  504  502 -0.00000000000E+00 -0.00000000000E+00 -0.15042656997E+04  0.15042656997E+04  0.00000000000E+00 0.  1.
         25    1    1    2    0    0 -0.29314787852E+03  0.36609629820E+01 -0.12798996525E+04  0.13189833971E+04  0.12500000000E+03 0.  0.
         21    1    1    2  503  502  0.19218127439E+03  0.63050322443E+02 -0.12193839752E+03  0.23617357637E+03  0.00000000000E+00 0. -1.
         21    1    1    2  504  501  0.10096660413E+03 -0.66711285425E+02  0.11631253124E+03  0.16784890728E+03  0.00000000000E+00 0. -1.
<mgrwt>
<rscale>  4 0.29548439E+03</rscale>
<asrwt>0</asrwt>
<pdfrwt beam="1">  1       21 0.33652336E-01 0.29548439E+03</pdfrwt>
<pdfrwt beam="2">  1       21 0.23142549E+00 0.29548439E+03</pdfrwt>
<totfact> 0.65808420E+02</totfact>
</mgrwt>
</event>
<event>
 5    0  0.1814147E+000  0.2106502E+03  0.7546771E-02  0.1141052E+00
         21   -1    0    0  503  501  0.00000000000E+00  0.00000000000E+00  0.20048616336E+03  0.20048616336E+03  0.00000000000E+00 0.  1.
         21   -1    0    0  501  502 -0.00000000000E+00 -0.00000000000E+00 -0.43598235430E+03  0.43598235430E+03  0.00000000000E+00 0.  1.
         25    1    1    2    0    0  0.12885862279E+03 -0.15297568747E+03 -0.71838004348E+02  0.24655994097E+03  0.12500000000E+03 0.  0.
         21    1    1    2  503  504 -0.21988007951E+02  0.32228403735E+02  0.85010046470E+02  0.93535290141E+02  0.00000000000E+00 0.  1.
         21    1    1    2  504  502 -0.10687061484E+03  0.12074728373E+03 -0.24866823306E+03  0.29637328655E+03  0.00000000000E+00 0.  1.
<mgrwt>
<rscale>  4 0.21065015E+03</rscale>
<asrwt>0</asrwt>
<pdfrwt beam="1">  1       21 0.30844026E-01 0.21065015E+03</pdfrwt>
<pdfrwt beam="2">  1       21 0.67074207E-01 0.21065015E+03</pdfrwt>
<totfact> 0.20324191E+04</totfact>
</mgrwt>
</event>
<event>
 5    0  0.1814147E+000  0.2613881E+03  0.7546771E-02  0.1106312E+00
         21   -1    0    0  503  501  0.00000000000E+00  0.00000000000E+00  0.93767381475E+03  0.93767381475E+03  0.00000000000E+00 0. -1.
         21   -1    0    0  501  502 -0.00000000000E+00 -0.00000000000E+00 -0.25830448447E+03  0.25830448447E+03  0.00000000000E+00 0.  1.
         25    1    1    2    0    0  0.21495338536E+03 -0.92559358619E+02 -0.15558949344E+03  0.30757971847E+03  0.12500000000E+03 0.  0.
         21    1    1    2  503  504 -0.72691306792E+02 -0.49567427549E+02  0.14380660720E+03  0.16858616857E+03  0.00000000000E+00 0. -1.
         21    1    1    2  504  502 -0.14226207857E+03  0.14212678617E+03  0.69115221651E+03  0.71981241218E+03  0.00000000000E+00 0. -1.
<mgrwt>
<rscale>  4 0.26138810E+03</rscale>
<asrwt>0</asrwt>
<pdfrwt beam="1">  1       21 0.14425751E+00 0.26138810E+03</pdfrwt>
<pdfrwt beam="2">  1       21 0.39739152E-01 0.26138810E+03</pdfrwt>
<totfact> 0.19081919E+03</totfact>
</mgrwt>
</event>
<event>
 5    0  0.1814147E+000  0.3909401E+03  0.7546771E-02  0.1046963E+00
         21   -1    0    0  503  501  0.00000000000E+00  0.00000000000E+00  0.13551734892E+04  0.13551734892E+04  0.00000000000E+00 0. -1.
         21   -1    0    0  504  502 -0.00000000000E+00 -0.00000000000E+00 -0.21851269340E+03  0.21851269340E+03  0.00000000000E+00 0. -1.
         25    1    1    2    0    0 -0.36760841043E+03  0.11288675859E+02  0.31928078400E+02  0.38975348595E+03  0.12500000000E+03 0.  0.
         21    1    1    2  503  502  0.38303486099E+03  0.18480781112E+02  0.92911161460E+03  0.10051396104E+04  0.00000000000E+00 0. -1.
         21    1    1    2  504  501 -0.15426450560E+02 -0.29769456971E+02  0.17562110278E+03  0.17879308623E+03  0.00000000000E+00 0. -1.
<mgrwt>
<rscale>  4 0.39094005E+03</rscale>
<asrwt>0</asrwt>
<pdfrwt beam="1">  1       21 0.20848822E+00 0.39094005E+03</pdfrwt>
<pdfrwt beam="2">  1       21 0.33617338E-01 0.39094005E+03</pdfrwt>
<totfact> 0.86429287E+02</totfact>
</mgrwt>
</event>
<event>
 5    0  0.1814147E+000  0.2387735E+03  0.7546771E-02  0.1120613E+00
         21   -1    0    0  503  501  0.00000000000E+00  0.00000000000E+00  0.13056966610E+03  0.13056966610E+03  0.00000000000E+00 0.  1.
         21   -1    0    0  504  502 -0.00000000000E+00 -0.00000000000E+00 -0.63066944777E+03  0.63066944777E+03  0.00000000000E+00 0.  1.
         25    1    1    2    0    0 -0.42233586804E+02 -0.20597273413E+03 -0.45449118081E+03  0.51613532770E+03  0.12500000000E+03 0.  0.
         21    1    1    2  503  502  0.15298224538E+02  0.18935356146E+03 -0.72736073181E+02  0.20341913198E+03  0.00000000000E+00 0.  1.
         21    1    1    2  504  501  0.26935362266E+02  0.16619172665E+02  0.27127472322E+02  0.41684654191E+02  0.00000000000E+00 0.  1.
<mgrwt>
<rscale>  4 0.23877354E+03</rscale>
<asrwt>0</asrwt>
<pdfrwt beam="1">  1       21 0.20087641E-01 0.23877354E+03</pdfrwt>
<pdfrwt beam="2">  1       21 0.97026070E-01 0.23877354E+03</pdfrwt>
<totfact> 0.19653178E+04</totfact>
</mgrwt>
</event>
<event>
 5    0  0.1814147E+000  0.2682599E+03  0.7546771E-02  0.1102280E+00
         21   -1    0    0  503  501  0.00000000000E+00  0.00000000000E+00  0.17436628693E+04  0.17436628693E+04  0.00000000000E+00 0.  1.
         21   -1    0    0  501  502 -0.00000000000E+00 -0.00000000000E+00 -0.12600277028E+03  0.12600277028E+03  0.00000000000E+00 0.  1.
         25    1    1    2    0    0 -0.23715511305E+03  0.97880341384E+01  0.37234559379E+02  0.27083161866E+03  0.12500000000E+03 0.  0.
         21    1    1    2  503  504  0.39158679379E+02 -0.57482940499E+01  0.39526524443E+03  0.39724181364E+03  0.00000000000E+00 0. -1.
         21    1    1    2  504  502  0.19799643367E+03 -0.40397400885E+01  0.11851602952E+04  0.12015922073E+04  0.00000000000E+00 0.  1.
<mgrwt>
<rscale>  4 0.26825986E+03</rscale>
<asrwt>0</asrwt>
<pdfrwt beam="1">  1       21 0.26825581E+00 0.26825986E+03</pdfrwt>
<pdfrwt beam="2">  1       21 0.19385043E-01 0.26825986E+03</pdfrwt>
<totfact> 0.11745520E+03</totfact>
</mgrwt>
</event>
<event>
 5    0  0.1814147E+000  0.2331953E+03  0.7546771E-02  0.1124411E+00
         21   -1    0    0  503  501  0.00000000000E+00  0.00000000000E+00  0.67160886008E+03  0.67160886008E+03  0.00000000000E+00 0.  1.
         21   -1    0    0  501  502 -0.00000000000E+00 -0.00000000000E+00 -0.65329709887E+03  0.65329709887E+03  0.00000000000E+00 0.  1.
         25    1    1    2    0    0  0.19115982208E+03  0.10233908271E+03 -0.49743483941E+03  0.55684987644E+03  0.12500000000E+03 0.  0.
         21    1    1    2  503  504 -0.60316670413E+02 -0.60723982150E+01  0.58739534112E+03  0.59051525088E+03  0.00000000000E+00 0.  1.
         21    1    1    2  504  502 -0.13084315167E+03 -0.96266684493E+02 -0.71648740502E+02  0.17754083163E+03  0.00000000000E+00 0.  1.
<mgrwt>
<rscale>  4 0.23319526E+03</rscale>
<asrwt>0</asrwt>
<pdfrwt beam="1">  1       21 0.10332444E+00 0.23319526E+03</pdfrwt>
<pdfrwt beam="2">  1       21 0.10050725E+00 0.23319526E+03</pdfrwt>
<totfact> 0.59124366E+02</totfact>
</mgrwt>
</event>
<event>
 5    0  0.1814147E+000  0.3182579E+03  0.7546771E-02  0.1076454E+00
         21   -1    0    0  503  501  0.00000000000E+00  0.00000000000E+00  0.12640077992E+04  0.12640077992E+04  0.00000000000E+00 0. -1.
         21   -1    0    0  501  502 -0.00000000000E+00 -0.00000000000E+00 -0.96932750183E+02  0.96932750183E+02  0.00000000000E+00 0. -1.
         25    1    1    2    0    0 -0.90583594092E+02 -0.27351928799E+03  0.31601264571E+03  0.44554144663E+03  0.12500000000E+03 0.  0.
         21    1    1    2  503  504  0.15244418120E+02 -0.18782733111E+02  0.15253319833E+03  0.15443950252E+03  0.00000000000E+00 0.  1.
         21    1    1    2  504  502  0.75339175972E+02  0.29230202110E+03  0.69852920503E+03  0.76095960028E+03  0.00000000000E+00 0. -1.
<mgrwt>
<rscale>  4 0.31825789E+03</rscale>
<asrwt>0</asrwt>
<pdfrwt beam="1">  1       21 0.19446273E+00 0.31825789E+03</pdfrwt>
<pdfrwt beam="2">  1       21 0.14912732E-01 0.31825789E+03</pdfrwt>
<totfact> 0.52886499E+03</totfact>
</mgrwt>
</event>
<event>
 5    0  0.1814147E+000  0.2934466E+03  0.7546771E-02  0.1088563E+00
         21   -1    0    0  503  501  0.00000000000E+00  0.00000000000E+00  0.27155153077E+03  0.27155153077E+03  0.00000000000E+00 0. -1.
         21   -1    0    0  501  502 -0.00000000000E+00 -0.00000000000E+00 -0.41110781537E+03  0.41110781537E+03  0.00000000000E+00 0. -1.
         25    1    1    2    0    0  0.18926167141E+03 -0.16591929198E+03 -0.91124257171E+02  0.29542820103E+03  0.12500000000E+03 0.  0.
         21    1    1    2  503  504  0.63663981284E+00 -0.37640835795E+02  0.74067789074E+02  0.83085950725E+02  0.00000000000E+00 0.  1.
         21    1    1    2  504  502 -0.18989831123E+03  0.20356012777E+03 -0.12249981650E+03  0.30414519439E+03  0.00000000000E+00 0. -1.
<mgrwt>
<rscale>  4 0.29344656E+03</rscale>
<asrwt>0</asrwt>
<pdfrwt beam="1">  1       21 0.41777159E-01 0.29344656E+03</pdfrwt>
<pdfrwt beam="2">  1       21 0.63247356E-01 0.29344656E+03</pdfrwt>
<totfact> 0.12067167E+04</totfact>
</mgrwt>
</event>
<event>
 5    0  0.1814147E+000  0.5188465E+03  0.7546771E-02  0.1008973E+00
         21   -1    0    0  503  501  0.00000000000E+00  0.00000000000E+00  0.65253227977E+03  0.65253227977E+03  0.00000000000E+00 0. -1.
         21   -1    0    0  501  502 -0.00000000000E+00 -0.00000000000E+00 -0.54866698526E+03  0.54866698526E+03  0.00000000000E+00 0. -1.
         25    1    1    2    0    0 -0.32412698623E+03 -0.39049297959E+03  0.11659771407E+02  0.52278487026E+03  0.12500000000E+03 0.  0.
         21    1    1    2  503  504  0.18985090131E+02 -0.63250507570E+01  0.17057172833E+03  0.17174153376E+03  0.00000000000E+00 0. -1.
         21    1    1    2  504  502  0.30514189610E+03  0.39681803034E+03 -0.78366205223E+02  0.50667286101E+03  0.00000000000E+00 0. -1.
<mgrwt>
<rscale>  4 0.51884648E+03</rscale>
<asrwt>0</asrwt>
<pdfrwt beam="1">  1       21 0.10038958E+00 0.51884648E+03</pdfrwt>
<pdfrwt beam="2">  1       21 0.84410306E-01 0.51884648E+03</pdfrwt>
<totfact> 0.81634068E+02</totfact>
</mgrwt>
</event>
<event>
 5    0  0.1814147E+000  0.3001236E+03  0.7546771E-02  0.1085179E+00
         21   -1    0    0  503  501  0.00000000000E+00  0.00000000000E+00  0.44258279176E+03  0.44258279176E+03  0.00000000000E+00 0. -1.
         21   -1    0    0  501  502 -0.00000000000E+00 -0.00000000000E+00 -0.15811512099E+04  0.15811512099E+04  0.00000000000E+00 0.  1.
         25    1    1    2    0    0  0.11254582411E+03 -0.30650486570E+03 -0.12858721492E+04  0.13325554320E+04  0.12500000000E+03 0.  0.
         21    1    1    2  503  504 -0.11745171260E+03  0.11037955048E+03  0.36446955447E+03  0.39851801225E+03  0.00000000000E+00 0. -1.
         21    1    1    2  504  502  0.49058884954E+01  0.19612531522E+03 -0.21716582337E+03  0.29266055738E+03  0.00000000000E+00 0.  1.
<mgrwt>
<rscale>  4 0.30012364E+03</rscale>
<asrwt>0</asrwt>
<pdfrwt beam="1">  1       21 0.68089659E-01 0.30012364E+03</pdfrwt>
<pdfrwt beam="2">  1       21 0.24325404E+00 0.30012364E+03</pdfrwt>
<totfact> 0.12649605E+02</totfact>
</mgrwt>
</event>
<event>
 5    0  0.1814147E+000  0.2892950E+03  0.7546771E-02  0.1090718E+00
         21   -1    0    0  503  501  0.00000000000E+00  0.00000000000E+00  0.12295418178E+03  0.12295418178E+03  0.00000000000E+00 0. -1.
         21   -1    0    0  504  502 -0.00000000000E+00 -0.00000000000E+00 -0.13609607332E+04  0.13609607332E+04  0.00000000000E+00 0. -1.
         25    1    1    2    0    0  0.17483754301E+03  0.18261883342E+03 -0.10472941694E+04  0.10846049428E+04  0.12500000000E+03 0.  0.
         21    1    1    2  503  502 -0.20158755592E+03 -0.22347070507E+03 -0.15303715609E+03  0.33763452115E+03  0.00000000000E+00 0. -1.
         21    1    1    2  504  501  0.26750012907E+02  0.40851871646E+02 -0.37675225934E+02  0.61675451005E+02  0.00000000000E+00 0.  1.
<mgrwt>
<rscale>  4 0.28929505E+03</rscale>
<asrwt>0</asrwt>
<pdfrwt beam="1">  1       21 0.18916029E-01 0.28929505E+03</pdfrwt>
<pdfrwt beam="2">  1       21 0.20937856E+00 0.28929505E+03</pdfrwt>
<totfact> 0.27658916E+03</totfact>
</mgrwt>
</event>
<event>
 5    0  0.1814147E+000  0.2443233E+03  0.7546771E-02  0.1116946E+00
         21   -1    0    0  503  501  0.00000000000E+00  0.00000000000E+00  0.73599536427E+03  0.73599536427E+03  0.00000000000E+00 0. -1.
         21   -1    0    0  501  502 -0.00000000000E+00 -0.00000000000E+00 -0.15445605783E+03  0.15445605783E+03  0.00000000000E+00 0. -1.
         25    1    1    2    0    0  0.13689767861E+03  0.15296497947E+03 -0.48693057415E+01  0.24039128414E+03  0.12500000000E+03 0.  0.
         21    1    1    2  503  504  0.16078924871E+02  0.13453293769E+02  0.20962718252E+03  0.21067291850E+03  0.00000000000E+00 0. -1.
         21    1    1    2  504  502 -0.15297660349E+03 -0.16641827324E+03  0.37678142966E+03  0.43938721945E+03  0.00000000000E+00 0. -1.
<mgrwt>
<rscale>  4 0.24432335E+03</rscale>
<asrwt>0</asrwt>
<pdfrwt beam="1">  1       21 0.11323005E+00 0.24432335E+03</pdfrwt>
<pdfrwt beam="2">  1       21 0.23762471E-01 0.24432335E+03</pdfrwt>
<totfact> 0.98183707E+03</totfact>
</mgrwt>
</event>
<event>
 5    0  0.1814147E+000  0.2916955E+03  0.7546771E-02  0.1089467E+00
         21   -1    0    0  503  501  0.00000000000E+00  0.00000000000E+00  0.97841948838E+03  0.97841948838E+03  0.00000000000E+00 0. -1.
         21   -1    0    0  501  502 -0.00000000000E+00 -0.00000000000E+00 -0.99319317970E+03  0.99319317970E+03  0.00000000000E+00 0.  1.
         25    1    1    2    0    0 -0.25660740868E+03  0.61566601777E+02 -0.94264224434E+03  0.98683190537E+03  0.12500000000E+03 0.  0.
         21    1    1    2  503  504  0.21768535458E+02  0.47296815937E+02  0.31831602273E+03  0.32254604053E+03  0.00000000000E+00 0. -1.
         21    1    1    2  504  502  0.23483887322E+03 -0.10886341771E+03  0.60955253028E+03  0.66223472218E+03  0.00000000000E+00 0. -1.
<mgrwt>
<rscale>  4 0.29169552E+03</rscale>
<asrwt>0</asrwt>
<pdfrwt beam="1">  1       21 0.15052608E+00 0.29169552E+03</pdfrwt>
<pdfrwt beam="2">  1       21 0.15279895E+00 0.29169552E+03</pdfrwt>
<totfact> 0.75084109E+01</totfact>
</mgrwt>
</event>
<event>
 5    0  0.1814147E+000  0.2583069E+03  0.7546771E-02  0.1108165E+00
         21   -1    0    0  502  501  0.00000000000E+00  0.00000000000E+00  0.13967570620E+04  0.13967570620E+04  0.00000000000E+00 0. -1.
         21   -1    0    0  504  502 -0.00000000000E+00 -0.00000000000E+00 -0.32175289658E+03  0.32175289658E+03  0.00000000000E+00 0.  1.
         25    1    1    2    0    0  0.25209825695E+02 -0.22463726632E+03 -0.25807713322E+03  0.36513866328E+03  0.12500000000E+03 0.  0.
         21    1    1    2  503  501 -0.23602741307E+02  0.20331057218E+03  0.12779556374E+04  0.12942422066E+04  0.00000000000E+00 0. -1.
         21    1    1    2  504  503 -0.16070843877E+01  0.21326694136E+02  0.55125661207E+02  0.59129088667E+02  0.00000000000E+00 0. -1.
<mgrwt>
<rscale>  4 0.25830687E+03</rscale>
<asrwt>0</asrwt>
<pdfrwt beam="1">  1       21 0.21488570E+00 0.25830687E+03</pdfrwt>
<pdfrwt beam="2">  1       21 0.49500446E-01 0.25830687E+03</pdfrwt>
<totfact> 0.39139686E+02</totfact>
</mgrwt>
</event>
<event>
 5    0  0.1814147E+000  0.2307131E+03  0.7546771E-02  0.1126139E+00
         21   -1    0    0  503  501  0.00000000000E+00  0.00000000000E+00  0.34689622052E+03  0.34689622052E+03  0.00000000000E+00 0. -1.
         21   -1    0    0  501  502 -0.00000000000E+00 -0.00000000000E+00 -0.45239185997E+03  0.45239185997E+03  0.00000000000E+00 0. -1.
         25    1    1    2    0    0 -0.21291566311E+03 -0.36635552727E+02 -0.27449353895E+03  0.37100801372E+03  0.12500000000E+03 0.  0.
         21    1    1    2  503  504  0.48662252127E+02 -0.87243386863E+00  0.24041143300E+03  0.24528846903E+03  0.00000000000E+00 0. -1.
         21    1    1    2  504  502  0.16425341098E+03  0.37507986596E+02 -0.71413533496E+02  0.18299159774E+03  0.00000000000E+00 0. -1.
<mgrwt>
<rscale>  4 0.23071306E+03</rscale>
<asrwt>0</asrwt>
<pdfrwt beam="1">  1       21 0.53368650E-01 0.23071306E+03</pdfrwt>
<pdfrwt beam="2">  1       21 0.69598747E-01 0.23071306E+03</pdfrwt>
<totfact> 0.60705308E+03</totfact>
</mgrwt>
</event>
<event>
 5    0  0.1814147E+000  0.2574174E+03  0.7546771E-02  0.1108705E+00
         21   -1    0    0  503  501  0.00000000000E+00  0.00000000000E+00  0.11450841378E+03  0.11450841378E+03  0.00000000000E+00 0.  1.
         21   -1    0    0  504  502 -0.00000000000E+00 -0.00000000000E+00 -0.14047323602E+04  0.14047323602E+04  0.00000000000E+00 0.  1.
         25    1    1    2    0    0  0.35505723698E+02  0.22173438689E+03 -0.97229568186E+03  0.10056891606E+04  0.12500000000E+03 0.  0.
         21    1    1    2  503  502  0.83597344035E+02 -0.23367621299E+03 -0.30491041336E+03  0.39314558197E+03  0.00000000000E+00 0.  1.
         21    1    1    2  504  501 -0.11910306773E+03  0.11941826101E+02 -0.13017851192E+02  0.12040603143E+03  0.00000000000E+00 0.  1.
<mgrwt>
<rscale>  4 0.25741745E+03</rscale>
<asrwt>0</asrwt>
<pdfrwt beam="1">  1       21 0.17616678E-01 0.25741745E+03</pdfrwt>
<pdfrwt beam="2">  1       21 0.21611268E+00 0.25741745E+03</pdfrwt>
<totfact> 0.29301826E+03</totfact>
</mgrwt>
</event>
<event>
 5    0  0.1814147E+000  0.3554607E+03  0.7546771E-02  0.1060396E+00
         21   -1    0    0  503  501  0.00000000000E+00  0.00000000000E+00  0.10453389999E+03  0.10453389999E+03  0.00000000000E+00 0. -1.
         21   -1    0    0  504  502 -0.00000000000E+00 -0.00000000000E+00 -0.14900808601E+04  0.14900808601E+04  0.00000000000E+00 0. -1.
         25    1    1    2    0    0 -0.33796462895E+03 -0.69920107858E+02 -0.59307938525E+03  0.69747908149E+03  0.12500000000E+03 0.  0.
         21    1    1    2  503  502  0.31953013553E+03  0.61047580321E+02 -0.80827390081E+03  0.87128239584E+03  0.00000000000E+00 0. -1.
         21    1    1    2  504  501  0.18434493417E+02  0.88725275363E+01  0.15806325920E+02  0.25853282800E+02  0.00000000000E+00 0. -1.
<mgrwt>
<rscale>  4 0.35546073E+03</rscale>
<asrwt>0</asrwt>
<pdfrwt beam="1">  1       21 0.16082139E-01 0.35546073E+03</pdfrwt>
<pdfrwt beam="2">  1       21 0.22924320E+00 0.35546073E+03</pdfrwt>
<totfact> 0.26932622E+03</totfact>
</mgrwt>
</event>
<event>
 5    0  0.1814147E+000  0.2614175E+03  0.7546771E-02  0.1106295E+00
         21   -1    0    0  502  501  0.00000000000E+00  0.00000000000E+00  0.61596048478E+03  0.61596048478E+03  0.00000000000E+00 0. -1.
         21   -1    0    0  504  502 -0.00000000000E+00 -0.00000000000E+00 -0.18692437391E+03  0.18692437391E+03  0.00000000000E+00 0. -1.
         25    1    1    2    0    0  0.12018026828E+03  0.21935942678E+03 -0.11950205269E+02  0.27987436897E+03  0.12500000000E+03 0.  0.
         21    1    1    2  503  501 -0.11631061088E+03 -0.12933793964E+03  0.36805684711E+03  0.40709004353E+03  0.00000000000E+00 0. -1.
         21    1    1    2  504  503 -0.38696573963E+01 -0.90021487132E+02  0.72929469025E+02  0.11592044619E+03  0.00000000000E+00 0. -1.
<mgrwt>
<rscale>  4 0.26141750E+03</rscale>
<asrwt>0</asrwt>
<pdfrwt beam="1">  1       21 0.94763151E-01 0.26141750E+03</pdfrwt>
<pdfrwt beam="2">  1       21 0.28757596E-01 0.26141750E+03</pdfrwt>
<totfact> 0.10333199E+04</totfact>
</mgrwt>
</event>
<event>
 5    0  0.1814147E+000  0.2553928E+03  0.7546771E-02  0.1109943E+00
         21   -1    0    0  502  501  0.00000000000E+00  0.00000000000E+00  0.23414029742E+03  0.23414029742E+03  0.00000000000E+00 0.  1.
         21   -1    0    0  504  502 -0.00000000000E+00 -0.00000000000E+00 -0.45347673049E+03  0.45347673049E+03  0.00000000000E+00 0.  1.
         25    1    1    2    0    0  0.99987797317E+02  0.19085679937E+03 -0.29541843357E+03  0.38642066245E+03  0.12500000000E+03 0.  0.
         21    1    1    2  503  501 -0.13331819972E+03 -0.21182460036E+03  0.76825717949E+02  0.26181213614E+03  0.00000000000E+00 0.  1.
         21    1    1    2  504  503  0.33330402401E+02  0.20967800993E+02 -0.74371744774E+00  0.39384229310E+02  0.00000000000E+00 0.  1.
<mgrwt>
<rscale>  4 0.25539280E+03</rscale>
<asrwt>0</asrwt>
<pdfrwt beam="1">  1       21 0.36021585E-01 0.25539280E+03</pdfrwt>
<pdfrwt beam="2">  1       21 0.69765650E-01 0.25539280E+03</pdfrwt>
<totfact> 0.13372195E+04</totfact>
</mgrwt>
</event>
<event>
 5    0  0.1814147E+000  0.2367424E+03  0.7546771E-02  0.1121982E+00
         21   -1    0    0  502  501  0.00000000000E+00  0.00000000000E+00  0.32021196867E+03  0.32021196867E+03  0.00000000000E+00 0.  1.
         21   -1    0    0  503  502 -0.00000000000E+00 -0.00000000000E+00 -0.11502981960E+04  0.11502981960E+04  0.00000000000E+00 0. -1.
         25    1    1    2    0    0 -0.18407423687E+03  0.89167893336E+02 -0.10806269616E+04  0.11068937925E+04  0.12500000000E+03 0.  0.
         21    1    1    2  503  504  0.16709423340E+03 -0.28735031956E+02  0.91556687521E+02  0.19268838036E+03  0.00000000000E+00 0.  1.
         21    1    1    2  504  501  0.16980003470E+02 -0.60432861380E+02  0.15898404673E+03  0.17092799176E+03  0.00000000000E+00 0.  1.
<mgrwt>
<rscale>  4 0.23674239E+03</rscale>
<asrwt>0</asrwt>
<pdfrwt beam="1">  1       21 0.49263381E-01 0.23674239E+03</pdfrwt>
<pdfrwt beam="2">  1       21 0.17696895E+00 0.23674239E+03</pdfrwt>
<totfact> 0.71654983E+02</totfact>
</mgrwt>
</event>
<event>
 5    0  0.1814147E+000  0.2439941E+03  0.7546771E-02  0.1117160E+00
         21   -1    0    0  503  501  0.00000000000E+00  0.00000000000E+00  0.13286675561E+04  0.13286675561E+04  0.00000000000E+00 0.  1.
         21   -1    0    0  501  502 -0.00000000000E+00 -0.00000000000E+00 -0.20032487617E+03  0.20032487617E+03  0.00000000000E+00 0. -1.
         25    1    1    2    0    0  0.21027362598E+03  0.30044572977E+02 -0.43791710561E+02  0.25032057059E+03  0.12500000000E+03 0.  0.
         21    1    1    2  503  504 -0.30228865396E+01 -0.13312004219E+03  0.94514366447E+03  0.95447715005E+03  0.00000000000E+00 0.  1.
         21    1    1    2  504  502 -0.20725073944E+03  0.10307546922E+03  0.22699072604E+03  0.32419471164E+03  0.00000000000E+00 0. -1.
<mgrwt>
<rscale>  4 0.24399407E+03</rscale>
<asrwt>0</asrwt>
<pdfrwt beam="1">  1       21 0.20441039E+00 0.24399407E+03</pdfrwt>
<pdfrwt beam="2">  1       21 0.30819213E-01 0.24399407E+03</pdfrwt>
<totfact> 0.12085353E+03</totfact>
</mgrwt>
</event>
<event>
 5    0  0.1814147E+000  0.3089798E+03  0.7546771E-02  0.1080836E+00
         21   -1    0    0  502  501  0.00000000000E+00  0.00000000000E+00  0.22993535421E+03  0.22993535421E+03  0.00000000000E+00 0. -1.
         21   -1    0    0  503  502 -0.00000000000E+00 -0.00000000000E+00 -0.95945868814E+03  0.95945868814E+03  0.00000000000E+00 0. -1.
         25    1    1    2    0    0  0.25515494026E+03 -0.12576149269E+03 -0.81305504890E+03  0.87040422168E+03  0.12500000000E+03 0.  0.
         21    1    1    2  503  504  0.92279984846E+00  0.34311430992E+02 -0.68195566448E+00  0.34330611993E+02  0.00000000000E+00 0.  1.
         21    1    1    2  504  501 -0.25607774011E+03  0.91450061700E+02  0.84213670635E+02  0.28465920868E+03  0.00000000000E+00 0. -1.
<mgrwt>
<rscale>  4 0.30897975E+03</rscale>
<asrwt>0</asrwt>
<pdfrwt beam="1">  1       21 0.35374670E-01 0.30897975E+03</pdfrwt>
<pdfrwt beam="2">  1       21 0.14760903E+00 0.30897975E+03</pdfrwt>
<totfact> 0.22025046E+03</totfact>
</mgrwt>
</event>
<event>
 5    0  0.1814147E+000  0.3016256E+03  0.7546771E-02  0.1084431E+00
         21   -1    0    0  503  501  0.00000000000E+00  0.00000000000E+00  0.13753281903E+03  0.13753281903E+03  0.00000000000E+00 0.  1.
         21   -1    0    0  501  502 -0.00000000000E+00 -0.00000000000E+00 -0.15874525693E+04  0.15874525693E+04  0.00000000000E+00 0. -1.
         25    1    1    2    0    0 -0.24155891099E+03  0.11990163276E+03 -0.20367968124E+03  0.36032974006E+03  0.12500000000E+03 0.  0.
         21    1    1    2  503  504  0.49227692450E+01  0.21234011471E+02  0.41978966731E+02  0.47300640037E+02  0.00000000000E+00 0.  1.
         21    1    1    2  504  502  0.23663614175E+03 -0.14113564423E+03 -0.12882190358E+04  0.13173550083E+04  0.00000000000E+00 0. -1.
<mgrwt>
<rscale>  4 0.30162563E+03</rscale>
<asrwt>0</asrwt>
<pdfrwt beam="1">  1       21 0.21158894E-01 0.30162563E+03</pdfrwt>
<pdfrwt beam="2">  1       21 0.24422348E+00 0.30162563E+03</pdfrwt>
<totfact> 0.13485810E+03</totfact>
</mgrwt>
</event>
<event>
 5    0  0.1814147E+000  0.2329101E+03  0.7546771E-02  0.1124608E+00
         21   -1    0    0  503  501  0.00000000000E+00  0.00000000000E+00  0.99742894595E+02  0.99742894595E+02  0.00000000000E+00 0. -1.
         21   -1    0    0  501  502 -0.00000000000E+00 -0.00000000000E+00 -0.14280579678E+04  0.14280579678E+04  0.00000000000E+00 0. -1.
         25    1    1    2    0    0  0.15231328894E+01  0.21798236282E+03 -0.99230558757E+03  0.10236278667E+04  0.12500000000E+03 0.  0.
         21    1    1    2  503  504  0.59506085183E+02 -0.52806785841E+02  0.39945021040E+02  0.89023230174E+02  0.00000000000E+00 0. -1.
         21    1    1    2  504  502 -0.61029218072E+02 -0.16517557698E+03 -0.37595450663E+03  0.41514976544E+03  0.00000000000E+00 0. -1.
<mgrwt>
<rscale>  4 0.23291011E+03</rscale>
<asrwt>0</asrwt>
<pdfrwt beam="1">  1       21 0.15345062E-01 0.23291011E+03</pdfrwt>
<pdfrwt beam="2">  1       21 0.21970120E+00 0.23291011E+03</pdfrwt>
<totfact> 0.36614713E+03</totfact>
</mgrwt>
</event>
<event>
 5    0  0.1814147E+000  0.3045291E+03  0.7546771E-02  0.1082998E+00
         21   -1    0    0  503  501  0.00000000000E+00  0.00000000000E+00  0.78148847383E+03  0.78148847383E+03  0.00000000000E+00 0.  1.
         21   -1    0    0  504  502 -0.00000000000E+00 -0.00000000000E+00 -0.60002164073E+03  0.60002164073E+03  0.00000000000E+00 0.  1.
         25    1    1    2    0    0 -0.24501398912E+03 -0.13922841888E+03 -0.44672133319E+03  0.54277191988E+03  0.12500000000E+03 0.  0.
         21    1    1    2  503  502  0.23558434824E+03  0.11861795055E+03  0.60517415592E+02  0.27061515279E+03  0.00000000000E+00 0.  1.
         21    1    1    2  504  501  0.94296408735E+01  0.20610468330E+02  0.56767075070E+03  0.56812304190E+03  0.00000000000E+00 0.  1.
<mgrwt>
<rscale>  4 0.30452913E+03</rscale>
<asrwt>0</asrwt>
<pdfrwt beam="1">  1       21 0.12022900E+00 0.30452913E+03</pdfrwt>
<pdfrwt beam="2">  1       21 0.92311022E-01 0.30452913E+03</pdfrwt>
<totfact> 0.47127167E+02</totfact>
</mgrwt>
</event>
<event>
 5    0  0.1814147E+000  0.2588110E+03  0.7546771E-02  0.1107860E+00
         21   -1    0    0  503  501  0.00000000000E+00  0.00000000000E+00  0.11806783741E+04  0.11806783741E+04  0.00000000000E+00 0. -1.
         21   -1    0    0  501  502 -0.00000000000E+00 -0.00000000000E+00 -0.64876940153E+03  0.64876940153E+03  0.00000000000E+00 0.  1.
         25    1    1    2    0    0 -0.20474491468E+02  0.22168021573E+03 -0.54201935474E+03  0.59914213987E+03  0.12500000000E+03 0.  0.
         21    1    1    2  503  504  0.32453025844E+02  0.37118355646E+02  0.93506008785E+03  0.93635908662E+03  0.00000000000E+00 0. -1.
         21    1    1    2  504  502 -0.11978534376E+02 -0.25879857138E+03  0.13886823951E+03  0.29394654918E+03  0.00000000000E+00 0.  1.
<mgrwt>
<rscale>  4 0.25881105E+03</rscale>
<asrwt>0</asrwt>
<pdfrwt beam="1">  1       21 0.18164283E+00 0.25881105E+03</pdfrwt>
<pdfrwt beam="2">  1       21 0.99810677E-01 0.25881105E+03</pdfrwt>
<totfact> 0.13522179E+02</totfact>
</mgrwt>
</event>
<event>
 5    0  0.1814147E+000  0.2547354E+03  0.7546771E-02  0.1110348E+00
         21   -1    0    0  503  501  0.00000000000E+00  0.00000000000E+00  0.79198839550E+03  0.79198839550E+03  0.00000000000E+00 0.  1.
         21   -1    0    0  504  502 -0.00000000000E+00 -0.00000000000E+00 -0.27769658298E+03  0.27769658298E+03  0.00000000000E+00 0.  1.
         25    1    1    2    0    0  0.18212213577E+03  0.12860867763E+03 -0.18186258222E+03  0.31369995714E+03  0.12500000000E+03 0.  0.
         21    1    1    2  503  502 -0.20314169465E+03 -0.78684350684E+02  0.64753159410E+03  0.68319465784E+03  0.00000000000E+00 0.  1.
         21    1    1    2  504  501  0.21019558877E+02 -0.49924326950E+02  0.48622800629E+02  0.72790363495E+02  0.00000000000E+00 0.  1.
<mgrwt>
<rscale>  4 0.25473537E+03</rscale>
<asrwt>0</asrwt>
<pdfrwt beam="1">  1       21 0.12184437E+00 0.25473537E+03</pdfrwt>
<pdfrwt beam="2">  1       21 0.42722552E-01 0.25473537E+03</pdfrwt>
<totfact> 0.25507291E+03</totfact>
</mgrwt>
</event>
<event>
 5    0  0.1814147E+000  0.2510798E+03  0.7546771E-02  0.1112624E+00
         21   -1    0    0  503  501  0.00000000000E+00  0.00000000000E+00  0.50315042120E+03  0.50315042120E+03  0.00000000000E+00 0. -1.
         21   -1    0    0  501  502 -0.00000000000E+00 -0.00000000000E+00 -0.44151272831E+03  0.44151272831E+03  0.00000000000E+00 0.  1.
         25    1    1    2    0    0  0.18513028036E+03  0.94414466296E+02 -0.27804467953E+03  0.36894600685E+03  0.12500000000E+03 0.  0.
         21    1    1    2  503  504  0.39503959536E+02  0.67435821696E+01  0.32655742372E+03  0.32900727911E+03  0.00000000000E+00 0. -1.
         21    1    1    2  504  502 -0.22463423989E+03 -0.10115804847E+03  0.13124948705E+02  0.24670986356E+03  0.00000000000E+00 0.  1.
<mgrwt>
<rscale>  4 0.25107982E+03</rscale>
<asrwt>0</asrwt>
<pdfrwt beam="1">  1       21 0.77407757E-01 0.25107982E+03</pdfrwt>
<pdfrwt beam="2">  1       21 0.67925035E-01 0.25107982E+03</pdfrwt>
<totfact> 0.28037752E+03</totfact>
</mgrwt>
</event>
<event>
 5    0  0.1814147E+000  0.1994470E+03  0.7546771E-02  0.1150206E+00
         21   -1    0    0  502  501  0.00000000000E+00  0.00000000000E+00  0.61744930842E+02  0.61744930842E+02  0.00000000000E+00 0. -1.
         21   -1    0    0  503  502 -0.00000000000E+00 -0.00000000000E+00 -0.14782852354E+04  0.14782852354E+04  0.00000000000E+00 0. -1.
         25    1    1    2    0    0  0.68670751935E+02  0.22696295888E+03 -0.10310585245E+04  0.10653330643E+04  0.12500000000E+03 0.  0.
         21    1    1    2  503  504 -0.69822270053E+02 -0.82255472545E+02 -0.26594800047E+03  0.28700078591E+03  0.00000000000E+00 0. -1.
         21    1    1    2  504  501  0.11515181177E+01 -0.14470748633E+03 -0.11953377953E+03  0.18769631601E+03  0.00000000000E+00 0. -1.
<mgrwt>
<rscale>  4 0.19944696E+03</rscale>
<asrwt>0</asrwt>
<pdfrwt beam="1">  1       21 0.94992204E-02 0.19944696E+03</pdfrwt>
<pdfrwt beam="2">  1       21 0.22742849E+00 0.19944696E+03</pdfrwt>
<totfact> 0.80022719E+03</totfact>
</mgrwt>
</event>
<event>
 5    0  0.1814147E+000  0.3536190E+03  0.7546771E-02  0.1061139E+00
         21   -1    0    0  503  501  0.00000000000E+00  0.00000000000E+00  0.31398318295E+04  0.31398318295E+04  0.00000000000E+00 0.  1.
         21   -1    0    0  501  502 -0.00000000000E+00 -0.00000000000E+00 -0.67039496447E+02  0.67039496447E+02  0.00000000000E+00 0.  1.
         25    1    1    2    0    0  0.53204367690E+02  0.29206304855E+03  0.12605372691E+04  0.13010421730E+04  0.12500000000E+03 0.  0.
         21    1    1    2  503  504 -0.45610514710E+02  0.57751018904E+02  0.11874042492E+04  0.11896824577E+04  0.00000000000E+00 0.  1.
         21    1    1    2  504  502 -0.75938529801E+01 -0.34981406746E+03  0.62485081475E+03  0.71614669523E+03  0.00000000000E+00 0.  1.
<mgrwt>
<rscale>  4 0.35361895E+03</rscale>
<asrwt>0</asrwt>
<pdfrwt beam="1">  1       21 0.48305093E+00 0.35361895E+03</pdfrwt>
<pdfrwt beam="2">  1       21 0.10313771E-01 0.35361895E+03</pdfrwt>
<totfact> 0.15554027E+02</totfact>
</mgrwt>
</event>
<event>
 5    0  0.1814147E+000  0.2986498E+03  0.7546771E-02  0.1085918E+00
         21   -1    0    0  502  501  0.00000000000E+00  0.00000000000E+00  0.87354361763E+03  0.87354361763E+03  0.00000000000E+00 0.  1.
         21   -1    0    0  504  502 -0.00000000000E+00 -0.00000000000E+00 -0.58660206329E+03  0.58660206329E+03  0.00000000000E+00 0.  1.
         25    1    1    2    0    0 -0.10769036897E+03  0.24827450830E+03 -0.48313277690E+03  0.56769686202E+03  0.12500000000E+03 0.  0.
         21    1    1    2  503  501 -0.11460040579E+03 -0.39757177626E+02  0.10333034396E+03  0.15934568134E+03  0.00000000000E+00 0.  1.
         21    1    1    2  504  503  0.22229077475E+03 -0.20851733067E+03  0.66674398728E+03  0.73310313756E+03  0.00000000000E+00 0.  1.
<mgrwt>
<rscale>  4 0.29864979E+03</rscale>
<asrwt>0</asrwt>
<pdfrwt beam="1">  1       21 0.13439133E+00 0.29864979E+03</pdfrwt>
<pdfrwt beam="2">  1       21 0.90246471E-01 0.29864979E+03</pdfrwt>
<totfact> 0.37576021E+02</totfact>
</mgrwt>
</event>
<event>
 5    0  0.1814147E+000  0.3342252E+03  0.7546771E-02  0.1069282E+00
         21   -1    0    0  503  501  0.00000000000E+00  0.00000000000E+00  0.13823810854E+04  0.13823810854E+04  0.00000000000E+00 0.  1.
         21   -1    0    0  504  502 -0.00000000000E+00 -0.00000000000E+00 -0.98856387927E+02  0.98856387927E+02  0.00000000000E+00 0.  1.
         25    1    1    2    0    0 -0.19875639022E+03 -0.23890825618E+03  0.33169270704E+03  0.47140885591E+03  0.12500000000E+03 0.  0.
         21    1    1    2  503  502  0.17837242958E+03  0.25218981442E+03  0.83058245831E+03  0.88616231368E+03  0.00000000000E+00 0.  1.
         21    1    1    2  504  501  0.20383960641E+02 -0.13281558240E+02  0.12124953210E+03  0.12366630372E+03  0.00000000000E+00 0. -1.
<mgrwt>
<rscale>  4 0.33422521E+03</rscale>
<asrwt>0</asrwt>
<pdfrwt beam="1">  1       21 0.21267400E+00 0.33422521E+03</pdfrwt>
<pdfrwt beam="2">  1       21 0.15208676E-01 0.33422521E+03</pdfrwt>
<totfact> 0.38448309E+03</totfact>
</mgrwt>
</event>
<event>
 5    0  0.1814147E+000  0.3048835E+03  0.7546771E-02  0.1082825E+00
         21   -1    0    0  503  501  0.00000000000E+00  0.00000000000E+00  0.54988215712E+03  0.54988215712E+03  0.00000000000E+00 0. -1.
         21   -1    0    0  501  502 -0.00000000000E+00 -0.00000000000E+00 -0.22901454005E+03  0.22901454005E+03  0.00000000000E+00 0. -1.
         25    1    1    2    0    0  0.93552348963E+02  0.26950931091E+03  0.33174748106E+01  0.31148565987E+03  0.12500000000E+03 0.  0.
         21    1    1    2  503  504  0.54823416348E+01 -0.21306802224E+02  0.15085597618E+03  0.15245183318E+03  0.00000000000E+00 0. -1.
         21    1    1    2  504  502 -0.99034690598E+02 -0.24820250869E+03  0.16669416608E+03  0.31495920413E+03  0.00000000000E+00 0. -1.
<mgrwt>
<rscale>  4 0.30488353E+03</rscale>
<asrwt>0</asrwt>
<pdfrwt beam="1">  1       21 0.84597255E-01 0.30488353E+03</pdfrwt>
<pdfrwt beam="2">  1       21 0.35233006E-01 0.30488353E+03</pdfrwt>
<totfact> 0.88196116E+03</totfact>
</mgrwt>
</event>
<event>
 5    0  0.1814147E+000  0.2731194E+03  0.7546771E-02  0.1099507E+00
         21   -1    0    0  503  501  0.00000000000E+00  0.00000000000E+00  0.16145893432E+03  0.16145893432E+03  0.00000000000E+00 0.  1.
         21   -1    0    0  504  502 -0.00000000000E+00 -0.00000000000E+00 -0.15759062574E+04  0.15759062574E+04  0.00000000000E+00 0. -1.
         25    1    1    2    0    0  0.59247090680E+02  0.32164980860E+03 -0.11714466419E+04  0.12226532836E+04  0.12500000000E+03 0.  0.
         21    1    1    2  503  502 -0.21036110430E+02 -0.16851294258E+03 -0.30178753283E+03  0.34628722866E+03  0.00000000000E+00 0. -1.
         21    1    1    2  504  501 -0.38210980250E+02 -0.15313686602E+03  0.58786851584E+02  0.16842467950E+03  0.00000000000E+00 0.  1.
<mgrwt>
<rscale>  4 0.27311941E+03</rscale>
<asrwt>0</asrwt>
<pdfrwt beam="1">  1       21 0.24839836E-01 0.27311941E+03</pdfrwt>
<pdfrwt beam="2">  1       21 0.24244712E+00 0.27311941E+03</pdfrwt>
<totfact> 0.10407973E+03</totfact>
</mgrwt>
</event>
