<event>
 4    0  0.1110186E-001  0.2737832E+03  0.7546771E-02  0.1099134E+00
         21   -1    0    0  502  501  0.00000000000E+00  0.00000000000E+00  0.10246230336E+03  0.10246230336E+03  0.00000000000E+00 0. -1.
         21   -1    0    0  503  502 -0.00000000000E+00 -0.00000000000E+00 -0.18106025521E+04  0.18106025521E+04  0.00000000000E+00 0.  1.
         25    1    1    2    0    0 -0.19163651103E+03  0.15035844646E+03 -0.16363899502E+04  0.16591351011E+04  0.12500000000E+03 0.  0.
         21    1    1    2  503  501  0.19163651103E+03 -0.15035844646E+03 -0.71750298541E+02  0.25392975430E+03  0.00000000000E+00 0. -1.
<mgrwt>
<rscale>  3 0.27378315E+03</rscale>
<asrwt>0</asrwt>
<pdfrwt beam="1">  1       21 0.15763431E-01 0.27378315E+03</pdfrwt>
<pdfrwt beam="2">  1       21 0.27855424E+00 0.27378315E+03</pdfrwt>
<totfact> 0.14928158E+03</totfact>
</mgrwt>
</event>
<event>
 4    0  0.1218527E-001  0.4269045E+03  0.7546771E-02  0.1034842E+00
         21   -1    0    0  503  501  0.00000000000E+00  0.00000000000E+00  0.88594787920E+03  0.88594787920E+03  0.00000000000E+00 0. -1.
         21   -1    0    0  501  502 -0.00000000000E+00 -0.00000000000E+00 -0.20846434298E+03  0.20846434298E+03  0.00000000000E+00 0. -1.
         25    1    1    2    0    0 -0.35429381099E+03  0.20272736042E+03  0.47535894619E+03  0.63891596857E+03  0.12500000000E+03 0.  0.
         21    1    1    2  503  502  0.35429381099E+03 -0.20272736042E+03  0.20212459002E+03  0.45549625362E+03  0.00000000000E+00 0. -1.
<mgrwt>
<rscale>  3 0.42690454E+03</rscale>
<asrwt>0</asrwt>
<pdfrwt beam="1">  1       21 0.13629967E+00 0.42690454E+03</pdfrwt>
<pdfrwt beam="2">  1       21 0.32071438E-01 0.42690454E+03</pdfrwt>
<totfact> 0.31307097E+03</totfact>
</mgrwt>
</event>
<event>
 4    0  0.1056480E-001  0.2635536E+03  0.7546771E-02  0.1105027E+00
         21   -1    0    0  503  501  0.00000000000E+00  0.00000000000E+00  0.19090258604E+04  0.19090258604E+04  0.00000000000E+00 0. -1.
         21   -1    0    0  501  502 -0.00000000000E+00 -0.00000000000E+00 -0.45025222737E+02  0.45025222737E+02  0.00000000000E+00 0. -1.
         25    1    1    2    0    0 -0.55987920405E+02  0.22516845247E+03  0.45290649192E+03  0.52400836791E+03  0.12500000000E+03 0.  0.
         21    1    1    2  503  502  0.55987920405E+02 -0.22516845247E+03  0.14110941458E+04  0.14300427152E+04  0.00000000000E+00 0. -1.
<mgrwt>
<rscale>  3 0.26355356E+03</rscale>
<asrwt>0</asrwt>
<pdfrwt beam="1">  1       21 0.29369622E+00 0.26355356E+03</pdfrwt>
<pdfrwt beam="2">  1       21 0.69269588E-02 0.26355356E+03</pdfrwt>
<totfact> 0.53347934E+03</totfact>
</mgrwt>
</event>
<event>
 4    0  0.1775938E-001  0.2787075E+03  0.7546771E-02  0.1096397E+00
         21   -1    0    0  503  501  0.00000000000E+00  0.00000000000E+00  0.26804528357E+03  0.26804528357E+03  0.00000000000E+00 0. -1.
         21   -1    0    0  501  502 -0.00000000000E+00 -0.00000000000E+00 -0.30761662747E+03  0.30761662747E+03  0.00000000000E+00 0. -1.
         25    1    1    2    0    0 -0.22393021327E+03 -0.10912427141E+03 -0.13401707170E+03  0.30925462411E+03  0.12500000000E+03 0.  0.
         21    1    1    2  503  502  0.22393021327E+03  0.10912427141E+03  0.94445727798E+02  0.26640728693E+03  0.00000000000E+00 0. -1.
<mgrwt>
<rscale>  3 0.27870746E+03</rscale>
<asrwt>0</asrwt>
<pdfrwt beam="1">  1       21 0.41237736E-01 0.27870746E+03</pdfrwt>
<pdfrwt beam="2">  1       21 0.47325635E-01 0.27870746E+03</pdfrwt>
<totfact> 0.23172992E+04</totfact>
</mgrwt>
</event>
<event>
 4    0  0.1005289E-001  0.2386790E+03  0.7546771E-02  0.1120676E+00
         21   -1    0    0  503  501  0.00000000000E+00  0.00000000000E+00  0.38863041191E+02  0.38863041191E+02  0.00000000000E+00 0.  1.
         21   -1    0    0  501  502 -0.00000000000E+00 -0.00000000000E+00 -0.20613418471E+04  0.20613418471E+04  0.00000000000E+00 0.  1.
         25    1    1    2    0    0 -0.18161965548E+03 -0.91416340392E+02 -0.17153125329E+04  0.17318385410E+04  0.12500000000E+03 0.  0.
         21    1    1    2  503  502  0.18161965548E+03  0.91416340392E+02 -0.30716627303E+03  0.36836634731E+03  0.00000000000E+00 0.  1.
<mgrwt>
<rscale>  3 0.23867896E+03</rscale>
<asrwt>0</asrwt>
<pdfrwt beam="1">  1       21 0.59789283E-02 0.23867896E+03</pdfrwt>
<pdfrwt beam="2">  1       21 0.31712957E+00 0.23867896E+03</pdfrwt>
<totfact> 0.51313723E+03</totfact>
</mgrwt>
</event>
<event>
 4    0  0.1443705E-001  0.2627855E+03  0.7546771E-02  0.1105481E+00
         21   -1    0    0  502  501  0.00000000000E+00  0.00000000000E+00  0.15108821401E+03  0.15108821401E+03  0.00000000000E+00 0.  1.
         21   -1    0    0  503  502 -0.00000000000E+00 -0.00000000000E+00 -0.40541117001E+03  0.40541117001E+03  0.00000000000E+00 0.  1.
         25    1    1    2    0    0 -0.13454241500E+03 -0.18796151636E+03 -0.11720302194E+03  0.28773727846E+03  0.12500000000E+03 0.  0.
         21    1    1    2  503  501  0.13454241500E+03  0.18796151636E+03 -0.13711993407E+03  0.26876210556E+03  0.00000000000E+00 0.  1.
<mgrwt>
<rscale>  3 0.26278545E+03</rscale>
<asrwt>0</asrwt>
<pdfrwt beam="1">  1       21 0.23244341E-01 0.26278545E+03</pdfrwt>
<pdfrwt beam="2">  1       21 0.62370949E-01 0.26278545E+03</pdfrwt>
<totfact> 0.40153521E+04</totfact>
</mgrwt>
</event>
<event>
 4    0  0.1278856E-001  0.2508046E+03  0.7546771E-02  0.1112797E+00
         21   -1    0    0  503  501  0.00000000000E+00  0.00000000000E+00  0.14160870992E+04  0.14160870992E+04  0.00000000000E+00 0.  1.
         21   -1    0    0  501  502 -0.00000000000E+00 -0.00000000000E+00 -0.39151894441E+02  0.39151894441E+02  0.00000000000E+00 0.  1.
         25    1    1    2    0    0  0.51079605790E+02 -0.21135000589E+03  0.65958030578E+03  0.70565510760E+03  0.12500000000E+03 0.  0.
         21    1    1    2  503  502 -0.51079605790E+02  0.21135000589E+03  0.71735489903E+03  0.74958388608E+03  0.00000000000E+00 0.  1.
<mgrwt>
<rscale>  3 0.25080461E+03</rscale>
<asrwt>0</asrwt>
<pdfrwt beam="1">  1       21 0.21785951E+00 0.25080461E+03</pdfrwt>
<pdfrwt beam="2">  1       21 0.60233695E-02 0.25080461E+03</pdfrwt>
<totfact> 0.19478111E+04</totfact>
</mgrwt>
</event>
<event>
 4    0  0.1275789E-001  0.2719355E+03  0.7546771E-02  0.1100177E+00
         21   -1    0    0  502  501  0.00000000000E+00  0.00000000000E+00  0.62028427979E+03  0.62028427979E+03  0.00000000000E+00 0. -1.
         21   -1    0    0  503  502 -0.00000000000E+00 -0.00000000000E+00 -0.15628467756E+03  0.15628467756E+03  0.00000000000E+00 0. -1.
         25    1    1    2    0    0 -0.10037649189E+03 -0.21965540539E+03  0.21911094023E+02  0.27281684933E+03  0.12500000000E+03 0.  0.
         21    1    1    2  503  501  0.10037649189E+03  0.21965540539E+03  0.44208850821E+03  0.50375210801E+03  0.00000000000E+00 0. -1.
<mgrwt>
<rscale>  3 0.27193554E+03</rscale>
<asrwt>0</asrwt>
<pdfrwt beam="1">  1       21 0.95428350E-01 0.27193554E+03</pdfrwt>
<pdfrwt beam="2">  1       21 0.24043797E-01 0.27193554E+03</pdfrwt>
<totfact> 0.14294144E+04</totfact>
</mgrwt>
</event>
<event>
 4    0  0.1358738E-001  0.2451070E+03  0.7546771E-02  0.1116437E+00
         21   -1    0    0  503  501  0.00000000000E+00  0.00000000000E+00  0.82727777004E+03  0.82727777004E+03  0.00000000000E+00 0.  1.
         21   -1    0    0  501  502 -0.00000000000E+00 -0.00000000000E+00 -0.40039085524E+03  0.40039085524E+03  0.00000000000E+00 0.  1.
         25    1    1    2    0    0 -0.80919113932E+02  0.19469092457E+03 -0.34741446844E+03  0.42517557784E+03  0.12500000000E+03 0.  0.
         21    1    1    2  503  502  0.80919113932E+02 -0.19469092457E+03  0.77430138324E+03  0.80249304745E+03  0.00000000000E+00 0.  1.
<mgrwt>
<rscale>  3 0.24510704E+03</rscale>
<asrwt>0</asrwt>
<pdfrwt beam="1">  1       21 0.12727350E+00 0.24510704E+03</pdfrwt>
<pdfrwt beam="2">  1       21 0.61598593E-01 0.24510704E+03</pdfrwt>
<totfact> 0.10641015E+03</totfact>
</mgrwt>
</event>
<event>
 4    0  0.1184500E-001  0.2552887E+03  0.7546771E-02  0.1110007E+00
         21   -1    0    0  502  501  0.00000000000E+00  0.00000000000E+00  0.45228903928E+03  0.45228903928E+03  0.00000000000E+00 0.  1.
         21   -1    0    0  503  502 -0.00000000000E+00 -0.00000000000E+00 -0.33321417217E+03  0.33321417217E+03  0.00000000000E+00 0.  1.
         25    1    1    2    0    0  0.10575712036E+03  0.19586408848E+03 -0.24819037120E+03  0.35604883095E+03  0.12500000000E+03 0.  0.
         21    1    1    2  503  501 -0.10575712036E+03 -0.19586408848E+03  0.36726523831E+03  0.42945438050E+03  0.00000000000E+00 0.  1.
<mgrwt>
<rscale>  3 0.25528868E+03</rscale>
<asrwt>0</asrwt>
<pdfrwt beam="1">  1       21 0.69582929E-01 0.25528868E+03</pdfrwt>
<pdfrwt beam="2">  1       21 0.51263719E-01 0.25528868E+03</pdfrwt>
<totfact> 0.65136867E+03</totfact>
</mgrwt>
</event>
<event>
 4    0  0.1398628E-001  0.2410671E+03  0.7546771E-02  0.1119084E+00
         21   -1    0    0  502  501  0.00000000000E+00  0.00000000000E+00  0.85182344903E+02  0.85182344903E+02  0.00000000000E+00 0. -1.
         21   -1    0    0  503  502 -0.00000000000E+00 -0.00000000000E+00 -0.68279025515E+03  0.68279025515E+03  0.00000000000E+00 0. -1.
         25    1    1    2    0    0  0.16088110887E+03  0.12886273858E+03 -0.46237506957E+03  0.52144418833E+03  0.12500000000E+03 0.  0.
         21    1    1    2  503  501 -0.16088110887E+03 -0.12886273858E+03 -0.13523284068E+03  0.24652841172E+03  0.00000000000E+00 0. -1.
<mgrwt>
<rscale>  3 0.24106708E+03</rscale>
<asrwt>0</asrwt>
<pdfrwt beam="1">  1       21 0.13104977E-01 0.24106708E+03</pdfrwt>
<pdfrwt beam="2">  1       21 0.10504465E+00 0.24106708E+03</pdfrwt>
<totfact> 0.35662792E+04</totfact>
</mgrwt>
</event>
<event>
 4    0  0.1005289E-001  0.2406510E+03  0.7546771E-02  0.1119360E+00
         21   -1    0    0  502  501  0.00000000000E+00  0.00000000000E+00  0.13763989683E+03  0.13763989683E+03  0.00000000000E+00 0. -1.
         21   -1    0    0  503  502 -0.00000000000E+00 -0.00000000000E+00 -0.53639891485E+03  0.53639891485E+03  0.00000000000E+00 0.  1.
         25    1    1    2    0    0 -0.84049496985E+02 -0.18767953770E+03 -0.40182440387E+03  0.46837568080E+03  0.12500000000E+03 0.  0.
         21    1    1    2  503  501  0.84049496985E+02  0.18767953770E+03  0.30653858555E+01  0.20566313088E+03  0.00000000000E+00 0. -1.
<mgrwt>
<rscale>  3 0.24065105E+03</rscale>
<asrwt>0</asrwt>
<pdfrwt beam="1">  1       21 0.21175369E-01 0.24065105E+03</pdfrwt>
<pdfrwt beam="2">  1       21 0.82522909E-01 0.24065105E+03</pdfrwt>
<totfact> 0.25911593E+04</totfact>
</mgrwt>
</event>
<event>
 4    0  0.1213362E-001  0.3885176E+03  0.7546771E-02  0.1047830E+00
         21   -1    0    0  503  501  0.00000000000E+00  0.00000000000E+00  0.79090997027E+03  0.79090997027E+03  0.00000000000E+00 0. -1.
         21   -1    0    0  501  502 -0.00000000000E+00 -0.00000000000E+00 -0.29927118824E+03  0.29927118824E+03  0.00000000000E+00 0. -1.
         25    1    1    2    0    0  0.10940063348E+03  0.35121567799E+03 -0.92950472114E+02  0.39948184106E+03  0.12500000000E+03 0.  0.
         21    1    1    2  503  502 -0.10940063348E+03 -0.35121567799E+03  0.58458925414E+03  0.69069931745E+03  0.00000000000E+00 0. -1.
<mgrwt>
<rscale>  3 0.38851763E+03</rscale>
<asrwt>0</asrwt>
<pdfrwt beam="1">  1       21 0.12167846E+00 0.38851763E+03</pdfrwt>
<pdfrwt beam="2">  1       21 0.46041722E-01 0.38851763E+03</pdfrwt>
<totfact> 0.20353615E+03</totfact>
</mgrwt>
</event>
<event>
 4    0  0.1005289E-001  0.3581615E+03  0.7546771E-02  0.1059314E+00
         21   -1    0    0  502  501  0.00000000000E+00  0.00000000000E+00  0.51586912839E+03  0.51586912839E+03  0.00000000000E+00 0. -1.
         21   -1    0    0  503  502 -0.00000000000E+00 -0.00000000000E+00 -0.26625472908E+03  0.26625472908E+03  0.00000000000E+00 0.  1.
         25    1    1    2    0    0  0.22059040334E+03 -0.25297136021E+03 -0.92081981314E+01  0.35827981530E+03  0.12500000000E+03 0.  0.
         21    1    1    2  503  501 -0.22059040334E+03  0.25297136021E+03  0.25882259744E+03  0.42384404217E+03  0.00000000000E+00 0. -1.
<mgrwt>
<rscale>  3 0.35816147E+03</rscale>
<asrwt>0</asrwt>
<pdfrwt beam="1">  1       21 0.79364481E-01 0.35816147E+03</pdfrwt>
<pdfrwt beam="2">  1       21 0.40962266E-01 0.35816147E+03</pdfrwt>
<totfact> 0.73541903E+03</totfact>
</mgrwt>
</event>
<event>
 4    0  0.1600443E-001  0.2752042E+03  0.7546771E-02  0.1098338E+00
         21   -1    0    0  503  501  0.00000000000E+00  0.00000000000E+00  0.10477431161E+03  0.10477431161E+03  0.00000000000E+00 0. -1.
         21   -1    0    0  501  502 -0.00000000000E+00 -0.00000000000E+00 -0.74551016064E+03  0.74551016064E+03  0.00000000000E+00 0. -1.
         25    1    1    2    0    0 -0.14911813770E+03  0.19461790163E+03 -0.49137652717E+03  0.56319467156E+03  0.12500000000E+03 0.  0.
         21    1    1    2  503  502  0.14911813770E+03 -0.19461790163E+03 -0.14935932186E+03  0.28708980068E+03  0.00000000000E+00 0. -1.
<mgrwt>
<rscale>  3 0.27520419E+03</rscale>
<asrwt>0</asrwt>
<pdfrwt beam="1">  1       21 0.16119125E-01 0.27520419E+03</pdfrwt>
<pdfrwt beam="2">  1       21 0.11469387E+00 0.27520419E+03</pdfrwt>
<totfact> 0.19398263E+04</totfact>
</mgrwt>
</event>
<event>
 4    0  0.1039128E-001  0.2544876E+03  0.7546771E-02  0.1110501E+00
         21   -1    0    0  503  501  0.00000000000E+00  0.00000000000E+00  0.64378102003E+03  0.64378102003E+03  0.00000000000E+00 0.  1.
         21   -1    0    0  501  502 -0.00000000000E+00 -0.00000000000E+00 -0.10419994408E+03  0.10419994408E+03  0.00000000000E+00 0.  1.
         25    1    1    2    0    0 -0.22167303443E+03  0.16671664658E+00  0.43245918190E+03  0.50178173143E+03  0.12500000000E+03 0.  0.
         21    1    1    2  503  502  0.22167303443E+03 -0.16671664658E+00  0.10712189404E+03  0.24619923267E+03  0.00000000000E+00 0.  1.
<mgrwt>
<rscale>  3 0.25448765E+03</rscale>
<asrwt>0</asrwt>
<pdfrwt beam="1">  1       21 0.99043231E-01 0.25448765E+03</pdfrwt>
<pdfrwt beam="2">  1       21 0.16030761E-01 0.25448765E+03</pdfrwt>
<totfact> 0.28255098E+04</totfact>
</mgrwt>
</event>
<event>
 4    0  0.1005289E-001  0.3770690E+03  0.7546771E-02  0.1052022E+00
         21   -1    0    0  502  501  0.00000000000E+00  0.00000000000E+00  0.15168809479E+04  0.15168809479E+04  0.00000000000E+00 0. -1.
         21   -1    0    0  503  502 -0.00000000000E+00 -0.00000000000E+00 -0.12069381148E+03  0.12069381148E+03  0.00000000000E+00 0.  1.
         25    1    1    2    0    0 -0.18139902713E+03  0.30602355016E+03  0.29028917041E+03  0.47586639170E+03  0.12500000000E+03 0.  0.
         21    1    1    2  503  501  0.18139902713E+03 -0.30602355016E+03  0.11058979660E+04  0.11617083677E+04  0.00000000000E+00 0. -1.
<mgrwt>
<rscale>  3 0.37706899E+03</rscale>
<asrwt>0</asrwt>
<pdfrwt beam="1">  1       21 0.23336629E+00 0.37706899E+03</pdfrwt>
<pdfrwt beam="2">  1       21 0.18568280E-01 0.37706899E+03</pdfrwt>
<totfact> 0.19173724E+03</totfact>
</mgrwt>
</event>
<event>
 4    0  0.2071698E-001  0.2368454E+03  0.7546771E-02  0.1121912E+00
         21   -1    0    0  503  501  0.00000000000E+00  0.00000000000E+00  0.15121657040E+03  0.15121657040E+03  0.00000000000E+00 0.  1.
         21   -1    0    0  501  502 -0.00000000000E+00 -0.00000000000E+00 -0.11346844567E+04  0.11346844567E+04  0.00000000000E+00 0. -1.
         25    1    1    2    0    0 -0.19197868470E+03  0.60124218634E+02 -0.10481567210E+04  0.10745828254E+04  0.12500000000E+03 0.  0.
         21    1    1    2  503  502  0.19197868470E+03 -0.60124218634E+02  0.64688834620E+02  0.21131820170E+03  0.00000000000E+00 0.  1.
<mgrwt>
<rscale>  3 0.23684539E+03</rscale>
<asrwt>0</asrwt>
<pdfrwt beam="1">  1       21 0.23264088E-01 0.23684539E+03</pdfrwt>
<pdfrwt beam="2">  1       21 0.17456684E+00 0.23684539E+03</pdfrwt>
<totfact> 0.33155927E+03</totfact>
</mgrwt>
</event>
<event>
 4    0  0.1005289E-001  0.2578475E+03  0.7546771E-02  0.1108443E+00
         21   -1    0    0  502  501  0.00000000000E+00  0.00000000000E+00  0.14983765969E+03  0.14983765969E+03  0.00000000000E+00 0. -1.
         21   -1    0    0  503  502 -0.00000000000E+00 -0.00000000000E+00 -0.16314263312E+04  0.16314263312E+04  0.00000000000E+00 0. -1.
         25    1    1    2    0    0  0.15412164790E+03  0.16464163511E+03 -0.15291869043E+04  0.15507733357E+04  0.12500000000E+03 0.  0.
         21    1    1    2  503  501 -0.15412164790E+03 -0.16464163511E+03  0.47598232807E+02  0.23049065519E+03  0.00000000000E+00 0. -1.
<mgrwt>
<rscale>  3 0.25784753E+03</rscale>
<asrwt>0</asrwt>
<pdfrwt beam="1">  1       21 0.23051947E-01 0.25784753E+03</pdfrwt>
<pdfrwt beam="2">  1       21 0.25098867E+00 0.25784753E+03</pdfrwt>
<totfact> 0.10817413E+03</totfact>
</mgrwt>
</event>
<event>
 4    0  0.1033928E-001  0.3485210E+03  0.7546771E-02  0.1063224E+00
         21   -1    0    0  502  501  0.00000000000E+00  0.00000000000E+00  0.76751756163E+02  0.76751756163E+02  0.00000000000E+00 0.  1.
         21   -1    0    0  503  502 -0.00000000000E+00 -0.00000000000E+00 -0.16532535065E+04  0.16532535065E+04  0.00000000000E+00 0.  1.
         25    1    1    2    0    0  0.30854723844E+03  0.10315273915E+03 -0.10931514851E+04  0.11473652667E+04  0.12500000000E+03 0.  0.
         21    1    1    2  503  501 -0.30854723844E+03 -0.10315273915E+03 -0.48335026522E+03  0.58263999590E+03  0.00000000000E+00 0.  1.
<mgrwt>
<rscale>  3 0.34852100E+03</rscale>
<asrwt>0</asrwt>
<pdfrwt beam="1">  1       21 0.11807964E-01 0.34852100E+03</pdfrwt>
<pdfrwt beam="2">  1       21 0.25434667E+00 0.34852100E+03</pdfrwt>
<totfact> 0.33427229E+03</totfact>
</mgrwt>
</event>
<event>
 4    0  0.1146818E-001  0.3822025E+03  0.7546771E-02  0.1050123E+00
         21   -1    0    0  503  501  0.00000000000E+00  0.00000000000E+00  0.64668522982E+03  0.64668522982E+03  0.00000000000E+00 0. -1.
         21   -1    0    0  501  502 -0.00000000000E+00 -0.00000000000E+00 -0.38361531570E+03  0.38361531570E+03  0.00000000000E+00 0. -1.
         25    1    1    2    0    0  0.24462624636E+03  0.26572877504E+03 -0.20922966886E+03  0.43572449624E+03  0.12500000000E+03 0.  0.
         21    1    1    2  503  502 -0.24462624636E+03 -0.26572877504E+03  0.47229958298E+03  0.59457604928E+03  0.00000000000E+00 0. -1.
<mgrwt>
<rscale>  3 0.38220254E+03</rscale>
<asrwt>0</asrwt>
<pdfrwt beam="1">  1       21 0.99490035E-01 0.38220254E+03</pdfrwt>
<pdfrwt beam="2">  1       21 0.59017741E-01 0.38220254E+03</pdfrwt>
<totfact> 0.19772474E+03</totfact>
</mgrwt>
</event>
<event>
 4    0  0.1156292E-001  0.2434987E+03  0.7546771E-02  0.1117484E+00
         21   -1    0    0  503  501  0.00000000000E+00  0.00000000000E+00  0.24219688398E+03  0.24219688398E+03  0.00000000000E+00 0.  1.
         21   -1    0    0  501  502 -0.00000000000E+00 -0.00000000000E+00 -0.31514194101E+03  0.31514194101E+03  0.00000000000E+00 0. -1.
         25    1    1    2    0    0  0.23645838958E+02 -0.20762342407E+03 -0.19797537468E+03  0.31382457026E+03  0.12500000000E+03 0.  0.
         21    1    1    2  503  502 -0.23645838958E+02  0.20762342407E+03  0.12503031765E+03  0.24351425472E+03  0.00000000000E+00 0.  1.
<mgrwt>
<rscale>  3 0.24349869E+03</rscale>
<asrwt>0</asrwt>
<pdfrwt beam="1">  1       21 0.37261059E-01 0.24349869E+03</pdfrwt>
<pdfrwt beam="2">  1       21 0.48483375E-01 0.24349869E+03</pdfrwt>
<totfact> 0.27488643E+04</totfact>
</mgrwt>
</event>
<event>
 4    0  0.1156378E-001  0.2441878E+03  0.7546771E-02  0.1117034E+00
         21   -1    0    0  503  501  0.00000000000E+00  0.00000000000E+00  0.43160482510E+03  0.43160482510E+03  0.00000000000E+00 0. -1.
         21   -1    0    0  501  502 -0.00000000000E+00 -0.00000000000E+00 -0.42619233507E+03  0.42619233507E+03  0.00000000000E+00 0. -1.
         25    1    1    2    0    0  0.13187123962E+03  0.16313389067E+03 -0.36085654707E+03  0.43571221889E+03  0.12500000000E+03 0.  0.
         21    1    1    2  503  502 -0.13187123962E+03 -0.16313389067E+03  0.36626903710E+03  0.42208494129E+03  0.00000000000E+00 0. -1.
<mgrwt>
<rscale>  3 0.24418782E+03</rscale>
<asrwt>0</asrwt>
<pdfrwt beam="1">  1       21 0.66400742E-01 0.24418782E+03</pdfrwt>
<pdfrwt beam="2">  1       21 0.65568052E-01 0.24418782E+03</pdfrwt>
<totfact> 0.42850933E+03</totfact>
</mgrwt>
</event>
<event>
 4    0  0.1005289E-001  0.2573121E+03  0.7546771E-02  0.1108769E+00
         21   -1    0    0  502  501  0.00000000000E+00  0.00000000000E+00  0.13348343555E+04  0.13348343555E+04  0.00000000000E+00 0. -1.
         21   -1    0    0  503  502 -0.00000000000E+00 -0.00000000000E+00 -0.62918982673E+02  0.62918982673E+02  0.00000000000E+00 0.  1.
         25    1    1    2    0    0  0.20057319261E+03 -0.10175899964E+03  0.27840133622E+03  0.37909999158E+03  0.12500000000E+03 0.  0.
         21    1    1    2  503  501 -0.20057319261E+03  0.10175899964E+03  0.99351403663E+03  0.10186533466E+04  0.00000000000E+00 0. -1.
<mgrwt>
<rscale>  3 0.25731207E+03</rscale>
<asrwt>0</asrwt>
<pdfrwt beam="1">  1       21 0.20535911E+00 0.25731207E+03</pdfrwt>
<pdfrwt beam="2">  1       21 0.96798445E-02 0.25731207E+03</pdfrwt>
<totfact> 0.10160231E+04</totfact>
</mgrwt>
</event>
<event>
 4    0  0.1451131E-001  0.2831420E+03  0.7546771E-02  0.1093985E+00
         21   -1    0    0  503  501  0.00000000000E+00  0.00000000000E+00  0.84922844512E+03  0.84922844512E+03  0.00000000000E+00 0.  1.
         21   -1    0    0  501  502 -0.00000000000E+00 -0.00000000000E+00 -0.20028622468E+03  0.20028622468E+03  0.00000000000E+00 0. -1.
         25    1    1    2    0    0  0.25385634736E+03  0.10066984086E+02 -0.66035844361E+02  0.29074064388E+03  0.12500000000E+03 0.  0.
         21    1    1    2  503  502 -0.25385634736E+03 -0.10066984086E+02  0.71497806480E+03  0.75877402592E+03  0.00000000000E+00 0.  1.
<mgrwt>
<rscale>  3 0.28314199E+03</rscale>
<asrwt>0</asrwt>
<pdfrwt beam="1">  1       21 0.13065053E+00 0.28314199E+03</pdfrwt>
<pdfrwt beam="2">  1       21 0.30813266E-01 0.28314199E+03</pdfrwt>
<totfact> 0.40489440E+03</totfact>
</mgrwt>
</event>
<event>
 4    0  0.1161069E-001  0.3185828E+03  0.7546771E-02  0.1076303E+00
         21   -1    0    0  503  501  0.00000000000E+00  0.00000000000E+00  0.30033265179E+03  0.30033265179E+03  0.00000000000E+00 0.  1.
         21   -1    0    0  501  502 -0.00000000000E+00 -0.00000000000E+00 -0.70084334961E+03  0.70084334961E+03  0.00000000000E+00 0.  1.
         25    1    1    2    0    0 -0.22467219819E+03 -0.18812870571E+03 -0.57699127987E+03  0.65910085996E+03  0.12500000000E+03 0.  0.
         21    1    1    2  503  502  0.22467219819E+03  0.18812870571E+03  0.17648058206E+03  0.34207514144E+03  0.00000000000E+00 0.  1.
<mgrwt>
<rscale>  3 0.31858281E+03</rscale>
<asrwt>0</asrwt>
<pdfrwt beam="1">  1       21 0.46205023E-01 0.31858281E+03</pdfrwt>
<pdfrwt beam="2">  1       21 0.10782205E+00 0.31858281E+03</pdfrwt>
<totfact> 0.28238256E+03</totfact>
</mgrwt>
</event>
<event>
 4    0  0.1005289E-001  0.2511185E+03  0.7546771E-02  0.1112600E+00
         21   -1    0    0  502  501  0.00000000000E+00  0.00000000000E+00  0.11591379734E+04  0.11591379734E+04  0.00000000000E+00 0. -1.
         21   -1    0    0  503  502 -0.00000000000E+00 -0.00000000000E+00 -0.70199616126E+02  0.70199616126E+02  0.00000000000E+00 0.  1.
         25    1    1    2    0    0 -0.79491603369E+02  0.20277229734E+03  0.22108736916E+03  0.33457457222E+03  0.12500000000E+03 0.  0.
         21    1    1    2  503  501  0.79491603369E+02 -0.20277229734E+03  0.86785098814E+03  0.89476301733E+03  0.00000000000E+00 0. -1.
<mgrwt>
<rscale>  3 0.25111854E+03</rscale>
<asrwt>0</asrwt>
<pdfrwt beam="1">  1       21 0.17832891E+00 0.25111854E+03</pdfrwt>
<pdfrwt beam="2">  1       21 0.10799942E-01 0.25111854E+03</pdfrwt>
<totfact> 0.12699554E+04</totfact>
</mgrwt>
</event>
<event>
 4    0  0.2262318E-001  0.2405760E+03  0.7546771E-02  0.1119410E+00
         21   -1    0    0  503  501  0.00000000000E+00  0.00000000000E+00  0.89306123899E+03  0.89306123899E+03  0.00000000000E+00 0.  1.
         21   -1    0    0  501  502 -0.00000000000E+00 -0.00000000000E+00 -0.31756881255E+03  0.31756881255E+03  0.00000000000E+00 0. -1.
         25    1    1    2    0    0  0.26928036930E+02 -0.20378104335E+03 -0.25764967677E+03  0.35250558682E+03  0.12500000000E+03 0.  0.
         21    1    1    2  503  502 -0.26928036930E+02  0.20378104335E+03  0.83314210321E+03  0.85812446471E+03  0.00000000000E+00 0.  1.
<mgrwt>
<rscale>  3 0.24057604E+03</rscale>
<asrwt>0</asrwt>
<pdfrwt beam="1">  1       21 0.13739404E+00 0.24057604E+03</pdfrwt>
<pdfrwt beam="2">  1       21 0.48856741E-01 0.24057604E+03</pdfrwt>
<totfact> 0.14383823E+03</totfact>
</mgrwt>
</event>
<event>
 4    0  0.1418142E-001  0.3714034E+03  0.7546771E-02  0.1054158E+00
         21   -1    0    0  503  501  0.00000000000E+00  0.00000000000E+00  0.24633935612E+03  0.24633935612E+03  0.00000000000E+00 0.  1.
         21   -1    0    0  501  502 -0.00000000000E+00 -0.00000000000E+00 -0.52800789409E+03  0.52800789409E+03  0.00000000000E+00 0.  1.
         25    1    1    2    0    0  0.25999813743E+03  0.23391541039E+03 -0.13685372888E+03  0.39581484787E+03  0.12500000000E+03 0.  0.
         21    1    1    2  503  502 -0.25999813743E+03 -0.23391541039E+03 -0.14481480909E+03  0.37853240234E+03  0.00000000000E+00 0.  1.
<mgrwt>
<rscale>  3 0.37140335E+03</rscale>
<asrwt>0</asrwt>
<pdfrwt beam="1">  1       21 0.37898362E-01 0.37140335E+03</pdfrwt>
<pdfrwt beam="2">  1       21 0.81231984E-01 0.37140335E+03</pdfrwt>
<totfact> 0.81316998E+03</totfact>
</mgrwt>
</event>
<event>
 4    0  0.1254274E-001  0.2545669E+03  0.7546771E-02  0.1110452E+00
         21   -1    0    0  502  501  0.00000000000E+00  0.00000000000E+00  0.10628628846E+04  0.10628628846E+04  0.00000000000E+00 0.  1.
         21   -1    0    0  503  502 -0.00000000000E+00 -0.00000000000E+00 -0.53527511385E+02  0.53527511385E+02  0.00000000000E+00 0.  1.
         25    1    1    2    0    0  0.20046488259E+03 -0.94832238868E+02  0.56972214768E+03  0.62400933345E+03  0.12500000000E+03 0.  0.
         21    1    1    2  503  501 -0.20046488259E+03  0.94832238868E+02  0.43961322559E+03  0.49238106258E+03  0.00000000000E+00 0.  1.
<mgrwt>
<rscale>  3 0.25456693E+03</rscale>
<asrwt>0</asrwt>
<pdfrwt beam="1">  1       21 0.16351735E+00 0.25456693E+03</pdfrwt>
<pdfrwt beam="2">  1       21 0.82350025E-02 0.25456693E+03</pdfrwt>
<totfact> 0.26095613E+04</totfact>
</mgrwt>
</event>
<event>
 4    0  0.1410917E-001  0.2739135E+03  0.7546771E-02  0.1099060E+00
         21   -1    0    0  503  501  0.00000000000E+00  0.00000000000E+00  0.10775962918E+03  0.10775962918E+03  0.00000000000E+00 0. -1.
         21   -1    0    0  501  502 -0.00000000000E+00 -0.00000000000E+00 -0.62559208236E+03  0.62559208236E+03  0.00000000000E+00 0. -1.
         25    1    1    2    0    0  0.12607690895E+03  0.20858628713E+03 -0.30299164427E+03  0.40845142018E+03  0.12500000000E+03 0.  0.
         21    1    1    2  503  502 -0.12607690895E+03 -0.20858628713E+03 -0.21484080891E+03  0.32490029135E+03  0.00000000000E+00 0. -1.
<mgrwt>
<rscale>  3 0.27391354E+03</rscale>
<asrwt>0</asrwt>
<pdfrwt beam="1">  1       21 0.16578404E-01 0.27391354E+03</pdfrwt>
<pdfrwt beam="2">  1       21 0.96244937E-01 0.27391354E+03</pdfrwt>
<totfact> 0.28185412E+04</totfact>
</mgrwt>
</event>
<event>
 4    0  0.1238235E-001  0.3111461E+03  0.7546771E-02  0.1079798E+00
         21   -1    0    0  503  501  0.00000000000E+00  0.00000000000E+00  0.13068309918E+04  0.13068309918E+04  0.00000000000E+00 0.  1.
         21   -1    0    0  501  502 -0.00000000000E+00 -0.00000000000E+00 -0.70508112797E+02  0.70508112797E+02  0.00000000000E+00 0.  1.
         25    1    1    2    0    0 -0.13563561924E+03  0.25057911069E+03  0.51387405871E+03  0.60073160408E+03  0.12500000000E+03 0.  0.
         21    1    1    2  503  502  0.13563561924E+03 -0.25057911069E+03  0.72244882031E+03  0.77660750054E+03  0.00000000000E+00 0.  1.
<mgrwt>
<rscale>  3 0.31114613E+03</rscale>
<asrwt>0</asrwt>
<pdfrwt beam="1">  1       21 0.20105091E+00 0.31114613E+03</pdfrwt>
<pdfrwt beam="2">  1       21 0.10847403E-01 0.31114613E+03</pdfrwt>
<totfact> 0.85649485E+03</totfact>
</mgrwt>
</event>
<event>
 4    0  0.1349557E-001  0.4978676E+03  0.7546771E-02  0.1014337E+00
         21   -1    0    0  503  501  0.00000000000E+00  0.00000000000E+00  0.34993480697E+03  0.34993480697E+03  0.00000000000E+00 0. -1.
         21   -1    0    0  501  502 -0.00000000000E+00 -0.00000000000E+00 -0.69344761992E+03  0.69344761992E+03  0.00000000000E+00 0. -1.
         25    1    1    2    0    0 -0.21086462734E+03 -0.43333969197E+03 -0.11985315214E+03  0.51209077103E+03  0.12500000000E+03 0.  0.
         21    1    1    2  503  502  0.21086462734E+03  0.43333969197E+03 -0.22365966082E+03  0.53129165585E+03  0.00000000000E+00 0. -1.
<mgrwt>
<rscale>  3 0.49786763E+03</rscale>
<asrwt>0</asrwt>
<pdfrwt beam="1">  1       21 0.53836125E-01 0.49786763E+03</pdfrwt>
<pdfrwt beam="2">  1       21 0.10668425E+00 0.49786763E+03</pdfrwt>
<totfact> 0.19434158E+03</totfact>
</mgrwt>
</event>
<event>
 4    0  0.1707072E-001  0.2576371E+03  0.7546771E-02  0.1108571E+00
         21   -1    0    0  502  501  0.00000000000E+00  0.00000000000E+00  0.21587110654E+03  0.21587110654E+03  0.00000000000E+00 0. -1.
         21   -1    0    0  503  502 -0.00000000000E+00 -0.00000000000E+00 -0.28585823180E+03  0.28585823180E+03  0.00000000000E+00 0. -1.
         25    1    1    2    0    0  0.12309185522E+03 -0.18868033540E+03 -0.96019687105E+02  0.27494845717E+03  0.12500000000E+03 0.  0.
         21    1    1    2  503  501 -0.12309185522E+03  0.18868033540E+03  0.26032561836E+02  0.22678088117E+03  0.00000000000E+00 0. -1.
<mgrwt>
<rscale>  3 0.25763710E+03</rscale>
<asrwt>0</asrwt>
<pdfrwt beam="1">  1       21 0.33210940E-01 0.25763710E+03</pdfrwt>
<pdfrwt beam="2">  1       21 0.43978189E-01 0.25763710E+03</pdfrwt>
<totfact> 0.42099790E+04</totfact>
</mgrwt>
</event>
<event>
 4    0  0.1005289E-001  0.3346862E+03  0.7546771E-02  0.1069082E+00
         21   -1    0    0  503  501  0.00000000000E+00  0.00000000000E+00  0.85581225558E+02  0.85581225558E+02  0.00000000000E+00 0.  1.
         21   -1    0    0  501  502 -0.00000000000E+00 -0.00000000000E+00 -0.12394827231E+04  0.12394827231E+04  0.00000000000E+00 0. -1.
         25    1    1    2    0    0  0.22752503963E+03 -0.21123973862E+03 -0.68957664545E+03  0.76650559084E+03  0.12500000000E+03 0.  0.
         21    1    1    2  503  502 -0.22752503963E+03  0.21123973862E+03 -0.46432485212E+03  0.55855835785E+03  0.00000000000E+00 0.  1.
<mgrwt>
<rscale>  3 0.33468623E+03</rscale>
<asrwt>0</asrwt>
<pdfrwt beam="1">  1       21 0.13166342E-01 0.33468623E+03</pdfrwt>
<pdfrwt beam="2">  1       21 0.19068965E+00 0.33468623E+03</pdfrwt>
<totfact> 0.69823947E+03</totfact>
</mgrwt>
</event>
<event>
 4    0  0.1272536E-001  0.2421180E+03  0.7546771E-02  0.1118390E+00
         21   -1    0    0  502  501  0.00000000000E+00  0.00000000000E+00  0.87598897260E+03  0.87598897260E+03  0.00000000000E+00 0.  1.
         21   -1    0    0  503  502 -0.00000000000E+00 -0.00000000000E+00 -0.80190635337E+02  0.80190635337E+02  0.00000000000E+00 0.  1.
         25    1    1    2    0    0  0.18924449327E+03 -0.84750633841E+02  0.16713574327E+03  0.29420316934E+03  0.12500000000E+03 0.  0.
         21    1    1    2  503  501 -0.18924449327E+03  0.84750633841E+02  0.62866259399E+03  0.66197643859E+03  0.00000000000E+00 0.  1.
<mgrwt>
<rscale>  3 0.24211805E+03</rscale>
<asrwt>0</asrwt>
<pdfrwt beam="1">  1       21 0.13476753E+00 0.24211805E+03</pdfrwt>
<pdfrwt beam="2">  1       21 0.12337021E-01 0.24211805E+03</pdfrwt>
<totfact> 0.21392093E+04</totfact>
</mgrwt>
</event>
<event>
 4    0  0.1414859E-001  0.2713951E+03  0.7546771E-02  0.1100484E+00
         21   -1    0    0  502  501  0.00000000000E+00  0.00000000000E+00  0.21008700744E+03  0.21008700744E+03  0.00000000000E+00 0.  1.
         21   -1    0    0  503  502 -0.00000000000E+00 -0.00000000000E+00 -0.80657913089E+03  0.80657913089E+03  0.00000000000E+00 0. -1.
         25    1    1    2    0    0 -0.15401500515E+03 -0.18522874472E+03 -0.70278197489E+03  0.75336433013E+03  0.12500000000E+03 0.  0.
         21    1    1    2  503  501  0.15401500515E+03  0.18522874472E+03  0.10628985144E+03  0.26330180820E+03  0.00000000000E+00 0.  1.
<mgrwt>
<rscale>  3 0.27139512E+03</rscale>
<asrwt>0</asrwt>
<pdfrwt beam="1">  1       21 0.32321077E-01 0.27139512E+03</pdfrwt>
<pdfrwt beam="2">  1       21 0.12408910E+00 0.27139512E+03</pdfrwt>
<totfact> 0.42293413E+03</totfact>
</mgrwt>
</event>
<event>
 4    0  0.1210049E-001  0.3151905E+03  0.7546771E-02  0.1077884E+00
         21   -1    0    0  503  501  0.00000000000E+00  0.00000000000E+00  0.22790999112E+03  0.22790999112E+03  0.00000000000E+00 0. -1.
         21   -1    0    0  501  502 -0.00000000000E+00 -0.00000000000E+00 -0.92315224476E+03  0.92315224476E+03  0.00000000000E+00 0. -1.
         25    1    1    2    0    0  0.21442206411E+03  0.19427623472E+03 -0.78679450579E+03  0.84757930089E+03  0.12500000000E+03 0.  0.
         21    1    1    2  503  502 -0.21442206411E+03 -0.19427623472E+03  0.91552252146E+02  0.30348293499E+03  0.00000000000E+00 0. -1.
<mgrwt>
<rscale>  3 0.31519054E+03</rscale>
<asrwt>0</asrwt>
<pdfrwt beam="1">  1       21 0.35063076E-01 0.31519054E+03</pdfrwt>
<pdfrwt beam="2">  1       21 0.14202342E+00 0.31519054E+03</pdfrwt>
<totfact> 0.24748480E+03</totfact>
</mgrwt>
</event>
<event>
 4    0  0.1549316E-001  0.4686950E+03  0.7546771E-02  0.1022289E+00
         21   -1    0    0  503  501  0.00000000000E+00  0.00000000000E+00  0.34127249245E+03  0.34127249245E+03  0.00000000000E+00 0.  1.
         21   -1    0    0  501  502 -0.00000000000E+00 -0.00000000000E+00 -0.66857671471E+03  0.66857671471E+03  0.00000000000E+00 0.  1.
         25    1    1    2    0    0  0.44392532698E+03 -0.83548325162E+02 -0.30170486700E+03  0.55740545866E+03  0.12500000000E+03 0.  0.
         21    1    1    2  503  502 -0.44392532698E+03  0.83548325162E+02 -0.25599355260E+02  0.45244374850E+03  0.00000000000E+00 0.  1.
<mgrwt>
<rscale>  3 0.46869502E+03</rscale>
<asrwt>0</asrwt>
<pdfrwt beam="1">  1       21 0.52503461E-01 0.46869502E+03</pdfrwt>
<pdfrwt beam="2">  1       21 0.10285795E+00 0.46869502E+03</pdfrwt>
<totfact> 0.22673756E+03</totfact>
</mgrwt>
</event>
<event>
 4    0  0.1655656E-001  0.2622240E+03  0.7546771E-02  0.1105814E+00
         21   -1    0    0  502  501  0.00000000000E+00  0.00000000000E+00  0.57362965655E+03  0.57362965655E+03  0.00000000000E+00 0.  1.
         21   -1    0    0  503  502 -0.00000000000E+00 -0.00000000000E+00 -0.12001146914E+03  0.12001146914E+03  0.00000000000E+00 0.  1.
         25    1    1    2    0    0 -0.11054449814E+03  0.20227789682E+03  0.12060443705E+03  0.28862928446E+03  0.12500000000E+03 0.  0.
         21    1    1    2  503  501  0.11054449814E+03 -0.20227789682E+03  0.33301375036E+03  0.40501184123E+03  0.00000000000E+00 0.  1.
<mgrwt>
<rscale>  3 0.26222401E+03</rscale>
<asrwt>0</asrwt>
<pdfrwt beam="1">  1       21 0.88250715E-01 0.26222401E+03</pdfrwt>
<pdfrwt beam="2">  1       21 0.18463303E-01 0.26222401E+03</pdfrwt>
<totfact> 0.28426943E+04</totfact>
</mgrwt>
</event>
<event>
 4    0  0.1162773E-001  0.3021457E+03  0.7546771E-02  0.1084173E+00
         21   -1    0    0  502  501  0.00000000000E+00  0.00000000000E+00  0.10182165211E+04  0.10182165211E+04  0.00000000000E+00 0. -1.
         21   -1    0    0  503  502 -0.00000000000E+00 -0.00000000000E+00 -0.37120979290E+03  0.37120979290E+03  0.00000000000E+00 0. -1.
         25    1    1    2    0    0 -0.12307419204E+03  0.24600765270E+03 -0.28641038326E+03  0.41632070519E+03  0.12500000000E+03 0.  0.
         21    1    1    2  503  501  0.12307419204E+03 -0.24600765270E+03  0.93341711147E+03  0.97310560882E+03  0.00000000000E+00 0. -1.
<mgrwt>
<rscale>  3 0.30214570E+03</rscale>
<asrwt>0</asrwt>
<pdfrwt beam="1">  1       21 0.15664869E+00 0.30214570E+03</pdfrwt>
<pdfrwt beam="2">  1       21 0.57109199E-01 0.30214570E+03</pdfrwt>
<totfact> 0.69687595E+02</totfact>
</mgrwt>
</event>
<event>
 4    0  0.1137747E-001  0.3034192E+03  0.7546771E-02  0.1083544E+00
         21   -1    0    0  502  501  0.00000000000E+00  0.00000000000E+00  0.99604323361E+03  0.99604323361E+03  0.00000000000E+00 0.  1.
         21   -1    0    0  503  502 -0.00000000000E+00 -0.00000000000E+00 -0.30005189687E+03  0.30005189687E+03  0.00000000000E+00 0.  1.
         25    1    1    2    0    0 -0.77830570445E+02 -0.26529340577E+03 -0.19668086407E+03  0.36158892562E+03  0.12500000000E+03 0.  0.
         21    1    1    2  503  501  0.77830570445E+02  0.26529340577E+03  0.89267220081E+03  0.93450620487E+03  0.00000000000E+00 0.  1.
<mgrwt>
<rscale>  3 0.30341916E+03</rscale>
<asrwt>0</asrwt>
<pdfrwt beam="1">  1       21 0.15323742E+00 0.30341916E+03</pdfrwt>
<pdfrwt beam="2">  1       21 0.46161831E-01 0.30341916E+03</pdfrwt>
<totfact> 0.11597385E+03</totfact>
</mgrwt>
</event>
<event>
 4    0  0.1415217E-001  0.3750609E+03  0.7546771E-02  0.1052775E+00
         21   -1    0    0  503  501  0.00000000000E+00  0.00000000000E+00  0.10724191694E+03  0.10724191694E+03  0.00000000000E+00 0.  1.
         21   -1    0    0  501  502 -0.00000000000E+00 -0.00000000000E+00 -0.13555150551E+04  0.13555150551E+04  0.00000000000E+00 0.  1.
         25    1    1    2    0    0  0.42848736967E+02 -0.35101231914E+03 -0.85635904115E+03  0.93489115398E+03  0.12500000000E+03 0.  0.
         21    1    1    2  503  502 -0.42848736967E+02  0.35101231914E+03 -0.39191409704E+03  0.52786581809E+03  0.00000000000E+00 0.  1.
<mgrwt>
<rscale>  3 0.37506088E+03</rscale>
<asrwt>0</asrwt>
<pdfrwt beam="1">  1       21 0.16498757E-01 0.37506088E+03</pdfrwt>
<pdfrwt beam="2">  1       21 0.20854077E+00 0.37506088E+03</pdfrwt>
<totfact> 0.34404947E+03</totfact>
</mgrwt>
</event>
<event>
 4    0  0.1753455E-001  0.2898811E+03  0.7546771E-02  0.1090411E+00
         21   -1    0    0  502  501  0.00000000000E+00  0.00000000000E+00  0.21871871935E+03  0.21871871935E+03  0.00000000000E+00 0.  1.
         21   -1    0    0  503  502 -0.00000000000E+00 -0.00000000000E+00 -0.34769844624E+03  0.34769844624E+03  0.00000000000E+00 0.  1.
         25    1    1    2    0    0 -0.50678740161E+02 -0.25658863998E+03 -0.62154920827E+02  0.29646972704E+03  0.12500000000E+03 0.  0.
         21    1    1    2  503  501  0.50678740161E+02  0.25658863998E+03 -0.66824806064E+02  0.26994743854E+03  0.00000000000E+00 0.  1.
<mgrwt>
<rscale>  3 0.28988112E+03</rscale>
<asrwt>0</asrwt>
<pdfrwt beam="1">  1       21 0.33649034E-01 0.28988112E+03</pdfrwt>
<pdfrwt beam="2">  1       21 0.53492068E-01 0.28988112E+03</pdfrwt>
<totfact> 0.26874414E+04</totfact>
</mgrwt>
</event>
<event>
 4    0  0.1479231E-001  0.2620785E+03  0.7546771E-02  0.1105901E+00
         21   -1    0    0  502  501  0.00000000000E+00  0.00000000000E+00  0.74866305076E+03  0.74866305076E+03  0.00000000000E+00 0.  1.
         21   -1    0    0  503  502 -0.00000000000E+00 -0.00000000000E+00 -0.96864691545E+02  0.96864691545E+02  0.00000000000E+00 0.  1.
         25    1    1    2    0    0  0.22856478472E+03  0.28606013299E+02  0.17250936658E+03  0.31375889847E+03  0.12500000000E+03 0.  0.
         21    1    1    2  503  501 -0.22856478472E+03 -0.28606013299E+02  0.47928899263E+03  0.53176884383E+03  0.00000000000E+00 0.  1.
<mgrwt>
<rscale>  3 0.26207855E+03</rscale>
<asrwt>0</asrwt>
<pdfrwt beam="1">  1       21 0.11517893E+00 0.26207855E+03</pdfrwt>
<pdfrwt beam="2">  1       21 0.14902261E-01 0.26207855E+03</pdfrwt>
<totfact> 0.22317479E+04</totfact>
</mgrwt>
</event>
<event>
 4    0  0.1177678E-001  0.2939079E+03  0.7546771E-02  0.1088326E+00
         21   -1    0    0  503  501  0.00000000000E+00  0.00000000000E+00  0.16232349866E+04  0.16232349866E+04  0.00000000000E+00 0.  1.
         21   -1    0    0  501  502 -0.00000000000E+00 -0.00000000000E+00 -0.77419562178E+02  0.77419562178E+02  0.00000000000E+00 0.  1.
         25    1    1    2    0    0  0.20374592277E+01 -0.26599385411E+03  0.27568587607E+03  0.40296970596E+03  0.12500000000E+03 0.  0.
         21    1    1    2  503  502 -0.20374592277E+01  0.26599385411E+03  0.12701295483E+04  0.12976848428E+04  0.00000000000E+00 0.  1.
<mgrwt>
<rscale>  3 0.29390795E+03</rscale>
<asrwt>0</asrwt>
<pdfrwt beam="1">  1       21 0.24972843E+00 0.29390795E+03</pdfrwt>
<pdfrwt beam="2">  1       21 0.11910703E-01 0.29390795E+03</pdfrwt>
<totfact> 0.36344394E+03</totfact>
</mgrwt>
</event>
<event>
 4    0  0.1111466E-001  0.3170462E+03  0.7546771E-02  0.1077017E+00
         21   -1    0    0  503  501  0.00000000000E+00  0.00000000000E+00  0.28050118115E+03  0.28050118115E+03  0.00000000000E+00 0. -1.
         21   -1    0    0  501  502 -0.00000000000E+00 -0.00000000000E+00 -0.65857300890E+03  0.65857300890E+03  0.00000000000E+00 0. -1.
         25    1    1    2    0    0  0.23540676782E+03 -0.17168856976E+03 -0.52458212169E+03  0.61294756196E+03  0.12500000000E+03 0.  0.
         21    1    1    2  503  502 -0.23540676782E+03  0.17168856976E+03  0.14651029394E+03  0.32612662809E+03  0.00000000000E+00 0. -1.
<mgrwt>
<rscale>  3 0.31704623E+03</rscale>
<asrwt>0</asrwt>
<pdfrwt beam="1">  1       21 0.43154028E-01 0.31704623E+03</pdfrwt>
<pdfrwt beam="2">  1       21 0.10131892E+00 0.31704623E+03</pdfrwt>
<totfact> 0.37893894E+03</totfact>
</mgrwt>
</event>
<event>
 4    0  0.1005289E-001  0.5564609E+03  0.7546771E-02  0.1000009E+00
         21   -1    0    0  502  501  0.00000000000E+00  0.00000000000E+00  0.11931150891E+04  0.11931150891E+04  0.00000000000E+00 0.  1.
         21   -1    0    0  503  502 -0.00000000000E+00 -0.00000000000E+00 -0.36404221993E+03  0.36404221993E+03  0.00000000000E+00 0.  1.
         25    1    1    2    0    0  0.52661071803E+03  0.12924752744E+03 -0.11830114671E+02  0.55658667187E+03  0.12500000000E+03 0.  0.
         21    1    1    2  503  501 -0.52661071803E+03 -0.12924752744E+03  0.84090298385E+03  0.10005706372E+04  0.00000000000E+00 0.  1.
<mgrwt>
<rscale>  3 0.55646093E+03</rscale>
<asrwt>0</asrwt>
<pdfrwt beam="1">  1       21 0.18355617E+00 0.55646093E+03</pdfrwt>
<pdfrwt beam="2">  1       21 0.56006496E-01 0.55646093E+03</pdfrwt>
<totfact> 0.40661702E+02</totfact>
</mgrwt>
</event>
<event>
 4    0  0.1005289E-001  0.7759121E+03  0.7546771E-02  0.9595553E-01
         21   -1    0    0  502  501  0.00000000000E+00  0.00000000000E+00  0.12663561637E+04  0.12663561637E+04  0.00000000000E+00 0. -1.
         21   -1    0    0  503  502 -0.00000000000E+00 -0.00000000000E+00 -0.67644555356E+03  0.67644555356E+03  0.00000000000E+00 0. -1.
         25    1    1    2    0    0  0.25327638817E+03  0.72267953128E+03 -0.24134479146E+03  0.81258042193E+03  0.12500000000E+03 0.  0.
         21    1    1    2  503  501 -0.25327638817E+03 -0.72267953128E+03  0.83125540161E+03  0.11302212953E+04  0.00000000000E+00 0. -1.
<mgrwt>
<rscale>  3 0.77591213E+03</rscale>
<asrwt>0</asrwt>
<pdfrwt beam="1">  1       21 0.19482403E+00 0.77591213E+03</pdfrwt>
<pdfrwt beam="2">  1       21 0.10406855E+00 0.77591213E+03</pdfrwt>
<totfact> 0.74772622E+01</totfact>
</mgrwt>
</event>
<event>
 4    0  0.1467012E-001  0.2631450E+03  0.7546771E-02  0.1105268E+00
         21   -1    0    0  503  501  0.00000000000E+00  0.00000000000E+00  0.88721875545E+03  0.88721875545E+03  0.00000000000E+00 0. -1.
         21   -1    0    0  501  502 -0.00000000000E+00 -0.00000000000E+00 -0.68998025185E+02  0.68998025185E+02  0.00000000000E+00 0. -1.
         25    1    1    2    0    0 -0.23153991320E+03 -0.30916984910E+01  0.44628496456E+03  0.51808837045E+03  0.12500000000E+03 0.  0.
         21    1    1    2  503  502  0.23153991320E+03  0.30916984910E+01  0.37193576570E+03  0.43812841018E+03  0.00000000000E+00 0. -1.
<mgrwt>
<rscale>  3 0.26314500E+03</rscale>
<asrwt>0</asrwt>
<pdfrwt beam="1">  1       21 0.13649519E+00 0.26314500E+03</pdfrwt>
<pdfrwt beam="2">  1       21 0.10615081E-01 0.26314500E+03</pdfrwt>
<totfact> 0.26826953E+04</totfact>
</mgrwt>
</event>
<event>
 4    0  0.1392845E-001  0.2385570E+03  0.7546771E-02  0.1120758E+00
         21   -1    0    0  502  501  0.00000000000E+00  0.00000000000E+00  0.17287120040E+03  0.17287120040E+03  0.00000000000E+00 0. -1.
         21   -1    0    0  503  502 -0.00000000000E+00 -0.00000000000E+00 -0.41629530780E+03  0.41629530780E+03  0.00000000000E+00 0. -1.
         25    1    1    2    0    0 -0.62345188318E+02 -0.19338438794E+03 -0.29514658238E+03  0.37950092107E+03  0.12500000000E+03 0.  0.
         21    1    1    2  503  501  0.62345188318E+02  0.19338438794E+03  0.51722474980E+02  0.20966558712E+03  0.00000000000E+00 0. -1.
<mgrwt>
<rscale>  3 0.23855700E+03</rscale>
<asrwt>0</asrwt>
<pdfrwt beam="1">  1       21 0.26595569E-01 0.23855700E+03</pdfrwt>
<pdfrwt beam="2">  1       21 0.64045432E-01 0.23855700E+03</pdfrwt>
<totfact> 0.29570290E+04</totfact>
</mgrwt>
</event>
<event>
 4    0  0.1541274E-001  0.2473041E+03  0.7546771E-02  0.1115020E+00
         21   -1    0    0  503  501  0.00000000000E+00  0.00000000000E+00  0.26712257434E+03  0.26712257434E+03  0.00000000000E+00 0.  1.
         21   -1    0    0  501  502 -0.00000000000E+00 -0.00000000000E+00 -0.19936754629E+03  0.19936754629E+03  0.00000000000E+00 0.  1.
         25    1    1    2    0    0  0.18381224542E+02 -0.21259460421E+03  0.50485607921E+02  0.25240469837E+03  0.12500000000E+03 0.  0.
         21    1    1    2  503  502 -0.18381224542E+02  0.21259460421E+03  0.17269420124E+02  0.21408542226E+03  0.00000000000E+00 0.  1.
<mgrwt>
<rscale>  3 0.24730413E+03</rscale>
<asrwt>0</asrwt>
<pdfrwt beam="1">  1       21 0.41095780E-01 0.24730413E+03</pdfrwt>
<pdfrwt beam="2">  1       21 0.30671930E-01 0.24730413E+03</pdfrwt>
<totfact> 0.56840982E+04</totfact>
</mgrwt>
</event>
<event>
 4    0  0.1074478E-001  0.2565992E+03  0.7546771E-02  0.1109204E+00
         21   -1    0    0  502  501  0.00000000000E+00  0.00000000000E+00  0.11169246919E+04  0.11169246919E+04  0.00000000000E+00 0.  1.
         21   -1    0    0  503  502 -0.00000000000E+00 -0.00000000000E+00 -0.11870743854E+03  0.11870743854E+03  0.00000000000E+00 0.  1.
         25    1    1    2    0    0 -0.19196093535E+03 -0.11562496125E+03  0.50167389819E+02  0.26145726107E+03  0.12500000000E+03 0.  0.
         21    1    1    2  503  501  0.19196093535E+03  0.11562496125E+03  0.94804986356E+03  0.97417486940E+03  0.00000000000E+00 0.  1.
<mgrwt>
<rscale>  3 0.25659917E+03</rscale>
<asrwt>0</asrwt>
<pdfrwt beam="1">  1       21 0.17183456E+00 0.25659917E+03</pdfrwt>
<pdfrwt beam="2">  1       21 0.18262684E-01 0.25659917E+03</pdfrwt>
<totfact> 0.53916669E+03</totfact>
</mgrwt>
</event>
<event>
 4    0  0.1005289E-001  0.3742150E+03  0.7546771E-02  0.1053093E+00
         21   -1    0    0  503  501  0.00000000000E+00  0.00000000000E+00  0.39059505867E+03  0.39059505867E+03  0.00000000000E+00 0. -1.
         21   -1    0    0  501  502 -0.00000000000E+00 -0.00000000000E+00 -0.35753422759E+03  0.35753422759E+03  0.00000000000E+00 0.  1.
         25    1    1    2    0    0 -0.22669821190E+03 -0.27022176786E+03  0.10388772545E+03  0.38836779295E+03  0.12500000000E+03 0.  0.
         21    1    1    2  503  502  0.22669821190E+03  0.27022176786E+03 -0.70826894370E+02  0.35976149331E+03  0.00000000000E+00 0. -1.
<mgrwt>
<rscale>  3 0.37421502E+03</rscale>
<asrwt>0</asrwt>
<pdfrwt beam="1">  1       21 0.60091548E-01 0.37421502E+03</pdfrwt>
<pdfrwt beam="2">  1       21 0.55005266E-01 0.37421502E+03</pdfrwt>
<totfact> 0.73273178E+03</totfact>
</mgrwt>
</event>
<event>
 4    0  0.1110832E-001  0.2698754E+03  0.7546771E-02  0.1101351E+00
         21   -1    0    0  502  501  0.00000000000E+00  0.00000000000E+00  0.15582558006E+03  0.15582558006E+03  0.00000000000E+00 0. -1.
         21   -1    0    0  503  502 -0.00000000000E+00 -0.00000000000E+00 -0.12172334703E+04  0.12172334703E+04  0.00000000000E+00 0. -1.
         25    1    1    2    0    0 -0.13915639210E+03  0.19453342911E+03 -0.10983694655E+04  0.11310385666E+04  0.12500000000E+03 0.  0.
         21    1    1    2  503  501  0.13915639210E+03 -0.19453342911E+03  0.36961575239E+02  0.24202048374E+03  0.00000000000E+00 0. -1.
<mgrwt>
<rscale>  3 0.26987545E+03</rscale>
<asrwt>0</asrwt>
<pdfrwt beam="1">  1       21 0.23973167E-01 0.26987545E+03</pdfrwt>
<pdfrwt beam="2">  1       21 0.18726668E+00 0.26987545E+03</pdfrwt>
<totfact> 0.24992170E+03</totfact>
</mgrwt>
</event>
<event>
 4    0  0.1446703E-001  0.2363020E+03  0.7546771E-02  0.1122281E+00
         21   -1    0    0  502  501  0.00000000000E+00  0.00000000000E+00  0.90104314536E+02  0.90104314536E+02  0.00000000000E+00 0. -1.
         21   -1    0    0  503  502 -0.00000000000E+00 -0.00000000000E+00 -0.54907739053E+03  0.54907739053E+03  0.00000000000E+00 0. -1.
         25    1    1    2    0    0  0.15774190831E+03  0.12381890627E+03 -0.30782455545E+03  0.38806518540E+03  0.12500000000E+03 0.  0.
         21    1    1    2  503  501 -0.15774190831E+03 -0.12381890627E+03 -0.15114852055E+03  0.25111651967E+03  0.00000000000E+00 0. -1.
<mgrwt>
<rscale>  3 0.23630199E+03</rscale>
<asrwt>0</asrwt>
<pdfrwt beam="1">  1       21 0.13862203E-01 0.23630199E+03</pdfrwt>
<pdfrwt beam="2">  1       21 0.84473442E-01 0.23630199E+03</pdfrwt>
<totfact> 0.53916590E+04</totfact>
</mgrwt>
</event>
<event>
 4    0  0.1014161E-001  0.2577013E+03  0.7546771E-02  0.1108532E+00
         21   -1    0    0  502  501  0.00000000000E+00  0.00000000000E+00  0.84903958612E+03  0.84903958612E+03  0.00000000000E+00 0.  1.
         21   -1    0    0  503  502 -0.00000000000E+00 -0.00000000000E+00 -0.21426518791E+03  0.21426518791E+03  0.00000000000E+00 0.  1.
         25    1    1    2    0    0 -0.14986020806E+03 -0.16830585215E+03 -0.11367887338E+03  0.28166083874E+03  0.12500000000E+03 0.  0.
         21    1    1    2  503  501  0.14986020806E+03  0.16830585215E+03  0.74845327159E+03  0.78164393529E+03  0.00000000000E+00 0.  1.
<mgrwt>
<rscale>  3 0.25770126E+03</rscale>
<asrwt>0</asrwt>
<pdfrwt beam="1">  1       21 0.13062147E+00 0.25770126E+03</pdfrwt>
<pdfrwt beam="2">  1       21 0.32963876E-01 0.25770126E+03</pdfrwt>
<totfact> 0.36015513E+03</totfact>
</mgrwt>
</event>
<event>
 4    0  0.1488783E-001  0.3027211E+03  0.7546771E-02  0.1083888E+00
         21   -1    0    0  502  501  0.00000000000E+00  0.00000000000E+00  0.28397266859E+03  0.28397266859E+03  0.00000000000E+00 0.  1.
         21   -1    0    0  503  502 -0.00000000000E+00 -0.00000000000E+00 -0.29461399078E+03  0.29461399078E+03  0.00000000000E+00 0.  1.
         25    1    1    2    0    0  0.21535403328E+03 -0.17215612156E+03 -0.97070273424E+01  0.30287673436E+03  0.12500000000E+03 0.  0.
         21    1    1    2  503  501 -0.21535403328E+03  0.17215612156E+03 -0.93429485306E+00  0.27570992501E+03  0.00000000000E+00 0.  1.
<mgrwt>
<rscale>  3 0.30272114E+03</rscale>
<asrwt>0</asrwt>
<pdfrwt beam="1">  1       21 0.43688103E-01 0.30272114E+03</pdfrwt>
<pdfrwt beam="2">  1       21 0.45325229E-01 0.30272114E+03</pdfrwt>
<totfact> 0.22300279E+04</totfact>
</mgrwt>
</event>
<event>
 4    0  0.1175767E-001  0.2381036E+03  0.7546771E-02  0.1121063E+00
         21   -1    0    0  503  501  0.00000000000E+00  0.00000000000E+00  0.37489094363E+02  0.37489094363E+02  0.00000000000E+00 0. -1.
         21   -1    0    0  501  502 -0.00000000000E+00 -0.00000000000E+00 -0.15740657771E+04  0.15740657771E+04  0.00000000000E+00 0. -1.
         25    1    1    2    0    0 -0.62254585131E+01  0.20255755886E+03 -0.11572251456E+04  0.11814666134E+04  0.12500000000E+03 0.  0.
         21    1    1    2  503  502  0.62254585131E+01 -0.20255755886E+03 -0.37935153712E+03  0.43008825803E+03  0.00000000000E+00 0. -1.
<mgrwt>
<rscale>  3 0.23810359E+03</rscale>
<asrwt>0</asrwt>
<pdfrwt beam="1">  1       21 0.57675521E-02 0.23810359E+03</pdfrwt>
<pdfrwt beam="2">  1       21 0.24216400E+00 0.23810359E+03</pdfrwt>
<totfact> 0.15034391E+04</totfact>
</mgrwt>
</event>
<event>
 4    0  0.1309526E-001  0.3137572E+03  0.7546771E-02  0.1078559E+00
         21   -1    0    0  503  501  0.00000000000E+00  0.00000000000E+00  0.12820256364E+04  0.12820256364E+04  0.00000000000E+00 0.  1.
         21   -1    0    0  501  502 -0.00000000000E+00 -0.00000000000E+00 -0.13038560545E+03  0.13038560545E+03  0.00000000000E+00 0. -1.
         25    1    1    2    0    0 -0.45308357612E+02  0.28419314717E+03  0.11116039538E+03  0.33286667852E+03  0.12500000000E+03 0.  0.
         21    1    1    2  503  502  0.45308357612E+02 -0.28419314717E+03  0.10404796356E+04  0.10795445633E+04  0.00000000000E+00 0.  1.
<mgrwt>
<rscale>  3 0.31375722E+03</rscale>
<asrwt>0</asrwt>
<pdfrwt beam="1">  1       21 0.19723470E+00 0.31375722E+03</pdfrwt>
<pdfrwt beam="2">  1       21 0.20059325E-01 0.31375722E+03</pdfrwt>
<totfact> 0.29244704E+03</totfact>
</mgrwt>
</event>
<event>
 4    0  0.1435589E-001  0.2482173E+03  0.7546771E-02  0.1114437E+00
         21   -1    0    0  502  501  0.00000000000E+00  0.00000000000E+00  0.12018449816E+03  0.12018449816E+03  0.00000000000E+00 0. -1.
         21   -1    0    0  503  502 -0.00000000000E+00 -0.00000000000E+00 -0.48899426547E+03  0.48899426547E+03  0.00000000000E+00 0. -1.
         25    1    1    2    0    0 -0.15316273485E+03 -0.15009329832E+03 -0.28752394634E+03  0.37984449616E+03  0.12500000000E+03 0.  0.
         21    1    1    2  503  501  0.15316273485E+03  0.15009329832E+03 -0.81285820974E+02  0.22933426747E+03  0.00000000000E+00 0. -1.
<mgrwt>
<rscale>  3 0.24821729E+03</rscale>
<asrwt>0</asrwt>
<pdfrwt beam="1">  1       21 0.18489922E-01 0.24821729E+03</pdfrwt>
<pdfrwt beam="2">  1       21 0.75229889E-01 0.24821729E+03</pdfrwt>
<totfact> 0.41084155E+04</totfact>
</mgrwt>
</event>
<event>
 4    0  0.1567895E-001  0.3027225E+03  0.7546771E-02  0.1083888E+00
         21   -1    0    0  502  501  0.00000000000E+00  0.00000000000E+00  0.14111560252E+03  0.14111560252E+03  0.00000000000E+00 0.  1.
         21   -1    0    0  503  502 -0.00000000000E+00 -0.00000000000E+00 -0.72748940550E+03  0.72748940550E+03  0.00000000000E+00 0.  1.
         25    1    1    2    0    0  0.27568227829E+03 -0.38949180072E+01 -0.49108544202E+03  0.57689323129E+03  0.12500000000E+03 0.  0.
         21    1    1    2  503  501 -0.27568227829E+03  0.38949180072E+01 -0.95288360956E+02  0.29171177673E+03  0.00000000000E+00 0.  1.
<mgrwt>
<rscale>  3 0.30272246E+03</rscale>
<asrwt>0</asrwt>
<pdfrwt beam="1">  1       21 0.21710093E-01 0.30272246E+03</pdfrwt>
<pdfrwt beam="2">  1       21 0.11192145E+00 0.30272246E+03</pdfrwt>
<totfact> 0.11645959E+04</totfact>
</mgrwt>
</event>
<event>
 4    0  0.1005289E-001  0.2397988E+03  0.7546771E-02  0.1119927E+00
         21   -1    0    0  502  501  0.00000000000E+00  0.00000000000E+00  0.65114093735E+03  0.65114093735E+03  0.00000000000E+00 0.  1.
         21   -1    0    0  503  502 -0.00000000000E+00 -0.00000000000E+00 -0.76549381257E+03  0.76549381257E+03  0.00000000000E+00 0.  1.
         25    1    1    2    0    0 -0.20405447822E+03  0.15500228471E+02 -0.72973122699E+03  0.76812183331E+03  0.12500000000E+03 0.  0.
         21    1    1    2  503  501  0.20405447822E+03 -0.15500228471E+02  0.61537835178E+03  0.64851291661E+03  0.00000000000E+00 0.  1.
<mgrwt>
<rscale>  3 0.23979885E+03</rscale>
<asrwt>0</asrwt>
<pdfrwt beam="1">  1       21 0.10017553E+00 0.23979885E+03</pdfrwt>
<pdfrwt beam="2">  1       21 0.11776828E+00 0.23979885E+03</pdfrwt>
<totfact> 0.43065996E+02</totfact>
</mgrwt>
</event>
<event>
 4    0  0.1005289E-001  0.2924790E+03  0.7546771E-02  0.1089062E+00
         21   -1    0    0  502  501  0.00000000000E+00  0.00000000000E+00  0.33492832732E+02  0.33492832732E+02  0.00000000000E+00 0. -1.
         21   -1    0    0  503  502 -0.00000000000E+00 -0.00000000000E+00 -0.23592720631E+04  0.23592720631E+04  0.00000000000E+00 0. -1.
         25    1    1    2    0    0 -0.18718977220E+03 -0.18675910197E+03 -0.13841279086E+04  0.14146922070E+04  0.12500000000E+03 0.  0.
         21    1    1    2  503  501  0.18718977220E+03  0.18675910197E+03 -0.94165132174E+03  0.97807268887E+03  0.00000000000E+00 0. -1.
<mgrwt>
<rscale>  3 0.29247901E+03</rscale>
<asrwt>0</asrwt>
<pdfrwt beam="1">  1       21 0.51527435E-02 0.29247901E+03</pdfrwt>
<pdfrwt beam="2">  1       21 0.36296493E+00 0.29247901E+03</pdfrwt>
<totfact> 0.33627520E+03</totfact>
</mgrwt>
</event>
<event>
 4    0  0.1060381E-001  0.2512329E+03  0.7546771E-02  0.1112528E+00
         21   -1    0    0  503  501  0.00000000000E+00  0.00000000000E+00  0.72524969814E+02  0.72524969814E+02  0.00000000000E+00 0.  1.
         21   -1    0    0  501  502 -0.00000000000E+00 -0.00000000000E+00 -0.13681637794E+04  0.13681637794E+04  0.00000000000E+00 0. -1.
         25    1    1    2    0    0  0.79124627576E+02  0.20305729741E+03 -0.11534095861E+04  0.11804539999E+04  0.12500000000E+03 0.  0.
         21    1    1    2  503  502 -0.79124627576E+02 -0.20305729741E+03 -0.14222922356E+03  0.26023474932E+03  0.00000000000E+00 0.  1.
<mgrwt>
<rscale>  3 0.25123291E+03</rscale>
<asrwt>0</asrwt>
<pdfrwt beam="1">  1       21 0.11157688E-01 0.25123291E+03</pdfrwt>
<pdfrwt beam="2">  1       21 0.21048674E+00 0.25123291E+03</pdfrwt>
<totfact> 0.73452620E+03</totfact>
</mgrwt>
</event>
<event>
 4    0  0.1369421E-001  0.2379218E+03  0.7546771E-02  0.1121185E+00
         21   -1    0    0  502  501  0.00000000000E+00  0.00000000000E+00  0.76978738299E+03  0.76978738299E+03  0.00000000000E+00 0. -1.
         21   -1    0    0  503  502 -0.00000000000E+00 -0.00000000000E+00 -0.78838156436E+02  0.78838156436E+02  0.00000000000E+00 0. -1.
         25    1    1    2    0    0 -0.20086251569E+03  0.25219900683E+02  0.17789005474E+03  0.29707181821E+03  0.12500000000E+03 0.  0.
         21    1    1    2  503  501  0.20086251569E+03 -0.25219900683E+02  0.51305917182E+03  0.55155372121E+03  0.00000000000E+00 0. -1.
<mgrwt>
<rscale>  3 0.23792182E+03</rscale>
<asrwt>0</asrwt>
<pdfrwt beam="1">  1       21 0.11842882E+00 0.23792182E+03</pdfrwt>
<pdfrwt beam="2">  1       21 0.12128948E-01 0.23792182E+03</pdfrwt>
<totfact> 0.30642079E+04</totfact>
</mgrwt>
</event>
<event>
 4    0  0.1137639E-001  0.3881814E+03  0.7546771E-02  0.1047951E+00
         21   -1    0    0  503  501  0.00000000000E+00  0.00000000000E+00  0.15902770862E+04  0.15902770862E+04  0.00000000000E+00 0.  1.
         21   -1    0    0  501  502 -0.00000000000E+00 -0.00000000000E+00 -0.90780119481E+02  0.90780119481E+02  0.00000000000E+00 0.  1.
         25    1    1    2    0    0 -0.23142574175E+03 -0.28548541577E+03  0.68157719963E+03  0.78436743661E+03  0.12500000000E+03 0.  0.
         21    1    1    2  503  502  0.23142574175E+03  0.28548541577E+03  0.81791976706E+03  0.89668976904E+03  0.00000000000E+00 0.  1.
<mgrwt>
<rscale>  3 0.38818140E+03</rscale>
<asrwt>0</asrwt>
<pdfrwt beam="1">  1       21 0.24465799E+00 0.38818140E+03</pdfrwt>
<pdfrwt beam="2">  1       21 0.13966173E-01 0.38818140E+03</pdfrwt>
<totfact> 0.27573941E+03</totfact>
</mgrwt>
</event>
<event>
 4    0  0.1325306E-001  0.2627520E+03  0.7546771E-02  0.1105501E+00
         21   -1    0    0  502  501  0.00000000000E+00  0.00000000000E+00  0.13428531199E+03  0.13428531199E+03  0.00000000000E+00 0. -1.
         21   -1    0    0  503  502 -0.00000000000E+00 -0.00000000000E+00 -0.69029186291E+03  0.69029186291E+03  0.00000000000E+00 0. -1.
         25    1    1    2    0    0 -0.22412177193E+03  0.56418312191E+02 -0.53057123643E+03  0.59206792814E+03  0.12500000000E+03 0.  0.
         21    1    1    2  503  501  0.22412177193E+03 -0.56418312191E+02 -0.25435314497E+02  0.23250924676E+03  0.00000000000E+00 0. -1.
<mgrwt>
<rscale>  3 0.26275196E+03</rscale>
<asrwt>0</asrwt>
<pdfrwt beam="1">  1       21 0.20659278E-01 0.26275196E+03</pdfrwt>
<pdfrwt beam="2">  1       21 0.10619875E+00 0.26275196E+03</pdfrwt>
<totfact> 0.14825296E+04</totfact>
</mgrwt>
</event>
<event>
 4    0  0.1005289E-001  0.2745607E+03  0.7546771E-02  0.1098697E+00
         21   -1    0    0  503  501  0.00000000000E+00  0.00000000000E+00  0.25215939506E+03  0.25215939506E+03  0.00000000000E+00 0. -1.
         21   -1    0    0  501  502 -0.00000000000E+00 -0.00000000000E+00 -0.27504617407E+03  0.27504617407E+03  0.00000000000E+00 0.  1.
         25    1    1    2    0    0  0.85615689671E+02  0.22897272378E+03 -0.56901021513E+02  0.28039486586E+03  0.12500000000E+03 0.  0.
         21    1    1    2  503  502 -0.85615689671E+02 -0.22897272378E+03  0.34014242511E+02  0.24681070327E+03  0.00000000000E+00 0. -1.
<mgrwt>
<rscale>  3 0.27456066E+03</rscale>
<asrwt>0</asrwt>
<pdfrwt beam="1">  1       21 0.38793753E-01 0.27456066E+03</pdfrwt>
<pdfrwt beam="2">  1       21 0.42314796E-01 0.27456066E+03</pdfrwt>
<totfact> 0.33144781E+04</totfact>
</mgrwt>
</event>
<event>
 4    0  0.1005289E-001  0.3512068E+03  0.7546771E-02  0.1062121E+00
         21   -1    0    0  502  501  0.00000000000E+00  0.00000000000E+00  0.27203417196E+03  0.27203417196E+03  0.00000000000E+00 0. -1.
         21   -1    0    0  503  502 -0.00000000000E+00 -0.00000000000E+00 -0.50033870605E+03  0.50033870605E+03  0.00000000000E+00 0.  1.
         25    1    1    2    0    0  0.32818882757E+03 -0.36438388330E+01 -0.26798808707E+03  0.44177347014E+03  0.12500000000E+03 0.  0.
         21    1    1    2  503  501 -0.32818882757E+03  0.36438388330E+01  0.39683552986E+02  0.33059940787E+03  0.00000000000E+00 0. -1.
<mgrwt>
<rscale>  3 0.35120675E+03</rscale>
<asrwt>0</asrwt>
<pdfrwt beam="1">  1       21 0.41851412E-01 0.35120675E+03</pdfrwt>
<pdfrwt beam="2">  1       21 0.76975184E-01 0.35120675E+03</pdfrwt>
<totfact> 0.75661485E+03</totfact>
</mgrwt>
</event>
<event>
 4    0  0.1412408E-001  0.2360333E+03  0.7546771E-02  0.1122464E+00
         21   -1    0    0  502  501  0.00000000000E+00  0.00000000000E+00  0.44881815866E+03  0.44881815866E+03  0.00000000000E+00 0. -1.
         21   -1    0    0  503  502 -0.00000000000E+00 -0.00000000000E+00 -0.12183933317E+03  0.12183933317E+03  0.00000000000E+00 0. -1.
         25    1    1    2    0    0  0.62666440752E+01  0.20011860901E+03  0.72620093109E+02  0.24695223510E+03  0.12500000000E+03 0.  0.
         21    1    1    2  503  501 -0.62666440752E+01 -0.20011860901E+03  0.25435873238E+03  0.32370525674E+03  0.00000000000E+00 0. -1.
<mgrwt>
<rscale>  3 0.23603332E+03</rscale>
<asrwt>0</asrwt>
<pdfrwt beam="1">  1       21 0.69048947E-01 0.23603332E+03</pdfrwt>
<pdfrwt beam="2">  1       21 0.18744513E-01 0.23603332E+03</pdfrwt>
<totfact> 0.48737767E+04</totfact>
</mgrwt>
</event>
<event>
 4    0  0.1608796E-001  0.2364845E+03  0.7546771E-02  0.1122157E+00
         21   -1    0    0  503  501  0.00000000000E+00  0.00000000000E+00  0.35429123446E+03  0.35429123446E+03  0.00000000000E+00 0.  1.
         21   -1    0    0  501  502 -0.00000000000E+00 -0.00000000000E+00 -0.17706918885E+03  0.17706918885E+03  0.00000000000E+00 0.  1.
         25    1    1    2    0    0  0.19950868848E+03 -0.22275562888E+02 -0.35198128259E+02  0.23908957676E+03  0.12500000000E+03 0.  0.
         21    1    1    2  503  502 -0.19950868848E+03  0.22275562888E+02  0.21242017387E+03  0.29227084656E+03  0.00000000000E+00 0.  1.
<mgrwt>
<rscale>  3 0.23648450E+03</rscale>
<asrwt>0</asrwt>
<pdfrwt beam="1">  1       21 0.54506344E-01 0.23648450E+03</pdfrwt>
<pdfrwt beam="2">  1       21 0.27241414E-01 0.23648450E+03</pdfrwt>
<totfact> 0.39986276E+04</totfact>
</mgrwt>
</event>
<event>
 4    0  0.1322436E-001  0.3310209E+03  0.7546771E-02  0.1070686E+00
         21   -1    0    0  502  501  0.00000000000E+00  0.00000000000E+00  0.78435179346E+03  0.78435179346E+03  0.00000000000E+00 0. -1.
         21   -1    0    0  503  502 -0.00000000000E+00 -0.00000000000E+00 -0.14002628671E+03  0.14002628671E+03  0.00000000000E+00 0. -1.
         25    1    1    2    0    0 -0.12826615627E+03 -0.27838400371E+03  0.45995973080E+03  0.56669022783E+03  0.12500000000E+03 0.  0.
         21    1    1    2  503  501  0.12826615627E+03  0.27838400371E+03  0.18436577595E+03  0.35768785233E+03  0.00000000000E+00 0. -1.
<mgrwt>
<rscale>  3 0.33102094E+03</rscale>
<asrwt>0</asrwt>
<pdfrwt beam="1">  1       21 0.12066950E+00 0.33102094E+03</pdfrwt>
<pdfrwt beam="2">  1       21 0.21542506E-01 0.33102094E+03</pdfrwt>
<totfact> 0.96795750E+03</totfact>
</mgrwt>
</event>
<event>
 4    0  0.1005289E-001  0.5073229E+03  0.7546771E-02  0.1011885E+00
         21   -1    0    0  503  501  0.00000000000E+00  0.00000000000E+00  0.27761594161E+03  0.27761594161E+03  0.00000000000E+00 0.  1.
         21   -1    0    0  501  502 -0.00000000000E+00 -0.00000000000E+00 -0.14051311314E+04  0.14051311314E+04  0.00000000000E+00 0.  1.
         25    1    1    2    0    0 -0.42190314214E+03  0.25248612701E+03 -0.10744618727E+04  0.11882107648E+04  0.12500000000E+03 0.  0.
         21    1    1    2  503  502  0.42190314214E+03 -0.25248612701E+03 -0.53053317067E+02  0.49453630820E+03  0.00000000000E+00 0.  1.
<mgrwt>
<rscale>  3 0.50732288E+03</rscale>
<asrwt>0</asrwt>
<pdfrwt beam="1">  1       21 0.42710145E-01 0.50732288E+03</pdfrwt>
<pdfrwt beam="2">  1       21 0.21617402E+00 0.50732288E+03</pdfrwt>
<totfact> 0.44578732E+02</totfact>
</mgrwt>
</event>
<event>
 4    0  0.1005289E-001  0.4629803E+03  0.7546771E-02  0.1023920E+00
         21   -1    0    0  503  501  0.00000000000E+00  0.00000000000E+00  0.62273143277E+03  0.62273143277E+03  0.00000000000E+00 0. -1.
         21   -1    0    0  501  502 -0.00000000000E+00 -0.00000000000E+00 -0.33193151327E+03  0.33193151327E+03  0.00000000000E+00 0.  1.
         25    1    1    2    0    0  0.43289142289E+03  0.10644613037E+03  0.16440389292E+03  0.49130377842E+03  0.12500000000E+03 0.  0.
         21    1    1    2  503  502 -0.43289142289E+03 -0.10644613037E+03  0.12639602657E+03  0.46335916762E+03  0.00000000000E+00 0. -1.
<mgrwt>
<rscale>  3 0.46298030E+03</rscale>
<asrwt>0</asrwt>
<pdfrwt beam="1">  1       21 0.95804836E-01 0.46298030E+03</pdfrwt>
<pdfrwt beam="2">  1       21 0.51066387E-01 0.46298030E+03</pdfrwt>
<totfact> 0.28647974E+03</totfact>
</mgrwt>
</event>
<event>
 4    0  0.1358258E-001  0.3597918E+03  0.7546771E-02  0.1058666E+00
         21   -1    0    0  503  501  0.00000000000E+00  0.00000000000E+00  0.26102178266E+03  0.26102178266E+03  0.00000000000E+00 0. -1.
         21   -1    0    0  501  502 -0.00000000000E+00 -0.00000000000E+00 -0.49875761206E+03  0.49875761206E+03  0.00000000000E+00 0. -1.
         25    1    1    2    0    0  0.21270467649E+03  0.26188144901E+03 -0.22044831991E+03  0.42195691069E+03  0.12500000000E+03 0.  0.
         21    1    1    2  503  502 -0.21270467649E+03 -0.26188144901E+03 -0.17287509495E+02  0.33782248403E+03  0.00000000000E+00 0. -1.
<mgrwt>
<rscale>  3 0.35979185E+03</rscale>
<asrwt>0</asrwt>
<pdfrwt beam="1">  1       21 0.40157198E-01 0.35979185E+03</pdfrwt>
<pdfrwt beam="2">  1       21 0.76731939E-01 0.35979185E+03</pdfrwt>
<totfact> 0.82691983E+03</totfact>
</mgrwt>
</event>
<event>
 4    0  0.1052253E-001  0.2658759E+03  0.7546771E-02  0.1103663E+00
         21   -1    0    0  503  501  0.00000000000E+00  0.00000000000E+00  0.36788869375E+03  0.36788869375E+03  0.00000000000E+00 0.  1.
         21   -1    0    0  501  502 -0.00000000000E+00 -0.00000000000E+00 -0.24791477390E+03  0.24791477390E+03  0.00000000000E+00 0. -1.
         25    1    1    2    0    0  0.92393468923E+02  0.21570456957E+03 -0.10954577085E+03  0.28755919450E+03  0.12500000000E+03 0.  0.
         21    1    1    2  503  502 -0.92393468923E+02 -0.21570456957E+03  0.22951969070E+03  0.32824427314E+03  0.00000000000E+00 0.  1.
<mgrwt>
<rscale>  3 0.26587594E+03</rscale>
<asrwt>0</asrwt>
<pdfrwt beam="1">  1       21 0.56598260E-01 0.26587594E+03</pdfrwt>
<pdfrwt beam="2">  1       21 0.38140735E-01 0.26587594E+03</pdfrwt>
<totfact> 0.18712213E+04</totfact>
</mgrwt>
</event>
<event>
 4    0  0.1303037E-001  0.2760098E+03  0.7546771E-02  0.1097888E+00
         21   -1    0    0  503  501  0.00000000000E+00  0.00000000000E+00  0.29237106836E+03  0.29237106836E+03  0.00000000000E+00 0. -1.
         21   -1    0    0  501  502 -0.00000000000E+00 -0.00000000000E+00 -0.37873395078E+03  0.37873395078E+03  0.00000000000E+00 0. -1.
         25    1    1    2    0    0  0.24602718694E+03  0.51981253644E+01 -0.25258794529E+03  0.37414177437E+03  0.12500000000E+03 0.  0.
         21    1    1    2  503  502 -0.24602718694E+03 -0.51981253644E+01  0.16622506287E+03  0.29696324478E+03  0.00000000000E+00 0. -1.
<mgrwt>
<rscale>  3 0.27600978E+03</rscale>
<asrwt>0</asrwt>
<pdfrwt beam="1">  1       21 0.44980165E-01 0.27600978E+03</pdfrwt>
<pdfrwt beam="2">  1       21 0.58266761E-01 0.27600978E+03</pdfrwt>
<totfact> 0.12482911E+04</totfact>
</mgrwt>
</event>
<event>
 4    0  0.1150191E-001  0.2557835E+03  0.7546771E-02  0.1109703E+00
         21   -1    0    0  503  501  0.00000000000E+00  0.00000000000E+00  0.33172422660E+03  0.33172422660E+03  0.00000000000E+00 0.  1.
         21   -1    0    0  501  502 -0.00000000000E+00 -0.00000000000E+00 -0.27147284434E+03  0.27147284434E+03  0.00000000000E+00 0. -1.
         25    1    1    2    0    0  0.51894826708E+02  0.21704179083E+03 -0.15005997099E+03  0.29655219928E+03  0.12500000000E+03 0.  0.
         21    1    1    2  503  502 -0.51894826708E+02 -0.21704179083E+03  0.21031135325E+03  0.30664487165E+03  0.00000000000E+00 0.  1.
<mgrwt>
<rscale>  3 0.25578353E+03</rscale>
<asrwt>0</asrwt>
<pdfrwt beam="1">  1       21 0.51034497E-01 0.25578353E+03</pdfrwt>
<pdfrwt beam="2">  1       21 0.41765053E-01 0.25578353E+03</pdfrwt>
<totfact> 0.19472035E+04</totfact>
</mgrwt>
</event>
<event>
 4    0  0.1076238E-001  0.3382930E+03  0.7546771E-02  0.1067525E+00
         21   -1    0    0  503  501  0.00000000000E+00  0.00000000000E+00  0.52741654321E+03  0.52741654321E+03  0.00000000000E+00 0.  1.
         21   -1    0    0  501  502 -0.00000000000E+00 -0.00000000000E+00 -0.70916013930E+03  0.70916013930E+03  0.00000000000E+00 0.  1.
         25    1    1    2    0    0  0.21528412442E+03 -0.22906307484E+03 -0.61463855659E+03  0.70158584772E+03  0.12500000000E+03 0.  0.
         21    1    1    2  503  502 -0.21528412442E+03  0.22906307484E+03  0.43289496050E+03  0.53499083479E+03  0.00000000000E+00 0.  1.
<mgrwt>
<rscale>  3 0.33829299E+03</rscale>
<asrwt>0</asrwt>
<pdfrwt beam="1">  1       21 0.81141007E-01 0.33829299E+03</pdfrwt>
<pdfrwt beam="2">  1       21 0.10910156E+00 0.33829299E+03</pdfrwt>
<totfact> 0.79215115E+02</totfact>
</mgrwt>
</event>
<event>
 4    0  0.1383338E-001  0.2886518E+03  0.7546771E-02  0.1091055E+00
         21   -1    0    0  503  501  0.00000000000E+00  0.00000000000E+00  0.10010278196E+04  0.10010278196E+04  0.00000000000E+00 0. -1.
         21   -1    0    0  501  502 -0.00000000000E+00 -0.00000000000E+00 -0.86467830781E+02  0.86467830781E+02  0.00000000000E+00 0. -1.
         25    1    1    2    0    0  0.22895156596E+02  0.25917301040E+03  0.28209858463E+03  0.40360803877E+03  0.12500000000E+03 0.  0.
         21    1    1    2  503  502 -0.22895156596E+02 -0.25917301040E+03  0.63246140415E+03  0.68388761157E+03  0.00000000000E+00 0. -1.
<mgrwt>
<rscale>  3 0.28865176E+03</rscale>
<asrwt>0</asrwt>
<pdfrwt beam="1">  1       21 0.15400427E+00 0.28865176E+03</pdfrwt>
<pdfrwt beam="2">  1       21 0.13302744E-01 0.28865176E+03</pdfrwt>
<totfact> 0.12820096E+04</totfact>
</mgrwt>
</event>
<event>
 4    0  0.1495820E-001  0.2616496E+03  0.7546771E-02  0.1106156E+00
         21   -1    0    0  503  501  0.00000000000E+00  0.00000000000E+00  0.47791441493E+03  0.47791441493E+03  0.00000000000E+00 0.  1.
         21   -1    0    0  501  502 -0.00000000000E+00 -0.00000000000E+00 -0.23942266436E+03  0.23942266436E+03  0.00000000000E+00 0. -1.
         25    1    1    2    0    0 -0.12491688907E+03  0.19295412034E+03 -0.12287059078E+03  0.28906349443E+03  0.12500000000E+03 0.  0.
         21    1    1    2  503  502  0.12491688907E+03 -0.19295412034E+03  0.36136234136E+03  0.42827358486E+03  0.00000000000E+00 0.  1.
<mgrwt>
<rscale>  3 0.26164962E+03</rscale>
<asrwt>0</asrwt>
<pdfrwt beam="1">  1       21 0.73525295E-01 0.26164962E+03</pdfrwt>
<pdfrwt beam="2">  1       21 0.36834256E-01 0.26164962E+03</pdfrwt>
<totfact> 0.11336756E+04</totfact>
</mgrwt>
</event>
<event>
 4    0  0.1005289E-001  0.2368623E+03  0.7546771E-02  0.1121901E+00
         21   -1    0    0  503  501  0.00000000000E+00  0.00000000000E+00  0.10599990758E+03  0.10599990758E+03  0.00000000000E+00 0.  1.
         21   -1    0    0  501  502 -0.00000000000E+00 -0.00000000000E+00 -0.45428072411E+03  0.45428072411E+03  0.00000000000E+00 0.  1.
         25    1    1    2    0    0 -0.12981632524E+03 -0.15370906294E+03 -0.17117070181E+03  0.29223819649E+03  0.12500000000E+03 0.  0.
         21    1    1    2  503  502  0.12981632524E+03  0.15370906294E+03 -0.17711011472E+03  0.26804243520E+03  0.00000000000E+00 0.  1.
<mgrwt>
<rscale>  3 0.23686231E+03</rscale>
<asrwt>0</asrwt>
<pdfrwt beam="1">  1       21 0.16307678E-01 0.23686231E+03</pdfrwt>
<pdfrwt beam="2">  1       21 0.69889342E-01 0.23686231E+03</pdfrwt>
<totfact> 0.61400206E+04</totfact>
</mgrwt>
</event>
<event>
 4    0  0.1422988E-001  0.2370461E+03  0.7546771E-02  0.1121776E+00
         21   -1    0    0  503  501  0.00000000000E+00  0.00000000000E+00  0.27379890322E+03  0.27379890322E+03  0.00000000000E+00 0.  1.
         21   -1    0    0  501  502 -0.00000000000E+00 -0.00000000000E+00 -0.26978300123E+03  0.26978300123E+03  0.00000000000E+00 0.  1.
         25    1    1    2    0    0 -0.19704442177E+03 -0.41705773046E+02 -0.15818523860E+03  0.28497972800E+03  0.12500000000E+03 0.  0.
         21    1    1    2  503  502  0.19704442177E+03  0.41705773046E+02  0.16220114060E+03  0.25860217646E+03  0.00000000000E+00 0.  1.
<mgrwt>
<rscale>  3 0.23704615E+03</rscale>
<asrwt>0</asrwt>
<pdfrwt beam="1">  1       21 0.42122909E-01 0.23704615E+03</pdfrwt>
<pdfrwt beam="2">  1       21 0.41505077E-01 0.23704615E+03</pdfrwt>
<totfact> 0.29629524E+04</totfact>
</mgrwt>
</event>
<event>
 4    0  0.1005289E-001  0.3068814E+03  0.7546771E-02  0.1081850E+00
         21   -1    0    0  502  501  0.00000000000E+00  0.00000000000E+00  0.46040413310E+02  0.46040413310E+02  0.00000000000E+00 0. -1.
         21   -1    0    0  503  502 -0.00000000000E+00 -0.00000000000E+00 -0.19745892056E+04  0.19745892056E+04  0.00000000000E+00 0. -1.
         25    1    1    2    0    0 -0.21523706933E+02 -0.27944212522E+03 -0.77561972617E+03  0.83412357054E+03  0.12500000000E+03 0.  0.
         21    1    1    2  503  501  0.21523706933E+02  0.27944212522E+03 -0.11529290661E+04  0.11865060484E+04  0.00000000000E+00 0. -1.
<mgrwt>
<rscale>  3 0.30688136E+03</rscale>
<asrwt>0</asrwt>
<pdfrwt beam="1">  1       21 0.70831405E-02 0.30688136E+03</pdfrwt>
<pdfrwt beam="2">  1       21 0.30378295E+00 0.30688136E+03</pdfrwt>
<totfact> 0.43286523E+03</totfact>
</mgrwt>
</event>
<event>
 4    0  0.1005289E-001  0.2535780E+03  0.7546771E-02  0.1111064E+00
         21   -1    0    0  503  501  0.00000000000E+00  0.00000000000E+00  0.96792276565E+02  0.96792276565E+02  0.00000000000E+00 0. -1.
         21   -1    0    0  501  502 -0.00000000000E+00 -0.00000000000E+00 -0.65421153927E+03  0.65421153927E+03  0.00000000000E+00 0.  1.
         25    1    1    2    0    0  0.21616740508E+03 -0.44141274892E+02 -0.42141150952E+03  0.49182258948E+03  0.12500000000E+03 0.  0.
         21    1    1    2  503  502 -0.21616740508E+03  0.44141274892E+02 -0.13600775319E+03  0.25918122636E+03  0.00000000000E+00 0. -1.
<mgrwt>
<rscale>  3 0.25357799E+03</rscale>
<asrwt>0</asrwt>
<pdfrwt beam="1">  1       21 0.14891120E-01 0.25357799E+03</pdfrwt>
<pdfrwt beam="2">  1       21 0.10064793E+00 0.25357799E+03</pdfrwt>
<totfact> 0.31147413E+04</totfact>
</mgrwt>
</event>
<event>
 4    0  0.1544309E-001  0.2555834E+03  0.7546771E-02  0.1109826E+00
         21   -1    0    0  502  501  0.00000000000E+00  0.00000000000E+00  0.19106480825E+03  0.19106480825E+03  0.00000000000E+00 0.  1.
         21   -1    0    0  503  502 -0.00000000000E+00 -0.00000000000E+00 -0.30004470347E+03  0.30004470347E+03  0.00000000000E+00 0.  1.
         25    1    1    2    0    0  0.95600333354E+02 -0.20139134511E+03 -0.48817170933E+02  0.26020379283E+03  0.12500000000E+03 0.  0.
         21    1    1    2  503  501 -0.95600333354E+02  0.20139134511E+03 -0.60162724292E+02  0.23090571889E+03  0.00000000000E+00 0.  1.
<mgrwt>
<rscale>  3 0.25558345E+03</rscale>
<asrwt>0</asrwt>
<pdfrwt beam="1">  1       21 0.29394586E-01 0.25558345E+03</pdfrwt>
<pdfrwt beam="2">  1       21 0.46160723E-01 0.25558345E+03</pdfrwt>
<totfact> 0.48489283E+04</totfact>
</mgrwt>
</event>
<event>
 4    0  0.1163197E-001  0.3098452E+03  0.7546771E-02  0.1080420E+00
         21   -1    0    0  503  501  0.00000000000E+00  0.00000000000E+00  0.30891077179E+03  0.30891077179E+03  0.00000000000E+00 0.  1.
         21   -1    0    0  501  502 -0.00000000000E+00 -0.00000000000E+00 -0.25246049626E+04  0.25246049626E+04  0.00000000000E+00 0. -1.
         25    1    1    2    0    0 -0.27711018189E+03 -0.59908039784E+02 -0.24476640780E+04  0.24671974921E+04  0.12500000000E+03 0.  0.
         21    1    1    2  503  502  0.27711018189E+03  0.59908039784E+02  0.23196988715E+03  0.36631824236E+03  0.00000000000E+00 0.  1.
<mgrwt>
<rscale>  3 0.30984516E+03</rscale>
<asrwt>0</asrwt>
<pdfrwt beam="1">  1       21 0.47524735E-01 0.30984516E+03</pdfrwt>
<pdfrwt beam="2">  1       21 0.38840076E+00 0.30984516E+03</pdfrwt>
<totfact> 0.36571358E+01</totfact>
</mgrwt>
</event>
<event>
 4    0  0.1288465E-001  0.2501384E+03  0.7546771E-02  0.1113217E+00
         21   -1    0    0  502  501  0.00000000000E+00  0.00000000000E+00  0.72449878997E+02  0.72449878997E+02  0.00000000000E+00 0.  1.
         21   -1    0    0  503  502 -0.00000000000E+00 -0.00000000000E+00 -0.97019583544E+03  0.97019583544E+03  0.00000000000E+00 0.  1.
         25    1    1    2    0    0  0.20292432742E+03  0.75933903512E+02 -0.72059878553E+03  0.76277903096E+03  0.12500000000E+03 0.  0.
         21    1    1    2  503  501 -0.20292432742E+03 -0.75933903512E+02 -0.17714717091E+03  0.27986668348E+03  0.00000000000E+00 0.  1.
<mgrwt>
<rscale>  3 0.25013844E+03</rscale>
<asrwt>0</asrwt>
<pdfrwt beam="1">  1       21 0.11146136E-01 0.25013844E+03</pdfrwt>
<pdfrwt beam="2">  1       21 0.14926089E+00 0.25013844E+03</pdfrwt>
<totfact> 0.19569865E+04</totfact>
</mgrwt>
</event>
<event>
 4    0  0.1380939E-001  0.3475204E+03  0.7546771E-02  0.1063637E+00
         21   -1    0    0  502  501  0.00000000000E+00  0.00000000000E+00  0.19862276195E+03  0.19862276195E+03  0.00000000000E+00 0.  1.
         21   -1    0    0  503  502 -0.00000000000E+00 -0.00000000000E+00 -0.13238515379E+04  0.13238515379E+04  0.00000000000E+00 0. -1.
         25    1    1    2    0    0  0.32109016012E+03 -0.45238817345E+02 -0.11460145443E+04  0.11975474009E+04  0.12500000000E+03 0.  0.
         21    1    1    2  503  501 -0.32109016012E+03  0.45238817345E+02  0.20785768364E+02  0.32492689899E+03  0.00000000000E+00 0.  1.
<mgrwt>
<rscale>  3 0.34752042E+03</rscale>
<asrwt>0</asrwt>
<pdfrwt beam="1">  1       21 0.30557347E-01 0.34752042E+03</pdfrwt>
<pdfrwt beam="2">  1       21 0.20366947E+00 0.34752042E+03</pdfrwt>
<totfact> 0.11522760E+03</totfact>
</mgrwt>
</event>
<event>
 4    0  0.1005289E-001  0.2457140E+03  0.7546771E-02  0.1116044E+00
         21   -1    0    0  503  501  0.00000000000E+00  0.00000000000E+00  0.21259696367E+03  0.21259696367E+03  0.00000000000E+00 0.  1.
         21   -1    0    0  501  502 -0.00000000000E+00 -0.00000000000E+00 -0.25621313450E+03  0.25621313450E+03  0.00000000000E+00 0. -1.
         25    1    1    2    0    0  0.21079459103E+03  0.17776253073E+02  0.23601479092E+02  0.24684485937E+03  0.12500000000E+03 0.  0.
         21    1    1    2  503  502 -0.21079459103E+03 -0.17776253073E+02 -0.67217649922E+02  0.22196523881E+03  0.00000000000E+00 0.  1.
<mgrwt>
<rscale>  3 0.24571397E+03</rscale>
<asrwt>0</asrwt>
<pdfrwt beam="1">  1       21 0.32707225E-01 0.24571397E+03</pdfrwt>
<pdfrwt beam="2">  1       21 0.39417405E-01 0.24571397E+03</pdfrwt>
<totfact> 0.54541083E+04</totfact>
</mgrwt>
</event>
<event>
 4    0  0.1005289E-001  0.3356990E+03  0.7546771E-02  0.1068643E+00
         21   -1    0    0  502  501  0.00000000000E+00  0.00000000000E+00  0.26917161663E+03  0.26917161663E+03  0.00000000000E+00 0.  1.
         21   -1    0    0  503  502 -0.00000000000E+00 -0.00000000000E+00 -0.40257315290E+03  0.40257315290E+03  0.00000000000E+00 0. -1.
         25    1    1    2    0    0 -0.30617108023E+03  0.57689314029E+02 -0.13050108817E+03  0.36017262713E+03  0.12500000000E+03 0.  0.
         21    1    1    2  503  501  0.30617108023E+03 -0.57689314029E+02 -0.29004480977E+01  0.31157214240E+03  0.00000000000E+00 0.  1.
<mgrwt>
<rscale>  3 0.33569895E+03</rscale>
<asrwt>0</asrwt>
<pdfrwt beam="1">  1       21 0.41411018E-01 0.33569895E+03</pdfrwt>
<pdfrwt beam="2">  1       21 0.61934331E-01 0.33569895E+03</pdfrwt>
<totfact> 0.12641024E+04</totfact>
</mgrwt>
</event>
<event>
 4    0  0.1687297E-001  0.3854747E+03  0.7546771E-02  0.1048929E+00
         21   -1    0    0  502  501  0.00000000000E+00  0.00000000000E+00  0.39684232647E+03  0.39684232647E+03  0.00000000000E+00 0.  1.
         21   -1    0    0  503  502 -0.00000000000E+00 -0.00000000000E+00 -0.35470584736E+03  0.35470584736E+03  0.00000000000E+00 0.  1.
         25    1    1    2    0    0 -0.83439780792E+02  0.35496976308E+03  0.12021872618E+02  0.38566209970E+03  0.12500000000E+03 0.  0.
         21    1    1    2  503  501  0.83439780792E+02 -0.35496976308E+03  0.30114606492E+02  0.36588607413E+03  0.00000000000E+00 0.  1.
<mgrwt>
<rscale>  3 0.38547468E+03</rscale>
<asrwt>0</asrwt>
<pdfrwt beam="1">  1       21 0.61052666E-01 0.38547468E+03</pdfrwt>
<pdfrwt beam="2">  1       21 0.54570130E-01 0.38547468E+03</pdfrwt>
<totfact> 0.71692150E+03</totfact>
</mgrwt>
</event>
<event>
 4    0  0.1427773E-001  0.2564670E+03  0.7546771E-02  0.1109285E+00
         21   -1    0    0  502  501  0.00000000000E+00  0.00000000000E+00  0.40485317935E+03  0.40485317935E+03  0.00000000000E+00 0. -1.
         21   -1    0    0  503  502 -0.00000000000E+00 -0.00000000000E+00 -0.21485908345E+03  0.21485908345E+03  0.00000000000E+00 0. -1.
         25    1    1    2    0    0  0.22370653225E+03 -0.10280670557E+02 -0.80259271293E+02  0.26873193964E+03  0.12500000000E+03 0.  0.
         21    1    1    2  503  501 -0.22370653225E+03  0.10280670557E+02  0.27025336719E+03  0.35098032315E+03  0.00000000000E+00 0. -1.
<mgrwt>
<rscale>  3 0.25646697E+03</rscale>
<asrwt>0</asrwt>
<pdfrwt beam="1">  1       21 0.62285104E-01 0.25646697E+03</pdfrwt>
<pdfrwt beam="2">  1       21 0.33055244E-01 0.25646697E+03</pdfrwt>
<totfact> 0.20356098E+04</totfact>
</mgrwt>
</event>
<event>
 4    0  0.1814142E-001  0.2933182E+03  0.7546771E-02  0.1088629E+00
         21   -1    0    0  503  501  0.00000000000E+00  0.00000000000E+00  0.87112360644E+03  0.87112360644E+03  0.00000000000E+00 0.  1.
         21   -1    0    0  501  502 -0.00000000000E+00 -0.00000000000E+00 -0.25098463265E+03  0.25098463265E+03  0.00000000000E+00 0. -1.
         25    1    1    2    0    0 -0.21379963277E+03  0.15716316780E+03 -0.13412592712E+03  0.32252954688E+03  0.12500000000E+03 0.  0.
         21    1    1    2  503  502  0.21379963277E+03 -0.15716316780E+03  0.75426490091E+03  0.79957869221E+03  0.00000000000E+00 0.  1.
<mgrwt>
<rscale>  3 0.29331816E+03</rscale>
<asrwt>0</asrwt>
<pdfrwt beam="1">  1       21 0.13401901E+00 0.29331816E+03</pdfrwt>
<pdfrwt beam="2">  1       21 0.38613021E-01 0.29331816E+03</pdfrwt>
<totfact> 0.24004226E+03</totfact>
</mgrwt>
</event>
<event>
 4    0  0.1399381E-001  0.2931905E+03  0.7546771E-02  0.1088695E+00
         21   -1    0    0  503  501  0.00000000000E+00  0.00000000000E+00  0.79813590997E+03  0.79813590997E+03  0.00000000000E+00 0. -1.
         21   -1    0    0  501  502 -0.00000000000E+00 -0.00000000000E+00 -0.12706294356E+03  0.12706294356E+03  0.00000000000E+00 0. -1.
         25    1    1    2    0    0  0.72757879621E+02 -0.25503321416E+03  0.12617485276E+03  0.31918762952E+03  0.12500000000E+03 0.  0.
         21    1    1    2  503  502 -0.72757879621E+02  0.25503321416E+03  0.54489811365E+03  0.60601122401E+03  0.00000000000E+00 0. -1.
<mgrwt>
<rscale>  3 0.29319047E+03</rscale>
<asrwt>0</asrwt>
<pdfrwt beam="1">  1       21 0.12279014E+00 0.29319047E+03</pdfrwt>
<pdfrwt beam="2">  1       21 0.19548146E-01 0.29319047E+03</pdfrwt>
<totfact> 0.11325483E+04</totfact>
</mgrwt>
</event>
<event>
 4    0  0.1071103E-001  0.2491921E+03  0.7546771E-02  0.1113816E+00
         21   -1    0    0  502  501  0.00000000000E+00  0.00000000000E+00  0.11174396072E+04  0.11174396072E+04  0.00000000000E+00 0. -1.
         21   -1    0    0  503  502 -0.00000000000E+00 -0.00000000000E+00 -0.29934000424E+03  0.29934000424E+03  0.00000000000E+00 0. -1.
         25    1    1    2    0    0 -0.14887160899E+03 -0.15591324953E+03 -0.23459148194E+03  0.34224240056E+03  0.12500000000E+03 0.  0.
         21    1    1    2  503  501  0.14887160899E+03  0.15591324953E+03  0.10526910849E+04  0.10745372109E+04  0.00000000000E+00 0. -1.
<mgrwt>
<rscale>  3 0.24919209E+03</rscale>
<asrwt>0</asrwt>
<pdfrwt beam="1">  1       21 0.17191378E+00 0.24919209E+03</pdfrwt>
<pdfrwt beam="2">  1       21 0.46052309E-01 0.24919209E+03</pdfrwt>
<totfact> 0.88473956E+02</totfact>
</mgrwt>
</event>
<event>
 4    0  0.1005289E-001  0.3737742E+03  0.7546771E-02  0.1053259E+00
         21   -1    0    0  502  501  0.00000000000E+00  0.00000000000E+00  0.98884985429E+03  0.98884985429E+03  0.00000000000E+00 0.  1.
         21   -1    0    0  503  502 -0.00000000000E+00 -0.00000000000E+00 -0.16504295047E+03  0.16504295047E+03  0.00000000000E+00 0. -1.
         25    1    1    2    0    0 -0.33529049062E+03  0.10799267395E+03  0.16868840001E+03  0.41007670871E+03  0.12500000000E+03 0.  0.
         21    1    1    2  503  501  0.33529049062E+03 -0.10799267395E+03  0.65511850381E+03  0.74381609606E+03  0.00000000000E+00 0.  1.
<mgrwt>
<rscale>  3 0.37377417E+03</rscale>
<asrwt>0</asrwt>
<pdfrwt beam="1">  1       21 0.15213074E+00 0.37377417E+03</pdfrwt>
<pdfrwt beam="2">  1       21 0.25391224E-01 0.37377417E+03</pdfrwt>
<totfact> 0.37814473E+03</totfact>
</mgrwt>
</event>
<event>
 4    0  0.1569570E-001  0.4217840E+03  0.7546771E-02  0.1036487E+00
         21   -1    0    0  502  501  0.00000000000E+00  0.00000000000E+00  0.55458670935E+03  0.55458670935E+03  0.00000000000E+00 0.  1.
         21   -1    0    0  503  502 -0.00000000000E+00 -0.00000000000E+00 -0.30823505072E+03  0.30823505072E+03  0.00000000000E+00 0.  1.
         25    1    1    2    0    0  0.25499155625E+03 -0.31185896707E+03  0.15803462594E+03  0.45041830790E+03  0.12500000000E+03 0.  0.
         21    1    1    2  503  501 -0.25499155625E+03  0.31185896707E+03  0.88317032692E+02  0.41240345217E+03  0.00000000000E+00 0.  1.
<mgrwt>
<rscale>  3 0.42178396E+03</rscale>
<asrwt>0</asrwt>
<pdfrwt beam="1">  1       21 0.85321032E-01 0.42178396E+03</pdfrwt>
<pdfrwt beam="2">  1       21 0.47420777E-01 0.42178396E+03</pdfrwt>
<totfact> 0.44764693E+03</totfact>
</mgrwt>
</event>
<event>
 4    0  0.1454764E-001  0.2798095E+03  0.7546771E-02  0.1095793E+00
         21   -1    0    0  502  501  0.00000000000E+00  0.00000000000E+00  0.12832207789E+03  0.12832207789E+03  0.00000000000E+00 0.  1.
         21   -1    0    0  503  502 -0.00000000000E+00 -0.00000000000E+00 -0.89180581332E+03  0.89180581332E+03  0.00000000000E+00 0.  1.
         25    1    1    2    0    0 -0.12672473468E+03  0.21589162190E+03 -0.71137385575E+03  0.76442534850E+03  0.12500000000E+03 0.  0.
         21    1    1    2  503  501  0.12672473468E+03 -0.21589162190E+03 -0.52109879691E+02  0.25570254271E+03  0.00000000000E+00 0.  1.
<mgrwt>
<rscale>  3 0.27980949E+03</rscale>
<asrwt>0</asrwt>
<pdfrwt beam="1">  1       21 0.19741858E-01 0.27980949E+03</pdfrwt>
<pdfrwt beam="2">  1       21 0.13720090E+00 0.27980949E+03</pdfrwt>
<totfact> 0.84266386E+03</totfact>
</mgrwt>
</event>
<event>
 4    0  0.1005289E-001  0.3659614E+03  0.7546771E-02  0.1056248E+00
         21   -1    0    0  503  501  0.00000000000E+00  0.00000000000E+00  0.18371691133E+03  0.18371691133E+03  0.00000000000E+00 0.  1.
         21   -1    0    0  501  502 -0.00000000000E+00 -0.00000000000E+00 -0.87047094215E+03  0.87047094215E+03  0.00000000000E+00 0. -1.
         25    1    1    2    0    0  0.22356256165E+03  0.26138582080E+03 -0.59444700234E+03  0.69806518670E+03  0.12500000000E+03 0.  0.
         21    1    1    2  503  502 -0.22356256165E+03 -0.26138582080E+03 -0.92307028484E+02  0.35612266678E+03  0.00000000000E+00 0.  1.
<mgrwt>
<rscale>  3 0.36596143E+03</rscale>
<asrwt>0</asrwt>
<pdfrwt beam="1">  1       21 0.28264140E-01 0.36596143E+03</pdfrwt>
<pdfrwt beam="2">  1       21 0.13391861E+00 0.36596143E+03</pdfrwt>
<totfact> 0.43189917E+03</totfact>
</mgrwt>
</event>
<event>
 4    0  0.1005289E-001  0.2437065E+03  0.7546771E-02  0.1117348E+00
         21   -1    0    0  503  501  0.00000000000E+00  0.00000000000E+00  0.80258610442E+03  0.80258610442E+03  0.00000000000E+00 0.  1.
         21   -1    0    0  501  502 -0.00000000000E+00 -0.00000000000E+00 -0.66457679090E+02  0.66457679090E+02  0.00000000000E+00 0. -1.
         25    1    1    2    0    0 -0.84870931503E+02  0.19121921865E+03  0.48007553119E+03  0.53839147490E+03  0.12500000000E+03 0.  0.
         21    1    1    2  503  502  0.84870931503E+02 -0.19121921865E+03  0.25605289414E+03  0.33065230862E+03  0.00000000000E+00 0.  1.
<mgrwt>
<rscale>  3 0.24370651E+03</rscale>
<asrwt>0</asrwt>
<pdfrwt beam="1">  1       21 0.12347478E+00 0.24370651E+03</pdfrwt>
<pdfrwt beam="2">  1       21 0.10224259E-01 0.24370651E+03</pdfrwt>
<totfact> 0.37365223E+04</totfact>
</mgrwt>
</event>
<event>
 4    0  0.1005289E-001  0.3023440E+03  0.7546771E-02  0.1084075E+00
         21   -1    0    0  503  501  0.00000000000E+00  0.00000000000E+00  0.93118637798E+03  0.93118637798E+03  0.00000000000E+00 0. -1.
         21   -1    0    0  501  502 -0.00000000000E+00 -0.00000000000E+00 -0.11384932402E+03  0.11384932402E+03  0.00000000000E+00 0.  1.
         25    1    1    2    0    0 -0.15308066564E+03  0.22880824228E+03  0.18269035446E+03  0.35325297952E+03  0.12500000000E+03 0.  0.
         21    1    1    2  503  502  0.15308066564E+03 -0.22880824228E+03  0.63464669950E+03  0.69178272247E+03  0.00000000000E+00 0. -1.
<mgrwt>
<rscale>  3 0.30234401E+03</rscale>
<asrwt>0</asrwt>
<pdfrwt beam="1">  1       21 0.14325944E+00 0.30234401E+03</pdfrwt>
<pdfrwt beam="2">  1       21 0.17515281E-01 0.30234401E+03</pdfrwt>
<totfact> 0.93054502E+03</totfact>
</mgrwt>
</event>
<event>
 4    0  0.1485609E-001  0.2404916E+03  0.7546771E-02  0.1119466E+00
         21   -1    0    0  503  501  0.00000000000E+00  0.00000000000E+00  0.41820180723E+03  0.41820180723E+03  0.00000000000E+00 0.  1.
         21   -1    0    0  501  502 -0.00000000000E+00 -0.00000000000E+00 -0.11968469887E+03  0.11968469887E+03  0.00000000000E+00 0.  1.
         25    1    1    2    0    0 -0.20299722483E+03  0.31675792299E+02  0.13895455806E+03  0.27774916438E+03  0.12500000000E+03 0.  0.
         21    1    1    2  503  502  0.20299722483E+03 -0.31675792299E+02  0.15956255029E+03  0.26013734173E+03  0.00000000000E+00 0.  1.
<mgrwt>
<rscale>  3 0.24049164E+03</rscale>
<asrwt>0</asrwt>
<pdfrwt beam="1">  1       21 0.64338739E-01 0.24049164E+03</pdfrwt>
<pdfrwt beam="2">  1       21 0.18413031E-01 0.24049164E+03</pdfrwt>
<totfact> 0.58743118E+04</totfact>
</mgrwt>
</event>
<event>
 4    0  0.1402234E-001  0.2477504E+03  0.7546771E-02  0.1114735E+00
         21   -1    0    0  502  501  0.00000000000E+00  0.00000000000E+00  0.85011551514E+03  0.85011551514E+03  0.00000000000E+00 0.  1.
         21   -1    0    0  503  502 -0.00000000000E+00 -0.00000000000E+00 -0.62763878660E+02  0.62763878660E+02  0.00000000000E+00 0.  1.
         25    1    1    2    0    0 -0.15749219302E+03 -0.14474620591E+03  0.40541046104E+03  0.47511882399E+03  0.12500000000E+03 0.  0.
         21    1    1    2  503  501  0.15749219302E+03  0.14474620591E+03  0.38194117544E+03  0.43776056982E+03  0.00000000000E+00 0.  1.
<mgrwt>
<rscale>  3 0.24775039E+03</rscale>
<asrwt>0</asrwt>
<pdfrwt beam="1">  1       21 0.13078699E+00 0.24775039E+03</pdfrwt>
<pdfrwt beam="2">  1       21 0.96559820E-02 0.24775039E+03</pdfrwt>
<totfact> 0.35684092E+04</totfact>
</mgrwt>
</event>
<event>
 4    0  0.1132443E-001  0.2372310E+03  0.7546771E-02  0.1121651E+00
         21   -1    0    0  503  501  0.00000000000E+00  0.00000000000E+00  0.47924898074E+03  0.47924898074E+03  0.00000000000E+00 0. -1.
         21   -1    0    0  501  502 -0.00000000000E+00 -0.00000000000E+00 -0.10613475213E+03  0.10613475213E+03  0.00000000000E+00 0. -1.
         25    1    1    2    0    0  0.15049917364E+03  0.13417729144E+03  0.26830509630E+03  0.35814266920E+03  0.12500000000E+03 0.  0.
         21    1    1    2  503  502 -0.15049917364E+03 -0.13417729144E+03  0.10480913231E+03  0.22724106367E+03  0.00000000000E+00 0. -1.
<mgrwt>
<rscale>  3 0.23723100E+03</rscale>
<asrwt>0</asrwt>
<pdfrwt beam="1">  1       21 0.73730611E-01 0.23723100E+03</pdfrwt>
<pdfrwt beam="2">  1       21 0.16328424E-01 0.23723100E+03</pdfrwt>
<totfact> 0.54367271E+04</totfact>
</mgrwt>
</event>
<event>
 4    0  0.1329118E-001  0.2705294E+03  0.7546771E-02  0.1100977E+00
         21   -1    0    0  502  501  0.00000000000E+00  0.00000000000E+00  0.18265278534E+03  0.18265278534E+03  0.00000000000E+00 0. -1.
         21   -1    0    0  503  502 -0.00000000000E+00 -0.00000000000E+00 -0.69998198841E+03  0.69998198841E+03  0.00000000000E+00 0. -1.
         25    1    1    2    0    0 -0.10503419062E+03  0.21570581187E+03 -0.57536887360E+03  0.63579518650E+03  0.12500000000E+03 0.  0.
         21    1    1    2  503  501  0.10503419062E+03 -0.21570581187E+03  0.58039670529E+02  0.24683958724E+03  0.00000000000E+00 0. -1.
<mgrwt>
<rscale>  3 0.27052944E+03</rscale>
<asrwt>0</asrwt>
<pdfrwt beam="1">  1       21 0.28100429E-01 0.27052944E+03</pdfrwt>
<pdfrwt beam="2">  1       21 0.10768954E+00 0.27052944E+03</pdfrwt>
<totfact> 0.79136130E+03</totfact>
</mgrwt>
</event>
<event>
 4    0  0.1349070E-001  0.2661022E+03  0.7546771E-02  0.1103531E+00
         21   -1    0    0  502  501  0.00000000000E+00  0.00000000000E+00  0.89069628106E+03  0.89069628106E+03  0.00000000000E+00 0. -1.
         21   -1    0    0  503  502 -0.00000000000E+00 -0.00000000000E+00 -0.12078694258E+04  0.12078694258E+04  0.00000000000E+00 0.  1.
         25    1    1    2    0    0  0.37400554175E+02  0.23191936276E+03 -0.11772677009E+04  0.12069671213E+04  0.12500000000E+03 0.  0.
         21    1    1    2  503  501 -0.37400554175E+02 -0.23191936276E+03  0.86009455616E+03  0.89159858558E+03  0.00000000000E+00 0. -1.
<mgrwt>
<rscale>  3 0.26610222E+03</rscale>
<asrwt>0</asrwt>
<pdfrwt beam="1">  1       21 0.13703020E+00 0.26610222E+03</pdfrwt>
<pdfrwt beam="2">  1       21 0.18582607E+00 0.26610222E+03</pdfrwt>
<totfact> 0.57174124E+01</totfact>
</mgrwt>
</event>
<event>
 4    0  0.1718953E-001  0.2668118E+03  0.7546771E-02  0.1103118E+00
         21   -1    0    0  503  501  0.00000000000E+00  0.00000000000E+00  0.27131810070E+03  0.27131810070E+03  0.00000000000E+00 0.  1.
         21   -1    0    0  501  502 -0.00000000000E+00 -0.00000000000E+00 -0.23564404797E+03  0.23564404797E+03  0.00000000000E+00 0.  1.
         25    1    1    2    0    0  0.26202786587E+02 -0.23425825900E+03 -0.93770113489E+01  0.26697649012E+03  0.12500000000E+03 0.  0.
         21    1    1    2  503  502 -0.26202786587E+02  0.23425825900E+03  0.45051064079E+02  0.23998565855E+03  0.00000000000E+00 0.  1.
<mgrwt>
<rscale>  3 0.26681176E+03</rscale>
<asrwt>0</asrwt>
<pdfrwt beam="1">  1       21 0.41741246E-01 0.26681176E+03</pdfrwt>
<pdfrwt beam="2">  1       21 0.36252930E-01 0.26681176E+03</pdfrwt>
<totfact> 0.39198912E+04</totfact>
</mgrwt>
</event>
<event>
 4    0  0.1242026E-001  0.2381872E+03  0.7546771E-02  0.1121006E+00
         21   -1    0    0  502  501  0.00000000000E+00  0.00000000000E+00  0.61650463432E+02  0.61650463432E+02  0.00000000000E+00 0.  1.
         21   -1    0    0  503  502 -0.00000000000E+00 -0.00000000000E+00 -0.13002552596E+04  0.13002552596E+04  0.00000000000E+00 0.  1.
         25    1    1    2    0    0  0.20239902439E+02 -0.20173869026E+03 -0.10758776994E+04  0.11019282994E+04  0.12500000000E+03 0.  0.
         21    1    1    2  503  501 -0.20239902439E+02  0.20173869026E+03 -0.16272709670E+03  0.25997742364E+03  0.00000000000E+00 0.  1.
<mgrwt>
<rscale>  3 0.23818722E+03</rscale>
<asrwt>0</asrwt>
<pdfrwt beam="1">  1       21 0.94846880E-02 0.23818722E+03</pdfrwt>
<pdfrwt beam="2">  1       21 0.20003924E+00 0.23818722E+03</pdfrwt>
<totfact> 0.11545432E+04</totfact>
</mgrwt>
</event>
<event>
 4    0  0.1495463E-001  0.2360454E+03  0.7546771E-02  0.1122456E+00
         21   -1    0    0  502  501  0.00000000000E+00  0.00000000000E+00  0.94304540929E+02  0.94304540929E+02  0.00000000000E+00 0.  1.
         21   -1    0    0  503  502 -0.00000000000E+00 -0.00000000000E+00 -0.68464378828E+03  0.68464378828E+03  0.00000000000E+00 0.  1.
         25    1    1    2    0    0 -0.37329971129E+02 -0.19672042520E+03 -0.51226794011E+03  0.56403536671E+03  0.12500000000E+03 0.  0.
         21    1    1    2  503  501  0.37329971129E+02  0.19672042520E+03 -0.78071307239E+02  0.21491296250E+03  0.00000000000E+00 0.  1.
<mgrwt>
<rscale>  3 0.23604545E+03</rscale>
<asrwt>0</asrwt>
<pdfrwt beam="1">  1       21 0.14508391E-01 0.23604545E+03</pdfrwt>
<pdfrwt beam="2">  1       21 0.10532981E+00 0.23604545E+03</pdfrwt>
<totfact> 0.29518113E+04</totfact>
</mgrwt>
</event>
<event>
 4    0  0.1081792E-001  0.4548304E+03  0.7546771E-02  0.1026291E+00
         21   -1    0    0  502  501  0.00000000000E+00  0.00000000000E+00  0.18586881800E+04  0.18586881800E+04  0.00000000000E+00 0.  1.
         21   -1    0    0  503  502 -0.00000000000E+00 -0.00000000000E+00 -0.12154482606E+03  0.12154482606E+03  0.00000000000E+00 0.  1.
         25    1    1    2    0    0  0.43731123653E+03  0.21456659511E+01  0.54178492999E+03  0.70739072078E+03  0.12500000000E+03 0.  0.
         21    1    1    2  503  501 -0.43731123653E+03 -0.21456659511E+01  0.11953584239E+04  0.12728422853E+04  0.00000000000E+00 0.  1.
<mgrwt>
<rscale>  3 0.45483043E+03</rscale>
<asrwt>0</asrwt>
<pdfrwt beam="1">  1       21 0.28595201E+00 0.45483043E+03</pdfrwt>
<pdfrwt beam="2">  1       21 0.18699205E-01 0.45483043E+03</pdfrwt>
<totfact> 0.86846538E+02</totfact>
</mgrwt>
</event>
<event>
 4    0  0.1122540E-001  0.2513335E+03  0.7546771E-02  0.1112465E+00
         21   -1    0    0  503  501  0.00000000000E+00  0.00000000000E+00  0.27199427233E+03  0.27199427233E+03  0.00000000000E+00 0.  1.
         21   -1    0    0  501  502 -0.00000000000E+00 -0.00000000000E+00 -0.64034131196E+03  0.64034131196E+03  0.00000000000E+00 0.  1.
         25    1    1    2    0    0  0.19115216657E+03  0.10490165841E+03 -0.56520863637E+03  0.61857037703E+03  0.12500000000E+03 0.  0.
         21    1    1    2  503  502 -0.19115216657E+03 -0.10490165841E+03  0.19686159674E+03  0.29376520725E+03  0.00000000000E+00 0.  1.
<mgrwt>
<rscale>  3 0.25133346E+03</rscale>
<asrwt>0</asrwt>
<pdfrwt beam="1">  1       21 0.41845273E-01 0.25133346E+03</pdfrwt>
<pdfrwt beam="2">  1       21 0.98514047E-01 0.25133346E+03</pdfrwt>
<totfact> 0.44816756E+03</totfact>
</mgrwt>
</event>
<event>
 4    0  0.1631193E-001  0.2881215E+03  0.7546771E-02  0.1091334E+00
         21   -1    0    0  502  501  0.00000000000E+00  0.00000000000E+00  0.27316012542E+03  0.27316012542E+03  0.00000000000E+00 0. -1.
         21   -1    0    0  503  502 -0.00000000000E+00 -0.00000000000E+00 -0.27905781201E+03  0.27905781201E+03  0.00000000000E+00 0. -1.
         25    1    1    2    0    0 -0.88922065544E+02 -0.24388898522E+03 -0.38118670362E+02  0.29063207649E+03  0.12500000000E+03 0.  0.
         21    1    1    2  503  501  0.88922065544E+02  0.24388898522E+03  0.32220983775E+02  0.26158586095E+03  0.00000000000E+00 0. -1.
<mgrwt>
<rscale>  3 0.28812145E+03</rscale>
<asrwt>0</asrwt>
<pdfrwt beam="1">  1       21 0.42024635E-01 0.28812145E+03</pdfrwt>
<pdfrwt beam="2">  1       21 0.42931971E-01 0.28812145E+03</pdfrwt>
<totfact> 0.27180115E+04</totfact>
</mgrwt>
</event>
<event>
 4    0  0.1117174E-001  0.4847769E+03  0.7546771E-02  0.1017831E+00
         21   -1    0    0  503  501  0.00000000000E+00  0.00000000000E+00  0.44234465436E+03  0.44234465436E+03  0.00000000000E+00 0. -1.
         21   -1    0    0  501  502 -0.00000000000E+00 -0.00000000000E+00 -0.84814406836E+03  0.84814406836E+03  0.00000000000E+00 0.  1.
         25    1    1    2    0    0  0.42181618836E+03 -0.20360439186E+03 -0.61030061542E+03  0.77940713772E+03  0.12500000000E+03 0.  0.
         21    1    1    2  503  502 -0.42181618836E+03  0.20360439186E+03  0.20450120141E+03  0.51108158500E+03  0.00000000000E+00 0. -1.
<mgrwt>
<rscale>  3 0.48477690E+03</rscale>
<asrwt>0</asrwt>
<pdfrwt beam="1">  1       21 0.68053025E-01 0.48477690E+03</pdfrwt>
<pdfrwt beam="2">  1       21 0.13048370E+00 0.48477690E+03</pdfrwt>
<totfact> 0.70010470E+02</totfact>
</mgrwt>
</event>
<event>
 4    0  0.1457650E-001  0.3142994E+03  0.7546771E-02  0.1078303E+00
         21   -1    0    0  503  501  0.00000000000E+00  0.00000000000E+00  0.13180018809E+03  0.13180018809E+03  0.00000000000E+00 0. -1.
         21   -1    0    0  501  502 -0.00000000000E+00 -0.00000000000E+00 -0.68908307482E+03  0.68908307482E+03  0.00000000000E+00 0. -1.
         25    1    1    2    0    0  0.27064221134E+03 -0.99558485544E+02 -0.28489777384E+03  0.42420612931E+03  0.12500000000E+03 0.  0.
         21    1    1    2  503  502 -0.27064221134E+03  0.99558485544E+02 -0.27238511289E+03  0.39667713360E+03  0.00000000000E+00 0. -1.
<mgrwt>
<rscale>  3 0.31429938E+03</rscale>
<asrwt>0</asrwt>
<pdfrwt beam="1">  1       21 0.20276952E-01 0.31429938E+03</pdfrwt>
<pdfrwt beam="2">  1       21 0.10601278E+00 0.31429938E+03</pdfrwt>
<totfact> 0.15065524E+04</totfact>
</mgrwt>
</event>
<event>
 4    0  0.1287543E-001  0.3136904E+03  0.7546771E-02  0.1078590E+00
         21   -1    0    0  503  501  0.00000000000E+00  0.00000000000E+00  0.31829130353E+03  0.31829130353E+03  0.00000000000E+00 0.  1.
         21   -1    0    0  501  502 -0.00000000000E+00 -0.00000000000E+00 -0.54884292416E+03  0.54884292416E+03  0.00000000000E+00 0.  1.
         25    1    1    2    0    0  0.28401979703E+03 -0.45928723279E+02 -0.41884230198E+03  0.52328822522E+03  0.12500000000E+03 0.  0.
         21    1    1    2  503  502 -0.28401979703E+03  0.45928723279E+02  0.18829068135E+03  0.34384600247E+03  0.00000000000E+00 0.  1.
<mgrwt>
<rscale>  3 0.31369044E+03</rscale>
<asrwt>0</asrwt>
<pdfrwt beam="1">  1       21 0.48967894E-01 0.31369044E+03</pdfrwt>
<pdfrwt beam="2">  1       21 0.84437372E-01 0.31369044E+03</pdfrwt>
<totfact> 0.44856829E+03</totfact>
</mgrwt>
</event>
<event>
 4    0  0.1534206E-001  0.2405067E+03  0.7546771E-02  0.1119456E+00
         21   -1    0    0  503  501  0.00000000000E+00  0.00000000000E+00  0.24928194940E+03  0.24928194940E+03  0.00000000000E+00 0. -1.
         21   -1    0    0  501  502 -0.00000000000E+00 -0.00000000000E+00 -0.24274846578E+03  0.24274846578E+03  0.00000000000E+00 0. -1.
         25    1    1    2    0    0  0.20132069184E+03  0.41090545925E+02 -0.10013660790E+03  0.26052023754E+03  0.12500000000E+03 0.  0.
         21    1    1    2  503  502 -0.20132069184E+03 -0.41090545925E+02  0.10667009152E+03  0.23151017764E+03  0.00000000000E+00 0. -1.
<mgrwt>
<rscale>  3 0.24050666E+03</rscale>
<asrwt>0</asrwt>
<pdfrwt beam="1">  1       21 0.38351069E-01 0.24050666E+03</pdfrwt>
<pdfrwt beam="2">  1       21 0.37345918E-01 0.24050666E+03</pdfrwt>
<totfact> 0.44337905E+04</totfact>
</mgrwt>
</event>
<event>
 4    0  0.1286859E-001  0.2713341E+03  0.7546771E-02  0.1100518E+00
         21   -1    0    0  503  501  0.00000000000E+00  0.00000000000E+00  0.14774751549E+03  0.14774751549E+03  0.00000000000E+00 0. -1.
         21   -1    0    0  501  502 -0.00000000000E+00 -0.00000000000E+00 -0.48000065469E+03  0.48000065469E+03  0.00000000000E+00 0. -1.
         25    1    1    2    0    0 -0.24067268045E+03  0.85943217086E+01 -0.89274977326E+02  0.28564352445E+03  0.12500000000E+03 0.  0.
         21    1    1    2  503  502  0.24067268045E+03 -0.85943217086E+01 -0.24297816188E+03  0.34210464573E+03  0.00000000000E+00 0. -1.
<mgrwt>
<rscale>  3 0.27133411E+03</rscale>
<asrwt>0</asrwt>
<pdfrwt beam="1">  1       21 0.22730387E-01 0.27133411E+03</pdfrwt>
<pdfrwt beam="2">  1       21 0.73846254E-01 0.27133411E+03</pdfrwt>
<totfact> 0.28741867E+04</totfact>
</mgrwt>
</event>
<event>
 4    0  0.1005289E-001  0.3282636E+03  0.7546771E-02  0.1071908E+00
         21   -1    0    0  502  501  0.00000000000E+00  0.00000000000E+00  0.20804166147E+04  0.20804166147E+04  0.00000000000E+00 0. -1.
         21   -1    0    0  503  502 -0.00000000000E+00 -0.00000000000E+00 -0.76436154387E+02  0.76436154387E+02  0.00000000000E+00 0. -1.
         25    1    1    2    0    0  0.29506890784E+03  0.71178054208E+02  0.36876625704E+03  0.49370591257E+03  0.12500000000E+03 0.  0.
         21    1    1    2  503  501 -0.29506890784E+03 -0.71178054208E+02  0.16352142033E+04  0.16631468566E+04  0.00000000000E+00 0. -1.
<mgrwt>
<rscale>  3 0.32826358E+03</rscale>
<asrwt>0</asrwt>
<pdfrwt beam="1">  1       21 0.32006405E+00 0.32826358E+03</pdfrwt>
<pdfrwt beam="2">  1       21 0.11759410E-01 0.32826358E+03</pdfrwt>
<totfact> 0.13865380E+03</totfact>
</mgrwt>
</event>
<event>
 4    0  0.1516581E-001  0.2434705E+03  0.7546771E-02  0.1117502E+00
         21   -1    0    0  503  501  0.00000000000E+00  0.00000000000E+00  0.10108360992E+03  0.10108360992E+03  0.00000000000E+00 0.  1.
         21   -1    0    0  501  502 -0.00000000000E+00 -0.00000000000E+00 -0.69862719114E+03  0.69862719114E+03  0.00000000000E+00 0.  1.
         25    1    1    2    0    0 -0.11837638011E+03  0.17216245209E+03 -0.52471393660E+03  0.57844843551E+03  0.12500000000E+03 0.  0.
         21    1    1    2  503  502  0.11837638011E+03 -0.17216245209E+03 -0.72829644620E+02  0.22126236556E+03  0.00000000000E+00 0.  1.
<mgrwt>
<rscale>  3 0.24347049E+03</rscale>
<asrwt>0</asrwt>
<pdfrwt beam="1">  1       21 0.15551325E-01 0.24347049E+03</pdfrwt>
<pdfrwt beam="2">  1       21 0.10748111E+00 0.24347049E+03</pdfrwt>
<totfact> 0.24662963E+04</totfact>
</mgrwt>
</event>
<event>
 4    0  0.1496025E-001  0.3552588E+03  0.7546771E-02  0.1060477E+00
         21   -1    0    0  503  501  0.00000000000E+00  0.00000000000E+00  0.72207728905E+03  0.72207728905E+03  0.00000000000E+00 0. -1.
         21   -1    0    0  501  502 -0.00000000000E+00 -0.00000000000E+00 -0.62297279314E+03  0.62297279314E+03  0.00000000000E+00 0.  1.
         25    1    1    2    0    0  0.25908796916E+03  0.20846401216E+03 -0.52732278752E+03  0.63582870521E+03  0.12500000000E+03 0.  0.
         21    1    1    2  503  502 -0.25908796916E+03 -0.20846401216E+03  0.62642728343E+03  0.70922137697E+03  0.00000000000E+00 0. -1.
<mgrwt>
<rscale>  3 0.35525881E+03</rscale>
<asrwt>0</asrwt>
<pdfrwt beam="1">  1       21 0.11108881E+00 0.35525881E+03</pdfrwt>
<pdfrwt beam="2">  1       21 0.95841969E-01 0.35525881E+03</pdfrwt>
<totfact> 0.50792946E+02</totfact>
</mgrwt>
</event>
<event>
 4    0  0.1358158E-001  0.2436892E+03  0.7546771E-02  0.1117359E+00
         21   -1    0    0  503  501  0.00000000000E+00  0.00000000000E+00  0.19965714025E+03  0.19965714025E+03  0.00000000000E+00 0.  1.
         21   -1    0    0  501  502 -0.00000000000E+00 -0.00000000000E+00 -0.25838471084E+03  0.25838471084E+03  0.00000000000E+00 0.  1.
         25    1    1    2    0    0  0.20376688064E+03  0.47312806149E+02 -0.13771287098E+02  0.24407804411E+03  0.12500000000E+03 0.  0.
         21    1    1    2  503  502 -0.20376688064E+03 -0.47312806149E+02 -0.44956283487E+02  0.21396380697E+03  0.00000000000E+00 0.  1.
<mgrwt>
<rscale>  3 0.24368924E+03</rscale>
<asrwt>0</asrwt>
<pdfrwt beam="1">  1       21 0.30716483E-01 0.24368924E+03</pdfrwt>
<pdfrwt beam="2">  1       21 0.39751494E-01 0.24368924E+03</pdfrwt>
<totfact> 0.60733295E+04</totfact>
</mgrwt>
</event>
<event>
 4    0  0.1005289E-001  0.2643835E+03  0.7546771E-02  0.1104538E+00
         21   -1    0    0  502  501  0.00000000000E+00  0.00000000000E+00  0.15620190898E+03  0.15620190898E+03  0.00000000000E+00 0. -1.
         21   -1    0    0  503  502 -0.00000000000E+00 -0.00000000000E+00 -0.55094157604E+03  0.55094157604E+03  0.00000000000E+00 0.  1.
         25    1    1    2    0    0  0.13900908681E+02 -0.23255193991E+03 -0.39362690995E+03  0.47417379119E+03  0.12500000000E+03 0.  0.
         21    1    1    2  503  501 -0.13900908681E+02  0.23255193991E+03 -0.11127571127E+01  0.23296969383E+03  0.00000000000E+00 0. -1.
<mgrwt>
<rscale>  3 0.26438351E+03</rscale>
<asrwt>0</asrwt>
<pdfrwt beam="1">  1       21 0.24031063E-01 0.26438351E+03</pdfrwt>
<pdfrwt beam="2">  1       21 0.84760242E-01 0.26438351E+03</pdfrwt>
<totfact> 0.18942569E+04</totfact>
</mgrwt>
</event>
<event>
 4    0  0.1005289E-001  0.2493669E+03  0.7546771E-02  0.1113706E+00
         21   -1    0    0  502  501  0.00000000000E+00  0.00000000000E+00  0.10540083026E+04  0.10540083026E+04  0.00000000000E+00 0. -1.
         21   -1    0    0  503  502 -0.00000000000E+00 -0.00000000000E+00 -0.74567278242E+02  0.74567278242E+02  0.00000000000E+00 0.  1.
         25    1    1    2    0    0 -0.19390196474E+03 -0.94661823140E+02  0.19953632366E+03  0.31937216089E+03  0.12500000000E+03 0.  0.
         21    1    1    2  503  501  0.19390196474E+03  0.94661823140E+02  0.77990470072E+03  0.80920341998E+03  0.00000000000E+00 0. -1.
<mgrwt>
<rscale>  3 0.24936686E+03</rscale>
<asrwt>0</asrwt>
<pdfrwt beam="1">  1       21 0.16215511E+00 0.24936686E+03</pdfrwt>
<pdfrwt beam="2">  1       21 0.11471890E-01 0.24936686E+03</pdfrwt>
<totfact> 0.14871775E+04</totfact>
</mgrwt>
</event>
<event>
 4    0  0.1208863E-001  0.2396978E+03  0.7546771E-02  0.1119994E+00
         21   -1    0    0  503  501  0.00000000000E+00  0.00000000000E+00  0.11204423730E+04  0.11204423730E+04  0.00000000000E+00 0. -1.
         21   -1    0    0  501  502 -0.00000000000E+00 -0.00000000000E+00 -0.98426111909E+02  0.98426111909E+02  0.00000000000E+00 0. -1.
         25    1    1    2    0    0  0.19164152165E+03 -0.71439123234E+02  0.76684948278E+02  0.25166565606E+03  0.12500000000E+03 0.  0.
         21    1    1    2  503  502 -0.19164152165E+03  0.71439123234E+02  0.94533131281E+03  0.96720282884E+03  0.00000000000E+00 0. -1.
<mgrwt>
<rscale>  3 0.23969777E+03</rscale>
<asrwt>0</asrwt>
<pdfrwt beam="1">  1       21 0.17237574E+00 0.23969777E+03</pdfrwt>
<pdfrwt beam="2">  1       21 0.15142480E-01 0.23969777E+03</pdfrwt>
<totfact> 0.76406371E+03</totfact>
</mgrwt>
</event>
<event>
 4    0  0.1441893E-001  0.2829269E+03  0.7546771E-02  0.1094101E+00
         21   -1    0    0  503  501  0.00000000000E+00  0.00000000000E+00  0.98070381126E+02  0.98070381126E+02  0.00000000000E+00 0.  1.
         21   -1    0    0  501  502 -0.00000000000E+00 -0.00000000000E+00 -0.73593777681E+03  0.73593777681E+03  0.00000000000E+00 0.  1.
         25    1    1    2    0    0  0.16650579564E+03  0.19156843183E+03 -0.31718647547E+03  0.42503518005E+03  0.12500000000E+03 0.  0.
         21    1    1    2  503  502 -0.16650579564E+03 -0.19156843183E+03 -0.32068092022E+03  0.40897297789E+03  0.00000000000E+00 0.  1.
<mgrwt>
<rscale>  3 0.28292692E+03</rscale>
<asrwt>0</asrwt>
<pdfrwt beam="1">  1       21 0.15087751E-01 0.28292692E+03</pdfrwt>
<pdfrwt beam="2">  1       21 0.11322119E+00 0.28292692E+03</pdfrwt>
<totfact> 0.22541113E+04</totfact>
</mgrwt>
</event>
<event>
 4    0  0.1090242E-001  0.6932250E+03  0.7546771E-02  0.9728889E-01
         21   -1    0    0  503  501  0.00000000000E+00  0.00000000000E+00  0.42814511413E+03  0.42814511413E+03  0.00000000000E+00 0. -1.
         21   -1    0    0  501  502 -0.00000000000E+00 -0.00000000000E+00 -0.11784861381E+04  0.11784861381E+04  0.00000000000E+00 0. -1.
         25    1    1    2    0    0 -0.67587782402E+03 -0.90139511074E+02 -0.57988756356E+03  0.90378678394E+03  0.12500000000E+03 0.  0.
         21    1    1    2  503  502  0.67587782402E+03  0.90139511074E+02 -0.17045346042E+03  0.70284446830E+03  0.00000000000E+00 0. -1.
<mgrwt>
<rscale>  3 0.69322505E+03</rscale>
<asrwt>0</asrwt>
<pdfrwt beam="1">  1       21 0.65868480E-01 0.69322505E+03</pdfrwt>
<pdfrwt beam="2">  1       21 0.18130556E+00 0.69322505E+03</pdfrwt>
<totfact> 0.28085282E+02</totfact>
</mgrwt>
</event>
<event>
 4    0  0.1206355E-001  0.3688423E+03  0.7546771E-02  0.1055137E+00
         21   -1    0    0  503  501  0.00000000000E+00  0.00000000000E+00  0.10700639661E+03  0.10700639661E+03  0.00000000000E+00 0. -1.
         21   -1    0    0  501  502 -0.00000000000E+00 -0.00000000000E+00 -0.14088649987E+04  0.14088649987E+04  0.00000000000E+00 0. -1.
         25    1    1    2    0    0 -0.29906035962E+03 -0.17601849097E+03 -0.96142724795E+03  0.10297509218E+04  0.12500000000E+03 0.  0.
         21    1    1    2  503  502  0.29906035962E+03  0.17601849097E+03 -0.34043135410E+03  0.48612047346E+03  0.00000000000E+00 0. -1.
<mgrwt>
<rscale>  3 0.36884225E+03</rscale>
<asrwt>0</asrwt>
<pdfrwt beam="1">  1       21 0.16462524E-01 0.36884225E+03</pdfrwt>
<pdfrwt beam="2">  1       21 0.21674845E+00 0.36884225E+03</pdfrwt>
<totfact> 0.30688227E+03</totfact>
</mgrwt>
</event>
<event>
 4    0  0.1005289E-001  0.4464129E+03  0.7546771E-02  0.1028797E+00
         21   -1    0    0  503  501  0.00000000000E+00  0.00000000000E+00  0.60768840685E+03  0.60768840685E+03  0.00000000000E+00 0.  1.
         21   -1    0    0  501  502 -0.00000000000E+00 -0.00000000000E+00 -0.60838862797E+03  0.60838862797E+03  0.00000000000E+00 0.  1.
         25    1    1    2    0    0 -0.41628702375E+03 -0.10180672409E+03 -0.42258603518E+03  0.61470598853E+03  0.12500000000E+03 0.  0.
         21    1    1    2  503  502  0.41628702375E+03  0.10180672409E+03  0.42188581406E+03  0.60137104629E+03  0.00000000000E+00 0.  1.
<mgrwt>
<rscale>  3 0.44641292E+03</rscale>
<asrwt>0</asrwt>
<pdfrwt beam="1">  1       21 0.93490524E-01 0.44641292E+03</pdfrwt>
<pdfrwt beam="2">  1       21 0.93598251E-01 0.44641292E+03</pdfrwt>
<totfact> 0.78112695E+02</totfact>
</mgrwt>
</event>
<event>
 4    0  0.1152055E-001  0.3776802E+03  0.7546771E-02  0.1051794E+00
         21   -1    0    0  502  501  0.00000000000E+00  0.00000000000E+00  0.30219716346E+03  0.30219716346E+03  0.00000000000E+00 0.  1.
         21   -1    0    0  503  502 -0.00000000000E+00 -0.00000000000E+00 -0.73238476538E+03  0.73238476538E+03  0.00000000000E+00 0.  1.
         25    1    1    2    0    0  0.96196732571E+02  0.34316693813E+03 -0.54240023224E+03  0.66093900680E+03  0.12500000000E+03 0.  0.
         21    1    1    2  503  501 -0.96196732571E+02 -0.34316693813E+03  0.11221263032E+03  0.37364292203E+03  0.00000000000E+00 0.  1.
<mgrwt>
<rscale>  3 0.37768023E+03</rscale>
<asrwt>0</asrwt>
<pdfrwt beam="1">  1       21 0.46491872E-01 0.37768023E+03</pdfrwt>
<pdfrwt beam="2">  1       21 0.11267458E+00 0.37768023E+03</pdfrwt>
<totfact> 0.24301006E+03</totfact>
</mgrwt>
</event>
<event>
 4    0  0.1227906E-001  0.2904477E+03  0.7546771E-02  0.1090116E+00
         21   -1    0    0  503  501  0.00000000000E+00  0.00000000000E+00  0.10499488470E+04  0.10499488470E+04  0.00000000000E+00 0.  1.
         21   -1    0    0  501  502 -0.00000000000E+00 -0.00000000000E+00 -0.17581078933E+03  0.17581078933E+03  0.00000000000E+00 0.  1.
         25    1    1    2    0    0 -0.15008635417E+03  0.21496261007E+03 -0.22751107977E+02  0.29133734802E+03  0.12500000000E+03 0.  0.
         21    1    1    2  503  502  0.15008635417E+03 -0.21496261007E+03  0.89688916561E+03  0.93442228828E+03  0.00000000000E+00 0.  1.
<mgrwt>
<rscale>  3 0.29044765E+03</rscale>
<asrwt>0</asrwt>
<pdfrwt beam="1">  1       21 0.16153059E+00 0.29044765E+03</pdfrwt>
<pdfrwt beam="2">  1       21 0.27047814E-01 0.29044765E+03</pdfrwt>
<totfact> 0.29661687E+03</totfact>
</mgrwt>
</event>
<event>
 4    0  0.1649732E-001  0.3009246E+03  0.7546771E-02  0.1084779E+00
         21   -1    0    0  502  501  0.00000000000E+00  0.00000000000E+00  0.34865609186E+03  0.34865609186E+03  0.00000000000E+00 0. -1.
         21   -1    0    0  503  502 -0.00000000000E+00 -0.00000000000E+00 -0.25556921420E+03  0.25556921420E+03  0.00000000000E+00 0. -1.
         25    1    1    2    0    0 -0.12475019165E+03  0.24365549115E+03 -0.33225384109E+02  0.30275325735E+03  0.12500000000E+03 0.  0.
         21    1    1    2  503  501  0.12475019165E+03 -0.24365549115E+03  0.12631226176E+03  0.30147204871E+03  0.00000000000E+00 0. -1.
<mgrwt>
<rscale>  3 0.30092459E+03</rscale>
<asrwt>0</asrwt>
<pdfrwt beam="1">  1       21 0.53639399E-01 0.30092459E+03</pdfrwt>
<pdfrwt beam="2">  1       21 0.39318341E-01 0.30092459E+03</pdfrwt>
<totfact> 0.19438407E+04</totfact>
</mgrwt>
</event>
<event>
 4    0  0.1242713E-001  0.3296340E+03  0.7546771E-02  0.1071299E+00
         21   -1    0    0  503  501  0.00000000000E+00  0.00000000000E+00  0.20920429579E+03  0.20920429579E+03  0.00000000000E+00 0. -1.
         21   -1    0    0  501  502 -0.00000000000E+00 -0.00000000000E+00 -0.75540955770E+03  0.75540955770E+03  0.00000000000E+00 0. -1.
         25    1    1    2    0    0 -0.11727272275E+03 -0.28156828303E+03 -0.57023454859E+03  0.65865471221E+03  0.12500000000E+03 0.  0.
         21    1    1    2  503  502  0.11727272275E+03  0.28156828303E+03  0.24029286682E+02  0.30595914128E+03  0.00000000000E+00 0. -1.
<mgrwt>
<rscale>  3 0.32963402E+03</rscale>
<asrwt>0</asrwt>
<pdfrwt beam="1">  1       21 0.32185277E-01 0.32963402E+03</pdfrwt>
<pdfrwt beam="2">  1       21 0.11621685E+00 0.32963402E+03</pdfrwt>
<totfact> 0.48736344E+03</totfact>
</mgrwt>
</event>
<event>
 4    0  0.1005289E-001  0.3113958E+03  0.7546771E-02  0.1079679E+00
         21   -1    0    0  503  501  0.00000000000E+00  0.00000000000E+00  0.16882472462E+04  0.16882472462E+04  0.00000000000E+00 0. -1.
         21   -1    0    0  501  502 -0.00000000000E+00 -0.00000000000E+00 -0.10050381954E+03  0.10050381954E+03  0.00000000000E+00 0. -1.
         25    1    1    2    0    0 -0.26693278369E+03 -0.10044505151E+03  0.19568637761E+03  0.36777775594E+03  0.12500000000E+03 0.  0.
         21    1    1    2  503  502  0.26693278369E+03  0.10044505151E+03  0.13920570491E+04  0.14209733098E+04  0.00000000000E+00 0. -1.
<mgrwt>
<rscale>  3 0.31139576E+03</rscale>
<asrwt>0</asrwt>
<pdfrwt beam="1">  1       21 0.25973032E+00 0.31139576E+03</pdfrwt>
<pdfrwt beam="2">  1       21 0.15462127E-01 0.31139576E+03</pdfrwt>
<totfact> 0.19419957E+03</totfact>
</mgrwt>
</event>
<event>
 4    0  0.1206354E-001  0.2712046E+03  0.7546771E-02  0.1100592E+00
         21   -1    0    0  502  501  0.00000000000E+00  0.00000000000E+00  0.11444106575E+03  0.11444106575E+03  0.00000000000E+00 0.  1.
         21   -1    0    0  503  502 -0.00000000000E+00 -0.00000000000E+00 -0.11247451348E+04  0.11247451348E+04  0.00000000000E+00 0.  1.
         25    1    1    2    0    0  0.24034205984E+03 -0.12753497719E+02 -0.95428251689E+03  0.99207211405E+03  0.12500000000E+03 0.  0.
         21    1    1    2  503  501 -0.24034205984E+03  0.12753497719E+02 -0.56021552137E+02  0.24711408648E+03  0.00000000000E+00 0.  1.
<mgrwt>
<rscale>  3 0.27120464E+03</rscale>
<asrwt>0</asrwt>
<pdfrwt beam="1">  1       21 0.17606317E-01 0.27120464E+03</pdfrwt>
<pdfrwt beam="2">  1       21 0.17303772E+00 0.27120464E+03</pdfrwt>
<totfact> 0.56068671E+03</totfact>
</mgrwt>
</event>
<event>
 4    0  0.1005289E-001  0.2903772E+03  0.7546771E-02  0.1090152E+00
         21   -1    0    0  503  501  0.00000000000E+00  0.00000000000E+00  0.10037525613E+04  0.10037525613E+04  0.00000000000E+00 0. -1.
         21   -1    0    0  501  502 -0.00000000000E+00 -0.00000000000E+00 -0.10041532024E+03  0.10041532024E+03  0.00000000000E+00 0.  1.
         25    1    1    2    0    0 -0.13607471740E+03  0.22400358824E+03  0.19733129325E+03  0.35108200688E+03  0.12500000000E+03 0.  0.
         21    1    1    2  503  502  0.13607471740E+03 -0.22400358824E+03  0.70600594784E+03  0.75308587469E+03  0.00000000000E+00 0. -1.
<mgrwt>
<rscale>  3 0.29037723E+03</rscale>
<asrwt>0</asrwt>
<pdfrwt beam="1">  1       21 0.15442346E+00 0.29037723E+03</pdfrwt>
<pdfrwt beam="2">  1       21 0.15448511E-01 0.29037723E+03</pdfrwt>
<totfact> 0.96692438E+03</totfact>
</mgrwt>
</event>
<event>
 4    0  0.1526490E-001  0.2759481E+03  0.7546771E-02  0.1097923E+00
         21   -1    0    0  503  501  0.00000000000E+00  0.00000000000E+00  0.27827570712E+03  0.27827570712E+03  0.00000000000E+00 0. -1.
         21   -1    0    0  501  502 -0.00000000000E+00 -0.00000000000E+00 -0.37792198112E+03  0.37792198112E+03  0.00000000000E+00 0. -1.
         25    1    1    2    0    0 -0.31814742878E+02 -0.24394710847E+03 -0.24622328682E+03  0.36982871247E+03  0.12500000000E+03 0.  0.
         21    1    1    2  503  502  0.31814742878E+02  0.24394710847E+03  0.14657701282E+03  0.28636897577E+03  0.00000000000E+00 0. -1.
<mgrwt>
<rscale>  3 0.27594813E+03</rscale>
<asrwt>0</asrwt>
<pdfrwt beam="1">  1       21 0.42811648E-01 0.27594813E+03</pdfrwt>
<pdfrwt beam="2">  1       21 0.58141843E-01 0.27594813E+03</pdfrwt>
<totfact> 0.13887987E+04</totfact>
</mgrwt>
</event>
<event>
 4    0  0.1160961E-001  0.2474383E+03  0.7546771E-02  0.1114935E+00
         21   -1    0    0  502  501  0.00000000000E+00  0.00000000000E+00  0.40296025713E+03  0.40296025713E+03  0.00000000000E+00 0. -1.
         21   -1    0    0  503  502 -0.00000000000E+00 -0.00000000000E+00 -0.23687917735E+04  0.23687917735E+04  0.00000000000E+00 0.  1.
         25    1    1    2    0    0 -0.21270855923E+03 -0.18861576498E+02 -0.23334927863E+04  0.23465750092E+04  0.12500000000E+03 0.  0.
         21    1    1    2  503  501  0.21270855923E+03  0.18861576498E+02  0.36766126985E+03  0.42517702147E+03  0.00000000000E+00 0. -1.
<mgrwt>
<rscale>  3 0.24743826E+03</rscale>
<asrwt>0</asrwt>
<pdfrwt beam="1">  1       21 0.61993886E-01 0.24743826E+03</pdfrwt>
<pdfrwt beam="2">  1       21 0.36442950E+00 0.24743826E+03</pdfrwt>
<totfact> 0.31607964E+01</totfact>
</mgrwt>
</event>
<event>
 4    0  0.2381163E-001  0.2394391E+03  0.7546771E-02  0.1120167E+00
         21   -1    0    0  503  501  0.00000000000E+00  0.00000000000E+00  0.62193036731E+03  0.62193036731E+03  0.00000000000E+00 0.  1.
         21   -1    0    0  501  502 -0.00000000000E+00 -0.00000000000E+00 -0.56093939761E+03  0.56093939761E+03  0.00000000000E+00 0. -1.
         25    1    1    2    0    0  0.13684947479E+03  0.15158604016E+03 -0.51705763271E+03  0.56980672325E+03  0.12500000000E+03 0.  0.
         21    1    1    2  503  502 -0.13684947479E+03 -0.15158604016E+03  0.57804860240E+03  0.61306304167E+03  0.00000000000E+00 0.  1.
<mgrwt>
<rscale>  3 0.23943915E+03</rscale>
<asrwt>0</asrwt>
<pdfrwt beam="1">  1       21 0.95681595E-01 0.23943915E+03</pdfrwt>
<pdfrwt beam="2">  1       21 0.86298369E-01 0.23943915E+03</pdfrwt>
<totfact> 0.10098930E+03</totfact>
</mgrwt>
</event>
<event>
 4    0  0.1155196E-001  0.2600884E+03  0.7546771E-02  0.1107090E+00
         21   -1    0    0  503  501  0.00000000000E+00  0.00000000000E+00  0.84000776109E+03  0.84000776109E+03  0.00000000000E+00 0.  1.
         21   -1    0    0  501  502 -0.00000000000E+00 -0.00000000000E+00 -0.13223986676E+03  0.13223986676E+03  0.00000000000E+00 0.  1.
         25    1    1    2    0    0  0.19663999094E+03  0.11555827299E+03  0.35693971652E+02  0.26252630364E+03  0.12500000000E+03 0.  0.
         21    1    1    2  503  502 -0.19663999094E+03 -0.11555827299E+03  0.67207392268E+03  0.70972132421E+03  0.00000000000E+00 0.  1.
<mgrwt>
<rscale>  3 0.26008845E+03</rscale>
<asrwt>0</asrwt>
<pdfrwt beam="1">  1       21 0.12923196E+00 0.26008845E+03</pdfrwt>
<pdfrwt beam="2">  1       21 0.20344595E-01 0.26008845E+03</pdfrwt>
<totfact> 0.93869043E+03</totfact>
</mgrwt>
</event>
<event>
 4    0  0.1005289E-001  0.2395004E+03  0.7546771E-02  0.1120126E+00
         21   -1    0    0  503  501  0.00000000000E+00  0.00000000000E+00  0.78876012321E+03  0.78876012321E+03  0.00000000000E+00 0.  1.
         21   -1    0    0  501  502 -0.00000000000E+00 -0.00000000000E+00 -0.66679660837E+02  0.66679660837E+02  0.00000000000E+00 0. -1.
         25    1    1    2    0    0  0.20404307873E+03 -0.10092128030E+02  0.28012618966E+03  0.36855272507E+03  0.12500000000E+03 0.  0.
         21    1    1    2  503  502 -0.20404307873E+03  0.10092128030E+02  0.44195427271E+03  0.48688705897E+03  0.00000000000E+00 0.  1.
<mgrwt>
<rscale>  3 0.23950037E+03</rscale>
<asrwt>0</asrwt>
<pdfrwt beam="1">  1       21 0.12134770E+00 0.23950037E+03</pdfrwt>
<pdfrwt beam="2">  1       21 0.10258410E-01 0.23950037E+03</pdfrwt>
<totfact> 0.38876888E+04</totfact>
</mgrwt>
</event>
<event>
 4    0  0.1005289E-001  0.2471122E+03  0.7546771E-02  0.1115144E+00
         21   -1    0    0  503  501  0.00000000000E+00  0.00000000000E+00  0.58356640022E+03  0.58356640022E+03  0.00000000000E+00 0. -1.
         21   -1    0    0  501  502 -0.00000000000E+00 -0.00000000000E+00 -0.99450258242E+02  0.99450258242E+02  0.00000000000E+00 0.  1.
         25    1    1    2    0    0 -0.17360341071E+03  0.12369835517E+03  0.15764281954E+03  0.29311377626E+03  0.12500000000E+03 0.  0.
         21    1    1    2  503  502  0.17360341071E+03 -0.12369835517E+03  0.32647332244E+03  0.38990288220E+03  0.00000000000E+00 0. -1.
<mgrwt>
<rscale>  3 0.24711218E+03</rscale>
<asrwt>0</asrwt>
<pdfrwt beam="1">  1       21 0.89779444E-01 0.24711218E+03</pdfrwt>
<pdfrwt beam="2">  1       21 0.15300040E-01 0.24711218E+03</pdfrwt>
<totfact> 0.38925201E+04</totfact>
</mgrwt>
</event>
<event>
 4    0  0.1468747E-001  0.3076188E+03  0.7546771E-02  0.1081493E+00
         21   -1    0    0  503  501  0.00000000000E+00  0.00000000000E+00  0.22172353372E+03  0.22172353372E+03  0.00000000000E+00 0. -1.
         21   -1    0    0  501  502 -0.00000000000E+00 -0.00000000000E+00 -0.40615018297E+03  0.40615018297E+03  0.00000000000E+00 0. -1.
         25    1    1    2    0    0 -0.18301087650E+03 -0.21333384973E+03 -0.15726462633E+03  0.34548730086E+03  0.12500000000E+03 0.  0.
         21    1    1    2  503  502  0.18301087650E+03  0.21333384973E+03 -0.27162022922E+02  0.28238641584E+03  0.00000000000E+00 0. -1.
<mgrwt>
<rscale>  3 0.30761878E+03</rscale>
<asrwt>0</asrwt>
<pdfrwt beam="1">  1       21 0.34111313E-01 0.30761878E+03</pdfrwt>
<pdfrwt beam="2">  1       21 0.62484643E-01 0.30761878E+03</pdfrwt>
<totfact> 0.18574690E+04</totfact>
</mgrwt>
</event>
<event>
 4    0  0.1208836E-001  0.3685618E+03  0.7546771E-02  0.1055244E+00
         21   -1    0    0  502  501  0.00000000000E+00  0.00000000000E+00  0.11576723503E+04  0.11576723503E+04  0.00000000000E+00 0.  1.
         21   -1    0    0  503  502 -0.00000000000E+00 -0.00000000000E+00 -0.17846350488E+03  0.17846350488E+03  0.00000000000E+00 0.  1.
         25    1    1    2    0    0 -0.18696495261E+03  0.29198786603E+03  0.86664549927E+02  0.37861398763E+03  0.12500000000E+03 0.  0.
         21    1    1    2  503  501  0.18696495261E+03 -0.29198786603E+03  0.89254429550E+03  0.95752186756E+03  0.00000000000E+00 0.  1.
<mgrwt>
<rscale>  3 0.36856181E+03</rscale>
<asrwt>0</asrwt>
<pdfrwt beam="1">  1       21 0.17810343E+00 0.36856181E+03</pdfrwt>
<pdfrwt beam="2">  1       21 0.27455925E-01 0.36856181E+03</pdfrwt>
<totfact> 0.20949238E+03</totfact>
</mgrwt>
</event>
<event>
 4    0  0.1005289E-001  0.2428048E+03  0.7546771E-02  0.1117938E+00
         21   -1    0    0  502  501  0.00000000000E+00  0.00000000000E+00  0.79741906168E+02  0.79741906168E+02  0.00000000000E+00 0.  1.
         21   -1    0    0  503  502 -0.00000000000E+00 -0.00000000000E+00 -0.10472276412E+04  0.10472276412E+04  0.00000000000E+00 0.  1.
         25    1    1    2    0    0  0.19933840817E+03 -0.59944622156E+02 -0.15457797830E+03  0.28783417113E+03  0.12500000000E+03 0.  0.
         21    1    1    2  503  501 -0.19933840817E+03  0.59944622156E+02 -0.81290775669E+03  0.83913537619E+03  0.00000000000E+00 0.  1.
<mgrwt>
<rscale>  3 0.24280477E+03</rscale>
<asrwt>0</asrwt>
<pdfrwt beam="1">  1       21 0.12267986E-01 0.24280477E+03</pdfrwt>
<pdfrwt beam="2">  1       21 0.16111194E+00 0.24280477E+03</pdfrwt>
<totfact> 0.13468625E+04</totfact>
</mgrwt>
</event>
<event>
 4    0  0.1005289E-001  0.3544457E+03  0.7546771E-02  0.1060805E+00
         21   -1    0    0  502  501  0.00000000000E+00  0.00000000000E+00  0.70925872066E+03  0.70925872066E+03  0.00000000000E+00 0.  1.
         21   -1    0    0  503  502 -0.00000000000E+00 -0.00000000000E+00 -0.17112945262E+03  0.17112945262E+03  0.00000000000E+00 0. -1.
         25    1    1    2    0    0 -0.31556088661E+03  0.10211807082E+03  0.20105995933E+03  0.40750077398E+03  0.12500000000E+03 0.  0.
         21    1    1    2  503  501  0.31556088661E+03 -0.10211807082E+03  0.33706930871E+03  0.47288739930E+03  0.00000000000E+00 0.  1.
<mgrwt>
<rscale>  3 0.35444573E+03</rscale>
<asrwt>0</asrwt>
<pdfrwt beam="1">  1       21 0.10911672E+00 0.35444573E+03</pdfrwt>
<pdfrwt beam="2">  1       21 0.26327608E-01 0.35444573E+03</pdfrwt>
<totfact> 0.83668769E+03</totfact>
</mgrwt>
</event>
<event>
 4    0  0.1005289E-001  0.2763578E+03  0.7546771E-02  0.1097695E+00
         21   -1    0    0  503  501  0.00000000000E+00  0.00000000000E+00  0.80585058420E+03  0.80585058420E+03  0.00000000000E+00 0.  1.
         21   -1    0    0  501  502 -0.00000000000E+00 -0.00000000000E+00 -0.10425654121E+03  0.10425654121E+03  0.00000000000E+00 0. -1.
         25    1    1    2    0    0  0.13800407325E+03 -0.20421431800E+03  0.17079723502E+03  0.32487737286E+03  0.12500000000E+03 0.  0.
         21    1    1    2  503  502 -0.13800407325E+03  0.20421431800E+03  0.53079680797E+03  0.58522975254E+03  0.00000000000E+00 0.  1.
<mgrwt>
<rscale>  3 0.27635776E+03</rscale>
<asrwt>0</asrwt>
<pdfrwt beam="1">  1       21 0.12397701E+00 0.27635776E+03</pdfrwt>
<pdfrwt beam="2">  1       21 0.16039468E-01 0.27635776E+03</pdfrwt>
<totfact> 0.16109391E+04</totfact>
</mgrwt>
</event>
<event>
 4    0  0.1222659E-001  0.3032262E+03  0.7546771E-02  0.1083639E+00
         21   -1    0    0  502  501  0.00000000000E+00  0.00000000000E+00  0.14371187287E+04  0.14371187287E+04  0.00000000000E+00 0.  1.
         21   -1    0    0  503  502 -0.00000000000E+00 -0.00000000000E+00 -0.10199271159E+03  0.10199271159E+03  0.00000000000E+00 0.  1.
         25    1    1    2    0    0  0.25452406557E+03 -0.10741792844E+03  0.18265302488E+03  0.35398903769E+03  0.12500000000E+03 0.  0.
         21    1    1    2  503  501 -0.25452406557E+03  0.10741792844E+03  0.11524729923E+04  0.11851224026E+04  0.00000000000E+00 0.  1.
<mgrwt>
<rscale>  3 0.30322617E+03</rscale>
<asrwt>0</asrwt>
<pdfrwt beam="1">  1       21 0.22109518E+00 0.30322617E+03</pdfrwt>
<pdfrwt beam="2">  1       21 0.15691187E-01 0.30322617E+03</pdfrwt>
<totfact> 0.32709022E+03</totfact>
</mgrwt>
</event>
<event>
 4    0  0.1049589E-001  0.2582462E+03  0.7546771E-02  0.1108202E+00
         21   -1    0    0  502  501  0.00000000000E+00  0.00000000000E+00  0.23713423363E+03  0.23713423363E+03  0.00000000000E+00 0.  1.
         21   -1    0    0  503  502 -0.00000000000E+00 -0.00000000000E+00 -0.11246462714E+04  0.11246462714E+04  0.00000000000E+00 0.  1.
         25    1    1    2    0    0 -0.54520632487E+02 -0.21930255737E+03 -0.10513861315E+04  0.10826374779E+04  0.12500000000E+03 0.  0.
         21    1    1    2  503  501  0.54520632487E+02  0.21930255737E+03  0.16387409370E+03  0.27914302718E+03  0.00000000000E+00 0.  1.
<mgrwt>
<rscale>  3 0.25824622E+03</rscale>
<asrwt>0</asrwt>
<pdfrwt beam="1">  1       21 0.36482189E-01 0.25824622E+03</pdfrwt>
<pdfrwt beam="2">  1       21 0.17302251E+00 0.25824622E+03</pdfrwt>
<totfact> 0.13875928E+03</totfact>
</mgrwt>
</event>
<event>
 4    0  0.1111523E-001  0.3056796E+03  0.7546771E-02  0.1082435E+00
         21   -1    0    0  503  501  0.00000000000E+00  0.00000000000E+00  0.92765166792E+02  0.92765166792E+02  0.00000000000E+00 0. -1.
         21   -1    0    0  501  502 -0.00000000000E+00 -0.00000000000E+00 -0.10072475941E+04  0.10072475941E+04  0.00000000000E+00 0. -1.
         25    1    1    2    0    0  0.17041959546E+03  0.22084424682E+03 -0.31569007363E+03  0.43943172673E+03  0.12500000000E+03 0.  0.
         21    1    1    2  503  502 -0.17041959546E+03 -0.22084424682E+03 -0.59879235367E+03  0.66058103416E+03  0.00000000000E+00 0. -1.
<mgrwt>
<rscale>  3 0.30567960E+03</rscale>
<asrwt>0</asrwt>
<pdfrwt beam="1">  1       21 0.14271565E-01 0.30567960E+03</pdfrwt>
<pdfrwt beam="2">  1       21 0.15496116E+00 0.30567960E+03</pdfrwt>
<totfact> 0.10996238E+04</totfact>
</mgrwt>
</event>
<event>
 4    0  0.1005289E-001  0.2529626E+03  0.7546771E-02  0.1111447E+00
         21   -1    0    0  503  501  0.00000000000E+00  0.00000000000E+00  0.21939781347E+02  0.21939781347E+02  0.00000000000E+00 0. -1.
         21   -1    0    0  501  502 -0.00000000000E+00 -0.00000000000E+00 -0.27717789797E+04  0.27717789797E+04  0.00000000000E+00 0. -1.
         25    1    1    2    0    0  0.18888687391E+03  0.11263590350E+03 -0.18591627196E+04  0.18762931850E+04  0.12500000000E+03 0.  0.
         21    1    1    2  503  502 -0.18888687391E+03 -0.11263590350E+03 -0.89067647868E+03  0.91742557604E+03  0.00000000000E+00 0. -1.
<mgrwt>
<rscale>  3 0.25296264E+03</rscale>
<asrwt>0</asrwt>
<pdfrwt beam="1">  1       21 0.33753494E-02 0.25296264E+03</pdfrwt>
<pdfrwt beam="2">  1       21 0.42642773E+00 0.25296264E+03</pdfrwt>
<totfact> 0.28591253E+03</totfact>
</mgrwt>
</event>
<event>
 4    0  0.1005289E-001  0.2611705E+03  0.7546771E-02  0.1106442E+00
         21   -1    0    0  503  501  0.00000000000E+00  0.00000000000E+00  0.21941366754E+04  0.21941366754E+04  0.00000000000E+00 0.  1.
         21   -1    0    0  501  502 -0.00000000000E+00 -0.00000000000E+00 -0.51221992706E+03  0.51221992706E+03  0.00000000000E+00 0.  1.
         25    1    1    2    0    0 -0.12021632780E+03 -0.19527693627E+03 -0.47244331766E+03  0.53982657929E+03  0.12500000000E+03 0.  0.
         21    1    1    2  503  502  0.12021632780E+03  0.19527693627E+03  0.21543600660E+04  0.21665300232E+04  0.00000000000E+00 0.  1.
<mgrwt>
<rscale>  3 0.26117053E+03</rscale>
<asrwt>0</asrwt>
<pdfrwt beam="1">  1       21 0.33755948E+00 0.26117053E+03</pdfrwt>
<pdfrwt beam="2">  1       21 0.78803067E-01 0.26117053E+03</pdfrwt>
<totfact> 0.26356650E+01</totfact>
</mgrwt>
</event>
<event>
 4    0  0.1302757E-001  0.4258886E+03  0.7546771E-02  0.1035167E+00
         21   -1    0    0  503  501  0.00000000000E+00  0.00000000000E+00  0.39721167345E+03  0.39721167345E+03  0.00000000000E+00 0.  1.
         21   -1    0    0  501  502 -0.00000000000E+00 -0.00000000000E+00 -0.50789908949E+03  0.50789908949E+03  0.00000000000E+00 0.  1.
         25    1    1    2    0    0 -0.40569569812E+03 -0.34162996742E+02 -0.22576516929E+03  0.48202802977E+03  0.12500000000E+03 0.  0.
         21    1    1    2  503  502  0.40569569812E+03  0.34162996742E+02  0.11507775324E+03  0.42308273318E+03  0.00000000000E+00 0.  1.
<mgrwt>
<rscale>  3 0.42588861E+03</rscale>
<asrwt>0</asrwt>
<pdfrwt beam="1">  1       21 0.61109489E-01 0.42588861E+03</pdfrwt>
<pdfrwt beam="2">  1       21 0.78138321E-01 0.42588861E+03</pdfrwt>
<totfact> 0.31767773E+03</totfact>
</mgrwt>
</event>
<event>
 4    0  0.1360799E-001  0.2388791E+03  0.7546771E-02  0.1120542E+00
         21   -1    0    0  503  501  0.00000000000E+00  0.00000000000E+00  0.28862309509E+03  0.28862309509E+03  0.00000000000E+00 0.  1.
         21   -1    0    0  501  502 -0.00000000000E+00 -0.00000000000E+00 -0.52617719174E+03  0.52617719174E+03  0.00000000000E+00 0.  1.
         25    1    1    2    0    0  0.19322984135E+03 -0.64034848927E+02 -0.45688247700E+03  0.51556263563E+03  0.12500000000E+03 0.  0.
         21    1    1    2  503  502 -0.19322984135E+03  0.64034848927E+02  0.21932838035E+03  0.29923765120E+03  0.00000000000E+00 0.  1.
<mgrwt>
<rscale>  3 0.23887912E+03</rscale>
<asrwt>0</asrwt>
<pdfrwt beam="1">  1       21 0.44403553E-01 0.23887912E+03</pdfrwt>
<pdfrwt beam="2">  1       21 0.80950337E-01 0.23887912E+03</pdfrwt>
<totfact> 0.63149529E+03</totfact>
</mgrwt>
</event>
<event>
 4    0  0.1066569E-001  0.3379114E+03  0.7546771E-02  0.1067689E+00
         21   -1    0    0  503  501  0.00000000000E+00  0.00000000000E+00  0.69913506889E+02  0.69913506889E+02  0.00000000000E+00 0. -1.
         21   -1    0    0  501  502 -0.00000000000E+00 -0.00000000000E+00 -0.15706069152E+04  0.15706069152E+04  0.00000000000E+00 0. -1.
         25    1    1    2    0    0  0.10015714347E+03  0.29753593103E+03 -0.62905521206E+03  0.71406900469E+03  0.12500000000E+03 0.  0.
         21    1    1    2  503  502 -0.10015714347E+03 -0.29753593103E+03 -0.87163819629E+03  0.92645141744E+03  0.00000000000E+00 0. -1.
<mgrwt>
<rscale>  3 0.33791135E+03</rscale>
<asrwt>0</asrwt>
<pdfrwt beam="1">  1       21 0.10755924E-01 0.33791135E+03</pdfrwt>
<pdfrwt beam="2">  1       21 0.24163183E+00 0.33791135E+03</pdfrwt>
<totfact> 0.47546577E+03</totfact>
</mgrwt>
</event>
<event>
 4    0  0.1005289E-001  0.3721951E+03  0.7546771E-02  0.1053857E+00
         21   -1    0    0  502  501  0.00000000000E+00  0.00000000000E+00  0.23150360323E+04  0.23150360323E+04  0.00000000000E+00 0. -1.
         21   -1    0    0  503  502 -0.00000000000E+00 -0.00000000000E+00 -0.56715098709E+02  0.56715098709E+02  0.00000000000E+00 0. -1.
         25    1    1    2    0    0 -0.28393266740E+02  0.34942522442E+03  0.12491599092E+04  0.13034299536E+04  0.12500000000E+03 0.  0.
         21    1    1    2  503  501  0.28393266740E+02 -0.34942522442E+03  0.10091610243E+04  0.10683211774E+04  0.00000000000E+00 0. -1.
<mgrwt>
<rscale>  3 0.37219506E+03</rscale>
<asrwt>0</asrwt>
<pdfrwt beam="1">  1       21 0.35615932E+00 0.37219506E+03</pdfrwt>
<pdfrwt beam="2">  1       21 0.87254016E-02 0.37219506E+03</pdfrwt>
<totfact> 0.13890247E+03</totfact>
</mgrwt>
</event>
<event>
 4    0  0.1005289E-001  0.2532282E+03  0.7546771E-02  0.1111281E+00
         21   -1    0    0  503  501  0.00000000000E+00  0.00000000000E+00  0.18558551656E+03  0.18558551656E+03  0.00000000000E+00 0.  1.
         21   -1    0    0  501  502 -0.00000000000E+00 -0.00000000000E+00 -0.30196504719E+03  0.30196504719E+03  0.00000000000E+00 0. -1.
         25    1    1    2    0    0 -0.21960279311E+03 -0.16557772292E+02 -0.63026658481E+02  0.26095383930E+03  0.12500000000E+03 0.  0.
         21    1    1    2  503  502  0.21960279311E+03  0.16557772292E+02 -0.53352872141E+02  0.22659672445E+03  0.00000000000E+00 0.  1.
<mgrwt>
<rscale>  3 0.25322825E+03</rscale>
<asrwt>0</asrwt>
<pdfrwt beam="1">  1       21 0.28551618E-01 0.25322825E+03</pdfrwt>
<pdfrwt beam="2">  1       21 0.46456161E-01 0.25322825E+03</pdfrwt>
<totfact> 0.50697244E+04</totfact>
</mgrwt>
</event>
<event>
 4    0  0.1356596E-001  0.3908858E+03  0.7546771E-02  0.1046982E+00
         21   -1    0    0  502  501  0.00000000000E+00  0.00000000000E+00  0.99607119441E+03  0.99607119441E+03  0.00000000000E+00 0. -1.
         21   -1    0    0  503  502 -0.00000000000E+00 -0.00000000000E+00 -0.14819014446E+03  0.14819014446E+03  0.00000000000E+00 0. -1.
         25    1    1    2    0    0  0.57927655233E+02 -0.36580194472E+03  0.35732163526E+03  0.52959458742E+03  0.12500000000E+03 0.  0.
         21    1    1    2  503  501 -0.57927655233E+02  0.36580194472E+03  0.49055941469E+03  0.61466675145E+03  0.00000000000E+00 0. -1.
<mgrwt>
<rscale>  3 0.39088576E+03</rscale>
<asrwt>0</asrwt>
<pdfrwt beam="1">  1       21 0.15324172E+00 0.39088576E+03</pdfrwt>
<pdfrwt beam="2">  1       21 0.22798484E-01 0.39088576E+03</pdfrwt>
<totfact> 0.45310328E+03</totfact>
</mgrwt>
</event>
<event>
 4    0  0.1386886E-001  0.3121627E+03  0.7546771E-02  0.1079314E+00
         21   -1    0    0  503  501  0.00000000000E+00  0.00000000000E+00  0.13965887364E+03  0.13965887364E+03  0.00000000000E+00 0. -1.
         21   -1    0    0  501  502 -0.00000000000E+00 -0.00000000000E+00 -0.65254957926E+03  0.65254957926E+03  0.00000000000E+00 0. -1.
         25    1    1    2    0    0  0.11089265172E+03 -0.26367281193E+03 -0.21383751527E+03  0.37838078029E+03  0.12500000000E+03 0.  0.
         21    1    1    2  503  502 -0.11089265172E+03  0.26367281193E+03 -0.29905319035E+03  0.41382767261E+03  0.00000000000E+00 0. -1.
<mgrwt>
<rscale>  3 0.31216267E+03</rscale>
<asrwt>0</asrwt>
<pdfrwt beam="1">  1       21 0.21485980E-01 0.31216267E+03</pdfrwt>
<pdfrwt beam="2">  1       21 0.10039224E+00 0.31216267E+03</pdfrwt>
<totfact> 0.15420718E+04</totfact>
</mgrwt>
</event>
<event>
 4    0  0.1609719E-001  0.2715231E+03  0.7546771E-02  0.1100411E+00
         21   -1    0    0  502  501  0.00000000000E+00  0.00000000000E+00  0.10369389493E+04  0.10369389493E+04  0.00000000000E+00 0. -1.
         21   -1    0    0  503  502 -0.00000000000E+00 -0.00000000000E+00 -0.27392455658E+03  0.27392455658E+03  0.00000000000E+00 0.  1.
         25    1    1    2    0    0  0.19904822353E+03  0.13593973819E+03 -0.18768967180E+03  0.33007911265E+03  0.12500000000E+03 0.  0.
         21    1    1    2  503  501 -0.19904822353E+03 -0.13593973819E+03  0.95070406454E+03  0.98078439325E+03  0.00000000000E+00 0. -1.
<mgrwt>
<rscale>  3 0.27152313E+03</rscale>
<asrwt>0</asrwt>
<pdfrwt beam="1">  1       21 0.15952907E+00 0.27152313E+03</pdfrwt>
<pdfrwt beam="2">  1       21 0.42142240E-01 0.27152313E+03</pdfrwt>
<totfact> 0.12831333E+03</totfact>
</mgrwt>
</event>
<event>
 4    0  0.1712177E-001  0.2512251E+03  0.7546771E-02  0.1112533E+00
         21   -1    0    0  503  501  0.00000000000E+00  0.00000000000E+00  0.16564859449E+03  0.16564859449E+03  0.00000000000E+00 0.  1.
         21   -1    0    0  501  502 -0.00000000000E+00 -0.00000000000E+00 -0.34512362690E+03  0.34512362690E+03  0.00000000000E+00 0.  1.
         25    1    1    2    0    0 -0.83258280482E+01 -0.21776072974E+03 -0.14521756065E+03  0.29017614435E+03  0.12500000000E+03 0.  0.
         21    1    1    2  503  502  0.83258280482E+01  0.21776072974E+03 -0.34257471755E+02  0.22059607703E+03  0.00000000000E+00 0.  1.
<mgrwt>
<rscale>  3 0.25122511E+03</rscale>
<asrwt>0</asrwt>
<pdfrwt beam="1">  1       21 0.25484399E-01 0.25122511E+03</pdfrwt>
<pdfrwt beam="2">  1       21 0.53095943E-01 0.25122511E+03</pdfrwt>
<totfact> 0.47784429E+04</totfact>
</mgrwt>
</event>
<event>
 4    0  0.1069361E-001  0.2426412E+03  0.7546771E-02  0.1118046E+00
         21   -1    0    0  502  501  0.00000000000E+00  0.00000000000E+00  0.69892799048E+02  0.69892799048E+02  0.00000000000E+00 0. -1.
         21   -1    0    0  503  502 -0.00000000000E+00 -0.00000000000E+00 -0.12047588653E+04  0.12047588653E+04  0.00000000000E+00 0. -1.
         25    1    1    2    0    0 -0.20755248996E+03  0.13104567121E+02 -0.99468476204E+03  0.10238518162E+04  0.12500000000E+03 0.  0.
         21    1    1    2  503  501  0.20755248996E+03 -0.13104567121E+02 -0.14018130422E+03  0.25079984812E+03  0.00000000000E+00 0. -1.
<mgrwt>
<rscale>  3 0.24264123E+03</rscale>
<asrwt>0</asrwt>
<pdfrwt beam="1">  1       21 0.10752739E-01 0.24264123E+03</pdfrwt>
<pdfrwt beam="2">  1       21 0.18534751E+00 0.24264123E+03</pdfrwt>
<totfact> 0.11521159E+04</totfact>
</mgrwt>
</event>
<event>
 4    0  0.1005289E-001  0.2397094E+03  0.7546771E-02  0.1119987E+00
         21   -1    0    0  502  501  0.00000000000E+00  0.00000000000E+00  0.88430956548E+02  0.88430956548E+02  0.00000000000E+00 0.  1.
         21   -1    0    0  503  502 -0.00000000000E+00 -0.00000000000E+00 -0.55922560357E+03  0.55922560357E+03  0.00000000000E+00 0. -1.
         25    1    1    2    0    0 -0.19531932891E+03 -0.60711980259E+02 -0.26949283266E+03  0.36067571536E+03  0.12500000000E+03 0.  0.
         21    1    1    2  503  501  0.19531932891E+03  0.60711980259E+02 -0.20130181436E+03  0.28698084476E+03  0.00000000000E+00 0.  1.
<mgrwt>
<rscale>  3 0.23970938E+03</rscale>
<asrwt>0</asrwt>
<pdfrwt beam="1">  1       21 0.13604763E-01 0.23970938E+03</pdfrwt>
<pdfrwt beam="2">  1       21 0.86034708E-01 0.23970938E+03</pdfrwt>
<totfact> 0.53405292E+04</totfact>
</mgrwt>
</event>
<event>
 4    0  0.1247765E-001  0.3327398E+03  0.7546771E-02  0.1069931E+00
         21   -1    0    0  502  501  0.00000000000E+00  0.00000000000E+00  0.11226232600E+03  0.11226232600E+03  0.00000000000E+00 0.  1.
         21   -1    0    0  503  502 -0.00000000000E+00 -0.00000000000E+00 -0.11898729073E+04  0.11898729073E+04  0.00000000000E+00 0.  1.
         25    1    1    2    0    0  0.27577506894E+03  0.13798136953E+03 -0.86713779941E+03  0.92878614877E+03  0.12500000000E+03 0.  0.
         21    1    1    2  503  501 -0.27577506894E+03 -0.13798136953E+03 -0.21047278184E+03  0.37334908448E+03  0.00000000000E+00 0.  1.
<mgrwt>
<rscale>  3 0.33273976E+03</rscale>
<asrwt>0</asrwt>
<pdfrwt beam="1">  1       21 0.17271126E-01 0.33273976E+03</pdfrwt>
<pdfrwt beam="2">  1       21 0.18305739E+00 0.33273976E+03</pdfrwt>
<totfact> 0.47760441E+03</totfact>
</mgrwt>
</event>
<event>
 4    0  0.1148507E-001  0.2861754E+03  0.7546771E-02  0.1092363E+00
         21   -1    0    0  502  501  0.00000000000E+00  0.00000000000E+00  0.17787788137E+04  0.17787788137E+04  0.00000000000E+00 0.  1.
         21   -1    0    0  503  502 -0.00000000000E+00 -0.00000000000E+00 -0.55615741742E+02  0.55615741742E+02  0.00000000000E+00 0.  1.
         25    1    1    2    0    0 -0.21921299321E+03 -0.13497035751E+03  0.43453903308E+03  0.52030808669E+03  0.12500000000E+03 0.  0.
         21    1    1    2  503  501  0.21921299321E+03  0.13497035751E+03  0.12886240388E+04  0.13140864687E+04  0.00000000000E+00 0.  1.
<mgrwt>
<rscale>  3 0.28617535E+03</rscale>
<asrwt>0</asrwt>
<pdfrwt beam="1">  1       21 0.27365824E+00 0.28617535E+03</pdfrwt>
<pdfrwt beam="2">  1       21 0.85562693E-02 0.28617535E+03</pdfrwt>
<totfact> 0.47484752E+03</totfact>
</mgrwt>
</event>
<event>
 4    0  0.1420996E-001  0.2408691E+03  0.7546771E-02  0.1119215E+00
         21   -1    0    0  502  501  0.00000000000E+00  0.00000000000E+00  0.38448442268E+03  0.38448442268E+03  0.00000000000E+00 0.  1.
         21   -1    0    0  503  502 -0.00000000000E+00 -0.00000000000E+00 -0.14958048208E+03  0.14958048208E+03  0.00000000000E+00 0.  1.
         25    1    1    2    0    0  0.12110533708E+03  0.16651252786E+03  0.28541188385E+02  0.24255416722E+03  0.12500000000E+03 0.  0.
         21    1    1    2  503  501 -0.12110533708E+03 -0.16651252786E+03  0.20636275221E+03  0.29151073754E+03  0.00000000000E+00 0.  1.
<mgrwt>
<rscale>  3 0.24086910E+03</rscale>
<asrwt>0</asrwt>
<pdfrwt beam="1">  1       21 0.59151449E-01 0.24086910E+03</pdfrwt>
<pdfrwt beam="2">  1       21 0.23012382E-01 0.24086910E+03</pdfrwt>
<totfact> 0.46319412E+04</totfact>
</mgrwt>
</event>
<event>
 4    0  0.1428023E-001  0.2373946E+03  0.7546771E-02  0.1121541E+00
         21   -1    0    0  502  501  0.00000000000E+00  0.00000000000E+00  0.29332391974E+03  0.29332391974E+03  0.00000000000E+00 0. -1.
         21   -1    0    0  503  502 -0.00000000000E+00 -0.00000000000E+00 -0.34719954357E+03  0.34719954357E+03  0.00000000000E+00 0.  1.
         25    1    1    2    0    0 -0.14719491883E+03  0.13807547050E+03 -0.25998161754E+03  0.35206053619E+03  0.12500000000E+03 0.  0.
         21    1    1    2  503  501  0.14719491883E+03 -0.13807547050E+03  0.20610599370E+03  0.28846292712E+03  0.00000000000E+00 0. -1.
<mgrwt>
<rscale>  3 0.23739457E+03</rscale>
<asrwt>0</asrwt>
<pdfrwt beam="1">  1       21 0.45126757E-01 0.23739457E+03</pdfrwt>
<pdfrwt beam="2">  1       21 0.53415314E-01 0.23739457E+03</pdfrwt>
<totfact> 0.15222261E+04</totfact>
</mgrwt>
</event>
<event>
 4    0  0.1295473E-001  0.3114475E+03  0.7546771E-02  0.1079654E+00
         21   -1    0    0  502  501  0.00000000000E+00  0.00000000000E+00  0.46392500672E+03  0.46392500672E+03  0.00000000000E+00 0.  1.
         21   -1    0    0  503  502 -0.00000000000E+00 -0.00000000000E+00 -0.32804001762E+03  0.32804001762E+03  0.00000000000E+00 0.  1.
         25    1    1    2    0    0 -0.28330032853E+03 -0.33398538179E+02 -0.18529034760E+03  0.36239764267E+03  0.12500000000E+03 0.  0.
         21    1    1    2  503  501  0.28330032853E+03  0.33398538179E+02  0.32117533670E+03  0.42956738168E+03  0.00000000000E+00 0.  1.
<mgrwt>
<rscale>  3 0.31144749E+03</rscale>
<asrwt>0</asrwt>
<pdfrwt beam="1">  1       21 0.71373078E-01 0.31144749E+03</pdfrwt>
<pdfrwt beam="2">  1       21 0.50467695E-01 0.31144749E+03</pdfrwt>
<totfact> 0.61782570E+03</totfact>
</mgrwt>
</event>
<event>
 4    0  0.1420873E-001  0.2672918E+03  0.7546771E-02  0.1102840E+00
         21   -1    0    0  503  501  0.00000000000E+00  0.00000000000E+00  0.68951622486E+02  0.68951622486E+02  0.00000000000E+00 0. -1.
         21   -1    0    0  501  502 -0.00000000000E+00 -0.00000000000E+00 -0.10679656838E+04  0.10679656838E+04  0.00000000000E+00 0. -1.
         25    1    1    2    0    0 -0.72091685161E+02 -0.22499483661E+03 -0.73770392433E+03  0.78463492628E+03  0.12500000000E+03 0.  0.
         21    1    1    2  503  502  0.72091685161E+02  0.22499483661E+03 -0.26131013700E+03  0.35228238001E+03  0.00000000000E+00 0. -1.
<mgrwt>
<rscale>  3 0.26729176E+03</rscale>
<asrwt>0</asrwt>
<pdfrwt beam="1">  1       21 0.10607942E-01 0.26729176E+03</pdfrwt>
<pdfrwt beam="2">  1       21 0.16430241E+00 0.26729176E+03</pdfrwt>
<totfact> 0.16337964E+04</totfact>
</mgrwt>
</event>
<event>
 4    0  0.1005289E-001  0.2503027E+03  0.7546771E-02  0.1113114E+00
         21   -1    0    0  502  501  0.00000000000E+00  0.00000000000E+00  0.14607719612E+03  0.14607719612E+03  0.00000000000E+00 0.  1.
         21   -1    0    0  503  502 -0.00000000000E+00 -0.00000000000E+00 -0.46912592125E+03  0.46912592125E+03  0.00000000000E+00 0. -1.
         25    1    1    2    0    0 -0.15950636790E+03  0.14691556321E+03 -0.30932796349E+03  0.39791362519E+03  0.12500000000E+03 0.  0.
         21    1    1    2  503  501  0.15950636790E+03 -0.14691556321E+03 -0.13720761636E+02  0.21728949218E+03  0.00000000000E+00 0.  1.
<mgrwt>
<rscale>  3 0.25030274E+03</rscale>
<asrwt>0</asrwt>
<pdfrwt beam="1">  1       21 0.22473415E-01 0.25030274E+03</pdfrwt>
<pdfrwt beam="2">  1       21 0.72173219E-01 0.25030274E+03</pdfrwt>
<totfact> 0.31197667E+04</totfact>
</mgrwt>
</event>
<event>
 4    0  0.1523650E-001  0.2732021E+03  0.7546771E-02  0.1099461E+00
         21   -1    0    0  503  501  0.00000000000E+00  0.00000000000E+00  0.15640997758E+03  0.15640997758E+03  0.00000000000E+00 0.  1.
         21   -1    0    0  501  502 -0.00000000000E+00 -0.00000000000E+00 -0.42581311048E+03  0.42581311048E+03  0.00000000000E+00 0.  1.
         25    1    1    2    0    0  0.71549470864E+02 -0.23215312578E+03 -0.14474952258E+03  0.30917927627E+03  0.12500000000E+03 0.  0.
         21    1    1    2  503  502 -0.71549470864E+02  0.23215312578E+03 -0.12465361032E+03  0.27304381179E+03  0.00000000000E+00 0.  1.
<mgrwt>
<rscale>  3 0.27320212E+03</rscale>
<asrwt>0</asrwt>
<pdfrwt beam="1">  1       21 0.24063073E-01 0.27320212E+03</pdfrwt>
<pdfrwt beam="2">  1       21 0.65509710E-01 0.27320212E+03</pdfrwt>
<totfact> 0.33611922E+04</totfact>
</mgrwt>
</event>
<event>
 4    0  0.1005289E-001  0.2581837E+03  0.7546771E-02  0.1108239E+00
         21   -1    0    0  503  501  0.00000000000E+00  0.00000000000E+00  0.45301487699E+03  0.45301487699E+03  0.00000000000E+00 0.  1.
         21   -1    0    0  501  502 -0.00000000000E+00 -0.00000000000E+00 -0.14121845079E+03  0.14121845079E+03  0.00000000000E+00 0. -1.
         25    1    1    2    0    0  0.21874725182E+03 -0.56422122646E+02  0.79365368398E+02  0.27010678963E+03  0.12500000000E+03 0.  0.
         21    1    1    2  503  502 -0.21874725182E+03  0.56422122646E+02  0.23243105781E+03  0.32412653815E+03  0.00000000000E+00 0.  1.
<mgrwt>
<rscale>  3 0.25818369E+03</rscale>
<asrwt>0</asrwt>
<pdfrwt beam="1">  1       21 0.69694596E-01 0.25818369E+03</pdfrwt>
<pdfrwt beam="2">  1       21 0.21725916E-01 0.25818369E+03</pdfrwt>
<totfact> 0.35836301E+04</totfact>
</mgrwt>
</event>
<event>
 4    0  0.1399831E-001  0.2582906E+03  0.7546771E-02  0.1108175E+00
         21   -1    0    0  503  501  0.00000000000E+00  0.00000000000E+00  0.61666818900E+02  0.61666818900E+02  0.00000000000E+00 0.  1.
         21   -1    0    0  501  502 -0.00000000000E+00 -0.00000000000E+00 -0.12656492546E+04  0.12656492546E+04  0.00000000000E+00 0.  1.
         25    1    1    2    0    0 -0.21575621588E+02  0.22499677770E+03 -0.96250372890E+03  0.99655781848E+03  0.12500000000E+03 0.  0.
         21    1    1    2  503  502  0.21575621588E+02 -0.22499677770E+03 -0.24147870679E+03  0.33075825501E+03  0.00000000000E+00 0.  1.
<mgrwt>
<rscale>  3 0.25829065E+03</rscale>
<asrwt>0</asrwt>
<pdfrwt beam="1">  1       21 0.94872029E-02 0.25829065E+03</pdfrwt>
<pdfrwt beam="2">  1       21 0.19471527E+00 0.25829065E+03</pdfrwt>
<totfact> 0.12342425E+04</totfact>
</mgrwt>
</event>
<event>
 4    0  0.1362042E-001  0.3273511E+03  0.7546771E-02  0.1072315E+00
         21   -1    0    0  502  501  0.00000000000E+00  0.00000000000E+00  0.17149254119E+04  0.17149254119E+04  0.00000000000E+00 0. -1.
         21   -1    0    0  503  502 -0.00000000000E+00 -0.00000000000E+00 -0.20755692816E+03  0.20755692816E+03  0.00000000000E+00 0.  1.
         25    1    1    2    0    0 -0.16619085579E+03 -0.25281284398E+03 -0.54259242182E+02  0.33181741966E+03  0.12500000000E+03 0.  0.
         21    1    1    2  503  501  0.16619085579E+03  0.25281284398E+03  0.15616277259E+04  0.15906649204E+04  0.00000000000E+00 0. -1.
<mgrwt>
<rscale>  3 0.32735109E+03</rscale>
<asrwt>0</asrwt>
<pdfrwt beam="1">  1       21 0.26383467E+00 0.32735109E+03</pdfrwt>
<pdfrwt beam="2">  1       21 0.31931836E-01 0.32735109E+03</pdfrwt>
<totfact> 0.45343935E+02</totfact>
</mgrwt>
</event>
<event>
 4    0  0.1524123E-001  0.2903561E+03  0.7546771E-02  0.1090163E+00
         21   -1    0    0  503  501  0.00000000000E+00  0.00000000000E+00  0.54787403905E+03  0.54787403905E+03  0.00000000000E+00 0. -1.
         21   -1    0    0  501  502 -0.00000000000E+00 -0.00000000000E+00 -0.15411067948E+03  0.15411067948E+03  0.00000000000E+00 0. -1.
         25    1    1    2    0    0 -0.26192712858E+03  0.87077299267E+01  0.97143899994E+02  0.30617573802E+03  0.12500000000E+03 0.  0.
         21    1    1    2  503  502  0.26192712858E+03 -0.87077299267E+01  0.29661945957E+03  0.39580898050E+03  0.00000000000E+00 0. -1.
<mgrwt>
<rscale>  3 0.29035607E+03</rscale>
<asrwt>0</asrwt>
<pdfrwt beam="1">  1       21 0.84288313E-01 0.29035607E+03</pdfrwt>
<pdfrwt beam="2">  1       21 0.23709336E-01 0.29035607E+03</pdfrwt>
<totfact> 0.19464846E+04</totfact>
</mgrwt>
</event>
<event>
 4    0  0.1510088E-001  0.2523405E+03  0.7546771E-02  0.1111835E+00
         21   -1    0    0  503  501  0.00000000000E+00  0.00000000000E+00  0.73441183648E+02  0.73441183648E+02  0.00000000000E+00 0. -1.
         21   -1    0    0  501  502 -0.00000000000E+00 -0.00000000000E+00 -0.79087751149E+03  0.79087751149E+03  0.00000000000E+00 0. -1.
         25    1    1    2    0    0  0.21667960100E+03  0.33176296885E+02 -0.47218622051E+03  0.53538354757E+03  0.12500000000E+03 0.  0.
         21    1    1    2  503  502 -0.21667960100E+03 -0.33176296885E+02 -0.24525010733E+03  0.32893514758E+03  0.00000000000E+00 0. -1.
<mgrwt>
<rscale>  3 0.25234048E+03</rscale>
<asrwt>0</asrwt>
<pdfrwt beam="1">  1       21 0.11298644E-01 0.25234048E+03</pdfrwt>
<pdfrwt beam="2">  1       21 0.12167346E+00 0.25234048E+03</pdfrwt>
<totfact> 0.32305829E+04</totfact>
</mgrwt>
</event>
<event>
 4    0  0.1005289E-001  0.2616492E+03  0.7546771E-02  0.1106156E+00
         21   -1    0    0  502  501  0.00000000000E+00  0.00000000000E+00  0.31419212051E+03  0.31419212051E+03  0.00000000000E+00 0.  1.
         21   -1    0    0  503  502 -0.00000000000E+00 -0.00000000000E+00 -0.13331148583E+04  0.13331148583E+04  0.00000000000E+00 0.  1.
         25    1    1    2    0    0 -0.16905951219E+03  0.15573751175E+03 -0.12759440325E+04  0.13024950922E+04  0.12500000000E+03 0.  0.
         21    1    1    2  503  501  0.16905951219E+03 -0.15573751175E+03  0.25702129468E+03  0.34481188661E+03  0.00000000000E+00 0.  1.
<mgrwt>
<rscale>  3 0.26164918E+03</rscale>
<asrwt>0</asrwt>
<pdfrwt beam="1">  1       21 0.48337249E-01 0.26164918E+03</pdfrwt>
<pdfrwt beam="2">  1       21 0.20509460E+00 0.26164918E+03</pdfrwt>
<totfact> 0.47332062E+02</totfact>
</mgrwt>
</event>
<event>
 4    0  0.1311007E-001  0.2936542E+03  0.7546771E-02  0.1088457E+00
         21   -1    0    0  503  501  0.00000000000E+00  0.00000000000E+00  0.25488148501E+03  0.25488148501E+03  0.00000000000E+00 0. -1.
         21   -1    0    0  501  502 -0.00000000000E+00 -0.00000000000E+00 -0.60455885366E+03  0.60455885366E+03  0.00000000000E+00 0. -1.
         25    1    1    2    0    0 -0.18111253325E+03 -0.19443776193E+03 -0.48060256192E+03  0.56321542548E+03  0.12500000000E+03 0.  0.
         21    1    1    2  503  502  0.18111253325E+03  0.19443776193E+03  0.13092519328E+03  0.29622491320E+03  0.00000000000E+00 0. -1.
<mgrwt>
<rscale>  3 0.29365421E+03</rscale>
<asrwt>0</asrwt>
<pdfrwt beam="1">  1       21 0.39212537E-01 0.29365421E+03</pdfrwt>
<pdfrwt beam="2">  1       21 0.93009053E-01 0.29365421E+03</pdfrwt>
<totfact> 0.57240461E+03</totfact>
</mgrwt>
</event>
<event>
 4    0  0.1141263E-001  0.2395407E+03  0.7546771E-02  0.1120099E+00
         21   -1    0    0  503  501  0.00000000000E+00  0.00000000000E+00  0.16564591325E+04  0.16564591325E+04  0.00000000000E+00 0. -1.
         21   -1    0    0  501  502 -0.00000000000E+00 -0.00000000000E+00 -0.29774144265E+02  0.29774144265E+02  0.00000000000E+00 0. -1.
         25    1    1    2    0    0 -0.16069396999E+03 -0.12622273052E+03  0.90760862928E+03  0.93868693058E+03  0.12500000000E+03 0.  0.
         21    1    1    2  503  502  0.16069396999E+03  0.12622273052E+03  0.71907635896E+03  0.74754634620E+03  0.00000000000E+00 0. -1.
<mgrwt>
<rscale>  3 0.23954066E+03</rscale>
<asrwt>0</asrwt>
<pdfrwt beam="1">  1       21 0.25483979E+00 0.23954066E+03</pdfrwt>
<pdfrwt beam="2">  1       21 0.45806389E-02 0.23954066E+03</pdfrwt>
<totfact> 0.18697451E+04</totfact>
</mgrwt>
</event>
<event>
 4    0  0.1005289E-001  0.5622442E+03  0.7546771E-02  0.9986990E-01
         21   -1    0    0  503  501  0.00000000000E+00  0.00000000000E+00  0.58441504747E+03  0.58441504747E+03  0.00000000000E+00 0. -1.
         21   -1    0    0  501  502 -0.00000000000E+00 -0.00000000000E+00 -0.85312056234E+03  0.85312056234E+03  0.00000000000E+00 0. -1.
         25    1    1    2    0    0  0.27085635052E+03 -0.47658192682E+03 -0.57946713828E+03  0.80740365365E+03  0.12500000000E+03 0.  0.
         21    1    1    2  503  502 -0.27085635052E+03  0.47658192682E+03  0.31076162341E+03  0.63013195616E+03  0.00000000000E+00 0. -1.
<mgrwt>
<rscale>  3 0.56224416E+03</rscale>
<asrwt>0</asrwt>
<pdfrwt beam="1">  1       21 0.89910007E-01 0.56224416E+03</pdfrwt>
<pdfrwt beam="2">  1       21 0.13124932E+00 0.56224416E+03</pdfrwt>
<totfact> 0.35166058E+02</totfact>
</mgrwt>
</event>
<event>
 4    0  0.1005289E-001  0.3218012E+03  0.7546771E-02  0.1074823E+00
         21   -1    0    0  503  501  0.00000000000E+00  0.00000000000E+00  0.14166768039E+04  0.14166768039E+04  0.00000000000E+00 0. -1.
         21   -1    0    0  501  502 -0.00000000000E+00 -0.00000000000E+00 -0.12453208858E+03  0.12453208858E+03  0.00000000000E+00 0. -1.
         25    1    1    2    0    0  0.23882220019E+03 -0.17576973817E+03  0.13898320937E+03  0.35053156299E+03  0.12500000000E+03 0.  0.
         21    1    1    2  503  502 -0.23882220019E+03  0.17576973817E+03  0.11531615060E+04  0.11906773295E+04  0.00000000000E+00 0. -1.
<mgrwt>
<rscale>  3 0.32180125E+03</rscale>
<asrwt>0</asrwt>
<pdfrwt beam="1">  1       21 0.21795027E+00 0.32180125E+03</pdfrwt>
<pdfrwt beam="2">  1       21 0.19158784E-01 0.32180125E+03</pdfrwt>
<totfact> 0.23319491E+03</totfact>
</mgrwt>
</event>
<event>
 4    0  0.1131953E-001  0.2721378E+03  0.7546771E-02  0.1100062E+00
         21   -1    0    0  503  501  0.00000000000E+00  0.00000000000E+00  0.23320617021E+04  0.23320617021E+04  0.00000000000E+00 0. -1.
         21   -1    0    0  501  502 -0.00000000000E+00 -0.00000000000E+00 -0.15086741514E+03  0.15086741514E+03  0.00000000000E+00 0.  1.
         25    1    1    2    0    0  0.24160351204E+03  0.78569038385E+01 -0.15876159117E+02  0.27260051430E+03  0.12500000000E+03 0.  0.
         21    1    1    2  503  502 -0.24160351204E+03 -0.78569038385E+01  0.21970704461E+04  0.22103286030E+04  0.00000000000E+00 0. -1.
<mgrwt>
<rscale>  3 0.27213781E+03</rscale>
<asrwt>0</asrwt>
<pdfrwt beam="1">  1       21 0.35877870E+00 0.27213781E+03</pdfrwt>
<pdfrwt beam="2">  1       21 0.23210373E-01 0.27213781E+03</pdfrwt>
<totfact> 0.24262619E+02</totfact>
</mgrwt>
</event>
<event>
 4    0  0.1667010E-001  0.3505585E+03  0.7546771E-02  0.1062386E+00
         21   -1    0    0  502  501  0.00000000000E+00  0.00000000000E+00  0.19878699646E+03  0.19878699646E+03  0.00000000000E+00 0. -1.
         21   -1    0    0  503  502 -0.00000000000E+00 -0.00000000000E+00 -0.58503455616E+03  0.58503455616E+03  0.00000000000E+00 0. -1.
         25    1    1    2    0    0 -0.30081553852E+03  0.12952326194E+03 -0.24183085243E+03  0.42587958954E+03  0.12500000000E+03 0.  0.
         21    1    1    2  503  501  0.30081553852E+03 -0.12952326194E+03 -0.14441670727E+03  0.35794196308E+03  0.00000000000E+00 0. -1.
<mgrwt>
<rscale>  3 0.35055850E+03</rscale>
<asrwt>0</asrwt>
<pdfrwt beam="1">  1       21 0.30582616E-01 0.35055850E+03</pdfrwt>
<pdfrwt beam="2">  1       21 0.90005314E-01 0.35055850E+03</pdfrwt>
<totfact> 0.99279203E+03</totfact>
</mgrwt>
</event>
<event>
 4    0  0.1291889E-001  0.2365384E+03  0.7546771E-02  0.1122121E+00
         21   -1    0    0  502  501  0.00000000000E+00  0.00000000000E+00  0.82085786700E+03  0.82085786700E+03  0.00000000000E+00 0. -1.
         21   -1    0    0  503  502 -0.00000000000E+00 -0.00000000000E+00 -0.11773619554E+03  0.11773619554E+03  0.00000000000E+00 0.  1.
         25    1    1    2    0    0 -0.73864655319E+02  0.18673357375E+03  0.32754044348E+02  0.23879539839E+03  0.12500000000E+03 0.  0.
         21    1    1    2  503  501  0.73864655319E+02 -0.18673357375E+03  0.67036762711E+03  0.69979866415E+03  0.00000000000E+00 0. -1.
<mgrwt>
<rscale>  3 0.23653840E+03</rscale>
<asrwt>0</asrwt>
<pdfrwt beam="1">  1       21 0.12628582E+00 0.23653840E+03</pdfrwt>
<pdfrwt beam="2">  1       21 0.18113261E-01 0.23653840E+03</pdfrwt>
<totfact> 0.12537955E+04</totfact>
</mgrwt>
</event>
<event>
 4    0  0.1005289E-001  0.7211614E+03  0.7546771E-02  0.9681712E-01
         21   -1    0    0  503  501  0.00000000000E+00  0.00000000000E+00  0.37340828051E+03  0.37340828051E+03  0.00000000000E+00 0. -1.
         21   -1    0    0  501  502 -0.00000000000E+00 -0.00000000000E+00 -0.14239155402E+04  0.14239155402E+04  0.00000000000E+00 0. -1.
         25    1    1    2    0    0 -0.50885560318E+03 -0.49549450621E+03 -0.35714890456E+03  0.80475410568E+03  0.12500000000E+03 0.  0.
         21    1    1    2  503  502  0.50885560318E+03  0.49549450621E+03 -0.69335835515E+03  0.99256971505E+03  0.00000000000E+00 0. -1.
<mgrwt>
<rscale>  3 0.72116145E+03</rscale>
<asrwt>0</asrwt>
<pdfrwt beam="1">  1       21 0.57447428E-01 0.72116145E+03</pdfrwt>
<pdfrwt beam="2">  1       21 0.21906393E+00 0.72116145E+03</pdfrwt>
<totfact> 0.20880262E+02</totfact>
</mgrwt>
</event>
<event>
 4    0  0.1005289E-001  0.4017492E+03  0.7546771E-02  0.1043176E+00
         21   -1    0    0  503  501  0.00000000000E+00  0.00000000000E+00  0.35600792313E+03  0.35600792313E+03  0.00000000000E+00 0.  1.
         21   -1    0    0  501  502 -0.00000000000E+00 -0.00000000000E+00 -0.45610133964E+03  0.45610133964E+03  0.00000000000E+00 0. -1.
         25    1    1    2    0    0  0.17849673971E+03  0.33751488546E+03 -0.14620724898E+03  0.42752654145E+03  0.12500000000E+03 0.  0.
         21    1    1    2  503  502 -0.17849673971E+03 -0.33751488546E+03  0.46113832474E+02  0.38458272132E+03  0.00000000000E+00 0.  1.
<mgrwt>
<rscale>  3 0.40174916E+03</rscale>
<asrwt>0</asrwt>
<pdfrwt beam="1">  1       21 0.54770450E-01 0.40174916E+03</pdfrwt>
<pdfrwt beam="2">  1       21 0.70169436E-01 0.40174916E+03</pdfrwt>
<totfact> 0.51922719E+03</totfact>
</mgrwt>
</event>
<event>
 4    0  0.1386845E-001  0.2745920E+03  0.7546771E-02  0.1098680E+00
         21   -1    0    0  502  501  0.00000000000E+00  0.00000000000E+00  0.97735887395E+03  0.97735887395E+03  0.00000000000E+00 0.  1.
         21   -1    0    0  503  502 -0.00000000000E+00 -0.00000000000E+00 -0.91691956752E+02  0.91691956752E+02  0.00000000000E+00 0.  1.
         25    1    1    2    0    0  0.90333235161E+02  0.22719079970E+03  0.19610501260E+03  0.33742840546E+03  0.12500000000E+03 0.  0.
         21    1    1    2  503  501 -0.90333235161E+02 -0.22719079970E+03  0.68956190459E+03  0.73162242524E+03  0.00000000000E+00 0.  1.
<mgrwt>
<rscale>  3 0.27459198E+03</rscale>
<asrwt>0</asrwt>
<pdfrwt beam="1">  1       21 0.15036290E+00 0.27459198E+03</pdfrwt>
<pdfrwt beam="2">  1       21 0.14106456E-01 0.27459198E+03</pdfrwt>
<totfact> 0.12371919E+04</totfact>
</mgrwt>
</event>
<event>
 4    0  0.1491197E-001  0.2471207E+03  0.7546771E-02  0.1115138E+00
         21   -1    0    0  503  501  0.00000000000E+00  0.00000000000E+00  0.19843232535E+03  0.19843232535E+03  0.00000000000E+00 0.  1.
         21   -1    0    0  501  502 -0.00000000000E+00 -0.00000000000E+00 -0.37106924550E+03  0.37106924550E+03  0.00000000000E+00 0.  1.
         25    1    1    2    0    0 -0.96112959945E+02 -0.19027857709E+03 -0.24145022460E+03  0.34549507801E+03  0.12500000000E+03 0.  0.
         21    1    1    2  503  502  0.96112959945E+02  0.19027857709E+03  0.68813304447E+02  0.22400649285E+03  0.00000000000E+00 0.  1.
<mgrwt>
<rscale>  3 0.24712070E+03</rscale>
<asrwt>0</asrwt>
<pdfrwt beam="1">  1       21 0.30528050E-01 0.24712070E+03</pdfrwt>
<pdfrwt beam="2">  1       21 0.57087576E-01 0.24712070E+03</pdfrwt>
<totfact> 0.28873132E+04</totfact>
</mgrwt>
</event>
<event>
 4    0  0.1154705E-001  0.3862832E+03  0.7546771E-02  0.1048636E+00
         21   -1    0    0  503  501  0.00000000000E+00  0.00000000000E+00  0.42675090343E+03  0.42675090343E+03  0.00000000000E+00 0. -1.
         21   -1    0    0  501  502 -0.00000000000E+00 -0.00000000000E+00 -0.55501218816E+03  0.55501218816E+03  0.00000000000E+00 0. -1.
         25    1    1    2    0    0  0.36545955533E+03 -0.53878943526E+01 -0.37691364422E+03  0.53970233573E+03  0.12500000000E+03 0.  0.
         21    1    1    2  503  502 -0.36545955533E+03  0.53878943526E+01  0.24865235949E+03  0.44206075586E+03  0.00000000000E+00 0. -1.
<mgrwt>
<rscale>  3 0.38628321E+03</rscale>
<asrwt>0</asrwt>
<pdfrwt beam="1">  1       21 0.65653986E-01 0.38628321E+03</pdfrwt>
<pdfrwt beam="2">  1       21 0.85386490E-01 0.38628321E+03</pdfrwt>
<totfact> 0.22439388E+03</totfact>
</mgrwt>
</event>
<event>
 4    0  0.1761427E-001  0.3175682E+03  0.7546771E-02  0.1076774E+00
         21   -1    0    0  502  501  0.00000000000E+00  0.00000000000E+00  0.13707830994E+04  0.13707830994E+04  0.00000000000E+00 0.  1.
         21   -1    0    0  503  502 -0.00000000000E+00 -0.00000000000E+00 -0.46909189767E+03  0.46909189767E+03  0.00000000000E+00 0. -1.
         25    1    1    2    0    0 -0.29179729097E+03 -0.88844457278E+01 -0.39722098247E+03  0.50856081378E+03  0.12500000000E+03 0.  0.
         21    1    1    2  503  501  0.29179729097E+03  0.88844457278E+01  0.12989121842E+04  0.13313141833E+04  0.00000000000E+00 0.  1.
<mgrwt>
<rscale>  3 0.31756825E+03</rscale>
<asrwt>0</asrwt>
<pdfrwt beam="1">  1       21 0.21088971E+00 0.31756825E+03</pdfrwt>
<pdfrwt beam="2">  1       21 0.72167985E-01 0.31756825E+03</pdfrwt>
<totfact> 0.17392329E+02</totfact>
</mgrwt>
</event>
<event>
 4    0  0.1346691E-001  0.2551867E+03  0.7546771E-02  0.1110070E+00
         21   -1    0    0  503  501  0.00000000000E+00  0.00000000000E+00  0.53180425336E+03  0.53180425336E+03  0.00000000000E+00 0. -1.
         21   -1    0    0  501  502 -0.00000000000E+00 -0.00000000000E+00 -0.20573906980E+03  0.20573906980E+03  0.00000000000E+00 0.  1.
         25    1    1    2    0    0 -0.18687515645E+03  0.12071837156E+03 -0.85973018821E+02  0.26927979741E+03  0.12500000000E+03 0.  0.
         21    1    1    2  503  502  0.18687515645E+03 -0.12071837156E+03  0.41203820237E+03  0.46826352575E+03  0.00000000000E+00 0. -1.
<mgrwt>
<rscale>  3 0.25518670E+03</rscale>
<asrwt>0</asrwt>
<pdfrwt beam="1">  1       21 0.81816038E-01 0.25518670E+03</pdfrwt>
<pdfrwt beam="2">  1       21 0.31652165E-01 0.25518670E+03</pdfrwt>
<totfact> 0.12080892E+04</totfact>
</mgrwt>
</event>
<event>
 4    0  0.1308946E-001  0.3360648E+03  0.7546771E-02  0.1068484E+00
         21   -1    0    0  502  501  0.00000000000E+00  0.00000000000E+00  0.12200032958E+03  0.12200032958E+03  0.00000000000E+00 0.  1.
         21   -1    0    0  503  502 -0.00000000000E+00 -0.00000000000E+00 -0.86867275704E+03  0.86867275704E+03  0.00000000000E+00 0.  1.
         25    1    1    2    0    0 -0.31188569777E+03  0.64698163218E+01 -0.33909404658E+03  0.47741420111E+03  0.12500000000E+03 0.  0.
         21    1    1    2  503  501  0.31188569777E+03 -0.64698163218E+01 -0.40757838087E+03  0.51325888551E+03  0.00000000000E+00 0.  1.
<mgrwt>
<rscale>  3 0.33606480E+03</rscale>
<asrwt>0</asrwt>
<pdfrwt beam="1">  1       21 0.18769282E-01 0.33606480E+03</pdfrwt>
<pdfrwt beam="2">  1       21 0.13364196E+00 0.33606480E+03</pdfrwt>
<totfact> 0.96555168E+03</totfact>
</mgrwt>
</event>
<event>
 4    0  0.1242293E-001  0.3108904E+03  0.7546771E-02  0.1079920E+00
         21   -1    0    0  503  501  0.00000000000E+00  0.00000000000E+00  0.85592188446E+03  0.85592188446E+03  0.00000000000E+00 0.  1.
         21   -1    0    0  501  502 -0.00000000000E+00 -0.00000000000E+00 -0.18608238945E+03  0.18608238945E+03  0.00000000000E+00 0.  1.
         25    1    1    2    0    0 -0.28123482066E+03 -0.43986204234E+02 -0.35622548910E+01  0.31091075918E+03  0.12500000000E+03 0.  0.
         21    1    1    2  503  502  0.28123482066E+03  0.43986204234E+02  0.67340174990E+03  0.73109351473E+03  0.00000000000E+00 0.  1.
<mgrwt>
<rscale>  3 0.31089035E+03</rscale>
<asrwt>0</asrwt>
<pdfrwt beam="1">  1       21 0.13168029E+00 0.31089035E+03</pdfrwt>
<pdfrwt beam="2">  1       21 0.28628060E-01 0.31089035E+03</pdfrwt>
<totfact> 0.45167772E+03</totfact>
</mgrwt>
</event>
<event>
 4    0  0.1349086E-001  0.2434213E+03  0.7546771E-02  0.1117534E+00
         21   -1    0    0  503  501  0.00000000000E+00  0.00000000000E+00  0.83769540784E+03  0.83769540784E+03  0.00000000000E+00 0. -1.
         21   -1    0    0  501  502 -0.00000000000E+00 -0.00000000000E+00 -0.76195730740E+02  0.76195730740E+02  0.00000000000E+00 0. -1.
         25    1    1    2    0    0  0.14346053908E+01  0.20887050239E+03  0.20081731271E+03  0.31556542577E+03  0.12500000000E+03 0.  0.
         21    1    1    2  503  502 -0.14346053908E+01 -0.20887050239E+03  0.56068236439E+03  0.59832571280E+03  0.00000000000E+00 0. -1.
<mgrwt>
<rscale>  3 0.24342133E+03</rscale>
<asrwt>0</asrwt>
<pdfrwt beam="1">  1       21 0.12887621E+00 0.24342133E+03</pdfrwt>
<pdfrwt beam="2">  1       21 0.11722421E-01 0.24342133E+03</pdfrwt>
<totfact> 0.26266654E+04</totfact>
</mgrwt>
</event>
<event>
 4    0  0.1356713E-001  0.2680036E+03  0.7546771E-02  0.1102428E+00
         21   -1    0    0  502  501  0.00000000000E+00  0.00000000000E+00  0.38337598270E+03  0.38337598270E+03  0.00000000000E+00 0. -1.
         21   -1    0    0  503  502 -0.00000000000E+00 -0.00000000000E+00 -0.23507595135E+03  0.23507595135E+03  0.00000000000E+00 0. -1.
         25    1    1    2    0    0  0.80701865987E+02 -0.22290840249E+03 -0.89613695347E+02  0.28258903282E+03  0.12500000000E+03 0.  0.
         21    1    1    2  503  501 -0.80701865987E+02  0.22290840249E+03  0.23791372670E+03  0.33586290124E+03  0.00000000000E+00 0. -1.
<mgrwt>
<rscale>  3 0.26800363E+03</rscale>
<asrwt>0</asrwt>
<pdfrwt beam="1">  1       21 0.58980921E-01 0.26800363E+03</pdfrwt>
<pdfrwt beam="2">  1       21 0.36165531E-01 0.26800363E+03</pdfrwt>
<totfact> 0.19042497E+04</totfact>
</mgrwt>
</event>
<event>
 4    0  0.1005289E-001  0.2430371E+03  0.7546771E-02  0.1117786E+00
         21   -1    0    0  503  501  0.00000000000E+00  0.00000000000E+00  0.31189942026E+04  0.31189942026E+04  0.00000000000E+00 0.  1.
         21   -1    0    0  501  502 -0.00000000000E+00 -0.00000000000E+00 -0.32247994413E+02  0.32247994413E+02  0.00000000000E+00 0.  1.
         25    1    1    2    0    0 -0.38187666109E+02 -0.20489927549E+03  0.49821307872E+03  0.55433138351E+03  0.12500000000E+03 0.  0.
         21    1    1    2  503  502  0.38187666109E+02  0.20489927549E+03  0.25885331294E+04  0.25969108135E+04  0.00000000000E+00 0.  1.
<mgrwt>
<rscale>  3 0.24303706E+03</rscale>
<asrwt>0</asrwt>
<pdfrwt beam="1">  1       21 0.47984503E+00 0.24303706E+03</pdfrwt>
<pdfrwt beam="2">  1       21 0.49612323E-02 0.24303706E+03</pdfrwt>
<totfact> 0.66230149E+02</totfact>
</mgrwt>
</event>
<event>
 4    0  0.1527986E-001  0.2685222E+03  0.7546771E-02  0.1102128E+00
         21   -1    0    0  503  501  0.00000000000E+00  0.00000000000E+00  0.55441304145E+03  0.55441304145E+03  0.00000000000E+00 0. -1.
         21   -1    0    0  501  502 -0.00000000000E+00 -0.00000000000E+00 -0.28129976371E+03  0.28129976371E+03  0.00000000000E+00 0.  1.
         25    1    1    2    0    0 -0.15587940095E+03  0.17939004924E+03 -0.18054519555E+03  0.32357494502E+03  0.12500000000E+03 0.  0.
         21    1    1    2  503  502  0.15587940095E+03 -0.17939004924E+03  0.45365847328E+03  0.51213786014E+03  0.00000000000E+00 0. -1.
<mgrwt>
<rscale>  3 0.26852221E+03</rscale>
<asrwt>0</asrwt>
<pdfrwt beam="1">  1       21 0.85294314E-01 0.26852221E+03</pdfrwt>
<pdfrwt beam="2">  1       21 0.43276887E-01 0.26852221E+03</pdfrwt>
<totfact> 0.58030540E+03</totfact>
</mgrwt>
</event>
<event>
 4    0  0.1404085E-001  0.2409453E+03  0.7546771E-02  0.1119165E+00
         21   -1    0    0  502  501  0.00000000000E+00  0.00000000000E+00  0.15873624731E+03  0.15873624731E+03  0.00000000000E+00 0. -1.
         21   -1    0    0  503  502 -0.00000000000E+00 -0.00000000000E+00 -0.38053159538E+03  0.38053159538E+03  0.00000000000E+00 0. -1.
         25    1    1    2    0    0  0.10685062507E+03  0.17610396047E+03 -0.23002918651E+03  0.33311872901E+03  0.12500000000E+03 0.  0.
         21    1    1    2  503  501 -0.10685062507E+03 -0.17610396047E+03  0.82338384437E+01  0.20614911367E+03  0.00000000000E+00 0. -1.
<mgrwt>
<rscale>  3 0.24094535E+03</rscale>
<asrwt>0</asrwt>
<pdfrwt beam="1">  1       21 0.24420961E-01 0.24094535E+03</pdfrwt>
<pdfrwt beam="2">  1       21 0.58543322E-01 0.24094535E+03</pdfrwt>
<totfact> 0.42282169E+04</totfact>
</mgrwt>
</event>
<event>
 4    0  0.1409900E-001  0.3616864E+03  0.7546771E-02  0.1057918E+00
         21   -1    0    0  502  501  0.00000000000E+00  0.00000000000E+00  0.26770450155E+03  0.26770450155E+03  0.00000000000E+00 0.  1.
         21   -1    0    0  503  502 -0.00000000000E+00 -0.00000000000E+00 -0.48944173794E+03  0.48944173794E+03  0.00000000000E+00 0.  1.
         25    1    1    2    0    0 -0.31505133250E+03 -0.12623266844E+03 -0.20851957043E+03  0.41748944890E+03  0.12500000000E+03 0.  0.
         21    1    1    2  503  501  0.31505133250E+03  0.12623266844E+03 -0.13217665957E+02  0.33965679058E+03  0.00000000000E+00 0.  1.
<mgrwt>
<rscale>  3 0.36168637E+03</rscale>
<asrwt>0</asrwt>
<pdfrwt beam="1">  1       21 0.41185308E-01 0.36168637E+03</pdfrwt>
<pdfrwt beam="2">  1       21 0.75298728E-01 0.36168637E+03</pdfrwt>
<totfact> 0.81885774E+03</totfact>
</mgrwt>
</event>
<event>
 4    0  0.1410645E-001  0.2837566E+03  0.7546771E-02  0.1093655E+00
         21   -1    0    0  502  501  0.00000000000E+00  0.00000000000E+00  0.70688939113E+03  0.70688939113E+03  0.00000000000E+00 0. -1.
         21   -1    0    0  503  502 -0.00000000000E+00 -0.00000000000E+00 -0.10265030720E+03  0.10265030720E+03  0.00000000000E+00 0. -1.
         25    1    1    2    0    0 -0.25315044808E+03  0.28419055716E+02  0.33072031474E+03  0.43576796426E+03  0.12500000000E+03 0.  0.
         21    1    1    2  503  501  0.25315044808E+03 -0.28419055716E+02  0.27351876918E+03  0.37377173407E+03  0.00000000000E+00 0. -1.
<mgrwt>
<rscale>  3 0.28375657E+03</rscale>
<asrwt>0</asrwt>
<pdfrwt beam="1">  1       21 0.10875221E+00 0.28375657E+03</pdfrwt>
<pdfrwt beam="2">  1       21 0.15792355E-01 0.28375657E+03</pdfrwt>
<totfact> 0.22867262E+04</totfact>
</mgrwt>
</event>
<event>
 4    0  0.1189194E-001  0.3901670E+03  0.7546771E-02  0.1047239E+00
         21   -1    0    0  502  501  0.00000000000E+00  0.00000000000E+00  0.88315184563E+03  0.88315184563E+03  0.00000000000E+00 0. -1.
         21   -1    0    0  503  502 -0.00000000000E+00 -0.00000000000E+00 -0.21926931928E+03  0.21926931928E+03  0.00000000000E+00 0. -1.
         25    1    1    2    0    0  0.20633749567E+03 -0.30664336553E+03  0.60490140632E+02  0.39482828275E+03  0.12500000000E+03 0.  0.
         21    1    1    2  503  501 -0.20633749567E+03  0.30664336553E+03  0.60339238571E+03  0.70759288216E+03  0.00000000000E+00 0. -1.
<mgrwt>
<rscale>  3 0.39016704E+03</rscale>
<asrwt>0</asrwt>
<pdfrwt beam="1">  1       21 0.13586951E+00 0.39016704E+03</pdfrwt>
<pdfrwt beam="2">  1       21 0.33733742E-01 0.39016704E+03</pdfrwt>
<totfact> 0.28961277E+03</totfact>
</mgrwt>
</event>
<event>
 4    0  0.1168837E-001  0.2413464E+03  0.7546771E-02  0.1118899E+00
         21   -1    0    0  502  501  0.00000000000E+00  0.00000000000E+00  0.61924234714E+03  0.61924234714E+03  0.00000000000E+00 0.  1.
         21   -1    0    0  503  502 -0.00000000000E+00 -0.00000000000E+00 -0.12770738492E+03  0.12770738492E+03  0.00000000000E+00 0. -1.
         25    1    1    2    0    0 -0.11017867085E+03  0.17459592392E+03  0.32371833124E+02  0.24350772419E+03  0.12500000000E+03 0.  0.
         21    1    1    2  503  501  0.11017867085E+03 -0.17459592392E+03  0.45916312910E+03  0.50344200787E+03  0.00000000000E+00 0.  1.
<mgrwt>
<rscale>  3 0.24134638E+03</rscale>
<asrwt>0</asrwt>
<pdfrwt beam="1">  1       21 0.95268051E-01 0.24134638E+03</pdfrwt>
<pdfrwt beam="2">  1       21 0.19647290E-01 0.24134638E+03</pdfrwt>
<totfact> 0.21364133E+04</totfact>
</mgrwt>
</event>
<event>
 4    0  0.1594157E-001  0.2506448E+03  0.7546771E-02  0.1112898E+00
         21   -1    0    0  503  501  0.00000000000E+00  0.00000000000E+00  0.30478086032E+03  0.30478086032E+03  0.00000000000E+00 0. -1.
         21   -1    0    0  501  502 -0.00000000000E+00 -0.00000000000E+00 -0.22221928104E+03  0.22221928104E+03  0.00000000000E+00 0. -1.
         25    1    1    2    0    0 -0.11036912463E+03 -0.18712687333E+03 -0.71528731204E+02  0.26065143349E+03  0.12500000000E+03 0.  0.
         21    1    1    2  503  502  0.11036912463E+03  0.18712687333E+03  0.15409031049E+03  0.26634870787E+03  0.00000000000E+00 0. -1.
<mgrwt>
<rscale>  3 0.25064479E+03</rscale>
<asrwt>0</asrwt>
<pdfrwt beam="1">  1       21 0.46889363E-01 0.25064479E+03</pdfrwt>
<pdfrwt beam="2">  1       21 0.34187582E-01 0.25064479E+03</pdfrwt>
<totfact> 0.34903011E+04</totfact>
</mgrwt>
</event>
<event>
 4    0  0.1005289E-001  0.2833301E+03  0.7546771E-02  0.1093884E+00
         21   -1    0    0  502  501  0.00000000000E+00  0.00000000000E+00  0.14479190414E+04  0.14479190414E+04  0.00000000000E+00 0.  1.
         21   -1    0    0  503  502 -0.00000000000E+00 -0.00000000000E+00 -0.13358572775E+03  0.13358572775E+03  0.00000000000E+00 0.  1.
         25    1    1    2    0    0 -0.18627949270E+03  0.17306334081E+03  0.44910222983E+02  0.28686738654E+03  0.12500000000E+03 0.  0.
         21    1    1    2  503  501  0.18627949270E+03 -0.17306334081E+03  0.12694230906E+04  0.12946373826E+04  0.00000000000E+00 0.  1.
<mgrwt>
<rscale>  3 0.28333014E+03</rscale>
<asrwt>0</asrwt>
<pdfrwt beam="1">  1       21 0.22275677E+00 0.28333014E+03</pdfrwt>
<pdfrwt beam="2">  1       21 0.20551651E-01 0.28333014E+03</pdfrwt>
<totfact> 0.19560102E+03</totfact>
</mgrwt>
</event>
<event>
 4    0  0.1522993E-001  0.2872836E+03  0.7546771E-02  0.1091776E+00
         21   -1    0    0  502  501  0.00000000000E+00  0.00000000000E+00  0.93688342593E+03  0.93688342593E+03  0.00000000000E+00 0.  1.
         21   -1    0    0  503  502 -0.00000000000E+00 -0.00000000000E+00 -0.10507981398E+03  0.10507981398E+03  0.00000000000E+00 0.  1.
         25    1    1    2    0    0  0.25725884718E+03 -0.26921081971E+02  0.17579865707E+03  0.33680413734E+03  0.12500000000E+03 0.  0.
         21    1    1    2  503  501 -0.25725884718E+03  0.26921081971E+02  0.65600495488E+03  0.70515910257E+03  0.00000000000E+00 0.  1.
<mgrwt>
<rscale>  3 0.28728359E+03</rscale>
<asrwt>0</asrwt>
<pdfrwt beam="1">  1       21 0.14413591E+00 0.28728359E+03</pdfrwt>
<pdfrwt beam="2">  1       21 0.16166126E-01 0.28728359E+03</pdfrwt>
<totfact> 0.10705291E+04</totfact>
</mgrwt>
</event>
<event>
 4    0  0.1005289E-001  0.3623608E+03  0.7546771E-02  0.1057653E+00
         21   -1    0    0  502  501  0.00000000000E+00  0.00000000000E+00  0.21935838932E+04  0.21935838932E+04  0.00000000000E+00 0. -1.
         21   -1    0    0  503  502 -0.00000000000E+00 -0.00000000000E+00 -0.13864859288E+03  0.13864859288E+03  0.00000000000E+00 0. -1.
         25    1    1    2    0    0 -0.33924347916E+03  0.24375746573E+02  0.14182978290E+03  0.38912851667E+03  0.12500000000E+03 0.  0.
         21    1    1    2  503  501  0.33924347916E+03 -0.24375746573E+02  0.19131055174E+04  0.19431039694E+04  0.00000000000E+00 0. -1.
<mgrwt>
<rscale>  3 0.36236075E+03</rscale>
<asrwt>0</asrwt>
<pdfrwt beam="1">  1       21 0.33747442E+00 0.36236075E+03</pdfrwt>
<pdfrwt beam="2">  1       21 0.21330554E-01 0.36236075E+03</pdfrwt>
<totfact> 0.35207373E+02</totfact>
</mgrwt>
</event>
<event>
 4    0  0.1349595E-001  0.2585356E+03  0.7546771E-02  0.1108026E+00
         21   -1    0    0  503  501  0.00000000000E+00  0.00000000000E+00  0.16490396501E+03  0.16490396501E+03  0.00000000000E+00 0. -1.
         21   -1    0    0  501  502 -0.00000000000E+00 -0.00000000000E+00 -0.60947893899E+03  0.60947893899E+03  0.00000000000E+00 0. -1.
         25    1    1    2    0    0 -0.61515585846E+02  0.21778768404E+03 -0.48011642322E+03  0.54530030484E+03  0.12500000000E+03 0.  0.
         21    1    1    2  503  502  0.61515585846E+02 -0.21778768404E+03  0.35541449239E+02  0.22908259915E+03  0.00000000000E+00 0. -1.
<mgrwt>
<rscale>  3 0.25853557E+03</rscale>
<asrwt>0</asrwt>
<pdfrwt beam="1">  1       21 0.25369840E-01 0.25853557E+03</pdfrwt>
<pdfrwt beam="2">  1       21 0.93765993E-01 0.25853557E+03</pdfrwt>
<totfact> 0.13529546E+04</totfact>
</mgrwt>
</event>
<event>
 4    0  0.1749030E-001  0.2477770E+03  0.7546771E-02  0.1114718E+00
         21   -1    0    0  502  501  0.00000000000E+00  0.00000000000E+00  0.92098210543E+02  0.92098210543E+02  0.00000000000E+00 0. -1.
         21   -1    0    0  503  502 -0.00000000000E+00 -0.00000000000E+00 -0.58094342993E+03  0.58094342993E+03  0.00000000000E+00 0. -1.
         25    1    1    2    0    0 -0.75278803046E+02  0.20025366299E+03 -0.28325550841E+03  0.37633377575E+03  0.12500000000E+03 0.  0.
         21    1    1    2  503  501  0.75278803046E+02 -0.20025366299E+03 -0.20558971098E+03  0.29670786473E+03  0.00000000000E+00 0. -1.
<mgrwt>
<rscale>  3 0.24777697E+03</rscale>
<asrwt>0</asrwt>
<pdfrwt beam="1">  1       21 0.14168955E-01 0.24777697E+03</pdfrwt>
<pdfrwt beam="2">  1       21 0.89375913E-01 0.24777697E+03</pdfrwt>
<totfact> 0.45254492E+04</totfact>
</mgrwt>
</event>
<event>
 4    0  0.1005289E-001  0.2610574E+03  0.7546771E-02  0.1106510E+00
         21   -1    0    0  502  501  0.00000000000E+00  0.00000000000E+00  0.10209862289E+04  0.10209862289E+04  0.00000000000E+00 0.  1.
         21   -1    0    0  503  502 -0.00000000000E+00 -0.00000000000E+00 -0.59379183126E+02  0.59379183126E+02  0.00000000000E+00 0. -1.
         25    1    1    2    0    0  0.10100469666E+03 -0.20572797406E+03  0.46086924901E+03  0.52967104201E+03  0.12500000000E+03 0.  0.
         21    1    1    2  503  501 -0.10100469666E+03  0.20572797406E+03  0.50073779673E+03  0.55069436999E+03  0.00000000000E+00 0.  1.
<mgrwt>
<rscale>  3 0.26105737E+03</rscale>
<asrwt>0</asrwt>
<pdfrwt beam="1">  1       21 0.15707479E+00 0.26105737E+03</pdfrwt>
<pdfrwt beam="2">  1       21 0.91352596E-02 0.26105737E+03</pdfrwt>
<totfact> 0.24178711E+04</totfact>
</mgrwt>
</event>
<event>
 4    0  0.1596894E-001  0.2425897E+03  0.7546771E-02  0.1118080E+00
         21   -1    0    0  503  501  0.00000000000E+00  0.00000000000E+00  0.62905279690E+02  0.62905279690E+02  0.00000000000E+00 0.  1.
         21   -1    0    0  501  502 -0.00000000000E+00 -0.00000000000E+00 -0.83632455482E+03  0.83632455482E+03  0.00000000000E+00 0.  1.
         25    1    1    2    0    0 -0.20064816107E+03  0.54452645588E+02 -0.50000903527E+03  0.55575067297E+03  0.12500000000E+03 0.  0.
         21    1    1    2  503  502  0.20064816107E+03 -0.54452645588E+02 -0.27341023987E+03  0.34347916155E+03  0.00000000000E+00 0.  1.
<mgrwt>
<rscale>  3 0.24258973E+03</rscale>
<asrwt>0</asrwt>
<pdfrwt beam="1">  1       21 0.96777353E-02 0.24258973E+03</pdfrwt>
<pdfrwt beam="2">  1       21 0.12866532E+00 0.24258973E+03</pdfrwt>
<totfact> 0.37141960E+04</totfact>
</mgrwt>
</event>
<event>
 4    0  0.1648796E-001  0.2665229E+03  0.7546771E-02  0.1103286E+00
         21   -1    0    0  502  501  0.00000000000E+00  0.00000000000E+00  0.17673340753E+04  0.17673340753E+04  0.00000000000E+00 0.  1.
         21   -1    0    0  503  502 -0.00000000000E+00 -0.00000000000E+00 -0.36254190700E+03  0.36254190700E+03  0.00000000000E+00 0. -1.
         25    1    1    2    0    0 -0.12506440208E+03  0.19941998820E+03 -0.30437694053E+03  0.40457355115E+03  0.12500000000E+03 0.  0.
         21    1    1    2  503  501  0.12506440208E+03 -0.19941998820E+03  0.17091691088E+04  0.17253024312E+04  0.00000000000E+00 0.  1.
<mgrwt>
<rscale>  3 0.26652286E+03</rscale>
<asrwt>0</asrwt>
<pdfrwt beam="1">  1       21 0.27189754E+00 0.26652286E+03</pdfrwt>
<pdfrwt beam="2">  1       21 0.55775679E-01 0.26652286E+03</pdfrwt>
<totfact> 0.13631772E+02</totfact>
</mgrwt>
</event>
<event>
 4    0  0.1207533E-001  0.2440946E+03  0.7546771E-02  0.1117095E+00
         21   -1    0    0  503  501  0.00000000000E+00  0.00000000000E+00  0.72318738715E+03  0.72318738715E+03  0.00000000000E+00 0. -1.
         21   -1    0    0  501  502 -0.00000000000E+00 -0.00000000000E+00 -0.26255810402E+03  0.26255810402E+03  0.00000000000E+00 0. -1.
         25    1    1    2    0    0  0.10175349179E+03 -0.18331228919E+03 -0.18541629897E+03  0.30653119317E+03  0.12500000000E+03 0.  0.
         21    1    1    2  503  502 -0.10175349179E+03  0.18331228919E+03  0.64604558211E+03  0.67921429801E+03  0.00000000000E+00 0. -1.
<mgrwt>
<rscale>  3 0.24409459E+03</rscale>
<asrwt>0</asrwt>
<pdfrwt beam="1">  1       21 0.11125960E+00 0.24409459E+03</pdfrwt>
<pdfrwt beam="2">  1       21 0.40393555E-01 0.24409459E+03</pdfrwt>
<totfact> 0.36068250E+03</totfact>
</mgrwt>
</event>
<event>
 4    0  0.1463022E-001  0.2923691E+03  0.7546771E-02  0.1089119E+00
         21   -1    0    0  503  501  0.00000000000E+00  0.00000000000E+00  0.87412645793E+03  0.87412645793E+03  0.00000000000E+00 0. -1.
         21   -1    0    0  501  502 -0.00000000000E+00 -0.00000000000E+00 -0.13692145922E+03  0.13692145922E+03  0.00000000000E+00 0. -1.
         25    1    1    2    0    0 -0.26424230344E+03 -0.55400951849E+01  0.80645962882E+02  0.30328774936E+03  0.12500000000E+03 0.  0.
         21    1    1    2  503  502  0.26424230344E+03  0.55400951849E+01  0.65655903583E+03  0.70776016779E+03  0.00000000000E+00 0. -1.
<mgrwt>
<rscale>  3 0.29236909E+03</rscale>
<asrwt>0</asrwt>
<pdfrwt beam="1">  1       21 0.13448099E+00 0.29236909E+03</pdfrwt>
<pdfrwt beam="2">  1       21 0.21064840E-01 0.29236909E+03</pdfrwt>
<totfact> 0.78000808E+03</totfact>
</mgrwt>
</event>
<event>
 4    0  0.1306335E-001  0.2371775E+03  0.7546771E-02  0.1121687E+00
         21   -1    0    0  502  501  0.00000000000E+00  0.00000000000E+00  0.25269985525E+03  0.25269985525E+03  0.00000000000E+00 0.  1.
         21   -1    0    0  503  502 -0.00000000000E+00 -0.00000000000E+00 -0.51440920059E+03  0.51440920059E+03  0.00000000000E+00 0.  1.
         25    1    1    2    0    0  0.19080591637E+03  0.64971363322E+02 -0.43880241195E+03  0.49879929080E+03  0.12500000000E+03 0.  0.
         21    1    1    2  503  501 -0.19080591637E+03 -0.64971363322E+02  0.17709306661E+03  0.26830976504E+03  0.00000000000E+00 0.  1.
<mgrwt>
<rscale>  3 0.23717752E+03</rscale>
<asrwt>0</asrwt>
<pdfrwt beam="1">  1       21 0.38876901E-01 0.23717752E+03</pdfrwt>
<pdfrwt beam="2">  1       21 0.79139876E-01 0.23717752E+03</pdfrwt>
<totfact> 0.87297977E+03</totfact>
</mgrwt>
</event>
<event>
 4    0  0.1211709E-001  0.2685338E+03  0.7546771E-02  0.1102122E+00
         21   -1    0    0  502  501  0.00000000000E+00  0.00000000000E+00  0.27012230615E+03  0.27012230615E+03  0.00000000000E+00 0.  1.
         21   -1    0    0  503  502 -0.00000000000E+00 -0.00000000000E+00 -0.57167623500E+03  0.57167623500E+03  0.00000000000E+00 0.  1.
         25    1    1    2    0    0  0.19022588525E+02 -0.23690406033E+03 -0.47631430685E+03  0.54679585915E+03  0.12500000000E+03 0.  0.
         21    1    1    2  503  501 -0.19022588525E+02  0.23690406033E+03  0.17476037800E+03  0.29500268201E+03  0.00000000000E+00 0.  1.
<mgrwt>
<rscale>  3 0.26853378E+03</rscale>
<asrwt>0</asrwt>
<pdfrwt beam="1">  1       21 0.41557278E-01 0.26853378E+03</pdfrwt>
<pdfrwt beam="2">  1       21 0.87950189E-01 0.26853378E+03</pdfrwt>
<totfact> 0.58741607E+03</totfact>
</mgrwt>
</event>
<event>
 4    0  0.1410796E-001  0.2567246E+03  0.7546771E-02  0.1109127E+00
         21   -1    0    0  503  501  0.00000000000E+00  0.00000000000E+00  0.11479616724E+03  0.11479616724E+03  0.00000000000E+00 0.  1.
         21   -1    0    0  501  502 -0.00000000000E+00 -0.00000000000E+00 -0.59798338319E+03  0.59798338319E+03  0.00000000000E+00 0.  1.
         25    1    1    2    0    0  0.74255041949E+02  0.21158616165E+03 -0.39652827938E+03  0.47237928765E+03  0.12500000000E+03 0.  0.
         21    1    1    2  503  502 -0.74255041949E+02 -0.21158616165E+03 -0.86658936570E+02  0.24040026278E+03  0.00000000000E+00 0.  1.
<mgrwt>
<rscale>  3 0.25672459E+03</rscale>
<asrwt>0</asrwt>
<pdfrwt beam="1">  1       21 0.17660949E-01 0.25672459E+03</pdfrwt>
<pdfrwt beam="2">  1       21 0.91997444E-01 0.25672459E+03</pdfrwt>
<totfact> 0.28090744E+04</totfact>
</mgrwt>
</event>
<event>
 4    0  0.1351458E-001  0.3259891E+03  0.7546771E-02  0.1072925E+00
         21   -1    0    0  503  501  0.00000000000E+00  0.00000000000E+00  0.14647627748E+04  0.14647627748E+04  0.00000000000E+00 0. -1.
         21   -1    0    0  501  502 -0.00000000000E+00 -0.00000000000E+00 -0.19501024060E+03  0.19501024060E+03  0.00000000000E+00 0.  1.
         25    1    1    2    0    0 -0.26934616537E+03 -0.13452332602E+03 -0.28344618598E+02  0.32721903894E+03  0.12500000000E+03 0.  0.
         21    1    1    2  503  502  0.26934616537E+03  0.13452332602E+03  0.12980971528E+04  0.13325539764E+04  0.00000000000E+00 0. -1.
<mgrwt>
<rscale>  3 0.32598908E+03</rscale>
<asrwt>0</asrwt>
<pdfrwt beam="1">  1       21 0.22534811E+00 0.32598908E+03</pdfrwt>
<pdfrwt beam="2">  1       21 0.30001576E-01 0.32598908E+03</pdfrwt>
<totfact> 0.88113663E+02</totfact>
</mgrwt>
</event>
<event>
 4    0  0.1005289E-001  0.2702582E+03  0.7546771E-02  0.1101132E+00
         21   -1    0    0  503  501  0.00000000000E+00  0.00000000000E+00  0.40131827908E+03  0.40131827908E+03  0.00000000000E+00 0. -1.
         21   -1    0    0  501  502 -0.00000000000E+00 -0.00000000000E+00 -0.17023094714E+03  0.17023094714E+03  0.00000000000E+00 0.  1.
         25    1    1    2    0    0  0.12390822710E+03  0.20508840337E+03  0.59217056117E+02  0.27666977008E+03  0.12500000000E+03 0.  0.
         21    1    1    2  503  502 -0.12390822710E+03 -0.20508840337E+03  0.17187027583E+03  0.29487945614E+03  0.00000000000E+00 0. -1.
<mgrwt>
<rscale>  3 0.27025821E+03</rscale>
<asrwt>0</asrwt>
<pdfrwt beam="1">  1       21 0.61741274E-01 0.27025821E+03</pdfrwt>
<pdfrwt beam="2">  1       21 0.26189377E-01 0.27025821E+03</pdfrwt>
<totfact> 0.32544882E+04</totfact>
</mgrwt>
</event>
<event>
 4    0  0.1189364E-001  0.3901023E+03  0.7546771E-02  0.1047262E+00
         21   -1    0    0  503  501  0.00000000000E+00  0.00000000000E+00  0.35949285179E+03  0.35949285179E+03  0.00000000000E+00 0. -1.
         21   -1    0    0  501  502 -0.00000000000E+00 -0.00000000000E+00 -0.61711820068E+03  0.61711820068E+03  0.00000000000E+00 0.  1.
         25    1    1    2    0    0 -0.47169101954E+02  0.36651040208E+03 -0.41978702844E+03  0.57306277863E+03  0.12500000000E+03 0.  0.
         21    1    1    2  503  502  0.47169101954E+02 -0.36651040208E+03  0.16216167955E+03  0.40354827385E+03  0.00000000000E+00 0. -1.
<mgrwt>
<rscale>  3 0.39010229E+03</rscale>
<asrwt>0</asrwt>
<pdfrwt beam="1">  1       21 0.55306593E-01 0.39010229E+03</pdfrwt>
<pdfrwt beam="2">  1       21 0.94941261E-01 0.39010229E+03</pdfrwt>
<totfact> 0.25374568E+03</totfact>
</mgrwt>
</event>
<event>
 4    0  0.1339765E-001  0.2975604E+03  0.7546771E-02  0.1086467E+00
         21   -1    0    0  503  501  0.00000000000E+00  0.00000000000E+00  0.41251952395E+03  0.41251952395E+03  0.00000000000E+00 0.  1.
         21   -1    0    0  501  502 -0.00000000000E+00 -0.00000000000E+00 -0.21025523277E+03  0.21025523277E+03  0.00000000000E+00 0.  1.
         25    1    1    2    0    0  0.14375713957E+03 -0.22858491353E+03  0.18880996487E+03  0.35240797480E+03  0.12500000000E+03 0.  0.
         21    1    1    2  503  502 -0.14375713957E+03  0.22858491353E+03  0.13454326311E+02  0.27036678192E+03  0.00000000000E+00 0.  1.
<mgrwt>
<rscale>  3 0.29756038E+03</rscale>
<asrwt>0</asrwt>
<pdfrwt beam="1">  1       21 0.63464542E-01 0.29756038E+03</pdfrwt>
<pdfrwt beam="2">  1       21 0.32346959E-01 0.29756038E+03</pdfrwt>
<totfact> 0.20037385E+04</totfact>
</mgrwt>
</event>
<event>
 4    0  0.1526172E-001  0.2555100E+03  0.7546771E-02  0.1109871E+00
         21   -1    0    0  502  501  0.00000000000E+00  0.00000000000E+00  0.93437353847E+03  0.93437353847E+03  0.00000000000E+00 0. -1.
         21   -1    0    0  503  502 -0.00000000000E+00 -0.00000000000E+00 -0.64516746146E+02  0.64516746146E+02  0.00000000000E+00 0. -1.
         25    1    1    2    0    0  0.31167798113E+02  0.22065563906E+03  0.35052998658E+03  0.43377023202E+03  0.12500000000E+03 0.  0.
         21    1    1    2  503  501 -0.31167798113E+02 -0.22065563906E+03  0.51932680574E+03  0.56512005260E+03  0.00000000000E+00 0. -1.
<mgrwt>
<rscale>  3 0.25550997E+03</rscale>
<asrwt>0</asrwt>
<pdfrwt beam="1">  1       21 0.14374977E+00 0.25550997E+03</pdfrwt>
<pdfrwt beam="2">  1       21 0.99256539E-02 0.25550997E+03</pdfrwt>
<totfact> 0.26508706E+04</totfact>
</mgrwt>
</event>
<event>
 4    0  0.1056745E-001  0.3573535E+03  0.7546771E-02  0.1059637E+00
         21   -1    0    0  502  501  0.00000000000E+00  0.00000000000E+00  0.12165706518E+04  0.12165706518E+04  0.00000000000E+00 0. -1.
         21   -1    0    0  503  502 -0.00000000000E+00 -0.00000000000E+00 -0.25141973611E+03  0.25141973611E+03  0.00000000000E+00 0. -1.
         25    1    1    2    0    0 -0.51527590420E+02  0.33078910329E+03 -0.83684779616E+02  0.36702134239E+03  0.12500000000E+03 0.  0.
         21    1    1    2  503  501  0.51527590420E+02 -0.33078910329E+03  0.10488356953E+04  0.11009690455E+04  0.00000000000E+00 0. -1.
<mgrwt>
<rscale>  3 0.35735350E+03</rscale>
<asrwt>0</asrwt>
<pdfrwt beam="1">  1       21 0.18716471E+00 0.35735350E+03</pdfrwt>
<pdfrwt beam="2">  1       21 0.38679960E-01 0.35735350E+03</pdfrwt>
<totfact> 0.91968427E+02</totfact>
</mgrwt>
</event>
<event>
 4    0  0.1326415E-001  0.2377153E+03  0.7546771E-02  0.1121324E+00
         21   -1    0    0  503  501  0.00000000000E+00  0.00000000000E+00  0.70671448547E+03  0.70671448547E+03  0.00000000000E+00 0. -1.
         21   -1    0    0  501  502 -0.00000000000E+00 -0.00000000000E+00 -0.87298248824E+02  0.87298248824E+02  0.00000000000E+00 0. -1.
         25    1    1    2    0    0 -0.20206163976E+03  0.73940620064E+01  0.14535970161E+03  0.27863600138E+03  0.12500000000E+03 0.  0.
         21    1    1    2  503  502  0.20206163976E+03 -0.73940620064E+01  0.47405653504E+03  0.51537673291E+03  0.00000000000E+00 0. -1.
<mgrwt>
<rscale>  3 0.23771533E+03</rscale>
<asrwt>0</asrwt>
<pdfrwt beam="1">  1       21 0.10872530E+00 0.23771533E+03</pdfrwt>
<pdfrwt beam="2">  1       21 0.13430500E-01 0.23771533E+03</pdfrwt>
<totfact> 0.31428621E+04</totfact>
</mgrwt>
</event>
<event>
 4    0  0.1005289E-001  0.2675702E+03  0.7546771E-02  0.1102678E+00
         21   -1    0    0  502  501  0.00000000000E+00  0.00000000000E+00  0.15676492603E+03  0.15676492603E+03  0.00000000000E+00 0. -1.
         21   -1    0    0  503  502 -0.00000000000E+00 -0.00000000000E+00 -0.14215068462E+04  0.14215068462E+04  0.00000000000E+00 0. -1.
         25    1    1    2    0    0 -0.22648808093E+03 -0.68351883491E+02 -0.13103061308E+04  0.13373466219E+04  0.12500000000E+03 0.  0.
         21    1    1    2  503  501  0.22648808093E+03  0.68351883491E+02  0.45564210594E+02  0.24092515034E+03  0.00000000000E+00 0. -1.
<mgrwt>
<rscale>  3 0.26757024E+03</rscale>
<asrwt>0</asrwt>
<pdfrwt beam="1">  1       21 0.24117681E-01 0.26757024E+03</pdfrwt>
<pdfrwt beam="2">  1       21 0.21869336E+00 0.26757024E+03</pdfrwt>
<totfact> 0.15481831E+03</totfact>
</mgrwt>
</event>
<event>
 4    0  0.1267773E-001  0.2509371E+03  0.7546771E-02  0.1112714E+00
         21   -1    0    0  503  501  0.00000000000E+00  0.00000000000E+00  0.59495640969E+03  0.59495640969E+03  0.00000000000E+00 0.  1.
         21   -1    0    0  501  502 -0.00000000000E+00 -0.00000000000E+00 -0.33471787643E+03  0.33471787643E+03  0.00000000000E+00 0.  1.
         25    1    1    2    0    0 -0.39923122472E+02  0.21389386343E+03 -0.26268942858E+03  0.36328387854E+03  0.12500000000E+03 0.  0.
         21    1    1    2  503  502  0.39923122472E+02 -0.21389386343E+03  0.52292796184E+03  0.56639040757E+03  0.00000000000E+00 0.  1.
<mgrwt>
<rscale>  3 0.25093712E+03</rscale>
<asrwt>0</asrwt>
<pdfrwt beam="1">  1       21 0.91531755E-01 0.25093712E+03</pdfrwt>
<pdfrwt beam="2">  1       21 0.51495058E-01 0.25093712E+03</pdfrwt>
<totfact> 0.34652228E+03</totfact>
</mgrwt>
</event>
<event>
 4    0  0.1005289E-001  0.2513610E+03  0.7546771E-02  0.1112448E+00
         21   -1    0    0  503  501  0.00000000000E+00  0.00000000000E+00  0.72706464082E+02  0.72706464082E+02  0.00000000000E+00 0. -1.
         21   -1    0    0  501  502 -0.00000000000E+00 -0.00000000000E+00 -0.29198807502E+04  0.29198807502E+04  0.00000000000E+00 0. -1.
         25    1    1    2    0    0  0.21532275038E+03  0.34546456116E+02 -0.27365260419E+04  0.27480460553E+04  0.12500000000E+03 0.  0.
         21    1    1    2  503  502 -0.21532275038E+03 -0.34546456116E+02 -0.11064824425E+03  0.24454115895E+03  0.00000000000E+00 0. -1.
<mgrwt>
<rscale>  3 0.25136098E+03</rscale>
<asrwt>0</asrwt>
<pdfrwt beam="1">  1       21 0.11185610E-01 0.25136098E+03</pdfrwt>
<pdfrwt beam="2">  1       21 0.44921242E+00 0.25136098E+03</pdfrwt>
<totfact> 0.25619975E+02</totfact>
</mgrwt>
</event>
<event>
 4    0  0.1088370E-001  0.2452250E+03  0.7546771E-02  0.1116360E+00
         21   -1    0    0  502  501  0.00000000000E+00  0.00000000000E+00  0.24206947098E+03  0.24206947098E+03  0.00000000000E+00 0.  1.
         21   -1    0    0  503  502 -0.00000000000E+00 -0.00000000000E+00 -0.15673585130E+04  0.15673585130E+04  0.00000000000E+00 0.  1.
         25    1    1    2    0    0 -0.17143107048E+03  0.12297031425E+03 -0.15095366078E+04  0.15293253677E+04  0.12500000000E+03 0.  0.
         21    1    1    2  503  501  0.17143107048E+03 -0.12297031425E+03  0.18424756580E+03  0.28010261623E+03  0.00000000000E+00 0.  1.
<mgrwt>
<rscale>  3 0.24522502E+03</rscale>
<asrwt>0</asrwt>
<pdfrwt beam="1">  1       21 0.37241457E-01 0.24522502E+03</pdfrwt>
<pdfrwt beam="2">  1       21 0.24113208E+00 0.24522502E+03</pdfrwt>
<totfact> 0.49068367E+02</totfact>
</mgrwt>
</event>
<event>
 4    0  0.1336989E-001  0.4108249E+03  0.7546771E-02  0.1040095E+00
         21   -1    0    0  503  501  0.00000000000E+00  0.00000000000E+00  0.16587531672E+03  0.16587531672E+03  0.00000000000E+00 0.  1.
         21   -1    0    0  501  502 -0.00000000000E+00 -0.00000000000E+00 -0.99586423713E+03  0.99586423713E+03  0.00000000000E+00 0.  1.
         25    1    1    2    0    0  0.11771284283E+03  0.37322351800E+03 -0.33090436648E+03  0.52751758976E+03  0.12500000000E+03 0.  0.
         21    1    1    2  503  502 -0.11771284283E+03 -0.37322351800E+03 -0.49908455394E+03  0.63422196409E+03  0.00000000000E+00 0.  1.
<mgrwt>
<rscale>  3 0.41082491E+03</rscale>
<asrwt>0</asrwt>
<pdfrwt beam="1">  1       21 0.25519279E-01 0.41082491E+03</pdfrwt>
<pdfrwt beam="2">  1       21 0.15320988E+00 0.41082491E+03</pdfrwt>
<totfact> 0.36151342E+03</totfact>
</mgrwt>
</event>
<event>
 4    0  0.1005289E-001  0.2434695E+03  0.7546771E-02  0.1117503E+00
         21   -1    0    0  503  501  0.00000000000E+00  0.00000000000E+00  0.15008758005E+04  0.15008758005E+04  0.00000000000E+00 0.  1.
         21   -1    0    0  501  502 -0.00000000000E+00 -0.00000000000E+00 -0.54156880999E+02  0.54156880999E+02  0.00000000000E+00 0. -1.
         25    1    1    2    0    0  0.10878995696E+03 -0.17837354366E+03  0.28572060109E+03  0.37538465299E+03  0.12500000000E+03 0.  0.
         21    1    1    2  503  502 -0.10878995696E+03  0.17837354366E+03  0.11609983184E+04  0.11796480285E+04  0.00000000000E+00 0.  1.
<mgrwt>
<rscale>  3 0.24346946E+03</rscale>
<asrwt>0</asrwt>
<pdfrwt beam="1">  1       21 0.23090394E+00 0.24346946E+03</pdfrwt>
<pdfrwt beam="2">  1       21 0.83318290E-02 0.24346946E+03</pdfrwt>
<totfact> 0.92545123E+03</totfact>
</mgrwt>
</event>
<event>
 4    0  0.1025567E-001  0.3292955E+03  0.7546771E-02  0.1071449E+00
         21   -1    0    0  503  501  0.00000000000E+00  0.00000000000E+00  0.67705652320E+03  0.67705652320E+03  0.00000000000E+00 0.  1.
         21   -1    0    0  501  502 -0.00000000000E+00 -0.00000000000E+00 -0.50336893268E+03  0.50336893268E+03  0.00000000000E+00 0.  1.
         25    1    1    2    0    0 -0.21973171799E+03 -0.21101780377E+03 -0.40768789652E+03  0.52406579965E+03  0.12500000000E+03 0.  0.
         21    1    1    2  503  502  0.21973171799E+03  0.21101780377E+03  0.58137548703E+03  0.65635965623E+03  0.00000000000E+00 0.  1.
<mgrwt>
<rscale>  3 0.32929552E+03</rscale>
<asrwt>0</asrwt>
<pdfrwt beam="1">  1       21 0.10416254E+00 0.32929552E+03</pdfrwt>
<pdfrwt beam="2">  1       21 0.77441374E-01 0.32929552E+03</pdfrwt>
<totfact> 0.99255260E+02</totfact>
</mgrwt>
</event>
<event>
 4    0  0.1300480E-001  0.3067070E+03  0.7546771E-02  0.1081935E+00
         21   -1    0    0  502  501  0.00000000000E+00  0.00000000000E+00  0.14063989707E+04  0.14063989707E+04  0.00000000000E+00 0.  1.
         21   -1    0    0  503  502 -0.00000000000E+00 -0.00000000000E+00 -0.79838108642E+02  0.79838108642E+02  0.00000000000E+00 0.  1.
         25    1    1    2    0    0 -0.15312355857E+03  0.23451511410E+03  0.32764289985E+03  0.44879731812E+03  0.12500000000E+03 0.  0.
         21    1    1    2  503  501  0.15312355857E+03 -0.23451511410E+03  0.99891796217E+03  0.10374397612E+04  0.00000000000E+00 0.  1.
<mgrwt>
<rscale>  3 0.30670697E+03</rscale>
<asrwt>0</asrwt>
<pdfrwt beam="1">  1       21 0.21636905E+00 0.30670697E+03</pdfrwt>
<pdfrwt beam="2">  1       21 0.12282787E-01 0.30670697E+03</pdfrwt>
<totfact> 0.54700089E+03</totfact>
</mgrwt>
</event>
<event>
 4    0  0.1005289E-001  0.3766782E+03  0.7546771E-02  0.1052168E+00
         21   -1    0    0  503  501  0.00000000000E+00  0.00000000000E+00  0.17880642289E+03  0.17880642289E+03  0.00000000000E+00 0.  1.
         21   -1    0    0  501  502 -0.00000000000E+00 -0.00000000000E+00 -0.77709683271E+03  0.77709683271E+03  0.00000000000E+00 0. -1.
         25    1    1    2    0    0  0.35396692450E+03  0.31126801688E+02 -0.39809078891E+03  0.54805359011E+03  0.12500000000E+03 0.  0.
         21    1    1    2  503  502 -0.35396692450E+03 -0.31126801688E+02 -0.20019962091E+03  0.40784966549E+03  0.00000000000E+00 0.  1.
<mgrwt>
<rscale>  3 0.37667819E+03</rscale>
<asrwt>0</asrwt>
<pdfrwt beam="1">  1       21 0.27508681E-01 0.37667819E+03</pdfrwt>
<pdfrwt beam="2">  1       21 0.11955336E+00 0.37667819E+03</pdfrwt>
<totfact> 0.60652912E+03</totfact>
</mgrwt>
</event>
<event>
 4    0  0.1376250E-001  0.2921798E+03  0.7546771E-02  0.1089216E+00
         21   -1    0    0  503  501  0.00000000000E+00  0.00000000000E+00  0.33848513707E+03  0.33848513707E+03  0.00000000000E+00 0.  1.
         21   -1    0    0  501  502 -0.00000000000E+00 -0.00000000000E+00 -0.39832956353E+03  0.39832956353E+03  0.00000000000E+00 0.  1.
         25    1    1    2    0    0 -0.53152051063E+02 -0.25868690208E+03 -0.27113538015E+03  0.39860186679E+03  0.12500000000E+03 0.  0.
         21    1    1    2  503  502  0.53152051063E+02  0.25868690208E+03  0.21129095369E+03  0.33821283381E+03  0.00000000000E+00 0.  1.
<mgrwt>
<rscale>  3 0.29217983E+03</rscale>
<asrwt>0</asrwt>
<pdfrwt beam="1">  1       21 0.52074636E-01 0.29217983E+03</pdfrwt>
<pdfrwt beam="2">  1       21 0.61281471E-01 0.29217983E+03</pdfrwt>
<totfact> 0.81702041E+03</totfact>
</mgrwt>
</event>
<event>
 4    0  0.1005289E-001  0.2513511E+03  0.7546771E-02  0.1112454E+00
         21   -1    0    0  502  501  0.00000000000E+00  0.00000000000E+00  0.13167349294E+03  0.13167349294E+03  0.00000000000E+00 0. -1.
         21   -1    0    0  503  502 -0.00000000000E+00 -0.00000000000E+00 -0.54381083528E+03  0.54381083528E+03  0.00000000000E+00 0.  1.
         25    1    1    2    0    0 -0.93176635520E+02 -0.19715605610E+03 -0.37920899514E+03  0.45494709347E+03  0.12500000000E+03 0.  0.
         21    1    1    2  503  501  0.93176635520E+02  0.19715605610E+03 -0.32928347190E+02  0.22053723475E+03  0.00000000000E+00 0. -1.
<mgrwt>
<rscale>  3 0.25135114E+03</rscale>
<asrwt>0</asrwt>
<pdfrwt beam="1">  1       21 0.20257461E-01 0.25135114E+03</pdfrwt>
<pdfrwt beam="2">  1       21 0.83663203E-01 0.25135114E+03</pdfrwt>
<totfact> 0.27159877E+04</totfact>
</mgrwt>
</event>
<event>
 4    0  0.1005289E-001  0.5186782E+03  0.7546771E-02  0.1009015E+00
         21   -1    0    0  503  501  0.00000000000E+00  0.00000000000E+00  0.15449933357E+04  0.15449933357E+04  0.00000000000E+00 0.  1.
         21   -1    0    0  501  502 -0.00000000000E+00 -0.00000000000E+00 -0.11657278117E+04  0.11657278117E+04  0.00000000000E+00 0.  1.
         25    1    1    2    0    0 -0.98290246699E+02 -0.49370144560E+03 -0.10631840913E+04  0.11829571006E+04  0.12500000000E+03 0.  0.
         21    1    1    2  503  502  0.98290246699E+02  0.49370144560E+03  0.14424496153E+04  0.15277640468E+04  0.00000000000E+00 0.  1.
<mgrwt>
<rscale>  3 0.51867821E+03</rscale>
<asrwt>0</asrwt>
<pdfrwt beam="1">  1       21 0.23769128E+00 0.51867821E+03</pdfrwt>
<pdfrwt beam="2">  1       21 0.17934274E+00 0.51867821E+03</pdfrwt>
<totfact> 0.10236412E+01</totfact>
</mgrwt>
</event>
<event>
 4    0  0.1094526E-001  0.2389477E+03  0.7546771E-02  0.1120496E+00
         21   -1    0    0  502  501  0.00000000000E+00  0.00000000000E+00  0.21145459102E+04  0.21145459102E+04  0.00000000000E+00 0. -1.
         21   -1    0    0  503  502 -0.00000000000E+00 -0.00000000000E+00 -0.26293479819E+02  0.26293479819E+02  0.00000000000E+00 0. -1.
         25    1    1    2    0    0 -0.17480285728E+03  0.10447465224E+03  0.74896935331E+03  0.78616225047E+03  0.12500000000E+03 0.  0.
         21    1    1    2  503  501  0.17480285728E+03 -0.10447465224E+03  0.13392830771E+04  0.13546771396E+04  0.00000000000E+00 0. -1.
<mgrwt>
<rscale>  3 0.23894768E+03</rscale>
<asrwt>0</asrwt>
<pdfrwt beam="1">  1       21 0.32531462E+00 0.23894768E+03</pdfrwt>
<pdfrwt beam="2">  1       21 0.40451524E-02 0.23894768E+03</pdfrwt>
<totfact> 0.89331519E+03</totfact>
</mgrwt>
</event>
<event>
 4    0  0.1092292E-001  0.2659487E+03  0.7546771E-02  0.1103621E+00
         21   -1    0    0  503  501  0.00000000000E+00  0.00000000000E+00  0.18987740153E+03  0.18987740153E+03  0.00000000000E+00 0.  1.
         21   -1    0    0  501  502 -0.00000000000E+00 -0.00000000000E+00 -0.98228586202E+03  0.98228586202E+03  0.00000000000E+00 0.  1.
         25    1    1    2    0    0  0.22728204248E+03  0.58707470318E+02 -0.88175811900E+03  0.92099189699E+03  0.12500000000E+03 0.  0.
         21    1    1    2  503  502 -0.22728204248E+03 -0.58707470318E+02  0.89349658507E+02  0.25117136656E+03  0.00000000000E+00 0.  1.
<mgrwt>
<rscale>  3 0.26594867E+03</rscale>
<asrwt>0</asrwt>
<pdfrwt beam="1">  1       21 0.29211908E-01 0.26594867E+03</pdfrwt>
<pdfrwt beam="2">  1       21 0.15112090E+00 0.26594867E+03</pdfrwt>
<totfact> 0.31061165E+03</totfact>
</mgrwt>
</event>
<event>
 4    0  0.1547109E-001  0.3174326E+03  0.7546771E-02  0.1076837E+00
         21   -1    0    0  503  501  0.00000000000E+00  0.00000000000E+00  0.24340662574E+03  0.24340662574E+03  0.00000000000E+00 0. -1.
         21   -1    0    0  501  502 -0.00000000000E+00 -0.00000000000E+00 -0.46152492325E+03  0.46152492325E+03  0.00000000000E+00 0. -1.
         25    1    1    2    0    0 -0.26528708747E+03 -0.12149571791E+03 -0.25978717736E+03  0.41018633054E+03  0.12500000000E+03 0.  0.
         21    1    1    2  503  502  0.26528708747E+03  0.12149571791E+03  0.41668879846E+02  0.29474521844E+03  0.00000000000E+00 0. -1.
<mgrwt>
<rscale>  3 0.31743259E+03</rscale>
<asrwt>0</asrwt>
<pdfrwt beam="1">  1       21 0.37447173E-01 0.31743259E+03</pdfrwt>
<pdfrwt beam="2">  1       21 0.71003834E-01 0.31743259E+03</pdfrwt>
<totfact> 0.11555652E+04</totfact>
</mgrwt>
</event>
<event>
 4    0  0.1518603E-001  0.2685751E+03  0.7546771E-02  0.1102098E+00
         21   -1    0    0  503  501  0.00000000000E+00  0.00000000000E+00  0.67419058082E+03  0.67419058082E+03  0.00000000000E+00 0.  1.
         21   -1    0    0  501  502 -0.00000000000E+00 -0.00000000000E+00 -0.10420863016E+03  0.10420863016E+03  0.00000000000E+00 0.  1.
         25    1    1    2    0    0 -0.23551005082E+03  0.32289546340E+02  0.18565231394E+03  0.32649560565E+03  0.12500000000E+03 0.  0.
         21    1    1    2  503  502  0.23551005082E+03 -0.32289546340E+02  0.38432963673E+03  0.45190360532E+03  0.00000000000E+00 0.  1.
<mgrwt>
<rscale>  3 0.26857513E+03</rscale>
<asrwt>0</asrwt>
<pdfrwt beam="1">  1       21 0.10372162E+00 0.26857513E+03</pdfrwt>
<pdfrwt beam="2">  1       21 0.16032097E-01 0.26857513E+03</pdfrwt>
<totfact> 0.25122925E+04</totfact>
</mgrwt>
</event>
<event>
 4    0  0.1722694E-001  0.2504271E+03  0.7546771E-02  0.1113035E+00
         21   -1    0    0  502  501  0.00000000000E+00  0.00000000000E+00  0.44689346361E+03  0.44689346361E+03  0.00000000000E+00 0.  1.
         21   -1    0    0  503  502 -0.00000000000E+00 -0.00000000000E+00 -0.12272442763E+03  0.12272442763E+03  0.00000000000E+00 0.  1.
         25    1    1    2    0    0 -0.21686997840E+03 -0.74936358733E+01  0.15552002385E+03  0.29478843249E+03  0.12500000000E+03 0.  0.
         21    1    1    2  503  501  0.21686997840E+03  0.74936358733E+01  0.16864901212E+03  0.27482945875E+03  0.00000000000E+00 0.  1.
<mgrwt>
<rscale>  3 0.25042712E+03</rscale>
<asrwt>0</asrwt>
<pdfrwt beam="1">  1       21 0.68752839E-01 0.25042712E+03</pdfrwt>
<pdfrwt beam="2">  1       21 0.18880681E-01 0.25042712E+03</pdfrwt>
<totfact> 0.48255568E+04</totfact>
</mgrwt>
</event>
<event>
 4    0  0.1292367E-001  0.2592826E+03  0.7546771E-02  0.1107575E+00
         21   -1    0    0  503  501  0.00000000000E+00  0.00000000000E+00  0.34255192410E+03  0.34255192410E+03  0.00000000000E+00 0.  1.
         21   -1    0    0  501  502 -0.00000000000E+00 -0.00000000000E+00 -0.31663663661E+03  0.31663663661E+03  0.00000000000E+00 0.  1.
         25    1    1    2    0    0 -0.86415294406E+02 -0.21008295246E+03 -0.20853597526E+03  0.33273818987E+03  0.12500000000E+03 0.  0.
         21    1    1    2  503  502  0.86415294406E+02  0.21008295246E+03  0.23445126275E+03  0.32645037085E+03  0.00000000000E+00 0.  1.
<mgrwt>
<rscale>  3 0.25928257E+03</rscale>
<asrwt>0</asrwt>
<pdfrwt beam="1">  1       21 0.52700296E-01 0.25928257E+03</pdfrwt>
<pdfrwt beam="2">  1       21 0.48713329E-01 0.25928257E+03</pdfrwt>
<totfact> 0.13210628E+04</totfact>
</mgrwt>
</event>
<event>
 4    0  0.1704333E-001  0.2967275E+03  0.7546771E-02  0.1086888E+00
         21   -1    0    0  502  501  0.00000000000E+00  0.00000000000E+00  0.35400801008E+03  0.35400801008E+03  0.00000000000E+00 0.  1.
         21   -1    0    0  503  502 -0.00000000000E+00 -0.00000000000E+00 -0.22990825696E+03  0.22990825696E+03  0.00000000000E+00 0.  1.
         25    1    1    2    0    0 -0.12843130083E+02 -0.26880707588E+03  0.27536002682E+02  0.29800238502E+03  0.12500000000E+03 0.  0.
         21    1    1    2  503  501  0.12843130083E+02  0.26880707588E+03  0.96563750436E+02  0.28591388202E+03  0.00000000000E+00 0.  1.
<mgrwt>
<rscale>  3 0.29672747E+03</rscale>
<asrwt>0</asrwt>
<pdfrwt beam="1">  1       21 0.54462770E-01 0.29672747E+03</pdfrwt>
<pdfrwt beam="2">  1       21 0.35370501E-01 0.29672747E+03</pdfrwt>
<totfact> 0.23343953E+04</totfact>
</mgrwt>
</event>
<event>
 4    0  0.1263827E-001  0.2495701E+03  0.7546771E-02  0.1113577E+00
         21   -1    0    0  503  501  0.00000000000E+00  0.00000000000E+00  0.31428536931E+03  0.31428536931E+03  0.00000000000E+00 0. -1.
         21   -1    0    0  501  502 -0.00000000000E+00 -0.00000000000E+00 -0.35207360848E+03  0.35207360848E+03  0.00000000000E+00 0. -1.
         25    1    1    2    0    0 -0.36739868241E+02 -0.21286242993E+03 -0.25725513463E+03  0.35842075315E+03  0.12500000000E+03 0.  0.
         21    1    1    2  503  502  0.36739868241E+02  0.21286242993E+03  0.21946689546E+03  0.30793822464E+03  0.00000000000E+00 0. -1.
<mgrwt>
<rscale>  3 0.24957009E+03</rscale>
<asrwt>0</asrwt>
<pdfrwt beam="1">  1       21 0.48351595E-01 0.24957009E+03</pdfrwt>
<pdfrwt beam="2">  1       21 0.54165171E-01 0.24957009E+03</pdfrwt>
<totfact> 0.12723327E+04</totfact>
</mgrwt>
</event>
<event>
 4    0  0.1633691E-001  0.2473354E+03  0.7546771E-02  0.1115000E+00
         21   -1    0    0  502  501  0.00000000000E+00  0.00000000000E+00  0.17605987045E+03  0.17605987045E+03  0.00000000000E+00 0.  1.
         21   -1    0    0  503  502 -0.00000000000E+00 -0.00000000000E+00 -0.30146389481E+03  0.30146389481E+03  0.00000000000E+00 0.  1.
         25    1    1    2    0    0 -0.19820783022E+03  0.79142142369E+02 -0.66354138461E+02  0.25608142133E+03  0.12500000000E+03 0.  0.
         21    1    1    2  503  501  0.19820783022E+03 -0.79142142369E+02 -0.59049885899E+02  0.22144234392E+03  0.00000000000E+00 0.  1.
<mgrwt>
<rscale>  3 0.24733545E+03</rscale>
<asrwt>0</asrwt>
<pdfrwt beam="1">  1       21 0.27086134E-01 0.24733545E+03</pdfrwt>
<pdfrwt beam="2">  1       21 0.46379061E-01 0.24733545E+03</pdfrwt>
<totfact> 0.56489442E+04</totfact>
</mgrwt>
</event>
<event>
 4    0  0.1281503E-001  0.2945581E+03  0.7546771E-02  0.1087993E+00
         21   -1    0    0  503  501  0.00000000000E+00  0.00000000000E+00  0.76075025265E+03  0.76075025265E+03  0.00000000000E+00 0.  1.
         21   -1    0    0  501  502 -0.00000000000E+00 -0.00000000000E+00 -0.18209544133E+03  0.18209544133E+03  0.00000000000E+00 0. -1.
         25    1    1    2    0    0  0.56899254507E+02 -0.26058007785E+03 -0.11957371268E+02  0.29480074773E+03  0.12500000000E+03 0.  0.
         21    1    1    2  503  502 -0.56899254507E+02  0.26058007785E+03  0.59061218259E+03  0.64804494625E+03  0.00000000000E+00 0.  1.
<mgrwt>
<rscale>  3 0.29455815E+03</rscale>
<asrwt>0</asrwt>
<pdfrwt beam="1">  1       21 0.11703850E+00 0.29455815E+03</pdfrwt>
<pdfrwt beam="2">  1       21 0.28014684E-01 0.29455815E+03</pdfrwt>
<totfact> 0.64065461E+03</totfact>
</mgrwt>
</event>
<event>
 4    0  0.1005289E-001  0.2467863E+03  0.7546771E-02  0.1115353E+00
         21   -1    0    0  502  501  0.00000000000E+00  0.00000000000E+00  0.12382891559E+03  0.12382891559E+03  0.00000000000E+00 0. -1.
         21   -1    0    0  503  502 -0.00000000000E+00 -0.00000000000E+00 -0.61317315693E+03  0.61317315693E+03  0.00000000000E+00 0.  1.
         25    1    1    2    0    0  0.11566670814E+03 -0.17860486347E+03 -0.46024447014E+03  0.52223410165E+03  0.12500000000E+03 0.  0.
         21    1    1    2  503  501 -0.11566670814E+03  0.17860486347E+03 -0.29099771200E+02  0.21476797087E+03  0.00000000000E+00 0. -1.
<mgrwt>
<rscale>  3 0.24678631E+03</rscale>
<asrwt>0</asrwt>
<pdfrwt beam="1">  1       21 0.19050602E-01 0.24678631E+03</pdfrwt>
<pdfrwt beam="2">  1       21 0.94334332E-01 0.24678631E+03</pdfrwt>
<totfact> 0.23103414E+04</totfact>
</mgrwt>
</event>
<event>
 4    0  0.1005289E-001  0.5862608E+03  0.7546771E-02  0.9934328E-01
         21   -1    0    0  503  501  0.00000000000E+00  0.00000000000E+00  0.96600233613E+03  0.96600233613E+03  0.00000000000E+00 0.  1.
         21   -1    0    0  501  502 -0.00000000000E+00 -0.00000000000E+00 -0.11369611894E+04  0.11369611894E+04  0.00000000000E+00 0.  1.
         25    1    1    2    0    0 -0.27554053158E+02  0.57211672865E+03 -0.96185651581E+03  0.11264411809E+04  0.12500000000E+03 0.  0.
         21    1    1    2  503  502  0.27554053158E+02 -0.57211672865E+03  0.79089766251E+03  0.97652234466E+03  0.00000000000E+00 0.  1.
<mgrwt>
<rscale>  3 0.58626084E+03</rscale>
<asrwt>0</asrwt>
<pdfrwt beam="1">  1       21 0.14861574E+00 0.58626084E+03</pdfrwt>
<pdfrwt beam="2">  1       21 0.17491711E+00 0.58626084E+03</pdfrwt>
<totfact> 0.44009075E+01</totfact>
</mgrwt>
</event>
<event>
 4    0  0.1485064E-001  0.2682905E+03  0.7546771E-02  0.1102262E+00
         21   -1    0    0  503  501  0.00000000000E+00  0.00000000000E+00  0.84353263856E+03  0.84353263856E+03  0.00000000000E+00 0. -1.
         21   -1    0    0  501  502 -0.00000000000E+00 -0.00000000000E+00 -0.76428369742E+02  0.76428369742E+02  0.00000000000E+00 0. -1.
         25    1    1    2    0    0  0.11255150992E+03 -0.20901419099E+03  0.36472400997E+03  0.45277298712E+03  0.12500000000E+03 0.  0.
         21    1    1    2  503  502 -0.11255150992E+03  0.20901419099E+03  0.40238025884E+03  0.46718802117E+03  0.00000000000E+00 0. -1.
<mgrwt>
<rscale>  3 0.26829047E+03</rscale>
<asrwt>0</asrwt>
<pdfrwt beam="1">  1       21 0.12977425E+00 0.26829047E+03</pdfrwt>
<pdfrwt beam="2">  1       21 0.11758211E-01 0.26829047E+03</pdfrwt>
<totfact> 0.25358078E+04</totfact>
</mgrwt>
</event>
<event>
 4    0  0.1413169E-001  0.2418141E+03  0.7546771E-02  0.1118590E+00
         21   -1    0    0  502  501  0.00000000000E+00  0.00000000000E+00  0.93645410212E+02  0.93645410212E+02  0.00000000000E+00 0.  1.
         21   -1    0    0  503  502 -0.00000000000E+00 -0.00000000000E+00 -0.71266467421E+03  0.71266467421E+03  0.00000000000E+00 0.  1.
         25    1    1    2    0    0  0.18022331775E+03 -0.10182640375E+03 -0.52689690252E+03  0.57973649759E+03  0.12500000000E+03 0.  0.
         21    1    1    2  503  501 -0.18022331775E+03  0.10182640375E+03 -0.92122361479E+02  0.22657358682E+03  0.00000000000E+00 0.  1.
<mgrwt>
<rscale>  3 0.24181410E+03</rscale>
<asrwt>0</asrwt>
<pdfrwt beam="1">  1       21 0.14406986E-01 0.24181410E+03</pdfrwt>
<pdfrwt beam="2">  1       21 0.10964072E+00 0.24181410E+03</pdfrwt>
<totfact> 0.27048597E+04</totfact>
</mgrwt>
</event>
<event>
 4    0  0.1005289E-001  0.3430302E+03  0.7546771E-02  0.1065513E+00
         21   -1    0    0  503  501  0.00000000000E+00  0.00000000000E+00  0.21100420159E+03  0.21100420159E+03  0.00000000000E+00 0. -1.
         21   -1    0    0  501  502 -0.00000000000E+00 -0.00000000000E+00 -0.70555148842E+03  0.70555148842E+03  0.00000000000E+00 0.  1.
         25    1    1    2    0    0  0.31335479520E+03  0.62076648429E+02 -0.48867963147E+03  0.59705738432E+03  0.12500000000E+03 0.  0.
         21    1    1    2  503  502 -0.31335479520E+03 -0.62076648429E+02 -0.58676553621E+01  0.31949830569E+03  0.00000000000E+00 0. -1.
<mgrwt>
<rscale>  3 0.34303023E+03</rscale>
<asrwt>0</asrwt>
<pdfrwt beam="1">  1       21 0.32462185E-01 0.34303023E+03</pdfrwt>
<pdfrwt beam="2">  1       21 0.10854638E+00 0.34303023E+03</pdfrwt>
<totfact> 0.56364990E+03</totfact>
</mgrwt>
</event>
<event>
 4    0  0.1407174E-001  0.2463611E+03  0.7546771E-02  0.1115626E+00
         21   -1    0    0  503  501  0.00000000000E+00  0.00000000000E+00  0.29317671711E+03  0.29317671711E+03  0.00000000000E+00 0. -1.
         21   -1    0    0  501  502 -0.00000000000E+00 -0.00000000000E+00 -0.17984636186E+03  0.17984636186E+03  0.00000000000E+00 0. -1.
         25    1    1    2    0    0  0.19276117946E+03  0.88948916342E+02  0.72825280649E+02  0.25689940351E+03  0.12500000000E+03 0.  0.
         21    1    1    2  503  502 -0.19276117946E+03 -0.88948916342E+02  0.40505074595E+02  0.21612367545E+03  0.00000000000E+00 0. -1.
<mgrwt>
<rscale>  3 0.24636108E+03</rscale>
<asrwt>0</asrwt>
<pdfrwt beam="1">  1       21 0.45104110E-01 0.24636108E+03</pdfrwt>
<pdfrwt beam="2">  1       21 0.27668671E-01 0.24636108E+03</pdfrwt>
<totfact> 0.57447454E+04</totfact>
</mgrwt>
</event>
<event>
 4    0  0.1356324E-001  0.3406666E+03  0.7546771E-02  0.1066512E+00
         21   -1    0    0  503  501  0.00000000000E+00  0.00000000000E+00  0.54258052591E+03  0.54258052591E+03  0.00000000000E+00 0.  1.
         21   -1    0    0  501  502 -0.00000000000E+00 -0.00000000000E+00 -0.19972421342E+03  0.19972421342E+03  0.00000000000E+00 0.  1.
         25    1    1    2    0    0  0.11833249119E+03  0.29398324974E+03  0.19599764525E+03  0.39302519836E+03  0.12500000000E+03 0.  0.
         21    1    1    2  503  502 -0.11833249119E+03 -0.29398324974E+03  0.14685866724E+03  0.34927954097E+03  0.00000000000E+00 0.  1.
<mgrwt>
<rscale>  3 0.34066660E+03</rscale>
<asrwt>0</asrwt>
<pdfrwt beam="1">  1       21 0.83473926E-01 0.34066660E+03</pdfrwt>
<pdfrwt beam="2">  1       21 0.30726802E-01 0.34066660E+03</pdfrwt>
<totfact> 0.11771359E+04</totfact>
</mgrwt>
</event>
<event>
 4    0  0.1005289E-001  0.2382662E+03  0.7546771E-02  0.1120953E+00
         21   -1    0    0  503  501  0.00000000000E+00  0.00000000000E+00  0.66369801242E+02  0.66369801242E+02  0.00000000000E+00 0.  1.
         21   -1    0    0  501  502 -0.00000000000E+00 -0.00000000000E+00 -0.94250973770E+03  0.94250973770E+03  0.00000000000E+00 0.  1.
         25    1    1    2    0    0 -0.78715641522E+02  0.18694816558E+03 -0.22815349001E+03  0.32988601643E+03  0.12500000000E+03 0.  0.
         21    1    1    2  503  502  0.78715641522E+02 -0.18694816558E+03 -0.64798644645E+03  0.67899352251E+03  0.00000000000E+00 0.  1.
<mgrwt>
<rscale>  3 0.23826617E+03</rscale>
<asrwt>0</asrwt>
<pdfrwt beam="1">  1       21 0.10210740E-01 0.23826617E+03</pdfrwt>
<pdfrwt beam="2">  1       21 0.14500148E+00 0.23826617E+03</pdfrwt>
<totfact> 0.24859108E+04</totfact>
</mgrwt>
</event>
<event>
 4    0  0.1549645E-001  0.3311070E+03  0.7546771E-02  0.1070648E+00
         21   -1    0    0  502  501  0.00000000000E+00  0.00000000000E+00  0.12438911889E+03  0.12438911889E+03  0.00000000000E+00 0. -1.
         21   -1    0    0  503  502 -0.00000000000E+00 -0.00000000000E+00 -0.83993177282E+03  0.83993177282E+03  0.00000000000E+00 0. -1.
         25    1    1    2    0    0  0.23916780812E+03 -0.19184788783E+03 -0.45015190543E+03  0.55880997707E+03  0.12500000000E+03 0.  0.
         21    1    1    2  503  501 -0.23916780812E+03  0.19184788783E+03 -0.26539074849E+03  0.40551091464E+03  0.00000000000E+00 0. -1.
<mgrwt>
<rscale>  3 0.33110701E+03</rscale>
<asrwt>0</asrwt>
<pdfrwt beam="1">  1       21 0.19136788E-01 0.33110701E+03</pdfrwt>
<pdfrwt beam="2">  1       21 0.12922027E+00 0.33110701E+03</pdfrwt>
<totfact> 0.10174461E+04</totfact>
</mgrwt>
</event>
<event>
 4    0  0.1207195E-001  0.2572449E+03  0.7546771E-02  0.1108810E+00
         21   -1    0    0  503  501  0.00000000000E+00  0.00000000000E+00  0.43645784880E+02  0.43645784880E+02  0.00000000000E+00 0. -1.
         21   -1    0    0  501  502 -0.00000000000E+00 -0.00000000000E+00 -0.13372260593E+04  0.13372260593E+04  0.00000000000E+00 0. -1.
         25    1    1    2    0    0  0.22402403098E+03  0.19057470374E+02 -0.64370777164E+03  0.69320606525E+03  0.12500000000E+03 0.  0.
         21    1    1    2  503  502 -0.22402403098E+03 -0.19057470374E+02 -0.64987250273E+03  0.68766577888E+03  0.00000000000E+00 0. -1.
<mgrwt>
<rscale>  3 0.25724493E+03</rscale>
<asrwt>0</asrwt>
<pdfrwt beam="1">  1       21 0.67147355E-02 0.25724493E+03</pdfrwt>
<pdfrwt beam="2">  1       21 0.20572711E+00 0.25724493E+03</pdfrwt>
<totfact> 0.19189652E+04</totfact>
</mgrwt>
</event>
<event>
 4    0  0.1067009E-001  0.3623637E+03  0.7546771E-02  0.1057652E+00
         21   -1    0    0  503  501  0.00000000000E+00  0.00000000000E+00  0.41916839962E+03  0.41916839962E+03  0.00000000000E+00 0. -1.
         21   -1    0    0  501  502 -0.00000000000E+00 -0.00000000000E+00 -0.79541753998E+03  0.79541753998E+03  0.00000000000E+00 0. -1.
         25    1    1    2    0    0 -0.28826725759E+03 -0.18051162360E+03 -0.67225372897E+03  0.76369662443E+03  0.12500000000E+03 0.  0.
         21    1    1    2  503  502  0.28826725759E+03  0.18051162360E+03  0.29600458862E+03  0.45088931517E+03  0.00000000000E+00 0. -1.
<mgrwt>
<rscale>  3 0.36236371E+03</rscale>
<asrwt>0</asrwt>
<pdfrwt beam="1">  1       21 0.64487446E-01 0.36236371E+03</pdfrwt>
<pdfrwt beam="2">  1       21 0.12237193E+00 0.36236371E+03</pdfrwt>
<totfact> 0.98516512E+02</totfact>
</mgrwt>
</event>
<event>
 4    0  0.1098330E-001  0.2830029E+03  0.7546771E-02  0.1094060E+00
         21   -1    0    0  502  501  0.00000000000E+00  0.00000000000E+00  0.64745986172E+03  0.64745986172E+03  0.00000000000E+00 0. -1.
         21   -1    0    0  503  502 -0.00000000000E+00 -0.00000000000E+00 -0.43719462710E+03  0.43719462710E+03  0.00000000000E+00 0. -1.
         25    1    1    2    0    0  0.33567141060E+01 -0.25387861965E+03 -0.36147051203E+03  0.45907684772E+03  0.12500000000E+03 0.  0.
         21    1    1    2  503  501 -0.33567141060E+01  0.25387861965E+03  0.57173574665E+03  0.62557764110E+03  0.00000000000E+00 0. -1.
<mgrwt>
<rscale>  3 0.28300286E+03</rscale>
<asrwt>0</asrwt>
<pdfrwt beam="1">  1       21 0.99609210E-01 0.28300286E+03</pdfrwt>
<pdfrwt beam="2">  1       21 0.67260711E-01 0.28300286E+03</pdfrwt>
<totfact> 0.15609326E+03</totfact>
</mgrwt>
</event>
<event>
 4    0  0.1326536E-001  0.2397037E+03  0.7546771E-02  0.1119990E+00
         21   -1    0    0  502  501  0.00000000000E+00  0.00000000000E+00  0.84518414448E+03  0.84518414448E+03  0.00000000000E+00 0.  1.
         21   -1    0    0  503  502 -0.00000000000E+00 -0.00000000000E+00 -0.95529052826E+02  0.95529052826E+02  0.00000000000E+00 0.  1.
         25    1    1    2    0    0 -0.18672350081E+03  0.83469794320E+02  0.10018308643E+03  0.25979708068E+03  0.12500000000E+03 0.  0.
         21    1    1    2  503  501  0.18672350081E+03 -0.83469794320E+02  0.64947200522E+03  0.68091611663E+03  0.00000000000E+00 0.  1.
<mgrwt>
<rscale>  3 0.23970372E+03</rscale>
<asrwt>0</asrwt>
<pdfrwt beam="1">  1       21 0.13002832E+00 0.23970372E+03</pdfrwt>
<pdfrwt beam="2">  1       21 0.14696778E-01 0.23970372E+03</pdfrwt>
<totfact> 0.17083390E+04</totfact>
</mgrwt>
</event>
<event>
 4    0  0.1418645E-001  0.3163897E+03  0.7546771E-02  0.1077323E+00
         21   -1    0    0  503  501  0.00000000000E+00  0.00000000000E+00  0.18959607193E+03  0.18959607193E+03  0.00000000000E+00 0.  1.
         21   -1    0    0  501  502 -0.00000000000E+00 -0.00000000000E+00 -0.51196036799E+03  0.51196036799E+03  0.00000000000E+00 0.  1.
         25    1    1    2    0    0 -0.28753331986E+03  0.42450156155E+02 -0.88591126319E+02  0.32855869103E+03  0.12500000000E+03 0.  0.
         21    1    1    2  503  502  0.28753331986E+03 -0.42450156155E+02 -0.23377316975E+03  0.37299774890E+03  0.00000000000E+00 0.  1.
<mgrwt>
<rscale>  3 0.31638967E+03</rscale>
<asrwt>0</asrwt>
<pdfrwt beam="1">  1       21 0.29168627E-01 0.31638967E+03</pdfrwt>
<pdfrwt beam="2">  1       21 0.78763132E-01 0.31638967E+03</pdfrwt>
<totfact> 0.15051819E+04</totfact>
</mgrwt>
</event>
<event>
 4    0  0.1234872E-001  0.3075388E+03  0.7546771E-02  0.1081532E+00
         21   -1    0    0  503  501  0.00000000000E+00  0.00000000000E+00  0.16077256238E+03  0.16077256238E+03  0.00000000000E+00 0. -1.
         21   -1    0    0  501  502 -0.00000000000E+00 -0.00000000000E+00 -0.59344072500E+03  0.59344072500E+03  0.00000000000E+00 0. -1.
         25    1    1    2    0    0 -0.21123639885E+02  0.28019443260E+03 -0.11065509461E+03  0.32684044759E+03  0.12500000000E+03 0.  0.
         21    1    1    2  503  502  0.21123639885E+02 -0.28019443260E+03 -0.32201306801E+03  0.42737283979E+03  0.00000000000E+00 0. -1.
<mgrwt>
<rscale>  3 0.30753882E+03</rscale>
<asrwt>0</asrwt>
<pdfrwt beam="1">  1       21 0.24734240E-01 0.30753882E+03</pdfrwt>
<pdfrwt beam="2">  1       21 0.91298574E-01 0.30753882E+03</pdfrwt>
<totfact> 0.14788630E+04</totfact>
</mgrwt>
</event>
<event>
 4    0  0.1260987E-001  0.4081355E+03  0.7546771E-02  0.1040998E+00
         21   -1    0    0  503  501  0.00000000000E+00  0.00000000000E+00  0.83792998523E+03  0.83792998523E+03  0.00000000000E+00 0.  1.
         21   -1    0    0  501  502 -0.00000000000E+00 -0.00000000000E+00 -0.29379293353E+03  0.29379293353E+03  0.00000000000E+00 0.  1.
         25    1    1    2    0    0 -0.12243831759E+03  0.36872545769E+03 -0.60928481996E+02  0.41265831469E+03  0.12500000000E+03 0.  0.
         21    1    1    2  503  502  0.12243831759E+03 -0.36872545769E+03  0.60506553369E+03  0.71906460407E+03  0.00000000000E+00 0.  1.
<mgrwt>
<rscale>  3 0.40813552E+03</rscale>
<asrwt>0</asrwt>
<pdfrwt beam="1">  1       21 0.12891230E+00 0.40813552E+03</pdfrwt>
<pdfrwt beam="2">  1       21 0.45198913E-01 0.40813552E+03</pdfrwt>
<totfact> 0.18085667E+03</totfact>
</mgrwt>
</event>
<event>
 4    0  0.1005289E-001  0.3342145E+03  0.7546771E-02  0.1069287E+00
         21   -1    0    0  502  501  0.00000000000E+00  0.00000000000E+00  0.85023983774E+02  0.85023983774E+02  0.00000000000E+00 0.  1.
         21   -1    0    0  503  502 -0.00000000000E+00 -0.00000000000E+00 -0.19904075806E+04  0.19904075806E+04  0.00000000000E+00 0.  1.
         25    1    1    2    0    0  0.30651686866E+03 -0.46062712187E+02 -0.16199557506E+04  0.16540725492E+04  0.12500000000E+03 0.  0.
         21    1    1    2  503  501 -0.30651686866E+03  0.46062712187E+02 -0.28542784617E+03  0.42135901509E+03  0.00000000000E+00 0.  1.
<mgrwt>
<rscale>  3 0.33421455E+03</rscale>
<asrwt>0</asrwt>
<pdfrwt beam="1">  1       21 0.13080614E-01 0.33421455E+03</pdfrwt>
<pdfrwt beam="2">  1       21 0.30621653E+00 0.33421455E+03</pdfrwt>
<totfact> 0.13747833E+03</totfact>
</mgrwt>
</event>
<event>
 4    0  0.1148430E-001  0.3928097E+03  0.7546771E-02  0.1046298E+00
         21   -1    0    0  503  501  0.00000000000E+00  0.00000000000E+00  0.17455780799E+03  0.17455780799E+03  0.00000000000E+00 0.  1.
         21   -1    0    0  501  502 -0.00000000000E+00 -0.00000000000E+00 -0.13541251528E+04  0.13541251528E+04  0.00000000000E+00 0. -1.
         25    1    1    2    0    0  0.15582320986E+03  0.33822123465E+03 -0.10710400280E+04  0.11408006916E+04  0.12500000000E+03 0.  0.
         21    1    1    2  503  502 -0.15582320986E+03 -0.33822123465E+03 -0.10852731683E+03  0.38788226925E+03  0.00000000000E+00 0.  1.
<mgrwt>
<rscale>  3 0.39280972E+03</rscale>
<asrwt>0</asrwt>
<pdfrwt beam="1">  1       21 0.26855049E-01 0.39280972E+03</pdfrwt>
<pdfrwt beam="2">  1       21 0.20832694E+00 0.39280972E+03</pdfrwt>
<totfact> 0.13506744E+03</totfact>
</mgrwt>
</event>
<event>
 4    0  0.1334744E-001  0.2885235E+03  0.7546771E-02  0.1091123E+00
         21   -1    0    0  503  501  0.00000000000E+00  0.00000000000E+00  0.62367536426E+02  0.62367536426E+02  0.00000000000E+00 0. -1.
         21   -1    0    0  501  502 -0.00000000000E+00 -0.00000000000E+00 -0.13481180381E+04  0.13481180381E+04  0.00000000000E+00 0. -1.
         25    1    1    2    0    0 -0.53827746290E+02 -0.25440787944E+03 -0.90125097286E+03  0.94630814826E+03  0.12500000000E+03 0.  0.
         21    1    1    2  503  502  0.53827746290E+02  0.25440787944E+03 -0.38449952881E+03  0.46417742626E+03  0.00000000000E+00 0. -1.
<mgrwt>
<rscale>  3 0.28852347E+03</rscale>
<asrwt>0</asrwt>
<pdfrwt beam="1">  1       21 0.95950053E-02 0.28852347E+03</pdfrwt>
<pdfrwt beam="2">  1       21 0.20740278E+00 0.28852347E+03</pdfrwt>
<totfact> 0.98217675E+03</totfact>
</mgrwt>
</event>
<event>
 4    0  0.1333626E-001  0.2383479E+03  0.7546771E-02  0.1120898E+00
         21   -1    0    0  502  501  0.00000000000E+00  0.00000000000E+00  0.77548144377E+02  0.77548144377E+02  0.00000000000E+00 0. -1.
         21   -1    0    0  503  502 -0.00000000000E+00 -0.00000000000E+00 -0.74570493652E+03  0.74570493652E+03  0.00000000000E+00 0. -1.
         25    1    1    2    0    0  0.45084377757E+02 -0.19786889805E+03 -0.51988583128E+03  0.57191868259E+03  0.12500000000E+03 0.  0.
         21    1    1    2  503  501 -0.45084377757E+02  0.19786889805E+03 -0.14827096086E+03  0.25133439830E+03  0.00000000000E+00 0. -1.
<mgrwt>
<rscale>  3 0.23834786E+03</rscale>
<asrwt>0</asrwt>
<pdfrwt beam="1">  1       21 0.11930484E-01 0.23834786E+03</pdfrwt>
<pdfrwt beam="2">  1       21 0.11472383E+00 0.23834786E+03</pdfrwt>
<totfact> 0.34125819E+04</totfact>
</mgrwt>
</event>
<event>
 4    0  0.1185547E-001  0.3089097E+03  0.7546771E-02  0.1080870E+00
         21   -1    0    0  503  501  0.00000000000E+00  0.00000000000E+00  0.44359548007E+03  0.44359548007E+03  0.00000000000E+00 0.  1.
         21   -1    0    0  501  502 -0.00000000000E+00 -0.00000000000E+00 -0.30075481198E+03  0.30075481198E+03  0.00000000000E+00 0. -1.
         25    1    1    2    0    0 -0.21626882524E+03  0.18173612545E+03 -0.14482455381E+03  0.34117352689E+03  0.12500000000E+03 0.  0.
         21    1    1    2  503  502  0.21626882524E+03 -0.18173612545E+03  0.28766522191E+03  0.40317676516E+03  0.00000000000E+00 0.  1.
<mgrwt>
<rscale>  3 0.30890973E+03</rscale>
<asrwt>0</asrwt>
<pdfrwt beam="1">  1       21 0.68245458E-01 0.30890973E+03</pdfrwt>
<pdfrwt beam="2">  1       21 0.46269971E-01 0.30890973E+03</pdfrwt>
<totfact> 0.82024961E+03</totfact>
</mgrwt>
</event>
<event>
 4    0  0.1797905E-001  0.3174138E+03  0.7546771E-02  0.1076846E+00
         21   -1    0    0  503  501  0.00000000000E+00  0.00000000000E+00  0.41186325403E+03  0.41186325403E+03  0.00000000000E+00 0.  1.
         21   -1    0    0  501  502 -0.00000000000E+00 -0.00000000000E+00 -0.22627874519E+03  0.22627874519E+03  0.00000000000E+00 0.  1.
         25    1    1    2    0    0 -0.15832006787E+03  0.24507402133E+03  0.75246362775E+02  0.32621087494E+03  0.12500000000E+03 0.  0.
         21    1    1    2  503  502  0.15832006787E+03 -0.24507402133E+03  0.11033814607E+03  0.31193112428E+03  0.00000000000E+00 0.  1.
<mgrwt>
<rscale>  3 0.31741380E+03</rscale>
<asrwt>0</asrwt>
<pdfrwt beam="1">  1       21 0.63363577E-01 0.31741380E+03</pdfrwt>
<pdfrwt beam="2">  1       21 0.34812115E-01 0.31741380E+03</pdfrwt>
<totfact> 0.17229438E+04</totfact>
</mgrwt>
</event>
<event>
 4    0  0.1194717E-001  0.2834521E+03  0.7546771E-02  0.1093818E+00
         21   -1    0    0  502  501  0.00000000000E+00  0.00000000000E+00  0.72355898620E+02  0.72355898620E+02  0.00000000000E+00 0. -1.
         21   -1    0    0  503  502 -0.00000000000E+00 -0.00000000000E+00 -0.15818116999E+04  0.15818116999E+04  0.00000000000E+00 0. -1.
         25    1    1    2    0    0  0.25057224156E+03 -0.43972958208E+02 -0.12818348472E+04  0.13128006874E+04  0.12500000000E+03 0.  0.
         21    1    1    2  503  501 -0.25057224156E+03  0.43972958208E+02 -0.22762095414E+03  0.34136691120E+03  0.00000000000E+00 0. -1.
<mgrwt>
<rscale>  3 0.28345206E+03</rscale>
<asrwt>0</asrwt>
<pdfrwt beam="1">  1       21 0.11131678E-01 0.28345206E+03</pdfrwt>
<pdfrwt beam="2">  1       21 0.24335562E+00 0.28345206E+03</pdfrwt>
<totfact> 0.45173050E+03</totfact>
</mgrwt>
</event>
<event>
 4    0  0.1395673E-001  0.2431416E+03  0.7546771E-02  0.1117718E+00
         21   -1    0    0  502  501  0.00000000000E+00  0.00000000000E+00  0.72253746224E+02  0.72253746224E+02  0.00000000000E+00 0. -1.
         21   -1    0    0  503  502 -0.00000000000E+00 -0.00000000000E+00 -0.76303570849E+03  0.76303570849E+03  0.00000000000E+00 0. -1.
         25    1    1    2    0    0  0.12393889568E+02 -0.20818077035E+03 -0.48380577336E+03  0.54146640522E+03  0.12500000000E+03 0.  0.
         21    1    1    2  503  501 -0.12393889568E+02  0.20818077035E+03 -0.20697618890E+03  0.29382304950E+03  0.00000000000E+00 0. -1.
<mgrwt>
<rscale>  3 0.24314161E+03</rscale>
<asrwt>0</asrwt>
<pdfrwt beam="1">  1       21 0.11115961E-01 0.24314161E+03</pdfrwt>
<pdfrwt beam="2">  1       21 0.11739011E+00 0.24314161E+03</pdfrwt>
<totfact> 0.36527926E+04</totfact>
</mgrwt>
</event>
<event>
 4    0  0.1530482E-001  0.2381964E+03  0.7546771E-02  0.1121000E+00
         21   -1    0    0  503  501  0.00000000000E+00  0.00000000000E+00  0.21525165425E+03  0.21525165425E+03  0.00000000000E+00 0. -1.
         21   -1    0    0  501  502 -0.00000000000E+00 -0.00000000000E+00 -0.25015537163E+03  0.25015537163E+03  0.00000000000E+00 0. -1.
         25    1    1    2    0    0  0.19699950939E+03 -0.47997263411E+02 -0.91065172799E+02  0.25501060702E+03  0.12500000000E+03 0.  0.
         21    1    1    2  503  502 -0.19699950939E+03  0.47997263411E+02  0.56161455426E+02  0.21039641886E+03  0.00000000000E+00 0. -1.
<mgrwt>
<rscale>  3 0.23819644E+03</rscale>
<asrwt>0</asrwt>
<pdfrwt beam="1">  1       21 0.33115639E-01 0.23819644E+03</pdfrwt>
<pdfrwt beam="2">  1       21 0.38485441E-01 0.23819644E+03</pdfrwt>
<totfact> 0.56022424E+04</totfact>
</mgrwt>
</event>
<event>
 4    0  0.1606319E-001  0.2651834E+03  0.7546771E-02  0.1104068E+00
         21   -1    0    0  503  501  0.00000000000E+00  0.00000000000E+00  0.20706267788E+03  0.20706267788E+03  0.00000000000E+00 0. -1.
         21   -1    0    0  501  502 -0.00000000000E+00 -0.00000000000E+00 -0.33776702241E+03  0.33776702241E+03  0.00000000000E+00 0. -1.
         25    1    1    2    0    0  0.17405829018E+03 -0.15620800262E+03 -0.15908212596E+03  0.30923995742E+03  0.12500000000E+03 0.  0.
         21    1    1    2  503  502 -0.17405829018E+03  0.15620800262E+03  0.28377781441E+02  0.23558974287E+03  0.00000000000E+00 0. -1.
<mgrwt>
<rscale>  3 0.26518339E+03</rscale>
<asrwt>0</asrwt>
<pdfrwt beam="1">  1       21 0.31855797E-01 0.26518339E+03</pdfrwt>
<pdfrwt beam="2">  1       21 0.51964157E-01 0.26518339E+03</pdfrwt>
<totfact> 0.32177616E+04</totfact>
</mgrwt>
</event>
<event>
 4    0  0.1005289E-001  0.2494198E+03  0.7546771E-02  0.1113672E+00
         21   -1    0    0  502  501  0.00000000000E+00  0.00000000000E+00  0.19650688311E+03  0.19650688311E+03  0.00000000000E+00 0. -1.
         21   -1    0    0  503  502 -0.00000000000E+00 -0.00000000000E+00 -0.26743855377E+04  0.26743855377E+04  0.00000000000E+00 0. -1.
         25    1    1    2    0    0  0.21505725332E+03 -0.18319226479E+02 -0.26073165083E+04  0.26192192712E+04  0.12500000000E+03 0.  0.
         21    1    1    2  503  501 -0.21505725332E+03  0.18319226479E+02  0.12943785370E+03  0.25167314961E+03  0.00000000000E+00 0. -1.
<mgrwt>
<rscale>  3 0.24941976E+03</rscale>
<asrwt>0</asrwt>
<pdfrwt beam="1">  1       21 0.30231831E-01 0.24941976E+03</pdfrwt>
<pdfrwt beam="2">  1       21 0.41144390E+00 0.24941976E+03</pdfrwt>
<totfact> 0.70640891E+01</totfact>
</mgrwt>
</event>
<event>
 4    0  0.1435429E-001  0.2986715E+03  0.7546771E-02  0.1085907E+00
         21   -1    0    0  502  501  0.00000000000E+00  0.00000000000E+00  0.65029435780E+02  0.65029435780E+02  0.00000000000E+00 0.  1.
         21   -1    0    0  503  502 -0.00000000000E+00 -0.00000000000E+00 -0.12569897756E+04  0.12569897756E+04  0.00000000000E+00 0.  1.
         25    1    1    2    0    0 -0.13898973929E+03  0.23294098308E+03 -0.67798031433E+03  0.74085218218E+03  0.12500000000E+03 0.  0.
         21    1    1    2  503  501  0.13898973929E+03 -0.23294098308E+03 -0.51398002550E+03  0.58116702921E+03  0.00000000000E+00 0.  1.
<mgrwt>
<rscale>  3 0.29867147E+03</rscale>
<asrwt>0</asrwt>
<pdfrwt beam="1">  1       21 0.10004529E-01 0.29867147E+03</pdfrwt>
<pdfrwt beam="2">  1       21 0.19338303E+00 0.29867147E+03</pdfrwt>
<totfact> 0.11198768E+04</totfact>
</mgrwt>
</event>
<event>
 4    0  0.1256607E-001  0.2584075E+03  0.7546771E-02  0.1108104E+00
         21   -1    0    0  503  501  0.00000000000E+00  0.00000000000E+00  0.12650396652E+03  0.12650396652E+03  0.00000000000E+00 0.  1.
         21   -1    0    0  501  502 -0.00000000000E+00 -0.00000000000E+00 -0.79783104306E+03  0.79783104306E+03  0.00000000000E+00 0. -1.
         25    1    1    2    0    0 -0.43701187165E+02 -0.22190003053E+03 -0.64721089600E+03  0.69689049442E+03  0.12500000000E+03 0.  0.
         21    1    1    2  503  502  0.43701187165E+02  0.22190003053E+03 -0.24116180537E+02  0.22744451515E+03  0.00000000000E+00 0.  1.
<mgrwt>
<rscale>  3 0.25840746E+03</rscale>
<asrwt>0</asrwt>
<pdfrwt beam="1">  1       21 0.19462149E-01 0.25840746E+03</pdfrwt>
<pdfrwt beam="2">  1       21 0.12274324E+00 0.25840746E+03</pdfrwt>
<totfact> 0.11635219E+04</totfact>
</mgrwt>
</event>
<event>
 4    0  0.1358371E-001  0.2438138E+03  0.7546771E-02  0.1117278E+00
         21   -1    0    0  502  501  0.00000000000E+00  0.00000000000E+00  0.17905158465E+03  0.17905158465E+03  0.00000000000E+00 0. -1.
         21   -1    0    0  503  502 -0.00000000000E+00 -0.00000000000E+00 -0.55605756770E+03  0.55605756770E+03  0.00000000000E+00 0. -1.
         25    1    1    2    0    0 -0.85909363014E+02  0.19089204256E+03 -0.45132827243E+03  0.51297407348E+03  0.12500000000E+03 0.  0.
         21    1    1    2  503  501  0.85909363014E+02 -0.19089204256E+03  0.74322289386E+02  0.22213507887E+03  0.00000000000E+00 0. -1.
<mgrwt>
<rscale>  3 0.24381384E+03</rscale>
<asrwt>0</asrwt>
<pdfrwt beam="1">  1       21 0.27546398E-01 0.24381384E+03</pdfrwt>
<pdfrwt beam="2">  1       21 0.85547317E-01 0.24381384E+03</pdfrwt>
<totfact> 0.14399371E+04</totfact>
</mgrwt>
</event>
<event>
 4    0  0.1005289E-001  0.2389577E+03  0.7546771E-02  0.1120489E+00
         21   -1    0    0  502  501  0.00000000000E+00  0.00000000000E+00  0.31734812459E+02  0.31734812459E+02  0.00000000000E+00 0.  1.
         21   -1    0    0  503  502 -0.00000000000E+00 -0.00000000000E+00 -0.16103411972E+04  0.16103411972E+04  0.00000000000E+00 0.  1.
         25    1    1    2    0    0 -0.19599341985E+03  0.55338412735E+02 -0.68263827936E+03  0.72325360766E+03  0.12500000000E+03 0.  0.
         21    1    1    2  503  501  0.19599341985E+03 -0.55338412735E+02 -0.89596810543E+03  0.91882240204E+03  0.00000000000E+00 0.  1.
<mgrwt>
<rscale>  3 0.23895765E+03</rscale>
<asrwt>0</asrwt>
<pdfrwt beam="1">  1       21 0.48822787E-02 0.23895765E+03</pdfrwt>
<pdfrwt beam="2">  1       21 0.24774481E+00 0.23895765E+03</pdfrwt>
<totfact> 0.18497079E+04</totfact>
</mgrwt>
</event>
<event>
 4    0  0.1232021E-001  0.2798977E+03  0.7546771E-02  0.1095745E+00
         21   -1    0    0  503  501  0.00000000000E+00  0.00000000000E+00  0.43425072697E+03  0.43425072697E+03  0.00000000000E+00 0. -1.
         21   -1    0    0  501  502 -0.00000000000E+00 -0.00000000000E+00 -0.33027914524E+03  0.33027914524E+03  0.00000000000E+00 0. -1.
         25    1    1    2    0    0  0.20999648726E+03  0.13645212341E+03 -0.21931738195E+03  0.35558799286E+03  0.12500000000E+03 0.  0.
         21    1    1    2  503  502 -0.20999648726E+03 -0.13645212341E+03  0.32328896368E+03  0.40894187935E+03  0.00000000000E+00 0. -1.
<mgrwt>
<rscale>  3 0.27989767E+03</rscale>
<asrwt>0</asrwt>
<pdfrwt beam="1">  1       21 0.66807804E-01 0.27989767E+03</pdfrwt>
<pdfrwt beam="2">  1       21 0.50812176E-01 0.27989767E+03</pdfrwt>
<totfact> 0.71645644E+03</totfact>
</mgrwt>
</event>
<event>
 4    0  0.1354765E-001  0.3077309E+03  0.7546771E-02  0.1081439E+00
         21   -1    0    0  502  501  0.00000000000E+00  0.00000000000E+00  0.24618413165E+03  0.24618413165E+03  0.00000000000E+00 0. -1.
         21   -1    0    0  503  502 -0.00000000000E+00 -0.00000000000E+00 -0.35648921651E+03  0.35648921651E+03  0.00000000000E+00 0. -1.
         25    1    1    2    0    0  0.10775093047E+03  0.25973652786E+03 -0.24646466350E+02  0.30871633456E+03  0.12500000000E+03 0.  0.
         21    1    1    2  503  501 -0.10775093047E+03 -0.25973652786E+03 -0.85658618509E+02  0.29395701360E+03  0.00000000000E+00 0. -1.
<mgrwt>
<rscale>  3 0.30773093E+03</rscale>
<asrwt>0</asrwt>
<pdfrwt beam="1">  1       21 0.37874482E-01 0.30773093E+03</pdfrwt>
<pdfrwt beam="2">  1       21 0.54844495E-01 0.30773093E+03</pdfrwt>
<totfact> 0.19948470E+04</totfact>
</mgrwt>
</event>
<event>
 4    0  0.1246646E-001  0.2988184E+03  0.7546771E-02  0.1085833E+00
         21   -1    0    0  503  501  0.00000000000E+00  0.00000000000E+00  0.29651783777E+03  0.29651783777E+03  0.00000000000E+00 0.  1.
         21   -1    0    0  501  502 -0.00000000000E+00 -0.00000000000E+00 -0.66572144215E+03  0.66572144215E+03  0.00000000000E+00 0.  1.
         25    1    1    2    0    0  0.27137838075E+03  0.46032221483E+01 -0.55706448356E+03  0.63214970857E+03  0.12500000000E+03 0.  0.
         21    1    1    2  503  502 -0.27137838075E+03 -0.46032221483E+01  0.18786087918E+03  0.33008957136E+03  0.00000000000E+00 0.  1.
<mgrwt>
<rscale>  3 0.29881836E+03</rscale>
<asrwt>0</asrwt>
<pdfrwt beam="1">  1       21 0.45618129E-01 0.29881836E+03</pdfrwt>
<pdfrwt beam="2">  1       21 0.10241868E+00 0.29881836E+03</pdfrwt>
<totfact> 0.33220384E+03</totfact>
</mgrwt>
</event>
<event>
 4    0  0.1192602E-001  0.2958028E+03  0.7546771E-02  0.1087358E+00
         21   -1    0    0  502  501  0.00000000000E+00  0.00000000000E+00  0.77507900043E+03  0.77507900043E+03  0.00000000000E+00 0.  1.
         21   -1    0    0  503  502 -0.00000000000E+00 -0.00000000000E+00 -0.23779854998E+03  0.23779854998E+03  0.00000000000E+00 0.  1.
         25    1    1    2    0    0  0.20396395722E+03 -0.17399143645E+03 -0.10738253632E+03  0.31469084021E+03  0.12500000000E+03 0.  0.
         21    1    1    2  503  501 -0.20396395722E+03  0.17399143645E+03  0.64466298677E+03  0.69818671021E+03  0.00000000000E+00 0.  1.
<mgrwt>
<rscale>  3 0.29580283E+03</rscale>
<asrwt>0</asrwt>
<pdfrwt beam="1">  1       21 0.11924292E+00 0.29580283E+03</pdfrwt>
<pdfrwt beam="2">  1       21 0.36584393E-01 0.29580283E+03</pdfrwt>
<totfact> 0.35988637E+03</totfact>
</mgrwt>
</event>
<event>
 4    0  0.1458464E-001  0.2532438E+03  0.7546771E-02  0.1111272E+00
         21   -1    0    0  502  501  0.00000000000E+00  0.00000000000E+00  0.13170980421E+04  0.13170980421E+04  0.00000000000E+00 0. -1.
         21   -1    0    0  503  502 -0.00000000000E+00 -0.00000000000E+00 -0.43465236271E+02  0.43465236271E+02  0.00000000000E+00 0. -1.
         25    1    1    2    0    0 -0.82652577211E+02  0.20414699166E+03  0.58200016698E+03  0.63470988419E+03  0.12500000000E+03 0.  0.
         21    1    1    2  503  501  0.82652577211E+02 -0.20414699166E+03  0.69163263885E+03  0.72585339418E+03  0.00000000000E+00 0. -1.
<mgrwt>
<rscale>  3 0.25324384E+03</rscale>
<asrwt>0</asrwt>
<pdfrwt beam="1">  1       21 0.20263044E+00 0.25324384E+03</pdfrwt>
<pdfrwt beam="2">  1       21 0.66869604E-02 0.25324384E+03</pdfrwt>
<totfact> 0.20284185E+04</totfact>
</mgrwt>
</event>
<event>
 4    0  0.1005289E-001  0.2989435E+03  0.7546771E-02  0.1085770E+00
         21   -1    0    0  502  501  0.00000000000E+00  0.00000000000E+00  0.19469345384E+03  0.19469345384E+03  0.00000000000E+00 0. -1.
         21   -1    0    0  503  502 -0.00000000000E+00 -0.00000000000E+00 -0.42496605431E+03  0.42496605431E+03  0.00000000000E+00 0.  1.
         25    1    1    2    0    0  0.18638949303E+03 -0.19748722113E+03 -0.80735803150E+02  0.30965386406E+03  0.12500000000E+03 0.  0.
         21    1    1    2  503  501 -0.18638949303E+03  0.19748722113E+03 -0.14953679732E+03  0.31000564409E+03  0.00000000000E+00 0. -1.
<mgrwt>
<rscale>  3 0.29894355E+03</rscale>
<asrwt>0</asrwt>
<pdfrwt beam="1">  1       21 0.29952839E-01 0.29894355E+03</pdfrwt>
<pdfrwt beam="2">  1       21 0.65379393E-01 0.29894355E+03</pdfrwt>
<totfact> 0.21841387E+04</totfact>
</mgrwt>
</event>
<event>
 4    0  0.1005289E-001  0.2473247E+03  0.7546771E-02  0.1115007E+00
         21   -1    0    0  502  501  0.00000000000E+00  0.00000000000E+00  0.63660064916E+02  0.63660064916E+02  0.00000000000E+00 0. -1.
         21   -1    0    0  503  502 -0.00000000000E+00 -0.00000000000E+00 -0.19512926644E+04  0.19512926644E+04  0.00000000000E+00 0.  1.
         25    1    1    2    0    0  0.79558751296E+01  0.21326319087E+03 -0.17350911764E+04  0.17526297027E+04  0.12500000000E+03 0.  0.
         21    1    1    2  503  501 -0.79558751296E+01 -0.21326319087E+03 -0.15254142317E+03  0.26232302666E+03  0.00000000000E+00 0. -1.
<mgrwt>
<rscale>  3 0.24732465E+03</rscale>
<asrwt>0</asrwt>
<pdfrwt beam="1">  1       21 0.97938555E-02 0.24732465E+03</pdfrwt>
<pdfrwt beam="2">  1       21 0.30019889E+00 0.24732465E+03</pdfrwt>
<totfact> 0.27000137E+03</totfact>
</mgrwt>
</event>
<event>
 4    0  0.1636593E-001  0.3176371E+03  0.7546771E-02  0.1076742E+00
         21   -1    0    0  502  501  0.00000000000E+00  0.00000000000E+00  0.35868413205E+03  0.35868413205E+03  0.00000000000E+00 0. -1.
         21   -1    0    0  503  502 -0.00000000000E+00 -0.00000000000E+00 -0.26767200790E+03  0.26767200790E+03  0.00000000000E+00 0. -1.
         25    1    1    2    0    0  0.28809115932E+03  0.47663206526E+02 -0.88068323682E+01  0.31775911888E+03  0.12500000000E+03 0.  0.
         21    1    1    2  503  501 -0.28809115932E+03 -0.47663206526E+02  0.99818956512E+02  0.30859702107E+03  0.00000000000E+00 0. -1.
<mgrwt>
<rscale>  3 0.31763705E+03</rscale>
<asrwt>0</asrwt>
<pdfrwt beam="1">  1       21 0.55182175E-01 0.31763705E+03</pdfrwt>
<pdfrwt beam="2">  1       21 0.41180309E-01 0.31763705E+03</pdfrwt>
<totfact> 0.16534670E+04</totfact>
</mgrwt>
</event>
<event>
 4    0  0.1005289E-001  0.2814926E+03  0.7546771E-02  0.1094877E+00
         21   -1    0    0  503  501  0.00000000000E+00  0.00000000000E+00  0.41951552694E+03  0.41951552694E+03  0.00000000000E+00 0.  1.
         21   -1    0    0  501  502 -0.00000000000E+00 -0.00000000000E+00 -0.19581518435E+03  0.19581518435E+03  0.00000000000E+00 0. -1.
         25    1    1    2    0    0 -0.13401906614E+03  0.21366320498E+03  0.50579782006E+01  0.28153802300E+03  0.12500000000E+03 0.  0.
         21    1    1    2  503  502  0.13401906614E+03 -0.21366320498E+03  0.21864236439E+03  0.33379268829E+03  0.00000000000E+00 0.  1.
<mgrwt>
<rscale>  3 0.28149258E+03</rscale>
<asrwt>0</asrwt>
<pdfrwt beam="1">  1       21 0.64540850E-01 0.28149258E+03</pdfrwt>
<pdfrwt beam="2">  1       21 0.30125413E-01 0.28149258E+03</pdfrwt>
<totfact> 0.22374579E+04</totfact>
</mgrwt>
</event>
<event>
 4    0  0.1512224E-001  0.2395335E+03  0.7546771E-02  0.1120104E+00
         21   -1    0    0  502  501  0.00000000000E+00  0.00000000000E+00  0.20446014946E+03  0.20446014946E+03  0.00000000000E+00 0.  1.
         21   -1    0    0  503  502 -0.00000000000E+00 -0.00000000000E+00 -0.24119448459E+03  0.24119448459E+03  0.00000000000E+00 0.  1.
         25    1    1    2    0    0  0.18675622670E+03  0.82906027177E+02 -0.27612555840E+02  0.24111978516E+03  0.12500000000E+03 0.  0.
         21    1    1    2  503  501 -0.18675622670E+03 -0.82906027177E+02 -0.91217792908E+01  0.20453484889E+03  0.00000000000E+00 0.  1.
<mgrwt>
<rscale>  3 0.23953350E+03</rscale>
<asrwt>0</asrwt>
<pdfrwt beam="1">  1       21 0.31455408E-01 0.23953350E+03</pdfrwt>
<pdfrwt beam="2">  1       21 0.37106844E-01 0.23953350E+03</pdfrwt>
<totfact> 0.66709360E+04</totfact>
</mgrwt>
</event>
<event>
 4    0  0.1224185E-001  0.2559064E+03  0.7546771E-02  0.1109628E+00
         21   -1    0    0  502  501  0.00000000000E+00  0.00000000000E+00  0.37867461916E+03  0.37867461916E+03  0.00000000000E+00 0. -1.
         21   -1    0    0  503  502 -0.00000000000E+00 -0.00000000000E+00 -0.38491763614E+03  0.38491763614E+03  0.00000000000E+00 0. -1.
         25    1    1    2    0    0  0.15213707493E+03 -0.16345458743E+03 -0.30017911528E+03  0.39445607230E+03  0.12500000000E+03 0.  0.
         21    1    1    2  503  501 -0.15213707493E+03  0.16345458743E+03  0.29393609831E+03  0.36913618301E+03  0.00000000000E+00 0. -1.
<mgrwt>
<rscale>  3 0.25590641E+03</rscale>
<asrwt>0</asrwt>
<pdfrwt beam="1">  1       21 0.58257634E-01 0.25590641E+03</pdfrwt>
<pdfrwt beam="2">  1       21 0.59218098E-01 0.25590641E+03</pdfrwt>
<totfact> 0.70580479E+03</totfact>
</mgrwt>
</event>
<event>
 4    0  0.1156212E-001  0.2491125E+03  0.7546771E-02  0.1113867E+00
         21   -1    0    0  503  501  0.00000000000E+00  0.00000000000E+00  0.72593317367E+03  0.72593317367E+03  0.00000000000E+00 0. -1.
         21   -1    0    0  501  502 -0.00000000000E+00 -0.00000000000E+00 -0.36119651090E+03  0.36119651090E+03  0.00000000000E+00 0. -1.
         25    1    1    2    0    0  0.18453736319E+03 -0.11125634582E+03 -0.29906703247E+03  0.38922757201E+03  0.12500000000E+03 0.  0.
         21    1    1    2  503  502 -0.18453736319E+03  0.11125634582E+03  0.66380369525E+03  0.69790211257E+03  0.00000000000E+00 0. -1.
<mgrwt>
<rscale>  3 0.24911245E+03</rscale>
<asrwt>0</asrwt>
<pdfrwt beam="1">  1       21 0.11168203E+00 0.24911245E+03</pdfrwt>
<pdfrwt beam="2">  1       21 0.55568694E-01 0.24911245E+03</pdfrwt>
<totfact> 0.18329213E+03</totfact>
</mgrwt>
</event>
<event>
 4    0  0.1583283E-001  0.2591002E+03  0.7546771E-02  0.1107685E+00
         21   -1    0    0  502  501  0.00000000000E+00  0.00000000000E+00  0.10154180856E+04  0.10154180856E+04  0.00000000000E+00 0.  1.
         21   -1    0    0  503  502 -0.00000000000E+00 -0.00000000000E+00 -0.65396336284E+02  0.65396336284E+02  0.00000000000E+00 0.  1.
         25    1    1    2    0    0  0.21091712564E+03 -0.83796783815E+02  0.32360450394E+03  0.41455133558E+03  0.12500000000E+03 0.  0.
         21    1    1    2  503  501 -0.21091712564E+03  0.83796783815E+02  0.62641724541E+03  0.66626308634E+03  0.00000000000E+00 0.  1.
<mgrwt>
<rscale>  3 0.25910024E+03</rscale>
<asrwt>0</asrwt>
<pdfrwt beam="1">  1       21 0.15621816E+00 0.25910024E+03</pdfrwt>
<pdfrwt beam="2">  1       21 0.10060976E-01 0.25910024E+03</pdfrwt>
<totfact> 0.20699509E+04</totfact>
</mgrwt>
</event>
<event>
 4    0  0.1005289E-001  0.2699516E+03  0.7546771E-02  0.1101307E+00
         21   -1    0    0  503  501  0.00000000000E+00  0.00000000000E+00  0.63556930312E+02  0.63556930312E+02  0.00000000000E+00 0.  1.
         21   -1    0    0  501  502 -0.00000000000E+00 -0.00000000000E+00 -0.11716979484E+04  0.11716979484E+04  0.00000000000E+00 0.  1.
         25    1    1    2    0    0  0.16179075588E+03 -0.17627429218E+03 -0.36122850470E+03  0.45095444047E+03  0.12500000000E+03 0.  0.
         21    1    1    2  503  502 -0.16179075588E+03  0.17627429218E+03 -0.74691251342E+03  0.78430043827E+03  0.00000000000E+00 0.  1.
<mgrwt>
<rscale>  3 0.26995162E+03</rscale>
<asrwt>0</asrwt>
<pdfrwt beam="1">  1       21 0.97779897E-02 0.26995162E+03</pdfrwt>
<pdfrwt beam="2">  1       21 0.18026121E+00 0.26995162E+03</pdfrwt>
<totfact> 0.14540315E+04</totfact>
</mgrwt>
</event>
<event>
 4    0  0.1463608E-001  0.2598753E+03  0.7546771E-02  0.1107218E+00
         21   -1    0    0  502  501  0.00000000000E+00  0.00000000000E+00  0.48985932945E+03  0.48985932945E+03  0.00000000000E+00 0. -1.
         21   -1    0    0  503  502 -0.00000000000E+00 -0.00000000000E+00 -0.17363402208E+03  0.17363402208E+03  0.00000000000E+00 0. -1.
         25    1    1    2    0    0 -0.12289219884E+03 -0.19185321889E+03 -0.16317261041E+02  0.26038702568E+03  0.12500000000E+03 0.  0.
         21    1    1    2  503  501  0.12289219884E+03  0.19185321889E+03  0.33254256841E+03  0.40310632585E+03  0.00000000000E+00 0. -1.
<mgrwt>
<rscale>  3 0.25987526E+03</rscale>
<asrwt>0</asrwt>
<pdfrwt beam="1">  1       21 0.75362973E-01 0.25987526E+03</pdfrwt>
<pdfrwt beam="2">  1       21 0.26712927E-01 0.25987526E+03</pdfrwt>
<totfact> 0.20238000E+04</totfact>
</mgrwt>
</event>
<event>
 4    0  0.1111501E-001  0.3254469E+03  0.7546771E-02  0.1073169E+00
         21   -1    0    0  503  501  0.00000000000E+00  0.00000000000E+00  0.96395883249E+03  0.96395883249E+03  0.00000000000E+00 0. -1.
         21   -1    0    0  501  502 -0.00000000000E+00 -0.00000000000E+00 -0.25353055391E+03  0.25353055391E+03  0.00000000000E+00 0. -1.
         25    1    1    2    0    0 -0.12762521896E+02 -0.30021294372E+03 -0.11018379198E+03  0.34359301733E+03  0.12500000000E+03 0.  0.
         21    1    1    2  503  502  0.12762521896E+02  0.30021294372E+03  0.82061207056E+03  0.87389636908E+03  0.00000000000E+00 0. -1.
<mgrwt>
<rscale>  3 0.32544691E+03</rscale>
<asrwt>0</asrwt>
<pdfrwt beam="1">  1       21 0.14830136E+00 0.32544691E+03</pdfrwt>
<pdfrwt beam="2">  1       21 0.39004701E-01 0.32544691E+03</pdfrwt>
<totfact> 0.17680015E+03</totfact>
</mgrwt>
</event>
<event>
 4    0  0.1289565E-001  0.2374389E+03  0.7546771E-02  0.1121511E+00
         21   -1    0    0  502  501  0.00000000000E+00  0.00000000000E+00  0.32112135518E+03  0.32112135518E+03  0.00000000000E+00 0. -1.
         21   -1    0    0  503  502 -0.00000000000E+00 -0.00000000000E+00 -0.37752657542E+03  0.37752657542E+03  0.00000000000E+00 0. -1.
         25    1    1    2    0    0  0.13646166532E+03  0.14876300797E+03 -0.29979671970E+03  0.38243338215E+03  0.12500000000E+03 0.  0.
         21    1    1    2  503  501 -0.13646166532E+03 -0.14876300797E+03  0.24339149946E+03  0.31621454845E+03  0.00000000000E+00 0. -1.
<mgrwt>
<rscale>  3 0.23743887E+03</rscale>
<asrwt>0</asrwt>
<pdfrwt beam="1">  1       21 0.49403286E-01 0.23743887E+03</pdfrwt>
<pdfrwt beam="2">  1       21 0.58081011E-01 0.23743887E+03</pdfrwt>
<totfact> 0.10549223E+04</totfact>
</mgrwt>
</event>
<event>
 4    0  0.1250789E-001  0.2418613E+03  0.7546771E-02  0.1118559E+00
         21   -1    0    0  502  501  0.00000000000E+00  0.00000000000E+00  0.86001996649E+03  0.86001996649E+03  0.00000000000E+00 0. -1.
         21   -1    0    0  503  502 -0.00000000000E+00 -0.00000000000E+00 -0.93239265074E+02  0.93239265074E+02  0.00000000000E+00 0. -1.
         25    1    1    2    0    0  0.35050565037E+02  0.20406705648E+03  0.11202662785E+03  0.26654618923E+03  0.12500000000E+03 0.  0.
         21    1    1    2  503  501 -0.35050565037E+02 -0.20406705648E+03  0.65475407357E+03  0.68671304233E+03  0.00000000000E+00 0. -1.
<mgrwt>
<rscale>  3 0.24186134E+03</rscale>
<asrwt>0</asrwt>
<pdfrwt beam="1">  1       21 0.13231076E+00 0.24186134E+03</pdfrwt>
<pdfrwt beam="2">  1       21 0.14344503E-01 0.24186134E+03</pdfrwt>
<totfact> 0.17062407E+04</totfact>
</mgrwt>
</event>
<event>
 4    0  0.1305388E-001  0.3293360E+03  0.7546771E-02  0.1071431E+00
         21   -1    0    0  502  501  0.00000000000E+00  0.00000000000E+00  0.80049147004E+02  0.80049147004E+02  0.00000000000E+00 0. -1.
         21   -1    0    0  503  502 -0.00000000000E+00 -0.00000000000E+00 -0.13267195296E+04  0.13267195296E+04  0.00000000000E+00 0. -1.
         25    1    1    2    0    0  0.28745670952E+03 -0.10102404827E+03 -0.80916823340E+03  0.87362202818E+03  0.12500000000E+03 0.  0.
         21    1    1    2  503  501 -0.28745670952E+03  0.10102404827E+03 -0.43750214918E+03  0.53314664841E+03  0.00000000000E+00 0. -1.
<mgrwt>
<rscale>  3 0.32933603E+03</rscale>
<asrwt>0</asrwt>
<pdfrwt beam="1">  1       21 0.12315255E-01 0.32933603E+03</pdfrwt>
<pdfrwt beam="2">  1       21 0.20411068E+00 0.32933603E+03</pdfrwt>
<totfact> 0.64421194E+03</totfact>
</mgrwt>
</event>
<event>
 4    0  0.1005289E-001  0.2877980E+03  0.7546771E-02  0.1091504E+00
         21   -1    0    0  503  501  0.00000000000E+00  0.00000000000E+00  0.46038463575E+03  0.46038463575E+03  0.00000000000E+00 0.  1.
         21   -1    0    0  501  502 -0.00000000000E+00 -0.00000000000E+00 -0.19047906091E+03  0.19047906091E+03  0.00000000000E+00 0. -1.
         25    1    1    2    0    0  0.14433572337E+03 -0.21533668587E+03  0.16378261947E+02  0.28826365845E+03  0.12500000000E+03 0.  0.
         21    1    1    2  503  502 -0.14433572337E+03  0.21533668587E+03  0.25352731290E+03  0.36260003821E+03  0.00000000000E+00 0.  1.
<mgrwt>
<rscale>  3 0.28779800E+03</rscale>
<asrwt>0</asrwt>
<pdfrwt beam="1">  1       21 0.70828405E-01 0.28779800E+03</pdfrwt>
<pdfrwt beam="2">  1       21 0.29304471E-01 0.28779800E+03</pdfrwt>
<totfact> 0.19178915E+04</totfact>
</mgrwt>
</event>
<event>
 4    0  0.1293357E-001  0.2871410E+03  0.7546771E-02  0.1091851E+00
         21   -1    0    0  503  501  0.00000000000E+00  0.00000000000E+00  0.99574376929E+03  0.99574376929E+03  0.00000000000E+00 0.  1.
         21   -1    0    0  501  502 -0.00000000000E+00 -0.00000000000E+00 -0.13043982199E+03  0.13043982199E+03  0.00000000000E+00 0.  1.
         25    1    1    2    0    0  0.25850379990E+03 -0.85154339460E+00  0.78029008836E+02  0.29755413946E+03  0.12500000000E+03 0.  0.
         21    1    1    2  503  502 -0.25850379990E+03  0.85154339460E+00  0.78727493847E+03  0.82862945182E+03  0.00000000000E+00 0.  1.
<mgrwt>
<rscale>  3 0.28714098E+03</rscale>
<asrwt>0</asrwt>
<pdfrwt beam="1">  1       21 0.15319134E+00 0.28714098E+03</pdfrwt>
<pdfrwt beam="2">  1       21 0.20067666E-01 0.28714098E+03</pdfrwt>
<totfact> 0.60789387E+03</totfact>
</mgrwt>
</event>
<event>
 4    0  0.1083592E-001  0.2797375E+03  0.7546771E-02  0.1095832E+00
         21   -1    0    0  502  501  0.00000000000E+00  0.00000000000E+00  0.12672925388E+03  0.12672925388E+03  0.00000000000E+00 0. -1.
         21   -1    0    0  503  502 -0.00000000000E+00 -0.00000000000E+00 -0.10989636296E+04  0.10989636296E+04  0.00000000000E+00 0. -1.
         25    1    1    2    0    0 -0.19122235350E+03 -0.16143753591E+03 -0.93092983767E+03  0.97205114533E+03  0.12500000000E+03 0.  0.
         21    1    1    2  503  501  0.19122235350E+03  0.16143753591E+03 -0.41304538067E+02  0.25364173817E+03  0.00000000000E+00 0. -1.
<mgrwt>
<rscale>  3 0.27973750E+03</rscale>
<asrwt>0</asrwt>
<pdfrwt beam="1">  1       21 0.19496808E-01 0.27973750E+03</pdfrwt>
<pdfrwt beam="2">  1       21 0.16907133E+00 0.27973750E+03</pdfrwt>
<totfact> 0.49179091E+03</totfact>
</mgrwt>
</event>
<event>
 4    0  0.1005289E-001  0.2424176E+03  0.7546771E-02  0.1118193E+00
         21   -1    0    0  502  501  0.00000000000E+00  0.00000000000E+00  0.76329338050E+02  0.76329338050E+02  0.00000000000E+00 0. -1.
         21   -1    0    0  503  502 -0.00000000000E+00 -0.00000000000E+00 -0.77015135557E+03  0.77015135557E+03  0.00000000000E+00 0.  1.
         25    1    1    2    0    0  0.59138505564E+02  0.19910786998E+03 -0.52698197417E+03  0.58006577888E+03  0.12500000000E+03 0.  0.
         21    1    1    2  503  501 -0.59138505564E+02 -0.19910786998E+03 -0.16684004335E+03  0.26641491474E+03  0.00000000000E+00 0. -1.
<mgrwt>
<rscale>  3 0.24241763E+03</rscale>
<asrwt>0</asrwt>
<pdfrwt beam="1">  1       21 0.11742975E-01 0.24241763E+03</pdfrwt>
<pdfrwt beam="2">  1       21 0.11848482E+00 0.24241763E+03</pdfrwt>
<totfact> 0.32367159E+04</totfact>
</mgrwt>
</event>
<event>
 4    0  0.1149726E-001  0.4806888E+03  0.7546771E-02  0.1018946E+00
         21   -1    0    0  503  501  0.00000000000E+00  0.00000000000E+00  0.12344874921E+04  0.12344874921E+04  0.00000000000E+00 0.  1.
         21   -1    0    0  501  502 -0.00000000000E+00 -0.00000000000E+00 -0.27898363383E+03  0.27898363383E+03  0.00000000000E+00 0.  1.
         25    1    1    2    0    0 -0.23016393792E+03  0.40306480429E+03  0.34262745912E+02  0.48190830096E+03  0.12500000000E+03 0.  0.
         21    1    1    2  503  502  0.23016393792E+03 -0.40306480429E+03  0.92124111240E+03  0.10315628250E+04  0.00000000000E+00 0.  1.
<mgrwt>
<rscale>  3 0.48068875E+03</rscale>
<asrwt>0</asrwt>
<pdfrwt beam="1">  1       21 0.18992115E+00 0.48068875E+03</pdfrwt>
<pdfrwt beam="2">  1       21 0.42920560E-01 0.48068875E+03</pdfrwt>
<totfact> 0.66760800E+02</totfact>
</mgrwt>
</event>
<event>
 4    0  0.1219843E-001  0.2456040E+03  0.7546771E-02  0.1116115E+00
         21   -1    0    0  502  501  0.00000000000E+00  0.00000000000E+00  0.15373694661E+04  0.15373694661E+04  0.00000000000E+00 0.  1.
         21   -1    0    0  503  502 -0.00000000000E+00 -0.00000000000E+00 -0.44763475036E+02  0.44763475036E+02  0.00000000000E+00 0.  1.
         25    1    1    2    0    0 -0.10761562551E+03  0.18197579799E+03  0.40095167055E+03  0.47019523182E+03  0.12500000000E+03 0.  0.
         21    1    1    2  503  501  0.10761562551E+03 -0.18197579799E+03  0.10916543205E+04  0.11119377093E+04  0.00000000000E+00 0.  1.
<mgrwt>
<rscale>  3 0.24560398E+03</rscale>
<asrwt>0</asrwt>
<pdfrwt beam="1">  1       21 0.23651834E+00 0.24560398E+03</pdfrwt>
<pdfrwt beam="2">  1       21 0.68866896E-02 0.24560398E+03</pdfrwt>
<totfact> 0.11908996E+04</totfact>
</mgrwt>
</event>
<event>
 4    0  0.1271382E-001  0.3185477E+03  0.7546771E-02  0.1076320E+00
         21   -1    0    0  503  501  0.00000000000E+00  0.00000000000E+00  0.59497845179E+02  0.59497845179E+02  0.00000000000E+00 0.  1.
         21   -1    0    0  501  502 -0.00000000000E+00 -0.00000000000E+00 -0.16445471497E+04  0.16445471497E+04  0.00000000000E+00 0.  1.
         25    1    1    2    0    0 -0.28448571257E+03 -0.70110638616E+02 -0.10036636192E+04  0.10530020337E+04  0.12500000000E+03 0.  0.
         21    1    1    2  503  502  0.28448571257E+03  0.70110638616E+02 -0.58138568525E+03  0.65104296119E+03  0.00000000000E+00 0.  1.
<mgrwt>
<rscale>  3 0.31854768E+03</rscale>
<asrwt>0</asrwt>
<pdfrwt beam="1">  1       21 0.91535149E-02 0.31854768E+03</pdfrwt>
<pdfrwt beam="2">  1       21 0.25300725E+00 0.31854768E+03</pdfrwt>
<totfact> 0.54750285E+03</totfact>
</mgrwt>
</event>
<event>
 4    0  0.1418565E-001  0.3137692E+03  0.7546771E-02  0.1078553E+00
         21   -1    0    0  502  501  0.00000000000E+00  0.00000000000E+00  0.15469107913E+03  0.15469107913E+03  0.00000000000E+00 0.  1.
         21   -1    0    0  503  502 -0.00000000000E+00 -0.00000000000E+00 -0.59356124444E+03  0.59356124444E+03  0.00000000000E+00 0.  1.
         25    1    1    2    0    0  0.14121405766E+03  0.25076816896E+03 -0.27407198467E+03  0.41661317481E+03  0.12500000000E+03 0.  0.
         21    1    1    2  503  501 -0.14121405766E+03 -0.25076816896E+03 -0.16479818064E+03  0.33163914875E+03  0.00000000000E+00 0.  1.
<mgrwt>
<rscale>  3 0.31376916E+03</rscale>
<asrwt>0</asrwt>
<pdfrwt beam="1">  1       21 0.23798627E-01 0.31376916E+03</pdfrwt>
<pdfrwt beam="2">  1       21 0.91317116E-01 0.31376916E+03</pdfrwt>
<totfact> 0.15879390E+04</totfact>
</mgrwt>
</event>
<event>
 4    0  0.1481124E-001  0.2390971E+03  0.7546771E-02  0.1120396E+00
         21   -1    0    0  503  501  0.00000000000E+00  0.00000000000E+00  0.33306742051E+03  0.33306742051E+03  0.00000000000E+00 0. -1.
         21   -1    0    0  501  502 -0.00000000000E+00 -0.00000000000E+00 -0.36878340190E+03  0.36878340190E+03  0.00000000000E+00 0.  1.
         25    1    1    2    0    0  0.18475236813E+03  0.86075326793E+02 -0.29006934199E+03  0.37590906158E+03  0.12500000000E+03 0.  0.
         21    1    1    2  503  502 -0.18475236813E+03 -0.86075326793E+02  0.25435336059E+03  0.32594176083E+03  0.00000000000E+00 0. -1.
<mgrwt>
<rscale>  3 0.23909705E+03</rscale>
<asrwt>0</asrwt>
<pdfrwt beam="1">  1       21 0.51241141E-01 0.23909705E+03</pdfrwt>
<pdfrwt beam="2">  1       21 0.56735908E-01 0.23909705E+03</pdfrwt>
<totfact> 0.10264363E+04</totfact>
</mgrwt>
</event>
<event>
 4    0  0.1296081E-001  0.4370338E+03  0.7546771E-02  0.1031661E+00
         21   -1    0    0  502  501  0.00000000000E+00  0.00000000000E+00  0.46166465725E+03  0.46166465725E+03  0.00000000000E+00 0.  1.
         21   -1    0    0  503  502 -0.00000000000E+00 -0.00000000000E+00 -0.51618614965E+03  0.51618614965E+03  0.00000000000E+00 0.  1.
         25    1    1    2    0    0  0.39588135984E+03  0.13657040016E+03 -0.26298401916E+03  0.51005795710E+03  0.12500000000E+03 0.  0.
         21    1    1    2  503  501 -0.39588135984E+03 -0.13657040016E+03  0.20846252677E+03  0.46779284981E+03  0.00000000000E+00 0.  1.
<mgrwt>
<rscale>  3 0.43703378E+03</rscale>
<asrwt>0</asrwt>
<pdfrwt beam="1">  1       21 0.71025332E-01 0.43703378E+03</pdfrwt>
<pdfrwt beam="2">  1       21 0.79413254E-01 0.43703378E+03</pdfrwt>
<totfact> 0.21809934E+03</totfact>
</mgrwt>
</event>
<event>
 4    0  0.1005289E-001  0.2447107E+03  0.7546771E-02  0.1116694E+00
         21   -1    0    0  502  501  0.00000000000E+00  0.00000000000E+00  0.77499451189E+03  0.77499451189E+03  0.00000000000E+00 0.  1.
         21   -1    0    0  503  502 -0.00000000000E+00 -0.00000000000E+00 -0.87588694193E+02  0.87588694193E+02  0.00000000000E+00 0. -1.
         25    1    1    2    0    0  0.19574993721E+03  0.77073277017E+02  0.15386367736E+03  0.28906289827E+03  0.12500000000E+03 0.  0.
         21    1    1    2  503  501 -0.19574993721E+03 -0.77073277017E+02  0.53354214034E+03  0.57352030780E+03  0.00000000000E+00 0.  1.
<mgrwt>
<rscale>  3 0.24471070E+03</rscale>
<asrwt>0</asrwt>
<pdfrwt beam="1">  1       21 0.11922992E+00 0.24471070E+03</pdfrwt>
<pdfrwt beam="2">  1       21 0.13475184E-01 0.24471070E+03</pdfrwt>
<totfact> 0.24828404E+04</totfact>
</mgrwt>
</event>
<event>
 4    0  0.1181629E-001  0.2401360E+03  0.7546771E-02  0.1119702E+00
         21   -1    0    0  503  501  0.00000000000E+00  0.00000000000E+00  0.60030877124E+02  0.60030877124E+02  0.00000000000E+00 0.  1.
         21   -1    0    0  501  502 -0.00000000000E+00 -0.00000000000E+00 -0.13381199605E+04  0.13381199605E+04  0.00000000000E+00 0.  1.
         25    1    1    2    0    0  0.12079232038E+03 -0.16567897295E+03 -0.11020522398E+04  0.11279115418E+04  0.12500000000E+03 0.  0.
         21    1    1    2  503  502 -0.12079232038E+03  0.16567897295E+03 -0.17603684355E+03  0.27023929586E+03  0.00000000000E+00 0.  1.
<mgrwt>
<rscale>  3 0.24013602E+03</rscale>
<asrwt>0</asrwt>
<pdfrwt beam="1">  1       21 0.92355200E-02 0.24013602E+03</pdfrwt>
<pdfrwt beam="2">  1       21 0.20586460E+00 0.24013602E+03</pdfrwt>
<totfact> 0.11085987E+04</totfact>
</mgrwt>
</event>
<event>
 4    0  0.1125732E-001  0.3071083E+03  0.7546771E-02  0.1081740E+00
         21   -1    0    0  502  501  0.00000000000E+00  0.00000000000E+00  0.86821227918E+03  0.86821227918E+03  0.00000000000E+00 0. -1.
         21   -1    0    0  503  502 -0.00000000000E+00 -0.00000000000E+00 -0.25936039201E+03  0.25936039201E+03  0.00000000000E+00 0. -1.
         25    1    1    2    0    0  0.16238185723E+03 -0.22874142794E+03 -0.13283852566E+03  0.33460660829E+03  0.12500000000E+03 0.  0.
         21    1    1    2  503  501 -0.16238185723E+03  0.22874142794E+03  0.74169041284E+03  0.79296606290E+03  0.00000000000E+00 0. -1.
<mgrwt>
<rscale>  3 0.30710830E+03</rscale>
<asrwt>0</asrwt>
<pdfrwt beam="1">  1       21 0.13357112E+00 0.30710830E+03</pdfrwt>
<pdfrwt beam="2">  1       21 0.39901599E-01 0.30710830E+03</pdfrwt>
<totfact> 0.22463663E+03</totfact>
</mgrwt>
</event>
<event>
 4    0  0.1487299E-001  0.2883961E+03  0.7546771E-02  0.1091190E+00
         21   -1    0    0  502  501  0.00000000000E+00  0.00000000000E+00  0.19028997573E+03  0.19028997573E+03  0.00000000000E+00 0. -1.
         21   -1    0    0  503  502 -0.00000000000E+00 -0.00000000000E+00 -0.83165975182E+03  0.83165975182E+03  0.00000000000E+00 0.  1.
         25    1    1    2    0    0 -0.22060533233E+03 -0.13740662148E+03 -0.69863283381E+03  0.75581752345E+03  0.12500000000E+03 0.  0.
         21    1    1    2  503  501  0.22060533233E+03  0.13740662148E+03  0.57263057722E+02  0.26613220410E+03  0.00000000000E+00 0. -1.
<mgrwt>
<rscale>  3 0.28839607E+03</rscale>
<asrwt>0</asrwt>
<pdfrwt beam="1">  1       21 0.29275381E-01 0.28839607E+03</pdfrwt>
<pdfrwt beam="2">  1       21 0.12794765E+00 0.28839607E+03</pdfrwt>
<totfact> 0.47097178E+03</totfact>
</mgrwt>
</event>
<event>
 4    0  0.1479529E-001  0.3797290E+03  0.7546771E-02  0.1051034E+00
         21   -1    0    0  503  501  0.00000000000E+00  0.00000000000E+00  0.34057192542E+03  0.34057192542E+03  0.00000000000E+00 0.  1.
         21   -1    0    0  501  502 -0.00000000000E+00 -0.00000000000E+00 -0.42452392638E+03  0.42452392638E+03  0.00000000000E+00 0.  1.
         25    1    1    2    0    0  0.21390804170E+03 -0.28777152345E+03 -0.13479476945E+03  0.40294382969E+03  0.12500000000E+03 0.  0.
         21    1    1    2  503  502 -0.21390804170E+03  0.28777152345E+03  0.50842768491E+02  0.36215202211E+03  0.00000000000E+00 0.  1.
<mgrwt>
<rscale>  3 0.37972898E+03</rscale>
<asrwt>0</asrwt>
<pdfrwt beam="1">  1       21 0.52395681E-01 0.37972898E+03</pdfrwt>
<pdfrwt beam="2">  1       21 0.65311373E-01 0.37972898E+03</pdfrwt>
<totfact> 0.67562521E+03</totfact>
</mgrwt>
</event>
<event>
 4    0  0.1005289E-001  0.2614464E+03  0.7546771E-02  0.1106277E+00
         21   -1    0    0  502  501  0.00000000000E+00  0.00000000000E+00  0.24963378576E+04  0.24963378576E+04  0.00000000000E+00 0.  1.
         21   -1    0    0  503  502 -0.00000000000E+00 -0.00000000000E+00 -0.10576920883E+03  0.10576920883E+03  0.00000000000E+00 0.  1.
         25    1    1    2    0    0 -0.15291338190E+03 -0.17130877921E+03  0.70612282554E+02  0.27081413303E+03  0.12500000000E+03 0.  0.
         21    1    1    2  503  501  0.15291338190E+03  0.17130877921E+03  0.23199563662E+04  0.23312929334E+04  0.00000000000E+00 0.  1.
<mgrwt>
<rscale>  3 0.26144636E+03</rscale>
<asrwt>0</asrwt>
<pdfrwt beam="1">  1       21 0.38405193E+00 0.26144636E+03</pdfrwt>
<pdfrwt beam="2">  1       21 0.16272188E-01 0.26144636E+03</pdfrwt>
<totfact> 0.33529306E+02</totfact>
</mgrwt>
</event>
<event>
 4    0  0.1743064E-001  0.2466282E+03  0.7546771E-02  0.1115454E+00
         21   -1    0    0  502  501  0.00000000000E+00  0.00000000000E+00  0.42391066038E+03  0.42391066038E+03  0.00000000000E+00 0. -1.
         21   -1    0    0  503  502 -0.00000000000E+00 -0.00000000000E+00 -0.40023852013E+03  0.40023852013E+03  0.00000000000E+00 0.  1.
         25    1    1    2    0    0 -0.17370572748E+03  0.12258378652E+03 -0.32970824661E+03  0.41174384314E+03  0.12500000000E+03 0.  0.
         21    1    1    2  503  501  0.17370572748E+03 -0.12258378652E+03  0.35338038686E+03  0.41240533737E+03  0.00000000000E+00 0. -1.
<mgrwt>
<rscale>  3 0.24662819E+03</rscale>
<asrwt>0</asrwt>
<pdfrwt beam="1">  1       21 0.65217025E-01 0.24662819E+03</pdfrwt>
<pdfrwt beam="2">  1       21 0.61575157E-01 0.24662819E+03</pdfrwt>
<totfact> 0.51046128E+03</totfact>
</mgrwt>
</event>
<event>
 4    0  0.1421502E-001  0.2402669E+03  0.7546771E-02  0.1119615E+00
         21   -1    0    0  503  501  0.00000000000E+00  0.00000000000E+00  0.56209411899E+03  0.56209411899E+03  0.00000000000E+00 0.  1.
         21   -1    0    0  501  502 -0.00000000000E+00 -0.00000000000E+00 -0.18012091040E+03  0.18012091040E+03  0.00000000000E+00 0. -1.
         25    1    1    2    0    0  0.41349370081E+01 -0.20514893482E+03 -0.66270492331E+02  0.24923876367E+03  0.12500000000E+03 0.  0.
         21    1    1    2  503  502 -0.41349370081E+01  0.20514893482E+03  0.44824370092E+03  0.49297626573E+03  0.00000000000E+00 0.  1.
<mgrwt>
<rscale>  3 0.24026690E+03</rscale>
<asrwt>0</asrwt>
<pdfrwt beam="1">  1       21 0.86476017E-01 0.24026690E+03</pdfrwt>
<pdfrwt beam="2">  1       21 0.27710910E-01 0.24026690E+03</pdfrwt>
<totfact> 0.13910014E+04</totfact>
</mgrwt>
</event>
<event>
 4    0  0.1243613E-001  0.2822061E+03  0.7546771E-02  0.1094490E+00
         21   -1    0    0  503  501  0.00000000000E+00  0.00000000000E+00  0.16577062673E+04  0.16577062673E+04  0.00000000000E+00 0.  1.
         21   -1    0    0  501  502 -0.00000000000E+00 -0.00000000000E+00 -0.43509059062E+02  0.43509059062E+02  0.00000000000E+00 0.  1.
         25    1    1    2    0    0 -0.24074187623E+03 -0.77837095038E+02  0.77935104017E+03  0.82887170790E+03  0.12500000000E+03 0.  0.
         21    1    1    2  503  502  0.24074187623E+03  0.77837095038E+02  0.83484616802E+03  0.87234361842E+03  0.00000000000E+00 0.  1.
<mgrwt>
<rscale>  3 0.28220607E+03</rscale>
<asrwt>0</asrwt>
<pdfrwt beam="1">  1       21 0.25503168E+00 0.28220607E+03</pdfrwt>
<pdfrwt beam="2">  1       21 0.66937027E-02 0.28220607E+03</pdfrwt>
<totfact> 0.94392250E+03</totfact>
</mgrwt>
</event>
<event>
 4    0  0.1326792E-001  0.2873490E+03  0.7546771E-02  0.1091741E+00
         21   -1    0    0  503  501  0.00000000000E+00  0.00000000000E+00  0.12331852797E+04  0.12331852797E+04  0.00000000000E+00 0. -1.
         21   -1    0    0  501  502 -0.00000000000E+00 -0.00000000000E+00 -0.78018682395E+02  0.78018682395E+02  0.00000000000E+00 0. -1.
         25    1    1    2    0    0  0.16629944475E+03  0.19821437591E+03  0.29030172828E+03  0.40846607886E+03  0.12500000000E+03 0.  0.
         21    1    1    2  503  502 -0.16629944475E+03 -0.19821437591E+03  0.86486486901E+03  0.90273788322E+03  0.00000000000E+00 0. -1.
<mgrwt>
<rscale>  3 0.28734899E+03</rscale>
<asrwt>0</asrwt>
<pdfrwt beam="1">  1       21 0.18972080E+00 0.28734899E+03</pdfrwt>
<pdfrwt beam="2">  1       21 0.12002875E-01 0.28734899E+03</pdfrwt>
<totfact> 0.85988082E+03</totfact>
</mgrwt>
</event>
<event>
 4    0  0.1442229E-001  0.2515182E+03  0.7546771E-02  0.1112349E+00
         21   -1    0    0  502  501  0.00000000000E+00  0.00000000000E+00  0.58641425294E+03  0.58641425294E+03  0.00000000000E+00 0. -1.
         21   -1    0    0  503  502 -0.00000000000E+00 -0.00000000000E+00 -0.94761307346E+02  0.94761307346E+02  0.00000000000E+00 0. -1.
         25    1    1    2    0    0 -0.91814608313E+02  0.19800624169E+03  0.29182471425E+03  0.38525713218E+03  0.12500000000E+03 0.  0.
         21    1    1    2  503  501  0.91814608313E+02 -0.19800624169E+03  0.19982823134E+03  0.29591842810E+03  0.00000000000E+00 0. -1.
<mgrwt>
<rscale>  3 0.25151818E+03</rscale>
<asrwt>0</asrwt>
<pdfrwt beam="1">  1       21 0.90217575E-01 0.25151818E+03</pdfrwt>
<pdfrwt beam="2">  1       21 0.14578663E-01 0.25151818E+03</pdfrwt>
<totfact> 0.41965352E+04</totfact>
</mgrwt>
</event>
<event>
 4    0  0.1324727E-001  0.3761147E+03  0.7546771E-02  0.1052379E+00
         21   -1    0    0  502  501  0.00000000000E+00  0.00000000000E+00  0.75800331295E+03  0.75800331295E+03  0.00000000000E+00 0. -1.
         21   -1    0    0  503  502 -0.00000000000E+00 -0.00000000000E+00 -0.24739493965E+03  0.24739493965E+03  0.00000000000E+00 0. -1.
         25    1    1    2    0    0 -0.14040332280E+03 -0.32576708609E+03 -0.90300317029E+01  0.37622311054E+03  0.12500000000E+03 0.  0.
         21    1    1    2  503  501  0.14040332280E+03  0.32576708609E+03  0.51963840500E+03  0.62917514206E+03  0.00000000000E+00 0. -1.
<mgrwt>
<rscale>  3 0.37611473E+03</rscale>
<asrwt>0</asrwt>
<pdfrwt beam="1">  1       21 0.11661589E+00 0.37611473E+03</pdfrwt>
<pdfrwt beam="2">  1       21 0.38060760E-01 0.37611473E+03</pdfrwt>
<totfact> 0.33760522E+03</totfact>
</mgrwt>
</event>
<event>
 4    0  0.1442209E-001  0.3037057E+03  0.7546771E-02  0.1083403E+00
         21   -1    0    0  503  501  0.00000000000E+00  0.00000000000E+00  0.20621387229E+03  0.20621387229E+03  0.00000000000E+00 0. -1.
         21   -1    0    0  501  502 -0.00000000000E+00 -0.00000000000E+00 -0.41089140960E+03  0.41089140960E+03  0.00000000000E+00 0. -1.
         25    1    1    2    0    0  0.24772570185E+03 -0.12346705608E+03 -0.83665600335E+02  0.31501915811E+03  0.12500000000E+03 0.  0.
         21    1    1    2  503  502 -0.24772570185E+03  0.12346705608E+03 -0.12101193697E+03  0.30208612379E+03  0.00000000000E+00 0. -1.
<mgrwt>
<rscale>  3 0.30370568E+03</rscale>
<asrwt>0</asrwt>
<pdfrwt beam="1">  1       21 0.31725211E-01 0.30370568E+03</pdfrwt>
<pdfrwt beam="2">  1       21 0.63214062E-01 0.30370568E+03</pdfrwt>
<totfact> 0.20954524E+04</totfact>
</mgrwt>
</event>
<event>
 4    0  0.1078555E-001  0.2420456E+03  0.7546771E-02  0.1118438E+00
         21   -1    0    0  503  501  0.00000000000E+00  0.00000000000E+00  0.77475253814E+02  0.77475253814E+02  0.00000000000E+00 0.  1.
         21   -1    0    0  501  502 -0.00000000000E+00 -0.00000000000E+00 -0.12554090103E+04  0.12554090103E+04  0.00000000000E+00 0.  1.
         25    1    1    2    0    0  0.19685356780E+03  0.64882679668E+02 -0.10741481822E+04  0.11010814714E+04  0.12500000000E+03 0.  0.
         21    1    1    2  503  502 -0.19685356780E+03 -0.64882679668E+02 -0.10378557422E+03  0.23180279267E+03  0.00000000000E+00 0.  1.
<mgrwt>
<rscale>  3 0.24204563E+03</rscale>
<asrwt>0</asrwt>
<pdfrwt beam="1">  1       21 0.11919270E-01 0.24204563E+03</pdfrwt>
<pdfrwt beam="2">  1       21 0.19313985E+00 0.24204563E+03</pdfrwt>
<totfact> 0.85021387E+03</totfact>
</mgrwt>
</event>
<event>
 4    0  0.1115274E-001  0.3678121E+03  0.7546771E-02  0.1055533E+00
         21   -1    0    0  502  501  0.00000000000E+00  0.00000000000E+00  0.62122733729E+03  0.62122733729E+03  0.00000000000E+00 0. -1.
         21   -1    0    0  503  502 -0.00000000000E+00 -0.00000000000E+00 -0.43113058076E+03  0.43113058076E+03  0.00000000000E+00 0. -1.
         25    1    1    2    0    0  0.28007597947E+03  0.20302257295E+03 -0.28455113871E+03  0.46503233215E+03  0.12500000000E+03 0.  0.
         21    1    1    2  503  501 -0.28007597947E+03 -0.20302257295E+03  0.47464789524E+03  0.58732558590E+03  0.00000000000E+00 0. -1.
<mgrwt>
<rscale>  3 0.36781207E+03</rscale>
<asrwt>0</asrwt>
<pdfrwt beam="1">  1       21 0.95573436E-01 0.36781207E+03</pdfrwt>
<pdfrwt beam="2">  1       21 0.66327782E-01 0.36781207E+03</pdfrwt>
<totfact> 0.16956555E+03</totfact>
</mgrwt>
</event>
<event>
 4    0  0.1005289E-001  0.2582972E+03  0.7546771E-02  0.1108171E+00
         21   -1    0    0  502  501  0.00000000000E+00  0.00000000000E+00  0.86900708421E+02  0.86900708421E+02  0.00000000000E+00 0.  1.
         21   -1    0    0  503  502 -0.00000000000E+00 -0.00000000000E+00 -0.89760262560E+03  0.89760262560E+03  0.00000000000E+00 0.  1.
         25    1    1    2    0    0 -0.66728840317E+02 -0.21596224172E+03 -0.18083804148E+03  0.31530909474E+03  0.12500000000E+03 0.  0.
         21    1    1    2  503  501  0.66728840317E+02  0.21596224172E+03 -0.62986387570E+03  0.66919423929E+03  0.00000000000E+00 0.  1.
<mgrwt>
<rscale>  3 0.25829717E+03</rscale>
<asrwt>0</asrwt>
<pdfrwt beam="1">  1       21 0.13369339E-01 0.25829717E+03</pdfrwt>
<pdfrwt beam="2">  1       21 0.13809272E+00 0.25829717E+03</pdfrwt>
<totfact> 0.17222063E+04</totfact>
</mgrwt>
</event>
<event>
 4    0  0.1446384E-001  0.2829256E+03  0.7546771E-02  0.1094102E+00
         21   -1    0    0  502  501  0.00000000000E+00  0.00000000000E+00  0.56263874616E+03  0.56263874616E+03  0.00000000000E+00 0.  1.
         21   -1    0    0  503  502 -0.00000000000E+00 -0.00000000000E+00 -0.12818400470E+03  0.12818400470E+03  0.00000000000E+00 0.  1.
         25    1    1    2    0    0 -0.18434998912E+03 -0.17446193521E+03  0.24175624251E+03  0.37214643102E+03  0.12500000000E+03 0.  0.
         21    1    1    2  503  501  0.18434998912E+03  0.17446193521E+03  0.19269849895E+03  0.31867631984E+03  0.00000000000E+00 0.  1.
<mgrwt>
<rscale>  3 0.28292558E+03</rscale>
<asrwt>0</asrwt>
<pdfrwt beam="1">  1       21 0.86559805E-01 0.28292558E+03</pdfrwt>
<pdfrwt beam="2">  1       21 0.19720617E-01 0.28292558E+03</pdfrwt>
<totfact> 0.26049119E+04</totfact>
</mgrwt>
</event>
<event>
 4    0  0.1351101E-001  0.2901494E+03  0.7546771E-02  0.1090271E+00
         21   -1    0    0  503  501  0.00000000000E+00  0.00000000000E+00  0.17521063163E+03  0.17521063163E+03  0.00000000000E+00 0. -1.
         21   -1    0    0  501  502 -0.00000000000E+00 -0.00000000000E+00 -0.68683830623E+03  0.68683830623E+03  0.00000000000E+00 0. -1.
         25    1    1    2    0    0 -0.15261136299E+03 -0.21277092459E+03 -0.52502348982E+03  0.59986361727E+03  0.12500000000E+03 0.  0.
         21    1    1    2  503  502  0.15261136299E+03  0.21277092459E+03  0.13395815218E+02  0.26218532058E+03  0.00000000000E+00 0. -1.
<mgrwt>
<rscale>  3 0.29014943E+03</rscale>
<asrwt>0</asrwt>
<pdfrwt beam="1">  1       21 0.26955482E-01 0.29014943E+03</pdfrwt>
<pdfrwt beam="2">  1       21 0.10566743E+00 0.29014943E+03</pdfrwt>
<totfact> 0.88961517E+03</totfact>
</mgrwt>
</event>
<event>
 4    0  0.1233873E-001  0.2361290E+03  0.7546771E-02  0.1122399E+00
         21   -1    0    0  503  501  0.00000000000E+00  0.00000000000E+00  0.85512696939E+02  0.85512696939E+02  0.00000000000E+00 0. -1.
         21   -1    0    0  501  502 -0.00000000000E+00 -0.00000000000E+00 -0.61663540336E+03  0.61663540336E+03  0.00000000000E+00 0. -1.
         25    1    1    2    0    0  0.12982733374E+03 -0.15256719936E+03 -0.17631770669E+03  0.29469445295E+03  0.12500000000E+03 0.  0.
         21    1    1    2  503  502 -0.12982733374E+03  0.15256719936E+03 -0.35480499973E+03  0.40745364735E+03  0.00000000000E+00 0. -1.
<mgrwt>
<rscale>  3 0.23612896E+03</rscale>
<asrwt>0</asrwt>
<pdfrwt beam="1">  1       21 0.13155800E-01 0.23612896E+03</pdfrwt>
<pdfrwt beam="2">  1       21 0.94866984E-01 0.23612896E+03</pdfrwt>
<totfact> 0.45265663E+04</totfact>
</mgrwt>
</event>
<event>
 4    0  0.1031119E-001  0.2371575E+03  0.7546771E-02  0.1121701E+00
         21   -1    0    0  502  501  0.00000000000E+00  0.00000000000E+00  0.58073756164E+02  0.58073756164E+02  0.00000000000E+00 0.  1.
         21   -1    0    0  503  502 -0.00000000000E+00 -0.00000000000E+00 -0.14409481730E+04  0.14409481730E+04  0.00000000000E+00 0. -1.
         25    1    1    2    0    0  0.17148954568E+03  0.10587743424E+03 -0.12114264947E+04  0.12344220702E+04  0.12500000000E+03 0.  0.
         21    1    1    2  503  501 -0.17148954568E+03 -0.10587743424E+03 -0.17144792216E+03  0.26459985898E+03  0.00000000000E+00 0.  1.
<mgrwt>
<rscale>  3 0.23715753E+03</rscale>
<asrwt>0</asrwt>
<pdfrwt beam="1">  1       21 0.89344251E-02 0.23715753E+03</pdfrwt>
<pdfrwt beam="2">  1       21 0.22168431E+00 0.23715753E+03</pdfrwt>
<totfact> 0.93681075E+03</totfact>
</mgrwt>
</event>
<event>
 4    0  0.1290675E-001  0.2863513E+03  0.7546771E-02  0.1092270E+00
         21   -1    0    0  502  501  0.00000000000E+00  0.00000000000E+00  0.13802451607E+04  0.13802451607E+04  0.00000000000E+00 0. -1.
         21   -1    0    0  503  502 -0.00000000000E+00 -0.00000000000E+00 -0.55549493602E+02  0.55549493602E+02  0.00000000000E+00 0. -1.
         25    1    1    2    0    0 -0.21869774812E+03 -0.13617401876E+03  0.56171531717E+03  0.63049279612E+03  0.12500000000E+03 0.  0.
         21    1    1    2  503  501  0.21869774812E+03  0.13617401876E+03  0.76298034996E+03  0.80530185821E+03  0.00000000000E+00 0. -1.
<mgrwt>
<rscale>  3 0.28635130E+03</rscale>
<asrwt>0</asrwt>
<pdfrwt beam="1">  1       21 0.21234538E+00 0.28635130E+03</pdfrwt>
<pdfrwt beam="2">  1       21 0.85460769E-02 0.28635130E+03</pdfrwt>
<totfact> 0.11224425E+04</totfact>
</mgrwt>
</event>
<event>
 4    0  0.1465209E-001  0.2848752E+03  0.7546771E-02  0.1093056E+00
         21   -1    0    0  502  501  0.00000000000E+00  0.00000000000E+00  0.19918696505E+03  0.19918696505E+03  0.00000000000E+00 0.  1.
         21   -1    0    0  503  502 -0.00000000000E+00 -0.00000000000E+00 -0.38652577043E+03  0.38652577043E+03  0.00000000000E+00 0.  1.
         25    1    1    2    0    0 -0.14178619424E+03  0.21313276837E+03 -0.32953026104E+02  0.28677483111E+03  0.12500000000E+03 0.  0.
         21    1    1    2  503  501  0.14178619424E+03 -0.21313276837E+03 -0.15438577927E+03  0.29893790437E+03  0.00000000000E+00 0.  1.
<mgrwt>
<rscale>  3 0.28487524E+03</rscale>
<asrwt>0</asrwt>
<pdfrwt beam="1">  1       21 0.30644149E-01 0.28487524E+03</pdfrwt>
<pdfrwt beam="2">  1       21 0.59465502E-01 0.28487524E+03</pdfrwt>
<totfact> 0.25828276E+04</totfact>
</mgrwt>
</event>
<event>
 4    0  0.1164566E-001  0.2543345E+03  0.7546771E-02  0.1110596E+00
         21   -1    0    0  503  501  0.00000000000E+00  0.00000000000E+00  0.45098914566E+03  0.45098914566E+03  0.00000000000E+00 0.  1.
         21   -1    0    0  501  502 -0.00000000000E+00 -0.00000000000E+00 -0.14796996472E+03  0.14796996472E+03  0.00000000000E+00 0.  1.
         25    1    1    2    0    0  0.14989601803E+03 -0.16307128072E+03  0.27681735873E+03  0.37591742300E+03  0.12500000000E+03 0.  0.
         21    1    1    2  503  502 -0.14989601803E+03  0.16307128072E+03  0.26201822209E+02  0.22304168737E+03  0.00000000000E+00 0.  1.
<mgrwt>
<rscale>  3 0.25433454E+03</rscale>
<asrwt>0</asrwt>
<pdfrwt beam="1">  1       21 0.69382945E-01 0.25433454E+03</pdfrwt>
<pdfrwt beam="2">  1       21 0.22764610E-01 0.25433454E+03</pdfrwt>
<totfact> 0.33175729E+04</totfact>
</mgrwt>
</event>
<event>
 4    0  0.1039430E-001  0.3076313E+03  0.7546771E-02  0.1081487E+00
         21   -1    0    0  503  501  0.00000000000E+00  0.00000000000E+00  0.23306200287E+04  0.23306200287E+04  0.00000000000E+00 0.  1.
         21   -1    0    0  501  502 -0.00000000000E+00 -0.00000000000E+00 -0.42747256410E+02  0.42747256410E+02  0.00000000000E+00 0.  1.
         25    1    1    2    0    0 -0.55310944984E+01 -0.28103637569E+03  0.76084686438E+03  0.82068568192E+03  0.12500000000E+03 0.  0.
         21    1    1    2  503  502  0.55310944984E+01  0.28103637569E+03  0.15270259079E+04  0.15526816032E+04  0.00000000000E+00 0.  1.
<mgrwt>
<rscale>  3 0.30763133E+03</rscale>
<asrwt>0</asrwt>
<pdfrwt beam="1">  1       21 0.35855683E+00 0.30763133E+03</pdfrwt>
<pdfrwt beam="2">  1       21 0.65765028E-02 0.30763133E+03</pdfrwt>
<totfact> 0.23183332E+03</totfact>
</mgrwt>
</event>
<event>
 4    0  0.1267142E-001  0.3919365E+03  0.7546771E-02  0.1046608E+00
         21   -1    0    0  502  501  0.00000000000E+00  0.00000000000E+00  0.28256010183E+03  0.28256010183E+03  0.00000000000E+00 0. -1.
         21   -1    0    0  503  502 -0.00000000000E+00 -0.00000000000E+00 -0.14452547610E+04  0.14452547610E+04  0.00000000000E+00 0.  1.
         25    1    1    2    0    0  0.35950727066E+03  0.93508104108E+02 -0.12796839531E+04  0.13383591682E+04  0.12500000000E+03 0.  0.
         21    1    1    2  503  501 -0.35950727066E+03 -0.93508104108E+02  0.11698929395E+03  0.38945569465E+03  0.00000000000E+00 0. -1.
<mgrwt>
<rscale>  3 0.39193653E+03</rscale>
<asrwt>0</asrwt>
<pdfrwt beam="1">  1       21 0.43470785E-01 0.39193653E+03</pdfrwt>
<pdfrwt beam="2">  1       21 0.22234689E+00 0.39193653E+03</pdfrwt>
<totfact> 0.41649021E+02</totfact>
</mgrwt>
</event>
<event>
 4    0  0.1193614E-001  0.3419702E+03  0.7546771E-02  0.1065960E+00
         21   -1    0    0  502  501  0.00000000000E+00  0.00000000000E+00  0.20705930257E+03  0.20705930257E+03  0.00000000000E+00 0. -1.
         21   -1    0    0  503  502 -0.00000000000E+00 -0.00000000000E+00 -0.82246678232E+03  0.82246678232E+03  0.00000000000E+00 0. -1.
         25    1    1    2    0    0  0.22168525815E+03  0.22841679351E+03 -0.62349388851E+03  0.71111758117E+03  0.12500000000E+03 0.  0.
         21    1    1    2  503  501 -0.22168525815E+03 -0.22841679351E+03  0.80864087594E+01  0.31840850372E+03  0.00000000000E+00 0. -1.
<mgrwt>
<rscale>  3 0.34197015E+03</rscale>
<asrwt>0</asrwt>
<pdfrwt beam="1">  1       21 0.31855277E-01 0.34197015E+03</pdfrwt>
<pdfrwt beam="2">  1       21 0.12653335E+00 0.34197015E+03</pdfrwt>
<totfact> 0.39891554E+03</totfact>
</mgrwt>
</event>
<event>
 4    0  0.1240170E-001  0.2423131E+03  0.7546771E-02  0.1118261E+00
         21   -1    0    0  502  501  0.00000000000E+00  0.00000000000E+00  0.47863409993E+02  0.47863409993E+02  0.00000000000E+00 0. -1.
         21   -1    0    0  503  502 -0.00000000000E+00 -0.00000000000E+00 -0.12683490515E+04  0.12683490515E+04  0.00000000000E+00 0. -1.
         25    1    1    2    0    0  0.17400659441E+03 -0.11319159702E+03 -0.91735291067E+03  0.94881610191E+03  0.12500000000E+03 0.  0.
         21    1    1    2  503  501 -0.17400659441E+03  0.11319159702E+03 -0.30313273087E+03  0.36739635961E+03  0.00000000000E+00 0. -1.
<mgrwt>
<rscale>  3 0.24231309E+03</rscale>
<asrwt>0</asrwt>
<pdfrwt beam="1">  1       21 0.73636021E-02 0.24231309E+03</pdfrwt>
<pdfrwt beam="2">  1       21 0.19513061E+00 0.24231309E+03</pdfrwt>
<totfact> 0.19328072E+04</totfact>
</mgrwt>
</event>
<event>
 4    0  0.1358980E-001  0.2564773E+03  0.7546771E-02  0.1109278E+00
         21   -1    0    0  503  501  0.00000000000E+00  0.00000000000E+00  0.14510775116E+03  0.14510775116E+03  0.00000000000E+00 0.  1.
         21   -1    0    0  501  502 -0.00000000000E+00 -0.00000000000E+00 -0.67858845748E+03  0.67858845748E+03  0.00000000000E+00 0.  1.
         25    1    1    2    0    0 -0.10613573895E+03  0.19720751777E+03 -0.54195688006E+03  0.59958140398E+03  0.12500000000E+03 0.  0.
         21    1    1    2  503  502  0.10613573895E+03 -0.19720751777E+03  0.84761737397E+01  0.22411480467E+03  0.00000000000E+00 0.  1.
<mgrwt>
<rscale>  3 0.25647729E+03</rscale>
<asrwt>0</asrwt>
<pdfrwt beam="1">  1       21 0.22324269E-01 0.25647729E+03</pdfrwt>
<pdfrwt beam="2">  1       21 0.10439823E+00 0.25647729E+03</pdfrwt>
<totfact> 0.13386163E+04</totfact>
</mgrwt>
</event>
<event>
 4    0  0.1233976E-001  0.2835969E+03  0.7546771E-02  0.1093740E+00
         21   -1    0    0  503  501  0.00000000000E+00  0.00000000000E+00  0.44460195212E+02  0.44460195212E+02  0.00000000000E+00 0. -1.
         21   -1    0    0  501  502 -0.00000000000E+00 -0.00000000000E+00 -0.17052548884E+04  0.17052548884E+04  0.00000000000E+00 0. -1.
         25    1    1    2    0    0  0.25406361061E+03 -0.15934581227E+02 -0.10585160682E+04  0.10958482996E+04  0.12500000000E+03 0.  0.
         21    1    1    2  503  502 -0.25406361061E+03  0.15934581227E+02 -0.60227862506E+03  0.65386678408E+03  0.00000000000E+00 0. -1.
<mgrwt>
<rscale>  3 0.28359695E+03</rscale>
<asrwt>0</asrwt>
<pdfrwt beam="1">  1       21 0.68400299E-02 0.28359695E+03</pdfrwt>
<pdfrwt beam="2">  1       21 0.26234691E+00 0.28359695E+03</pdfrwt>
<totfact> 0.82153596E+03</totfact>
</mgrwt>
</event>
<event>
 4    0  0.1355319E-001  0.2458858E+03  0.7546771E-02  0.1115933E+00
         21   -1    0    0  503  501  0.00000000000E+00  0.00000000000E+00  0.30326995240E+03  0.30326995240E+03  0.00000000000E+00 0.  1.
         21   -1    0    0  501  502 -0.00000000000E+00 -0.00000000000E+00 -0.28284781572E+03  0.28284781572E+03  0.00000000000E+00 0.  1.
         25    1    1    2    0    0 -0.12705699764E+03  0.16938517586E+03 -0.17194457577E+03  0.30004125648E+03  0.12500000000E+03 0.  0.
         21    1    1    2  503  502  0.12705699764E+03 -0.16938517586E+03  0.19236671245E+03  0.28607651164E+03  0.00000000000E+00 0.  1.
<mgrwt>
<rscale>  3 0.24588578E+03</rscale>
<asrwt>0</asrwt>
<pdfrwt beam="1">  1       21 0.46656916E-01 0.24588578E+03</pdfrwt>
<pdfrwt beam="2">  1       21 0.43515049E-01 0.24588578E+03</pdfrwt>
<totfact> 0.21693887E+04</totfact>
</mgrwt>
</event>
<event>
 4    0  0.1197074E-001  0.3628455E+03  0.7546771E-02  0.1057463E+00
         21   -1    0    0  502  501  0.00000000000E+00  0.00000000000E+00  0.15444982232E+03  0.15444982232E+03  0.00000000000E+00 0. -1.
         21   -1    0    0  503  502 -0.00000000000E+00 -0.00000000000E+00 -0.12225675555E+04  0.12225675555E+04  0.00000000000E+00 0. -1.
         25    1    1    2    0    0  0.30621713245E+03 -0.14920762829E+03 -0.94925676396E+03  0.10162407453E+04  0.12500000000E+03 0.  0.
         21    1    1    2  503  501 -0.30621713245E+03  0.14920762829E+03 -0.11886096922E+03  0.36077663249E+03  0.00000000000E+00 0. -1.
<mgrwt>
<rscale>  3 0.36284549E+03</rscale>
<asrwt>0</asrwt>
<pdfrwt beam="1">  1       21 0.23761511E-01 0.36284549E+03</pdfrwt>
<pdfrwt beam="2">  1       21 0.18808732E+00 0.36284549E+03</pdfrwt>
<totfact> 0.23723690E+03</totfact>
</mgrwt>
</event>
<event>
 4    0  0.1038650E-001  0.2408058E+03  0.7546771E-02  0.1119257E+00
         21   -1    0    0  503  501  0.00000000000E+00  0.00000000000E+00  0.54047762116E+03  0.54047762116E+03  0.00000000000E+00 0. -1.
         21   -1    0    0  501  502 -0.00000000000E+00 -0.00000000000E+00 -0.11159950153E+03  0.11159950153E+03  0.00000000000E+00 0. -1.
         25    1    1    2    0    0  0.20167263948E+03 -0.41116561122E+02  0.36367803137E+03  0.43617557888E+03  0.12500000000E+03 0.  0.
         21    1    1    2  503  502 -0.20167263948E+03  0.41116561122E+02  0.65200088259E+02  0.21590154381E+03  0.00000000000E+00 0. -1.
<mgrwt>
<rscale>  3 0.24080578E+03</rscale>
<asrwt>0</asrwt>
<pdfrwt beam="1">  1       21 0.83150402E-01 0.24080578E+03</pdfrwt>
<pdfrwt beam="2">  1       21 0.17169154E-01 0.24080578E+03</pdfrwt>
<totfact> 0.37685569E+04</totfact>
</mgrwt>
</event>
<event>
 4    0  0.1005289E-001  0.2442319E+03  0.7546771E-02  0.1117005E+00
         21   -1    0    0  502  501  0.00000000000E+00  0.00000000000E+00  0.23647196303E+04  0.23647196303E+04  0.00000000000E+00 0. -1.
         21   -1    0    0  503  502 -0.00000000000E+00 -0.00000000000E+00 -0.57446631523E+02  0.57446631523E+02  0.00000000000E+00 0. -1.
         25    1    1    2    0    0  0.11348119896E+03 -0.17648296235E+03  0.23378625001E+03  0.33809056362E+03  0.12500000000E+03 0.  0.
         21    1    1    2  503  501 -0.11348119896E+03  0.17648296235E+03  0.20734867488E+04  0.20840756982E+04  0.00000000000E+00 0. -1.
<mgrwt>
<rscale>  3 0.24423189E+03</rscale>
<asrwt>0</asrwt>
<pdfrwt beam="1">  1       21 0.36380294E+00 0.24423189E+03</pdfrwt>
<pdfrwt beam="2">  1       21 0.88379451E-02 0.24423189E+03</pdfrwt>
<totfact> 0.13662433E+03</totfact>
</mgrwt>
</event>
<event>
 4    0  0.1273016E-001  0.2554431E+03  0.7546771E-02  0.1109912E+00
         21   -1    0    0  502  501  0.00000000000E+00  0.00000000000E+00  0.23470234934E+03  0.23470234934E+03  0.00000000000E+00 0.  1.
         21   -1    0    0  503  502 -0.00000000000E+00 -0.00000000000E+00 -0.51836997001E+03  0.51836997001E+03  0.00000000000E+00 0.  1.
         25    1    1    2    0    0 -0.21086727279E+03 -0.71841129385E+02 -0.42022988545E+03  0.49177668838E+03  0.12500000000E+03 0.  0.
         21    1    1    2  503  501  0.21086727279E+03  0.71841129385E+02  0.13656226478E+03  0.26129563097E+03  0.00000000000E+00 0.  1.
<mgrwt>
<rscale>  3 0.25544306E+03</rscale>
<asrwt>0</asrwt>
<pdfrwt beam="1">  1       21 0.36108054E-01 0.25544306E+03</pdfrwt>
<pdfrwt beam="2">  1       21 0.79749225E-01 0.25544306E+03</pdfrwt>
<totfact> 0.98528942E+03</totfact>
</mgrwt>
</event>
<event>
 4    0  0.1104464E-001  0.2446491E+03  0.7546771E-02  0.1116734E+00
         21   -1    0    0  503  501  0.00000000000E+00  0.00000000000E+00  0.90565793261E+03  0.90565793261E+03  0.00000000000E+00 0.  1.
         21   -1    0    0  501  502 -0.00000000000E+00 -0.00000000000E+00 -0.86211231663E+02  0.86211231663E+02  0.00000000000E+00 0. -1.
         25    1    1    2    0    0 -0.99212673570E+02  0.18543197414E+03  0.14275924095E+03  0.28325496025E+03  0.12500000000E+03 0.  0.
         21    1    1    2  503  502  0.99212673570E+02 -0.18543197414E+03  0.67668745999E+03  0.70861420402E+03  0.00000000000E+00 0.  1.
<mgrwt>
<rscale>  3 0.24464908E+03</rscale>
<asrwt>0</asrwt>
<pdfrwt beam="1">  1       21 0.13933198E+00 0.24464908E+03</pdfrwt>
<pdfrwt beam="2">  1       21 0.13263267E-01 0.24464908E+03</pdfrwt>
<totfact> 0.17196609E+04</totfact>
</mgrwt>
</event>
<event>
 4    0  0.1228718E-001  0.2474420E+03  0.7546771E-02  0.1114932E+00
         21   -1    0    0  502  501  0.00000000000E+00  0.00000000000E+00  0.11696634398E+03  0.11696634398E+03  0.00000000000E+00 0. -1.
         21   -1    0    0  503  502 -0.00000000000E+00 -0.00000000000E+00 -0.49295797799E+03  0.49295797799E+03  0.00000000000E+00 0. -1.
         25    1    1    2    0    0  0.21332538710E+03 -0.97370200956E+01 -0.11545033295E+03  0.27305001322E+03  0.12500000000E+03 0.  0.
         21    1    1    2  503  501 -0.21332538710E+03  0.97370200956E+01 -0.26054130106E+03  0.33687430876E+03  0.00000000000E+00 0. -1.
<mgrwt>
<rscale>  3 0.24744197E+03</rscale>
<asrwt>0</asrwt>
<pdfrwt beam="1">  1       21 0.17994822E-01 0.24744197E+03</pdfrwt>
<pdfrwt beam="2">  1       21 0.75839689E-01 0.24744197E+03</pdfrwt>
<totfact> 0.42449510E+04</totfact>
</mgrwt>
</event>
<event>
 4    0  0.1185692E-001  0.2381535E+03  0.7546771E-02  0.1121029E+00
         21   -1    0    0  503  501  0.00000000000E+00  0.00000000000E+00  0.42797489930E+02  0.42797489930E+02  0.00000000000E+00 0.  1.
         21   -1    0    0  501  502 -0.00000000000E+00 -0.00000000000E+00 -0.11717185518E+04  0.11717185518E+04  0.00000000000E+00 0.  1.
         25    1    1    2    0    0 -0.67553105439E+02 -0.19112478510E+03 -0.71506465965E+03  0.75368068372E+03  0.12500000000E+03 0.  0.
         21    1    1    2  503  502  0.67553105439E+02  0.19112478510E+03 -0.41385640224E+03  0.46083535803E+03  0.00000000000E+00 0.  1.
<mgrwt>
<rscale>  3 0.23815353E+03</rscale>
<asrwt>0</asrwt>
<pdfrwt beam="1">  1       21 0.65842288E-02 0.23815353E+03</pdfrwt>
<pdfrwt beam="2">  1       21 0.18026440E+00 0.23815353E+03</pdfrwt>
<totfact> 0.29600085E+04</totfact>
</mgrwt>
</event>
<event>
 4    0  0.1005289E-001  0.2722203E+03  0.7546771E-02  0.1100016E+00
         21   -1    0    0  502  501  0.00000000000E+00  0.00000000000E+00  0.59056367673E+02  0.59056367673E+02  0.00000000000E+00 0. -1.
         21   -1    0    0  503  502 -0.00000000000E+00 -0.00000000000E+00 -0.12211760703E+04  0.12211760703E+04  0.00000000000E+00 0.  1.
         25    1    1    2    0    0  0.68485553366E+02 -0.23192375898E+03 -0.79775672327E+03  0.84292330050E+03  0.12500000000E+03 0.  0.
         21    1    1    2  503  501 -0.68485553366E+02  0.23192375898E+03 -0.36436297939E+03  0.43730913751E+03  0.00000000000E+00 0. -1.
<mgrwt>
<rscale>  3 0.27222032E+03</rscale>
<asrwt>0</asrwt>
<pdfrwt beam="1">  1       21 0.90855953E-02 0.27222032E+03</pdfrwt>
<pdfrwt beam="2">  1       21 0.18787324E+00 0.27222032E+03</pdfrwt>
<totfact> 0.14678764E+04</totfact>
</mgrwt>
</event>
<event>
 4    0  0.1005289E-001  0.2889564E+03  0.7546771E-02  0.1090895E+00
         21   -1    0    0  502  501  0.00000000000E+00  0.00000000000E+00  0.17690761853E+04  0.17690761853E+04  0.00000000000E+00 0.  1.
         21   -1    0    0  503  502 -0.00000000000E+00 -0.00000000000E+00 -0.20941315599E+03  0.20941315599E+03  0.00000000000E+00 0.  1.
         25    1    1    2    0    0 -0.12985893781E+03  0.22584825082E+03 -0.94438657873E+02  0.30399742800E+03  0.12500000000E+03 0.  0.
         21    1    1    2  503  501  0.12985893781E+03 -0.22584825082E+03  0.16541016872E+04  0.16744919133E+04  0.00000000000E+00 0.  1.
<mgrwt>
<rscale>  3 0.28895636E+03</rscale>
<asrwt>0</asrwt>
<pdfrwt beam="1">  1       21 0.27216556E+00 0.28895636E+03</pdfrwt>
<pdfrwt beam="2">  1       21 0.32217410E-01 0.28895636E+03</pdfrwt>
<totfact> 0.41049816E+02</totfact>
</mgrwt>
</event>
<event>
 4    0  0.1529314E-001  0.2796193E+03  0.7546771E-02  0.1095897E+00
         21   -1    0    0  502  501  0.00000000000E+00  0.00000000000E+00  0.15942525498E+03  0.15942525498E+03  0.00000000000E+00 0.  1.
         21   -1    0    0  503  502 -0.00000000000E+00 -0.00000000000E+00 -0.44796921266E+03  0.44796921266E+03  0.00000000000E+00 0.  1.
         25    1    1    2    0    0 -0.24546985266E+03  0.48026124411E+02 -0.19245072699E+03  0.33944696126E+03  0.12500000000E+03 0.  0.
         21    1    1    2  503  501  0.24546985266E+03 -0.48026124411E+02 -0.96093230689E+02  0.26794750638E+03  0.00000000000E+00 0.  1.
<mgrwt>
<rscale>  3 0.27961931E+03</rscale>
<asrwt>0</asrwt>
<pdfrwt beam="1">  1       21 0.24526962E-01 0.27961931E+03</pdfrwt>
<pdfrwt beam="2">  1       21 0.68918341E-01 0.27961931E+03</pdfrwt>
<totfact> 0.28892441E+04</totfact>
</mgrwt>
</event>
<event>
 4    0  0.1545043E-001  0.2394758E+03  0.7546771E-02  0.1120143E+00
         21   -1    0    0  502  501  0.00000000000E+00  0.00000000000E+00  0.27665947037E+03  0.27665947037E+03  0.00000000000E+00 0. -1.
         21   -1    0    0  503  502 -0.00000000000E+00 -0.00000000000E+00 -0.18187292910E+03  0.18187292910E+03  0.00000000000E+00 0. -1.
         25    1    1    2    0    0 -0.69633892855E+02  0.19202806576E+03  0.17422102348E+02  0.24010869773E+03  0.12500000000E+03 0.  0.
         21    1    1    2  503  501  0.69633892855E+02 -0.19202806576E+03  0.77364438924E+02  0.21842370175E+03  0.00000000000E+00 0. -1.
<mgrwt>
<rscale>  3 0.23947580E+03</rscale>
<asrwt>0</asrwt>
<pdfrwt beam="1">  1       21 0.42562996E-01 0.23947580E+03</pdfrwt>
<pdfrwt beam="2">  1       21 0.27980450E-01 0.23947580E+03</pdfrwt>
<totfact> 0.63502295E+04</totfact>
</mgrwt>
</event>
<event>
 4    0  0.1005289E-001  0.2380221E+03  0.7546771E-02  0.1121117E+00
         21   -1    0    0  502  501  0.00000000000E+00  0.00000000000E+00  0.17553894821E+03  0.17553894821E+03  0.00000000000E+00 0.  1.
         21   -1    0    0  503  502 -0.00000000000E+00 -0.00000000000E+00 -0.44819083395E+03  0.44819083395E+03  0.00000000000E+00 0.  1.
         25    1    1    2    0    0 -0.20204524496E+03  0.14396159291E+02  0.49570592774E+02  0.24312913047E+03  0.12500000000E+03 0.  0.
         21    1    1    2  503  501  0.20204524496E+03 -0.14396159291E+02 -0.32222247851E+03  0.38060065170E+03  0.00000000000E+00 0.  1.
<mgrwt>
<rscale>  3 0.23802212E+03</rscale>
<asrwt>0</asrwt>
<pdfrwt beam="1">  1       21 0.27005993E-01 0.23802212E+03</pdfrwt>
<pdfrwt beam="2">  1       21 0.68952434E-01 0.23802212E+03</pdfrwt>
<totfact> 0.24415958E+04</totfact>
</mgrwt>
</event>
<event>
 4    0  0.1454012E-001  0.2689309E+03  0.7546771E-02  0.1101893E+00
         21   -1    0    0  502  501  0.00000000000E+00  0.00000000000E+00  0.67725572273E+02  0.67725572273E+02  0.00000000000E+00 0. -1.
         21   -1    0    0  503  502 -0.00000000000E+00 -0.00000000000E+00 -0.99045471942E+03  0.99045471942E+03  0.00000000000E+00 0. -1.
         25    1    1    2    0    0  0.51328730204E+02  0.23251702943E+03 -0.59623762864E+03  0.65408188885E+03  0.12500000000E+03 0.  0.
         21    1    1    2  503  501 -0.51328730204E+02 -0.23251702943E+03 -0.32649151851E+03  0.40409840284E+03  0.00000000000E+00 0. -1.
<mgrwt>
<rscale>  3 0.26893086E+03</rscale>
<asrwt>0</asrwt>
<pdfrwt beam="1">  1       21 0.10419319E-01 0.26893086E+03</pdfrwt>
<pdfrwt beam="2">  1       21 0.15237765E+00 0.26893086E+03</pdfrwt>
<totfact> 0.20689984E+04</totfact>
</mgrwt>
</event>
<event>
 4    0  0.1005289E-001  0.4495122E+03  0.7546771E-02  0.1027868E+00
         21   -1    0    0  503  501  0.00000000000E+00  0.00000000000E+00  0.13014880566E+04  0.13014880566E+04  0.00000000000E+00 0.  1.
         21   -1    0    0  501  502 -0.00000000000E+00 -0.00000000000E+00 -0.75587363220E+03  0.75587363220E+03  0.00000000000E+00 0.  1.
         25    1    1    2    0    0  0.34475667187E+03 -0.25995973812E+03 -0.64766088014E+03  0.78836910385E+03  0.12500000000E+03 0.  0.
         21    1    1    2  503  502 -0.34475667187E+03  0.25995973812E+03  0.11932753046E+04  0.12689925850E+04  0.00000000000E+00 0.  1.
<mgrwt>
<rscale>  3 0.44951221E+03</rscale>
<asrwt>0</asrwt>
<pdfrwt beam="1">  1       21 0.20022893E+00 0.44951221E+03</pdfrwt>
<pdfrwt beam="2">  1       21 0.11628825E+00 0.44951221E+03</pdfrwt>
<totfact> 0.60041777E+01</totfact>
</mgrwt>
</event>
<event>
 4    0  0.1045612E-001  0.2558260E+03  0.7546771E-02  0.1109677E+00
         21   -1    0    0  503  501  0.00000000000E+00  0.00000000000E+00  0.13715997492E+03  0.13715997492E+03  0.00000000000E+00 0. -1.
         21   -1    0    0  501  502 -0.00000000000E+00 -0.00000000000E+00 -0.50045552093E+03  0.50045552093E+03  0.00000000000E+00 0. -1.
         25    1    1    2    0    0  0.63230652899E+02 -0.21406504226E+03 -0.63032815593E+02  0.26347693186E+03  0.12500000000E+03 0.  0.
         21    1    1    2  503  502 -0.63230652899E+02  0.21406504226E+03 -0.30026273042E+03  0.37413856398E+03  0.00000000000E+00 0. -1.
<mgrwt>
<rscale>  3 0.25582603E+03</rscale>
<asrwt>0</asrwt>
<pdfrwt beam="1">  1       21 0.21101534E-01 0.25582603E+03</pdfrwt>
<pdfrwt beam="2">  1       21 0.76993158E-01 0.25582603E+03</pdfrwt>
<totfact> 0.30327730E+04</totfact>
</mgrwt>
</event>
<event>
 4    0  0.1767359E-001  0.2579259E+03  0.7546771E-02  0.1108396E+00
         21   -1    0    0  502  501  0.00000000000E+00  0.00000000000E+00  0.32251309088E+03  0.32251309088E+03  0.00000000000E+00 0. -1.
         21   -1    0    0  503  502 -0.00000000000E+00 -0.00000000000E+00 -0.19411455586E+03  0.19411455586E+03  0.00000000000E+00 0. -1.
         25    1    1    2    0    0 -0.18556025198E+03  0.12832831787E+03  0.18184477555E+01  0.25793229932E+03  0.12500000000E+03 0.  0.
         21    1    1    2  503  501  0.18556025198E+03 -0.12832831787E+03  0.12658008726E+03  0.25869534741E+03  0.00000000000E+00 0. -1.
<mgrwt>
<rscale>  3 0.25792589E+03</rscale>
<asrwt>0</asrwt>
<pdfrwt beam="1">  1       21 0.49617399E-01 0.25792589E+03</pdfrwt>
<pdfrwt beam="2">  1       21 0.29863778E-01 0.25792589E+03</pdfrwt>
<totfact> 0.40395301E+04</totfact>
</mgrwt>
</event>
<event>
 4    0  0.1695004E-001  0.2807512E+03  0.7546771E-02  0.1095279E+00
         21   -1    0    0  503  501  0.00000000000E+00  0.00000000000E+00  0.15008903668E+03  0.15008903668E+03  0.00000000000E+00 0.  1.
         21   -1    0    0  501  502 -0.00000000000E+00 -0.00000000000E+00 -0.49564200376E+03  0.49564200376E+03  0.00000000000E+00 0.  1.
         25    1    1    2    0    0 -0.15443290039E+03 -0.19836010597E+03 -0.25274413860E+03  0.37775766301E+03  0.12500000000E+03 0.  0.
         21    1    1    2  503  502  0.15443290039E+03  0.19836010597E+03 -0.92808828482E+02  0.26797337743E+03  0.00000000000E+00 0.  1.
<mgrwt>
<rscale>  3 0.28075123E+03</rscale>
<asrwt>0</asrwt>
<pdfrwt beam="1">  1       21 0.23090622E-01 0.28075123E+03</pdfrwt>
<pdfrwt beam="2">  1       21 0.76252614E-01 0.28075123E+03</pdfrwt>
<totfact> 0.25845922E+04</totfact>
</mgrwt>
</event>
<event>
 4    0  0.1005289E-001  0.2961422E+03  0.7546771E-02  0.1087185E+00
         21   -1    0    0  503  501  0.00000000000E+00  0.00000000000E+00  0.24139940839E+04  0.24139940839E+04  0.00000000000E+00 0. -1.
         21   -1    0    0  501  502 -0.00000000000E+00 -0.00000000000E+00 -0.34239583862E+02  0.34239583862E+02  0.00000000000E+00 0.  1.
         25    1    1    2    0    0  0.74940908086E+02  0.25779654812E+03  0.10148088561E+04  0.10571363272E+04  0.12500000000E+03 0.  0.
         21    1    1    2  503  502 -0.74940908086E+02 -0.25779654812E+03  0.13649456439E+04  0.13910973405E+04  0.00000000000E+00 0. -1.
<mgrwt>
<rscale>  3 0.29614220E+03</rscale>
<asrwt>0</asrwt>
<pdfrwt beam="1">  1       21 0.37138357E+00 0.29614220E+03</pdfrwt>
<pdfrwt beam="2">  1       21 0.52676302E-02 0.29614220E+03</pdfrwt>
<totfact> 0.28671250E+03</totfact>
</mgrwt>
</event>
<event>
 4    0  0.1541489E-001  0.2418585E+03  0.7546771E-02  0.1118561E+00
         21   -1    0    0  502  501  0.00000000000E+00  0.00000000000E+00  0.24311182628E+03  0.24311182628E+03  0.00000000000E+00 0.  1.
         21   -1    0    0  503  502 -0.00000000000E+00 -0.00000000000E+00 -0.20844236586E+03  0.20844236586E+03  0.00000000000E+00 0.  1.
         25    1    1    2    0    0 -0.20353930137E+03  0.37977666362E+02  0.15069839346E+01  0.24186322859E+03  0.12500000000E+03 0.  0.
         21    1    1    2  503  501  0.20353930137E+03 -0.37977666362E+02  0.33162476488E+02  0.20969096354E+03  0.00000000000E+00 0.  1.
<mgrwt>
<rscale>  3 0.24185853E+03</rscale>
<asrwt>0</asrwt>
<pdfrwt beam="1">  1       21 0.37401820E-01 0.24185853E+03</pdfrwt>
<pdfrwt beam="2">  1       21 0.32068056E-01 0.24185853E+03</pdfrwt>
<totfact> 0.63148215E+04</totfact>
</mgrwt>
</event>
<event>
 4    0  0.1353105E-001  0.2861833E+03  0.7546771E-02  0.1092359E+00
         21   -1    0    0  503  501  0.00000000000E+00  0.00000000000E+00  0.26570548245E+03  0.26570548245E+03  0.00000000000E+00 0. -1.
         21   -1    0    0  501  502 -0.00000000000E+00 -0.00000000000E+00 -0.52262436263E+03  0.52262436263E+03  0.00000000000E+00 0. -1.
         25    1    1    2    0    0 -0.24287333533E+03 -0.85372260932E+02 -0.40151001963E+03  0.49306305460E+03  0.12500000000E+03 0.  0.
         21    1    1    2  503  502  0.24287333533E+03  0.85372260932E+02  0.14459113944E+03  0.29526679048E+03  0.00000000000E+00 0. -1.
<mgrwt>
<rscale>  3 0.28618330E+03</rscale>
<asrwt>0</asrwt>
<pdfrwt beam="1">  1       21 0.40877766E-01 0.28618330E+03</pdfrwt>
<pdfrwt beam="2">  1       21 0.80403748E-01 0.28618330E+03</pdfrwt>
<totfact> 0.74019392E+03</totfact>
</mgrwt>
</event>
<event>
 4    0  0.1477123E-001  0.3980328E+03  0.7546771E-02  0.1044463E+00
         21   -1    0    0  502  501  0.00000000000E+00  0.00000000000E+00  0.55948988388E+03  0.55948988388E+03  0.00000000000E+00 0.  1.
         21   -1    0    0  503  502 -0.00000000000E+00 -0.00000000000E+00 -0.29396755357E+03  0.29396755357E+03  0.00000000000E+00 0.  1.
         25    1    1    2    0    0  0.12344796898E+03  0.35716339682E+03  0.11649716132E+02  0.39820322571E+03  0.12500000000E+03 0.  0.
         21    1    1    2  503  501 -0.12344796898E+03 -0.35716339682E+03  0.25387261418E+03  0.45525421174E+03  0.00000000000E+00 0.  1.
<mgrwt>
<rscale>  3 0.39803278E+03</rscale>
<asrwt>0</asrwt>
<pdfrwt beam="1">  1       21 0.86075367E-01 0.39803278E+03</pdfrwt>
<pdfrwt beam="2">  1       21 0.45225778E-01 0.39803278E+03</pdfrwt>
<totfact> 0.48865626E+03</totfact>
</mgrwt>
</event>
<event>
 4    0  0.1201620E-001  0.3590198E+03  0.7546771E-02  0.1058973E+00
         21   -1    0    0  502  501  0.00000000000E+00  0.00000000000E+00  0.17038421812E+04  0.17038421812E+04  0.00000000000E+00 0. -1.
         21   -1    0    0  503  502 -0.00000000000E+00 -0.00000000000E+00 -0.70991225752E+02  0.70991225752E+02  0.00000000000E+00 0. -1.
         25    1    1    2    0    0 -0.12322381747E+03 -0.31318700958E+03  0.83990186450E+03  0.91341685673E+03  0.12500000000E+03 0.  0.
         21    1    1    2  503  501  0.12322381747E+03  0.31318700958E+03  0.79294909091E+03  0.86141655018E+03  0.00000000000E+00 0. -1.
<mgrwt>
<rscale>  3 0.35901979E+03</rscale>
<asrwt>0</asrwt>
<pdfrwt beam="1">  1       21 0.26212954E+00 0.35901979E+03</pdfrwt>
<pdfrwt beam="2">  1       21 0.10921728E-01 0.35901979E+03</pdfrwt>
<totfact> 0.34336149E+03</totfact>
</mgrwt>
</event>
<event>
 4    0  0.1386235E-001  0.2437054E+03  0.7546771E-02  0.1117349E+00
         21   -1    0    0  502  501  0.00000000000E+00  0.00000000000E+00  0.10941098252E+03  0.10941098252E+03  0.00000000000E+00 0.  1.
         21   -1    0    0  503  502 -0.00000000000E+00 -0.00000000000E+00 -0.71219216205E+03  0.71219216205E+03  0.00000000000E+00 0.  1.
         25    1    1    2    0    0  0.20119572624E+03 -0.57337629566E+02 -0.55623597521E+03  0.60728147028E+03  0.12500000000E+03 0.  0.
         21    1    1    2  503  501 -0.20119572624E+03  0.57337629566E+02 -0.46545204314E+02  0.21432167428E+03  0.00000000000E+00 0.  1.
<mgrwt>
<rscale>  3 0.24370540E+03</rscale>
<asrwt>0</asrwt>
<pdfrwt beam="1">  1       21 0.16832458E-01 0.24370540E+03</pdfrwt>
<pdfrwt beam="2">  1       21 0.10956803E+00 0.24370540E+03</pdfrwt>
<totfact> 0.20339742E+04</totfact>
</mgrwt>
</event>
<event>
 4    0  0.1005289E-001  0.2477642E+03  0.7546771E-02  0.1114726E+00
         21   -1    0    0  503  501  0.00000000000E+00  0.00000000000E+00  0.76203676656E+02  0.76203676656E+02  0.00000000000E+00 0. -1.
         21   -1    0    0  501  502 -0.00000000000E+00 -0.00000000000E+00 -0.12254913837E+04  0.12254913837E+04  0.00000000000E+00 0. -1.
         25    1    1    2    0    0  0.10736222389E+03  0.18502826346E+03 -0.10245086180E+04  0.10540422258E+04  0.12500000000E+03 0.  0.
         21    1    1    2  503  502 -0.10736222389E+03 -0.18502826346E+03 -0.12477908903E+03  0.24765283455E+03  0.00000000000E+00 0. -1.
<mgrwt>
<rscale>  3 0.24776421E+03</rscale>
<asrwt>0</asrwt>
<pdfrwt beam="1">  1       21 0.11723643E-01 0.24776421E+03</pdfrwt>
<pdfrwt beam="2">  1       21 0.18853713E+00 0.24776421E+03</pdfrwt>
<totfact> 0.93622617E+03</totfact>
</mgrwt>
</event>
<event>
 4    0  0.1470192E-001  0.3701044E+03  0.7546771E-02  0.1054653E+00
         21   -1    0    0  503  501  0.00000000000E+00  0.00000000000E+00  0.47360666128E+03  0.47360666128E+03  0.00000000000E+00 0. -1.
         21   -1    0    0  501  502 -0.00000000000E+00 -0.00000000000E+00 -0.32836521164E+03  0.32836521164E+03  0.00000000000E+00 0. -1.
         25    1    1    2    0    0  0.31671762838E+03 -0.14505946224E+03 -0.90922045522E+02  0.38110906847E+03  0.12500000000E+03 0.  0.
         21    1    1    2  503  502 -0.31671762838E+03  0.14505946224E+03  0.23616349516E+03  0.42086280444E+03  0.00000000000E+00 0. -1.
<mgrwt>
<rscale>  3 0.37010445E+03</rscale>
<asrwt>0</asrwt>
<pdfrwt beam="1">  1       21 0.72862563E-01 0.37010445E+03</pdfrwt>
<pdfrwt beam="2">  1       21 0.50517725E-01 0.37010445E+03</pdfrwt>
<totfact> 0.57382624E+03</totfact>
</mgrwt>
</event>
<event>
 4    0  0.1736179E-001  0.2590674E+03  0.7546771E-02  0.1107705E+00
         21   -1    0    0  503  501  0.00000000000E+00  0.00000000000E+00  0.64642387019E+02  0.64642387019E+02  0.00000000000E+00 0.  1.
         21   -1    0    0  501  502 -0.00000000000E+00 -0.00000000000E+00 -0.94745946514E+03  0.94745946514E+03  0.00000000000E+00 0.  1.
         25    1    1    2    0    0 -0.18162175529E+03  0.13603115309E+03 -0.56529186914E+03  0.62182862102E+03  0.12500000000E+03 0.  0.
         21    1    1    2  503  502  0.18162175529E+03 -0.13603115309E+03 -0.31752520898E+03  0.39027323114E+03  0.00000000000E+00 0.  1.
<mgrwt>
<rscale>  3 0.25906744E+03</rscale>
<asrwt>0</asrwt>
<pdfrwt beam="1">  1       21 0.99449823E-02 0.25906744E+03</pdfrwt>
<pdfrwt beam="2">  1       21 0.14576300E+00 0.25906744E+03</pdfrwt>
<totfact> 0.25421495E+04</totfact>
</mgrwt>
</event>
<event>
 4    0  0.1624432E-001  0.2611834E+03  0.7546771E-02  0.1106434E+00
         21   -1    0    0  502  501  0.00000000000E+00  0.00000000000E+00  0.26007450700E+03  0.26007450700E+03  0.00000000000E+00 0. -1.
         21   -1    0    0  503  502 -0.00000000000E+00 -0.00000000000E+00 -0.25720709073E+03  0.25720709073E+03  0.00000000000E+00 0. -1.
         25    1    1    2    0    0 -0.15114813213E+03 -0.17247030414E+03 -0.80440226185E+02  0.27328994428E+03  0.12500000000E+03 0.  0.
         21    1    1    2  503  501  0.15114813213E+03  0.17247030414E+03  0.83307642458E+02  0.24399165344E+03  0.00000000000E+00 0. -1.
<mgrwt>
<rscale>  3 0.26118339E+03</rscale>
<asrwt>0</asrwt>
<pdfrwt beam="1">  1       21 0.40011463E-01 0.26118339E+03</pdfrwt>
<pdfrwt beam="2">  1       21 0.39570322E-01 0.26118339E+03</pdfrwt>
<totfact> 0.35889673E+04</totfact>
</mgrwt>
</event>
<event>
 4    0  0.1432587E-001  0.3432816E+03  0.7546771E-02  0.1065407E+00
         21   -1    0    0  502  501  0.00000000000E+00  0.00000000000E+00  0.43012574907E+03  0.43012574907E+03  0.00000000000E+00 0.  1.
         21   -1    0    0  503  502 -0.00000000000E+00 -0.00000000000E+00 -0.27185934392E+03  0.27185934392E+03  0.00000000000E+00 0.  1.
         25    1    1    2    0    0 -0.29485264741E+03  0.12360909040E+03  0.16786451777E+03  0.38212666387E+03  0.12500000000E+03 0.  0.
         21    1    1    2  503  501  0.29485264741E+03 -0.12360909040E+03 -0.95981126267E+01  0.31985842912E+03  0.00000000000E+00 0.  1.
<mgrwt>
<rscale>  3 0.34328165E+03</rscale>
<asrwt>0</asrwt>
<pdfrwt beam="1">  1       21 0.66173192E-01 0.34328165E+03</pdfrwt>
<pdfrwt beam="2">  1       21 0.41824514E-01 0.34328165E+03</pdfrwt>
<totfact> 0.10673796E+04</totfact>
</mgrwt>
</event>
<event>
 4    0  0.1557222E-001  0.2476439E+03  0.7546771E-02  0.1114803E+00
         21   -1    0    0  503  501  0.00000000000E+00  0.00000000000E+00  0.24542784584E+03  0.24542784584E+03  0.00000000000E+00 0.  1.
         21   -1    0    0  501  502 -0.00000000000E+00 -0.00000000000E+00 -0.25804086713E+03  0.25804086713E+03  0.00000000000E+00 0.  1.
         25    1    1    2    0    0  0.17516064545E+03 -0.12256111274E+03 -0.10700846415E+03  0.26977451598E+03  0.12500000000E+03 0.  0.
         21    1    1    2  503  502 -0.17516064545E+03  0.12256111274E+03  0.94395442858E+02  0.23369419699E+03  0.00000000000E+00 0.  1.
<mgrwt>
<rscale>  3 0.24764385E+03</rscale>
<asrwt>0</asrwt>
<pdfrwt beam="1">  1       21 0.37758130E-01 0.24764385E+03</pdfrwt>
<pdfrwt beam="2">  1       21 0.39698595E-01 0.24764385E+03</pdfrwt>
<totfact> 0.40319829E+04</totfact>
</mgrwt>
</event>
<event>
 4    0  0.1005289E-001  0.3076085E+03  0.7546771E-02  0.1081498E+00
         21   -1    0    0  502  501  0.00000000000E+00  0.00000000000E+00  0.22892573082E+03  0.22892573082E+03  0.00000000000E+00 0. -1.
         21   -1    0    0  503  502 -0.00000000000E+00 -0.00000000000E+00 -0.47950437414E+03  0.47950437414E+03  0.00000000000E+00 0.  1.
         25    1    1    2    0    0 -0.18388161088E+03 -0.21256890166E+03 -0.29223676590E+03  0.42429389828E+03  0.12500000000E+03 0.  0.
         21    1    1    2  503  501  0.18388161088E+03  0.21256890166E+03  0.41658122588E+02  0.28413620668E+03  0.00000000000E+00 0. -1.
<mgrwt>
<rscale>  3 0.30760849E+03</rscale>
<asrwt>0</asrwt>
<pdfrwt beam="1">  1       21 0.35219344E-01 0.30760849E+03</pdfrwt>
<pdfrwt beam="2">  1       21 0.73769903E-01 0.30760849E+03</pdfrwt>
<totfact> 0.12051638E+04</totfact>
</mgrwt>
</event>
<event>
 4    0  0.1212146E-001  0.4260380E+03  0.7546771E-02  0.1035119E+00
         21   -1    0    0  503  501  0.00000000000E+00  0.00000000000E+00  0.11375276630E+04  0.11375276630E+04  0.00000000000E+00 0. -1.
         21   -1    0    0  501  502 -0.00000000000E+00 -0.00000000000E+00 -0.18251901068E+03  0.18251901068E+03  0.00000000000E+00 0. -1.
         25    1    1    2    0    0 -0.39675860640E+03 -0.92011011525E+02  0.21940239083E+03  0.47921375929E+03  0.12500000000E+03 0.  0.
         21    1    1    2  503  502  0.39675860640E+03  0.92011011525E+02  0.73560626151E+03  0.84083291441E+03  0.00000000000E+00 0. -1.
<mgrwt>
<rscale>  3 0.42603805E+03</rscale>
<asrwt>0</asrwt>
<pdfrwt beam="1">  1       21 0.17500425E+00 0.42603805E+03</pdfrwt>
<pdfrwt beam="2">  1       21 0.28079848E-01 0.42603805E+03</pdfrwt>
<totfact> 0.20522406E+03</totfact>
</mgrwt>
</event>
<event>
 4    0  0.1482519E-001  0.3102906E+03  0.7546771E-02  0.1080207E+00
         21   -1    0    0  503  501  0.00000000000E+00  0.00000000000E+00  0.19082452872E+03  0.19082452872E+03  0.00000000000E+00 0. -1.
         21   -1    0    0  501  502 -0.00000000000E+00 -0.00000000000E+00 -0.61728603924E+03  0.61728603924E+03  0.00000000000E+00 0. -1.
         25    1    1    2    0    0 -0.27767021335E+03 -0.59619778362E+02 -0.42235272569E+03  0.52408214075E+03  0.12500000000E+03 0.  0.
         21    1    1    2  503  502  0.27767021335E+03  0.59619778362E+02 -0.41087848188E+01  0.28402842721E+03  0.00000000000E+00 0. -1.
<mgrwt>
<rscale>  3 0.31029061E+03</rscale>
<asrwt>0</asrwt>
<pdfrwt beam="1">  1       21 0.29357620E-01 0.31029061E+03</pdfrwt>
<pdfrwt beam="2">  1       21 0.94967083E-01 0.31029061E+03</pdfrwt>
<totfact> 0.96411240E+03</totfact>
</mgrwt>
</event>
<event>
 4    0  0.1458719E-001  0.3266523E+03  0.7546771E-02  0.1072628E+00
         21   -1    0    0  502  501  0.00000000000E+00  0.00000000000E+00  0.13671705088E+03  0.13671705088E+03  0.00000000000E+00 0.  1.
         21   -1    0    0  503  502 -0.00000000000E+00 -0.00000000000E+00 -0.72643463063E+03  0.72643463063E+03  0.00000000000E+00 0.  1.
         25    1    1    2    0    0 -0.27640344362E+03 -0.12115227290E+03 -0.27346377671E+03  0.42600959384E+03  0.12500000000E+03 0.  0.
         21    1    1    2  503  501  0.27640344362E+03  0.12115227290E+03 -0.31625380304E+03  0.43714208767E+03  0.00000000000E+00 0.  1.
<mgrwt>
<rscale>  3 0.32665232E+03</rscale>
<asrwt>0</asrwt>
<pdfrwt beam="1">  1       21 0.21033393E-01 0.32665232E+03</pdfrwt>
<pdfrwt beam="2">  1       21 0.11175917E+00 0.32665232E+03</pdfrwt>
<totfact> 0.12284422E+04</totfact>
</mgrwt>
</event>
<event>
 4    0  0.1005289E-001  0.7585915E+03  0.7546771E-02  0.9621967E-01
         21   -1    0    0  502  501  0.00000000000E+00  0.00000000000E+00  0.13984011341E+04  0.13984011341E+04  0.00000000000E+00 0.  1.
         21   -1    0    0  503  502 -0.00000000000E+00 -0.00000000000E+00 -0.62786564502E+03  0.62786564502E+03  0.00000000000E+00 0.  1.
         25    1    1    2    0    0 -0.43013710635E+03  0.61222391127E+03 -0.21538642524E+03  0.78857615990E+03  0.12500000000E+03 0.  0.
         21    1    1    2  503  501  0.43013710635E+03 -0.61222391127E+03  0.98592191435E+03  0.12376906193E+04  0.00000000000E+00 0.  1.
<mgrwt>
<rscale>  3 0.75859149E+03</rscale>
<asrwt>0</asrwt>
<pdfrwt beam="1">  1       21 0.21513864E+00 0.75859149E+03</pdfrwt>
<pdfrwt beam="2">  1       21 0.96594715E-01 0.75859149E+03</pdfrwt>
<totfact> 0.65934077E+01</totfact>
</mgrwt>
</event>
<event>
 4    0  0.1185951E-001  0.3138147E+03  0.7546771E-02  0.1078532E+00
         21   -1    0    0  502  501  0.00000000000E+00  0.00000000000E+00  0.47903640613E+03  0.47903640613E+03  0.00000000000E+00 0.  1.
         21   -1    0    0  503  502 -0.00000000000E+00 -0.00000000000E+00 -0.54667283106E+03  0.54667283106E+03  0.00000000000E+00 0.  1.
         25    1    1    2    0    0 -0.21762019008E+03 -0.18840405505E+03 -0.44906991022E+03  0.54785346523E+03  0.12500000000E+03 0.  0.
         21    1    1    2  503  501  0.21762019008E+03  0.18840405505E+03  0.38143348529E+03  0.47785577196E+03  0.00000000000E+00 0.  1.
<mgrwt>
<rscale>  3 0.31381465E+03</rscale>
<asrwt>0</asrwt>
<pdfrwt beam="1">  1       21 0.73697909E-01 0.31381465E+03</pdfrwt>
<pdfrwt beam="2">  1       21 0.84103513E-01 0.31381465E+03</pdfrwt>
<totfact> 0.18603926E+03</totfact>
</mgrwt>
</event>
<event>
 4    0  0.1005289E-001  0.2524353E+03  0.7546771E-02  0.1111775E+00
         21   -1    0    0  502  501  0.00000000000E+00  0.00000000000E+00  0.63886704626E+02  0.63886704626E+02  0.00000000000E+00 0.  1.
         21   -1    0    0  503  502 -0.00000000000E+00 -0.00000000000E+00 -0.88175924719E+03  0.88175924719E+03  0.00000000000E+00 0. -1.
         25    1    1    2    0    0 -0.21768364461E+03 -0.26690823338E+02 -0.48971641955E+03  0.55094985321E+03  0.12500000000E+03 0.  0.
         21    1    1    2  503  501  0.21768364461E+03  0.26690823338E+02 -0.32815612301E+03  0.39469609860E+03  0.00000000000E+00 0.  1.
<mgrwt>
<rscale>  3 0.25243528E+03</rscale>
<asrwt>0</asrwt>
<pdfrwt beam="1">  1       21 0.98287243E-02 0.25243528E+03</pdfrwt>
<pdfrwt beam="2">  1       21 0.13565526E+00 0.25243528E+03</pdfrwt>
<totfact> 0.31420975E+04</totfact>
</mgrwt>
</event>
<event>
 4    0  0.1639663E-001  0.3765073E+03  0.7546771E-02  0.1052232E+00
         21   -1    0    0  503  501  0.00000000000E+00  0.00000000000E+00  0.10195988638E+04  0.10195988638E+04  0.00000000000E+00 0.  1.
         21   -1    0    0  501  502 -0.00000000000E+00 -0.00000000000E+00 -0.46417729061E+03  0.46417729061E+03  0.00000000000E+00 0. -1.
         25    1    1    2    0    0 -0.19607138839E+03  0.29612285937E+03 -0.34821909718E+03  0.51284917552E+03  0.12500000000E+03 0.  0.
         21    1    1    2  503  502  0.19607138839E+03 -0.29612285937E+03  0.90364067038E+03  0.97092697889E+03  0.00000000000E+00 0.  1.
<mgrwt>
<rscale>  3 0.37650729E+03</rscale>
<asrwt>0</asrwt>
<pdfrwt beam="1">  1       21 0.15686136E+00 0.37650729E+03</pdfrwt>
<pdfrwt beam="2">  1       21 0.71411891E-01 0.37650729E+03</pdfrwt>
<totfact> 0.40490781E+02</totfact>
</mgrwt>
</event>
<event>
 4    0  0.1457973E-001  0.3095629E+03  0.7546771E-02  0.1080556E+00
         21   -1    0    0  502  501  0.00000000000E+00  0.00000000000E+00  0.51243696038E+03  0.51243696038E+03  0.00000000000E+00 0. -1.
         21   -1    0    0  503  502 -0.00000000000E+00 -0.00000000000E+00 -0.24942337198E+03  0.24942337198E+03  0.00000000000E+00 0. -1.
         25    1    1    2    0    0  0.14081271647E+03 -0.24571525416E+03 -0.77352891130E+02  0.31908098818E+03  0.12500000000E+03 0.  0.
         21    1    1    2  503  501 -0.14081271647E+03  0.24571525416E+03  0.34036647952E+03  0.44277934418E+03  0.00000000000E+00 0. -1.
<mgrwt>
<rscale>  3 0.30956293E+03</rscale>
<asrwt>0</asrwt>
<pdfrwt beam="1">  1       21 0.78836455E-01 0.30956293E+03</pdfrwt>
<pdfrwt beam="2">  1       21 0.38372827E-01 0.30956293E+03</pdfrwt>
<totfact> 0.87106022E+03</totfact>
</mgrwt>
</event>
<event>
 4    0  0.1514430E-001  0.2968201E+03  0.7546771E-02  0.1086841E+00
         21   -1    0    0  503  501  0.00000000000E+00  0.00000000000E+00  0.39845958805E+03  0.39845958805E+03  0.00000000000E+00 0. -1.
         21   -1    0    0  501  502 -0.00000000000E+00 -0.00000000000E+00 -0.29250512297E+03  0.29250512297E+03  0.00000000000E+00 0. -1.
         25    1    1    2    0    0  0.11763812934E+02 -0.26895865851E+03 -0.13829925827E+03  0.32745813797E+03  0.12500000000E+03 0.  0.
         21    1    1    2  503  502 -0.11763812934E+02  0.26895865851E+03  0.24425372335E+03  0.36350657306E+03  0.00000000000E+00 0. -1.
<mgrwt>
<rscale>  3 0.29682006E+03</rscale>
<asrwt>0</asrwt>
<pdfrwt beam="1">  1       21 0.61301475E-01 0.29682006E+03</pdfrwt>
<pdfrwt beam="2">  1       21 0.45000788E-01 0.29682006E+03</pdfrwt>
<totfact> 0.11065096E+04</totfact>
</mgrwt>
</event>
<event>
 4    0  0.1271184E-001  0.3924591E+03  0.7546771E-02  0.1046423E+00
         21   -1    0    0  502  501  0.00000000000E+00  0.00000000000E+00  0.10600497848E+04  0.10600497848E+04  0.00000000000E+00 0.  1.
         21   -1    0    0  503  502 -0.00000000000E+00 -0.00000000000E+00 -0.22464436066E+03  0.22464436066E+03  0.00000000000E+00 0. -1.
         25    1    1    2    0    0 -0.33036898572E+03  0.17104240964E+03  0.25326367938E+02  0.39327547283E+03  0.12500000000E+03 0.  0.
         21    1    1    2  503  501  0.33036898572E+03 -0.17104240964E+03  0.81007905621E+03  0.89141867264E+03  0.00000000000E+00 0.  1.
<mgrwt>
<rscale>  3 0.39245913E+03</rscale>
<asrwt>0</asrwt>
<pdfrwt beam="1">  1       21 0.16308458E+00 0.39245913E+03</pdfrwt>
<pdfrwt beam="2">  1       21 0.34560671E-01 0.39245913E+03</pdfrwt>
<totfact> 0.16826621E+03</totfact>
</mgrwt>
</event>
<event>
 4    0  0.1492884E-001  0.3053070E+03  0.7546771E-02  0.1082617E+00
         21   -1    0    0  503  501  0.00000000000E+00  0.00000000000E+00  0.30877505065E+03  0.30877505065E+03  0.00000000000E+00 0.  1.
         21   -1    0    0  501  502 -0.00000000000E+00 -0.00000000000E+00 -0.32281786052E+03  0.32281786052E+03  0.00000000000E+00 0.  1.
         25    1    1    2    0    0 -0.18338125676E+03  0.20966319071E+03 -0.12745679343E+03  0.33084372906E+03  0.12500000000E+03 0.  0.
         21    1    1    2  503  502  0.18338125676E+03 -0.20966319071E+03  0.11341398356E+03  0.30074918210E+03  0.00000000000E+00 0.  1.
<mgrwt>
<rscale>  3 0.30530696E+03</rscale>
<asrwt>0</asrwt>
<pdfrwt beam="1">  1       21 0.47503854E-01 0.30530696E+03</pdfrwt>
<pdfrwt beam="2">  1       21 0.49664286E-01 0.30530696E+03</pdfrwt>
<totfact> 0.15457804E+04</totfact>
</mgrwt>
</event>
<event>
 4    0  0.1005289E-001  0.2511496E+03  0.7546771E-02  0.1112580E+00
         21   -1    0    0  503  501  0.00000000000E+00  0.00000000000E+00  0.17554531846E+02  0.17554531846E+02  0.00000000000E+00 0.  1.
         21   -1    0    0  501  502 -0.00000000000E+00 -0.00000000000E+00 -0.33474362268E+04  0.33474362268E+04  0.00000000000E+00 0.  1.
         25    1    1    2    0    0 -0.14335201808E+03 -0.16401625576E+03 -0.22011403385E+04  0.22154220643E+04  0.12500000000E+03 0.  0.
         21    1    1    2  503  502  0.14335201808E+03  0.16401625576E+03 -0.11287413565E+04  0.11495686944E+04  0.00000000000E+00 0.  1.
<mgrwt>
<rscale>  3 0.25114962E+03</rscale>
<asrwt>0</asrwt>
<pdfrwt beam="1">  1       21 0.27006982E-02 0.25114962E+03</pdfrwt>
<pdfrwt beam="2">  1       21 0.51499001E+00 0.25114962E+03</pdfrwt>
<totfact> 0.10285385E+03</totfact>
</mgrwt>
</event>
<event>
 4    0  0.1033659E-001  0.2542598E+03  0.7546771E-02  0.1110642E+00
         21   -1    0    0  502  501  0.00000000000E+00  0.00000000000E+00  0.79577967522E+02  0.79577967522E+02  0.00000000000E+00 0. -1.
         21   -1    0    0  503  502 -0.00000000000E+00 -0.00000000000E+00 -0.14754048801E+04  0.14754048801E+04  0.00000000000E+00 0. -1.
         25    1    1    2    0    0 -0.10649688095E+03 -0.19411718104E+03 -0.12801857846E+04  0.13051910621E+04  0.12500000000E+03 0.  0.
         21    1    1    2  503  501  0.10649688095E+03  0.19411718104E+03 -0.11564112804E+03  0.24979178553E+03  0.00000000000E+00 0. -1.
<mgrwt>
<rscale>  3 0.25425984E+03</rscale>
<asrwt>0</asrwt>
<pdfrwt beam="1">  1       21 0.12242764E-01 0.25425984E+03</pdfrwt>
<pdfrwt beam="2">  1       21 0.22698537E+00 0.25425984E+03</pdfrwt>
<totfact> 0.48938586E+03</totfact>
</mgrwt>
</event>
<event>
 4    0  0.1005289E-001  0.2562743E+03  0.7546771E-02  0.1109403E+00
         21   -1    0    0  502  501  0.00000000000E+00  0.00000000000E+00  0.15777072059E+03  0.15777072059E+03  0.00000000000E+00 0.  1.
         21   -1    0    0  503  502 -0.00000000000E+00 -0.00000000000E+00 -0.40729353884E+03  0.40729353884E+03  0.00000000000E+00 0. -1.
         25    1    1    2    0    0 -0.21262424280E+03  0.69587801031E+02 -0.22311442547E+03  0.33978901915E+03  0.12500000000E+03 0.  0.
         21    1    1    2  503  501  0.21262424280E+03 -0.69587801031E+02 -0.26408392780E+02  0.22527524029E+03  0.00000000000E+00 0.  1.
<mgrwt>
<rscale>  3 0.25627433E+03</rscale>
<asrwt>0</asrwt>
<pdfrwt beam="1">  1       21 0.24272419E-01 0.25627433E+03</pdfrwt>
<pdfrwt beam="2">  1       21 0.62660543E-01 0.25627433E+03</pdfrwt>
<totfact> 0.36689413E+04</totfact>
</mgrwt>
</event>
<event>
 4    0  0.1232551E-001  0.3131157E+03  0.7546771E-02  0.1078862E+00
         21   -1    0    0  502  501  0.00000000000E+00  0.00000000000E+00  0.20452516650E+03  0.20452516650E+03  0.00000000000E+00 0.  1.
         21   -1    0    0  503  502 -0.00000000000E+00 -0.00000000000E+00 -0.64765669685E+03  0.64765669685E+03  0.00000000000E+00 0. -1.
         25    1    1    2    0    0 -0.90220727349E+01  0.28694078922E+03 -0.46902075035E+03  0.56393428569E+03  0.12500000000E+03 0.  0.
         21    1    1    2  503  501  0.90220727349E+01 -0.28694078922E+03  0.25889219996E+02  0.28824757766E+03  0.00000000000E+00 0.  1.
<mgrwt>
<rscale>  3 0.31311566E+03</rscale>
<asrwt>0</asrwt>
<pdfrwt beam="1">  1       21 0.31465410E-01 0.31311566E+03</pdfrwt>
<pdfrwt beam="2">  1       21 0.99639492E-01 0.31311566E+03</pdfrwt>
<totfact> 0.74877721E+03</totfact>
</mgrwt>
</event>
<event>
 4    0  0.1005289E-001  0.3213212E+03  0.7546771E-02  0.1075043E+00
         21   -1    0    0  502  501  0.00000000000E+00  0.00000000000E+00  0.87142954785E+03  0.87142954785E+03  0.00000000000E+00 0. -1.
         21   -1    0    0  503  502 -0.00000000000E+00 -0.00000000000E+00 -0.15762987009E+03  0.15762987009E+03  0.00000000000E+00 0.  1.
         25    1    1    2    0    0  0.12595671154E+03 -0.26787536561E+03  0.82403595523E+02  0.33171924460E+03  0.12500000000E+03 0.  0.
         21    1    1    2  503  501 -0.12595671154E+03  0.26787536561E+03  0.63139608224E+03  0.69734017334E+03  0.00000000000E+00 0. -1.
<mgrwt>
<rscale>  3 0.32132119E+03</rscale>
<asrwt>0</asrwt>
<pdfrwt beam="1">  1       21 0.13406608E+00 0.32132119E+03</pdfrwt>
<pdfrwt beam="2">  1       21 0.24250750E-01 0.32132119E+03</pdfrwt>
<totfact> 0.59214919E+03</totfact>
</mgrwt>
</event>
<event>
 4    0  0.1087629E-001  0.3269496E+03  0.7546771E-02  0.1072495E+00
         21   -1    0    0  503  501  0.00000000000E+00  0.00000000000E+00  0.25362023864E+03  0.25362023864E+03  0.00000000000E+00 0. -1.
         21   -1    0    0  501  502 -0.00000000000E+00 -0.00000000000E+00 -0.11554053273E+04  0.11554053273E+04  0.00000000000E+00 0. -1.
         25    1    1    2    0    0  0.15746230581E+02 -0.30170032224E+03 -0.10301393561E+04  0.10807789419E+04  0.12500000000E+03 0.  0.
         21    1    1    2  503  502 -0.15746230581E+02  0.30170032224E+03  0.12835426747E+03  0.32824662404E+03  0.00000000000E+00 0. -1.
<mgrwt>
<rscale>  3 0.32694958E+03</rscale>
<asrwt>0</asrwt>
<pdfrwt beam="1">  1       21 0.39018498E-01 0.32694958E+03</pdfrwt>
<pdfrwt beam="2">  1       21 0.17775467E+00 0.32694958E+03</pdfrwt>
<totfact> 0.10691231E+03</totfact>
</mgrwt>
</event>
<event>
 4    0  0.1161482E-001  0.2405136E+03  0.7546771E-02  0.1119451E+00
         21   -1    0    0  503  501  0.00000000000E+00  0.00000000000E+00  0.15645808887E+03  0.15645808887E+03  0.00000000000E+00 0. -1.
         21   -1    0    0  501  502 -0.00000000000E+00 -0.00000000000E+00 -0.83493253756E+03  0.83493253756E+03  0.00000000000E+00 0. -1.
         25    1    1    2    0    0  0.17042421497E+03 -0.11479271234E+03 -0.73902339527E+03  0.77717588654E+03  0.12500000000E+03 0.  0.
         21    1    1    2  503  502 -0.17042421497E+03  0.11479271234E+03  0.60548946583E+02  0.21421473989E+03  0.00000000000E+00 0. -1.
<mgrwt>
<rscale>  3 0.24051358E+03</rscale>
<asrwt>0</asrwt>
<pdfrwt beam="1">  1       21 0.24070476E-01 0.24051358E+03</pdfrwt>
<pdfrwt beam="2">  1       21 0.12845116E+00 0.24051358E+03</pdfrwt>
<totfact> 0.70096299E+03</totfact>
</mgrwt>
</event>
<event>
 4    0  0.1005289E-001  0.2379356E+03  0.7546771E-02  0.1121176E+00
         21   -1    0    0  502  501  0.00000000000E+00  0.00000000000E+00  0.28047535612E+03  0.28047535612E+03  0.00000000000E+00 0.  1.
         21   -1    0    0  503  502 -0.00000000000E+00 -0.00000000000E+00 -0.20690374888E+03  0.20690374888E+03  0.00000000000E+00 0. -1.
         25    1    1    2    0    0  0.39660881758E+02 -0.19853298021E+03 -0.59302165869E+02  0.24521434838E+03  0.12500000000E+03 0.  0.
         21    1    1    2  503  501 -0.39660881758E+02  0.19853298021E+03  0.13287377311E+03  0.24216475663E+03  0.00000000000E+00 0.  1.
<mgrwt>
<rscale>  3 0.23793556E+03</rscale>
<asrwt>0</asrwt>
<pdfrwt beam="1">  1       21 0.43150055E-01 0.23793556E+03</pdfrwt>
<pdfrwt beam="2">  1       21 0.31831346E-01 0.23793556E+03</pdfrwt>
<totfact> 0.47996645E+04</totfact>
</mgrwt>
</event>
<event>
 4    0  0.1079245E-001  0.3249250E+03  0.7546771E-02  0.1073405E+00
         21   -1    0    0  503  501  0.00000000000E+00  0.00000000000E+00  0.11531521311E+04  0.11531521311E+04  0.00000000000E+00 0. -1.
         21   -1    0    0  501  502 -0.00000000000E+00 -0.00000000000E+00 -0.19489664478E+03  0.19489664478E+03  0.00000000000E+00 0. -1.
         25    1    1    2    0    0 -0.10025839822E+03  0.28266506219E+03 -0.19321490358E+02  0.32549900735E+03  0.12500000000E+03 0.  0.
         21    1    1    2  503  502  0.10025839822E+03 -0.28266506219E+03  0.97757697663E+03  0.10225497685E+04  0.00000000000E+00 0. -1.
<mgrwt>
<rscale>  3 0.32492504E+03</rscale>
<asrwt>0</asrwt>
<pdfrwt beam="1">  1       21 0.17740802E+00 0.32492504E+03</pdfrwt>
<pdfrwt beam="2">  1       21 0.29984100E-01 0.32492504E+03</pdfrwt>
<totfact> 0.18250005E+03</totfact>
</mgrwt>
</event>
<event>
 4    0  0.1550202E-001  0.2461442E+03  0.7546771E-02  0.1115766E+00
         21   -1    0    0  503  501  0.00000000000E+00  0.00000000000E+00  0.21705002927E+03  0.21705002927E+03  0.00000000000E+00 0. -1.
         21   -1    0    0  501  502 -0.00000000000E+00 -0.00000000000E+00 -0.24347539408E+03  0.24347539408E+03  0.00000000000E+00 0. -1.
         25    1    1    2    0    0 -0.17656661253E+03 -0.11741456336E+03 -0.33210976477E+02  0.24837455045E+03  0.12500000000E+03 0.  0.
         21    1    1    2  503  502  0.17656661253E+03  0.11741456336E+03  0.67856116663E+01  0.21215087291E+03  0.00000000000E+00 0. -1.
<mgrwt>
<rscale>  3 0.24614416E+03</rscale>
<asrwt>0</asrwt>
<pdfrwt beam="1">  1       21 0.33392312E-01 0.24614416E+03</pdfrwt>
<pdfrwt beam="2">  1       21 0.37457753E-01 0.24614416E+03</pdfrwt>
<totfact> 0.58015389E+04</totfact>
</mgrwt>
</event>
<event>
 4    0  0.1276769E-001  0.3113879E+03  0.7546771E-02  0.1079683E+00
         21   -1    0    0  502  501  0.00000000000E+00  0.00000000000E+00  0.80187550052E+03  0.80187550052E+03  0.00000000000E+00 0.  1.
         21   -1    0    0  503  502 -0.00000000000E+00 -0.00000000000E+00 -0.11105704256E+03  0.11105704256E+03  0.00000000000E+00 0.  1.
         25    1    1    2    0    0  0.20333193358E+03  0.19998389439E+03  0.34728410653E+03  0.46644258369E+03  0.12500000000E+03 0.  0.
         21    1    1    2  503  501 -0.20333193358E+03 -0.19998389439E+03  0.34353435143E+03  0.44648995940E+03  0.00000000000E+00 0.  1.
<mgrwt>
<rscale>  3 0.31138791E+03</rscale>
<asrwt>0</asrwt>
<pdfrwt beam="1">  1       21 0.12336546E+00 0.31138791E+03</pdfrwt>
<pdfrwt beam="2">  1       21 0.17085699E-01 0.31138791E+03</pdfrwt>
<totfact> 0.14280517E+04</totfact>
</mgrwt>
</event>
<event>
 4    0  0.1068623E-001  0.2400103E+03  0.7546771E-02  0.1119786E+00
         21   -1    0    0  502  501  0.00000000000E+00  0.00000000000E+00  0.31535301323E+03  0.31535301323E+03  0.00000000000E+00 0. -1.
         21   -1    0    0  503  502 -0.00000000000E+00 -0.00000000000E+00 -0.24230801179E+03  0.24230801179E+03  0.00000000000E+00 0.  1.
         25    1    1    2    0    0  0.15465278804E+03  0.13439661513E+03 -0.12680123456E+03  0.27144702632E+03  0.12500000000E+03 0.  0.
         21    1    1    2  503  501 -0.15465278804E+03 -0.13439661513E+03  0.19984623601E+03  0.28621399871E+03  0.00000000000E+00 0. -1.
<mgrwt>
<rscale>  3 0.24001028E+03</rscale>
<asrwt>0</asrwt>
<pdfrwt beam="1">  1       21 0.48515848E-01 0.24001028E+03</pdfrwt>
<pdfrwt beam="2">  1       21 0.37278155E-01 0.24001028E+03</pdfrwt>
<totfact> 0.27469388E+04</totfact>
</mgrwt>
</event>
<event>
 4    0  0.1362553E-001  0.2555480E+03  0.7546771E-02  0.1109848E+00
         21   -1    0    0  502  501  0.00000000000E+00  0.00000000000E+00  0.86272220987E+02  0.86272220987E+02  0.00000000000E+00 0.  1.
         21   -1    0    0  503  502 -0.00000000000E+00 -0.00000000000E+00 -0.66394463259E+03  0.66394463259E+03  0.00000000000E+00 0.  1.
         25    1    1    2    0    0  0.10692729742E+03  0.19556670927E+03 -0.32005978560E+03  0.40956446509E+03  0.12500000000E+03 0.  0.
         21    1    1    2  503  501 -0.10692729742E+03 -0.19556670927E+03 -0.25761262600E+03  0.34065238849E+03  0.00000000000E+00 0.  1.
<mgrwt>
<rscale>  3 0.25554801E+03</rscale>
<asrwt>0</asrwt>
<pdfrwt beam="1">  1       21 0.13272649E-01 0.25554801E+03</pdfrwt>
<pdfrwt beam="2">  1       21 0.10214533E+00 0.25554801E+03</pdfrwt>
<totfact> 0.37044791E+04</totfact>
</mgrwt>
</event>
<event>
 4    0  0.1299359E-001  0.2646509E+03  0.7546771E-02  0.1104381E+00
         21   -1    0    0  502  501  0.00000000000E+00  0.00000000000E+00  0.13440186220E+04  0.13440186220E+04  0.00000000000E+00 0.  1.
         21   -1    0    0  503  502 -0.00000000000E+00 -0.00000000000E+00 -0.58971616721E+02  0.58971616721E+02  0.00000000000E+00 0.  1.
         25    1    1    2    0    0 -0.98835269778E+02  0.21129758390E+03  0.34717622780E+03  0.43654485756E+03  0.12500000000E+03 0.  0.
         21    1    1    2  503  501  0.98835269778E+02 -0.21129758390E+03  0.93787077744E+03  0.96644538112E+03  0.00000000000E+00 0.  1.
<mgrwt>
<rscale>  3 0.26465086E+03</rscale>
<asrwt>0</asrwt>
<pdfrwt beam="1">  1       21 0.20677207E+00 0.26465086E+03</pdfrwt>
<pdfrwt beam="2">  1       21 0.90725574E-02 0.26465086E+03</pdfrwt>
<totfact> 0.11107953E+04</totfact>
</mgrwt>
</event>
<event>
 4    0  0.1217462E-001  0.2580690E+03  0.7546771E-02  0.1108309E+00
         21   -1    0    0  502  501  0.00000000000E+00  0.00000000000E+00  0.13271624150E+04  0.13271624150E+04  0.00000000000E+00 0.  1.
         21   -1    0    0  503  502 -0.00000000000E+00 -0.00000000000E+00 -0.62050152557E+02  0.62050152557E+02  0.00000000000E+00 0.  1.
         25    1    1    2    0    0 -0.12488660404E+03 -0.18809025662E+03  0.28954612070E+03  0.38786152750E+03  0.12500000000E+03 0.  0.
         21    1    1    2  503  501  0.12488660404E+03  0.18809025662E+03  0.97556614177E+03  0.10013510401E+04  0.00000000000E+00 0.  1.
<mgrwt>
<rscale>  3 0.25806900E+03</rscale>
<asrwt>0</asrwt>
<pdfrwt beam="1">  1       21 0.20417881E+00 0.25806900E+03</pdfrwt>
<pdfrwt beam="2">  1       21 0.95461783E-02 0.25806900E+03</pdfrwt>
<totfact> 0.10592270E+04</totfact>
</mgrwt>
</event>
<event>
 4    0  0.1456854E-001  0.3165350E+03  0.7546771E-02  0.1077255E+00
         21   -1    0    0  502  501  0.00000000000E+00  0.00000000000E+00  0.63577381254E+03  0.63577381254E+03  0.00000000000E+00 0. -1.
         21   -1    0    0  503  502 -0.00000000000E+00 -0.00000000000E+00 -0.15508231478E+03  0.15508231478E+03  0.00000000000E+00 0. -1.
         25    1    1    2    0    0 -0.28581501596E+03 -0.53657907357E+02  0.14935777450E+03  0.35000305595E+03  0.12500000000E+03 0.  0.
         21    1    1    2  503  501  0.28581501596E+03  0.53657907357E+02  0.33133372326E+03  0.44085307137E+03  0.00000000000E+00 0. -1.
<mgrwt>
<rscale>  3 0.31653498E+03</rscale>
<asrwt>0</asrwt>
<pdfrwt beam="1">  1       21 0.97811355E-01 0.31653498E+03</pdfrwt>
<pdfrwt beam="2">  1       21 0.23858818E-01 0.31653498E+03</pdfrwt>
<totfact> 0.13411289E+04</totfact>
</mgrwt>
</event>
<event>
 4    0  0.1160044E-001  0.5916741E+03  0.7546771E-02  0.9922832E-01
         21   -1    0    0  503  501  0.00000000000E+00  0.00000000000E+00  0.23854017848E+03  0.23854017848E+03  0.00000000000E+00 0.  1.
         21   -1    0    0  501  502 -0.00000000000E+00 -0.00000000000E+00 -0.14520506017E+04  0.14520506017E+04  0.00000000000E+00 0.  1.
         25    1    1    2    0    0  0.56704009432E+03  0.11366099687E+03 -0.70613083208E+03  0.92124863245E+03  0.12500000000E+03 0.  0.
         21    1    1    2  503  502 -0.56704009432E+03 -0.11366099687E+03 -0.50737959115E+03  0.76934214774E+03  0.00000000000E+00 0.  1.
<mgrwt>
<rscale>  3 0.59167414E+03</rscale>
<asrwt>0</asrwt>
<pdfrwt beam="1">  1       21 0.36698489E-01 0.59167414E+03</pdfrwt>
<pdfrwt beam="2">  1       21 0.22339240E+00 0.59167414E+03</pdfrwt>
<totfact> 0.52923393E+02</totfact>
</mgrwt>
</event>
<event>
 4    0  0.1431204E-001  0.3462192E+03  0.7546771E-02  0.1064178E+00
         21   -1    0    0  502  501  0.00000000000E+00  0.00000000000E+00  0.50424548134E+03  0.50424548134E+03  0.00000000000E+00 0. -1.
         21   -1    0    0  503  502 -0.00000000000E+00 -0.00000000000E+00 -0.24496496159E+03  0.24496496159E+03  0.00000000000E+00 0. -1.
         25    1    1    2    0    0  0.30572311708E+03 -0.10380792608E+03  0.24849123611E+03  0.42616382326E+03  0.12500000000E+03 0.  0.
         21    1    1    2  503  501 -0.30572311708E+03  0.10380792608E+03  0.10789283637E+02  0.32304661967E+03  0.00000000000E+00 0. -1.
<mgrwt>
<rscale>  3 0.34621916E+03</rscale>
<asrwt>0</asrwt>
<pdfrwt beam="1">  1       21 0.77576228E-01 0.34621916E+03</pdfrwt>
<pdfrwt beam="2">  1       21 0.37686917E-01 0.34621916E+03</pdfrwt>
<totfact> 0.92297986E+03</totfact>
</mgrwt>
</event>
<event>
 4    0  0.1207312E-001  0.2404631E+03  0.7546771E-02  0.1119485E+00
         21   -1    0    0  503  501  0.00000000000E+00  0.00000000000E+00  0.42752693664E+03  0.42752693664E+03  0.00000000000E+00 0. -1.
         21   -1    0    0  501  502 -0.00000000000E+00 -0.00000000000E+00 -0.10937628508E+04  0.10937628508E+04  0.00000000000E+00 0. -1.
         25    1    1    2    0    0  0.17965004821E+03  0.99616153705E+02 -0.10547492925E+04  0.10818126400E+04  0.12500000000E+03 0.  0.
         21    1    1    2  503  502 -0.17965004821E+03 -0.99616153705E+02  0.38851337842E+03  0.43947714742E+03  0.00000000000E+00 0. -1.
<mgrwt>
<rscale>  3 0.24046313E+03</rscale>
<asrwt>0</asrwt>
<pdfrwt beam="1">  1       21 0.65773376E-01 0.24046313E+03</pdfrwt>
<pdfrwt beam="2">  1       21 0.16827121E+00 0.24046313E+03</pdfrwt>
<totfact> 0.44284371E+02</totfact>
</mgrwt>
</event>
<event>
 4    0  0.1509251E-001  0.2462369E+03  0.7546771E-02  0.1115706E+00
         21   -1    0    0  503  501  0.00000000000E+00  0.00000000000E+00  0.29610127754E+03  0.29610127754E+03  0.00000000000E+00 0.  1.
         21   -1    0    0  501  502 -0.00000000000E+00 -0.00000000000E+00 -0.20139971726E+03  0.20139971726E+03  0.00000000000E+00 0.  1.
         25    1    1    2    0    0  0.83089983171E+02  0.19520155523E+03 -0.35199938922E+02  0.24874008154E+03  0.12500000000E+03 0.  0.
         21    1    1    2  503  502 -0.83089983171E+02 -0.19520155523E+03  0.12990149920E+03  0.24876091325E+03  0.00000000000E+00 0.  1.
<mgrwt>
<rscale>  3 0.24623686E+03</rscale>
<asrwt>0</asrwt>
<pdfrwt beam="1">  1       21 0.45554043E-01 0.24623686E+03</pdfrwt>
<pdfrwt beam="2">  1       21 0.30984572E-01 0.24623686E+03</pdfrwt>
<totfact> 0.45109383E+04</totfact>
</mgrwt>
</event>
<event>
 4    0  0.1155426E-001  0.2437685E+03  0.7546771E-02  0.1117308E+00
         21   -1    0    0  503  501  0.00000000000E+00  0.00000000000E+00  0.54204949348E+03  0.54204949348E+03  0.00000000000E+00 0.  1.
         21   -1    0    0  501  502 -0.00000000000E+00 -0.00000000000E+00 -0.10231074186E+03  0.10231074186E+03  0.00000000000E+00 0.  1.
         25    1    1    2    0    0 -0.12476753674E+03  0.16802122669E+03  0.32319292520E+03  0.40481691880E+03  0.12500000000E+03 0.  0.
         21    1    1    2  503  502  0.12476753674E+03 -0.16802122669E+03  0.11654582642E+03  0.23954331654E+03  0.00000000000E+00 0.  1.
<mgrwt>
<rscale>  3 0.24376848E+03</rscale>
<asrwt>0</asrwt>
<pdfrwt beam="1">  1       21 0.83392228E-01 0.24376848E+03</pdfrwt>
<pdfrwt beam="2">  1       21 0.15740114E-01 0.24376848E+03</pdfrwt>
<totfact> 0.43886788E+04</totfact>
</mgrwt>
</event>
<event>
 4    0  0.1005289E-001  0.3198741E+03  0.7546771E-02  0.1075707E+00
         21   -1    0    0  502  501  0.00000000000E+00  0.00000000000E+00  0.33821174771E+03  0.33821174771E+03  0.00000000000E+00 0.  1.
         21   -1    0    0  503  502 -0.00000000000E+00 -0.00000000000E+00 -0.27906926357E+03  0.27906926357E+03  0.00000000000E+00 0. -1.
         25    1    1    2    0    0 -0.14269553743E+03 -0.25755077924E+03  0.37088977464E+02  0.32201709976E+03  0.12500000000E+03 0.  0.
         21    1    1    2  503  501  0.14269553743E+03  0.25755077924E+03  0.22053506671E+02  0.29526391152E+03  0.00000000000E+00 0.  1.
<mgrwt>
<rscale>  3 0.31987407E+03</rscale>
<asrwt>0</asrwt>
<pdfrwt beam="1">  1       21 0.52032577E-01 0.31987407E+03</pdfrwt>
<pdfrwt beam="2">  1       21 0.42933733E-01 0.31987407E+03</pdfrwt>
<totfact> 0.17186083E+04</totfact>
</mgrwt>
</event>
<event>
 4    0  0.1348990E-001  0.2420601E+03  0.7546771E-02  0.1118428E+00
         21   -1    0    0  503  501  0.00000000000E+00  0.00000000000E+00  0.96072056607E+02  0.96072056607E+02  0.00000000000E+00 0.  1.
         21   -1    0    0  501  502 -0.00000000000E+00 -0.00000000000E+00 -0.11341284900E+04  0.11341284900E+04  0.00000000000E+00 0. -1.
         25    1    1    2    0    0 -0.85858651156E+02 -0.18866998077E+03 -0.98763928281E+03  0.10168699143E+04  0.12500000000E+03 0.  0.
         21    1    1    2  503  502  0.85858651156E+02  0.18866998077E+03 -0.50417150609E+02  0.21333063235E+03  0.00000000000E+00 0.  1.
<mgrwt>
<rscale>  3 0.24206005E+03</rscale>
<asrwt>0</asrwt>
<pdfrwt beam="1">  1       21 0.14780317E-01 0.24206005E+03</pdfrwt>
<pdfrwt beam="2">  1       21 0.17448130E+00 0.24206005E+03</pdfrwt>
<totfact> 0.77072993E+03</totfact>
</mgrwt>
</event>
<event>
 4    0  0.1005289E-001  0.2751889E+03  0.7546771E-02  0.1098346E+00
         21   -1    0    0  503  501  0.00000000000E+00  0.00000000000E+00  0.69290025955E+02  0.69290025955E+02  0.00000000000E+00 0. -1.
         21   -1    0    0  501  502 -0.00000000000E+00 -0.00000000000E+00 -0.13007682753E+04  0.13007682753E+04  0.00000000000E+00 0.  1.
         25    1    1    2    0    0  0.23910793475E+03 -0.54141536761E+02 -0.98380237189E+03  0.10215654739E+04  0.12500000000E+03 0.  0.
         21    1    1    2  503  502 -0.23910793475E+03  0.54141536761E+02 -0.24767587744E+03  0.34849282737E+03  0.00000000000E+00 0. -1.
<mgrwt>
<rscale>  3 0.27518886E+03</rscale>
<asrwt>0</asrwt>
<pdfrwt beam="1">  1       21 0.10660005E-01 0.27518886E+03</pdfrwt>
<pdfrwt beam="2">  1       21 0.20011817E+00 0.27518886E+03</pdfrwt>
<totfact> 0.91469288E+03</totfact>
</mgrwt>
</event>
<event>
 4    0  0.1231652E-001  0.2473485E+03  0.7546771E-02  0.1114992E+00
         21   -1    0    0  502  501  0.00000000000E+00  0.00000000000E+00  0.42672838306E+02  0.42672838306E+02  0.00000000000E+00 0.  1.
         21   -1    0    0  503  502 -0.00000000000E+00 -0.00000000000E+00 -0.12500696615E+04  0.12500696615E+04  0.00000000000E+00 0.  1.
         25    1    1    2    0    0 -0.66352820463E+02 -0.20286348219E+03 -0.60266922533E+03  0.65145336314E+03  0.12500000000E+03 0.  0.
         21    1    1    2  503  501  0.66352820463E+02  0.20286348219E+03 -0.60472759788E+03  0.64128913669E+03  0.00000000000E+00 0.  1.
<mgrwt>
<rscale>  3 0.24734852E+03</rscale>
<asrwt>0</asrwt>
<pdfrwt beam="1">  1       21 0.65650516E-02 0.24734852E+03</pdfrwt>
<pdfrwt beam="2">  1       21 0.19231842E+00 0.24734852E+03</pdfrwt>
<totfact> 0.24546917E+04</totfact>
</mgrwt>
</event>
<event>
 4    0  0.1432587E-001  0.3262371E+03  0.7546771E-02  0.1072814E+00
         21   -1    0    0  503  501  0.00000000000E+00  0.00000000000E+00  0.23328986253E+03  0.23328986253E+03  0.00000000000E+00 0. -1.
         21   -1    0    0  501  502 -0.00000000000E+00 -0.00000000000E+00 -0.42426511133E+03  0.42426511133E+03  0.00000000000E+00 0. -1.
         25    1    1    2    0    0  0.17839500038E+03  0.24285980462E+03 -0.75592069926E+02  0.33488030981E+03  0.12500000000E+03 0.  0.
         21    1    1    2  503  502 -0.17839500038E+03 -0.24285980462E+03 -0.11538317887E+03  0.32267466406E+03  0.00000000000E+00 0. -1.
<mgrwt>
<rscale>  3 0.32623712E+03</rscale>
<asrwt>0</asrwt>
<pdfrwt beam="1">  1       21 0.35890749E-01 0.32623712E+03</pdfrwt>
<pdfrwt beam="2">  1       21 0.65271555E-01 0.32623712E+03</pdfrwt>
<totfact> 0.15127816E+04</totfact>
</mgrwt>
</event>
<event>
 4    0  0.1647806E-001  0.3369107E+03  0.7546771E-02  0.1068119E+00
         21   -1    0    0  503  501  0.00000000000E+00  0.00000000000E+00  0.38567170199E+03  0.38567170199E+03  0.00000000000E+00 0.  1.
         21   -1    0    0  501  502 -0.00000000000E+00 -0.00000000000E+00 -0.31264437206E+03  0.31264437206E+03  0.00000000000E+00 0.  1.
         25    1    1    2    0    0 -0.14482916531E+03 -0.27732349958E+03 -0.85487334725E+02  0.34758724796E+03  0.12500000000E+03 0.  0.
         21    1    1    2  503  502  0.14482916531E+03  0.27732349958E+03  0.15851466465E+03  0.35072882609E+03  0.00000000000E+00 0.  1.
<mgrwt>
<rscale>  3 0.33691069E+03</rscale>
<asrwt>0</asrwt>
<pdfrwt beam="1">  1       21 0.59334108E-01 0.33691069E+03</pdfrwt>
<pdfrwt beam="2">  1       21 0.48099134E-01 0.33691069E+03</pdfrwt>
<totfact> 0.10162917E+04</totfact>
</mgrwt>
</event>
<event>
 4    0  0.1005289E-001  0.2911245E+03  0.7546771E-02  0.1089763E+00
         21   -1    0    0  502  501  0.00000000000E+00  0.00000000000E+00  0.58807314285E+02  0.58807314285E+02  0.00000000000E+00 0.  1.
         21   -1    0    0  503  502 -0.00000000000E+00 -0.00000000000E+00 -0.25701000006E+04  0.25701000006E+04  0.00000000000E+00 0.  1.
         25    1    1    2    0    0 -0.25913680073E+03 -0.44459187567E+02 -0.22097164918E+04  0.22288114489E+04  0.12500000000E+03 0.  0.
         21    1    1    2  503  501  0.25913680073E+03  0.44459187567E+02 -0.30157619459E+03  0.40009586600E+03  0.00000000000E+00 0.  1.
<mgrwt>
<rscale>  3 0.29112455E+03</rscale>
<asrwt>0</asrwt>
<pdfrwt beam="1">  1       21 0.90472808E-02 0.29112455E+03</pdfrwt>
<pdfrwt beam="2">  1       21 0.39539993E+00 0.29112455E+03</pdfrwt>
<totfact> 0.79615706E+02</totfact>
</mgrwt>
</event>
<event>
 4    0  0.1588843E-001  0.2568947E+03  0.7546771E-02  0.1109023E+00
         21   -1    0    0  502  501  0.00000000000E+00  0.00000000000E+00  0.28363503894E+03  0.28363503894E+03  0.00000000000E+00 0. -1.
         21   -1    0    0  503  502 -0.00000000000E+00 -0.00000000000E+00 -0.28490648852E+03  0.28490648852E+03  0.00000000000E+00 0. -1.
         25    1    1    2    0    0  0.21879470671E+03  0.49987384218E+02 -0.15171624521E+03  0.29834993100E+03  0.12500000000E+03 0.  0.
         21    1    1    2  503  501 -0.21879470671E+03 -0.49987384218E+02  0.15044479563E+03  0.27019159646E+03  0.00000000000E+00 0. -1.
<mgrwt>
<rscale>  3 0.25689465E+03</rscale>
<asrwt>0</asrwt>
<pdfrwt beam="1">  1       21 0.43636160E-01 0.25689465E+03</pdfrwt>
<pdfrwt beam="2">  1       21 0.43831767E-01 0.25689465E+03</pdfrwt>
<totfact> 0.24420268E+04</totfact>
</mgrwt>
</event>
<event>
 4    0  0.1005289E-001  0.3349667E+03  0.7546771E-02  0.1068960E+00
         21   -1    0    0  503  501  0.00000000000E+00  0.00000000000E+00  0.28267614543E+03  0.28267614543E+03  0.00000000000E+00 0. -1.
         21   -1    0    0  501  502 -0.00000000000E+00 -0.00000000000E+00 -0.39469127957E+03  0.39469127957E+03  0.00000000000E+00 0.  1.
         25    1    1    2    0    0 -0.39265454641E+02 -0.30827897750E+03 -0.14469837878E+03  0.36488398803E+03  0.12500000000E+03 0.  0.
         21    1    1    2  503  502  0.39265454641E+02  0.30827897750E+03  0.32683244639E+02  0.31248343697E+03  0.00000000000E+00 0. -1.
<mgrwt>
<rscale>  3 0.33496672E+03</rscale>
<asrwt>0</asrwt>
<pdfrwt beam="1">  1       21 0.43488638E-01 0.33496672E+03</pdfrwt>
<pdfrwt beam="2">  1       21 0.60721735E-01 0.33496672E+03</pdfrwt>
<totfact> 0.11934011E+04</totfact>
</mgrwt>
</event>
