<LesHouchesEvents version="3.0">
  <!--
  <scalesfunctionalform>
    muR  H_T/2 := sum_i mT(i)/2, i=final state
    muF1 H_T/2 := sum_i mT(i)/2, i=final state
    muF2 H_T/2 := sum_i mT(i)/2, i=final state
    QES  H_T/2 := sum_i mT(i)/2, i=final state
  </scalesfunctionalform>
HERWIG6   
  -->
  <header>
       93
  </header>
  <init>
   2212   2212 0.65000000D+04 0.65000000D+04 -1 -1   244800   244800 -4   1
 0.15633591D-03 0.69620299D-05 0.18000663D-05     66
  </init>
  <event>
  7     66 0.18000663E-05 0.39432467E+02 0.75467711E-02 0.93678052E-01
        1 -1    0    0  501    0 0.00000000E+00 0.00000000E+00 0.31546519E+04 0.31546519E+04 0.32000000E+00 0.0000E+00 0.9000E+01
       21 -1    0    0  503  501 0.00000000E+00 0.00000000E+00 -.94211438E+02 0.94214424E+02 0.75000000E+00 0.0000E+00 0.9000E+01
      -24  2    1    2    0    0 0.26675427E+01 0.49784931E+03 0.13968406E+04 0.14849706E+04 0.78186591E+02 0.0000E+00 0.0000E+00
       25  1    1    2    0    0 -.79389775E+02 -.48517910E+03 0.14794315E+04 0.15639834E+04 0.12500000E+03 0.0000E+00 0.9000E+01
        1  1    3    3  502    0 0.37344142E+02 0.24299056E+03 0.72723111E+03 0.76766150E+03 0.32000000E+00 0.0000E+00 0.9000E+01
        2  1    1    2  503    0 0.76722233E+02 -.12670208E+02 0.18416843E+03 0.19991235E+03 0.32000000E+00 0.0000E+00 0.9000E+01
       -2  1    3    3    0  502 -.34676599E+02 0.25485876E+03 0.66960948E+03 0.71730915E+03 0.32000000E+00 0.0000E+00 0.9000E+01
#aMCatNLO 2  0  0  2  1 0.91902460D+01 0.00000000D+00  -5  6  0 0.00000000D+00 0.00000000D+00 0.00000000D+00 0.00000000D+00 0.00000000D+00
  <mgrwgt>
 0.1849429265D-03    1    2    0
 0.504265009905797D+03 0.000000000000000D+00 0.000000000000000D+00 0.504265009905797D+03
 0.504265009905797D+03 0.000000000000000D+00 0.000000000000000D+00 -.504265009905797D+03
 0.508980713350911D+03 -.407866196727709D+02 -.491554179519791D+03 0.121370019154785D+02
 0.246533444415931D+03 0.560524838983082D+02 0.239900987960688D+03 0.918554516066281D+01
 0.000000000000000D+00 0.000000000000000D+00 -.000000000000000D+00 -.000000000000000D+00
 0.253015862044752D+03 -.152658642255372D+02 0.251653191559103D+03 -.213225470761413D+02
 0.538545516044328D+03 0.000000000000000D+00 0.000000000000000D+00 0.538545516044328D+03
 0.551873162693484D+03 0.000000000000000D+00 0.000000000000000D+00 -.551873162693484D+03
 0.507418768271230D+03 -.793897753301518D+02 -.485179104199082D+03 0.121370019154785D+02
 0.246014964853663D+03 0.373453483127174D+02 0.242990357116188D+03 0.918554516066281D+01
 0.788952553726910D+02 0.767222326586833D+02 -.126702080087203D+02 -.133276466491558D+02
 0.258089690240227D+03 -.346778056412489D+02 0.254858955091615D+03 -.213225470761413D+02
0.666308438752D-05 0.000000000000D+00 0.000000000000D+00 0.576659119311D-04 0.953599384057D-09  6 1 21 25 1 2 -2 2 0.48533101D+00 0.14494290D-01 0.29598268D+06 0.29598268D+06 0.29598268D+06 0.10849853D+01  1  2  1  6  5  2       -2 0.184942926508D-03 0.100000000000D+01
  </mgrwgt>
  </event>
  <event>
  7     66 0.18000663E-05 0.11453860E+03 0.75467711E-02 0.88891159E-01
        1 -1    0    0  501    0 0.00000000E+00 0.00000000E+00 0.23672742E+04 0.23672743E+04 0.32000000E+00 0.0000E+00 0.9000E+01
       -2 -1    0    0    0  503 0.00000000E+00 0.00000000E+00 -.40547400E+03 0.40547412E+03 0.32000000E+00 0.0000E+00 0.9000E+01
      -24  2    1    2    0    0 -.52043008E+03 -.66666224E+03 0.15854281E+04 0.17987386E+04 0.81193035E+02 0.0000E+00 0.0000E+00
       25  1    1    2    0    0 0.39719211E+03 0.58575585E+03 0.20374745E+03 0.74700035E+03 0.12500000E+03 0.0000E+00 0.9000E+01
        1  1    3    3  502    0 -.33849088E+03 -.38434490E+03 0.10111798E+04 0.11334821E+04 0.32000000E+00 0.0000E+00 0.9000E+01
       -2  1    3    3    0  502 -.18193920E+03 -.28231734E+03 0.57424831E+03 0.66525648E+03 0.32000000E+00 0.0000E+00 0.9000E+01
       21  1    1    2  501  503 0.12323796E+03 0.80906384E+02 0.17262471E+03 0.22700945E+03 0.75000000E+00 0.0000E+00 0.9000E+01
#aMCatNLO 2  0  0  2  1 0.91902460D+01 0.00000000D+00  -5  6  0 0.00000000D+00 0.00000000D+00 0.00000000D+00 0.00000000D+00 0.00000000D+00
  <mgrwgt>
 0.8740341092D-04    1    2    0
 0.902483267213828D+03 0.000000000000000D+00 0.000000000000000D+00 0.902483267213828D+03
 0.902483267213828D+03 0.000000000000000D+00 0.000000000000000D+00 -.902483267213828D+03
 0.904985444104219D+03 0.456963775285259D+03 0.624996267567807D+03 -.451594317550460D+03
 0.556002833921856D+03 -.299286740372060D+03 -.358607160647329D+03 0.301608194018436D+03
 0.343978256401580D+03 -.157677034913199D+03 -.266389106920478D+03 0.149986123532023D+03
 0.000000000000000D+00 0.000000000000000D+00 0.000000000000000D+00 0.000000000000000D+00
 0.988964183083864D+03 0.000000000000000D+00 0.000000000000000D+00 0.988964183083864D+03
 0.970577615156342D+03 0.000000000000000D+00 0.000000000000000D+00 -.970577615156342D+03
 0.848783789441958D+03 0.397192114389606D+03 0.585755851735429D+03 -.451594317550460D+03
 0.594363059305275D+03 -.338493312571335D+03 -.384346485494726D+03 0.301608194018436D+03
 0.367830133205379D+03 -.181936765824453D+03 -.282315750327646D+03 0.149986123532023D+03
 0.148564816287593D+03 0.123237964006182D+03 0.809063840869424D+02 0.183865679275217D+02
0.178114630652D-03 0.000000000000D+00 0.000000000000D+00 0.150563678872D-03 0.414707067552D-07  6 1 -2 25 1 -2 21 2 0.36419570D+00 0.62380566D-01 0.73454641D+06 0.73454641D+06 0.73454641D+06 0.10569008D+01  1  2  1  2  6  2       -2 0.874034109177D-04 0.100000000000D+01
  </mgrwgt>
  </event>
  <event>
  6     66 0.18000663E-05 0.21920702E+02 0.75467711E-02 0.94914618E-01
        1 -1    0    0  501    0 0.00000000E+00 0.00000000E+00 0.38337156E+03 0.38337169E+03 0.32000000E+00 0.0000E+00 0.9000E+01
       -2 -1    0    0    0  501 0.00000000E+00 0.00000000E+00 -.64794406E+03 0.64794414E+03 0.32000000E+00 0.0000E+00 0.9000E+01
      -24  2    1    2    0    0 0.47222923E+03 0.49211864E+01 -.25448476E+03 0.54269386E+03 0.82033296E+02 0.0000E+00 0.0000E+00
       25  1    1    2    0    0 -.47222923E+03 -.49211864E+01 -.10087741E+02 0.48862197E+03 0.12500000E+03 0.0000E+00 0.9000E+01
        1  1    3    3  502    0 0.26310826E+02 -.16753801E+02 -.60332942E+01 0.31771881E+02 0.32000000E+00 0.0000E+00 0.9000E+01
       -2  1    3    3    0  502 0.44591841E+03 0.21674987E+02 -.24845147E+03 0.51092198E+03 0.32000000E+00 0.0000E+00 0.9000E+01
#aMCatNLO 1  0  0  1  2 0.87358835D+01 0.00000000D+00  -5  6  0 0.00000000D+00 0.00000000D+00 0.00000000D+00 0.00000000D+00 0.00000000D+00
  <mgrwgt>
 0.3876832149D-04   13    2    0
 0.498400874772088D+03 0.000000000000000D+00 0.000000000000000D+00 0.498400874772088D+03
 0.498400874772088D+03 0.000000000000000D+00 0.000000000000000D+00 -.498400874772088D+03
 0.502862914776392D+03 -.472229234108133D+03 -.492118644293078D+01 0.119253693590804D+03
 0.312640467645783D+02 0.263044406541679D+02 -.167543853899703D+02 0.219262221402801D+01
 0.462674788003206D+03 0.445924793453965D+03 0.216755718329010D+02 -.121446315804832D+03
 0.000000000000000D+00 0.000000000000000D+00 0.000000000000000D+00 0.000000000000000D+00
 0.562081456861987D+03 0.000000000000000D+00 0.000000000000000D+00 0.562081456861987D+03
 0.498719707953964D+03 0.000000000000000D+00 0.000000000000000D+00 -.498719707953964D+03
 0.504482207710293D+03 -.473893111287401D+03 -.900963570563505D+01 0.119253693590804D+03
 0.313143518409375D+02 0.262010771027588D+02 -.170083684608451D+02 0.219262221402801D+01
 0.461043469518431D+03 0.444399046523290D+03 0.179265337479316D+02 -.121446315804832D+03
 0.639611357462903D+02 0.329298766135201D+01 0.809147041854851D+01 0.633617489080227D+02
0.375785501533D-06 0.000000000000D+00 0.000000000000D+00 0.259389615346D-04 0.000000000000D+00  6 1 -2 25 1 -2 21 0 0.58980256D-01 0.99683718D-01 0.23336444D+06 0.23336444D+06 0.23336444D+06 0.10927160D+01  1  2  2  1  6  1        1 0.223563137077D-05 0.100000000000D+01
0.111808547695D-06 0.000000000000D+00 -.144311527248D-08 0.259389615346D-04 0.000000000000D+00  6 1 -2 25 1 -2 21 2 0.58980256D-01 0.99683718D-01 0.23336444D+06 0.23336444D+06 0.23336444D+06 0.10927160D+01  1  2  3  1  6  1        1 0.794236442848D-06 0.100000000000D+01
-.131138346116D-06 0.000000000000D+00 0.000000000000D+00 0.259389615346D-04 0.000000000000D+00  6 1 -2 25 1 -2 21 2 0.58980256D-01 0.99683718D-01 0.23336444D+06 0.23336444D+06 0.23336444D+06 0.10927160D+01  1  2 15  1  6  1        1 -.931546430816D-06 0.100000000000D+01
0.768816357044D-04 0.000000000000D+00 0.000000000000D+00 0.259389615346D-04 0.000000000000D+00  6 1 -2 25 1 -2 21 2 0.66533590D-01 0.99683718D-01 0.23761645D+06 0.23761645D+06 0.23761645D+06 0.10921228D+01  1  2 12  1  6  1        1 0.462991214145D-03 0.100000000000D+01
0.102549984580D-07 0.000000000000D+00 0.000000000000D+00 0.259389615346D-04 0.000000000000D+00  6 1 -2 25 1 -2 21 2 0.67192376D-01 0.99683718D-01 0.23761645D+06 0.23761645D+06 0.23761645D+06 0.10921228D+01  1  2 12  1  6  1        1 0.609303447848D-07 0.100000000000D+01
-.714451613111D-04 0.000000000000D+00 0.000000000000D+00 0.259389615346D-04 0.000000000000D+00  6 1 -2 25 1 -2 21 2 0.58980256D-01 0.99683718D-01 0.23336444D+06 0.23336444D+06 0.23336444D+06 0.10927160D+01  1  2  4  1  6  1        1 -.507513530480D-03 0.100000000000D+01
-.795653917261D-04 0.000000000000D+00 -.810190414108D-06 0.259389615346D-04 0.000000000000D+00  6 1 -2 25 1 -2 21 2 0.66535288D-01 0.99683718D-01 0.23336444D+06 0.23336444D+06 0.23336444D+06 0.10927160D+01  1  2  5  1  6  1        1 -.479940642303D-03 0.100000000000D+01
0.790936842606D-04 0.000000000000D+00 0.804340842982D-06 0.259389615346D-04 0.000000000000D+00  6 1 -2 25 1 -2 21 2 0.58980256D-01 0.99683718D-01 0.23336444D+06 0.23336444D+06 0.23336444D+06 0.10927160D+01  1  2  6  1  6  1        1 0.561845115906D-03 0.100000000000D+01
0.397892672807D-07 0.000000000000D+00 0.000000000000D+00 0.259389615346D-04 0.217649827078D-05  6 1 -2 25 1 -2 21 2 0.66516151D-01 0.99747487D-01 0.23761645D+06 0.23761645D+06 0.23761645D+06 0.10921228D+01  1  2 11  1  6  1        1 0.239333422908D-06 0.100000000000D+01
0.146388392416D-05 0.000000000000D+00 0.000000000000D+00 0.259389615346D-04 0.000000000000D+00  6 21 -2 25 1 -2 -1 2 0.66533590D-01 0.99683718D-01 0.23761645D+06 0.23761645D+06 0.23761645D+06 0.10921228D+01  1  2 12  5  6  1        1 0.296978322240D-04 0.100000000000D+01
0.208505782283D-09 0.000000000000D+00 0.000000000000D+00 0.259389615346D-04 0.000000000000D+00  6 21 -2 25 1 -2 -1 2 0.67192376D-01 0.99683718D-01 0.23761645D+06 0.23761645D+06 0.23761645D+06 0.10921228D+01  1  2 12  5  6  1        1 0.413470168548D-08 0.100000000000D+01
-.151147660323D-05 0.000000000000D+00 -.154293772449D-07 0.259389615346D-04 0.000000000000D+00  6 21 -2 25 1 -2 -1 2 0.66535288D-01 0.99683718D-01 0.23336444D+06 0.23336444D+06 0.23336444D+06 0.10927160D+01  1  2  5  5  6  1        1 -.307308923804D-04 0.100000000000D+01
0.814311020388D-09 0.000000000000D+00 0.000000000000D+00 0.259389615346D-04 0.415562329615D-07  6 21 -2 25 1 -2 -1 2 0.66516151D-01 0.99747487D-01 0.23761645D+06 0.23761645D+06 0.23761645D+06 0.10921228D+01  1  2 11  5  6  1        1 0.165045220882D-07 0.100000000000D+01
  </mgrwgt>
  </event>
  <event>
  7     66 0.18000663E-05 0.57547652E+02 0.75467711E-02 0.93011838E-01
        1 -1    0    0  503    0 0.00000000E+00 0.00000000E+00 0.25846118E+04 0.25846119E+04 0.32000000E+00 0.0000E+00 0.9000E+01
       -2 -1    0    0    0  501 0.00000000E+00 0.00000000E+00 -.18744663E+03 0.18744690E+03 0.32000000E+00 0.0000E+00 0.9000E+01
      -24  2    1    2    0    0 0.15929478E+03 0.52699700E+03 0.40747459E+03 0.68962974E+03 0.80330437E+02 0.0000E+00 0.0000E+00
       25  1    1    2    0    0 -.16722557E+03 -.54314248E+03 0.17961772E+04 0.18880799E+04 0.12500000E+03 0.0000E+00 0.9000E+01
        1  1    3    3  502    0 0.13135612E+03 0.30332844E+03 0.22906441E+03 0.40216064E+03 0.32000000E+00 0.0000E+00 0.9000E+01
       -2  1    3    3    0  502 0.27938667E+02 0.22366856E+03 0.17841018E+03 0.28746911E+03 0.32000000E+00 0.0000E+00 0.9000E+01
       21  1    1    2  503  501 0.79307898E+01 0.16145489E+02 0.19351338E+03 0.19434908E+03 0.75000000E+00 0.0000E+00 0.9000E+01
#aMCatNLO 2  0  0  1  2 0.87358835D+01 0.00000000D+00  -5  6  0 0.00000000D+00 0.00000000D+00 0.00000000D+00 0.00000000D+00 0.00000000D+00
  <mgrwgt>
 0.1983651845D-02    1    2    0
 0.668614650313700D+03 0.000000000000000D+00 0.000000000000000D+00 0.668614650313700D+03
 0.668614650313700D+03 0.000000000000000D+00 0.000000000000000D+00 -.668614650313700D+03
 0.672044137269678D+03 -.163217814013330D+03 -.534983497036773D+03 0.350957156253526D+03
 0.402187759577705D+03 0.133729652621713D+03 0.308158406044378D+03 -.221155535196382D+03
 0.262997403780016D+03 0.294881613916166D+02 0.226825090992395D+03 -.129801621057144D+03
 0.000000000000000D+00 0.000000000000000D+00 0.000000000000000D+00 0.000000000000000D+00
 0.722915131214759D+03 0.000000000000000D+00 0.000000000000000D+00 0.722915131214759D+03
 0.670166541652223D+03 0.000000000000000D+00 0.000000000000000D+00 -.670166541652223D+03
 0.679532247912074D+03 -.167225572175516D+03 -.543142484471106D+03 0.350957156253526D+03
 0.397710372944837D+03 0.131357756882278D+03 0.303329704623170D+03 -.221155535196382D+03
 0.260107661113692D+03 0.279370255353723D+02 0.223667291183152D+03 -.129801621057144D+03
 0.557313908963792D+02 0.793078975786555D+01 0.161454886647844D+02 0.527485895625359D+02
0.117822268941D-02 0.000000000000D+00 0.000000000000D+00 0.184208394271D-03 0.356400021320D-05  6 1 -2 25 1 -2 21 2 0.39763112D+00 0.28837857D-01 0.33398674D+06 0.33398674D+06 0.33398674D+06 0.10811204D+01  1  2  1  1  6  1        1 0.198365184503D-02 0.100000000000D+01
  </mgrwgt>
  </event>
  <event>
  7     66 0.18000663E-05 0.44609490E+02 0.75467711E-02 0.93692907E-01
        1 -1    0    0  503    0 0.00000000E+00 0.00000000E+00 0.63561645E+03 0.63561653E+03 0.32000000E+00 0.0000E+00 0.9000E+01
       -2 -1    0    0    0  501 0.00000000E+00 0.00000000E+00 -.51138750E+03 0.51138760E+03 0.32000000E+00 0.0000E+00 0.9000E+01
      -24  2    1    2    0    0 0.23800291E+03 -.45789894E+03 -.48993962E+01 0.52252903E+03 0.81827592E+02 0.0000E+00 0.0000E+00
       25  1    1    2    0    0 -.26905716E+03 0.43310013E+03 0.39529248E+02 0.52645516E+03 0.12500000E+03 0.0000E+00 0.9000E+01
        1  1    3    3  502    0 0.56527715E+02 -.19085828E+03 0.10126306E+02 0.19931109E+03 0.32000000E+00 0.0000E+00 0.9000E+01
       -2  1    3    3    0  502 0.18147520E+03 -.26704065E+03 -.15025702E+02 0.32321793E+03 0.32000000E+00 0.0000E+00 0.9000E+01
       21  1    1    2  503  501 0.31054244E+02 0.24798806E+02 0.89599102E+02 0.98019939E+02 0.75000000E+00 0.0000E+00 0.9000E+01
#aMCatNLO 2  0  0  1  2 0.87358835D+01 0.00000000D+00  -5  6  0 0.00000000D+00 0.00000000D+00 0.00000000D+00 0.00000000D+00 0.00000000D+00
  <mgrwgt>
 0.1059864770D-02    1    2    0
 0.523829470700962D+03 0.000000000000000D+00 0.000000000000000D+00 0.523829470700962D+03
 0.523829470700962D+03 0.000000000000000D+00 0.000000000000000D+00 -.523829470700962D+03
 0.528090993638429D+03 -.253448671656476D+03 0.445564509448921D+03 0.221615955457621D+02
 0.196384376304797D+03 0.623848384990139D+02 -.186178303321281D+03 0.354888073699557D+01
 0.323183571458698D+03 0.191063833157463D+03 -.259386206127640D+03 -.257104762827577D+02
 0.000000000000000D+00 0.000000000000000D+00 0.000000000000000D+00 0.000000000000000D+00
 0.614966585011008D+03 0.000000000000000D+00 0.000000000000000D+00 0.614966585011008D+03
 0.528556530824318D+03 0.000000000000000D+00 0.000000000000000D+00 -.528556530824318D+03
 0.525436594349501D+03 -.269057158625063D+03 0.433100131328860D+03 0.221615955457621D+02
 0.199083400855278D+03 0.565258047948395D+02 -.190857117587775D+03 0.354888073699557D+01
 0.323892425707698D+03 0.181477110052521D+03 -.267041819509821D+03 -.257104762827577D+02
 0.951106949228485D+02 0.310542437777017D+02 0.247988057687357D+02 0.864100541866903D+02
0.178895313986D-03 0.000000000000D+00 0.000000000000D+00 0.101692728149D-03 0.408872184969D-06  6 1 -2 25 1 -2 21 2 0.97786889D-01 0.78674795D-01 0.29519236D+06 0.29519236D+06 0.29519236D+06 0.10850713D+01  1  2  1  1  6  1        1 0.105986477030D-02 0.100000000000D+01
  </mgrwgt>
  </event>
  <event>
  7     66 0.18000663E-05 0.71810478E+02 0.75467711E-02 0.89522619E-01
        1 -1    0    0  501    0 0.00000000E+00 0.00000000E+00 0.13492262E+04 0.13492262E+04 0.32000000E+00 0.0000E+00 0.9000E+01
       -2 -1    0    0    0  503 0.00000000E+00 0.00000000E+00 -.98513512E+03 0.98513517E+03 0.32000000E+00 0.0000E+00 0.9000E+01
      -24  2    1    2    0    0 0.76858540E+03 -.16827018E+03 0.63811625E+03 0.10161336E+04 0.79352120E+02 0.0000E+00 0.0000E+00
       25  1    1    2    0    0 -.78204140E+03 0.16391438E+03 0.20873840E+03 0.83525649E+03 0.12500000E+03 0.0000E+00 0.9000E+01
        1  1    3    3  502    0 0.38117214E+03 -.90386064E+02 0.26745199E+03 0.47433375E+03 0.32000000E+00 0.0000E+00 0.9000E+01
       -2  1    3    3    0  502 0.38741326E+03 -.77884117E+02 0.37066426E+03 0.54179984E+03 0.32000000E+00 0.0000E+00 0.9000E+01
       21  1    1    2  501  503 0.13456001E+02 0.43557971E+01 -.48276359E+03 0.48297131E+03 0.75000000E+00 0.0000E+00 0.9000E+01
#aMCatNLO 2  0  0  2  5 0.24215977D+02 0.00000000D+00  -5  6  0 0.00000000D+00 0.00000000D+00 0.00000000D+00 0.00000000D+00 0.00000000D+00
  <mgrwgt>
 0.1679472997D-02    1    2    0
 0.823146766723287D+03 0.000000000000000D+00 0.000000000000000D+00 0.823146766723287D+03
 0.823146766723287D+03 0.000000000000000D+00 0.000000000000000D+00 -.823146766723287D+03
 0.825979870544367D+03 -.775266145071234D+03 0.166107579761376D+03 -.194906189734177D+03
 0.398725115038509D+03 0.384419145132589D+03 -.893351562294495D+02 0.567703098411658D+02
 0.421588547863698D+03 0.390846999938645D+03 -.767724235319267D+02 0.138135879893012D+03
 0.000000000000000D+00 0.000000000000000D+00 0.000000000000000D+00 -.000000000000000D+00
 0.823240335366109D+03 0.000000000000000D+00 0.000000000000000D+00 0.823240335366109D+03
 0.161455842793138D+04 0.000000000000000D+00 0.000000000000000D+00 -.161455842793138D+04
 0.831907508320424D+03 -.782041401913989D+03 0.163914384041193D+03 -.194906189734177D+03
 0.395834139037711D+03 0.381172034929699D+03 -.903862674072579D+02 0.567703098411658D+02
 0.418612638695395D+03 0.387413365717711D+03 -.778839137754416D+02 0.138135879893012D+03
 0.791444477243954D+03 0.134560012665798D+02 0.435579714150697D+01 -.791318092565266D+03
0.590794495956D-02 0.000000000000D+00 0.000000000000D+00 0.107079837155D-03 0.397809242017D-05  6 1 -2 25 1 -2 21 2 0.20757322D+00 0.15155922D+00 0.64786655D+06 0.64786655D+06 0.64786655D+06 0.10606481D+01  1  2  1  2  6  2       -2 0.167947299707D-02 0.100000000000D+01
  </mgrwgt>
  </event>
  <event>
  7     66 0.18000663E-05 0.43047403E+02 0.75467711E-02 0.93321963E-01
        1 -1    0    0  503    0 0.00000000E+00 0.00000000E+00 0.12504124E+04 0.12504124E+04 0.32000000E+00 0.0000E+00 0.9000E+01
       -2 -1    0    0    0  501 0.00000000E+00 0.00000000E+00 -.25866190E+03 0.25866210E+03 0.32000000E+00 0.0000E+00 0.9000E+01
      -24  2    1    2    0    0 0.18532416E+03 -.51917922E+03 0.56049256E+03 0.79026046E+03 0.80421301E+02 0.0000E+00 0.0000E+00
       25  1    1    2    0    0 -.19136799E+03 0.50779508E+03 0.40192365E+03 0.68676427E+03 0.12500000E+03 0.0000E+00 0.9000E+01
        1  1    3    3  502    0 0.15747744E+03 -.36949849E+03 0.36721665E+03 0.54422096E+03 0.32000000E+00 0.0000E+00 0.9000E+01
       -2  1    3    3    0  502 0.27846721E+02 -.14968073E+03 0.19327590E+03 0.24603951E+03 0.32000000E+00 0.0000E+00 0.9000E+01
       21  1    1    2  503  501 0.60438298E+01 0.11384144E+02 0.29334259E+02 0.32049772E+02 0.75000000E+00 0.0000E+00 0.9000E+01
#aMCatNLO 2  0  0  1  4 0.13972800D+02 0.00000000D+00  -5  6  0 0.00000000D+00 0.00000000D+00 0.00000000D+00 0.00000000D+00 0.00000000D+00
  <mgrwgt>
 0.1658319551D-02    1    2    0
 0.560176532501502D+03 0.000000000000000D+00 0.000000000000000D+00 0.560176532501502D+03
 0.560176532501502D+03 0.000000000000000D+00 0.000000000000000D+00 -.560176532501502D+03
 0.564263375587146D+03 -.188335357486722D+03 0.513507329706935D+03 -.600680654474679D+02
 0.399126139709755D+03 0.159640296871636D+03 -.365431874907630D+03 0.166191400451525D+02
 0.156963549706104D+03 0.286950606150865D+02 -.148075454799305D+03 0.434489254023154D+02
 0.000000000000000D+00 0.000000000000000D+00 0.000000000000000D+00 0.000000000000000D+00
 0.574301958251099D+03 0.000000000000000D+00 0.000000000000000D+00 0.574301958251099D+03
 0.563161542860114D+03 0.000000000000000D+00 0.000000000000000D+00 -.563161542860114D+03
 0.560098848147950D+03 -.191367985877474D+03 0.507795077950996D+03 -.600680654474679D+02
 0.402004589919897D+03 0.157479488064570D+03 -.369501969331349D+03 0.166191400451525D+02
 0.158323764772795D+03 0.278446680628035D+02 -.149677252225205D+03 0.434489254023154D+02
 0.170362982705707D+02 0.604382975010014D+01 0.113841436055582D+02 0.111404153909844D+02
0.220149276117D-03 0.000000000000D+00 0.000000000000D+00 0.175999911197D-03 0.662857848820D-05  6 1 -2 25 1 -2 21 2 0.19236834D+00 0.39793576D-01 0.31565501D+06 0.31565501D+06 0.31565501D+06 0.10829212D+01  1  2  1  1  6  1        1 0.165831955074D-02 0.100000000000D+01
  </mgrwgt>
  </event>
  <event>
  7     66 0.18000663E-05 0.64137557E+02 0.75467711E-02 0.94835289E-01
        1 -1    0    0  503    0 0.00000000E+00 0.00000000E+00 0.14271589E+04 0.14271589E+04 0.32000000E+00 0.0000E+00 0.9000E+01
       -2 -1    0    0    0  501 0.00000000E+00 0.00000000E+00 -.37398697E+03 0.37398711E+03 0.32000000E+00 0.0000E+00 0.9000E+01
      -24  2    1    2    0    0 -.43536467E+03 0.18718862E+03 -.14355556E+03 0.50153149E+03 0.79647087E+02 0.0000E+00 0.0000E+00
       25  1    1    2    0    0 0.43170233E+03 -.19916136E+03 0.11392618E+04 0.12407959E+04 0.12500000E+03 0.0000E+00 0.9000E+01
        1  1    3    3  502    0 -.20205906E+03 0.54758160E+02 -.35596829E+02 0.21235243E+03 0.32000000E+00 0.0000E+00 0.9000E+01
       -2  1    3    3    0  502 -.23330561E+03 0.13243046E+03 -.10795873E+03 0.28917906E+03 0.32000000E+00 0.0000E+00 0.9000E+01
       21  1    1    2  503  501 0.36623422E+01 0.11972732E+02 0.57465711E+02 0.58818616E+02 0.75000000E+00 0.0000E+00 0.9000E+01
#aMCatNLO 2  0  0  1  4 0.18884843D+01 0.00000000D+00  -5  6  0 0.00000000D+00 0.00000000D+00 0.00000000D+00 0.00000000D+00 0.00000000D+00
  <mgrwgt>
 0.9472753053D-02    1    2    0
 0.714863135340025D+03 0.000000000000000D+00 0.000000000000000D+00 0.714863135340025D+03
 0.714863135340025D+03 0.000000000000000D+00 0.000000000000000D+00 -.714863135340025D+03
 0.718108980988117D+03 0.433542460681019D+03 -.193145685951122D+03 0.524205291237040D+03
 0.283511406200757D+03 -.201332270261411D+03 0.571312276266471D+02 -.191259136323442D+03
 0.428105883491175D+03 -.232210190419608D+03 0.136014458324475D+03 -.332946154913597D+03
 0.000000000000000D+00 0.000000000000000D+00 0.000000000000000D+00 0.000000000000000D+00
 0.745247341624122D+03 0.000000000000000D+00 0.000000000000000D+00 0.745247341624122D+03
 0.716181517135511D+03 0.000000000000000D+00 0.000000000000000D+00 -.716181517135511D+03
 0.718643396261088D+03 0.431702325929729D+03 -.199161355226420D+03 0.524205291237040D+03
 0.283559578356702D+03 -.202058552007421D+03 0.547569065169466D+02 -.191259136323442D+03
 0.427578116362537D+03 -.233306116126213D+03 0.132431717116738D+03 -.332946154913597D+03
 0.316477677793067D+02 0.366234220390530D+01 0.119727315927347D+02 0.290658244886112D+02
0.333692954475D-02 0.000000000000D+00 0.000000000000D+00 0.102540625071D-03 0.416132662090D-05  6 1 -2 25 1 -2 21 2 0.21956156D+00 0.57536114D-01 0.24094615D+06 0.24094615D+06 0.24094615D+06 0.10916663D+01  1  2  1  1  6  1        1 0.947275305338D-02 0.100000000000D+01
  </mgrwgt>
  </event>
  <event>
  7     66 0.18000663E-05 0.29997359E+02 0.75467711E-02 0.92758637E-01
        1 -1    0    0  501    0 0.00000000E+00 0.00000000E+00 0.21802456E+04 0.21802456E+04 0.32000000E+00 0.0000E+00 0.9000E+01
       21 -1    0    0  503  501 0.00000000E+00 0.00000000E+00 -.16464841E+03 0.16465012E+03 0.75000000E+00 0.0000E+00 0.9000E+01
      -24  2    1    2    0    0 0.50750356E+03 -.23639998E+03 0.10951585E+04 0.12326908E+04 0.81911377E+02 0.0000E+00 0.0000E+00
       25  1    1    2    0    0 -.47983275E+03 0.27701564E+03 0.88511852E+03 0.10516829E+04 0.12500000E+03 0.0000E+00 0.9000E+01
        1  1    3    3  502    0 0.37039769E+03 -.13099749E+03 0.76221179E+03 0.85750901E+03 0.32000000E+00 0.0000E+00 0.9000E+01
        2  1    1    2  503    0 -.27670809E+02 -.40615661E+02 0.35320099E+02 0.60522040E+02 0.32000000E+00 0.0000E+00 0.9000E+01
       -2  1    3    3    0  502 0.13710587E+03 -.10540249E+03 0.33294676E+03 0.37518176E+03 0.32000000E+00 0.0000E+00 0.9000E+01
#aMCatNLO 2  0  0  2  1 0.76522872D+02 0.00000000D+00  -5  6  0 0.00000000D+00 0.00000000D+00 0.00000000D+00 0.00000000D+00 0.00000000D+00
  <mgrwgt>
 0.1005252379D-03    1    2    0
 0.568869604103996D+03 0.000000000000000D+00 0.000000000000000D+00 0.568869604103996D+03
 0.568869604103996D+03 0.000000000000000D+00 0.000000000000000D+00 -.568869604103996D+03
 0.572787692856193D+03 -.493728840786028D+03 0.256618737579781D+03 -.532859867748077D+02
 0.390735932383379D+03 0.360854460330988D+03 -.145010816434673D+03 0.378218248064444D+02
 0.000000000000000D+00 -.000000000000000D+00 -.000000000000000D+00 -.000000000000000D+00
 0.174215582968422D+03 0.132874380455039D+03 -.111607921145108D+03 0.154641619683633D+02
 0.582196141011179D+03 0.000000000000000D+00 0.000000000000000D+00 0.582196141011179D+03
 0.616588545197467D+03 0.000000000000000D+00 0.000000000000000D+00 -.616588545197467D+03
 0.570474829758259D+03 -.479832749509699D+03 0.277015644863448D+03 -.532859867748077D+02
 0.394699914567399D+03 0.370401251208003D+03 -.130997882545361D+03 0.378218248064444D+02
 0.599845231236510D+02 -.276708089978318D+02 -.406156605026231D+02 -.343924041862879D+02
 0.173625418759337D+03 0.137102307299527D+03 -.105402101815464D+03 0.154641619683633D+02
0.212361395754D-05 0.000000000000D+00 0.000000000000D+00 0.776366592207D-04 0.271975051661D-08  6 1 21 25 1 2 -2 2 0.33542229D+00 0.25330639D-01 0.34984002D+06 0.34984002D+06 0.34984002D+06 0.10796478D+01  1  2  1  6  5  2       -2 0.100525237935D-03 0.100000000000D+01
  </mgrwgt>
  </event>
  <event>
  6     66 0.18000663E-05 0.30672308E+02 0.75467711E-02 0.93013147E-01
        1 -1    0    0  501    0 0.00000000E+00 0.00000000E+00 0.14346786E+04 0.14346786E+04 0.32000000E+00 0.0000E+00 0.9000E+01
       -2 -1    0    0    0  501 0.00000000E+00 0.00000000E+00 -.25897596E+03 0.25897616E+03 0.32000000E+00 0.0000E+00 0.9000E+01
       25  1    1    2    0    0 -.15612199E+03 0.53880746E+03 0.83922066E+03 0.10171548E+04 0.12500000E+03 0.0000E+00 0.9000E+01
        1  1    1    2  503    0 0.38770568E+02 -.13742786E+03 0.12568438E+03 0.19022681E+03 0.32000000E+00 0.0000E+00 0.9000E+01
       -2  1    1    2    0  502 0.84185953E+02 -.39566468E+03 0.19592759E+03 0.44947251E+03 0.32000000E+00 0.0000E+00 0.9000E+01
       21  1    1    2  502  503 0.33165468E+02 -.57149130E+01 0.14869961E+02 0.36800635E+02 0.75000000E+00 0.0000E+00 0.9000E+01
#aMCatNLO 2  0  0  4  1 0.23898574D+02 0.00000000D+00  -5  6  0 0.00000000D+00 0.00000000D+00 0.00000000D+00 0.00000000D+00 0.00000000D+00
  <mgrwgt>
 0.4864289131D-01    1    2    0
 0.609546926650357D+03 0.000000000000000D+00 0.000000000000000D+00 0.609546926650357D+03
 0.609546926650357D+03 -.000000000000000D+00 -.000000000000000D+00 -.609546926650357D+03
 0.612295871079121D+03 -.160118435753658D+03 0.546759836206011D+03 0.186271312295579D+03
 0.177288419647596D+03 0.787654812313977D+02 -.156703195051614D+03 -.259092911547991D+02
 0.429509562573998D+03 0.813529545222605D+02 -.390056641154397D+03 -.160362021140780D+03
 0.000000000000000D+00 0.000000000000000D+00 0.000000000000000D+00 -.000000000000000D+00
 0.609546926650357D+03 0.000000000000000D+00 0.000000000000000D+00 0.609546926650357D+03
 0.609546926650357D+03 -.000000000000000D+00 -.000000000000000D+00 -.609546926650357D+03
 0.603724314044118D+03 -.156106436739888D+03 0.538778001344181D+03 0.184951596489423D+03
 0.142852180486994D+03 0.385778787935819D+02 -.137265723313052D+03 -.875293899334628D+01
 0.435562742111309D+03 0.842070759222972D+02 -.395734889232854D+03 -.161300862130368D+03
 0.369546166582925D+02 0.333214820240094D+02 -.577738879827483D+01 -.148977953657089D+02
0.872203841967D-02 0.000000000000D+00 0.000000000000D+00 0.124032600650D-05 0.148469717326D-05  6 1 -2 25 1 -2 21 2 0.22071980D+00 0.39842473D-01 0.33390691D+06 0.33390691D+06 0.33390691D+06 0.10811280D+01  1  2  1  3  6  4        1 0.486428913141D-01 0.100000000000D+01
  </mgrwgt>
  </event>
  <event>
  7     66 0.18000663E-05 0.25833316E+02 0.75467711E-02 0.94480990E-01
        1 -1    0    0  501    0 0.00000000E+00 0.00000000E+00 0.15469147E+04 0.15469147E+04 0.32000000E+00 0.0000E+00 0.9000E+01
       -2 -1    0    0    0  503 0.00000000E+00 0.00000000E+00 -.18131119E+03 0.18131147E+03 0.32000000E+00 0.0000E+00 0.9000E+01
      -24  2    1    2    0    0 0.47556272E+03 -.12629878E+03 0.50867748E+03 0.71227729E+03 0.80466718E+02 0.0000E+00 0.0000E+00
       25  1    1    2    0    0 -.44855581E+03 0.89378926E+02 0.84456544E+03 0.96855908E+03 0.12500000E+03 0.0000E+00 0.9000E+01
        1  1    3    3  502    0 0.38487402E+03 -.89811840E+02 0.44714783E+03 0.59677087E+03 0.32000000E+00 0.0000E+00 0.9000E+01
       -2  1    3    3    0  502 0.90688694E+02 -.36486935E+02 0.61529640E+02 0.11550643E+03 0.32000000E+00 0.0000E+00 0.9000E+01
       21  1    1    2  501  503 -.27006907E+02 0.36919849E+02 0.12360572E+02 0.47389815E+02 0.75000000E+00 0.0000E+00 0.9000E+01
#aMCatNLO 2  0  0  2  1 0.76522872D+02 0.00000000D+00  -5  6  0 0.00000000D+00 0.00000000D+00 0.00000000D+00 0.00000000D+00 0.00000000D+00
  <mgrwgt>
 0.7537488975D-03    1    2    0
 0.497958852452067D+03 0.000000000000000D+00 0.000000000000000D+00 0.497958852452067D+03
 0.497958852452067D+03 0.000000000000000D+00 0.000000000000000D+00 -.497958852452067D+03
 0.502552659350506D+03 -.461959962766238D+03 0.107703103295367D+03 0.109211765674901D+03
 0.385843956396405D+03 0.374240166831474D+03 -.752692885998643D+02 -.561639600745123D+02
 0.107521089157223D+03 0.877197959347639D+02 -.324338146955031D+02 -.530478056003886D+02
 0.000000000000000D+00 -.000000000000000D+00 0.000000000000000D+00 -.000000000000000D+00
 0.508298318739459D+03 0.000000000000000D+00 0.000000000000000D+00 0.508298318739459D+03
 0.551783825330139D+03 0.000000000000000D+00 0.000000000000000D+00 -.551783825330139D+03
 0.486562550551706D+03 -.448555808537017D+03 0.893789262928090D+02 0.109211765674901D+03
 0.399189557777263D+03 0.384878675059582D+03 -.898126834669607D+02 -.561639600745123D+02
 0.111215555761074D+03 0.906840408424497D+02 -.364860918805086D+02 -.530478056003886D+02
 0.631144799795536D+02 -.270069073650144D+02 0.369198490546603D+02 -.434855065906803D+02
0.820819416549D-04 0.000000000000D+00 0.000000000000D+00 0.249961394886D-03 0.760800418725D-06  6 1 -2 25 1 -2 21 2 0.23798587D+00 0.27893933D-01 0.25647057D+06 0.25647057D+06 0.25647057D+06 0.10896252D+01  1  2  1  2  6  2       -2 0.753748897508D-03 0.100000000000D+01
  </mgrwgt>
  </event>
  <event>
  7     66 0.18000663E-05 0.53107586E+02 0.75467711E-02 0.95336662E-01
        1 -1    0    0  501    0 0.00000000E+00 0.00000000E+00 0.15284327E+04 0.15284327E+04 0.32000000E+00 0.0000E+00 0.9000E+01
       -2 -1    0    0    0  501 0.00000000E+00 0.00000000E+00 -.22563994E+03 0.22564017E+03 0.32000000E+00 0.0000E+00 0.9000E+01
      -24  2    1    2    0    0 0.45080569E+03 -.84679045E+02 0.11688264E+04 0.12601414E+04 0.10679369E+03 0.0000E+00 0.0000E+00
       25  1    1    2    0    0 -.45080569E+03 0.84679045E+02 0.13396632E+03 0.49393146E+03 0.12500000E+03 0.0000E+00 0.9000E+01
        1  1    3    3  503    0 0.15417350E+03 -.43742740E+02 0.50210228E+03 0.52705758E+03 0.32000000E+00 0.0000E+00 0.9000E+01
       -2  1    3    3    0  502 0.28876854E+03 -.48783102E+02 0.63068107E+03 0.69536018E+03 0.32000000E+00 0.0000E+00 0.9000E+01
       21  1    3    3  502  503 0.78636534E+01 0.78467970E+01 0.36043058E+02 0.37723650E+02 0.75000000E+00 0.0000E+00 0.9000E+01
#aMCatNLO 2  0  0  4  1 0.23898574D+02 0.00000000D+00  -5  6  0 0.00000000D+00 0.00000000D+00 0.00000000D+00 0.00000000D+00 0.00000000D+00
  <mgrwgt>
 0.4303830497D-01    1    2    0
 0.587261172948413D+03 0.000000000000000D+00 0.000000000000000D+00 0.587261172948413D+03
 0.587261172948413D+03 -.000000000000000D+00 -.000000000000000D+00 -.587261172948413D+03
 0.590871376434346D+03 -.452062489653134D+03 0.849574625916529D+02 -.349178634065742D+03
 0.245717136717582D+03 0.163971023251129D+03 -.363267864750217D+02 0.179362145936825D+03
 0.337933832744898D+03 0.288091466402005D+03 -.486306761166312D+02 0.169816488128917D+03
 0.000000000000000D+00 0.000000000000000D+00 0.000000000000000D+00 0.000000000000000D+00
 0.587261172948413D+03 0.000000000000000D+00 0.000000000000000D+00 0.587261172948413D+03
 0.587261172948413D+03 -.000000000000000D+00 -.000000000000000D+00 -.587261172948413D+03
 0.589052296373540D+03 -.450802026346066D+03 0.846782145848552D+02 -.347799857504202D+03
 0.230151291285729D+03 0.154138942142491D+03 -.437692791956383D+02 0.165212147236142D+03
 0.338970969533709D+03 0.288814575604162D+03 -.487908765780546D+02 0.170607471899549D+03
 0.163477887038483D+02 0.784850859941229D+01 0.788194118883778D+01 0.119802383685102D+02
0.663337947231D-02 0.000000000000D+00 0.000000000000D+00 0.134441538288D-04 0.806565512274D-05  6 1 -2 25 1 -2 21 2 0.23514351D+00 0.34713857D-01 0.22074782D+06 0.22074782D+06 0.22074782D+06 0.10945482D+01  1  2  1  3  6  4        1 0.430383049678D-01 0.100000000000D+01
  </mgrwgt>
  </event>
  <event>
  7     66 0.18000663E-05 0.52429932E+02 0.75467711E-02 0.90670610E-01
        1 -1    0    0  503    0 0.00000000E+00 0.00000000E+00 0.10210439E+04 0.10210439E+04 0.32000000E+00 0.0000E+00 0.9000E+01
       -2 -1    0    0    0  501 0.00000000E+00 0.00000000E+00 -.60546829E+03 0.60546838E+03 0.32000000E+00 0.0000E+00 0.9000E+01
      -24  2    1    2    0    0 -.38938969E+03 0.59092409E+03 -.73425318E+02 0.71721082E+03 0.90468097E+02 0.0000E+00 0.0000E+00
       25  1    1    2    0    0 0.39542480E+03 -.57443437E+03 0.38997517E+03 0.80872817E+03 0.12500000E+03 0.0000E+00 0.9000E+01
        1  1    3    3  502    0 -.85797406E+02 0.20591777E+03 -.18614405E+02 0.22385245E+03 0.32000000E+00 0.0000E+00 0.9000E+01
       -2  1    3    3    0  502 -.30359229E+03 0.38500632E+03 -.54810913E+02 0.49335837E+03 0.32000000E+00 0.0000E+00 0.9000E+01
       21  1    1    2  503  501 -.60351028E+01 -.16489714E+02 0.99025758E+02 0.10057334E+03 0.75000000E+00 0.0000E+00 0.9000E+01
#aMCatNLO 2  0  0  1  1 0.54766059D+02 0.00000000D+00  -5  6  0 0.00000000D+00 0.00000000D+00 0.00000000D+00 0.00000000D+00 0.00000000D+00
  <mgrwgt>
 0.4580951695D-03    1    2    0
 0.746320585162231D+03 0.000000000000000D+00 0.000000000000000D+00 0.746320585162231D+03
 0.746320585162231D+03 0.000000000000000D+00 0.000000000000000D+00 -.746320585162231D+03
 0.748812987562422D+03 0.392406973472334D+03 -.582679973581554D+03 0.227149082981733D+03
 0.230862299611674D+03 -.867319476244200D+02 0.203354638236149D+03 -.664970807713393D+02
 0.512965883150366D+03 -.305675025847914D+03 0.379325335345405D+03 -.160652002210394D+03
 0.000000000000000D+00 -.000000000000000D+00 -.000000000000000D+00 0.000000000000000D+00
 0.827225751873169D+03 0.000000000000000D+00 0.000000000000000D+00 0.827225751873169D+03
 0.747325595023323D+03 0.000000000000000D+00 0.000000000000000D+00 -.747325595023323D+03
 0.744014331578506D+03 0.395424796811767D+03 -.574434373763567D+03 0.227149082981733D+03
 0.232774123601086D+03 -.857946839496181D+02 0.205915524118821D+03 -.664970807713393D+02
 0.515955995981685D+03 -.303595010013876D+03 0.385008563372191D+03 -.160652002210394D+03
 0.818068957352150D+02 -.603510284827258D+01 -.164897137274446D+02 0.799001568498462D+02
0.259902487582D-03 0.000000000000D+00 0.000000000000D+00 0.209900257958D-05 0.415698147125D-07  6 1 -2 25 1 -2 21 2 0.15708333D+00 0.93148765D-01 0.51799156D+06 0.51799156D+06 0.51799156D+06 0.10674270D+01  1  2  1  1  6  1        1 0.458095169521D-03 0.100000000000D+01
  </mgrwgt>
  </event>
  <event>
  7     66 0.18000663E-05 0.55143514E+02 0.75467711E-02 0.94650215E-01
        1 -1    0    0  501    0 0.00000000E+00 0.00000000E+00 0.15410204E+04 0.15410205E+04 0.32000000E+00 0.0000E+00 0.9000E+01
       -2 -1    0    0    0  503 0.00000000E+00 0.00000000E+00 -.16653007E+03 0.16653038E+03 0.32000000E+00 0.0000E+00 0.9000E+01
      -24  2    1    2    0    0 0.44959601E+03 -.18763399E+03 0.78659343E+03 0.92885987E+03 0.81904488E+02 0.0000E+00 0.0000E+00
       25  1    1    2    0    0 -.43789771E+03 0.17819329E+03 0.58643424E+03 0.76356884E+03 0.12500000E+03 0.0000E+00 0.9000E+01
        1  1    3    3  502    0 0.17831904E+03 -.32393122E+02 0.27536858E+03 0.32965884E+03 0.32000000E+00 0.0000E+00 0.9000E+01
       -2  1    3    3    0  502 0.27127697E+03 -.15524086E+03 0.51122485E+03 0.59920103E+03 0.32000000E+00 0.0000E+00 0.9000E+01
       21  1    1    2  501  503 -.11698304E+02 0.94406952E+01 0.14626822E+01 0.15122135E+02 0.75000000E+00 0.0000E+00 0.9000E+01
#aMCatNLO 2  0  0  2  2 0.61780546D+03 0.00000000D+00  -5  6  0 0.00000000D+00 0.00000000D+00 0.00000000D+00 0.00000000D+00 0.00000000D+00
  <mgrwgt>
 0.3303360839D-02    1    2    0
 0.494692826879278D+03 0.000000000000000D+00 0.000000000000000D+00 0.494692826879278D+03
 0.494692826879278D+03 0.000000000000000D+00 0.000000000000000D+00 -.494692826879278D+03
 0.499198984288525D+03 -.443758805960824D+03 0.182923277559878D+03 -.564962173394809D+02
 0.179345212737139D+03 0.176183037228092D+03 -.306686051441939D+02 0.135528367260899D+02
 0.310841456732893D+03 0.267575768732733D+03 -.152254672415684D+03 0.429433806133910D+02
 0.000000000000000D+00 -.000000000000000D+00 0.000000000000000D+00 -.000000000000000D+00
 0.497420756830118D+03 0.000000000000000D+00 0.000000000000000D+00 0.497420756830118D+03
 0.515902223615047D+03 0.000000000000000D+00 0.000000000000000D+00 -.515902223615047D+03
 0.492264233887143D+03 -.437897710051270D+03 0.178193290902548D+03 -.564962173394809D+02
 0.181741705715505D+03 0.178317624797190D+03 -.323912472706058D+02 0.135528367260899D+02
 0.315493908247449D+03 0.271278388838449D+03 -.155242738805905D+03 0.429433806133910D+02
 0.238231325950678D+02 -.116983035843700D+02 0.944069517396206D+01 -.184814667849288D+02
0.306513386779D-03 0.000000000000D+00 0.000000000000D+00 0.787248899682D-04 0.221129560226D-05  6 1 -2 25 1 -2 21 2 0.23707729D+00 0.25619735D-01 0.24891984D+06 0.24891984D+06 0.24891984D+06 0.10906006D+01  1  2  1  2  6  2       -2 0.330336083876D-02 0.100000000000D+01
  </mgrwgt>
  </event>
  <event>
  7     66 0.18000663E-05 0.52480889E+02 0.75467711E-02 0.95096826E-01
       21 -1    0    0  501  503 0.00000000E+00 0.00000000E+00 0.43071897E+03 0.43071962E+03 0.75000000E+00 0.0000E+00 0.9000E+01
       -2 -1    0    0    0  501 0.00000000E+00 0.00000000E+00 -.63020770E+03 0.63020778E+03 0.32000000E+00 0.0000E+00 0.9000E+01
      -24  2    1    2    0    0 0.45449045E+03 0.75284797E+02 -.30030961E+03 0.55564208E+03 0.79516591E+02 0.0000E+00 0.0000E+00
       25  1    1    2    0    0 -.45923403E+03 -.85722585E+02 0.97342910E+02 0.49330001E+03 0.12500000E+03 0.0000E+00 0.9000E+01
        1  1    3    3  502    0 0.30172543E+03 0.21530359E+02 -.16475408E+03 0.34445000E+03 0.32000000E+00 0.0000E+00 0.9000E+01
       -2  1    3    3    0  502 0.15276501E+03 0.53754437E+02 -.13555553E+03 0.21119208E+03 0.32000000E+00 0.0000E+00 0.9000E+01
       -1  1    1    2    0  503 0.47435873E+01 0.10437788E+02 0.34779718E+01 0.11985313E+02 0.32000000E+00 0.0000E+00 0.9000E+01
#aMCatNLO 2  0  0  1  2 0.75553046D+02 0.00000000D+00  -5  6  0 0.00000000D+00 0.00000000D+00 0.00000000D+00 0.00000000D+00 0.00000000D+00
  <mgrwgt>
 0.1274856035D-03    1    2    0
 0.514527106717148D+03 0.000000000000000D+00 0.000000000000000D+00 0.514527106717148D+03
 0.514527106717148D+03 0.000000000000000D+00 0.000000000000000D+00 -.514527106717148D+03
 0.519046845163239D+03 -.456834671362131D+03 -.804430290939017D+02 0.196508599266197D+03
 0.320222851851849D+03 0.303200162626085D+03 0.247695240923121D+02 -.999940343614911D+02
 0.189784516419209D+03 0.153634508736045D+03 0.556735050015897D+02 -.965145649047064D+02
 0.000000000000000D+00 0.000000000000000D+00 0.000000000000000D+00 0.000000000000000D+00
 0.523962482043802D+03 0.000000000000000D+00 0.000000000000000D+00 0.523962482043802D+03
 0.518053745814017D+03 0.000000000000000D+00 0.000000000000000D+00 -.518053745814017D+03
 0.522000851205687D+03 -.459234033483174D+03 -.857225849159534D+02 0.196508599266197D+03
 0.318593837717745D+03 0.301727845293661D+03 0.215298373955311D+02 -.999940343614911D+02
 0.188523391392457D+03 0.152762600880852D+03 0.537549591710945D+02 -.965145649047064D+02
 0.128981475419307D+02 0.474358730866065D+01 0.104377883493278D+02 0.590873622978408D+01
0.580201627941D-05 0.000000000000D+00 0.000000000000D+00 0.158101369277D-03 0.254721102590D-07  6 21 -2 25 1 -2 -1 2 0.66264260D-01 0.96954717D-01 0.23016241D+06 0.23016241D+06 0.23016241D+06 0.10931706D+01  1  2  1  5  6  1        1 0.127485603540D-03 0.100000000000D+01
  </mgrwgt>
  </event>
  <event>
  7     66 0.18000663E-05 0.41523427E+02 0.75467711E-02 0.94967409E-01
        1 -1    0    0  503    0 0.00000000E+00 0.00000000E+00 0.71310869E+03 0.71310876E+03 0.32000000E+00 0.0000E+00 0.9000E+01
       -2 -1    0    0    0  501 0.00000000E+00 0.00000000E+00 -.50440657E+03 0.50440667E+03 0.32000000E+00 0.0000E+00 0.9000E+01
      -24  2    1    2    0    0 -.27930266E+03 -.35797844E+03 0.19962945E+03 0.50229951E+03 0.79336902E+02 0.0000E+00 0.0000E+00
       25  1    1    2    0    0 0.29067429E+03 0.37789013E+03 -.18003695E+03 0.52471973E+03 0.12500000E+03 0.0000E+00 0.9000E+01
        1  1    3    3  502    0 -.78251528E+02 -.11752251E+03 0.24637208E+02 0.14332459E+03 0.32000000E+00 0.0000E+00 0.9000E+01
       -2  1    3    3    0  502 -.20105114E+03 -.24045593E+03 0.17499224E+03 0.35897493E+03 0.32000000E+00 0.0000E+00 0.9000E+01
       21  1    1    2  503  501 -.11371629E+02 -.19911689E+02 0.18910961E+03 0.19049619E+03 0.75000000E+00 0.0000E+00 0.9000E+01
#aMCatNLO 2  0  0  1  2 0.75553046D+02 0.00000000D+00  -5  6  0 0.00000000D+00 0.00000000D+00 0.00000000D+00 0.00000000D+00 0.00000000D+00
  <mgrwgt>
 0.1316365967D-02    1    2    0
 0.513288143896919D+03 0.000000000000000D+00 0.000000000000000D+00 0.513288143896919D+03
 0.513288143896919D+03 0.000000000000000D+00 0.000000000000000D+00 -.513288143896919D+03
 0.517832694580588D+03 0.284881158880513D+03 0.367746369958201D+03 -.190081646336658D+03
 0.146058998943469D+03 -.798496371502566D+02 -.120322296215258D+03 0.219046034620234D+02
 0.362684594269780D+03 -.205031521730257D+03 -.247424073742943D+03 0.168177042874634D+03
 0.000000000000000D+00 -.000000000000000D+00 -.000000000000000D+00 0.000000000000000D+00
 0.699631056452341D+03 0.000000000000000D+00 0.000000000000000D+00 0.699631056452341D+03
 0.514122062884410D+03 0.000000000000000D+00 0.000000000000000D+00 -.514122062884410D+03
 0.528250438582372D+03 0.290674291941953D+03 0.377890128995795D+03 -.190081646336658D+03
 0.142877120229798D+03 -.782495297289987D+02 -.117520512803179D+03 0.219046034620234D+02
 0.355704785819732D+03 -.201053133075619D+03 -.240457926851003D+03 0.168177042874634D+03
 0.186920774704848D+03 -.113716291373362D+02 -.199116893416125D+02 0.185508993567931D+03
0.250715896287D-03 0.000000000000D+00 0.000000000000D+00 0.692241601611D-04 0.873601935339D-06  6 1 -2 25 1 -2 21 2 0.10970888D+00 0.77600911D-01 0.23542929D+06 0.23542929D+06 0.23542929D+06 0.10924265D+01  1  2  1  1  6  1        1 0.131636596685D-02 0.100000000000D+01
  </mgrwgt>
  </event>
  <event>
  7     66 0.18000663E-05 0.26413997E+02 0.75467711E-02 0.94571635E-01
        1 -1    0    0  501    0 0.00000000E+00 0.00000000E+00 0.30778949E+04 0.30778950E+04 0.32000000E+00 0.0000E+00 0.9000E+01
       -2 -1    0    0    0  503 0.00000000E+00 0.00000000E+00 -.18681305E+03 0.18681332E+03 0.32000000E+00 0.0000E+00 0.9000E+01
      -24  2    1    2    0    0 -.13025875E+03 0.47184084E+03 0.42766940E+03 0.65500837E+03 0.80831439E+02 0.0000E+00 0.0000E+00
       25  1    1    2    0    0 0.11476711E+03 -.46594612E+03 0.25108993E+04 0.25593979E+04 0.12500000E+03 0.0000E+00 0.9000E+01
        1  1    3    3  502    0 -.14694674E+01 0.76765608E+02 0.98510924E+02 0.12489845E+03 0.32000000E+00 0.0000E+00 0.9000E+01
       -2  1    3    3    0  502 -.12878928E+03 0.39507523E+03 0.32915848E+03 0.53010992E+03 0.32000000E+00 0.0000E+00 0.9000E+01
       21  1    1    2  501  503 0.15491635E+02 -.58947252E+01 -.47486782E+02 0.50302043E+02 0.75000000E+00 0.0000E+00 0.9000E+01
#aMCatNLO 2  0  0  2  1 0.14874419D+02 0.00000000D+00  -5  6  0 0.00000000D+00 0.00000000D+00 0.00000000D+00 0.00000000D+00 0.00000000D+00
  <mgrwgt>
 0.1511837099D-02    1    2    0
 0.651334560872993D+03 0.000000000000000D+00 0.000000000000000D+00 0.651334560872993D+03
 0.651334560872993D+03 0.000000000000000D+00 0.000000000000000D+00 -.651334560872993D+03
 0.654824041958278D+03 0.122533147502218D+03 -.468901172647525D+03 0.422240268069676D+03
 0.855998095564349D+02 -.447413223694738D+00 0.763724763756810D+02 -.386571089161002D+02
 0.562245270231273D+03 -.122085734278523D+03 0.392528696271844D+03 -.383583159153576D+03
 0.000000000000000D+00 0.000000000000000D+00 -.000000000000000D+00 -.000000000000000D+00
 0.651684715673384D+03 0.000000000000000D+00 0.000000000000000D+00 0.651684715673384D+03
 0.882313669560929D+03 0.000000000000000D+00 0.000000000000000D+00 -.882313669560929D+03
 0.651298025689507D+03 0.114767112882254D+03 -.465946117151081D+03 0.422240268069676D+03
 0.859576534912522D+02 -.146747193822282D+01 0.767606191356054D+02 -.386571089161002D+02
 0.565518890451582D+03 -.128791275614940D+03 0.395080223241846D+03 -.383583159153576D+03
 0.231223815601972D+03 0.154916346709087D+02 -.589472522637049D+01 -.230628953887545D+03
0.196522650339D-02 0.000000000000D+00 0.000000000000D+00 0.104924578654D-03 0.253631370218D-05  6 1 -2 25 1 -2 21 2 0.47352188D+00 0.28740464D-01 0.25239457D+06 0.25239457D+06 0.25239457D+06 0.10901478D+01  1  2  1  2  6  2       -2 0.151183709895D-02 0.100000000000D+01
  </mgrwgt>
  </event>
  <event>
  7     66 0.18000663E-05 0.29561541E+02 0.75467711E-02 0.93987702E-01
        1 -1    0    0  501    0 0.00000000E+00 0.00000000E+00 0.13203809E+04 0.13203809E+04 0.32000000E+00 0.0000E+00 0.9000E+01
       21 -1    0    0  503  501 0.00000000E+00 0.00000000E+00 -.23987505E+03 0.23987622E+03 0.75000000E+00 0.0000E+00 0.9000E+01
      -24  2    1    2    0    0 -.49596070E+03 0.51815359E+01 0.55232593E+03 0.74682537E+03 0.81733333E+02 0.0000E+00 0.0000E+00
       25  1    1    2    0    0 0.48238251E+03 -.58740255E+02 0.55818286E+03 0.75055740E+03 0.12500000E+03 0.0000E+00 0.9000E+01
        1  1    3    3  502    0 -.35807764E+03 0.36286732E+02 0.37066934E+03 0.51665480E+03 0.32000000E+00 0.0000E+00 0.9000E+01
        2  1    1    2  503    0 0.13578189E+02 0.53558719E+02 -.30002980E+02 0.62874357E+02 0.32000000E+00 0.0000E+00 0.9000E+01
       -2  1    3    3    0  502 -.13788306E+03 -.31105196E+02 0.18165659E+03 0.23017057E+03 0.32000000E+00 0.0000E+00 0.9000E+01
#aMCatNLO 2  0  0  2  4 0.14093635D+03 0.00000000D+00  -5  6  0 0.00000000D+00 0.00000000D+00 0.00000000D+00 0.00000000D+00 0.00000000D+00
  <mgrwgt>
 0.2499745628D-03    1    2    0
 0.501465968576241D+03 0.000000000000000D+00 0.000000000000000D+00 0.501465968576241D+03
 0.501465968576241D+03 0.000000000000000D+00 0.000000000000000D+00 -.501465968576241D+03
 0.505925225490442D+03 0.489198680928451D+03 -.318540830541258D+02 0.230255471126521D+01
 0.358033495746299D+03 -.353221463528481D+03 0.554560976446894D+02 -.186333843714915D+02
 0.000000000000000D+00 0.000000000000000D+00 0.000000000000000D+00 -.000000000000000D+00
 0.138973215915741D+03 -.135977217399970D+03 -.236020145905636D+02 0.163308296602262D+02
 0.508556539844178D+03 0.000000000000000D+00 0.000000000000000D+00 0.508556539844178D+03
 0.622796282824005D+03 0.000000000000000D+00 0.000000000000000D+00 -.622796282824005D+03
 0.501770468264309D+03 0.482382507455293D+03 -.587402550652401D+02 0.230255471126521D+01
 0.360397026545924D+03 -.358081012992376D+03 0.362877646647091D+02 -.186333843714915D+02
 0.126900049180832D+03 0.135781888320903D+02 0.535587191224801D+02 -.114239742979827D+03
 0.142285278677118D+03 -.137879683295007D+03 -.311062287219491D+02 0.163308296602262D+02
0.287629568128D-05 0.000000000000D+00 0.000000000000D+00 0.725180644743D-04 0.478384656545D-08  6 1 21 25 1 2 -2 2 0.20313553D+00 0.36903933D-01 0.27998822D+06 0.27998822D+06 0.27998822D+06 0.10867770D+01  1  2  1  6  5  2       -2 0.249974562763D-03 0.100000000000D+01
  </mgrwgt>
  </event>
  <event>
  7     66 0.18000663E-05 0.51428005E+02 0.75467711E-02 0.93448732E-01
        1 -1    0    0  503    0 0.00000000E+00 0.00000000E+00 0.65925358E+03 0.65925365E+03 0.32000000E+00 0.0000E+00 0.9000E+01
       -2 -1    0    0    0  501 0.00000000E+00 0.00000000E+00 -.48826518E+03 0.48826529E+03 0.32000000E+00 0.0000E+00 0.9000E+01
      -24  2    1    2    0    0 0.31691235E+03 0.42792823E+03 0.46405377E+02 0.54046951E+03 0.79986411E+02 0.0000E+00 0.0000E+00
       25  1    1    2    0    0 -.32468737E+03 -.43818511E+03 0.85639820E+02 0.56602761E+03 0.12500000E+03 0.0000E+00 0.9000E+01
        1  1    3    3  502    0 0.76769497E+02 0.16720946E+03 0.18130245E+02 0.18488204E+03 0.32000000E+00 0.0000E+00 0.9000E+01
       -2  1    3    3    0  502 0.24014285E+03 0.26071877E+03 0.28275132E+02 0.35558748E+03 0.32000000E+00 0.0000E+00 0.9000E+01
       21  1    1    2  503  501 0.77750175E+01 0.10256876E+02 0.38943199E+02 0.41021819E+02 0.75000000E+00 0.0000E+00 0.9000E+01
#aMCatNLO 2  0  0  1  2 0.72180307D+01 0.00000000D+00  -5  6  0 0.00000000D+00 0.00000000D+00 0.00000000D+00 0.00000000D+00 0.00000000D+00
  <mgrwgt>
 0.3193245434D-02    1    2    0
 0.549257291290376D+03 0.000000000000000D+00 0.000000000000000D+00 0.549257291290376D+03
 0.549257291290376D+03 0.000000000000000D+00 0.000000000000000D+00 -.549257291290376D+03
 0.553457132738377D+03 -.320747792839736D+03 -.432987983598393D+03 0.182224374555526D+02
 0.186148026917697D+03 0.780768549812121D+02 0.168936091292953D+03 -.396102262724895D+01
 0.358909422924676D+03 0.242670937858524D+03 0.264051892305440D+03 -.142614148283037D+02
 0.000000000000000D+00 0.000000000000000D+00 0.000000000000000D+00 0.000000000000000D+00
 0.584755500603269D+03 0.000000000000000D+00 0.000000000000000D+00 0.584755500603269D+03
 0.550462869025174D+03 0.000000000000000D+00 0.000000000000000D+00 -.550462869025174D+03
 0.559808120384027D+03 -.324687367208635D+03 -.438185106999543D+03 0.182224374555526D+02
 0.184030831090089D+03 0.767668822349817D+02 0.167207962978369D+03 -.396102262724895D+01
 0.354751027791393D+03 0.240145467480416D+03 0.260720268131875D+03 -.142614148283037D+02
 0.366283903629346D+02 0.777501749323684D+01 0.102568758892982D+02 0.342926315780944D+02
0.515553894256D-03 0.000000000000D+00 0.000000000000D+00 0.224126486906D-03 0.848971423010D-05  6 1 -2 25 1 -2 21 2 0.10142294D+00 0.75117211D-01 0.30848837D+06 0.30848837D+06 0.30848837D+06 0.10836565D+01  1  2  1  1  6  1        1 0.319324543450D-02 0.100000000000D+01
  </mgrwgt>
  </event>
  <event>
  7     66 0.18000663E-05 0.40410166E+02 0.75467711E-02 0.89588470E-01
        1 -1    0    0  501    0 0.00000000E+00 0.00000000E+00 0.27189430E+04 0.27189430E+04 0.32000000E+00 0.0000E+00 0.9000E+01
       21 -1    0    0  503  501 0.00000000E+00 0.00000000E+00 -.54987484E+03 0.54987536E+03 0.75000000E+00 0.0000E+00 0.9000E+01
      -24  2    1    2    0    0 0.72222565E+03 0.32415572E+03 0.14056728E+04 0.16152085E+04 0.79345629E+02 0.0000E+00 0.0000E+00
       25  1    1    2    0    0 -.68264444E+03 -.28543841E+03 0.10894554E+04 0.13228819E+04 0.12500000E+03 0.0000E+00 0.9000E+01
        1  1    3    3  502    0 0.96089183E+02 0.22952884E+02 0.13979127E+03 0.17117730E+03 0.32000000E+00 0.0000E+00 0.9000E+01
        2  1    1    2  503    0 -.39581207E+02 -.38717308E+02 -.32606005E+03 0.33072792E+03 0.32000000E+00 0.0000E+00 0.9000E+01
       -2  1    3    3    0  502 0.62613647E+03 0.30120283E+03 0.12658816E+04 0.14440312E+04 0.32000000E+00 0.0000E+00 0.9000E+01
#aMCatNLO 2  0  0  2  1 0.75771802D+01 0.00000000D+00  -5  6  0 0.00000000D+00 0.00000000D+00 0.00000000D+00 0.00000000D+00 0.00000000D+00
  <mgrwgt>
 0.6891166592D-04    1    2    0
 0.775184665026769D+03 0.000000000000000D+00 0.000000000000000D+00 0.775184665026769D+03
 0.775184665026769D+03 0.000000000000000D+00 0.000000000000000D+00 -.775184665026769D+03
 0.778193390444518D+03 -.702186040324093D+03 -.304553490296640D+03 -.643575112449194D+02
 0.963838956930865D+02 0.935828403016422D+02 0.205051521791818D+02 -.105662710622866D+02
 0.000000000000000D+00 -.000000000000000D+00 -.000000000000000D+00 -.000000000000000D+00
 0.675792043915933D+03 0.608603200022451D+03 0.284048338117458D+03 0.749237823072060D+02
 0.776345249360206D+03 0.000000000000000D+00 0.000000000000000D+00 0.776345249360206D+03
 0.192579156885772D+04 0.000000000000000D+00 0.000000000000000D+00 -.192579156885772D+04
 0.753156964411129D+03 -.682644444926440D+03 -.285438409465892D+03 -.643575112449194D+02
 0.993466029579101D+02 0.960805614792228D+02 0.229483581319495D+02 -.105662710622866D+02
 0.115077910272252D+04 -.395812067211665D+02 -.387173078992570D+02 -.114944631949751D+04
 0.698854148126367D+03 0.626145090168384D+03 0.301207359233200D+03 0.749237823072060D+02
0.515111468713D-04 0.000000000000D+00 0.000000000000D+00 0.479687465313D-04 0.134781793731D-07  6 1 21 25 1 2 -2 2 0.41829895D+00 0.84596168D-01 0.63950441D+06 0.63950441D+06 0.63950441D+06 0.10610381D+01  1  2  1  6  5  2       -2 0.689116659199D-04 0.100000000000D+01
  </mgrwgt>
  </event>
  <event>
  7     66 0.18000663E-05 0.38144177E+02 0.75467711E-02 0.95213532E-01
        1 -1    0    0  501    0 0.00000000E+00 0.00000000E+00 0.88028278E+03 0.88028283E+03 0.32000000E+00 0.0000E+00 0.9000E+01
       -2 -1    0    0    0  503 0.00000000E+00 0.00000000E+00 -.27556288E+03 0.27556307E+03 0.32000000E+00 0.0000E+00 0.9000E+01
      -24  2    1    2    0    0 -.13744161E+03 -.42816548E+03 0.18138313E+03 0.49202960E+03 0.83530946E+02 0.0000E+00 0.0000E+00
       25  1    1    2    0    0 0.15260669E+03 0.43437697E+03 0.43342508E+03 0.64455757E+03 0.12500000E+03 0.0000E+00 0.9000E+01
        1  1    3    3  502    0 -.13753817E+03 -.32172197E+03 0.12478824E+03 0.37147541E+03 0.32000000E+00 0.0000E+00 0.9000E+01
       -2  1    3    3    0  502 0.96556528E-01 -.10644350E+03 0.56594888E+02 0.12055419E+03 0.32000000E+00 0.0000E+00 0.9000E+01
       21  1    1    2  501  503 -.15165082E+02 -.62114967E+01 -.10088309E+02 0.19258735E+02 0.75000000E+00 0.0000E+00 0.9000E+01
#aMCatNLO 2  0  0  2  1 0.75771802D+01 0.00000000D+00  -5  6  0 0.00000000D+00 0.00000000D+00 0.00000000D+00 0.00000000D+00 0.00000000D+00
  <mgrwgt>
 0.5355776023D-03    1    2    0
 0.477904986504512D+03 0.000000000000000D+00 0.000000000000000D+00 0.477904986504512D+03
 0.477904986504512D+03 0.000000000000000D+00 0.000000000000000D+00 -.477904986504512D+03
 0.482428679436519D+03 0.144911910861576D+03 0.431225252628366D+03 0.100785665294782D+03
 0.365743338094434D+03 -.143308404507326D+03 -.324087750125249D+03 -.905429222898051D+02
 0.107637955478072D+03 -.160350635424984D+01 -.107137502503117D+03 -.102427430049767D+02
 0.000000000000000D+00 -.000000000000000D+00 -.000000000000000D+00 -.000000000000000D+00
 0.480473171356226D+03 0.000000000000000D+00 0.000000000000000D+00 0.480473171356226D+03
 0.504853555924377D+03 0.000000000000000D+00 0.000000000000000D+00 -.504853555924377D+03
 0.487601178649668D+03 0.152606694034060D+03 0.434376974559689D+03 0.100785665294782D+03
 0.361417191205773D+03 -.137540187624195D+03 -.321725134409163D+03 -.905429222898051D+02
 0.106932082257302D+03 0.985751867688363D-01 -.106440343453735D+03 -.102427430049767D+02
 0.293762751678591D+02 -.151650815966339D+02 -.621149669679115D+01 -.243803845681516D+02
0.410423125286D-04 0.000000000000D+00 0.000000000000D+00 0.156893483402D-04 0.373508757278D-06  6 1 -2 25 1 -2 21 2 0.13542679D+00 0.42393888D-01 0.22552604D+06 0.22552604D+06 0.22552604D+06 0.10938412D+01  1  2  1  2  6  2       -2 0.535577602298D-03 0.100000000000D+01
  </mgrwgt>
  </event>
  <event>
  7     66 0.18000663E-05 0.34213900E+02 0.75467711E-02 0.94381591E-01
        1 -1    0    0  501    0 0.00000000E+00 0.00000000E+00 0.44521022E+03 0.44521034E+03 0.32000000E+00 0.0000E+00 0.9000E+01
       21 -1    0    0  503  501 0.00000000E+00 0.00000000E+00 -.70497441E+03 0.70497481E+03 0.75000000E+00 0.0000E+00 0.9000E+01
      -24  2    1    2    0    0 0.43386906E+03 -.12226215E+03 -.75543196E+02 0.46402563E+03 0.80141235E+02 0.0000E+00 0.0000E+00
       25  1    1    2    0    0 -.47041654E+03 0.16181061E+03 -.19986030E+02 0.51332137E+03 0.12500000E+03 0.0000E+00 0.9000E+01
        1  1    3    3  502    0 0.26745856E+03 -.10647341E+03 -.72401775E+02 0.29683799E+03 0.32000000E+00 0.0000E+00 0.9000E+01
        2  1    1    2  503    0 0.36547478E+02 -.39548454E+02 -.16423496E+03 0.17283814E+03 0.32000000E+00 0.0000E+00 0.9000E+01
       -2  1    3    3    0  502 0.16641050E+03 -.15788737E+02 -.31414211E+01 0.16718765E+03 0.32000000E+00 0.0000E+00 0.9000E+01
#aMCatNLO 2  0  0  2  1 0.75771802D+01 0.00000000D+00  -5  6  0 0.00000000D+00 0.00000000D+00 0.00000000D+00 0.00000000D+00 0.00000000D+00
  <mgrwgt>
 0.3240492602D-03    1    2    0
 0.485587670254228D+03 0.000000000000000D+00 0.000000000000000D+00 0.485587670254228D+03
 0.485587670254228D+03 0.000000000000000D+00 0.000000000000000D+00 -.485587670254228D+03
 0.490325425668361D+03 -.451536776179218D+03 0.141380593624512D+03 0.303329945920177D+02
 0.306005563495610D+03 0.278687830356172D+03 -.118624439987182D+03 -.435974808832206D+02
 0.000000000000000D+00 0.000000000000000D+00 -.000000000000000D+00 -.000000000000000D+00
 0.174844351344484D+03 0.172848945823046D+03 -.227561536373293D+02 0.132644862912029D+02
 0.491078164434554D+03 0.000000000000000D+00 0.000000000000000D+00 0.491078164434554D+03
 0.639128204859381D+03 0.000000000000000D+00 0.000000000000000D+00 -.639128204859381D+03
 0.513828261984966D+03 -.470416538834209D+03 0.161810606094948D+03 0.303329945920177D+02
 0.291157312295132D+03 0.267460173175876D+03 -.106474860546013D+03 -.435974808832206D+02
 0.157539242091302D+03 0.365474776225180D+02 -.395484539311002D+02 -.148050040424827D+03
 0.167681552922534D+03 0.166408888035816D+03 -.157872916178347D+02 0.132644862912029D+02
0.761639826033D-05 0.000000000000D+00 0.000000000000D+00 0.196766699544D-03 0.162488035535D-07  6 1 21 25 1 2 -2 2 0.68493898D-01 0.10845761D+00 0.26102530D+06 0.26102530D+06 0.26102530D+06 0.10890519D+01  1  2  1  6  5  2       -2 0.324049260190D-03 0.100000000000D+01
  </mgrwgt>
  </event>
  <event>
  7     66 0.18000663E-05 0.62874056E+02 0.75467711E-02 0.92788074E-01
        1 -1    0    0  503    0 0.00000000E+00 0.00000000E+00 0.15499665E+04 0.15499665E+04 0.32000000E+00 0.0000E+00 0.9000E+01
       -2 -1    0    0    0  501 0.00000000E+00 0.00000000E+00 -.27497192E+03 0.27497211E+03 0.32000000E+00 0.0000E+00 0.9000E+01
      -24  2    1    2    0    0 -.38727615E+03 -.40000840E+03 0.32299785E+03 0.64864001E+03 0.80104429E+02 0.0000E+00 0.0000E+00
       25  1    1    2    0    0 0.38573922E+03 0.42786681E+03 0.66788780E+03 0.89082202E+03 0.12500000E+03 0.0000E+00 0.9000E+01
        1  1    3    3  502    0 -.21315579E+03 -.16330506E+03 0.14725466E+03 0.30624822E+03 0.32000000E+00 0.0000E+00 0.9000E+01
       -2  1    3    3    0  502 -.17412035E+03 -.23670333E+03 0.17574319E+03 0.34239179E+03 0.32000000E+00 0.0000E+00 0.9000E+01
       21  1    1    2  503  501 0.15369225E+01 -.27858417E+02 0.28410888E+03 0.28547657E+03 0.75000000E+00 0.0000E+00 0.9000E+01
#aMCatNLO 2  0  0  1  2 0.72180307D+01 0.00000000D+00  -5  6  0 0.00000000D+00 0.00000000D+00 0.00000000D+00 0.00000000D+00 0.00000000D+00
  <mgrwgt>
 0.1647670634D-02    1    2    0
 0.588920730304401D+03 0.000000000000000D+00 0.000000000000000D+00 0.588920730304401D+03
 0.588920730304401D+03 0.000000000000000D+00 0.000000000000000D+00 -.588920730304401D+03
 0.592829694616105D+03 0.386518839123645D+03 0.413735402414304D+03 0.123483807076911D+03
 0.279975134202397D+03 -.212793524115087D+03 -.169881662507740D+03 -.651552961004612D+02
 0.305036631790300D+03 -.173725315008558D+03 -.243853739906565D+03 -.583285109764494D+02
 0.000000000000000D+00 0.000000000000000D+00 -.000000000000000D+00 0.000000000000000D+00
 0.721688877807698D+03 0.000000000000000D+00 0.000000000000000D+00 0.721688877807698D+03
 0.590553576020909D+03 0.000000000000000D+00 0.000000000000000D+00 -.590553576020909D+03
 0.602277351238425D+03 0.385739222610438D+03 0.427866812623345D+03 0.123483807076911D+03
 0.276313283025774D+03 -.213156413479417D+03 -.163303892051397D+03 -.651552961004612D+02
 0.299581237695504D+03 -.174119731623259D+03 -.236704503222656D+03 -.583285109764494D+02
 0.134070581868904D+03 0.153692249223831D+01 -.278584173492921D+02 0.131135301786788D+03
0.397699130546D-03 0.000000000000D+00 0.000000000000D+00 0.240551939421D-03 0.196187972414D-05  6 1 -2 25 1 -2 21 2 0.23845597D+00 0.42303315D-01 0.34795431D+06 0.34795431D+06 0.34795431D+06 0.10798191D+01  1  2  1  1  6  1        1 0.164767063353D-02 0.100000000000D+01
  </mgrwgt>
  </event>
  <event>
  7     66 0.18000663E-05 0.32667396E+02 0.75467711E-02 0.93878200E-01
        1 -1    0    0  503    0 0.00000000E+00 0.00000000E+00 0.16172523E+03 0.16172554E+03 0.32000000E+00 0.0000E+00 0.9000E+01
       -2 -1    0    0    0  501 0.00000000E+00 0.00000000E+00 -.24082480E+04 0.24082480E+04 0.32000000E+00 0.0000E+00 0.9000E+01
      -24  2    1    2    0    0 0.44712625E+03 0.26977542E+03 -.91582099E+03 0.10581740E+04 0.91123116E+02 0.0000E+00 0.0000E+00
       25  1    1    2    0    0 -.38914446E+03 -.26746818E+03 -.13612369E+04 0.14462239E+04 0.12500000E+03 0.0000E+00 0.9000E+01
        1  1    3    3  502    0 0.33992554E+03 0.20582762E+03 -.61185598E+03 0.72957674E+03 0.32000000E+00 0.0000E+00 0.9000E+01
       -2  1    3    3    0  502 0.10720071E+03 0.63947802E+02 -.30396501E+03 0.32859724E+03 0.32000000E+00 0.0000E+00 0.9000E+01
       21  1    1    2  503  501 -.57981795E+02 -.23072426E+01 0.30535136E+02 0.65575673E+02 0.75000000E+00 0.0000E+00 0.9000E+01
#aMCatNLO 2  0  0  1  2 0.22149250D+01 0.00000000D+00  -5  6  0 0.00000000D+00 0.00000000D+00 0.00000000D+00 0.00000000D+00 0.00000000D+00
  <mgrwgt>
 0.3469292529D-03    1    2    0
 0.520492275259905D+03 0.000000000000000D+00 0.000000000000000D+00 0.520492275259905D+03
 0.520492275259905D+03 0.000000000000000D+00 0.000000000000000D+00 -.520492275259905D+03
 0.524008938055322D+03 -.417667287818135D+03 -.268603176473615D+03 -.111205833645513D+03
 0.397448870005902D+03 0.317286481274394D+03 0.204928391336803D+03 0.123690126904260D+03
 0.119526742458587D+03 0.100380806543740D+03 0.636747851368127D+02 -.124842932587464D+02
 0.000000000000000D+00 -.000000000000000D+00 -.000000000000000D+00 0.000000000000000D+00
 0.741685629840954D+03 0.000000000000000D+00 0.000000000000000D+00 0.741685629840954D+03
 0.525119995551653D+03 0.000000000000000D+00 0.000000000000000D+00 -.525119995551653D+03
 0.500963448664992D+03 -.389144461170278D+03 -.267468180915080D+03 -.111205833645513D+03
 0.416192628376190D+03 0.339928413596213D+03 0.205829371205986D+03 0.123690126904260D+03
 0.125444539834629D+03 0.107197842308880D+03 0.639460522665167D+02 -.124842932587464D+02
 0.224205008516796D+03 -.579817947348145D+02 -.230724255742262D+01 0.216565634289301D+03
0.138383414331D-02 0.000000000000D+00 0.000000000000D+00 0.233252400684D-05 0.465633880115D-08  6 1 -2 25 1 -2 21 2 0.24880800D-01 0.37049927D+00 0.28553089D+06 0.28553089D+06 0.28553089D+06 0.10861438D+01  1  2  1  1  6  1        1 0.346929252905D-03 0.100000000000D+01
  </mgrwgt>
  </event>
  <event>
  7     66 0.18000663E-05 0.71087899E+02 0.75467711E-02 0.92585295E-01
        3 -1    0    0  501    0 0.00000000E+00 0.00000000E+00 0.65748928E+03 0.65748947E+03 0.50000000E+00 0.0000E+00 0.9000E+01
       21 -1    0    0  503  501 0.00000000E+00 0.00000000E+00 -.84794473E+03 0.84794506E+03 0.75000000E+00 0.0000E+00 0.9000E+01
      -24  2    1    2    0    0 0.13487016E+03 -.57429901E+03 -.35066027E+03 0.69113284E+03 0.81808690E+02 0.0000E+00 0.0000E+00
       25  1    1    2    0    0 -.12118103E+03 0.57160456E+03 0.30359055E+03 0.67023044E+03 0.12500000E+03 0.0000E+00 0.9000E+01
        3  1    3    3  502    0 0.76902785E+02 -.27139493E+03 -.12263809E+03 0.30758673E+03 0.50000000E+00 0.0000E+00 0.9000E+01
        4  1    1    2  503    0 -.13689132E+02 0.26944482E+01 -.14338574E+03 0.14407125E+03 0.15500000E+01 0.0000E+00 0.9000E+01
       -4  1    3    3    0  502 0.57967375E+02 -.30290408E+03 -.22802218E+03 0.38354610E+03 0.15500000E+01 0.0000E+00 0.9000E+01
#aMCatNLO 2  0  0  2  2 0.36943438D+03 0.00000000D+00  -5  6  0 0.00000000D+00 0.00000000D+00 0.00000000D+00 0.00000000D+00 0.00000000D+00
  <mgrwgt>
 0.9006841760D-04    1    2    0
 0.680238884450221D+03 0.000000000000000D+00 0.000000000000000D+00 0.680238884450221D+03
 0.680238884450221D+03 0.000000000000000D+00 0.000000000000000D+00 -.680238884450221D+03
 0.683521679164822D+03 -.128046434811337D+03 0.572955889812219D+03 0.326959546044907D+03
 0.302327146933230D+03 0.738797801877696D+02 -.270881045585805D+03 -.112102368371656D+03
 0.000000000000000D+00 -.000000000000000D+00 0.000000000000000D+00 -.000000000000000D+00
 0.374628942802390D+03 0.541666546235678D+02 -.302074844226414D+03 -.214857177673252D+03
 0.680625158242105D+03 0.000000000000000D+00 0.000000000000000D+00 0.680625158242105D+03
 0.819111501732484D+03 0.000000000000000D+00 0.000000000000000D+00 -.819111501732484D+03
 0.681134467926300D+03 -.121181028020429D+03 0.571604563571062D+03 0.326959546044907D+03
 0.303622906710211D+03 0.769282357434805D+02 -.271481076743884D+03 -.112102368371656D+03
 0.139187354711934D+03 -.136891317223202D+02 0.269444819198830D+01 -.138486343490379D+03
 0.375791930626143D+03 0.579419239992690D+02 -.302817935019166D+03 -.214857177673252D+03
0.384764114308D-04 0.000000000000D+00 0.000000000000D+00 0.982290935131D-04 0.859491522763D-07  6 3 21 25 3 4 -4 2 0.10115160D+00 0.13045225D+00 0.36117870D+06 0.36117870D+06 0.36117870D+06 0.10786386D+01  1  2  1  6  5  2       -4 0.900684176035D-04 0.100000000000D+01
  </mgrwgt>
  </event>
  <event>
  7     66 0.18000663E-05 0.19949923E+02 0.75467711E-02 0.93523595E-01
        1 -1    0    0  503    0 0.00000000E+00 0.00000000E+00 0.51934272E+03 0.51934282E+03 0.32000000E+00 0.0000E+00 0.9000E+01
       -2 -1    0    0    0  501 0.00000000E+00 0.00000000E+00 -.84452517E+03 0.84452523E+03 0.32000000E+00 0.0000E+00 0.9000E+01
      -24  2    1    2    0    0 -.51690201E+03 0.12763627E+03 -.45205884E+03 0.70343779E+03 0.83599170E+02 0.0000E+00 0.0000E+00
       25  1    1    2    0    0 0.50689809E+03 -.14789086E+03 0.11381906E+02 0.54274481E+03 0.12500000E+03 0.0000E+00 0.9000E+01
        1  1    3    3  502    0 -.45253594E+03 0.13760290E+03 -.40951624E+03 0.62564126E+03 0.32000000E+00 0.0000E+00 0.9000E+01
       -2  1    3    3    0  502 -.64366073E+02 -.99666216E+01 -.42542601E+02 0.77796530E+02 0.32000000E+00 0.0000E+00 0.9000E+01
       21  1    1    2  503  501 0.10003920E+02 0.20254588E+02 0.11549449E+03 0.11768545E+03 0.75000000E+00 0.0000E+00 0.9000E+01
#aMCatNLO 2  0  0  1  2 0.22149250D+01 0.00000000D+00  -5  6  0 0.00000000D+00 0.00000000D+00 0.00000000D+00 0.00000000D+00 0.00000000D+00
  <mgrwgt>
 0.2966493665D-03    1    2    0
 0.582723043709658D+03 0.000000000000000D+00 0.000000000000000D+00 0.582723043709658D+03
 0.582723043709658D+03 0.000000000000000D+00 0.000000000000000D+00 -.582723043709658D+03
 0.586428139622265D+03 0.511923268367254D+03 -.137716560848116D+03 0.217351510492075D+03
 0.512650454125696D+03 -.448135573381085D+03 0.146525838740026D+03 -.201283815959507D+03
 0.663674936713555D+02 -.637876949861695D+02 -.880927789191009D+01 -.160676945325685D+02
 0.000000000000000D+00 0.000000000000000D+00 0.000000000000000D+00 0.000000000000000D+00
 0.751551350618557D+03 0.000000000000000D+00 0.000000000000000D+00 0.751551350618557D+03
 0.583588682906855D+03 0.000000000000000D+00 0.000000000000000D+00 -.583588682906855D+03
 0.584537476149689D+03 0.506898091225670D+03 -.147890861861150D+03 0.217351510492075D+03
 0.514046933397874D+03 -.452541626106814D+03 0.137605057353055D+03 -.201283815959507D+03
 0.670805978297915D+02 -.643603849865992D+02 -.996878337546993D+01 -.160676945325685D+02
 0.169475026148058D+03 0.100039198677436D+02 0.202545878835644D+02 0.167962667711702D+03
0.126720542193D-03 0.000000000000D+00 0.000000000000D+00 0.797791516743D-05 0.101301993475D-06  6 1 -2 25 1 -2 21 2 0.79898779D-01 0.12992678D+00 0.30434188D+06 0.30434188D+06 0.30434188D+06 0.10840905D+01  1  2  1  1  6  1        1 0.296649366538D-03 0.100000000000D+01
  </mgrwgt>
  </event>
  <event>
  7     66 0.18000663E-05 0.34748624E+02 0.75467711E-02 0.94091601E-01
        1 -1    0    0  501    0 0.00000000E+00 0.00000000E+00 0.88652080E+03 0.88652086E+03 0.32000000E+00 0.0000E+00 0.9000E+01
       -2 -1    0    0    0  503 0.00000000E+00 0.00000000E+00 -.38381269E+03 0.38381282E+03 0.32000000E+00 0.0000E+00 0.9000E+01
      -24  2    1    2    0    0 0.45594285E+03 0.19452873E+03 0.30026370E+03 0.58498657E+03 0.79534235E+02 0.0000E+00 0.0000E+00
       25  1    1    2    0    0 -.45591445E+03 -.13735217E+03 0.29693053E+03 0.57490551E+03 0.12500000E+03 0.0000E+00 0.9000E+01
        1  1    3    3  502    0 0.33791273E+03 0.17088186E+03 0.25432069E+03 0.45614114E+03 0.32000000E+00 0.0000E+00 0.9000E+01
       -2  1    3    3    0  502 0.11803011E+03 0.23646866E+02 0.45943004E+02 0.12884543E+03 0.32000000E+00 0.0000E+00 0.9000E+01
       21  1    1    2  501  503 -.28396168E-01 -.57176558E+02 -.94486116E+02 0.11044161E+03 0.75000000E+00 0.0000E+00 0.9000E+01
#aMCatNLO 2  0  0  2  2 0.36943438D+03 0.00000000D+00  -5  6  0 0.00000000D+00 0.00000000D+00 0.00000000D+00 0.00000000D+00 0.00000000D+00
  <mgrwgt>
 0.4442739043D-03    1    2    0
 0.496346533850773D+03 0.000000000000000D+00 0.000000000000000D+00 0.496346533850773D+03
 0.496346533850773D+03 0.000000000000000D+00 0.000000000000000D+00 -.496346533850773D+03
 0.501030411356737D+03 -.455928645048451D+03 -.165934837478357D+03 0.108325417902715D+01
 0.370124082142021D+03 0.337905581739990D+03 0.149318299347072D+03 0.227090178239876D+02
 0.121538574202788D+03 0.118023063308460D+03 0.166165381312850D+02 -.237922720030147D+02
 0.000000000000000D+00 -.000000000000000D+00 -.000000000000000D+00 -.000000000000000D+00
 0.501683026640284D+03 0.000000000000000D+00 0.000000000000000D+00 0.501683026640284D+03
 0.678231109922009D+03 0.000000000000000D+00 0.000000000000000D+00 -.678231109922009D+03
 0.492290338123503D+03 -.455914449750458D+03 -.137352168089454D+03 0.108325417902715D+01
 0.379347524719408D+03 0.337916292250973D+03 0.170884242841659D+03 0.227090178239876D+02
 0.122700452929915D+03 0.118026553667212D+03 0.236444828994320D+02 -.237922720030147D+02
 0.185575820789467D+03 -.283961677273289D-01 -.571765576516369D+02 -.176548083281726D+03
0.676296041709D-04 0.000000000000D+00 0.000000000000D+00 0.156617789511D-03 0.318277170916D-06  6 1 -2 25 1 -2 21 2 0.13638763D+00 0.59048032D-01 0.27484044D+06 0.27484044D+06 0.27484044D+06 0.10873775D+01  1  2  1  2  6  2       -2 0.444273904286D-03 0.100000000000D+01
  </mgrwgt>
  </event>
  <event>
  6     66 0.18000663E-05 0.64512024E+02 0.75467711E-02 0.93756963E-01
        1 -1    0    0  501    0 0.00000000E+00 0.00000000E+00 0.22879840E+04 0.22879841E+04 0.32000000E+00 0.0000E+00 0.9000E+01
       -2 -1    0    0    0  501 0.00000000E+00 0.00000000E+00 -.15129180E+03 0.15129214E+03 0.32000000E+00 0.0000E+00 0.9000E+01
       25  1    1    2    0    0 0.30414993E+03 0.43258748E+03 0.59901349E+03 0.80875291E+03 0.12500000E+03 0.0000E+00 0.9000E+01
        1  1    1    2  502    0 -.15835870E+03 -.28271490E+03 0.10076202E+04 0.10584441E+04 0.32000000E+00 0.0000E+00 0.9000E+01
       -2  1    1    2    0  503 -.13225890E+03 -.14923977E+03 0.47085386E+03 0.51133980E+03 0.32000000E+00 0.0000E+00 0.9000E+01
       21  1    1    2  503  502 -.13532331E+02 -.63281492E+00 0.59204651E+02 0.60739424E+02 0.75000000E+00 0.0000E+00 0.9000E+01
#aMCatNLO 2  0  0  5  2 0.66840697D+01 0.00000000D+00  -5  6  0 0.00000000D+00 0.00000000D+00 0.00000000D+00 0.00000000D+00 0.00000000D+00
  <mgrwgt>
 0.2078445518D-02    1    2    0
 0.588348246479200D+03 0.000000000000000D+00 0.000000000000000D+00 0.588348246479200D+03
 0.588348246479200D+03 -.000000000000000D+00 -.000000000000000D+00 -.588348246479200D+03
 0.591658757235211D+03 0.306133152911337D+03 0.434626221397351D+03 -.227634850968692D+03
 0.362779018684255D+03 -.157158041152188D+03 -.281498141563781D+03 0.166339300211513D+03
 0.222258717038935D+03 -.148975111759149D+03 -.153128079833570D+03 0.612955507571792D+02
 0.000000000000000D+00 0.000000000000000D+00 0.000000000000000D+00 0.000000000000000D+00
 0.588348246479200D+03 0.000000000000000D+00 0.000000000000000D+00 0.588348246479200D+03
 0.588348246479200D+03 -.000000000000000D+00 -.000000000000000D+00 -.588348246479200D+03
 0.588812074573655D+03 0.304143135392003D+03 0.432580728308119D+03 -.226816061719779D+03
 0.364519785075850D+03 -.158384109024662D+03 -.282758388438850D+03 0.166843763706264D+03
 0.204930484661013D+03 -.132199200128423D+03 -.149210207618306D+03 0.474993575883408D+02
 0.184341486478827D+02 -.135598262389175D+02 -.612132250962770D+00 0.124729404251737D+02
0.523371244994D-03 0.000000000000D+00 0.000000000000D+00 0.408441417929D-05 0.383572385719D-06  6 1 -2 25 1 -2 21 2 0.35199757D+00 0.23275689D-01 0.29181155D+06 0.29181155D+06 0.29181155D+06 0.10854422D+01  1  2  1  4  6  5       -2 0.207844551795D-02 0.100000000000D+01
  </mgrwgt>
  </event>
  <event>
  7     66 0.18000663E-05 0.32060330E+02 0.75467711E-02 0.93463354E-01
       21 -1    0    0  501  503 0.00000000E+00 0.00000000E+00 0.10840346E+04 0.10840349E+04 0.75000000E+00 0.0000E+00 0.9000E+01
       -2 -1    0    0    0  501 0.00000000E+00 0.00000000E+00 -.55367844E+03 0.55367854E+03 0.32000000E+00 0.0000E+00 0.9000E+01
      -24  2    1    2    0    0 -.29202814E+03 0.44568641E+03 -.13014840E+03 0.55491459E+03 0.84111733E+02 0.0000E+00 0.0000E+00
       25  1    1    2    0    0 0.25348759E+03 -.45469439E+03 0.13014970E+03 0.55096905E+03 0.12500000E+03 0.0000E+00 0.9000E+01
        1  1    3    3  502    0 -.95654929E+02 0.11258340E+03 -.26432153E+01 0.14775648E+03 0.32000000E+00 0.0000E+00 0.9000E+01
       -2  1    3    3    0  502 -.19637321E+03 0.33310301E+03 -.12750518E+03 0.40715811E+03 0.32000000E+00 0.0000E+00 0.9000E+01
       -1  1    1    2    0  503 0.38540547E+02 0.90079750E+01 0.53035485E+03 0.53182975E+03 0.32000000E+00 0.0000E+00 0.9000E+01
#aMCatNLO 2  0  0  1  2 0.22149250D+01 0.00000000D+00  -5  6  0 0.00000000D+00 0.00000000D+00 0.00000000D+00 0.00000000D+00 0.00000000D+00
  <mgrwgt>
 0.1694747881D-04    1    2    0
 0.552587572019017D+03 0.000000000000000D+00 0.000000000000000D+00 0.552587572019017D+03
 0.552587572019017D+03 0.000000000000000D+00 0.000000000000000D+00 -.552587572019017D+03
 0.556455835330090D+03 0.272790902622112D+03 -.450182679013006D+03 0.130149051614657D+03
 0.145429352027822D+03 -.905430694710974D+02 0.113774650267992D+03 -.264158255221668D+01
 0.403289956680123D+03 -.182247833151015D+03 0.336408028745014D+03 -.127507469062440D+03
 0.000000000000000D+00 0.000000000000000D+00 0.000000000000000D+00 0.000000000000000D+00
 0.108403340172730D+04 0.000000000000000D+00 0.000000000000000D+00 0.108403340172730D+04
 0.553679222516495D+03 0.000000000000000D+00 0.000000000000000D+00 -.553679222516495D+03
 0.550968893532877D+03 0.253487592041451D+03 -.454694388227604D+03 0.130149051614657D+03
 0.147752726490049D+03 -.956534707207831D+02 0.112580210365461D+03 -.264158255221668D+01
 0.407162015963934D+03 -.196374667897355D+03 0.333106202862255D+03 -.127507469062440D+03
 0.531828988256931D+03 0.385405465766865D+02 0.900797499988839D+01 0.530354179210801D+03
0.688130497948D-05 0.000000000000D+00 0.000000000000D+00 0.197931339839D-04 0.710307069628D-08  6 21 -2 25 1 -2 -1 2 0.16677457D+00 0.85181319D-01 0.30767353D+06 0.30767353D+06 0.30767353D+06 0.10837413D+01  1  2  1  5  6  1        1 0.169474788147D-04 0.100000000000D+01
  </mgrwgt>
  </event>
  <event>
  7     66 0.18000663E-05 0.33458971E+02 0.75467711E-02 0.91834401E-01
        1 -1    0    0  501    0 0.00000000E+00 0.00000000E+00 0.11849736E+04 0.11849737E+04 0.32000000E+00 0.0000E+00 0.9000E+01
       21 -1    0    0  503  501 0.00000000E+00 0.00000000E+00 -.45283409E+03 0.45283471E+03 0.75000000E+00 0.0000E+00 0.9000E+01
      -24  2    1    2    0    0 0.61353543E+03 -.74492436E+02 0.49084489E+03 0.79325465E+03 0.79683106E+02 0.0000E+00 0.0000E+00
       25  1    1    2    0    0 -.63155542E+03 0.58774628E+02 0.34869244E+03 0.73452578E+03 0.12500000E+03 0.0000E+00 0.9000E+01
        1  1    3    3  502    0 0.14976022E+03 -.27994879E+02 0.16480649E+03 0.22443957E+03 0.32000000E+00 0.0000E+00 0.9000E+01
        2  1    1    2  503    0 0.18019994E+02 0.15717808E+02 -.10739777E+03 0.11002797E+03 0.32000000E+00 0.0000E+00 0.9000E+01
       -2  1    3    3    0  502 0.46377521E+03 -.46497557E+02 0.32603840E+03 0.56881509E+03 0.32000000E+00 0.0000E+00 0.9000E+01
#aMCatNLO 2  0  0  2  1 0.58273284D+02 0.00000000D+00  -5  6  0 0.00000000D+00 0.00000000D+00 0.00000000D+00 0.00000000D+00 0.00000000D+00
  <mgrwgt>
 0.2393772250D-03    1    2    0
 0.638106256121153D+03 0.000000000000000D+00 0.000000000000000D+00 0.638106256121153D+03
 0.638106256121153D+03 0.000000000000000D+00 0.000000000000000D+00 -.638106256121153D+03
 0.641740291438965D+03 -.622437873229236D+03 0.667273449849773D+02 -.657583231027719D+02
 0.162030578620970D+03 0.152030122213122D+03 -.260102601431155D+02 0.496408774640114D+02
 0.000000000000000D+00 0.000000000000000D+00 0.000000000000000D+00 -.000000000000000D+00
 0.472441642182372D+03 0.470407751016114D+03 -.407170848418618D+02 0.161174456387605D+02
 0.638927213809143D+03 0.000000000000000D+00 0.000000000000000D+00 0.638927213809143D+03
 0.839840260873371D+03 0.000000000000000D+00 0.000000000000000D+00 -.839840260873371D+03
 0.649819872755075D+03 -.631555423558454D+03 0.587746284040558D+02 -.657583231027719D+02
 0.160232708597579D+03 0.149755159093376D+03 -.279945800832435D+02 0.496408774640114D+02
 0.202330971738538D+03 0.180199935814155D+02 0.157178075873939D+02 -.200913047064227D+03
 0.466383921591323D+03 0.463780270883662D+03 -.464978559082062D+02 0.161174456387605D+02
0.933532088975D-05 0.000000000000D+00 0.000000000000D+00 0.183297563798D-03 0.742485120536D-07  6 1 21 25 1 2 -2 2 0.18230365D+00 0.69666821D-01 0.41528387D+06 0.41528387D+06 0.41528387D+06 0.10742556D+01  1  2  1  6  5  2       -2 0.239377225008D-03 0.100000000000D+01
  </mgrwgt>
  </event>
  <event>
  7     66 0.18000663E-05 0.44029825E+02 0.75467711E-02 0.94292498E-01
        1 -1    0    0  501    0 0.00000000E+00 0.00000000E+00 0.20302291E+03 0.20302316E+03 0.32000000E+00 0.0000E+00 0.9000E+01
       -2 -1    0    0    0  503 0.00000000E+00 0.00000000E+00 -.15210648E+04 0.15210648E+04 0.32000000E+00 0.0000E+00 0.9000E+01
      -24  2    1    2    0    0 0.34076575E+03 -.34189643E+03 -.36187953E+03 0.60950518E+03 0.86748553E+02 0.0000E+00 0.0000E+00
       25  1    1    2    0    0 -.36994441E+03 0.31724204E+03 -.73850354E+03 0.89359602E+03 0.12500000E+03 0.0000E+00 0.9000E+01
        1  1    3    3  502    0 0.14164490E+03 -.91254600E+02 -.10011521E+03 0.19599448E+03 0.32000000E+00 0.0000E+00 0.9000E+01
       -2  1    3    3    0  502 0.19912085E+03 -.25064183E+03 -.26176432E+03 0.41351070E+03 0.32000000E+00 0.0000E+00 0.9000E+01
       21  1    1    2  501  503 0.29178657E+02 0.24654397E+02 -.21765883E+03 0.22098679E+03 0.75000000E+00 0.0000E+00 0.9000E+01
#aMCatNLO 2  0  0  2  2 0.44058061D+02 0.00000000D+00  -5  6  0 0.00000000D+00 0.00000000D+00 0.00000000D+00 0.00000000D+00 0.00000000D+00
  <mgrwgt>
 0.5554441117D-03    1    2    0
 0.511617804570975D+03 0.000000000000000D+00 0.000000000000000D+00 0.511617804570975D+03
 0.511617804570975D+03 0.000000000000000D+00 0.000000000000000D+00 -.511617804570975D+03
 0.515575686024203D+03 -.355211066143915D+03 0.329690917624469D+03 -.123783219154162D+03
 0.182084790038517D+03 0.146806627325855D+03 -.868903880710237D+02 0.636611765320554D+02
 0.325575133079230D+03 0.208404438818060D+03 -.242800529553445D+03 0.601220426221065D+02
 0.000000000000000D+00 0.000000000000000D+00 0.000000000000000D+00 -.000000000000000D+00
 0.516203488608114D+03 0.000000000000000D+00 0.000000000000000D+00 0.516203488608114D+03
 0.598231912385087D+03 0.000000000000000D+00 0.000000000000000D+00 -.598231912385087D+03
 0.518120313718646D+03 -.369944407679598D+03 0.317242035944690D+03 -.123783219154162D+03
 0.180118869352311D+03 0.141644113181844D+03 -.912524350373088D+02 0.636611765320554D+02
 0.325709226348588D+03 0.199121637194869D+03 -.250643997973971D+03 0.601220426221065D+02
 0.904869915736565D+02 0.291786573028846D+02 0.246543970665901D+02 -.820284237769732D+02
0.380867014194D-03 0.000000000000D+00 0.000000000000D+00 0.686346802738D-05 0.300666366650D-07  6 1 -2 25 1 -2 21 2 0.31234222D-01 0.23400929D+00 0.26518499D+06 0.26518499D+06 0.26518499D+06 0.10885378D+01  1  2  1  2  6  2       -2 0.555444111659D-03 0.100000000000D+01
  </mgrwgt>
  </event>
  <event>
  7     66 0.18000663E-05 0.27856996E+02 0.75467711E-02 0.93252715E-01
        1 -1    0    0  503    0 0.00000000E+00 0.00000000E+00 0.72211431E+03 0.72211438E+03 0.32000000E+00 0.0000E+00 0.9000E+01
       -2 -1    0    0    0  501 0.00000000E+00 0.00000000E+00 -.45364515E+03 0.45364526E+03 0.32000000E+00 0.0000E+00 0.9000E+01
      -24  2    1    2    0    0 -.29790185E+03 0.46758561E+03 0.21559679E+03 0.60016591E+03 0.79594739E+02 0.0000E+00 0.0000E+00
       25  1    1    2    0    0 0.28406866E+03 -.45995612E+03 0.42111879E+02 0.55646478E+03 0.12500000E+03 0.0000E+00 0.9000E+01
        1  1    3    3  502    0 -.22568979E+03 0.40882239E+03 0.17777049E+03 0.49967397E+03 0.32000000E+00 0.0000E+00 0.9000E+01
       -2  1    3    3    0  502 -.72212060E+02 0.58763226E+02 0.37826295E+02 0.10049194E+03 0.32000000E+00 0.0000E+00 0.9000E+01
       21  1    1    2  503  501 0.13833191E+02 -.76294915E+01 0.10760501E+02 0.19128962E+02 0.75000000E+00 0.0000E+00 0.9000E+01
#aMCatNLO 2  0  0  1  2 0.43964617D+02 0.00000000D+00  -5  6  0 0.00000000D+00 0.00000000D+00 0.00000000D+00 0.00000000D+00 0.00000000D+00
  <mgrwgt>
 0.3747096514D-03    1    2    0
 0.563722275300711D+03 0.000000000000000D+00 0.000000000000000D+00 0.563722275300711D+03
 0.563722275300711D+03 0.000000000000000D+00 0.000000000000000D+00 -.563722275300711D+03
 0.567842068848830D+03 0.290994648907299D+03 -.463776048040474D+03 -.839851577708661D+02
 0.466445054178748D+03 -.219935826680306D+03 0.405653163424396D+03 0.681522685906016D+02
 0.931574275738431D+02 -.710588222269926D+02 0.581228846160782D+02 0.158328891802644D+02
 0.000000000000000D+00 0.000000000000000D+00 -.000000000000000D+00 0.000000000000000D+00
 0.575683751376967D+03 0.000000000000000D+00 0.000000000000000D+00 0.575683751376967D+03
 0.569017897668972D+03 0.000000000000000D+00 0.000000000000000D+00 -.569017897668972D+03
 0.561189044938811D+03 0.284068660056427D+03 -.459956121610838D+03 -.839851577708661D+02
 0.471934427733967D+03 -.225692271963564D+03 0.408828045445106D+03 0.681522685906016D+02
 0.944317503651153D+02 -.722095793133857D+02 0.587575676199140D+02 0.158328891802644D+02
 0.171464260080454D+02 0.138331912205227D+02 -.762949145418213D+01 0.666585370799495D+01
0.593501954962D-04 0.000000000000D+00 0.000000000000D+00 0.928082778001D-04 0.232435007725D-05  6 1 -2 25 1 -2 21 2 0.11109293D+00 0.69790574D-01 0.31964845D+06 0.31964845D+06 0.31964845D+06 0.10825194D+01  1  2  1  1  6  1        1 0.374709651440D-03 0.100000000000D+01
  </mgrwgt>
  </event>
  <event>
  6     66 0.18000663E-05 0.14550519E+03 0.75467711E-02 0.90399292E-01
        1 -1    0    0  501    0 0.00000000E+00 0.00000000E+00 0.19930003E+04 0.19930003E+04 0.32000000E+00 0.0000E+00 0.9000E+01
       -2 -1    0    0    0  501 0.00000000E+00 0.00000000E+00 -.28043012E+03 0.28043030E+03 0.32000000E+00 0.0000E+00 0.9000E+01
       25  1    1    2    0    0 0.62734009E+02 0.72550754E+03 0.84170392E+03 0.11199943E+04 0.12500000E+03 0.0000E+00 0.9000E+01
        1  1    1    2  503    0 -.62653856E+02 -.27488378E+03 0.44816718E+03 0.52947193E+03 0.32000000E+00 0.0000E+00 0.9000E+01
       -2  1    1    2    0  502 0.96837215E+01 -.44578464E+03 0.40104969E+03 0.59971549E+03 0.32000000E+00 0.0000E+00 0.9000E+01
       21  1    1    2  502  503 -.97638746E+01 -.48391190E+01 0.21649393E+02 0.24248898E+02 0.75000000E+00 0.0000E+00 0.9000E+01
#aMCatNLO 2  0  0  4  2 0.15493749D+02 0.00000000D+00  -5  6  0 0.00000000D+00 0.00000000D+00 0.00000000D+00 0.00000000D+00 0.00000000D+00
  <mgrwgt>
 0.1178238280D-03    1    2    0
 0.747594503689834D+03 0.000000000000000D+00 0.000000000000000D+00 0.747594503689834D+03
 0.747594503689834D+03 -.000000000000000D+00 -.000000000000000D+00 -.747594503689834D+03
 0.740710159861647D+03 0.632075282923174D+02 0.727336785708734D+03 -.354251948895396D+01
 0.302996671890085D+03 -.731804100358987D+02 -.282656229887762D+03 0.809757153045406D+02
 0.451482175627936D+03 0.997288174358131D+01 -.444680555820972D+03 -.774331958155867D+02
 0.000000000000000D+00 0.000000000000000D+00 0.000000000000000D+00 0.000000000000000D+00
 0.747594503689834D+03 0.000000000000000D+00 0.000000000000000D+00 0.747594503689834D+03
 0.747594503689834D+03 -.000000000000000D+00 -.000000000000000D+00 -.747594503689834D+03
 0.738866777712120D+03 0.627327583151652D+02 0.725503006808891D+03 -.301717618346875D+01
 0.291755974119765D+03 -.626386096782101D+02 -.274908654865057D+03 0.749878956394916D+02
 0.452524652622143D+03 0.968280199828767D+01 -.445800976533718D+03 -.771122162684785D+02
 0.120416029256394D+02 -.977695063524281D+01 -.479337541011556D+01 0.514149681245574D+01
0.613411872004D-04 0.000000000000D+00 0.000000000000D+00 0.118933717506D-07 0.967887445855D-09  6 1 -2 25 1 -2 21 2 0.30661545D+00 0.43143111D-01 0.54583286D+06 0.54583286D+06 0.54583286D+06 0.10658288D+01  1  2  1  3  6  4        1 0.117823828018D-03 0.100000000000D+01
  </mgrwgt>
  </event>
  <event>
  7     66 0.18000663E-05 0.50387202E+02 0.75467711E-02 0.93034735E-01
        1 -1    0    0  503    0 0.00000000E+00 0.00000000E+00 0.67300499E+03 0.67300506E+03 0.32000000E+00 0.0000E+00 0.9000E+01
       -2 -1    0    0    0  501 0.00000000E+00 0.00000000E+00 -.51694239E+03 0.51694249E+03 0.32000000E+00 0.0000E+00 0.9000E+01
      -24  2    1    2    0    0 -.38368130E+03 0.41606185E+03 0.77528411E+02 0.57681145E+03 0.79887423E+02 0.0000E+00 0.0000E+00
       25  1    1    2    0    0 0.38128044E+03 -.40347214E+03 0.37633985E+02 0.57026824E+03 0.12500000E+03 0.0000E+00 0.9000E+01
        1  1    3    3  502    0 -.22909649E+03 0.30393763E+03 0.52185106E+02 0.38417011E+03 0.32000000E+00 0.0000E+00 0.9000E+01
       -2  1    3    3    0  502 -.15458480E+03 0.11212422E+03 0.25343305E+02 0.19264134E+03 0.32000000E+00 0.0000E+00 0.9000E+01
       21  1    1    2  503  501 0.24008519E+01 -.12589709E+02 0.40900202E+02 0.42867865E+02 0.75000000E+00 0.0000E+00 0.9000E+01
#aMCatNLO 2  0  0  1  2 0.43964617D+02 0.00000000D+00  -5  6  0 0.00000000D+00 0.00000000D+00 0.00000000D+00 0.00000000D+00 0.00000000D+00
  <mgrwgt>
 0.1726301848D-02    1    2    0
 0.570606074681937D+03 0.000000000000000D+00 0.000000000000000D+00 0.570606074681937D+03
 0.570606074681937D+03 0.000000000000000D+00 0.000000000000000D+00 -.570606074681937D+03
 0.574655715954626D+03 0.382483788419159D+03 -.409782294502087D+03 -.197183819938707D+02
 0.377047239827807D+03 -.228300483792203D+03 0.299760281467251D+03 0.136851677625448D+02
 0.189509193581440D+03 -.154183304626956D+03 0.110022013034837D+03 0.603321423132590D+01
 0.000000000000000D+00 0.000000000000000D+00 -.000000000000000D+00 0.000000000000000D+00
 0.608508598902580D+03 0.000000000000000D+00 0.000000000000000D+00 0.608508598902580D+03
 0.571726557018805D+03 0.000000000000000D+00 0.000000000000000D+00 -.571726557018805D+03
 0.569366628916064D+03 0.381280444425617D+03 -.403472138112894D+03 -.197183819938707D+02
 0.380858227457008D+03 -.229097689367617D+03 0.303940708578866D+03 0.136851677625448D+02
 0.191059260189371D+03 -.154583606915657D+03 0.112121138520326D+03 0.603321423132590D+01
 0.389510393589431D+02 0.240085185765797D+01 -.125897089862986D+02 0.367820418837757D+02
0.328859311981D-03 0.000000000000D+00 0.000000000000D+00 0.203243164997D-03 0.772927460110D-05  6 1 -2 25 1 -2 21 2 0.10353859D+00 0.79529111D-01 0.33259323D+06 0.33259323D+06 0.33259323D+06 0.10812534D+01  1  2  1  1  6  1        1 0.172630184784D-02 0.100000000000D+01
  </mgrwgt>
  </event>
  <event>
  7     66 0.18000663E-05 0.18510300E+02 0.75467711E-02 0.94860905E-01
        1 -1    0    0  501    0 0.00000000E+00 0.00000000E+00 0.16250418E+04 0.16250418E+04 0.32000000E+00 0.0000E+00 0.9000E+01
       -2 -1    0    0    0  503 0.00000000E+00 0.00000000E+00 -.23864090E+03 0.23864111E+03 0.32000000E+00 0.0000E+00 0.9000E+01
      -24  2    1    2    0    0 -.20103495E+03 0.43689514E+03 0.12380339E+04 0.13302855E+04 0.75095336E+02 0.0000E+00 0.0000E+00
       25  1    1    2    0    0 0.19891239E+03 -.42208845E+03 0.16551301E+03 0.51063133E+03 0.12500000E+03 0.0000E+00 0.9000E+01
        1  1    3    3  502    0 -.18600985E+03 0.38682779E+03 0.11548900E+04 0.12320740E+04 0.32000000E+00 0.0000E+00 0.9000E+01
       -2  1    3    3    0  502 -.15025095E+02 0.50067351E+02 0.83143898E+02 0.98211524E+02 0.32000000E+00 0.0000E+00 0.9000E+01
       21  1    1    2  501  503 0.21225558E+01 -.14806688E+02 -.17146032E+02 0.22766031E+02 0.75000000E+00 0.0000E+00 0.9000E+01
#aMCatNLO 2  0  0  2  1 0.11991704D+03 0.00000000D+00  -5  6  0 0.00000000D+00 0.00000000D+00 0.00000000D+00 0.00000000D+00 0.00000000D+00
  <mgrwgt>
 0.1439520159D-02    1    2    0
 0.595568490406891D+03 0.000000000000000D+00 0.000000000000000D+00 0.595568490406891D+03
 0.595568490406891D+03 0.000000000000000D+00 0.000000000000000D+00 -.595568490406891D+03
 0.599760153770739D+03 0.199976063623174D+03 -.429508504600957D+03 -.345860174787920D+03
 0.538218225995053D+03 -.185049370679234D+03 0.380112050208333D+03 0.333092207190289D+03
 0.531586010479897D+02 -.149266929439399D+02 0.493964543926234D+02 0.127679675976306D+02
 0.000000000000000D+00 0.000000000000000D+00 -.000000000000000D+00 -.000000000000000D+00
 0.596644627442567D+03 0.000000000000000D+00 0.000000000000000D+00 0.596644627442567D+03
 0.649965392190975D+03 0.000000000000000D+00 0.000000000000000D+00 -.649965392190975D+03
 0.594111994386020D+03 0.198912390697080D+03 -.422088453047671D+03 -.345860174787920D+03
 0.543315478234893D+03 -.186012956371072D+03 0.386833905521227D+03 0.333092207190289D+03
 0.538034245255054D+02 -.150219900918786D+02 0.500612355798089D+02 0.127679675976306D+02
 0.553791224871242D+02 0.212255576587049D+01 -.148066880533651D+02 -.533207647484075D+02
0.287593397626D-03 0.000000000000D+00 0.000000000000D+00 0.449425169055D-05 0.127525924046D-06  6 1 -2 25 1 -2 21 2 0.25000538D+00 0.36713847D-01 0.23986528D+06 0.23986528D+06 0.23986528D+06 0.10918138D+01  1  2  1  2  6  2       -2 0.143952015854D-02 0.100000000000D+01
  </mgrwgt>
  </event>
  <event>
  7     66 0.18000663E-05 0.79135373E+02 0.75467711E-02 0.91927618E-01
        1 -1    0    0  501    0 0.00000000E+00 0.00000000E+00 0.12009978E+04 0.12009978E+04 0.32000000E+00 0.0000E+00 0.9000E+01
       21 -1    0    0  503  501 0.00000000E+00 0.00000000E+00 -.51307906E+03 0.51307961E+03 0.75000000E+00 0.0000E+00 0.9000E+01
      -24  2    1    2    0    0 -.32261518E+03 -.46913157E+03 0.53666556E+02 0.57735311E+03 0.79319184E+02 0.0000E+00 0.0000E+00
       25  1    1    2    0    0 0.41655459E+03 0.40432289E+03 0.76158702E+03 0.96573004E+03 0.12500000E+03 0.0000E+00 0.9000E+01
        1  1    3    3  502    0 -.18916662E+03 -.25753917E+03 0.68301888E+02 0.32676548E+03 0.32000000E+00 0.0000E+00 0.9000E+01
        2  1    1    2  503    0 -.93939412E+02 0.64808679E+02 -.12733485E+03 0.17099429E+03 0.32000000E+00 0.0000E+00 0.9000E+01
       -2  1    3    3    0  502 -.13344856E+03 -.21159240E+03 -.14635332E+02 0.25058762E+03 0.32000000E+00 0.0000E+00 0.9000E+01
#aMCatNLO 2  0  0  2  1 0.11991704D+03 0.00000000D+00  -5  6  0 0.00000000D+00 0.00000000D+00 0.00000000D+00 0.00000000D+00 0.00000000D+00
  <mgrwgt>
 0.1357672394D-03    1    2    0
 0.652579962571446D+03 0.000000000000000D+00 0.000000000000000D+00 0.652579962571446D+03
 0.652579962571446D+03 0.000000000000000D+00 0.000000000000000D+00 -.652579962571446D+03
 0.656155565426085D+03 0.369152632675549D+03 0.437025434906559D+03 0.296057813734192D+03
 0.344496655638392D+03 -.213838959511333D+03 -.240519121852252D+03 -.122887742124953D+03
 0.000000000000000D+00 -.000000000000000D+00 0.000000000000000D+00 -.000000000000000D+00
 0.304507704078414D+03 -.155313673164216D+03 -.196506313054307D+03 -.173170071609239D+03
 0.667197169650061D+03 0.000000000000000D+00 0.000000000000000D+00 0.667197169650061D+03
 0.923575791719668D+03 0.000000000000000D+00 0.000000000000000D+00 -.923575791719668D+03
 0.663528409943676D+03 0.416554587635064D+03 0.404322887367875D+03 0.296057813734192D+03
 0.342363193480360D+03 -.189167522834757D+03 -.257539914168781D+03 -.122887742124953D+03
 0.280632813092180D+03 -.939394117073811D+02 0.648086788770716D+02 -.256378622069606D+03
 0.304248544853513D+03 -.133447653092926D+03 -.211591652076166D+03 -.173170071609239D+03
0.730839812664D-05 0.000000000000D+00 0.000000000000D+00 0.135793013859D-03 0.304390998277D-08  6 1 21 25 1 2 -2 2 0.18476891D+00 0.78935275D-01 0.40809801D+06 0.40809801D+06 0.40809801D+06 0.10748007D+01  1  2  1  6  5  2       -2 0.135767239366D-03 0.100000000000D+01
  </mgrwgt>
  </event>
  <event>
  7     66 0.18000663E-05 0.67634667E+02 0.75467711E-02 0.93837085E-01
        3 -1    0    0  501    0 0.00000000E+00 0.00000000E+00 0.87781547E+03 0.87781561E+03 0.50000000E+00 0.0000E+00 0.9000E+01
       -4 -1    0    0    0  503 0.00000000E+00 0.00000000E+00 -.65529861E+03 0.65530044E+03 0.15500000E+01 0.0000E+00 0.9000E+01
      -24  2    1    2    0    0 0.15666604E+03 -.48370986E+03 0.41227203E+02 0.51650196E+03 0.80963671E+02 0.0000E+00 0.0000E+00
       25  1    1    2    0    0 -.13795236E+03 0.50125475E+03 0.47895112E+03 0.71784842E+03 0.12500000E+03 0.0000E+00 0.9000E+01
        3  1    3    3  502    0 0.10751668E+03 -.23039966E+03 -.52727036E+01 0.25430668E+03 0.50000000E+00 0.0000E+00 0.9000E+01
       -4  1    3    3    0  502 0.49149356E+02 -.25331020E+03 0.46499907E+02 0.26219527E+03 0.15500000E+01 0.0000E+00 0.9000E+01
       21  1    1    2  501  503 -.18713675E+02 -.17544895E+02 -.29766145E+03 0.29876568E+03 0.75000000E+00 0.0000E+00 0.9000E+01
#aMCatNLO 2  0  0  2  5 0.12033174D+01 0.00000000D+00  -5  6  0 0.00000000D+00 0.00000000D+00 0.00000000D+00 0.00000000D+00 0.00000000D+00
  <mgrwgt>
 0.2785167005D-04    1    2    0
 0.559548332988624D+03 0.000000000000000D+00 0.000000000000000D+00 0.559548332988624D+03
 0.559548332988624D+03 0.000000000000000D+00 0.000000000000000D+00 -.559548332988624D+03
 0.563600656801434D+03 -.147420886576901D+03 0.492377594254688D+03 0.194556128723444D+03
 0.284856436864987D+03 0.102807240159109D+03 -.234924978393934D+03 -.124032719557757D+03
 0.270639572310828D+03 0.446136464177920D+02 -.257452615860755D+03 -.705234091656871D+02
 0.000000000000000D+00 -.000000000000000D+00 -.000000000000000D+00 -.000000000000000D+00
 0.560047259366645D+03 0.000000000000000D+00 0.000000000000000D+00 0.560047259366645D+03
 0.102711359310974D+04 0.000000000000000D+00 0.000000000000000D+00 -.102711359310974D+04
 0.569002873301878D+03 -.137952360716254D+03 0.501254754366233D+03 0.194556128723444D+03
 0.282967327071906D+03 0.107554226946830D+03 -.230474469161327D+03 -.124032719557757D+03
 0.267420425275361D+03 0.491118091608129D+02 -.253235390131506D+03 -.705234091656871D+02
 0.467770226827237D+03 -.187136753913892D+02 -.175448950733994D+02 -.467066333743093D+03
0.269422166231D-03 0.000000000000D+00 0.000000000000D+00 0.159551656941D-03 0.181259256460D-05  6 3 -4 25 3 -4 21 2 0.13504861D+00 0.10081527D+00 0.28764370D+06 0.28764370D+06 0.28764370D+06 0.10859059D+01  1  2  1  2  6  2       -4 0.278516700517D-04 0.100000000000D+01
  </mgrwgt>
  </event>
  <event>
  5     66 0.18000663E-05 0.23015387E+03 0.75467711E-02 0.92141595E-01
        1 -1    0    0  501    0 0.00000000E+00 0.00000000E+00 0.14112825E+04 0.14112825E+04 0.32000000E+00 0.0000E+00 0.9000E+01
       -2 -1    0    0    0  501 0.00000000E+00 0.00000000E+00 -.30964476E+03 0.30964493E+03 0.32000000E+00 0.0000E+00 0.9000E+01
       25  1    1    2    0    0 0.51481169E+03 0.32331970E+03 0.69307591E+03 0.93034720E+03 0.12500000E+03 0.0000E+00 0.9000E+01
        1  1    1    2  502    0 -.36846866E+03 -.13313736E+03 0.38527451E+03 0.54948272E+03 0.32000000E+00 0.0000E+00 0.9000E+01
       -2  1    1    2    0  502 -.14634304E+03 -.19018234E+03 0.23287289E+02 0.24109751E+03 0.32000000E+00 0.0000E+00 0.9000E+01
#aMCatNLO 1  0  0  2  5 0.12033174D+01 0.00000000D+00  -5  6  0 0.00000000D+00 0.00000000D+00 0.00000000D+00 0.00000000D+00 0.00000000D+00
  <mgrwgt>
 0.3108350410D-03    3    2    0
 0.661057029339957D+03 0.000000000000000D+00 0.000000000000000D+00 0.661057029339957D+03
 0.661057029339957D+03 0.000000000000000D+00 0.000000000000000D+00 -.661057029339957D+03
 0.633488463824725D+03 0.514813311219491D+03 0.323320721289635D+03 0.126939353925346D+03
 0.394206572219528D+03 -.368467730899253D+03 -.133139365238731D+03 0.436378538754304D+02
 0.294419022635660D+03 -.146345580320238D+03 -.190181356050904D+03 -.170577207800777D+03
 0.000000000000000D+00 0.000000000000000D+00 0.000000000000000D+00 0.000000000000000D+00
 0.209129772194347D+04 0.000000000000000D+00 0.000000000000000D+00 0.209129772194347D+04
 0.100174848357643D+04 0.000000000000000D+00 0.000000000000000D+00 -.100174848357643D+04
 0.369974999229832D+03 0.193534963533853D+03 0.260167481384741D+03 0.126939353925346D+03
 0.770964049189367D+03 -.741519770959175D+03 -.206469688158489D+03 0.436378538754304D+02
 0.496250019875300D+03 -.399493654860840D+03 -.239942322509085D+03 -.170577207800777D+03
 0.145585713722540D+04 0.947478462286163D+03 0.186244529282833D+03 0.108954923836704D+04
0.130733182773D-03 0.000000000000D+00 0.000000000000D+00 0.274110286241D-08 0.000000000000D+00  6 1 -2 25 1 -2 21 0 0.21712040D+00 0.47637671D-01 0.39212307D+06 0.39212307D+06 0.39212307D+06 0.10760509D+01  1  2  2  2  6  2       -2 0.455713483394D-03 0.100000000000D+01
-.354395753315D-05 0.000000000000D+00 -.502049844686D-06 0.274110286241D-08 0.000000000000D+00  6 1 -2 25 1 -2 21 2 0.21712040D+00 0.47637671D-01 0.39212307D+06 0.39212307D+06 0.39212307D+06 0.10760509D+01  1  2  3  2  6  2       -2 -.143040870565D-04 0.100000000000D+01
-.323508916419D-04 0.000000000000D+00 0.000000000000D+00 0.274110286241D-08 0.000000000000D+00  6 1 -2 25 1 -2 21 2 0.21712040D+00 0.47637671D-01 0.39212307D+06 0.39212307D+06 0.39212307D+06 0.10760509D+01  1  2 15  2  6  2       -2 -.130574355385D-03 0.100000000000D+01
  </mgrwgt>
  </event>
  <event>
  7     66 0.18000663E-05 0.66618330E+02 0.75467711E-02 0.92607342E-01
        1 -1    0    0  503    0 0.00000000E+00 0.00000000E+00 0.80040521E+03 0.80040528E+03 0.32000000E+00 0.0000E+00 0.9000E+01
       -2 -1    0    0    0  501 0.00000000E+00 0.00000000E+00 -.53713083E+03 0.53713092E+03 0.32000000E+00 0.0000E+00 0.9000E+01
      -24  2    1    2    0    0 0.56178257E+03 0.42231212E+02 0.32456729E+03 0.65522395E+03 0.81187190E+02 0.0000E+00 0.0000E+00
       25  1    1    2    0    0 -.51100696E+03 0.51343471E+02 -.14361049E+03 0.54773465E+03 0.12500000E+03 0.0000E+00 0.9000E+01
        1  1    3    3  502    0 0.28421460E+03 0.39180407E+02 0.12290973E+03 0.31212169E+03 0.32000000E+00 0.0000E+00 0.9000E+01
       -2  1    3    3    0  502 0.27756797E+03 0.30508055E+01 0.20165756E+03 0.34310226E+03 0.32000000E+00 0.0000E+00 0.9000E+01
       21  1    1    2  503  501 -.50775609E+02 -.93574683E+02 0.82317593E+02 0.13457761E+03 0.75000000E+00 0.0000E+00 0.9000E+01
#aMCatNLO 2  0  0  1  2 0.31263263D+03 0.00000000D+00  -5  6  0 0.00000000D+00 0.00000000D+00 0.00000000D+00 0.00000000D+00 0.00000000D+00
  <mgrwgt>
 0.3779939072D-03    1    2    0
 0.592247758897812D+03 0.000000000000000D+00 0.000000000000000D+00 0.592247758897812D+03
 0.592247758897812D+03 0.000000000000000D+00 0.000000000000000D+00 -.592247758897812D+03
 0.596061044871554D+03 -.536075379699711D+03 0.514473395131565D+01 -.228605529691978D+03
 0.282930775896035D+03 0.271809539432835D+03 0.163194144900719D+02 0.768314709812573D+02
 0.305503697028035D+03 0.264265840266877D+03 -.214641484413875D+02 0.151774058710721D+03
 0.000000000000000D+00 -.000000000000000D+00 -.000000000000000D+00 0.000000000000000D+00
 0.687828618948915D+03 0.000000000000000D+00 0.000000000000000D+00 0.687828618948915D+03
 0.625040717650676D+03 0.000000000000000D+00 0.000000000000000D+00 -.625040717650676D+03
 0.575890404753357D+03 -.511006964820789D+03 0.513434707229595D+02 -.228605529691978D+03
 0.297012156122835D+03 0.284214703512456D+03 0.391809680702055D+02 0.768314709812573D+02
 0.316367810157055D+03 0.277567869927308D+03 0.305024426269973D+01 0.151774058710721D+03
 0.123598965566344D+03 -.507756086189749D+02 -.935746830558647D+02 0.627879012982394D+02
0.103586915741D-03 0.000000000000D+00 0.000000000000D+00 0.117475315707D-03 0.653800582049D-07  6 1 -2 25 1 -2 21 2 0.12313906D+00 0.82635377D-01 0.35971400D+06 0.35971400D+06 0.35971400D+06 0.10787670D+01  1  2  1  1  6  1        1 0.377993907183D-03 0.100000000000D+01
  </mgrwgt>
  </event>
  <event>
  6     66 0.18000663E-05 0.11363675E+03 0.75467711E-02 0.92787939E-01
        1 -1    0    0  503    0 0.00000000E+00 0.00000000E+00 0.15188472E+04 0.15188473E+04 0.32000000E+00 0.0000E+00 0.9000E+01
       -2 -1    0    0    0  501 0.00000000E+00 0.00000000E+00 -.28858208E+03 0.28858226E+03 0.32000000E+00 0.0000E+00 0.9000E+01
       25  1    1    2    0    0 -.49033838E+03 0.27452301E+03 0.84780149E+03 0.10247863E+04 0.12500000E+03 0.0000E+00 0.9000E+01
        1  1    1    2  502    0 0.30305252E+03 -.20235665E+03 0.80151543E+02 0.37311314E+03 0.32000000E+00 0.0000E+00 0.9000E+01
       -2  1    1    2    0  502 0.20535576E+03 -.79453616E+02 0.17645289E+03 0.28216943E+03 0.32000000E+00 0.0000E+00 0.9000E+01
       21  1    1    2  503  501 -.18069899E+02 0.72872595E+01 0.12585923E+03 0.12736064E+03 0.75000000E+00 0.0000E+00 0.9000E+01
#aMCatNLO 2  0  0  1  2 0.31263263D+03 0.00000000D+00  -5  6  0 0.00000000D+00 0.00000000D+00 0.00000000D+00 0.00000000D+00 0.00000000D+00
  <mgrwgt>
 0.9735992206D-05    1    2    0
 0.632957224191818D+03 0.000000000000000D+00 0.000000000000000D+00 0.632957224191818D+03
 0.632957224191818D+03 0.000000000000000D+00 0.000000000000000D+00 -.632957224191818D+03
 0.628996413989907D+03 -.499254612878331D+03 0.278118773360985D+03 0.231097962422978D+03
 0.419764667068665D+03 0.297022908018694D+03 -.199925176602798D+03 -.219111139816590D+03
 0.217153367325064D+03 0.202231704859636D+03 -.781935967581872D+02 -.119868226063872D+02
 0.000000000000000D+00 -.000000000000000D+00 0.000000000000000D+00 0.000000000000000D+00
 0.690597499388525D+03 0.000000000000000D+00 0.000000000000000D+00 0.690597499388525D+03
 0.634680862990263D+03 0.000000000000000D+00 0.000000000000000D+00 -.634680862990263D+03
 0.620343461758642D+03 -.490338485641408D+03 0.274523062436536D+03 0.231097962422978D+03
 0.425205016451690D+03 0.303053178368543D+03 -.202357074263987D+03 -.219111139816590D+03
 0.220515902470552D+03 0.205355206296626D+03 -.794532477188651D+02 -.119868226063872D+02
 0.592139816979040D+02 -.180698990237601D+02 0.728725954631597D+01 0.559166363982621D+02
0.245701832592D-05 0.000000000000D+00 0.000000000000D+00 0.946738870706D-08 0.155551003350D-09  6 1 -2 25 1 -2 21 2 0.23366795D+00 0.44397094D-01 0.34796290D+06 0.34796290D+06 0.34796290D+06 0.10798183D+01  1  2  1  1  6  1        1 0.973599220601D-05 0.100000000000D+01
  </mgrwgt>
  </event>
  <event>
  7     66 0.18000663E-05 0.52182165E+02 0.75467711E-02 0.95303195E-01
        1 -1    0    0  501    0 0.00000000E+00 0.00000000E+00 0.11172398E+04 0.11172398E+04 0.32000000E+00 0.0000E+00 0.9000E+01
       -2 -1    0    0    0  503 0.00000000E+00 0.00000000E+00 -.23700742E+03 0.23700763E+03 0.32000000E+00 0.0000E+00 0.9000E+01
      -24  2    1    2    0    0 -.35870251E+03 -.26767373E+03 0.27754755E+03 0.53251377E+03 0.78876854E+02 0.0000E+00 0.0000E+00
       25  1    1    2    0    0 0.36069980E+03 0.28128898E+03 0.63154726E+03 0.78974982E+03 0.12500000E+03 0.0000E+00 0.9000E+01
        1  1    3    3  502    0 -.20977744E+03 -.20361931E+03 0.17836726E+03 0.34246515E+03 0.32000000E+00 0.0000E+00 0.9000E+01
       -2  1    3    3    0  502 -.14892507E+03 -.64054412E+02 0.99180299E+02 0.19004862E+03 0.32000000E+00 0.0000E+00 0.9000E+01
       21  1    1    2  501  503 -.19972915E+01 -.13615251E+02 -.28862453E+02 0.31983869E+02 0.75000000E+00 0.0000E+00 0.9000E+01
#aMCatNLO 2  0  0  2  1 0.32897738D+01 0.00000000D+00  -5  6  0 0.00000000D+00 0.00000000D+00 0.00000000D+00 0.00000000D+00 0.00000000D+00
  <mgrwgt>
 0.6202869394D-02    1    2    0
 0.480036003012393D+03 0.000000000000000D+00 0.000000000000000D+00 0.480036003012393D+03
 0.480036003012393D+03 0.000000000000000D+00 0.000000000000000D+00 -.480036003012393D+03
 0.484933261675019D+03 0.359686140787941D+03 0.274379007023012D+03 0.121972574412923D+03
 0.306091553409252D+03 -.210411696039210D+03 -.207938433495158D+03 -.786165702251870D+02
 0.169047190940515D+03 -.149274444748730D+03 -.664405735278547D+02 -.433560041877359D+02
 0.000000000000000D+00 -.000000000000000D+00 -.000000000000000D+00 -.000000000000000D+00
 0.480754927511661D+03 0.000000000000000D+00 0.000000000000000D+00 0.480754927511661D+03
 0.550784006992449D+03 0.000000000000000D+00 0.000000000000000D+00 -.550784006992449D+03
 0.489622450237803D+03 0.360699800085453D+03 0.281288977896873D+03 0.121972574412923D+03
 0.302736386000642D+03 -.209778439167567D+03 -.203621611709507D+03 -.786165702251870D+02
 0.167811784529099D+03 -.148924069466680D+03 -.640521151969041D+02 -.433560041877359D+02
 0.713683137365660D+02 -.199729145120678D+01 -.136152509904619D+02 -.700290794807884D+02
0.543958630755D-03 0.000000000000D+00 0.000000000000D+00 0.764736967084D-04 0.260038095801D-05  6 1 -2 25 1 -2 21 2 0.17188236D+00 0.36462551D-01 0.22203518D+06 0.22203518D+06 0.22203518D+06 0.10943561D+01  1  2  1  2  6  2       -2 0.620286939436D-02 0.100000000000D+01
  </mgrwgt>
  </event>
  <event>
  7     66 0.18000663E-05 0.38244179E+02 0.75467711E-02 0.94777661E-01
        1 -1    0    0  501    0 0.00000000E+00 0.00000000E+00 0.67202556E+03 0.67202564E+03 0.32000000E+00 0.0000E+00 0.9000E+01
       21 -1    0    0  503  501 0.00000000E+00 0.00000000E+00 -.45490154E+03 0.45490216E+03 0.75000000E+00 0.0000E+00 0.9000E+01
      -24  2    1    2    0    0 0.46701537E+03 -.10613036E+03 0.55080199E+02 0.48827484E+03 0.77533788E+02 0.0000E+00 0.0000E+00
       25  1    1    2    0    0 -.45083471E+03 0.11676666E+03 0.25377668E+03 0.54489815E+03 0.12500000E+03 0.0000E+00 0.9000E+01
        1  1    3    3  502    0 0.13298275E+03 0.51088253E+01 0.13801751E+02 0.13379500E+03 0.32000000E+00 0.0000E+00 0.9000E+01
        2  1    1    2  503    0 -.16180660E+02 -.10636305E+02 -.91732853E+02 0.93754805E+02 0.32000000E+00 0.0000E+00 0.9000E+01
       -2  1    3    3    0  502 0.33403262E+03 -.11123918E+03 0.41278448E+02 0.35447985E+03 0.32000000E+00 0.0000E+00 0.9000E+01
#aMCatNLO 2  0  0  2  1 0.32897738D+01 0.00000000D+00  -5  6  0 0.00000000D+00 0.00000000D+00 0.00000000D+00 0.00000000D+00 0.00000000D+00
  <mgrwgt>
 0.4660878642D-03    1    2    0
 0.492868874887807D+03 0.000000000000000D+00 0.000000000000000D+00 0.492868874887807D+03
 0.492868874887807D+03 0.000000000000000D+00 0.000000000000000D+00 -.492868874887807D+03
 0.497745177836020D+03 -.458953122684937D+03 0.111430048919302D+03 0.952398941336989D+02
 0.133667214750694D+03 0.130767264485072D+03 0.365671906993916D+01 -.274495035281682D+02
 0.000000000000000D+00 -.000000000000000D+00 -.000000000000000D+00 -.000000000000000D+00
 0.354325357188900D+03 0.328185858199865D+03 -.115086767989241D+03 -.677903906055307D+02
 0.493706474610058D+03 0.000000000000000D+00 0.000000000000000D+00 0.493706474610058D+03
 0.619205174616486D+03 0.000000000000000D+00 0.000000000000000D+00 -.619205174616486D+03
 0.491509943493445D+03 -.450834707487284D+03 0.116766663235645D+03 0.952398941336989D+02
 0.135878973015555D+03 0.132979320627162D+03 0.511080711409889D+01 -.274495035281682D+02
 0.126983732963525D+03 -.161806597335050D+02 -.106363050274458D+02 -.125498700006428D+03
 0.358538999754019D+03 0.334036046593627D+03 -.111241165322298D+03 -.677903906055307D+02
0.657275823925D-05 0.000000000000D+00 0.000000000000D+00 0.250943903357D-04 0.137508327259D-07  6 1 21 25 1 2 -2 2 0.10338856D+00 0.69984877D-01 0.24339783D+06 0.24339783D+06 0.24339783D+06 0.10913346D+01  1  2  1  6  5  2       -2 0.466087864184D-03 0.100000000000D+01
  </mgrwgt>
  </event>
  <event>
  7     66 0.18000663E-05 0.53112878E+02 0.75467711E-02 0.95340406E-01
        1 -1    0    0  503    0 0.00000000E+00 0.00000000E+00 0.10872955E+04 0.10872955E+04 0.32000000E+00 0.0000E+00 0.9000E+01
       -2 -1    0    0    0  501 0.00000000E+00 0.00000000E+00 -.28321166E+03 0.28321184E+03 0.32000000E+00 0.0000E+00 0.9000E+01
      -24  2    1    2    0    0 -.15614301E+02 0.45272788E+03 0.59400251E+03 0.75157554E+03 0.82586171E+02 0.0000E+00 0.0000E+00
       25  1    1    2    0    0 -.76838687E-01 -.45320738E+03 0.66871041E+02 0.47486174E+03 0.12500000E+03 0.0000E+00 0.9000E+01
        1  1    3    3  502    0 0.50947922E+01 0.16094345E+03 0.27566666E+03 0.31925063E+03 0.32000000E+00 0.0000E+00 0.9000E+01
       -2  1    3    3    0  502 -.20709093E+02 0.29178443E+03 0.31833584E+03 0.43232491E+03 0.32000000E+00 0.0000E+00 0.9000E+01
       21  1    1    2  503  501 0.15691139E+02 0.47950278E+00 0.14321029E+03 0.14407010E+03 0.75000000E+00 0.0000E+00 0.9000E+01
#aMCatNLO 2  0  0  1  2 0.79928804D+02 0.00000000D+00  -5  6  0 0.00000000D+00 0.00000000D+00 0.00000000D+00 0.00000000D+00 0.00000000D+00
  <mgrwgt>
 0.1275883467D-02    1    2    0
 0.516514309252901D+03 0.000000000000000D+00 0.000000000000000D+00 0.516514309252901D+03
 0.516514309252901D+03 0.000000000000000D+00 0.000000000000000D+00 -.516514309252901D+03
 0.520775819715259D+03 0.783415395885986D+01 -.452965633485571D+03 -.224372938013621D+03
 0.202816773296869D+03 0.817434464202142D+01 0.161035585436091D+03 0.123025866562615D+03
 0.309436025493674D+03 -.160084986008813D+02 0.291930048049480D+03 0.101347071451006D+03
 0.000000000000000D+00 0.000000000000000D+00 0.000000000000000D+00 0.000000000000000D+00
 0.595203138303635D+03 0.000000000000000D+00 0.000000000000000D+00 0.595203138303635D+03
 0.517357503271350D+03 0.000000000000000D+00 0.000000000000000D+00 -.517357503271350D+03
 0.520927206281022D+03 -.768386871938125D-01 -.453207384126408D+03 -.224372938013621D+03
 0.202641278681375D+03 0.509517947936345D+01 0.160941489766354D+03 0.123025866562615D+03
 0.309579407850791D+03 -.207094799926731D+02 0.291786391581211D+03 0.101347071451006D+03
 0.794127487617970D+02 0.156911392005035D+02 0.479502778842949D+00 0.778456350322855D+02
0.148484494157D-03 0.000000000000D+00 0.000000000000D+00 0.530203551754D-04 0.138910065643D-05  6 1 -2 25 1 -2 21 2 0.16727568D+00 0.43570893D-01 0.22060432D+06 0.22060432D+06 0.22060432D+06 0.10945697D+01  1  2  1  1  6  1        1 0.127588346746D-02 0.100000000000D+01
  </mgrwgt>
  </event>
  <event>
  7     66 0.18000663E-05 0.55321613E+02 0.75467711E-02 0.93659193E-01
        1 -1    0    0  501    0 0.00000000E+00 0.00000000E+00 0.14670481E+04 0.14670481E+04 0.32000000E+00 0.0000E+00 0.9000E+01
       -2 -1    0    0    0  503 0.00000000E+00 0.00000000E+00 -.20970563E+03 0.20970588E+03 0.32000000E+00 0.0000E+00 0.9000E+01
      -24  2    1    2    0    0 -.43936788E+02 -.52945929E+03 0.61199044E+03 0.81446853E+03 0.81050030E+02 0.0000E+00 0.0000E+00
       25  1    1    2    0    0 0.54860654E+02 0.52469373E+03 0.65251551E+03 0.84836000E+03 0.12500000E+03 0.0000E+00 0.9000E+01
        1  1    3    3  502    0 0.17625424E+02 -.19360662E+03 0.19260010E+03 0.27365869E+03 0.32000000E+00 0.0000E+00 0.9000E+01
       -2  1    3    3    0  502 -.61562212E+02 -.33585267E+03 0.41939033E+03 0.54080983E+03 0.32000000E+00 0.0000E+00 0.9000E+01
       21  1    1    2  501  503 -.10923866E+02 0.47655567E+01 -.71634718E+01 0.13925487E+02 0.75000000E+00 0.0000E+00 0.9000E+01
#aMCatNLO 2  0  0  2  1 0.53375396D+02 0.00000000D+00  -5  6  0 0.00000000D+00 0.00000000D+00 0.00000000D+00 0.00000000D+00 0.00000000D+00
  <mgrwgt>
 0.2197790334D-02    1    2    0
 0.539879936477338D+03 0.000000000000000D+00 0.000000000000000D+00 0.539879936477338D+03
 0.539879936477338D+03 0.000000000000000D+00 0.000000000000000D+00 -.539879936477338D+03
 0.544073411753979D+03 0.493655369670356D+02 0.527090985459215D+03 0.113584411432847D+02
 0.194845052608835D+03 0.156503184881323D+02 -.192742220466599D+03 -.238767356848653D+02
 0.340841408591862D+03 -.650158554551679D+02 -.334348764992616D+03 0.125182945415806D+02
 0.000000000000000D+00 -.000000000000000D+00 0.000000000000000D+00 -.000000000000000D+00
 0.541155293290166D+03 0.000000000000000D+00 0.000000000000000D+00 0.541155293290166D+03
 0.568493253293596D+03 0.000000000000000D+00 0.000000000000000D+00 -.568493253293596D+03
 0.542279647723825D+03 0.548606539063076D+02 0.524693730478307D+03 0.113584411432847D+02
 0.195865929048161D+03 0.176266580537381D+02 -.193604402276371D+03 -.238767356848653D+02
 0.341680068698956D+03 -.615634462236050D+02 -.335854884938371D+03 0.125182945415806D+02
 0.298229011128211D+02 -.109238657364407D+02 0.476555673643555D+01 -.273379600034300D+02
0.277861823094D-03 0.000000000000D+00 0.000000000000D+00 0.163038399296D-03 0.721586766259D-05  6 1 -2 25 1 -2 21 2 0.22569777D+00 0.32262146D-01 0.29698937D+06 0.29698937D+06 0.29698937D+06 0.10848761D+01  1  2  1  2  6  2       -2 0.219779033414D-02 0.100000000000D+01
  </mgrwgt>
  </event>
  <event>
  7     66 0.18000663E-05 0.28642187E+02 0.75467711E-02 0.95253530E-01
        1 -1    0    0  503    0 0.00000000E+00 0.00000000E+00 0.60148238E+03 0.60148247E+03 0.32000000E+00 0.0000E+00 0.9000E+01
       -2 -1    0    0    0  501 0.00000000E+00 0.00000000E+00 -.46168979E+03 0.46168990E+03 0.32000000E+00 0.0000E+00 0.9000E+01
      -24  2    1    2    0    0 -.23726178E+03 0.36130047E+03 -.11304924E+03 0.45398554E+03 0.80570250E+02 0.0000E+00 0.0000E+00
       25  1    1    2    0    0 0.26976713E+03 -.37335213E+03 0.14943659E+03 0.50012240E+03 0.12500000E+03 0.0000E+00 0.9000E+01
        1  1    3    3  502    0 -.19545841E+03 0.26257469E+03 -.54547168E+02 0.33185080E+03 0.32000000E+00 0.0000E+00 0.9000E+01
       -2  1    3    3    0  502 -.41803365E+02 0.98725776E+02 -.58502074E+02 0.12213474E+03 0.32000000E+00 0.0000E+00 0.9000E+01
       21  1    1    2  503  501 -.32505356E+02 0.12051667E+02 0.10340524E+03 0.10906442E+03 0.75000000E+00 0.0000E+00 0.9000E+01
#aMCatNLO 2  0  0  1  2 0.79928804D+02 0.00000000D+00  -5  6  0 0.00000000D+00 0.00000000D+00 0.00000000D+00 0.00000000D+00 0.00000000D+00
  <mgrwgt>
 0.2728691756D-02    1    2    0
 0.476391670044089D+03 0.000000000000000D+00 0.000000000000000D+00 0.476391670044089D+03
 0.476391670044089D+03 0.000000000000000D+00 0.000000000000000D+00 -.476391670044089D+03
 0.481184698259007D+03 0.253124475727062D+03 -.367181712695771D+03 0.130458052600491D+03
 0.344388354218005D+03 -.207032054129737D+03 0.266867414410105D+03 -.672521390728438D+02
 0.127210287611165D+03 -.460924215973248D+02 0.100314298285666D+03 -.632059135276471D+02
 0.000000000000000D+00 -.000000000000000D+00 0.000000000000000D+00 0.000000000000000D+00
 0.578962997946215D+03 0.000000000000000D+00 0.000000000000000D+00 0.578962997946215D+03
 0.479645227167134D+03 0.000000000000000D+00 0.000000000000000D+00 -.479645227167134D+03
 0.494783210493210D+03 0.269767132066350D+03 -.373352134524971D+03 0.130458052600491D+03
 0.334177518579540D+03 -.195460834909038D+03 0.262577275731864D+03 -.672521390728438D+02
 0.124453102384377D+03 -.418009410319127D+02 0.987231913841852D+02 -.632059135276471D+02
 0.105194393656223D+03 -.325053561253984D+02 0.120516674089223D+02 0.993177707790811D+02
0.330456248540D-03 0.000000000000D+00 0.000000000000D+00 0.267285940307D-03 0.145197077871D-05  6 1 -2 25 1 -2 21 2 0.92535510D-01 0.71029016D-01 0.22396123D+06 0.22396123D+06 0.22396123D+06 0.10940709D+01  1  2  1  1  6  1        1 0.272869175607D-02 0.100000000000D+01
  </mgrwgt>
  </event>
  <event>
  7     66 0.18000663E-05 0.23523762E+02 0.75467711E-02 0.94576992E-01
        1 -1    0    0  503    0 0.00000000E+00 0.00000000E+00 0.17073000E+04 0.17073000E+04 0.32000000E+00 0.0000E+00 0.9000E+01
       -2 -1    0    0    0  501 0.00000000E+00 0.00000000E+00 -.15128905E+03 0.15128939E+03 0.32000000E+00 0.0000E+00 0.9000E+01
      -24  2    1    2    0    0 -.16156908E+03 0.46029705E+03 0.84234742E+03 0.97676815E+03 0.80925220E+02 0.0000E+00 0.0000E+00
       25  1    1    2    0    0 0.17379713E+03 -.45379076E+03 0.67733791E+03 0.84293721E+03 0.12500000E+03 0.0000E+00 0.9000E+01
        1  1    3    3  502    0 -.13239338E+03 0.40625093E+03 0.77929732E+03 0.88874757E+03 0.32000000E+00 0.0000E+00 0.9000E+01
       -2  1    3    3    0  502 -.29175702E+02 0.54046120E+02 0.63050109E+02 0.88020585E+02 0.32000000E+00 0.0000E+00 0.9000E+01
       21  1    1    2  503  501 -.12228054E+02 -.65062894E+01 0.36325591E+02 0.38884035E+02 0.75000000E+00 0.0000E+00 0.9000E+01
#aMCatNLO 2  0  0  1  2 0.79928804D+02 0.00000000D+00  -5  6  0 0.00000000D+00 0.00000000D+00 0.00000000D+00 0.00000000D+00 0.00000000D+00
  <mgrwgt>
 0.5764955020D-03    1    2    0
 0.500422879507909D+03 0.000000000000000D+00 0.000000000000000D+00 0.500422879507909D+03
 0.500422879507909D+03 0.000000000000000D+00 0.000000000000000D+00 -.500422879507909D+03
 0.504957099077685D+03 0.167633346476958D+03 -.457070383661471D+03 -.483983206056080D+02
 0.431588464214028D+03 -.137673763726551D+03 0.403447716318765D+03 0.674127393091402D+02
 0.643001957241050D+02 -.299595827504073D+02 0.536226673427057D+02 -.190144187035323D+02
 0.000000000000000D+00 -.000000000000000D+00 -.000000000000000D+00 0.000000000000000D+00
 0.511733238969548D+03 0.000000000000000D+00 0.000000000000000D+00 0.511733238969548D+03
 0.504729583802072D+03 0.000000000000000D+00 0.000000000000000D+00 -.504729583802072D+03
 0.504082233002612D+03 0.173797131835617D+03 -.453790763631400D+03 -.483983206056080D+02
 0.432570463733539D+03 -.132394990166103D+03 0.406256440259603D+03 0.674127393091402D+02
 0.642889051822714D+02 -.291740874855045D+02 0.540406127860332D+02 -.190144187035323D+02
 0.155212208531983D+02 -.122280541840088D+02 -.650628941423551D+01 0.700365516747560D+01
0.586065895177D-04 0.000000000000D+00 0.000000000000D+00 0.156127276039D-03 0.516101629070D-05  6 1 -2 25 1 -2 21 2 0.26265687D+00 0.23274851D-01 0.25215595D+06 0.25215595D+06 0.25215595D+06 0.10901787D+01  1  2  1  1  6  1        1 0.576495501987D-03 0.100000000000D+01
  </mgrwgt>
  </event>
  <event>
  7     66 0.18000663E-05 0.40104426E+02 0.75467711E-02 0.91356888E-01
        1 -1    0    0  501    0 0.00000000E+00 0.00000000E+00 0.18944356E+04 0.18944357E+04 0.32000000E+00 0.0000E+00 0.9000E+01
       -2 -1    0    0    0  503 0.00000000E+00 0.00000000E+00 -.35846850E+03 0.35846864E+03 0.32000000E+00 0.0000E+00 0.9000E+01
      -24  2    1    2    0    0 0.59627196E+03 -.25454035E+03 0.13260495E+04 0.14781917E+04 0.79450022E+02 0.0000E+00 0.0000E+00
       25  1    1    2    0    0 -.61184714E+03 0.22028812E+03 0.26055943E+03 0.71161787E+03 0.12500000E+03 0.0000E+00 0.9000E+01
        1  1    3    3  502    0 0.38345131E+03 -.16512157E+03 0.93718012E+03 0.10259662E+04 0.32000000E+00 0.0000E+00 0.9000E+01
       -2  1    3    3    0  502 0.21282065E+03 -.89418779E+02 0.38886936E+03 0.45222542E+03 0.32000000E+00 0.0000E+00 0.9000E+01
       21  1    1    2  501  503 0.15575178E+02 0.34252226E+02 -.50641762E+02 0.63094783E+02 0.75000000E+00 0.0000E+00 0.9000E+01
#aMCatNLO 2  0  0  2  1 0.93586084D+02 0.00000000D+00  -5  6  0 0.00000000D+00 0.00000000D+00 0.00000000D+00 0.00000000D+00 0.00000000D+00
  <mgrwgt>
 0.9903159302D-03    1    2    0
 0.754407403129859D+03 0.000000000000000D+00 0.000000000000000D+00 0.754407403129859D+03
 0.754407403129859D+03 0.000000000000000D+00 0.000000000000000D+00 -.754407403129859D+03
 0.757493498882840D+03 -.604023339243270D+03 0.237493868576486D+03 -.370032253847894D+03
 0.503743148668565D+03 0.388651416994494D+03 -.153693049681317D+03 0.281221767255574D+03
 0.247578158708312D+03 0.215371922248776D+03 -.838008188951694D+02 0.888104865923201D+02
 0.000000000000000D+00 0.000000000000000D+00 0.000000000000000D+00 -.000000000000000D+00
 0.757129474846725D+03 0.000000000000000D+00 0.000000000000000D+00 0.757129474846725D+03
 0.896932388266760D+03 0.000000000000000D+00 0.000000000000000D+00 -.896932388266760D+03
 0.758572770061784D+03 -.611847139606502D+03 0.220288121211285D+03 -.370032253847894D+03
 0.503376849122797D+03 0.383454080990163D+03 -.165122795599022D+03 0.281221767255574D+03
 0.247334290727956D+03 0.212817880726327D+03 -.894175513212666D+02 0.888104865923201D+02
 0.144777953200948D+03 0.155751778900121D+02 0.342522257090037D+02 -.139802913420035D+03
0.705607060611D-03 0.000000000000D+00 0.000000000000D+00 0.135406718578D-03 0.594503355693D-06  6 1 -2 25 1 -2 21 2 0.29145128D+00 0.55148942D-01 0.45438542D+06 0.45438542D+06 0.45438542D+06 0.10714591D+01  1  2  1  2  6  2       -2 0.990315930246D-03 0.100000000000D+01
  </mgrwgt>
  </event>
  <event>
  7     66 0.18000663E-05 0.74248582E+02 0.75467711E-02 0.92995414E-01
        1 -1    0    0  501    0 0.00000000E+00 0.00000000E+00 0.35566499E+03 0.35566513E+03 0.32000000E+00 0.0000E+00 0.9000E+01
       -2 -1    0    0    0  503 0.00000000E+00 0.00000000E+00 -.12248944E+04 0.12248945E+04 0.32000000E+00 0.0000E+00 0.9000E+01
      -24  2    1    2    0    0 -.11710357E+03 0.55529039E+03 -.34970506E+03 0.67141038E+03 0.80234707E+02 0.0000E+00 0.0000E+00
       25  1    1    2    0    0 0.69212476E+02 -.47803428E+03 -.13901852E+03 0.51793657E+03 0.12500000E+03 0.0000E+00 0.9000E+01
        1  1    3    3  502    0 -.10545110E+03 0.47184180E+03 -.26248806E+03 0.55014062E+03 0.32000000E+00 0.0000E+00 0.9000E+01
       -2  1    3    3    0  502 -.11652471E+02 0.83448587E+02 -.87217000E+02 0.12126976E+03 0.32000000E+00 0.0000E+00 0.9000E+01
       21  1    1    2  501  503 0.47891095E+02 -.77256106E+02 -.38050585E+03 0.39121264E+03 0.75000000E+00 0.0000E+00 0.9000E+01
#aMCatNLO 2  0  0  2  1 0.93586084D+02 0.00000000D+00  -5  6  0 0.00000000D+00 0.00000000D+00 0.00000000D+00 0.00000000D+00 0.00000000D+00
  <mgrwgt>
 0.1528819787D-03    1    2    0
 0.540239154195509D+03 0.000000000000000D+00 0.000000000000000D+00 0.540239154195509D+03
 0.540239154195509D+03 0.000000000000000D+00 0.000000000000000D+00 -.540239154195509D+03
 0.544490693452275D+03 0.924403844283755D+02 -.515504668990568D+03 0.809618850558581D+02
 0.448437825841176D+03 -.847992124405850D+02 0.438530729339975D+03 -.399546823184352D+02
 0.875497890975660D+02 -.764117198779052D+01 0.769739396505933D+02 -.410072027374229D+02
 0.000000000000000D+00 0.000000000000000D+00 -.000000000000000D+00 -.000000000000000D+00
 0.550431902898031D+03 0.000000000000000D+00 0.000000000000000D+00 0.550431902898031D+03
 0.791471842936867D+03 0.000000000000000D+00 0.000000000000000D+00 -.791471842936867D+03
 0.505457189672582D+03 0.692124759541562D+02 -.478034284264426D+03 0.809618850558581D+02
 0.485136211221326D+03 -.105452592132400D+03 0.471847981463918D+03 -.399546823184352D+02
 0.937015026443372D+02 -.116509790297219D+02 0.834424089363892D+02 -.410072027374229D+02
 0.257608842296654D+03 0.478910952079660D+02 -.772561061358812D+02 -.241039940038836D+03
0.111690588140D-03 0.000000000000D+00 0.000000000000D+00 0.204205480773D-03 0.167029660661D-06  6 1 -2 25 1 -2 21 2 0.54717651D-01 0.18844513D+00 0.33499029D+06 0.33499029D+06 0.33499029D+06 0.10810249D+01  1  2  1  2  6  2       -2 0.152881978660D-03 0.100000000000D+01
  </mgrwgt>
  </event>
  <event>
  7     66 0.18000663E-05 0.13508102E+02 0.75467711E-02 0.94204560E-01
        1 -1    0    0  503    0 0.00000000E+00 0.00000000E+00 0.80037529E+03 0.80037536E+03 0.32000000E+00 0.0000E+00 0.9000E+01
       -2 -1    0    0    0  501 0.00000000E+00 0.00000000E+00 -.36999303E+03 0.36999317E+03 0.32000000E+00 0.0000E+00 0.9000E+01
      -24  2    1    2    0    0 -.32442611E+03 -.37942428E+03 0.62004356E+02 0.50943234E+03 0.80384602E+02 0.0000E+00 0.0000E+00
       25  1    1    2    0    0 0.33856771E+03 0.37498399E+03 0.32144628E+03 0.61171382E+03 0.12500000E+03 0.0000E+00 0.9000E+01
        1  1    3    3  502    0 -.77726649E+01 -.30814511E+02 0.17752352E+02 0.36403253E+02 0.32000000E+00 0.0000E+00 0.9000E+01
       -2  1    3    3    0  502 -.31665345E+03 -.34860977E+03 0.44252004E+02 0.47302909E+03 0.32000000E+00 0.0000E+00 0.9000E+01
       21  1    1    2  503  501 -.14141600E+02 0.44402941E+01 0.46931624E+02 0.49222362E+02 0.75000000E+00 0.0000E+00 0.9000E+01
#aMCatNLO 2  0  0  1  2 0.79928804D+02 0.00000000D+00  -5  6  0 0.00000000D+00 0.00000000D+00 0.00000000D+00 0.00000000D+00 0.00000000D+00
  <mgrwgt>
 0.3039426183D-03    1    2    0
 0.526714967545938D+03 0.000000000000000D+00 0.000000000000000D+00 0.526714967545938D+03
 0.526714967545938D+03 0.000000000000000D+00 0.000000000000000D+00 -.526714967545938D+03
 0.531064243917131D+03 0.331419336316125D+03 0.377228492709571D+03 0.119432487084204D+03
 0.322486235165664D+02 -.820081506184311D+01 -.306735037366570D+02 0.564415800203920D+01
 0.490117067658178D+03 -.323218521254282D+03 -.346554988972914D+03 -.125076645086244D+03
 0.000000000000000D+00 -.000000000000000D+00 0.000000000000000D+00 0.000000000000000D+00
 0.560426897043930D+03 0.000000000000000D+00 0.000000000000000D+00 0.560426897043930D+03
 0.528398881161301D+03 0.000000000000000D+00 0.000000000000000D+00 -.528398881161301D+03
 0.533975847478746D+03 0.338567711932494D+03 0.374983987866579D+03 0.119432487084204D+03
 0.322710164771923D+02 -.776776974736694D+01 -.308094748100504D+02 0.564415800203920D+01
 0.487287344892526D+03 -.316658342039947D+03 -.348614807148074D+03 -.125076645086244D+03
 0.352915693567672D+02 -.141416001451795D+02 0.444029409154587D+01 0.320280158826293D+02
0.362603339243D-04 0.000000000000D+00 0.000000000000D+00 0.983771732153D-04 0.283395909513D-05  6 1 -2 25 1 -2 21 2 0.12313375D+00 0.56921592D-01 0.26936383D+06 0.26936383D+06 0.26936383D+06 0.10880301D+01  1  2  1  1  6  1        1 0.303942618328D-03 0.100000000000D+01
  </mgrwgt>
  </event>
  <event>
  7     66 0.18000663E-05 0.49514859E+02 0.75467711E-02 0.93636846E-01
        1 -1    0    0  501    0 0.00000000E+00 0.00000000E+00 0.18698662E+04 0.18698662E+04 0.32000000E+00 0.0000E+00 0.9000E+01
       21 -1    0    0  503  501 0.00000000E+00 0.00000000E+00 -.52888044E+03 0.52888097E+03 0.75000000E+00 0.0000E+00 0.9000E+01
      -24  2    1    2    0    0 -.25412869E+03 0.46783637E+03 0.24101385E+03 0.58991885E+03 0.80400950E+02 0.0000E+00 0.0000E+00
       25  1    1    2    0    0 0.25612574E+03 -.42368761E+03 0.14079555E+04 0.14976900E+04 0.12500000E+03 0.0000E+00 0.9000E+01
        1  1    3    3  502    0 -.80227001E+02 0.22307409E+03 0.12532876E+03 0.26815261E+03 0.32000000E+00 0.0000E+00 0.9000E+01
        2  1    1    2  503    0 -.19970539E+01 -.44148762E+02 -.30798359E+03 0.31113838E+03 0.32000000E+00 0.0000E+00 0.9000E+01
       -2  1    3    3    0  502 -.17390168E+03 0.24476228E+03 0.11568509E+03 0.32176624E+03 0.32000000E+00 0.0000E+00 0.9000E+01
#aMCatNLO 2  0  0  2  1 0.93586084D+02 0.00000000D+00  -5  6  0 0.00000000D+00 0.00000000D+00 0.00000000D+00 0.00000000D+00 0.00000000D+00
  <mgrwgt>
 0.1884371041D-02    1    2    0
 0.639737757833897D+03 0.000000000000000D+00 0.000000000000000D+00 0.639737757833897D+03
 0.639737757833897D+03 0.000000000000000D+00 0.000000000000000D+00 -.639737757833897D+03
 0.643317618180975D+03 0.255133310695939D+03 -.445627173208334D+03 0.366818721078576D+03
 0.268425790751944D+03 -.806501409392833D+02 0.213686615697861D+03 -.141017694559496D+03
 0.000000000000000D+00 -.000000000000000D+00 -.000000000000000D+00 -.000000000000000D+00
 0.367732106734875D+03 -.174483169756656D+03 0.231940557510473D+03 -.225801026519080D+03
 0.640659690579583D+03 0.000000000000000D+00 0.000000000000000D+00 0.640659690579583D+03
 0.154362178972039D+04 0.000000000000000D+00 0.000000000000000D+00 -.154362178972039D+04
 0.628722956842461D+03 0.256125739380894D+03 -.423687606561243D+03 0.366818721078576D+03
 0.275833318155586D+03 -.802255174152124D+02 0.223073744715300D+03 -.141017694559496D+03
 0.904042949155636D+03 -.199705394247406D+01 -.441487622566554D+02 -.902962099140809D+03
 0.375682256146292D+03 -.173903168023207D+03 0.244762624102599D+03 -.225801026519080D+03
0.296389001320D-03 0.000000000000D+00 0.000000000000D+00 0.215649041779D-03 0.998749668188D-07  6 1 21 25 1 2 -2 2 0.28767176D+00 0.81366261D-01 0.29818726D+06 0.29818726D+06 0.29818726D+06 0.10847467D+01  1  2  1  6  5  2       -2 0.188437104067D-02 0.100000000000D+01
  </mgrwgt>
  </event>
  <event>
  7     66 0.18000663E-05 0.50041384E+02 0.75467711E-02 0.95093411E-01
        1 -1    0    0  501    0 0.00000000E+00 0.00000000E+00 0.14342474E+04 0.14342474E+04 0.32000000E+00 0.0000E+00 0.9000E+01
       21 -1    0    0  503  501 0.00000000E+00 0.00000000E+00 -.19290695E+03 0.19290841E+03 0.75000000E+00 0.0000E+00 0.9000E+01
      -24  2    1    2    0    0 0.42165807E+03 0.19626830E+03 0.32507180E+03 0.57272495E+03 0.77623555E+02 0.0000E+00 0.0000E+00
       25  1    1    2    0    0 -.40130405E+03 -.20645230E+03 0.91907216E+03 0.10314970E+04 0.12500000E+03 0.0000E+00 0.9000E+01
        1  1    3    3  502    0 0.27217181E+03 0.95388563E+02 0.22982581E+03 0.36877700E+03 0.32000000E+00 0.0000E+00 0.9000E+01
        2  1    1    2  503    0 -.20354022E+02 0.10183997E+02 -.28035080E+01 0.22933863E+02 0.32000000E+00 0.0000E+00 0.9000E+01
       -2  1    3    3    0  502 0.14948626E+03 0.10087974E+03 0.95245996E+02 0.20394795E+03 0.32000000E+00 0.0000E+00 0.9000E+01
#aMCatNLO 2  0  0  2  1 0.93586084D+02 0.00000000D+00  -5  6  0 0.00000000D+00 0.00000000D+00 0.00000000D+00 0.00000000D+00 0.00000000D+00
  <mgrwgt>
 0.2531841220D-03    1    2    0
 0.506240056550995D+03 0.000000000000000D+00 0.000000000000000D+00 0.506240056550995D+03
 0.506240056550995D+03 0.000000000000000D+00 0.000000000000000D+00 -.506240056550995D+03
 0.510980684877008D+03 -.411513574740935D+03 -.201344034627493D+03 0.188662179148966D+03
 0.297385628334246D+03 0.266151687475173D+03 0.984016413767323D+02 -.889865617283717D+02
 0.000000000000000D+00 -.000000000000000D+00 0.000000000000000D+00 -.000000000000000D+00
 0.204113799890735D+03 0.145361887265762D+03 0.102942393250760D+03 -.996756174205942D+02
 0.509945975730341D+03 0.000000000000000D+00 0.000000000000000D+00 0.509945975730341D+03
 0.542561028427991D+03 0.000000000000000D+00 0.000000000000000D+00 -.542561028427991D+03
 0.504862270440276D+03 -.401304051671660D+03 -.206452300507366D+03 0.188662179148966D+03
 0.301821467587536D+03 0.272173896554898D+03 0.953884697569919D+02 -.889865617283717D+02
 0.397711158724067D+02 -.203540216312042D+02 0.101839971868804D+02 -.326150526976499D+02
 0.206052150258113D+03 0.149484176747967D+03 0.100879833563494D+03 -.996756174205942D+02
0.219689858490D-05 0.000000000000D+00 0.000000000000D+00 0.354603545085D-04 0.509056986714D-08  6 1 21 25 1 2 -2 2 0.22065329D+00 0.29678070D-01 0.23029965D+06 0.23029965D+06 0.23029965D+06 0.10931510D+01  1  2  1  6  5  2       -2 0.253184121975D-03 0.100000000000D+01
  </mgrwgt>
  </event>
  <event>
  6     66 -.18000663E-05 0.18995483E+02 0.75467711E-02 0.95478207E-01
        1 -1    0    0  501    0 0.00000000E+00 0.00000000E+00 0.16422243E+04 0.16422243E+04 0.32000000E+00 0.0000E+00 0.9000E+01
       -2 -1    0    0    0  501 0.00000000E+00 0.00000000E+00 -.13313133E+03 0.13313172E+03 0.32000000E+00 0.0000E+00 0.9000E+01
      -24  2    1    2    0    0 -.10878308E+02 0.45373169E+03 0.82156758E+03 0.94210521E+03 0.81229099E+02 0.0000E+00 0.0000E+00
       25  1    1    2    0    0 0.10878308E+02 -.45373169E+03 0.68752539E+03 0.83325083E+03 0.12500000E+03 0.0000E+00 0.9000E+01
        1  1    3    3  502    0 -.17354559E+02 0.43022389E+03 0.73169078E+03 0.84897896E+03 0.32000000E+00 0.0000E+00 0.9000E+01
       -2  1    3    3    0  502 0.64762513E+01 0.23507809E+02 0.89876791E+02 0.93126253E+02 0.32000000E+00 0.0000E+00 0.9000E+01
#aMCatNLO 1  0  0  5  4 0.93603788D+01 0.00000000D+00  -5  6  0 0.00000000D+00 0.00000000D+00 0.00000000D+00 0.00000000D+00 0.00000000D+00
  <mgrwgt>
 -.6390905378D-03    7    2    0
 0.467580880111883D+03 0.000000000000000D+00 0.000000000000000D+00 0.467580880111883D+03
 0.467580880111883D+03 -.000000000000000D+00 -.000000000000000D+00 -.467580880111883D+03
 0.472407228804332D+03 0.108783075147373D+02 -.453731694877821D+03 -.394056000525694D+02
 0.431001706118705D+03 -.173549286380700D+02 0.430230197709872D+03 0.190592263150126D+02
 0.317528253007298D+02 0.647662112333273D+01 0.235014971679492D+02 0.203463737375568D+02
 0.000000000000000D+00 0.000000000000000D+00 0.000000000000000D+00 -.000000000000000D+00
 0.467580880111883D+03 0.000000000000000D+00 0.000000000000000D+00 0.467580880111883D+03
 0.467580880111883D+03 -.000000000000000D+00 -.000000000000000D+00 -.467580880111883D+03
 0.469143273458683D+03 0.117569631550602D+02 -.450543346717658D+03 -.366452940682936D+02
 0.434012926809279D+03 -.165476963288553D+02 0.433159374431440D+03 0.215951551494389D+02
 0.219745337434672D+02 -.510633597141362D+01 0.162887533382815D+02 0.138377014303117D+02
 0.100310262123366D+02 0.989706914520871D+01 0.109521894793577D+01 0.121243748854301D+01
0.536969554910D-04 0.000000000000D+00 0.000000000000D+00 0.168813595497D-04 0.000000000000D+00  6 1 -2 25 1 -2 21 0 0.25264992D+00 0.20481776D-01 0.21423871D+06 0.21423871D+06 0.21423871D+06 0.10955388D+01  1  2  2  4  6  5       -2 0.612685296148D-03 0.100000000000D+01
0.153368189595D-04 0.000000000000D+00 -.206210447818D-06 0.168813595497D-04 0.000000000000D+00  6 1 -2 25 1 -2 21 2 0.25264992D+00 0.20481776D-01 0.21423871D+06 0.21423871D+06 0.21423871D+06 0.10955388D+01  1  2  3  4  6  5       -2 0.210028680645D-03 0.100000000000D+01
-.174360070252D-04 0.000000000000D+00 0.000000000000D+00 0.168813595497D-04 0.000000000000D+00  6 1 -2 25 1 -2 21 2 0.25264992D+00 0.20481776D-01 0.21423871D+06 0.21423871D+06 0.21423871D+06 0.10955388D+01  1  2 15  4  6  5       -2 -.238775821824D-03 0.100000000000D+01
0.479977677776D-05 0.000000000000D+00 0.000000000000D+00 0.168813595497D-04 0.000000000000D+00  6 1 -2 25 1 -2 21 2 0.25264992D+00 0.20481776D-01 0.21539489D+06 0.21539489D+06 0.21539489D+06 0.10953605D+01  1  2 12  4  6  5       -2 0.656968913220D-04 0.100000000000D+01
0.114984872317D-09 0.000000000000D+00 0.000000000000D+00 0.168813595497D-04 0.000000000000D+00  6 1 -2 25 1 -2 21 2 0.25264992D+00 0.20481776D-01 0.21539489D+06 0.21539489D+06 0.21539489D+06 0.10953605D+01  1  2 12  4  6  5       -2 0.157385416240D-08 0.100000000000D+01
-.941060922746D-04 0.000000000000D+00 0.000000000000D+00 0.168813595497D-04 0.000000000000D+00  6 1 -2 25 1 -2 21 2 0.25264992D+00 0.20481776D-01 0.21423871D+06 0.21423871D+06 0.21423871D+06 0.10955388D+01  1  2  4  4  6  5       -2 -.128872737256D-02 0.100000000000D+01
0.156789129604D-10 0.000000000000D+00 0.000000000000D+00 0.168813595497D-04 0.721067348935D-08  6 1 -2 25 1 -2 21 2 0.25264992D+00 0.20481776D-01 0.21539489D+06 0.21539489D+06 0.21539489D+06 0.10953605D+01  1  2 11  4  6  5       -2 0.214604946959D-09 0.100000000000D+01
  </mgrwgt>
  </event>
  <event>
  6     66 0.18000663E-05 0.40791123E+02 0.75467711E-02 0.92845996E-01
        1 -1    0    0  501    0 0.00000000E+00 0.00000000E+00 0.24319894E+04 0.24319895E+04 0.32000000E+00 0.0000E+00 0.9000E+01
       -2 -1    0    0    0  501 0.00000000E+00 0.00000000E+00 -.14276908E+03 0.14276944E+03 0.32000000E+00 0.0000E+00 0.9000E+01
       25  1    1    2    0    0 -.15334796E+02 -.57527698E+03 0.11221212E+04 0.12672647E+04 0.12500000E+03 0.0000E+00 0.9000E+01
        1  1    1    2  502    0 0.23697825E+02 0.15455775E+03 0.38526997E+03 0.41579170E+03 0.32000000E+00 0.0000E+00 0.9000E+01
       -2  1    1    2    0  503 0.74390752E+01 0.40765713E+03 0.73358635E+03 0.83927868E+03 0.32000000E+00 0.0000E+00 0.9000E+01
       21  1    1    2  503  502 -.15802104E+02 0.13062098E+02 0.48242783E+02 0.52423788E+02 0.75000000E+00 0.0000E+00 0.9000E+01
#aMCatNLO 2  0  0  5  4 0.26824527D+00 0.00000000D+00  -5  6  0 0.00000000D+00 0.00000000D+00 0.00000000D+00 0.00000000D+00 0.00000000D+00
  <mgrwgt>
 0.1543724991D-02    1    2    0
 0.589248142940355D+03 0.000000000000000D+00 0.000000000000000D+00 0.589248142940355D+03
 0.589248142940355D+03 -.000000000000000D+00 -.000000000000000D+00 -.589248142940355D+03
 0.592901426224549D+03 -.152550116934627D+02 -.579290706084044D+03 -.983176901615575D+01
 0.159020690014907D+03 0.237233561944971D+02 0.153493145855852D+03 0.341267695359526D+02
 0.426574169641254D+03 -.846834450103449D+01 0.425797560228191D+03 -.242950005197969D+02
 0.000000000000000D+00 -.000000000000000D+00 0.000000000000000D+00 0.000000000000000D+00
 0.589248142940355D+03 0.000000000000000D+00 0.000000000000000D+00 0.589248142940355D+03
 0.589248142940355D+03 -.000000000000000D+00 -.000000000000000D+00 -.589248142940355D+03
 0.588980598530220D+03 -.153349557838240D+02 -.575271030381623D+03 -.100611221933496D+02
 0.160052024875897D+03 0.237017736867537D+02 0.154578337789132D+03 0.340648510539187D+02
 0.408639796635950D+03 0.745980903514702D+01 0.407639896992037D+03 -.275780533060419D+02
 0.208238658386429D+02 -.158266269380767D+02 0.130527956004542D+02 0.357432444547278D+01
0.449814962542D-03 0.000000000000D+00 0.000000000000D+00 0.242820778284D-04 0.230059385797D-05  6 1 -2 25 1 -2 21 2 0.37415225D+00 0.21964503D-01 0.34427704D+06 0.34427704D+06 0.34427704D+06 0.10801561D+01  1  2  1  4  6  5       -2 0.154372499099D-02 0.100000000000D+01
  </mgrwgt>
  </event>
  <event>
  7     66 0.18000663E-05 0.27043534E+02 0.75467711E-02 0.91285810E-01
        1 -1    0    0  503    0 0.00000000E+00 0.00000000E+00 0.91365845E+03 0.91365851E+03 0.32000000E+00 0.0000E+00 0.9000E+01
       -2 -1    0    0    0  501 0.00000000E+00 0.00000000E+00 -.10576462E+04 0.10576462E+04 0.32000000E+00 0.0000E+00 0.9000E+01
      -24  2    1    2    0    0 0.57115816E+03 0.24029363E+03 -.44425076E+02 0.62622108E+03 0.78845335E+02 0.0000E+00 0.0000E+00
       25  1    1    2    0    0 -.61530466E+03 -.26982535E+03 -.55880708E+03 0.88277737E+03 0.12500000E+03 0.0000E+00 0.9000E+01
        1  1    3    3  502    0 0.39730568E+03 0.14834419E+03 -.62684976E+02 0.42870422E+03 0.32000000E+00 0.0000E+00 0.9000E+01
       -2  1    3    3    0  502 0.17385248E+03 0.91949436E+02 0.18259901E+02 0.19751686E+03 0.32000000E+00 0.0000E+00 0.9000E+01
       21  1    1    2  503  501 0.44146499E+02 0.29531726E+02 0.45924446E+03 0.46230625E+03 0.75000000E+00 0.0000E+00 0.9000E+01
#aMCatNLO 2  0  0  1  2 0.66445884D+01 0.00000000D+00  -5  6  0 0.00000000D+00 0.00000000D+00 0.00000000D+00 0.00000000D+00 0.00000000D+00
  <mgrwgt>
 0.8439214253D-03    1    2    0
 0.691080001550768D+03 0.000000000000000D+00 0.000000000000000D+00 0.691080001550768D+03
 0.691080001550768D+03 0.000000000000000D+00 0.000000000000000D+00 -.691080001550768D+03
 0.694483519648006D+03 -.592733576747881D+03 -.254726467117642D+03 -.224641254020965D+03
 0.456550662182674D+03 0.411627933951542D+03 0.157923505503021D+03 0.118579583149292D+03
 0.231125821270856D+03 0.181105642796339D+03 0.968029616146207D+02 0.106061670871673D+03
 0.000000000000000D+00 0.000000000000000D+00 0.000000000000000D+00 0.000000000000000D+00
 0.139523179139721D+04 0.000000000000000D+00 0.000000000000000D+00 0.139523179139721D+04
 0.692592370426212D+03 0.000000000000000D+00 0.000000000000000D+00 -.692592370426212D+03
 0.719370721583074D+03 -.615304656919774D+03 -.269825353211443D+03 -.224641254020965D+03
 0.440365893657068D+03 0.397309360721723D+03 0.148345120039130D+03 0.118579583149292D+03
 0.223443528608900D+03 0.173848797684153D+03 0.919485072901130D+02 0.106061670871673D+03
 0.704644017974377D+03 0.441464985138981D+02 0.295317258822006D+02 0.702639420970995D+03
0.166001095792D-02 0.000000000000D+00 0.000000000000D+00 0.529900294104D-04 0.141334946412D-06  6 1 -2 25 1 -2 21 2 0.14056281D+00 0.16271475D+00 0.46055024D+06 0.46055024D+06 0.46055024D+06 0.10710422D+01  1  2  1  1  6  1        1 0.843921425332D-03 0.100000000000D+01
  </mgrwgt>
  </event>
  <event>
  5     66 0.18000663E-05 0.31957035E+02 0.75467711E-02 0.94014410E-01
        1 -1    0    0  501    0 0.00000000E+00 0.00000000E+00 0.86490988E+03 0.86490994E+03 0.32000000E+00 0.0000E+00 0.9000E+01
       -2 -1    0    0    0  501 0.00000000E+00 0.00000000E+00 -.45718653E+03 0.45718664E+03 0.32000000E+00 0.0000E+00 0.9000E+01
       25  1    1    2    0    0 -.45449574E+03 -.22432827E+03 -.15510551E+03 0.54458449E+03 0.12500000E+03 0.0000E+00 0.9000E+01
        1  1    1    2  502    0 0.46313601E+03 0.19356112E+03 0.50873864E+03 0.71468593E+03 0.32000000E+00 0.0000E+00 0.9000E+01
       -2  1    1    2    0  502 -.86402744E+01 0.30767148E+02 0.54090225E+02 0.62826162E+02 0.32000000E+00 0.0000E+00 0.9000E+01
#aMCatNLO 1  0  0  5  2 0.20618292D+01 0.00000000D+00  -5  6  0 0.00000000D+00 0.00000000D+00 0.00000000D+00 0.00000000D+00 0.00000000D+00
  <mgrwgt>
 0.7407146038D-03    9    2    0
 0.628828479529183D+03 0.000000000000000D+00 0.000000000000000D+00 0.628828479529183D+03
 0.628828479529183D+03 -.000000000000000D+00 -.000000000000000D+00 -.628828479529183D+03
 0.622772119600175D+03 -.454495894982996D+03 -.224328344430665D+03 -.339603280726050D+03
 0.586377248101076D+03 0.463137351801473D+03 0.193561847460767D+03 0.303110345690286D+03
 0.485075913571152D+02 -.864145681847726D+01 0.307664969698986D+02 0.364929350357640D+02
 0.000000000000000D+00 0.000000000000000D+00 0.000000000000000D+00 0.000000000000000D+00
 0.628828479529183D+03 0.000000000000000D+00 0.000000000000000D+00 0.628828479529183D+03
 0.628828479529183D+03 -.000000000000000D+00 -.000000000000000D+00 -.628828479529183D+03
 0.622696819694162D+03 -.454522269534476D+03 -.224234442143672D+03 -.339491900803197D+03
 0.586441049912553D+03 0.463112515729210D+03 0.193650272243542D+03 0.303215228604208D+03
 0.878319988475372D+01 -.169660999069827D+01 0.696512091942145D+01 0.507476160354730D+01
 0.397358895668975D+02 -.689363620403508D+01 0.236190489807087D+02 0.312019105954422D+02
0.314520992900D-06 0.000000000000D+00 0.000000000000D+00 0.147788686670D-08 0.000000000000D+00  6 1 -2 25 1 -2 21 0 0.13306307D+00 0.70336402D-01 0.27875497D+06 0.27875497D+06 0.27875497D+06 0.10869198D+01  1  2  2  4  6  5       -2 0.125664825232D-05 0.100000000000D+01
0.557224537224D-07 0.000000000000D+00 -.120784342802D-08 0.147788686670D-08 0.000000000000D+00  6 1 -2 25 1 -2 21 2 0.13306307D+00 0.70336402D-01 0.27875497D+06 0.27875497D+06 0.27875497D+06 0.10869198D+01  1  2  3  4  6  5       -2 0.263020327132D-06 0.100000000000D+01
-.935919338524D-07 0.000000000000D+00 0.000000000000D+00 0.147788686670D-08 0.000000000000D+00  6 1 -2 25 1 -2 21 2 0.13306307D+00 0.70336402D-01 0.27875497D+06 0.27875497D+06 0.27875497D+06 0.10869198D+01  1  2 15  4  6  5       -2 -.441771304283D-06 0.100000000000D+01
0.151252674783D-08 0.000000000000D+00 0.000000000000D+00 0.147788686670D-08 0.000000000000D+00  6 1 -2 25 1 -2 21 2 0.13306307D+00 0.70336402D-01 0.27865470D+06 0.27865470D+06 0.27865470D+06 0.10869314D+01  1  2 12  4  6  5       -2 0.713966099735D-08 0.100000000000D+01
0.498753156627D-09 0.000000000000D+00 0.000000000000D+00 0.147788686670D-08 0.000000000000D+00  6 1 -2 25 1 -2 21 2 0.13306307D+00 0.70336402D-01 0.27865470D+06 0.27865470D+06 0.27865470D+06 0.10869314D+01  1  2 12  4  6  5       -2 0.235429123141D-08 0.100000000000D+01
-.163463225479D-04 0.000000000000D+00 0.000000000000D+00 0.147788686670D-08 0.000000000000D+00  6 1 -2 25 1 -2 21 2 0.13306307D+00 0.70336402D-01 0.27875497D+06 0.27875497D+06 0.27875497D+06 0.10869198D+01  1  2  4  4  6  5       -2 -.771576773228D-04 0.100000000000D+01
-.179258388021D-05 0.000000000000D+00 0.000000000000D+00 0.147788686670D-08 0.000000000000D+00  6 1 -2 25 1 -2 21 2 0.13306307D+00 0.70336402D-01 0.27875497D+06 0.27875497D+06 0.27875497D+06 0.10869198D+01  1  2  5  4  6  5       -2 -.846132872995D-05 0.100000000000D+01
0.878814058477D-05 0.000000000000D+00 -.000000000000D+00 0.147788686670D-08 0.000000000000D+00  6 1 -2 25 1 -2 21 2 0.13306307D+00 0.70336402D-01 0.27875497D+06 0.27875497D+06 0.27875497D+06 0.10869198D+01  1  2  6  4  6  5       -2 0.414816551870D-04 0.100000000000D+01
0.166039377301D-03 0.000000000000D+00 0.000000000000D+00 0.147788686670D-08 0.188009942605D-07  6 1 -2 25 1 -2 21 2 0.13306307D+00 0.70336402D-01 0.27865470D+06 0.27865470D+06 0.27865470D+06 0.10869314D+01  1  2 11  4  6  5       -2 0.783764563400D-03 0.100000000000D+01
  </mgrwgt>
  </event>
  <event>
  6     66 0.18000663E-05 0.32271598E+02 0.75467711E-02 0.92756028E-01
        1 -1    0    0  501    0 0.00000000E+00 0.00000000E+00 0.13518673E+04 0.13518673E+04 0.32000000E+00 0.0000E+00 0.9000E+01
       -2 -1    0    0    0  501 0.00000000E+00 0.00000000E+00 -.30820195E+03 0.30820211E+03 0.32000000E+00 0.0000E+00 0.9000E+01
       25  1    1    2    0    0 -.55113921E+03 0.11048256E+03 0.18935060E+03 0.60616786E+03 0.12500000E+03 0.0000E+00 0.9000E+01
        1  1    1    2  502    0 0.12827301E+03 -.36709423E+02 0.25135781E+03 0.28457406E+03 0.32000000E+00 0.0000E+00 0.9000E+01
       -2  1    1    2    0  503 0.44527867E+03 -.74830599E+02 0.59144891E+03 0.74409987E+03 0.32000000E+00 0.0000E+00 0.9000E+01
       21  1    1    2  503  502 -.22412461E+02 0.10574644E+01 0.11508020E+02 0.25227637E+02 0.75000000E+00 0.0000E+00 0.9000E+01
#aMCatNLO 2  0  0  5  2 0.20618292D+01 0.00000000D+00  -5  6  0 0.00000000D+00 0.00000000D+00 0.00000000D+00 0.00000000D+00 0.00000000D+00
  <mgrwgt>
 0.7999376278D-03    1    2    0
 0.645482993291152D+03 0.000000000000000D+00 0.000000000000000D+00 0.645482993291152D+03
 0.645482993291152D+03 -.000000000000000D+00 -.000000000000000D+00 -.645482993291152D+03
 0.649024994515125D+03 -.572598777626229D+03 0.114226388945346D+03 -.254345071575632D+03
 0.157186378766571D+03 0.122905221587268D+03 -.357754934481445D+02 0.912248773354854D+02
 0.484754613300608D+03 0.449693556038961D+03 -.784508954972015D+02 0.163120194240146D+03
 0.000000000000000D+00 -.000000000000000D+00 0.000000000000000D+00 0.000000000000000D+00
 0.645482993291152D+03 0.000000000000000D+00 0.000000000000000D+00 0.645482993291152D+03
 0.645482993291152D+03 -.000000000000000D+00 -.000000000000000D+00 -.645482993291152D+03
 0.626388845545705D+03 -.551127733065390D+03 0.110480676669869D+03 -.246556743474707D+03
 0.162754120650358D+03 0.128291282569224D+03 -.367151139998794D+02 0.931785973783177D+02
 0.478680406974177D+03 0.445266070569175D+03 -.748242708257645D+02 0.158979202778988D+03
 0.231426134120652D+02 -.224296200730088D+02 0.105870815577510D+01 -.560105668259827D+01
0.176716791325D-03 0.000000000000D+00 0.000000000000D+00 0.222524428337D-03 0.278733627709D-05  6 1 -2 25 1 -2 21 2 0.20797960D+00 0.47415700D-01 0.35000766D+06 0.35000766D+06 0.35000766D+06 0.10796326D+01  1  2  1  4  6  5       -2 0.799937627787D-03 0.100000000000D+01
  </mgrwgt>
  </event>
  <event>
  7     66 0.18000663E-05 0.18400836E+02 0.75467711E-02 0.94161225E-01
        3 -1    0    0  501    0 0.00000000E+00 0.00000000E+00 0.59129973E+03 0.59129994E+03 0.50000000E+00 0.0000E+00 0.9000E+01
       -4 -1    0    0    0  501 0.00000000E+00 0.00000000E+00 -.50882407E+03 0.50882643E+03 0.15500000E+01 0.0000E+00 0.9000E+01
      -24  2    1    2    0    0 -.24988740E+03 0.44745708E+03 -.12542972E+03 0.53310680E+03 0.76214748E+02 0.0000E+00 0.0000E+00
       25  1    1    2    0    0 0.24988740E+03 -.44745708E+03 0.20790537E+03 0.56701957E+03 0.12500000E+03 0.0000E+00 0.9000E+01
        3  1    3    3  503    0 -.18062768E+03 0.29655799E+03 -.73400219E+02 0.35490962E+03 0.50000000E+00 0.0000E+00 0.9000E+01
       -4  1    3    3    0  502 -.10143104E+01 0.16160524E+02 -.16221755E+02 0.22972575E+02 0.15500000E+01 0.0000E+00 0.9000E+01
       21  1    3    3  502  503 -.68245407E+02 0.13473857E+03 -.35807741E+02 0.15522460E+03 0.75000000E+00 0.0000E+00 0.9000E+01
#aMCatNLO 2  0  0  4  5 0.86658840D+01 0.00000000D+00  -5  6  0 0.00000000D+00 0.00000000D+00 0.00000000D+00 0.00000000D+00 0.00000000D+00
  <mgrwgt>
 0.2286790780D-03    3    2    0
 0.548515222201964D+03 0.000000000000000D+00 0.000000000000000D+00 0.548515222201964D+03
 0.548515222201964D+03 -.000000000000000D+00 -.000000000000000D+00 -.548515222201964D+03
 0.553156723164693D+03 0.249969793215780D+03 -.447599879124626D+03 0.165912058240447D+03
 0.519845357790620D+03 -.249068840879920D+03 0.431631664290863D+03 -.147979778688477D+03
 0.240283634486145D+02 -.900952335859533D+00 0.159682148337631D+02 -.179322795519702D+02
 0.000000000000000D+00 0.000000000000000D+00 0.000000000000000D+00 -.000000000000000D+00
 0.548515222201964D+03 0.000000000000000D+00 0.000000000000000D+00 0.548515222201964D+03
 0.548515222201964D+03 -.000000000000000D+00 -.000000000000000D+00 -.548515222201964D+03
 0.552989392829401D+03 0.249887460403710D+03 -.447457197894113D+03 0.165863141678802D+03
 0.361372154601899D+03 -.180610165172847D+03 0.296506509508008D+03 -.100268101494110D+03
 0.240342042130971D+02 -.904529735168402D+00 0.159744144001644D+02 -.179344049995217D+02
 0.158634692759531D+03 -.683727654956947D+02 0.134976273985940D+03 -.476606351851705D+02
-.142985146882D-03 0.000000000000D+00 0.000000000000D+00 0.158570291313D-05 0.000000000000D+00  6 3 -4 25 3 -4 21 2 0.90969387D-01 0.78280824D-01 0.27145025D+06 0.27145025D+06 0.27145025D+06 0.10877798D+01  1  2 13  3  6  4        3 -.792031483671D-04 0.100000000000D+01
-.535671462860D-06 0.000000000000D+00 0.000000000000D+00 0.158570291313D-05 0.000000000000D+00  6 3 -4 25 3 -4 21 2 0.90969387D-01 0.78280824D-01 0.27145025D+06 0.27145025D+06 0.27145025D+06 0.10877798D+01  1  2 13  3  6  4        3 -.296722192998D-06 0.100000000000D+01
0.556354300662D-03 0.000000000000D+00 0.000000000000D+00 0.158570291313D-05 0.262944489659D-06  6 3 -4 25 3 -4 21 2 0.90969387D-01 0.78280824D-01 0.27145025D+06 0.27145025D+06 0.27145025D+06 0.10877798D+01  1  2  1  3  6  4        3 0.308178948520D-03 0.100000000000D+01
  </mgrwgt>
  </event>
  <event>
  7     66 0.18000663E-05 0.36417039E+02 0.75467711E-02 0.95237583E-01
        1 -1    0    0  501    0 0.00000000E+00 0.00000000E+00 0.89539102E+03 0.89539108E+03 0.32000000E+00 0.0000E+00 0.9000E+01
       -2 -1    0    0    0  503 0.00000000E+00 0.00000000E+00 -.32925148E+03 0.32925163E+03 0.32000000E+00 0.0000E+00 0.9000E+01
      -24  2    1    2    0    0 0.50954282E+02 0.44223410E+03 0.25195732E+03 0.51773077E+03 0.79970743E+02 0.0000E+00 0.0000E+00
       25  1    1    2    0    0 -.49535089E+02 -.45929138E+03 0.39733360E+03 0.62201389E+03 0.12500000E+03 0.0000E+00 0.9000E+01
        1  1    3    3  502    0 0.44915497E+02 0.97663347E+02 0.65909428E+02 0.12609396E+03 0.32000000E+00 0.0000E+00 0.9000E+01
       -2  1    3    3    0  502 0.60387844E+01 0.34457075E+03 0.18604790E+03 0.39163681E+03 0.32000000E+00 0.0000E+00 0.9000E+01
       21  1    1    2  501  503 -.14191925E+01 0.17057280E+02 -.83151373E+02 0.84898046E+02 0.75000000E+00 0.0000E+00 0.9000E+01
#aMCatNLO 2  0  0  2  1 0.21460896D+02 0.00000000D+00  -5  6  0 0.00000000D+00 0.00000000D+00 0.00000000D+00 0.00000000D+00 0.00000000D+00
  <mgrwgt>
 0.4477960197D-02    1    2    0
 0.468280429697421D+03 0.000000000000000D+00 0.000000000000000D+00 0.468280429697421D+03
 0.468280429697421D+03 0.000000000000000D+00 0.000000000000000D+00 -.468280429697421D+03
 0.473207861881260D+03 -.502583118059244D+02 -.450598968123482D+03 0.523005981486388D+02
 0.109463239719307D+03 0.447515709823724D+02 0.996371064889406D+02 -.720727097919896D+01
 0.353889757794275D+03 0.550674082355204D+01 0.350961861634541D+03 -.450933271694398D+02
 0.000000000000000D+00 -.000000000000000D+00 0.000000000000000D+00 -.000000000000000D+00
 0.468815020954108D+03 0.000000000000000D+00 0.000000000000000D+00 0.468815020954108D+03
 0.628836185727408D+03 0.000000000000000D+00 0.000000000000000D+00 -.628836185727408D+03
 0.481417336366260D+03 -.495350892835093D+02 -.459291382585123D+03 0.523005981486388D+02
 0.107734673091589D+03 0.449161197735155D+02 0.976593938936502D+02 -.720727097919896D+01
 0.347565241517237D+03 0.603816200842549D+01 0.344574708235072D+03 -.450933271694398D+02
 0.160933955706431D+03 -.141919249843165D+01 0.170572804564015D+02 -.160021164773300D+03
0.498544625954D-03 0.000000000000D+00 0.000000000000D+00 0.183797139498D-03 0.417743707591D-05  6 1 -2 25 1 -2 21 2 0.13775223D+00 0.50653995D-01 0.22458364D+06 0.22458364D+06 0.22458364D+06 0.10939793D+01  1  2  1  2  6  2       -2 0.447796019694D-02 0.100000000000D+01
  </mgrwgt>
  </event>
  <event>
  7     66 0.18000663E-05 0.51022553E+02 0.75467711E-02 0.94895496E-01
        1 -1    0    0  501    0 0.00000000E+00 0.00000000E+00 0.25135666E+03 0.25135687E+03 0.32000000E+00 0.0000E+00 0.9000E+01
       -2 -1    0    0    0  503 0.00000000E+00 0.00000000E+00 -.10222865E+04 0.10222866E+04 0.32000000E+00 0.0000E+00 0.9000E+01
      -24  2    1    2    0    0 0.46969164E+03 -.19276155E+02 -.35395303E+03 0.59477961E+03 0.86592293E+02 0.0000E+00 0.0000E+00
       25  1    1    2    0    0 -.47342609E+03 0.32066052E+02 -.33110088E+03 0.59195716E+03 0.12500000E+03 0.0000E+00 0.9000E+01
        1  1    3    3  502    0 0.32485217E+03 -.35496916E+02 -.20174079E+03 0.38404220E+03 0.32000000E+00 0.0000E+00 0.9000E+01
       -2  1    3    3    0  502 0.14483947E+03 0.16220761E+02 -.15221224E+03 0.21073741E+03 0.32000000E+00 0.0000E+00 0.9000E+01
       21  1    1    2  501  503 0.37344430E+01 -.12789897E+02 -.85875951E+02 0.86906669E+02 0.75000000E+00 0.0000E+00 0.9000E+01
#aMCatNLO 2  0  0  2  1 0.28353093D+02 0.00000000D+00  -5  6  0 0.00000000D+00 0.00000000D+00 0.00000000D+00 0.00000000D+00 0.00000000D+00
  <mgrwgt>
 0.1103707503D-02    1    2    0
 0.484475948927042D+03 0.000000000000000D+00 0.000000000000000D+00 0.484475948927042D+03
 0.484475948927042D+03 0.000000000000000D+00 0.000000000000000D+00 -.484475948927042D+03
 0.488669540470310D+03 -.471538550526376D+03 0.256015256845260D+02 0.129952696613876D+02
 0.329452057207867D+03 0.326120940401487D+03 -.398345303110531D+02 0.244335921436624D+02
 0.150830300175908D+03 0.145417610124889D+03 0.142330046265271D+02 -.374288618050500D+02
 0.000000000000000D+00 0.000000000000000D+00 -.000000000000000D+00 -.000000000000000D+00
 0.485514140222340D+03 0.000000000000000D+00 0.000000000000000D+00 0.485514140222340D+03
 0.529243991735138D+03 0.000000000000000D+00 0.000000000000000D+00 -.529243991735138D+03
 0.490871031237631D+03 -.473426087758496D+03 0.320660522111537D+02 0.129952696613876D+02
 0.327700493912319D+03 0.324854632559578D+03 -.354976194964757D+02 0.244335921436624D+02
 0.150471976389558D+03 0.144837012157264D+03 0.162214639263748D+02 -.374288618050500D+02
 0.457146304179698D+02 0.373444304165333D+01 -.127898966410527D+02 -.437298515127985D+02
0.290002209554D-03 0.000000000000D+00 0.000000000000D+00 0.821954983656D-05 0.295692298704D-06  6 1 -2 25 1 -2 21 2 0.38670031D-01 0.15727387D+00 0.23841434D+06 0.23841434D+06 0.23841434D+06 0.10920128D+01  1  2  1  2  6  2       -2 0.110370750299D-02 0.100000000000D+01
  </mgrwgt>
  </event>
  <event>
  7     66 0.18000663E-05 0.10252571E+03 0.75467711E-02 0.94393688E-01
        1 -1    0    0  503    0 0.00000000E+00 0.00000000E+00 0.88014436E+03 0.88014442E+03 0.32000000E+00 0.0000E+00 0.9000E+01
       -2 -1    0    0    0  501 0.00000000E+00 0.00000000E+00 -.36882947E+03 0.36882961E+03 0.32000000E+00 0.0000E+00 0.9000E+01
      -24  2    1    2    0    0 0.31798098E+03 0.26438738E+03 -.67617321E+01 0.42164315E+03 0.82003911E+02 0.0000E+00 0.0000E+00
       25  1    1    2    0    0 -.42122146E+03 -.18764160E+03 0.27228621E+03 0.54991061E+03 0.12500000E+03 0.0000E+00 0.9000E+01
        1  1    3    3  502    0 0.21829170E+03 0.19643417E+03 -.40315689E+02 0.29641712E+03 0.32000000E+00 0.0000E+00 0.9000E+01
       -2  1    3    3    0  502 0.99689275E+02 0.67953210E+02 0.33553957E+02 0.12522604E+03 0.32000000E+00 0.0000E+00 0.9000E+01
       21  1    1    2  503  501 0.10324049E+03 -.76745774E+02 0.24579042E+03 0.27742027E+03 0.75000000E+00 0.0000E+00 0.9000E+01
#aMCatNLO 2  0  0  1  1 0.45531310D+01 0.00000000D+00  -5  6  0 0.00000000D+00 0.00000000D+00 0.00000000D+00 0.00000000D+00 0.00000000D+00
  <mgrwgt>
 0.2058220293D-03    1    2    0
 0.462834999888783D+03 0.000000000000000D+00 0.000000000000000D+00 0.462834999888783D+03
 0.462834999888783D+03 0.000000000000000D+00 0.000000000000000D+00 -.462834999888783D+03
 0.467642522450425D+03 -.367834222304926D+03 -.227328023533071D+03 0.126824616781107D+03
 0.330737609732849D+03 0.254386662252403D+03 0.169605594738779D+03 -.126129833081573D+03
 0.127289867594291D+03 0.113447560052523D+03 0.577224287942920D+02 -.694783699533815D+00
 0.000000000000000D+00 0.000000000000000D+00 -.000000000000000D+00 0.000000000000000D+00
 0.664915075908510D+03 0.000000000000000D+00 0.000000000000000D+00 0.664915075908510D+03
 0.488216441098017D+03 0.000000000000000D+00 0.000000000000000D+00 -.488216441098017D+03
 0.494314047487861D+03 -.421221464594420D+03 -.187641604893714D+03 0.126824616781107D+03
 0.319605916132698D+03 0.218293507455389D+03 0.196436125589617D+03 -.126129833081573D+03
 0.120645957382657D+03 0.996874690318449D+02 0.679512533101022D+02 -.694783699533815D+00
 0.218565596003312D+03 0.103240488107187D+03 -.767457740060051D+02 0.176698634810493D+03
0.283808251230D-04 0.000000000000D+00 0.000000000000D+00 0.416841352901D-04 0.170979147866D-07  6 1 -2 25 1 -2 21 2 0.13540667D+00 0.56742938D-01 0.26046617D+06 0.26046617D+06 0.26046617D+06 0.10891217D+01  1  2  1  1  6  1        1 0.205822029259D-03 0.100000000000D+01
  </mgrwgt>
  </event>
  <event>
  7     66 0.18000663E-05 0.25122768E+02 0.75467711E-02 0.91191530E-01
        1 -1    0    0  501    0 0.00000000E+00 0.00000000E+00 0.16111641E+04 0.16111641E+04 0.32000000E+00 0.0000E+00 0.9000E+01
       21 -1    0    0  503  501 0.00000000E+00 0.00000000E+00 -.32485737E+03 0.32485824E+03 0.75000000E+00 0.0000E+00 0.9000E+01
      -24  2    1    2    0    0 0.61734483E+03 0.25873174E+03 0.60746302E+03 0.90749765E+03 0.80522677E+02 0.0000E+00 0.0000E+00
       25  1    1    2    0    0 -.59936356E+03 -.21653832E+03 0.71806351E+03 0.96817650E+03 0.12500000E+03 0.0000E+00 0.9000E+01
        1  1    3    3  502    0 0.14561681E+03 0.99309422E+02 0.15904146E+03 0.23740452E+03 0.32000000E+00 0.0000E+00 0.9000E+01
        2  1    1    2  503    0 -.17981264E+02 -.42193423E+02 -.39219815E+02 0.60348215E+02 0.32000000E+00 0.0000E+00 0.9000E+01
       -2  1    3    3    0  502 0.47172802E+03 0.15942232E+03 0.44842156E+03 0.67009313E+03 0.32000000E+00 0.0000E+00 0.9000E+01
#aMCatNLO 2  0  0  2  1 0.43822112D+02 0.00000000D+00  -5  6  0 0.00000000D+00 0.00000000D+00 0.00000000D+00 0.00000000D+00 0.00000000D+00
  <mgrwgt>
 0.1620467033D-03    1    2    0
 0.663142007660129D+03 0.000000000000000D+00 0.000000000000000D+00 0.663142007660129D+03
 0.663142007660129D+03 0.000000000000000D+00 0.000000000000000D+00 -.663142007660129D+03
 0.666588139275737D+03 -.608293827374687D+03 -.237493374235710D+03 0.478567048080132D+02
 0.171656017851218D+03 0.143251031995708D+03 0.937692140704417D+02 -.123395619579460D+02
 0.000000000000000D+00 -.000000000000000D+00 -.000000000000000D+00 -.000000000000000D+00
 0.488039858193302D+03 0.465042795378978D+03 0.143724160165268D+03 -.355171428500672D+02
 0.667917660220459D+03 0.000000000000000D+00 0.000000000000000D+00 0.667917660220459D+03
 0.783628148238329D+03 0.000000000000000D+00 0.000000000000000D+00 -.783628148238329D+03
 0.651184144328290D+03 -.599363564135659D+03 -.216538319047890D+03 0.478567048080132D+02
 0.176683877008405D+03 0.145611657573023D+03 0.993084728723791D+02 -.123395619579460D+02
 0.124468983235621D+03 -.179812635832476D+02 -.421934225955349D+02 -.115710488017871D+03
 0.499208803886472D+03 0.471733170145883D+03 0.159423268771046D+03 -.355171428500672D+02
0.595767011701D-05 0.000000000000D+00 0.000000000000D+00 0.219051400275D-03 0.160092728531D-07  6 1 21 25 1 2 -2 2 0.24787139D+00 0.49978111D-01 0.46887198D+06 0.46887198D+06 0.46887198D+06 0.10704889D+01  1  2  1  6  5  2       -2 0.162046703274D-03 0.100000000000D+01
  </mgrwgt>
  </event>
  <event>
  7     66 0.18000663E-05 0.28846993E+02 0.75467711E-02 0.94724180E-01
        1 -1    0    0  501    0 0.00000000E+00 0.00000000E+00 0.28023226E+04 0.28023226E+04 0.32000000E+00 0.0000E+00 0.9000E+01
       21 -1    0    0  503  501 0.00000000E+00 0.00000000E+00 -.11516460E+03 0.11516704E+03 0.75000000E+00 0.0000E+00 0.9000E+01
      -24  2    1    2    0    0 -.41661559E+03 -.14674482E+03 0.91590742E+03 0.10200503E+04 0.80707435E+02 0.0000E+00 0.0000E+00
       25  1    1    2    0    0 0.46083557E+03 0.14022776E+03 0.17830612E+04 0.18512065E+04 0.12500000E+03 0.0000E+00 0.9000E+01
        1  1    3    3  502    0 -.35835683E+03 -.15448413E+03 0.79811257E+03 0.88840798E+03 0.32000000E+00 0.0000E+00 0.9000E+01
        2  1    1    2  503    0 -.44219982E+02 0.65170605E+01 -.11810642E+02 0.46232808E+02 0.32000000E+00 0.0000E+00 0.9000E+01
       -2  1    3    3    0  502 -.58258756E+02 0.77393109E+01 0.11779484E+03 0.13164235E+03 0.32000000E+00 0.0000E+00 0.9000E+01
#aMCatNLO 2  0  0  2  1 0.10973398D+02 0.00000000D+00  -5  6  0 0.00000000D+00 0.00000000D+00 0.00000000D+00 0.00000000D+00 0.00000000D+00
  <mgrwgt>
 0.2542659445D-03    1    2    0
 0.489307237673899D+03 0.000000000000000D+00 0.000000000000000D+00 0.489307237673899D+03
 0.489307237673899D+03 0.000000000000000D+00 0.000000000000000D+00 -.489307237673899D+03
 0.493962446740729D+03 0.438089806100279D+03 0.143579984631877D+03 0.125841203880991D+03
 0.420606837479893D+03 -.377005357356192D+03 -.151738986643172D+03 -.108408266253412D+03
 0.000000000000000D+00 -.000000000000000D+00 0.000000000000000D+00 -.000000000000000D+00
 0.640451911271750D+02 -.610844487440868D+02 0.815900201129496D+01 -.174329376275799D+02
 0.492844115452902D+03 0.000000000000000D+00 0.000000000000000D+00 0.492844115452902D+03
 0.654835349430635D+03 0.000000000000000D+00 0.000000000000000D+00 -.654835349430635D+03
 0.513316914922096D+03 0.460835570692055D+03 0.140227755226450D+03 0.125841203880991D+03
 0.405020353231973D+03 -.358361550647495D+03 -.154486676958256D+03 -.108408266253412D+03
 0.168044752233973D+03 -.442199818019650D+02 0.651706047101210D+01 -.161991233977733D+03
 0.612974444954946D+02 -.582540382425954D+02 0.774186126079407D+01 -.174329376275799D+02
0.705386613812D-05 0.000000000000D+00 0.000000000000D+00 0.115475827208D-03 0.146239275853D-07  6 1 21 25 1 2 -2 2 0.43112661D+00 0.17717814D-01 0.24569817D+06 0.24569817D+06 0.24569817D+06 0.10910266D+01  1  2  1  6  5  2       -2 0.254265944484D-03 0.100000000000D+01
  </mgrwgt>
  </event>
  <event>
  6     66 0.18000663E-05 0.16111110E+02 0.75467711E-02 0.95138903E-01
        1 -1    0    0  501    0 0.00000000E+00 0.00000000E+00 0.23793511E+03 0.23793532E+03 0.32000000E+00 0.0000E+00 0.9000E+01
       -2 -1    0    0    0  501 -.00000000E+00 -.00000000E+00 -.10311345E+04 0.10311346E+04 0.32000000E+00 0.0000E+00 0.9000E+01
       25  1    1    2    0    0 -.46341547E+03 -.59595509E+02 -.36751786E+03 0.60745362E+03 0.12500000E+03 0.0000E+00 0.9000E+01
        1  1    1    2  502    0 0.43911788E+03 0.58724119E+02 -.38866457E+03 0.58934989E+03 0.32000000E+00 0.0000E+00 0.9000E+01
       -2  1    1    2    0  503 0.24722793E+02 -.42683467E+01 -.51275566E+02 0.57085211E+02 0.32000000E+00 0.0000E+00 0.9000E+01
       21  1    1    2  503  502 -.42520633E+00 0.51397368E+01 0.14258594E+02 0.15181163E+02 0.75000000E+00 0.0000E+00 0.9000E+01
#aMCatNLO 2  0  0  5  2 0.39112175D+00 0.00000000D+00  -5  6  0 0.00000000D+00 0.00000000D+00 0.00000000D+00 0.00000000D+00 0.00000000D+00
  <mgrwgt>
 0.1242869741D-02    1    2    0
 0.495321377977398D+03 0.000000000000000D+00 0.000000000000000D+00 0.495321377977398D+03
 0.495321377977398D+03 -.000000000000000D+00 -.000000000000000D+00 -.495321377977398D+03
 0.500062141711764D+03 -.480358198669146D+03 -.602031304816535D+02 0.829033321996530D+01
 0.429365664041231D+03 0.424161670985844D+03 0.581956377504635D+02 -.324810417148219D+02
 0.612149502018013D+02 0.561965276833017D+02 0.200749273118993D+01 0.241907084948567D+02
 0.000000000000000D+00 -.000000000000000D+00 0.000000000000000D+00 0.000000000000000D+00
 0.495321377977398D+03 0.000000000000000D+00 0.000000000000000D+00 0.495321377977398D+03
 0.495321377977398D+03 -.000000000000000D+00 -.000000000000000D+00 -.495321377977398D+03
 0.483929128791580D+03 -.463430449528761D+03 -.595984252666580D+02 0.155771579013199D+02
 0.443856601988576D+03 0.439183844358978D+03 0.587322706190135D+02 -.260145030867308D+02
 0.315312438694464D+02 0.236090261793654D+02 -.431191257842369D+01 -.204509323193974D+02
 0.313257813051926D+02 0.637578990418355D+00 0.517806722606816D+01 0.308882775048084D+02
0.310030309174D-03 0.000000000000D+00 0.000000000000D+00 0.231859158892D-04 0.884867992670D-05  6 1 -2 25 1 -2 21 2 0.36605421D-01 0.15863610D+00 0.22847859D+06 0.22847859D+06 0.22847859D+06 0.10934124D+01  1  2  1  4  6  5       -2 0.124286974054D-02 0.100000000000D+01
  </mgrwgt>
  </event>
  <event>
  7     66 0.18000663E-05 0.34047116E+02 0.75467711E-02 0.94432404E-01
        1 -1    0    0  501    0 0.00000000E+00 0.00000000E+00 0.55775611E+03 0.55775621E+03 0.32000000E+00 0.0000E+00 0.9000E+01
       21 -1    0    0  503  501 0.00000000E+00 0.00000000E+00 -.22948987E+04 0.22948988E+04 0.75000000E+00 0.0000E+00 0.9000E+01
      -24  2    1    2    0    0 -.23932680E+03 0.37794917E+03 -.54523179E+02 0.45892002E+03 0.86671316E+02 0.0000E+00 0.0000E+00
       25  1    1    2    0    0 0.30539972E+03 -.37759767E+03 0.17786266E+03 0.53207999E+03 0.12500000E+03 0.0000E+00 0.9000E+01
        1  1    3    3  502    0 -.17327832E+03 0.23281568E+03 0.54700246E+00 0.29022219E+03 0.32000000E+00 0.0000E+00 0.9000E+01
        2  1    1    2  503    0 -.66072917E+02 -.35149722E+00 -.18604821E+04 0.18616550E+04 0.32000000E+00 0.0000E+00 0.9000E+01
       -2  1    3    3    0  502 -.66048478E+02 0.14513349E+03 -.55070181E+02 0.16869783E+03 0.32000000E+00 0.0000E+00 0.9000E+01
#aMCatNLO 2  0  0  2  2 0.20340966D+03 0.00000000D+00  -5  6  0 0.00000000D+00 0.00000000D+00 0.00000000D+00 0.00000000D+00 0.00000000D+00
  <mgrwgt>
 0.3544209365D-03    1    2    0
 0.490536094796865D+03 0.000000000000000D+00 0.000000000000000D+00 0.490536094796865D+03
 0.490536094796865D+03 0.000000000000000D+00 0.000000000000000D+00 -.490536094796865D+03
 0.494670900246991D+03 0.271474375011379D+03 -.377778150411809D+03 0.112515031594818D+03
 0.304678439245924D+03 -.193363940517315D+03 0.232710035649859D+03 -.358521569335748D+02
 0.000000000000000D+00 -.000000000000000D+00 -.000000000000000D+00 -.000000000000000D+00
 0.181722850100815D+03 -.781104344940642D+02 0.145068114761950D+03 -.766628746612427D+02
 0.492164823031380D+03 0.000000000000000D+00 0.000000000000000D+00 0.492164823031380D+03
 0.260074257882545D+04 0.000000000000000D+00 0.000000000000000D+00 -.260074257882545D+04
 0.513939318246655D+03 0.305399718058988D+03 -.377597673078826D+03 0.112515031594818D+03
 0.292429409101706D+03 -.173279780928026D+03 0.232816880127534D+03 -.358521569335748D+02
 0.210961273843208D+04 -.660729171071989D+02 -.351497222744329D+00 -.210857775579407D+04
 0.176925936076386D+03 -.660470200237627D+02 0.145132290174036D+03 -.766628746612427D+02
0.775317471948D-03 0.000000000000D+00 0.000000000000D+00 0.814566106744D-05 0.636403149453D-08  6 1 21 25 1 2 -2 2 0.85808647D-01 0.35306134D+00 0.25868568D+06 0.25868568D+06 0.25868568D+06 0.10893450D+01  1  2  1  6  5  2       -2 0.354420936500D-03 0.100000000000D+01
  </mgrwgt>
  </event>
  <event>
  7     66 0.18000663E-05 0.73107451E+02 0.75467711E-02 0.92002904E-01
        1 -1    0    0  503    0 0.00000000E+00 0.00000000E+00 0.20071049E+04 0.20071050E+04 0.32000000E+00 0.0000E+00 0.9000E+01
       -2 -1    0    0    0  501 0.00000000E+00 0.00000000E+00 -.22728058E+03 0.22728081E+03 0.32000000E+00 0.0000E+00 0.9000E+01
      -24  2    1    2    0    0 -.41857562E+02 0.62342354E+03 0.50685471E+03 0.80854775E+03 0.80242182E+02 0.0000E+00 0.0000E+00
       25  1    1    2    0    0 0.33858144E+02 -.61716462E+03 0.12371377E+04 0.13885868E+04 0.12500000E+03 0.0000E+00 0.9000E+01
        1  1    3    3  502    0 -.51463407E+02 0.30127369E+03 0.27914725E+03 0.41392947E+03 0.32000000E+00 0.0000E+00 0.9000E+01
       -2  1    3    3    0  502 0.96058445E+01 0.32214985E+03 0.22770746E+03 0.39461828E+03 0.32000000E+00 0.0000E+00 0.9000E+01
       21  1    1    2  503  501 0.79994178E+01 -.62589215E+01 0.35831912E+02 0.37251218E+02 0.75000000E+00 0.0000E+00 0.9000E+01
#aMCatNLO 2  0  0  1  2 0.30827441D+02 0.00000000D+00  -5  6  0 0.00000000D+00 0.00000000D+00 0.00000000D+00 0.00000000D+00 0.00000000D+00
  <mgrwgt>
 0.1900919861D-02    1    2    0
 0.668166793166387D+03 0.000000000000000D+00 0.000000000000000D+00 0.668166793166387D+03
 0.668166793166387D+03 0.000000000000000D+00 0.000000000000000D+00 -.668166793166387D+03
 0.671603881127203D+03 0.378690540936316D+02 -.620302842200506D+03 0.221849254777088D+03
 0.314539699140835D+03 -.495764230915645D+02 0.299796177170923D+03 -.812382469207335D+02
 0.350190006064735D+03 0.117073689979328D+02 0.320506665029584D+03 -.140611007856355D+03
 0.000000000000000D+00 0.000000000000000D+00 -.000000000000000D+00 0.000000000000000D+00
 0.680566901012972D+03 0.000000000000000D+00 0.000000000000000D+00 0.680566901012972D+03
 0.670269252154281D+03 0.000000000000000D+00 0.000000000000000D+00 -.670269252154281D+03
 0.668491309756560D+03 0.338581444757449D+02 -.617164617770293D+03 0.221849254777088D+03
 0.316249694539629D+03 -.514643779646100D+02 0.301273354836385D+03 -.812382469207335D+02
 0.351631181415393D+03 0.960681571630783D+01 0.322150184393860D+03 -.140611007856355D+03
 0.144639674556698D+02 0.799941777255733D+01 -.625892145995278D+01 0.102976488586916D+02
0.658789513857D-03 0.000000000000D+00 0.000000000000D+00 0.290611539768D-03 0.173711161769D-04  6 1 -2 25 1 -2 21 2 0.30878093D+00 0.34965757D-01 0.40239579D+06 0.40239579D+06 0.40239579D+06 0.10752407D+01  1  2  1  1  6  1        1 0.190091986052D-02 0.100000000000D+01
  </mgrwgt>
  </event>
  <event>
  7     66 0.18000663E-05 0.34979299E+02 0.75467711E-02 0.94356585E-01
        1 -1    0    0  501    0 0.00000000E+00 0.00000000E+00 0.57641530E+03 0.57641539E+03 0.32000000E+00 0.0000E+00 0.9000E+01
       -2 -1    0    0    0  503 0.00000000E+00 0.00000000E+00 -.66774782E+03 0.66774790E+03 0.32000000E+00 0.0000E+00 0.9000E+01
      -24  2    1    2    0    0 -.27097315E+03 0.36707439E+03 -.11346277E+03 0.47692559E+03 0.80088469E+02 0.0000E+00 0.0000E+00
       25  1    1    2    0    0 0.28037470E+03 -.41570889E+03 0.22118294E+03 0.56211275E+03 0.12500000E+03 0.0000E+00 0.9000E+01
        1  1    3    3  502    0 -.82628787E+02 0.14204645E+03 -.60669358E+01 0.16444337E+03 0.32000000E+00 0.0000E+00 0.9000E+01
       -2  1    3    3    0  502 -.18834436E+03 0.22502794E+03 -.10739584E+03 0.31248222E+03 0.32000000E+00 0.0000E+00 0.9000E+01
       21  1    1    2  501  503 -.94015492E+01 0.48634497E+02 -.19905270E+03 0.20512494E+03 0.75000000E+00 0.0000E+00 0.9000E+01
#aMCatNLO 2  0  0  2  1 0.76382697D+01 0.00000000D+00  -5  6  0 0.00000000D+00 0.00000000D+00 0.00000000D+00 0.00000000D+00 0.00000000D+00
  <mgrwgt>
 0.8348907551D-03    1    2    0
 0.516125795755538D+03 0.000000000000000D+00 0.000000000000000D+00 0.516125795755538D+03
 0.516125795755538D+03 0.000000000000000D+00 0.000000000000000D+00 -.516125795755538D+03
 0.520587323005501D+03 0.275538092384034D+03 -.390688971718303D+03 0.163789645268241D+03
 0.173600103811416D+03 -.841725527951373D+02 0.150039807051008D+03 -.232386251611549D+02
 0.338064164694158D+03 -.191365539588897D+03 0.240649164667295D+03 -.140551020107086D+03
 0.000000000000000D+00 -.000000000000000D+00 0.000000000000000D+00 -.000000000000000D+00
 0.519455200409761D+03 0.000000000000000D+00 0.000000000000000D+00 0.519455200409761D+03
 0.740967174377762D+03 0.000000000000000D+00 0.000000000000000D+00 -.740967174377762D+03
 0.542103220447664D+03 0.280374700258024D+03 -.415708889943257D+03 0.163789645268241D+03
 0.165964121948980D+03 -.826270991180007D+02 0.142045128625586D+03 -.232386251611549D+02
 0.325372085743519D+03 -.188346051919109D+03 0.225029263995663D+03 -.140551020107086D+03
 0.226982946647360D+03 -.940154922091435D+01 0.486344973220090D+02 -.221511973968001D+03
0.225115812362D-03 0.000000000000D+00 0.000000000000D+00 0.287070511260D-03 0.781066086440D-06  6 1 -2 25 1 -2 21 2 0.88679184D-01 0.10273033D+00 0.26218539D+06 0.26218539D+06 0.26218539D+06 0.10889076D+01  1  2  1  2  6  2       -2 0.834890755084D-03 0.100000000000D+01
  </mgrwgt>
  </event>
  <event>
  7     66 0.18000663E-05 0.23679075E+02 0.75467711E-02 0.94384435E-01
        1 -1    0    0  501    0 0.00000000E+00 0.00000000E+00 0.34310845E+04 0.34310845E+04 0.32000000E+00 0.0000E+00 0.9000E+01
       21 -1    0    0  503  501 0.00000000E+00 0.00000000E+00 -.81566378E+02 0.81569826E+02 0.75000000E+00 0.0000E+00 0.9000E+01
      -24  2    1    2    0    0 0.46614484E+03 0.16374962E+03 0.19804106E+04 0.20427658E+04 0.82225570E+02 0.0000E+00 0.0000E+00
       25  1    1    2    0    0 -.44514984E+03 -.18374038E+03 0.13372790E+04 0.14268354E+04 0.12500000E+03 0.0000E+00 0.9000E+01
        1  1    3    3  502    0 0.86740512E+02 0.17985578E+02 0.48929364E+03 0.49724820E+03 0.32000000E+00 0.0000E+00 0.9000E+01
        2  1    1    2  503    0 -.20994991E+02 0.19990763E+02 0.31828436E+02 0.43053130E+02 0.32000000E+00 0.0000E+00 0.9000E+01
       -2  1    3    3    0  502 0.37940432E+03 0.14576404E+03 0.14911170E+04 0.15455176E+04 0.32000000E+00 0.0000E+00 0.9000E+01
#aMCatNLO 2  0  0  2  1 0.76382697D+01 0.00000000D+00  -5  6  0 0.00000000D+00 0.00000000D+00 0.00000000D+00 0.00000000D+00 0.00000000D+00
  <mgrwgt>
 0.1078218594D-03    1    2    0
 0.507500560413821D+03 0.000000000000000D+00 0.000000000000000D+00 0.507500560413821D+03
 0.507500560413821D+03 0.000000000000000D+00 0.000000000000000D+00 -.507500560413821D+03
 0.511867036257136D+03 -.455675576137807D+03 -.173718116341993D+03 -.925453843945292D+02
 0.989774366206615D+02 0.846747124087106D+02 0.199464106411787D+02 0.472108752411211D+02
 0.000000000000000D+00 -.000000000000000D+00 0.000000000000000D+00 -.000000000000000D+00
 0.404156647949844D+03 0.371000863729097D+03 0.153771705700815D+03 0.453345091534080D+02
 0.513308270645124D+03 0.000000000000000D+00 0.000000000000000D+00 0.513308270645124D+03
 0.545221238086885D+03 0.000000000000000D+00 0.000000000000000D+00 -.545221238086885D+03
 0.506071695382722D+03 -.445149844894174D+03 -.183740382838134D+03 -.925453843945292D+02
 0.100376419464587D+03 0.867360792143089D+02 0.179836427351959D+02 0.472108752411211D+02
 0.431144726306859D+02 -.209949912664546D+02 0.199907628920152D+02 -.319129674417608D+02
 0.408966921254014D+03 0.379408756946320D+03 0.145765977210923D+03 0.453345091534080D+02
0.486234140316D-05 0.000000000000D+00 0.000000000000D+00 0.568959297553D-04 0.525695208143D-08  6 1 21 25 1 2 -2 2 0.52785881D+00 0.12548926D-01 0.26089371D+06 0.26089371D+06 0.26089371D+06 0.10890683D+01  1  2  1  6  5  2       -2 0.107821859387D-03 0.100000000000D+01
  </mgrwgt>
  </event>
  <event>
  6     66 0.18000663E-05 0.10743647E+02 0.75467711E-02 0.87717335E-01
        1 -1    0    0  501    0 0.00000000E+00 0.00000000E+00 0.21323543E+04 0.21323543E+04 0.32000000E+00 0.0000E+00 0.9000E+01
       -2 -1    0    0    0  501 0.00000000E+00 0.00000000E+00 -.25459062E+03 0.25459082E+03 0.32000000E+00 0.0000E+00 0.9000E+01
      -24  2    1    2    0    0 -.62840486E+03 0.32141634E+03 0.12317064E+04 0.14219497E+04 0.81481870E+02 0.0000E+00 0.0000E+00
       25  1    1    2    0    0 0.62840486E+03 -.32141634E+03 0.64605730E+03 0.96499542E+03 0.12500000E+03 0.0000E+00 0.9000E+01
        1  1    3    3  502    0 -.61615828E+03 0.32221512E+03 0.12231956E+04 0.14070115E+04 0.32000000E+00 0.0000E+00 0.9000E+01
       -2  1    3    3    0  502 -.12246572E+02 -.79878459E+00 0.85107753E+01 0.14938282E+02 0.32000000E+00 0.0000E+00 0.9000E+01
#aMCatNLO 1  0  0  1  2 0.36041572D+02 0.00000000D+00  -5  6  0 0.00000000D+00 0.00000000D+00 0.00000000D+00 0.00000000D+00 0.00000000D+00
  <mgrwgt>
 0.3335947102D-03    7    2    0
 0.736802332992329D+03 0.000000000000000D+00 0.000000000000000D+00 0.736802332992329D+03
 0.736802332992329D+03 0.000000000000000D+00 0.000000000000000D+00 -.736802332992329D+03
 0.739851218878081D+03 0.628404856497451D+03 -.321416338738040D+03 -.183176689559654D+03
 0.720412307383135D+03 -.616167599062496D+03 0.322220105496037D+03 0.188429260224558D+03
 0.133411397234429D+02 -.122372574349546D+02 -.803766757997678D+00 -.525257066490395D+01
 0.000000000000000D+00 -.000000000000000D+00 0.000000000000000D+00 0.000000000000000D+00
 0.121968743524704D+04 0.000000000000000D+00 0.000000000000000D+00 0.121968743524704D+04
 0.877040063632611D+03 0.000000000000000D+00 0.000000000000000D+00 -.877040063632611D+03
 0.870283123224862D+03 0.630661559837713D+03 -.557207332969560D+03 -.183176689559654D+03
 0.653784756481008D+03 -.614241576479715D+03 0.120980194337217D+03 0.188429260224558D+03
 0.141314567225015D+02 -.121987528837851D+02 -.482690362349061D+01 -.525257066490395D+01
 0.558528162451281D+03 -.422123047421280D+01 0.441054042255833D+03 0.342647371614430D+03
0.785452143553D-04 0.000000000000D+00 0.000000000000D+00 0.172098422962D-04 0.000000000000D+00  6 1 -2 25 1 -2 21 0 0.32805453D+00 0.39167805D-01 0.50723847D+06 0.50723847D+06 0.50723847D+06 0.10680695D+01  1  2  2  1  6  1        1 0.129182232739D-03 0.100000000000D+01
0.456294312740D-04 0.000000000000D+00 -.301634304554D-06 0.172098422962D-04 0.000000000000D+00  6 1 -2 25 1 -2 21 2 0.32805453D+00 0.39167805D-01 0.50723847D+06 0.50723847D+06 0.50723847D+06 0.10680695D+01  1  2  3  1  6  1        1 0.856105228963D-04 0.100000000000D+01
-.262685161172D-04 0.000000000000D+00 0.000000000000D+00 0.172098422962D-04 0.000000000000D+00  6 1 -2 25 1 -2 21 2 0.32805453D+00 0.39167805D-01 0.50723847D+06 0.50723847D+06 0.50723847D+06 0.10680695D+01  1  2 15  1  6  1        1 -.492853261089D-04 0.100000000000D+01
-.987562973360D-06 0.000000000000D+00 0.000000000000D+00 0.172098422962D-04 0.000000000000D+00  6 1 -2 25 1 -2 21 2 0.32805453D+00 0.39167805D-01 0.50723847D+06 0.50723847D+06 0.50723847D+06 0.10680695D+01  1  2  4  1  6  1        1 -.185287828890D-05 0.100000000000D+01
-.860443823715D-04 0.000000000000D+00 -.374077274712D-04 0.172098422962D-04 0.000000000000D+00  6 1 -2 25 1 -2 21 2 0.56532780D+00 0.39167805D-01 0.50723847D+06 0.50723847D+06 0.50723847D+06 0.10680695D+01  1  2  5  1  6  1        1 -.113686333172D-04 0.100000000000D+01
0.966608339142D-04 0.000000000000D+00 0.324781219159D-04 0.172098422962D-04 0.000000000000D+00  6 1 -2 25 1 -2 21 2 0.32805453D+00 0.39167805D-01 0.50723847D+06 0.50723847D+06 0.50723847D+06 0.10680695D+01  1  2  6  1  6  1        1 0.181356293601D-03 0.100000000000D+01
-.334840951257D-05 0.000000000000D+00 -.225902963133D-05 0.172098422962D-04 0.000000000000D+00  6 21 -2 25 1 -2 -1 2 0.56532780D+00 0.39167805D-01 0.50723847D+06 0.50723847D+06 0.50723847D+06 0.10680695D+01  1  2  5  5  6  1        1 -.475013436402D-07 0.100000000000D+01
  </mgrwgt>
  </event>
  <event>
  7     66 0.18000663E-05 0.40486701E+02 0.75467711E-02 0.94738370E-01
        1 -1    0    0  501    0 0.00000000E+00 0.00000000E+00 0.17198823E+04 0.17198823E+04 0.32000000E+00 0.0000E+00 0.9000E+01
       -2 -1    0    0    0  503 0.00000000E+00 0.00000000E+00 -.19326477E+03 0.19326504E+03 0.32000000E+00 0.0000E+00 0.9000E+01
      -24  2    1    2    0    0 -.19974214E+03 -.39361370E+03 0.57601888E+03 0.73073811E+03 0.85742407E+02 0.0000E+00 0.0000E+00
       25  1    1    2    0    0 0.14791905E+03 0.43751032E+03 0.99305885E+03 0.11023095E+04 0.12500000E+03 0.0000E+00 0.9000E+01
        1  1    3    3  502    0 -.76326004E+02 -.10458612E+03 0.22494745E+03 0.25954840E+03 0.32000000E+00 0.0000E+00 0.9000E+01
       -2  1    3    3    0  502 -.12341613E+03 -.28902758E+03 0.35107143E+03 0.47118970E+03 0.32000000E+00 0.0000E+00 0.9000E+01
       21  1    1    2  501  503 0.51823086E+02 -.43896613E+02 -.42460192E+02 0.80099783E+02 0.75000000E+00 0.0000E+00 0.9000E+01
#aMCatNLO 2  0  0  2  1 0.99158284D+00 0.00000000D+00  -5  6  0 0.00000000D+00 0.00000000D+00 0.00000000D+00 0.00000000D+00 0.00000000D+00
  <mgrwgt>
 0.5275764512D-03    1    2    0
 0.472611364186634D+03 0.000000000000000D+00 0.000000000000000D+00 0.472611364186634D+03
 0.472611364186634D+03 0.000000000000000D+00 0.000000000000000D+00 -.472611364186634D+03
 0.476987709136614D+03 0.174336667004539D+03 0.415133343654776D+03 0.957251701024802D+02
 0.130590746603677D+03 -.692023039605104D+02 -.110617108477691D+03 0.537024553420190D+01
 0.337644272632978D+03 -.105134363044029D+03 -.304516235177085D+03 -.101095415636682D+03
 0.000000000000000D+00 0.000000000000000D+00 -.000000000000000D+00 -.000000000000000D+00
 0.479071378491591D+03 0.000000000000000D+00 0.000000000000000D+00 0.479071378491591D+03
 0.693825806295670D+03 0.000000000000000D+00 0.000000000000000D+00 -.693825806295670D+03
 0.487938143760734D+03 0.147919051442308D+03 0.437510317782255D+03 0.957251701024802D+02
 0.129584403832494D+03 -.763253456765455D+02 -.104583554093754D+03 0.537024553420190D+01
 0.330136964632918D+03 -.123416791639751D+03 -.289030150495815D+03 -.101095415636682D+03
 0.225237672561115D+03 0.518230858739883D+02 -.438966131926851D+02 -.214754427804079D+03
0.834345183593D-04 0.000000000000D+00 0.000000000000D+00 0.104215290932D-04 0.154582100825D-07  6 1 -2 25 1 -2 21 2 0.26459696D+00 0.29733026D-01 0.24508547D+06 0.24508547D+06 0.24508547D+06 0.10911084D+01  1  2  1  2  6  2       -2 0.527576451200D-03 0.100000000000D+01
  </mgrwgt>
  </event>
  <event>
  7     66 0.18000663E-05 0.83904923E+02 0.75467711E-02 0.92045220E-01
        1 -1    0    0  501    0 0.00000000E+00 0.00000000E+00 0.17601414E+04 0.17601415E+04 0.32000000E+00 0.0000E+00 0.9000E+01
       -2 -1    0    0    0  503 0.00000000E+00 0.00000000E+00 -.23195186E+03 0.23195208E+03 0.32000000E+00 0.0000E+00 0.9000E+01
      -24  2    1    2    0    0 -.62154875E+03 0.61822696E+02 0.79635596E+03 0.10163529E+04 0.92981472E+02 0.0000E+00 0.0000E+00
       25  1    1    2    0    0 0.61077966E+03 -.59180038E+02 0.73353628E+03 0.96449704E+03 0.12500000E+03 0.0000E+00 0.9000E+01
        1  1    3    3  502    0 -.30155174E+03 0.65246024E+01 0.44835760E+03 0.54037086E+03 0.32000000E+00 0.0000E+00 0.9000E+01
       -2  1    3    3    0  502 -.31999701E+03 0.55298094E+02 0.34799835E+03 0.47598206E+03 0.32000000E+00 0.0000E+00 0.9000E+01
       21  1    1    2  501  503 0.10769091E+02 -.26426580E+01 -.17026532E+01 0.11243597E+02 0.75000000E+00 0.0000E+00 0.9000E+01
#aMCatNLO 2  0  0  2  1 0.99158284D+00 0.00000000D+00  -5  6  0 0.00000000D+00 0.00000000D+00 0.00000000D+00 0.00000000D+00 0.00000000D+00
  <mgrwgt>
 0.2159307806D-03    1    2    0
 0.629101214998175D+03 0.000000000000000D+00 0.000000000000000D+00 0.629101214998175D+03
 0.629101214998175D+03 0.000000000000000D+00 0.000000000000000D+00 -.629101214998175D+03
 0.631874794927539D+03 0.616164832071680D+03 -.605015208464042D+02 -.179226716220002D+02
 0.302963799228520D+03 -.298947414963420D+03 0.588500212797936D+01 0.488146850816582D+02
 0.323363835840292D+03 -.317217417108259D+03 0.546165187184248D+02 -.308920134596580D+02
 0.000000000000000D+00 0.000000000000000D+00 -.000000000000000D+00 -.000000000000000D+00
 0.630828285130214D+03 0.000000000000000D+00 0.000000000000000D+00 0.630828285130214D+03
 0.647179519141751D+03 0.000000000000000D+00 0.000000000000000D+00 -.647179519141751D+03
 0.626498437792039D+03 0.610779660337177D+03 -.591800381564463D+02 -.179226716220002D+02
 0.305546648351705D+03 -.301551517766352D+03 0.652403036080173D+01 0.488146850816582D+02
 0.326206205055207D+03 -.319997233249334D+03 0.552986657497181D+02 -.308920134596580D+02
 0.197565130730153D+02 0.107690906785091D+02 -.264265795407356D+01 -.163512340115370D+02
0.531181025789D-04 0.000000000000D+00 0.000000000000D+00 0.207042751334D-05 0.103998334246D-06  6 1 -2 25 1 -2 21 2 0.27078796D+00 0.35684520D-01 0.39922991D+06 0.39922991D+06 0.39922991D+06 0.10754880D+01  1  2  1  2  6  2       -2 0.215930780565D-03 0.100000000000D+01
  </mgrwgt>
  </event>
  <event>
  7     66 0.18000663E-05 0.47208492E+02 0.75467711E-02 0.94898203E-01
        1 -1    0    0  501    0 0.00000000E+00 0.00000000E+00 0.14691650E+04 0.14691650E+04 0.32000000E+00 0.0000E+00 0.9000E+01
       -2 -1    0    0    0  503 0.00000000E+00 0.00000000E+00 -.21986641E+03 0.21986665E+03 0.32000000E+00 0.0000E+00 0.9000E+01
      -24  2    1    2    0    0 0.42524250E+03 -.19812529E+03 0.61768739E+03 0.77984619E+03 0.80855092E+02 0.0000E+00 0.0000E+00
       25  1    1    2    0    0 -.42571809E+03 0.16509860E+03 0.69311998E+03 0.83936509E+03 0.12500000E+03 0.0000E+00 0.9000E+01
        1  1    3    3  502    0 0.16903783E+03 -.64525881E+02 0.17874602E+03 0.25433761E+03 0.32000000E+00 0.0000E+00 0.9000E+01
       -2  1    3    3    0  502 0.25620468E+03 -.13359941E+03 0.43894137E+03 0.52550858E+03 0.32000000E+00 0.0000E+00 0.9000E+01
       21  1    1    2  501  503 0.47558243E+00 0.33026695E+02 -.61508815E+02 0.69820381E+02 0.75000000E+00 0.0000E+00 0.9000E+01
#aMCatNLO 2  0  0  2  1 0.70210946D+02 0.00000000D+00  -5  6  0 0.00000000D+00 0.00000000D+00 0.00000000D+00 0.00000000D+00 0.00000000D+00
  <mgrwgt>
 0.3287058286D-02    1    2    0
 0.475010048915662D+03 0.000000000000000D+00 0.000000000000000D+00 0.475010048915662D+03
 0.475010048915662D+03 0.000000000000000D+00 0.000000000000000D+00 -.475010048915662D+03
 0.479792818344700D+03 -.425479428091821D+03 0.181672166295284D+03 0.232083777844524D+02
 0.184704023810655D+03 0.169129409239621D+03 -.580701020896465D+02 -.462458926327722D+02
 0.285523255675969D+03 0.256350018852201D+03 -.123602064205638D+03 0.230375148483198D+02
 0.000000000000000D+00 0.000000000000000D+00 0.000000000000000D+00 -.000000000000000D+00
 0.476644642383517D+03 0.000000000000000D+00 0.000000000000000D+00 0.476644642383517D+03
 0.677694235824765D+03 0.000000000000000D+00 0.000000000000000D+00 -.677694235824765D+03
 0.473980025065611D+03 -.425718086521480D+03 0.165098595300811D+03 0.232083777844524D+02
 0.186749719681295D+03 0.169036461985225D+03 -.645247993809995D+02 -.462458926327722D+02
 0.289864372125470D+03 0.256206042109054D+03 -.133600490733081D+03 0.230375148483198D+02
 0.203744761335905D+03 0.475582427201828D+00 0.330266948132691D+02 -.201049593441248D+03
0.444419735338D-03 0.000000000000D+00 0.000000000000D+00 0.160015067026D-03 0.991772726534D-06  6 1 -2 25 1 -2 21 2 0.22602507D+00 0.33825574D-01 0.23830122D+06 0.23830122D+06 0.23830122D+06 0.10920284D+01  1  2  1  2  6  2       -2 0.328705828600D-02 0.100000000000D+01
  </mgrwgt>
  </event>
  <event>
  7     66 0.18000663E-05 0.48500039E+02 0.75467711E-02 0.91707031E-01
        1 -1    0    0  501    0 0.00000000E+00 0.00000000E+00 0.10588784E+04 0.10588785E+04 0.32000000E+00 0.0000E+00 0.9000E+01
       -2 -1    0    0    0  503 0.00000000E+00 0.00000000E+00 -.45991621E+03 0.45991632E+03 0.32000000E+00 0.0000E+00 0.9000E+01
      -24  2    1    2    0    0 0.40103189E+03 0.50417615E+03 0.54749130E+03 0.84925210E+03 0.80387991E+02 0.0000E+00 0.0000E+00
       25  1    1    2    0    0 -.38668590E+03 -.50154388E+03 0.66068958E+02 0.64889317E+03 0.12500000E+03 0.0000E+00 0.9000E+01
        1  1    3    3  502    0 0.12887561E+03 0.16614359E+03 0.13089844E+03 0.24768350E+03 0.32000000E+00 0.0000E+00 0.9000E+01
       -2  1    3    3    0  502 0.27215628E+03 0.33803257E+03 0.41659286E+03 0.60156859E+03 0.32000000E+00 0.0000E+00 0.9000E+01
       21  1    1    2  501  503 -.14345992E+02 -.26322763E+01 -.14598060E+02 0.20649509E+02 0.75000000E+00 0.0000E+00 0.9000E+01
#aMCatNLO 2  0  0  2  1 0.70210946D+02 0.00000000D+00  -5  6  0 0.00000000D+00 0.00000000D+00 0.00000000D+00 0.00000000D+00 0.00000000D+00
  <mgrwgt>
 0.9005230417D-03    1    2    0
 0.683331969907983D+03 0.000000000000000D+00 0.000000000000000D+00 0.683331969907983D+03
 0.683331969907983D+03 0.000000000000000D+00 0.000000000000000D+00 -.683331969907983D+03
 0.686684209882342D+03 -.393867299186203D+03 -.502861558494131D+03 -.218881263981994D+03
 0.211068730328679D+03 0.126649081351037D+03 0.165732744423988D+03 0.322905023372495D+02
 0.468910999604946D+03 0.267218217835166D+03 0.337128814070143D+03 0.186590761644744D+03
 0.000000000000000D+00 -.000000000000000D+00 -.000000000000000D+00 -.000000000000000D+00
 0.685324392103387D+03 0.000000000000000D+00 0.000000000000000D+00 0.685324392103387D+03
 0.710595801285751D+03 0.000000000000000D+00 0.000000000000000D+00 -.710595801285751D+03
 0.681620313632719D+03 -.386685896766064D+03 -.501543877917611D+03 -.218881263981994D+03
 0.212729407986287D+03 0.128873341319372D+03 0.166140863059588D+03 0.322905023372495D+02
 0.472392046518416D+03 0.272158547898644D+03 0.338035291187759D+03 0.186590761644744D+03
 0.291784252517159D+02 -.143459924519519D+02 -.263227632973583D+01 -.252714091823630D+02
0.286276113758D-03 0.000000000000D+00 0.000000000000D+00 0.171453122624D-03 0.495608070133D-05  6 1 -2 25 1 -2 21 2 0.16290324D+00 0.70755856D-01 0.42533238D+06 0.42533238D+06 0.42533238D+06 0.10735104D+01  1  2  1  2  6  2       -2 0.900523041673D-03 0.100000000000D+01
  </mgrwgt>
  </event>
  <event>
  7     66 0.18000663E-05 0.36571351E+02 0.75467711E-02 0.92440942E-01
        1 -1    0    0  503    0 0.00000000E+00 0.00000000E+00 0.23015870E+04 0.23015870E+04 0.32000000E+00 0.0000E+00 0.9000E+01
       -2 -1    0    0    0  501 0.00000000E+00 0.00000000E+00 -.16283301E+03 0.16283332E+03 0.32000000E+00 0.0000E+00 0.9000E+01
      -24  2    1    2    0    0 0.22210484E+03 0.55479736E+03 0.10033170E+04 0.11710240E+04 0.86727704E+02 0.0000E+00 0.0000E+00
       25  1    1    2    0    0 -.21069873E+03 -.55501526E+03 0.11006421E+04 0.12567713E+04 0.12500000E+03 0.0000E+00 0.9000E+01
        1  1    3    3  502    0 0.19947963E+03 0.44159543E+03 0.85867192E+03 0.98595954E+03 0.32000000E+00 0.0000E+00 0.9000E+01
       -2  1    3    3    0  502 0.22625216E+02 0.11320193E+03 0.14464505E+03 0.18506450E+03 0.32000000E+00 0.0000E+00 0.9000E+01
       21  1    1    2  503  501 -.11406115E+02 0.21789252E+00 0.34794845E+02 0.36625001E+02 0.75000000E+00 0.0000E+00 0.9000E+01
#aMCatNLO 2  0  0  1  2 0.39955803D+02 0.00000000D+00  -5  6  0 0.00000000D+00 0.00000000D+00 0.00000000D+00 0.00000000D+00 0.00000000D+00
  <mgrwgt>
 0.7355084114D-03    1    2    0
 0.605684731888636D+03 0.000000000000000D+00 0.000000000000000D+00 0.605684731888636D+03
 0.605684731888636D+03 0.000000000000000D+00 0.000000000000000D+00 -.605684731888636D+03
 0.609029420144815D+03 -.216424154031780D+03 -.554905884027397D+03 0.230625242618990D+02
 0.482861986540307D+03 0.194927192796042D+03 0.441686916981459D+03 0.847082768797910D+01
 0.119478057092150D+03 0.214969612357380D+02 0.113218967045938D+03 -.315333519498781D+02
 0.000000000000000D+00 -.000000000000000D+00 0.000000000000000D+00 0.000000000000000D+00
 0.615246592413904D+03 0.000000000000000D+00 0.000000000000000D+00 0.615246592413904D+03
 0.609123937939939D+03 0.000000000000000D+00 0.000000000000000D+00 -.609123937939939D+03
 0.607118414953484D+03 -.210698727015177D+03 -.555015257614134D+03 0.230625242618990D+02
 0.484639363371881D+03 0.199482032436027D+03 0.441599905279626D+03 0.847082768797910D+01
 0.119665403191373D+03 0.226228099104105D+02 0.113197459810353D+03 -.315333519498781D+02
 0.129473488371049D+02 -.114061153312609D+02 0.217892524154971D+00 0.612265447396574D+01
0.220355825031D-03 0.000000000000D+00 0.000000000000D+00 0.558398498642D-05 0.266226195808D-06  6 1 -2 25 1 -2 21 2 0.35408404D+00 0.25050813D-01 0.37093562D+06 0.37093562D+06 0.37093562D+06 0.10777974D+01  1  2  1  1  6  1        1 0.735508411358D-03 0.100000000000D+01
  </mgrwgt>
  </event>
  <event>
  7     66 0.18000663E-05 0.39693176E+02 0.75467711E-02 0.91814752E-01
        1 -1    0    0  503    0 0.00000000E+00 0.00000000E+00 0.24459113E+04 0.24459113E+04 0.32000000E+00 0.0000E+00 0.9000E+01
       -2 -1    0    0    0  501 0.00000000E+00 0.00000000E+00 -.18135816E+03 0.18135844E+03 0.32000000E+00 0.0000E+00 0.9000E+01
      -24  2    1    2    0    0 0.39176889E+03 -.48765512E+03 0.81228520E+03 0.10282636E+04 0.78920667E+02 0.0000E+00 0.0000E+00
       25  1    1    2    0    0 -.37757924E+03 0.50473850E+03 0.13611520E+04 0.15052198E+04 0.12500000E+03 0.0000E+00 0.9000E+01
        1  1    3    3  502    0 0.10313327E+03 -.15241482E+03 0.18749982E+03 0.26272235E+03 0.32000000E+00 0.0000E+00 0.9000E+01
       -2  1    3    3    0  502 0.28863562E+03 -.33524030E+03 0.62478538E+03 0.76554128E+03 0.32000000E+00 0.0000E+00 0.9000E+01
       21  1    1    2  503  501 -.14189650E+02 -.17083389E+02 0.91115962E+02 0.93786296E+02 0.75000000E+00 0.0000E+00 0.9000E+01
#aMCatNLO 2  0  0  1  2 0.39955803D+02 0.00000000D+00  -5  6  0 0.00000000D+00 0.00000000D+00 0.00000000D+00 0.00000000D+00 0.00000000D+00
  <mgrwgt>
 0.5678810307D-03    1    2    0
 0.650810287691775D+03 0.000000000000000D+00 0.000000000000000D+00 0.650810287691775D+03
 0.650810287691775D+03 0.000000000000000D+00 0.000000000000000D+00 -.650810287691775D+03
 0.654419837428739D+03 -.384726049353398D+03 0.496134228963549D+03 0.135930193187270D+03
 0.199150709562370D+03 0.100964263605790D+03 -.155019479083128D+03 -.737304801186834D+02
 0.448050028392442D+03 0.283761785747608D+03 -.341114749880421D+03 -.621997130685862D+02
 0.000000000000000D+00 -.000000000000000D+00 -.000000000000000D+00 0.000000000000000D+00
 0.676469799123244D+03 0.000000000000000D+00 0.000000000000000D+00 0.676469799123244D+03
 0.655727931959722D+03 0.000000000000000D+00 0.000000000000000D+00 -.655727931959722D+03
 0.656832597175777D+03 -.377579243361153D+03 0.504738504847378D+03 0.135930193187270D+03
 0.198245773228423D+03 0.103130219976626D+03 -.152411812639232D+03 -.737304801186834D+02
 0.446731642847867D+03 0.288638673554264D+03 -.335243303504448D+03 -.621997130685862D+02
 0.303877178308991D+02 -.141896501697367D+02 -.170833887036979D+02 0.207418671635223D+02
0.261376644924D-03 0.000000000000D+00 0.000000000000D+00 0.568872168667D-04 0.710500976256D-06  6 1 -2 25 1 -2 21 2 0.37629143D+00 0.27901083D-01 0.41681655D+06 0.41681655D+06 0.41681655D+06 0.10741407D+01  1  2  1  1  6  1        1 0.567881030654D-03 0.100000000000D+01
  </mgrwgt>
  </event>
  <event>
  7     66 0.18000663E-05 0.41181100E+02 0.75467711E-02 0.94607164E-01
        1 -1    0    0  501    0 0.00000000E+00 0.00000000E+00 0.16660984E+04 0.16660985E+04 0.32000000E+00 0.0000E+00 0.9000E+01
       -2 -1    0    0    0  503 0.00000000E+00 0.00000000E+00 -.30324530E+03 0.30324547E+03 0.32000000E+00 0.0000E+00 0.9000E+01
      -24  2    1    2    0    0 0.45704516E+03 0.95476715E+02 0.36198506E+03 0.59714426E+03 0.86844646E+02 0.0000E+00 0.0000E+00
       25  1    1    2    0    0 -.47006800E+03 -.12519709E+03 0.11313046E+04 0.12377856E+04 0.12500000E+03 0.0000E+00 0.9000E+01
        1  1    3    3  502    0 0.14061139E+03 0.27633412E+02 0.62965891E+02 0.15652468E+03 0.32000000E+00 0.0000E+00 0.9000E+01
       -2  1    3    3    0  502 0.31643377E+03 0.67843303E+02 0.29901917E+03 0.44061958E+03 0.32000000E+00 0.0000E+00 0.9000E+01
       21  1    1    2  501  503 0.13022832E+02 0.29720376E+02 -.13043650E+03 0.13441405E+03 0.75000000E+00 0.0000E+00 0.9000E+01
#aMCatNLO 2  0  0  2  1 0.58609819D-01 0.00000000D+00  -5  6  0 0.00000000D+00 0.00000000D+00 0.00000000D+00 0.00000000D+00 0.00000000D+00
  <mgrwgt>
 0.1028695747D-03    1    2    0
 0.532916706146363D+03 0.000000000000000D+00 0.000000000000000D+00 0.532916706146363D+03
 0.532916706146363D+03 0.000000000000000D+00 0.000000000000000D+00 -.532916706146363D+03
 0.536708578812060D+03 -.463456910129206D+03 -.110109437459236D+03 0.213341751202995D+03
 0.183739396534529D+03 0.142837783139745D+03 0.327193279131757D+02 -.110846646893383D+03
 0.345385436946137D+03 0.320619126989461D+03 0.773901095460607D+02 -.102495104309612D+03
 0.000000000000000D+00 0.000000000000000D+00 0.000000000000000D+00 -.000000000000000D+00
 0.533800458488345D+03 0.000000000000000D+00 0.000000000000000D+00 0.533800458488345D+03
 0.946488661965344D+03 0.000000000000000D+00 0.000000000000000D+00 -.946488661965344D+03
 0.545690329927100D+03 -.470067996714396D+03 -.125197091957046D+03 0.213341751202995D+03
 0.181166902886788D+03 0.140609004894056D+03 0.276328666046032D+02 -.110846646893383D+03
 0.339469995422607D+03 0.316436160316850D+03 0.678438488642539D+02 -.102495104309612D+03
 0.413961892217195D+03 0.130228315034906D+02 0.297203764881885D+02 -.412688203476999D+03
0.346127315137D-04 0.000000000000D+00 0.000000000000D+00 0.307452204198D-05 0.213971781975D-07  6 1 -2 25 1 -2 21 2 0.25632269D+00 0.46653109D-01 0.25081682D+06 0.25081682D+06 0.25081682D+06 0.10903525D+01  1  2  1  2  6  2       -2 0.102869574725D-03 0.100000000000D+01
  </mgrwgt>
  </event>
  <event>
  7     66 0.18000663E-05 0.44548885E+02 0.75467711E-02 0.94840753E-01
        3 -1    0    0  503    0 0.00000000E+00 0.00000000E+00 0.35816057E+04 0.35816057E+04 0.50000000E+00 0.0000E+00 0.9000E+01
       -4 -1    0    0    0  501 0.00000000E+00 0.00000000E+00 -.10573315E+03 0.10574452E+03 0.15500000E+01 0.0000E+00 0.9000E+01
      -24  2    1    2    0    0 -.29260720E+03 0.37339731E+03 0.60631204E+03 0.77347292E+03 0.74843524E+02 0.0000E+00 0.0000E+00
       25  1    1    2    0    0 0.30485540E+03 -.36005006E+03 0.27758943E+04 0.28184725E+04 0.12500000E+03 0.0000E+00 0.9000E+01
        3  1    3    3  502    0 -.18341512E+03 0.25378835E+03 0.34385969E+03 0.46506921E+03 0.50000000E+00 0.0000E+00 0.9000E+01
       -4  1    3    3    0  502 -.10919208E+03 0.11960896E+03 0.26245235E+03 0.30840372E+03 0.15500000E+01 0.0000E+00 0.9000E+01
       21  1    1    2  503  501 -.12248201E+02 -.13347244E+02 0.93666153E+02 0.95404812E+02 0.75000000E+00 0.0000E+00 0.9000E+01
#aMCatNLO 2  0  0  1  2 0.39955803D+02 0.00000000D+00  -5  6  0 0.00000000D+00 0.00000000D+00 0.00000000D+00 0.00000000D+00 0.00000000D+00
  <mgrwgt>
 0.1078977044D-04    1    2    0
 0.604653573919538D+03 0.000000000000000D+00 0.000000000000000D+00 0.604653573919538D+03
 0.604653573919538D+03 0.000000000000000D+00 0.000000000000000D+00 -.604653573919538D+03
 0.608797867200933D+03 0.298694500265174D+03 -.366763783400115D+03 0.362319977100043D+03
 0.418888934686502D+03 -.187735875922107D+03 0.249263906292482D+03 -.279447106827687D+03
 0.181620345951640D+03 -.110958624343067D+03 0.117499877107633D+03 -.828728702723559D+02
 0.000000000000000D+00 -.000000000000000D+00 -.000000000000000D+00 0.000000000000000D+00
 0.621108893184435D+03 0.000000000000000D+00 0.000000000000000D+00 0.621108893184435D+03
 0.609727784996299D+03 0.000000000000000D+00 0.000000000000000D+00 -.609727784996299D+03
 0.607843423130714D+03 0.304855396306137D+03 -.360050063991825D+03 0.362319977100043D+03
 0.419785640605075D+03 -.183488948819081D+03 0.253891914414613D+03 -.279447106827687D+03
 0.181813760533418D+03 -.109118246439088D+03 0.119505393962711D+03 -.828728702723559D+02
 0.213938539115261D+02 -.122482010479677D+02 -.133472443854984D+02 0.113811081881364D+02
0.573857096812D-03 0.000000000000D+00 0.000000000000D+00 0.413226387073D-05 0.800623414151D-07  6 3 -4 25 3 -4 21 2 0.55101122D+00 0.16267341D-01 0.24071516D+06 0.24071516D+06 0.24071516D+06 0.10916978D+01  1  2  1  1  6  1        3 0.107897704429D-04 0.100000000000D+01
  </mgrwgt>
  </event>
  <event>
  7     66 0.18000663E-05 0.68249749E+02 0.75467711E-02 0.94295833E-01
        1 -1    0    0  503    0 0.00000000E+00 0.00000000E+00 0.25496934E+04 0.25496934E+04 0.32000000E+00 0.0000E+00 0.9000E+01
       -2 -1    0    0    0  501 0.00000000E+00 0.00000000E+00 -.23678601E+03 0.23678622E+03 0.32000000E+00 0.0000E+00 0.9000E+01
      -24  2    1    2    0    0 0.42568060E+03 -.24682421E+03 0.98080219E+02 0.50804858E+03 0.79796407E+02 0.0000E+00 0.0000E+00
       25  1    1    2    0    0 -.43215981E+03 0.26006344E+03 0.21426683E+04 0.22047783E+04 0.12500000E+03 0.0000E+00 0.9000E+01
        1  1    3    3  502    0 0.18723805E+03 -.14090355E+03 0.75352413E+02 0.24615033E+03 0.32000000E+00 0.0000E+00 0.9000E+01
       -2  1    3    3    0  502 0.23844255E+03 -.10592066E+03 0.22727805E+02 0.26189825E+03 0.32000000E+00 0.0000E+00 0.9000E+01
       21  1    1    2  503  501 0.64792142E+01 -.13239230E+02 0.72158854E+02 0.73652700E+02 0.75000000E+00 0.0000E+00 0.9000E+01
#aMCatNLO 2  0  0  1  2 0.39955803D+02 0.00000000D+00  -5  6  0 0.00000000D+00 0.00000000D+00 0.00000000D+00 0.00000000D+00 0.00000000D+00
  <mgrwgt>
 0.7857108326D-02    1    2    0
 0.764568292976379D+03 0.000000000000000D+00 0.000000000000000D+00 0.764568292976379D+03
 0.764568292976379D+03 0.000000000000000D+00 0.000000000000000D+00 -.764568292976379D+03
 0.767595338933327D+03 -.428898878661413D+03 0.253400255268458D+03 0.570448654012815D+03
 0.328285561307809D+03 0.188623894340356D+03 -.143737559013336D+03 -.227006498532419D+03
 0.433255685711621D+03 0.240274984321056D+03 -.109662696255122D+03 -.343442155480396D+03
 0.000000000000000D+00 0.000000000000000D+00 -.000000000000000D+00 0.000000000000000D+00
 0.787104621617347D+03 0.000000000000000D+00 0.000000000000000D+00 0.787104621617347D+03
 0.767017696258663D+03 0.000000000000000D+00 0.000000000000000D+00 -.767017696258663D+03
 0.771642250191960D+03 -.432159809883746D+03 0.260063442524173D+03 0.570448654012815D+03
 0.326257103804414D+03 0.187237221725230D+03 -.140904117070838D+03 -.227006498532419D+03
 0.431308269553243D+03 0.238443373908638D+03 -.105920095652608D+03 -.343442155480396D+03
 0.249146943263930D+02 0.647921424987784D+01 -.132392298007263D+02 0.200869253586839D+02
0.653969438996D-02 0.000000000000D+00 0.000000000000D+00 0.114725023228D-03 0.334054944506D-05  6 1 -2 25 1 -2 21 2 0.39225766D+00 0.36428367D-01 0.26502796D+06 0.26502796D+06 0.26502796D+06 0.10885570D+01  1  2  1  1  6  1        1 0.785710832646D-02 0.100000000000D+01
  </mgrwgt>
  </event>
  <event>
  6     66 0.18000663E-05 0.13777847E+02 0.75467711E-02 0.90806996E-01
        1 -1    0    0  501    0 0.00000000E+00 0.00000000E+00 0.82123998E+03 0.82124004E+03 0.32000000E+00 0.0000E+00 0.9000E+01
       -2 -1    0    0    0  501 0.00000000E+00 0.00000000E+00 -.38693722E+03 0.38693735E+03 0.32000000E+00 0.0000E+00 0.9000E+01
      -24  2    1    2    0    0 -.41357194E+03 0.36812941E+03 0.23037498E+03 0.60504179E+03 0.80261564E+02 0.0000E+00 0.0000E+00
       25  1    1    2    0    0 0.41357194E+03 -.36812941E+03 0.20392778E+03 0.60313560E+03 0.12500000E+03 0.0000E+00 0.9000E+01
        1  1    3    3  502    0 -.41030633E+01 0.15434585E+02 0.18819607E+02 0.24684845E+02 0.32000000E+00 0.0000E+00 0.9000E+01
       -2  1    3    3    0  502 -.40946888E+03 0.35269483E+03 0.21155537E+03 0.58035694E+03 0.32000000E+00 0.0000E+00 0.9000E+01
#aMCatNLO 1  0  0  2  1 0.57407237D+01 0.00000000D+00  -5  6  0 0.00000000D+00 0.00000000D+00 0.00000000D+00 0.00000000D+00 0.00000000D+00
  <mgrwgt>
 0.1594904378D-03    4    2    0
 0.563709523948016D+03 0.000000000000000D+00 0.000000000000000D+00 0.563709523948016D+03
 0.563709523948016D+03 0.000000000000000D+00 0.000000000000000D+00 -.563709523948016D+03
 0.567782136225218D+03 0.413571939589640D+03 -.368129411533859D+03 -.138036721299138D+02
 0.191951005514974D+02 -.409661935910743D+01 0.154292234039887D+02 0.106587363302826D+02
 0.540441811119316D+03 -.409475320230532D+03 0.352700188129870D+03 0.314493579963116D+01
 0.000000000000000D+00 -.000000000000000D+00 -.000000000000000D+00 0.000000000000000D+00
 0.744082316369320D+03 0.000000000000000D+00 0.000000000000000D+00 0.744082316369320D+03
 0.686180886432459D+03 0.000000000000000D+00 0.000000000000000D+00 -.686180886432459D+03
 0.661777791227731D+03 0.553699991687673D+03 -.339927378719419D+03 -.138036721299138D+02
 0.194919707641558D+02 0.312392209828567D+00 0.163165767003822D+02 0.106587363302826D+02
 0.477039406826906D+03 -.293517034722245D+03 0.376037837687170D+03 0.314493579963116D+01
 0.271954033982986D+03 -.260495349175256D+03 -.524270356681335D+02 0.579014299368609D+02
0.231578593628D-04 0.000000000000D+00 0.000000000000D+00 0.577682494729D-04 0.000000000000D+00  6 1 -2 25 1 -2 21 0 0.12634463D+00 0.59528817D-01 0.31585006D+06 0.31585006D+06 0.31585006D+06 0.10829015D+01  1  2  2  2  6  2       -2 0.142706655142D-03 0.100000000000D+01
0.989414007916D-05 0.000000000000D+00 -.889322775577D-07 0.577682494729D-04 0.000000000000D+00  6 1 -2 25 1 -2 21 2 0.12634463D+00 0.59528817D-01 0.31585006D+06 0.31585006D+06 0.31585006D+06 0.10829015D+01  1  2  3  2  6  2       -2 0.714992935386D-04 0.100000000000D+01
-.744295909185D-05 0.000000000000D+00 0.000000000000D+00 0.577682494729D-04 0.000000000000D+00  6 1 -2 25 1 -2 21 2 0.12634463D+00 0.59528817D-01 0.31585006D+06 0.31585006D+06 0.31585006D+06 0.10829015D+01  1  2 15  2  6  2       -2 -.537860099661D-04 0.100000000000D+01
-.128625219507D-06 0.000000000000D+00 0.000000000000D+00 0.577682494729D-04 0.000000000000D+00  6 1 -2 25 1 -2 21 2 0.12634463D+00 0.59528817D-01 0.31585006D+06 0.31585006D+06 0.31585006D+06 0.10829015D+01  1  2  4  2  6  2       -2 -.929500922005D-06 0.100000000000D+01
  </mgrwgt>
  </event>
  <event>
  7     66 0.18000663E-05 0.42390639E+02 0.75467711E-02 0.91703001E-01
        1 -1    0    0  503    0 0.00000000E+00 0.00000000E+00 0.73616880E+03 0.73616887E+03 0.32000000E+00 0.0000E+00 0.9000E+01
       -2 -1    0    0    0  501 0.00000000E+00 0.00000000E+00 -.76391369E+03 0.76391376E+03 0.32000000E+00 0.0000E+00 0.9000E+01
      -24  2    1    2    0    0 0.48000638E+03 -.42905375E+03 -.30399016E+03 0.71639801E+03 0.79516302E+02 0.0000E+00 0.0000E+00
       25  1    1    2    0    0 -.43999528E+03 0.39666114E+03 0.11742123E+03 0.61672413E+03 0.12500000E+03 0.0000E+00 0.9000E+01
        1  1    3    3  502    0 0.25370509E+03 -.27504073E+03 -.15813742E+03 0.40622804E+03 0.32000000E+00 0.0000E+00 0.9000E+01
       -2  1    3    3    0  502 0.22630129E+03 -.15401302E+03 -.14585274E+03 0.31016996E+03 0.32000000E+00 0.0000E+00 0.9000E+01
       21  1    1    2  503  501 -.40011095E+02 0.32392617E+02 0.15882404E+03 0.16696050E+03 0.75000000E+00 0.0000E+00 0.9000E+01
#aMCatNLO 2  0  0  1  2 0.99551470D+02 0.00000000D+00  -5  6  0 0.00000000D+00 0.00000000D+00 0.00000000D+00 0.00000000D+00 0.00000000D+00
  <mgrwgt>
 0.5117657855D-03    1    2    0
 0.659499145174810D+03 0.000000000000000D+00 0.000000000000000D+00 0.659499145174810D+03
 0.659499145174810D+03 0.000000000000000D+00 0.000000000000000D+00 -.659499145174810D+03
 0.663025365739094D+03 -.459742707820646D+03 0.412648470022689D+03 0.205755968096027D+03
 0.373760691159904D+03 0.242157407911322D+03 -.265693428889783D+03 -.102292941568753D+03
 0.282212233450621D+03 0.217585299909324D+03 -.146955041132906D+03 -.103463026527274D+03
 0.000000000000000D+00 -.000000000000000D+00 0.000000000000000D+00 0.000000000000000D+00
 0.847534763842518D+03 0.000000000000000D+00 0.000000000000000D+00 0.847534763842518D+03
 0.663534189027517D+03 0.000000000000000D+00 0.000000000000000D+00 -.663534189027517D+03
 0.639450095360793D+03 -.439995283446784D+03 0.396661135724661D+03 0.205755968096027D+03
 0.387916002017254D+03 0.253705535569058D+03 -.275042687501194D+03 -.102292941568753D+03
 0.292636425062707D+03 0.226300842542904D+03 -.154011064796234D+03 -.103463026527274D+03
 0.191066430429280D+03 -.400110946651778D+02 0.323926165727676D+02 0.184000574815001D+03
0.292153979114D-03 0.000000000000D+00 0.000000000000D+00 0.158897586139D-03 0.377411038474D-06  6 1 -2 25 1 -2 21 2 0.11325662D+00 0.11752506D+00 0.42565475D+06 0.42565475D+06 0.42565475D+06 0.10734868D+01  1  2  1  1  6  1        1 0.511765785472D-03 0.100000000000D+01
  </mgrwgt>
  </event>
  <event>
  6     66 0.18000663E-05 0.71882391E+02 0.75467711E-02 0.94096441E-01
        1 -1    0    0  501    0 0.00000000E+00 0.00000000E+00 0.15993769E+04 0.15993769E+04 0.32000000E+00 0.0000E+00 0.9000E+01
       -2 -1    0    0    0  501 0.00000000E+00 0.00000000E+00 -.20382054E+03 0.20382079E+03 0.32000000E+00 0.0000E+00 0.9000E+01
       25  1    1    2    0    0 -.13560550E+03 -.49782052E+03 0.36832670E+03 0.64614525E+03 0.12500000E+03 0.0000E+00 0.9000E+01
        1  1    1    2  502    0 0.84720988E+02 0.30371493E+03 0.72435577E+03 0.79000746E+03 0.32000000E+00 0.0000E+00 0.9000E+01
       -2  1    1    2    0  503 0.41092046E+02 0.18044965E+03 0.29551920E+03 0.34868658E+03 0.32000000E+00 0.0000E+00 0.9000E+01
       21  1    1    2  503  502 0.97924629E+01 0.13655934E+02 0.73546446E+01 0.18358381E+02 0.75000000E+00 0.0000E+00 0.9000E+01
#aMCatNLO 2  0  0  5  4 0.20845087D+02 0.00000000D+00  -5  6  0 0.00000000D+00 0.00000000D+00 0.00000000D+00 0.00000000D+00 0.00000000D+00
  <mgrwgt>
 0.5054499080D-01    1    2    0
 0.570951925941687D+03 0.000000000000000D+00 0.000000000000000D+00 0.570951925941687D+03
 0.570951925941687D+03 -.000000000000000D+00 -.000000000000000D+00 -.570951925941687D+03
 0.573339832350985D+03 -.136437157956309D+03 -.500992995639795D+03 -.208529335127997D+03
 0.360339710714541D+03 0.842044543094221D+02 0.301742369847647D+03 0.178061391747391D+03
 0.208224308817847D+03 0.522327036468871D+02 0.199250625792149D+03 0.304679433806063D+02
 0.000000000000000D+00 0.000000000000000D+00 0.000000000000000D+00 0.000000000000000D+00
 0.570951925941687D+03 0.000000000000000D+00 0.000000000000000D+00 0.570951925941687D+03
 0.570951925941687D+03 -.000000000000000D+00 -.000000000000000D+00 -.570951925941687D+03
 0.570182904872624D+03 -.135602497273555D+03 -.497809039004368D+03 -.208042467846608D+03
 0.362300681321756D+03 0.847319117034632D+02 0.303754446736330D+03 0.178369063778423D+03
 0.189372250339126D+03 0.410465079591109D+02 0.180369963547167D+03 0.405426890186256D+02
 0.200480153498676D+02 0.982407761098117D+01 0.136846287208706D+02 -.108692849504404D+02
0.739221402561D-02 0.000000000000D+00 0.000000000000D+00 0.660707351819D-06 0.215063560746D-05  6 1 -2 25 1 -2 21 2 0.24605800D+00 0.31357027D-01 0.27460324D+06 0.27460324D+06 0.27460324D+06 0.10874055D+01  1  2  1  4  6  5       -2 0.505449908028D-01 0.100000000000D+01
  </mgrwgt>
  </event>
  <event>
  6     66 0.18000663E-05 0.51787891E+02 0.75467711E-02 0.92741038E-01
        1 -1    0    0  501    0 0.00000000E+00 0.00000000E+00 0.25380621E+04 0.25380622E+04 0.32000000E+00 0.0000E+00 0.9000E+01
       -2 -1    0    0    0  501 0.00000000E+00 0.00000000E+00 -.19555547E+03 0.19555573E+03 0.32000000E+00 0.0000E+00 0.9000E+01
       25  1    1    2    0    0 -.18066471E+02 0.57795033E+03 0.45005084E+03 0.74331941E+03 0.12500000E+03 0.0000E+00 0.9000E+01
        1  1    1    2  502    0 -.75062568E+01 -.38570512E+03 0.13858563E+04 0.14385488E+04 0.32000000E+00 0.0000E+00 0.9000E+01
       -2  1    1    2    0  503 0.93886725E+01 -.19105720E+03 0.49777096E+03 0.53326075E+03 0.32000000E+00 0.0000E+00 0.9000E+01
       21  1    1    2  503  502 0.16184055E+02 -.11880032E+01 0.88285643E+01 0.18488944E+02 0.75000000E+00 0.0000E+00 0.9000E+01
#aMCatNLO 2  0  0  5  4 0.20845087D+02 0.00000000D+00  -5  6  0 0.00000000D+00 0.00000000D+00 0.00000000D+00 0.00000000D+00 0.00000000D+00
  <mgrwgt>
 0.2932120544D-01    1    2    0
 0.704508558676110D+03 0.000000000000000D+00 0.000000000000000D+00 0.704508558676110D+03
 0.704508558676110D+03 -.000000000000000D+00 -.000000000000000D+00 -.704508558676110D+03
 0.705105997261476D+03 -.195356739360813D+02 0.588995209358572D+03 -.366404787319455D+03
 0.479342341814446D+03 -.852180707523204D+01 -.378106588789212D+03 0.294502745275007D+03
 0.224568778276298D+03 0.280574810113133D+02 -.210888620569360D+03 0.719020420444479D+02
 0.000000000000000D+00 0.000000000000000D+00 0.000000000000000D+00 -.000000000000000D+00
 0.704508558676110D+03 0.000000000000000D+00 0.000000000000000D+00 0.704508558676110D+03
 0.704508558676110D+03 -.000000000000000D+00 -.000000000000000D+00 -.704508558676110D+03
 0.693850310628871D+03 -.180608503694653D+02 0.577909983731175D+03 -.362625302409451D+03
 0.486976636069844D+03 -.750308333567424D+01 -.385763628424737D+03 0.297113397212144D+03
 0.206927830552744D+03 0.931645721668409D+01 -.190954486331754D+03 0.791752160209946D+02
 0.212623401007604D+02 0.162474764884554D+02 -.119186897468407D+01 -.136633108236869D+02
0.175224176751D-01 0.000000000000D+00 0.000000000000D+00 0.129450031839D-06 0.211918862497D-06  6 1 -2 25 1 -2 21 2 0.39047112D+00 0.30085478D-01 0.35097279D+06 0.35097279D+06 0.35097279D+06 0.10795454D+01  1  2  1  4  6  5       -2 0.293212054422D-01 0.100000000000D+01
  </mgrwgt>
  </event>
  <event>
  7     66 0.18000663E-05 0.54283956E+02 0.75467711E-02 0.93303154E-01
        1 -1    0    0  503    0 0.00000000E+00 0.00000000E+00 0.33818950E+04 0.33818950E+04 0.32000000E+00 0.0000E+00 0.9000E+01
       -2 -1    0    0    0  501 0.00000000E+00 0.00000000E+00 -.15581765E+03 0.15581798E+03 0.32000000E+00 0.0000E+00 0.9000E+01
      -24  2    1    2    0    0 -.34346136E+02 -.54295550E+03 0.59912642E+03 0.81369247E+03 0.84632408E+02 0.0000E+00 0.0000E+00
       25  1    1    2    0    0 -.11787587E+02 0.49132687E+03 0.13021617E+04 0.13974230E+04 0.12500000E+03 0.0000E+00 0.9000E+01
        1  1    3    3  502    0 -.53979717E+02 -.48591529E+03 0.51426968E+03 0.70957796E+03 0.32000000E+00 0.0000E+00 0.9000E+01
       -2  1    3    3    0  502 0.19633582E+02 -.57040211E+02 0.84856733E+02 0.10411451E+03 0.32000000E+00 0.0000E+00 0.9000E+01
       21  1    1    2  503  501 0.46133723E+02 0.51628625E+02 0.13247892E+04 0.13265975E+04 0.75000000E+00 0.0000E+00 0.9000E+01
#aMCatNLO 2  0  0  1  2 0.20857796D+01 0.00000000D+00  -5  6  0 0.00000000D+00 0.00000000D+00 0.00000000D+00 0.00000000D+00 0.00000000D+00
  <mgrwgt>
 0.2404199074D-04    1    2    0
 0.563325268586357D+03 0.000000000000000D+00 0.000000000000000D+00 0.563325268586357D+03
 0.563325268586357D+03 0.000000000000000D+00 0.000000000000000D+00 -.563325268586357D+03
 0.567080805854107D+03 0.109395181075005D+02 0.516760959501673D+03 0.196962123380686D+03
 0.500255985269005D+03 -.330352825801585D+02 -.462481152641333D+03 -.187818807242129D+03
 0.593137460496020D+02 0.220957644726580D+02 -.542798068603407D+02 -.914331613855759D+01
 0.000000000000000D+00 0.000000000000000D+00 0.000000000000000D+00 0.000000000000000D+00
 0.928264810470411D+03 0.000000000000000D+00 0.000000000000000D+00 0.928264810470411D+03
 0.567681586244400D+03 0.000000000000000D+00 0.000000000000000D+00 -.567681586244400D+03
 0.544022167814560D+03 -.117875873425744D+02 0.491326870638748D+03 0.196962123380686D+03
 0.523745597683665D+03 -.539807687397059D+02 -.485921416841688D+03 -.187818807242129D+03
 0.610082389691983D+02 0.196346330507380D+02 -.570340790850177D+02 -.914331613855759D+01
 0.367170392247388D+03 0.461337230315422D+02 0.516286252879574D+02 0.360583224226011D+03
0.404323136610D-04 0.000000000000D+00 0.000000000000D+00 0.416352630167D-05 0.598607220516D-08  6 1 -2 25 1 -2 21 2 0.52029122D+00 0.23971957D-01 0.31673411D+06 0.31673411D+06 0.31673411D+06 0.10828121D+01  1  2  1  1  6  1        1 0.240419907383D-04 0.100000000000D+01
  </mgrwgt>
  </event>
  <event>
  7     66 0.18000663E-05 0.50193089E+02 0.75467711E-02 0.94342304E-01
        1 -1    0    0  501    0 0.00000000E+00 0.00000000E+00 0.34584774E+03 0.34584789E+03 0.32000000E+00 0.0000E+00 0.9000E+01
       -2 -1    0    0    0  503 0.00000000E+00 0.00000000E+00 -.79065323E+03 0.79065330E+03 0.32000000E+00 0.0000E+00 0.9000E+01
      -24  2    1    2    0    0 0.49801052E+03 0.21227121E+02 -.14304883E+03 0.52464870E+03 0.79550128E+02 0.0000E+00 0.0000E+00
       25  1    1    2    0    0 -.49128060E+03 -.32455774E+02 -.26523557E+03 0.57304878E+03 0.12500000E+03 0.0000E+00 0.9000E+01
        1  1    3    3  502    0 0.16663256E+03 -.29049636E+02 -.37515421E+02 0.17325646E+03 0.32000000E+00 0.0000E+00 0.9000E+01
       -2  1    3    3    0  502 0.33137796E+03 0.50276757E+02 -.10553341E+03 0.35139224E+03 0.32000000E+00 0.0000E+00 0.9000E+01
       21  1    1    2  501  503 -.67299217E+01 0.11228653E+02 -.36521093E+02 0.38803702E+02 0.75000000E+00 0.0000E+00 0.9000E+01
#aMCatNLO 2  0  0  2  1 0.57407237D+01 0.00000000D+00  -5  6  0 0.00000000D+00 0.00000000D+00 0.00000000D+00 0.00000000D+00 0.00000000D+00
  <mgrwgt>
 0.8850000441D-03    1    2    0
 0.509429153046614D+03 0.000000000000000D+00 0.000000000000000D+00 0.509429153046614D+03
 0.509429153046614D+03 0.000000000000000D+00 0.000000000000000D+00 -.509429153046614D+03
 0.513991503442580D+03 -.494665880520718D+03 -.268075426632777D+02 -.561185166962092D+02
 0.170206095396634D+03 0.165501022237542D+03 -.271674358969728D+02 0.290078778141457D+02
 0.334660707254013D+03 0.329164858283176D+03 0.539749785602505D+02 0.271106388820634D+02
 0.000000000000000D+00 -.000000000000000D+00 0.000000000000000D+00 -.000000000000000D+00
 0.511152870648868D+03 0.000000000000000D+00 0.000000000000000D+00 0.511152870648868D+03
 0.534948054245281D+03 0.000000000000000D+00 0.000000000000000D+00 -.534948054245281D+03
 0.511061925828058D+03 -.491280598899625D+03 -.324557739042792D+02 -.561185166962092D+02
 0.171612744959264D+03 0.166629893187053D+03 -.290509200137323D+02 0.290078778141457D+02
 0.336267733079150D+03 0.331380627386787D+03 0.502780405578455D+02 0.271106388820634D+02
 0.271585210276781D+02 -.672992167421458D+01 0.112286533601659D+02 -.237951835964130D+02
0.179918064806D-03 0.000000000000D+00 0.000000000000D+00 0.161818181655D-03 0.597743296176D-05  6 1 -2 25 1 -2 21 2 0.53206824D-01 0.12163775D+00 0.26285048D+06 0.26285048D+06 0.26285048D+06 0.10888252D+01  1  2  1  2  6  2       -2 0.885000044095D-03 0.100000000000D+01
  </mgrwgt>
  </event>
  <event>
  7     66 0.18000663E-05 0.25686214E+03 0.75467711E-02 0.90398347E-01
        1 -1    0    0  503    0 0.00000000E+00 0.00000000E+00 0.11946234E+04 0.11946234E+04 0.32000000E+00 0.0000E+00 0.9000E+01
       -2 -1    0    0    0  501 0.00000000E+00 0.00000000E+00 -.16997404E+04 0.16997405E+04 0.32000000E+00 0.0000E+00 0.9000E+01
      -24  2    1    2    0    0 0.11177170E+03 0.25587041E+03 -.29831139E+03 0.41727372E+03 0.84646876E+02 0.0000E+00 0.0000E+00
       25  1    1    2    0    0 -.32052440E+03 -.65429548E+03 -.11871425E+04 0.13984887E+04 0.12500000E+03 0.0000E+00 0.9000E+01
        1  1    3    3  502    0 0.11717199E+03 0.19422978E+03 -.20777317E+03 0.30761059E+03 0.32000000E+00 0.0000E+00 0.9000E+01
       -2  1    3    3    0  502 -.54002963E+01 0.61640629E+02 -.90538212E+02 0.10966312E+03 0.32000000E+00 0.0000E+00 0.9000E+01
       21  1    1    2  503  501 0.20875270E+03 0.39842507E+03 0.98033678E+03 0.10786014E+04 0.75000000E+00 0.0000E+00 0.9000E+01
#aMCatNLO 2  0  0  1  2 0.20857796D+01 0.00000000D+00  -5  6  0 0.00000000D+00 0.00000000D+00 0.00000000D+00 0.00000000D+00 0.00000000D+00
  <mgrwgt>
 0.3882952863D-03    1    2    0
 0.471195250671083D+03 0.000000000000000D+00 0.000000000000000D+00 0.471195250671083D+03
 0.471195250671083D+03 0.000000000000000D+00 0.000000000000000D+00 -.471195250671083D+03
 0.475683786779320D+03 -.192464690108998D+03 -.409880930804562D+03 -.748667524923210D+02
 0.373263582271616D+03 0.181544283369997D+03 0.317089190633274D+03 0.763008532681566D+02
 0.934431322912301D+02 0.109204067390011D+02 0.927917401712882D+02 -.143410077583560D+01
 0.000000000000000D+00 0.000000000000000D+00 0.000000000000000D+00 0.000000000000000D+00
 0.377666133493722D+04 0.000000000000000D+00 0.000000000000000D+00 0.377666133493722D+04
 0.537657266026228D+03 0.000000000000000D+00 0.000000000000000D+00 -.537657266026228D+03
 0.743013120284043D+03 -.320524396862706D+03 -.654295481645168D+03 -.748667524923210D+02
 0.239327078413126D+03 0.117173741430754D+03 0.194231677569424D+03 0.763008532681566D+02
 0.618916166357373D+02 -.540204577643310D+01 0.616387334894152D+02 -.143410077583560D+01
 0.327008678563054D+04 0.208752701208385D+03 0.398425070586328D+03 0.323900406891099D+04
0.602144600109D-02 0.000000000000D+00 0.000000000000D+00 0.118207831717D-04 0.124798776384D-08  6 1 -2 25 1 -2 21 2 0.18378820D+00 0.26149851D+00 0.54593273D+06 0.54593273D+06 0.54593273D+06 0.10658232D+01  1  2  1  1  6  1        1 0.388295286257D-03 0.100000000000D+01
  </mgrwgt>
  </event>
  <event>
  7     66 0.18000663E-05 0.33576662E+02 0.75467711E-02 0.94022742E-01
        1 -1    0    0  501    0 0.00000000E+00 0.00000000E+00 0.32342990E+03 0.32343005E+03 0.32000000E+00 0.0000E+00 0.9000E+01
       21 -1    0    0  503  501 0.00000000E+00 0.00000000E+00 -.12535196E+04 0.12535198E+04 0.75000000E+00 0.0000E+00 0.9000E+01
      -24  2    1    2    0    0 0.62515644E+01 -.46124208E+03 0.13033156E+01 0.46875512E+03 0.83344605E+02 0.0000E+00 0.0000E+00
       25  1    1    2    0    0 -.46414507E+02 0.50834436E+03 -.74439464E+03 0.91121714E+03 0.12500000E+03 0.0000E+00 0.9000E+01
        1  1    3    3  502    0 -.33334578E+02 -.14306316E+03 0.16140488E+02 0.14777983E+03 0.32000000E+00 0.0000E+00 0.9000E+01
        2  1    1    2  503    0 0.40162943E+02 -.47102280E+02 -.18699838E+03 0.19697762E+03 0.32000000E+00 0.0000E+00 0.9000E+01
       -2  1    3    3    0  502 0.39586143E+02 -.31817892E+03 -.14837173E+02 0.32097529E+03 0.32000000E+00 0.0000E+00 0.9000E+01
#aMCatNLO 2  0  0  2  2 0.22966622D+02 0.00000000D+00  -5  6  0 0.00000000D+00 0.00000000D+00 0.00000000D+00 0.00000000D+00 0.00000000D+00
  <mgrwgt>
 0.1167834889D-03    1    2    0
 0.580583117787735D+03 0.000000000000000D+00 0.000000000000000D+00 0.580583117787735D+03
 0.580583117787735D+03 0.000000000000000D+00 0.000000000000000D+00 -.580583117787735D+03
 0.584320169750149D+03 -.258488660848056D+02 0.484225396317077D+03 -.301102411914190D+03
 0.190603512047420D+03 -.268325702453509D+02 -.150687258453705D+03 0.113591646341383D+03
 0.000000000000000D+00 0.000000000000000D+00 -.000000000000000D+00 -.000000000000000D+00
 0.386242553777901D+03 0.526814363301565D+02 -.333538137863372D+03 0.187510765572808D+03
 0.590517308261412D+03 0.000000000000000D+00 0.000000000000000D+00 0.590517308261412D+03
 0.686560252011100D+03 0.000000000000000D+00 0.000000000000000D+00 -.686560252011100D+03
 0.605686352561643D+03 -.464145071473074D+02 0.508344360394759D+03 -.301102411914190D+03
 0.185689677309834D+03 -.333356528095973D+02 -.143060575955232D+03 0.113591646341383D+03
 0.114262564950602D+03 0.401629427524299D+02 -.471022795037541D+02 -.960429437496883D+02
 0.371438965450433D+03 0.395872172044748D+02 -.318181504935773D+03 0.187510765572808D+03
0.987508089007D-05 0.000000000000D+00 0.000000000000D+00 0.220866306489D-04 0.898798577566D-09  6 1 21 25 1 2 -2 2 0.49758456D-01 0.19284913D+00 0.27824012D+06 0.27824012D+06 0.27824012D+06 0.10869796D+01  1  2  1  6  5  2       -2 0.116783488909D-03 0.100000000000D+01
  </mgrwgt>
  </event>
  <event>
  7     66 0.18000663E-05 0.26029185E+03 0.75467711E-02 0.91212583E-01
        1 -1    0    0  503    0 0.00000000E+00 0.00000000E+00 0.15209187E+04 0.15209187E+04 0.32000000E+00 0.0000E+00 0.9000E+01
       -2 -1    0    0    0  501 0.00000000E+00 0.00000000E+00 -.30928386E+03 0.30928403E+03 0.32000000E+00 0.0000E+00 0.9000E+01
      -24  2    1    2    0    0 0.49986183E+03 -.22879890E+03 0.46445179E+03 0.72406063E+03 0.79608762E+02 0.0000E+00 0.0000E+00
       25  1    1    2    0    0 -.49451760E+03 -.67955941E+02 0.52720638E+03 0.73670702E+03 0.12500000E+03 0.0000E+00 0.9000E+01
        1  1    3    3  502    0 0.25640705E+03 -.16055388E+03 0.24596515E+03 0.38989881E+03 0.32000000E+00 0.0000E+00 0.9000E+01
       -2  1    3    3    0  502 0.24345478E+03 -.68245019E+02 0.21848664E+03 0.33416183E+03 0.32000000E+00 0.0000E+00 0.9000E+01
       21  1    1    2  503  501 -.53442286E+01 0.29675484E+03 0.21997665E+03 0.36943510E+03 0.75000000E+00 0.0000E+00 0.9000E+01
#aMCatNLO 2  0  0  1  2 0.20857796D+01 0.00000000D+00  -5  6  0 0.00000000D+00 0.00000000D+00 0.00000000D+00 0.00000000D+00 0.00000000D+00
  <mgrwgt>
 0.1854336994D-03    1    2    0
 0.515355269727865D+03 0.000000000000000D+00 0.000000000000000D+00 0.515355269727865D+03
 0.515355269727865D+03 0.000000000000000D+00 0.000000000000000D+00 -.515355269727865D+03
 0.519860630226485D+03 -.497149330778498D+03 0.781791804621419D+02 0.368867660311626D+02
 0.268381079951891D+03 0.254953924409237D+03 -.798546697524455D+02 -.254976905464115D+02
 0.242468829277354D+03 0.242195406369261D+03 0.167548929030369D+01 -.113890754847512D+02
 0.000000000000000D+00 -.000000000000000D+00 0.000000000000000D+00 -.000000000000000D+00
 0.665188746129971D+03 0.000000000000000D+00 0.000000000000000D+00 0.665188746129971D+03
 0.707160404921518D+03 0.000000000000000D+00 0.000000000000000D+00 -.707160404921518D+03
 0.515898534583934D+03 -.494517597869814D+03 -.679559406871932D+02 0.368867660311626D+02
 0.303599804940027D+03 0.256407255423869D+03 -.160555375812897D+03 -.254976905464115D+02
 0.253094879971061D+03 0.243454571015144D+03 -.682435277444008D+02 -.113890754847512D+02
 0.299755931556468D+03 -.534422856919823D+01 0.296754844244491D+03 -.419716587915471D+02
0.554153767511D-04 0.000000000000D+00 0.000000000000D+00 0.168117079786D-03 0.127468639814D-07  6 1 -2 25 1 -2 21 2 0.23398734D+00 0.47582115D-01 0.46699921D+06 0.46699921D+06 0.46699921D+06 0.10706125D+01  1  2  1  1  6  1        1 0.185433699361D-03 0.100000000000D+01
  </mgrwgt>
  </event>
  <event>
  7     66 0.18000663E-05 0.27269596E+02 0.75467711E-02 0.95116806E-01
        1 -1    0    0  501    0 0.00000000E+00 0.00000000E+00 0.84440624E+03 0.84440630E+03 0.32000000E+00 0.0000E+00 0.9000E+01
       -2 -1    0    0    0  503 0.00000000E+00 0.00000000E+00 -.45569425E+03 0.45569437E+03 0.32000000E+00 0.0000E+00 0.9000E+01
      -24  2    1    2    0    0 -.36617376E+03 -.20176410E+03 0.34167374E+03 0.54603305E+03 0.81358347E+02 0.0000E+00 0.0000E+00
       25  1    1    2    0    0 0.39920809E+03 0.24266737E+03 0.24999829E+03 0.54440674E+03 0.12500000E+03 0.0000E+00 0.9000E+01
        1  1    3    3  502    0 -.89077166E+02 -.77046830E+02 0.62224246E+02 0.13320253E+03 0.32000000E+00 0.0000E+00 0.9000E+01
       -2  1    3    3    0  502 -.27709659E+03 -.12471727E+03 0.27944949E+03 0.41283052E+03 0.32000000E+00 0.0000E+00 0.9000E+01
       21  1    1    2  501  503 -.33034331E+02 -.40903273E+02 -.20296004E+03 0.20966088E+03 0.75000000E+00 0.0000E+00 0.9000E+01
#aMCatNLO 2  0  0  2  1 0.14345288D+03 0.00000000D+00  -5  6  0 0.00000000D+00 0.00000000D+00 0.00000000D+00 0.00000000D+00 0.00000000D+00
  <mgrwgt>
 0.1486822625D-02    1    2    0
 0.457225000069835D+03 0.000000000000000D+00 0.000000000000000D+00 0.457225000069835D+03
 0.457225000069835D+03 0.000000000000000D+00 0.000000000000000D+00 -.457225000069835D+03
 0.462149172808837D+03 0.382085152503859D+03 0.221465663679749D+03 -.540440003597387D+02
 0.125238353678040D+03 -.934709374899961D+02 -.824900845138147D+02 -.119672483734062D+02
 0.327062473652793D+03 -.288614215013863D+03 -.138975579165934D+03 0.660112487331449D+02
 0.000000000000000D+00 -.000000000000000D+00 -.000000000000000D+00 -.000000000000000D+00
 0.459804152627559D+03 0.000000000000000D+00 0.000000000000000D+00 0.459804152627559D+03
 0.836857533988805D+03 0.000000000000000D+00 0.000000000000000D+00 -.836857533988805D+03
 0.486621315022955D+03 0.399208088854904D+03 0.242667369154984D+03 -.540440003597387D+02
 0.118378792948425D+03 -.890742567866985D+02 -.770460924654370D+02 -.119672483734062D+02
 0.310960124530298D+03 -.277099501519576D+03 -.124718003296204D+03 0.660112487331449D+02
 0.380701454114686D+03 -.330343305486299D+02 -.409032733933433D+02 -.377053381361246D+03
0.294995560480D-03 0.000000000000D+00 0.000000000000D+00 0.897832815282D-04 0.245420645297D-06  6 1 -2 25 1 -2 21 2 0.12990856D+00 0.70106765D-01 0.22936110D+06 0.22936110D+06 0.22936110D+06 0.10932854D+01  1  2  1  2  6  2       -2 0.148682262459D-02 0.100000000000D+01
  </mgrwgt>
  </event>
  <event>
  7     66 0.18000663E-05 0.21710818E+02 0.75467711E-02 0.93318066E-01
        1 -1    0    0  501    0 0.00000000E+00 0.00000000E+00 0.18343241E+04 0.18343241E+04 0.32000000E+00 0.0000E+00 0.9000E+01
       -2 -1    0    0    0  503 0.00000000E+00 0.00000000E+00 -.22110874E+03 0.22110897E+03 0.32000000E+00 0.0000E+00 0.9000E+01
      -24  2    1    2    0    0 0.54900975E+03 0.16432493E+02 0.42623271E+03 0.69983090E+03 0.80045161E+02 0.0000E+00 0.0000E+00
       25  1    1    2    0    0 -.53722699E+03 -.29086709E+02 0.12080527E+04 0.13283355E+04 0.12500000E+03 0.0000E+00 0.9000E+01
        1  1    3    3  502    0 0.48389860E+03 0.39114477E+02 0.38388763E+03 0.61891648E+03 0.32000000E+00 0.0000E+00 0.9000E+01
       -2  1    3    3    0  502 0.65111153E+02 -.22681984E+02 0.42345086E+02 0.80914420E+02 0.32000000E+00 0.0000E+00 0.9000E+01
       21  1    1    2  501  503 -.11782766E+02 0.12654216E+02 -.21070057E+02 0.27266694E+02 0.75000000E+00 0.0000E+00 0.9000E+01
#aMCatNLO 2  0  0  2  1 0.14345288D+03 0.00000000D+00  -5  6  0 0.00000000D+00 0.00000000D+00 0.00000000D+00 0.00000000D+00 0.00000000D+00
  <mgrwgt>
 0.4523707298D-03    1    2    0
 0.600472971418926D+03 0.000000000000000D+00 0.000000000000000D+00 0.600472971418926D+03
 0.600472971418926D+03 0.000000000000000D+00 0.000000000000000D+00 -.600472971418926D+03
 0.604310684630949D+03 -.543131057943670D+03 -.227459741439003D+02 0.232503071197696D+03
 0.518495782969293D+03 0.478797469377234D+03 0.446010611099264D+02 -.193911334436039D+03
 0.781394752376100D+02 0.643335885664362D+02 -.218550869660261D+02 -.385917367616568D+02
 0.000000000000000D+00 -.000000000000000D+00 0.000000000000000D+00 -.000000000000000D+00
 0.601549391386391D+03 0.000000000000000D+00 0.000000000000000D+00 0.601549391386391D+03
 0.674230283064371D+03 0.000000000000000D+00 0.000000000000000D+00 -.674230283064371D+03
 0.599284197545675D+03 -.537226986148292D+03 -.290867094327479D+02 0.232503071197696D+03
 0.522777158683342D+03 0.483905292862644D+03 0.391154644326466D+02 -.193911334436039D+03
 0.790090498599612D+02 0.651044593872192D+02 -.226829711764296D+02 -.385917367616568D+02
 0.747092683617836D+02 -.117827661015704D+02 0.126542161765310D+02 -.726808916779803D+02
0.111424706451D-03 0.000000000000D+00 0.000000000000D+00 0.108485253993D-03 0.228558891273D-05  6 1 -2 25 1 -2 21 2 0.28220284D+00 0.34016643D-01 0.31587824D+06 0.31587824D+06 0.31587824D+06 0.10828986D+01  1  2  1  2  6  2       -2 0.452370729797D-03 0.100000000000D+01
  </mgrwgt>
  </event>
  <event>
  7     66 0.18000663E-05 0.27246506E+03 0.75467711E-02 0.87843277E-01
        1 -1    0    0  501    0 0.00000000E+00 0.00000000E+00 0.43451090E+04 0.43451090E+04 0.32000000E+00 0.0000E+00 0.9000E+01
       -2 -1    0    0    0  503 0.00000000E+00 0.00000000E+00 -.29311770E+03 0.29311787E+03 0.32000000E+00 0.0000E+00 0.9000E+01
      -24  2    1    2    0    0 0.26274411E+03 -.60565646E+03 0.23864237E+04 0.24775478E+04 0.85854198E+02 0.0000E+00 0.0000E+00
       25  1    1    2    0    0 -.54428755E+03 0.74444668E+03 0.15826964E+04 0.18360291E+04 0.12500000E+03 0.0000E+00 0.9000E+01
        1  1    3    3  502    0 0.10658588E+03 -.30121980E+03 0.10160596E+04 0.10651155E+04 0.32000000E+00 0.0000E+00 0.9000E+01
       -2  1    3    3    0  502 0.15615823E+03 -.30443666E+03 0.13703641E+04 0.14124323E+04 0.32000000E+00 0.0000E+00 0.9000E+01
       21  1    1    2  501  503 0.28154344E+03 -.13879022E+03 0.82871205E+02 0.32465001E+03 0.75000000E+00 0.0000E+00 0.9000E+01
#aMCatNLO 2  0  0  2  1 0.14345288D+03 0.00000000D+00  -5  6  0 0.00000000D+00 0.00000000D+00 0.00000000D+00 0.00000000D+00 0.00000000D+00
  <mgrwgt>
 0.3200319003D-04    1    2    0
 0.829834575580358D+03 0.000000000000000D+00 0.000000000000000D+00 0.829834575580358D+03
 0.829834575580358D+03 0.000000000000000D+00 0.000000000000000D+00 -.829834575580358D+03
 0.832321232943499D+03 -.392783175346138D+03 0.669760781791390D+03 -.272535331925564D+03
 0.381647547330160D+03 0.166624919876085D+03 -.330817064337370D+03 0.919296274474091D+02
 0.445700370887056D+03 0.226158255470053D+03 -.338943717454020D+03 0.180605704478155D+03
 0.000000000000000D+00 0.000000000000000D+00 -.000000000000000D+00 -.000000000000000D+00
 0.886098624101634D+03 0.000000000000000D+00 0.000000000000000D+00 0.886098624101634D+03
 0.143734358458014D+04 0.000000000000000D+00 0.000000000000000D+00 -.143734358458014D+04
 0.969716608353278D+03 -.544287547093446D+03 0.744446680056677D+03 -.272535331925564D+03
 0.332482784139816D+03 0.106585188891747D+03 -.301219758408466D+03 0.919296274474091D+02
 0.386892411171527D+03 0.156158922783257D+03 -.304436706340152D+03 0.180605704478155D+03
 0.634350405017148D+03 0.281543435418442D+03 -.138790215308058D+03 -.551244960478501D+03
0.148829724203D-02 0.000000000000D+00 0.000000000000D+00 0.680619721213D-05 0.488954383677D-09  6 1 -2 25 1 -2 21 2 0.66847816D+00 0.45095034D-01 0.90839723D+06 0.90839723D+06 0.90839723D+06 0.10506527D+01  1  2  1  2  6  2       -2 0.320031900263D-04 0.100000000000D+01
  </mgrwgt>
  </event>
  <event>
  7     66 0.18000663E-05 0.43344573E+02 0.75467711E-02 0.91037278E-01
        1 -1    0    0  501    0 0.00000000E+00 0.00000000E+00 0.86573645E+03 0.86573651E+03 0.32000000E+00 0.0000E+00 0.9000E+01
       -2 -1    0    0    0  503 0.00000000E+00 0.00000000E+00 -.56371314E+03 0.56371323E+03 0.32000000E+00 0.0000E+00 0.9000E+01
      -24  2    1    2    0    0 0.65991691E+03 -.18681622E+03 0.10498949E+03 0.69870967E+03 0.82351497E+02 0.0000E+00 0.0000E+00
       25  1    1    2    0    0 -.58540871E+03 0.15817194E+03 0.20059049E+03 0.65083275E+03 0.12500000E+03 0.0000E+00 0.9000E+01
        1  1    3    3  502    0 0.27770130E+03 -.12107817E+03 0.46091240E+02 0.30643505E+03 0.32000000E+00 0.0000E+00 0.9000E+01
       -2  1    3    3    0  502 0.38221561E+03 -.65738053E+02 0.58898250E+02 0.39227461E+03 0.32000000E+00 0.0000E+00 0.9000E+01
       21  1    1    2  501  503 -.74508201E+02 0.28644285E+02 -.35566743E+01 0.79907318E+02 0.75000000E+00 0.0000E+00 0.9000E+01
#aMCatNLO 2  0  0  2  1 0.14345288D+03 0.00000000D+00  -5  6  0 0.00000000D+00 0.00000000D+00 0.00000000D+00 0.00000000D+00 0.00000000D+00
  <mgrwgt>
 0.2266963921D-03    1    2    0
 0.656032323455484D+03 0.000000000000000D+00 0.000000000000000D+00 0.656032323455484D+03
 0.656032323455484D+03 0.000000000000000D+00 0.000000000000000D+00 -.656032323455484D+03
 0.659402291184422D+03 -.621746010240233D+03 0.172141622839534D+03 0.546401139803750D+02
 0.286039045820758D+03 0.260965038906377D+03 -.114645447114374D+03 -.239166397846425D+02
 0.366623309905788D+03 0.360780971333856D+03 -.574961757251602D+02 -.307234741957325D+02
 0.000000000000000D+00 -.000000000000000D+00 0.000000000000000D+00 -.000000000000000D+00
 0.687562301478533D+03 0.000000000000000D+00 0.000000000000000D+00 0.687562301478533D+03
 0.709789838081152D+03 0.000000000000000D+00 0.000000000000000D+00 -.709789838081152D+03
 0.621556324689056D+03 -.585408711915215D+03 0.158171940365373D+03 0.546401139803750D+02
 0.303890221957770D+03 0.277699721454501D+03 -.121079007458134D+03 -.239166397846425D+02
 0.389044078951597D+03 0.382217191835542D+03 -.657372175102753D+02 -.307234741957325D+02
 0.828615139612624D+02 -.745082013748283D+02 0.286442846030363D+02 -.222275366026194D+02
0.812411524180D-04 0.000000000000D+00 0.000000000000D+00 0.606893147656D-04 0.581862427971D-07  6 1 -2 25 1 -2 21 2 0.13318991D+00 0.86724898D-01 0.48285214D+06 0.48285214D+06 0.48285214D+06 0.10695832D+01  1  2  1  2  6  2       -2 0.226696392119D-03 0.100000000000D+01
  </mgrwgt>
  </event>
  <event>
  7     66 0.18000663E-05 0.47191172E+02 0.75467711E-02 0.94928781E-01
        1 -1    0    0  503    0 0.00000000E+00 0.00000000E+00 0.42535994E+03 0.42536006E+03 0.32000000E+00 0.0000E+00 0.9000E+01
       -2 -1    0    0    0  501 0.00000000E+00 0.00000000E+00 -.62319153E+03 0.62319162E+03 0.32000000E+00 0.0000E+00 0.9000E+01
      -24  2    1    2    0    0 -.19453350E+03 0.40998979E+03 -.22428798E+03 0.51245513E+03 0.79813822E+02 0.0000E+00 0.0000E+00
       25  1    1    2    0    0 0.18886795E+03 -.43414276E+03 -.12588022E+02 0.48983109E+03 0.12500000E+03 0.0000E+00 0.9000E+01
        1  1    3    3  502    0 -.95407770E+02 0.27966925E+03 -.12408523E+03 0.32049146E+03 0.32000000E+00 0.0000E+00 0.9000E+01
       -2  1    3    3    0  502 -.99125727E+02 0.13032054E+03 -.10020275E+03 0.19196366E+03 0.32000000E+00 0.0000E+00 0.9000E+01
       21  1    1    2  503  501 0.56655497E+01 0.24152971E+02 0.39044403E+02 0.46265455E+02 0.75000000E+00 0.0000E+00 0.9000E+01
#aMCatNLO 2  0  0  1  2 0.12140979D+03 0.00000000D+00  -5  6  0 0.00000000D+00 0.00000000D+00 0.00000000D+00 0.00000000D+00 0.00000000D+00
  <mgrwgt>
 0.2297277521D-02    1    2    0
 0.486788444515370D+03 0.000000000000000D+00 0.000000000000000D+00 0.486788444515370D+03
 0.486788444515370D+03 0.000000000000000D+00 0.000000000000000D+00 -.486788444515370D+03
 0.491541409530860D+03 0.191755580089067D+03 -.421832414185990D+03 0.106184599308514D+03
 0.306136794716603D+03 -.936453458129228D+02 0.287184839356009D+03 -.497509229160306D+02
 0.175898684783278D+03 -.981102342761447D+02 0.134647574829981D+03 -.564336763924834D+02
 0.000000000000000D+00 0.000000000000000D+00 0.000000000000000D+00 0.000000000000000D+00
 0.541217047609864D+03 0.000000000000000D+00 0.000000000000000D+00 0.541217047609864D+03
 0.489781626737933D+03 0.000000000000000D+00 0.000000000000000D+00 -.489781626737933D+03
 0.501050107271685D+03 0.188867947846026D+03 -.434142763550295D+03 0.106184599308514D+03
 0.299656499827076D+03 -.954077105121271D+02 0.279671650927390D+03 -.497509229160306D+02
 0.173186314786793D+03 -.991257870823662D+02 0.130318141997037D+03 -.564336763924834D+02
 0.571057524622432D+02 0.566554974846696D+01 0.241529706258679D+02 0.514354208719303D+02
0.339690223148D-03 0.000000000000D+00 0.000000000000D+00 0.219314776793D-03 0.228259318908D-05  6 1 -2 25 1 -2 21 2 0.65439679D-01 0.95875157D-01 0.23702744D+06 0.23702744D+06 0.23702744D+06 0.10922043D+01  1  2  1  1  6  1        1 0.229727752080D-02 0.100000000000D+01
  </mgrwgt>
  </event>
  <event>
  7     66 0.18000663E-05 0.89234203E+02 0.75467711E-02 0.94028318E-01
        3 -1    0    0  501    0 0.00000000E+00 0.00000000E+00 0.76104506E+03 0.76104522E+03 0.50000000E+00 0.0000E+00 0.9000E+01
       -4 -1    0    0    0  503 0.00000000E+00 0.00000000E+00 -.41281589E+03 0.41281880E+03 0.15500000E+01 0.0000E+00 0.9000E+01
      -24  2    1    2    0    0 -.20740617E+03 0.40179204E+03 -.11426583E+02 0.45938012E+03 0.80283024E+02 0.0000E+00 0.0000E+00
       25  1    1    2    0    0 0.12033673E+03 -.46252172E+03 0.22448731E+03 0.54261112E+03 0.12500000E+03 0.0000E+00 0.9000E+01
        3  1    3    3  502    0 -.44755180E+02 0.52520212E+02 -.26188798E+02 0.73807194E+02 0.50000000E+00 0.0000E+00 0.9000E+01
       -4  1    3    3    0  502 -.16265099E+03 0.34927183E+03 0.14762215E+02 0.38557293E+03 0.15500000E+01 0.0000E+00 0.9000E+01
       21  1    1    2  501  503 0.87069439E+02 0.60729679E+02 0.13516844E+03 0.17187278E+03 0.75000000E+00 0.0000E+00 0.9000E+01
#aMCatNLO 2  0  0  2  2 0.17391301D+03 0.00000000D+00  -5  6  0 0.00000000D+00 0.00000000D+00 0.00000000D+00 0.00000000D+00 0.00000000D+00
  <mgrwgt>
 0.2926542933D-05    1    2    0
 0.486652439845668D+03 0.000000000000000D+00 0.000000000000000D+00 0.486652439845668D+03
 0.486652439845668D+03 0.000000000000000D+00 0.000000000000000D+00 -.486652439845668D+03
 0.491368144229462D+03 0.164836343788910D+03 -.431483883033506D+03 0.111661504611650D+03
 0.810033349494152D+02 -.375296777483659D+02 0.575731606004950D+02 -.428765056820231D+02
 0.400933400512458D+03 -.127306666040544D+03 0.373910722433011D+03 -.687849989296268D+02
 0.000000000000000D+00 0.000000000000000D+00 0.000000000000000D+00 0.000000000000000D+00
 0.613242729232671D+03 0.000000000000000D+00 0.000000000000000D+00 0.613242729232671D+03
 0.512312885135237D+03 0.000000000000000D+00 0.000000000000000D+00 -.512312885135237D+03
 0.506458847595690D+03 0.120336729091514D+03 -.462521723087005D+03 0.111661504611650D+03
 0.812487267756165D+02 -.447655556007132D+02 0.525262400607323D+02 -.428765056820231D+02
 0.391369322541639D+03 -.162640612895514D+03 0.349265803630880D+03 -.687849989296268D+02
 0.146478717454962D+03 0.870694394047131D+02 0.607296793953924D+02 0.100929844097435D+03
0.583990523531D-05 0.000000000000D+00 0.000000000000D+00 0.872707764429D-04 0.503255175389D-07  6 3 -4 25 3 -4 21 2 0.11708388D+00 0.63510257D-01 0.27796309D+06 0.27796309D+06 0.27796309D+06 0.10870118D+01  1  2  1  2  6  2       -4 0.292654293285D-05 0.100000000000D+01
  </mgrwgt>
  </event>
  <event>
  7     66 0.18000663E-05 0.59620094E+02 0.75467711E-02 0.94917064E-01
        1 -1    0    0  503    0 0.00000000E+00 0.00000000E+00 0.82243509E+03 0.82243515E+03 0.32000000E+00 0.0000E+00 0.9000E+01
       -2 -1    0    0    0  501 0.00000000E+00 0.00000000E+00 -.48971592E+03 0.48971602E+03 0.32000000E+00 0.0000E+00 0.9000E+01
      -24  2    1    2    0    0 -.46631413E+03 -.39234680E+02 0.31825011E+03 0.57160622E+03 0.80388513E+02 0.0000E+00 0.0000E+00
       25  1    1    2    0    0 0.47708410E+03 0.43519318E+02 -.19399766E+03 0.53175489E+03 0.12500000E+03 0.0000E+00 0.9000E+01
        1  1    3    3  502    0 -.27914957E+03 -.26934136E+02 0.23707590E+03 0.36722611E+03 0.32000000E+00 0.0000E+00 0.9000E+01
       -2  1    3    3    0  502 -.18716455E+03 -.12300544E+02 0.81174202E+02 0.20438010E+03 0.32000000E+00 0.0000E+00 0.9000E+01
       21  1    1    2  503  501 -.10769977E+02 -.42846377E+01 0.20846673E+03 0.20879006E+03 0.75000000E+00 0.0000E+00 0.9000E+01
#aMCatNLO 2  0  0  1  2 0.12140979D+03 0.00000000D+00  -5  6  0 0.00000000D+00 0.00000000D+00 0.00000000D+00 0.00000000D+00 0.00000000D+00
  <mgrwgt>
 0.9110237872D-02    1    2    0
 0.548140656232338D+03 0.000000000000000D+00 0.000000000000000D+00 0.548140656232338D+03
 0.548140656232338D+03 0.000000000000000D+00 0.000000000000000D+00 -.548140656232338D+03
 0.552319641533194D+03 0.471634507048806D+03 0.413512960956911D+02 -.255505280758329D+03
 0.345577492140281D+03 -.282531843018638D+03 -.282793618028527D+02 0.196976745963783D+03
 0.198384178791201D+03 -.189102664030167D+03 -.130719342928385D+02 0.585285347945466D+02
 0.000000000000000D+00 -.000000000000000D+00 -.000000000000000D+00 0.000000000000000D+00
 0.734489662992054D+03 0.000000000000000D+00 0.000000000000000D+00 0.734489662992054D+03
 0.548351563276346D+03 0.000000000000000D+00 0.000000000000000D+00 -.548351563276346D+03
 0.557145511521712D+03 0.477084103164063D+03 0.435193177972636D+02 -.255505280758329D+03
 0.342710660886074D+03 -.279151031611825D+03 -.269343680925161D+02 0.196976745963783D+03
 0.196486413918946D+03 -.187163094101236D+03 -.123003120278659D+02 0.585285347945466D+02
 0.186498639941668D+03 -.107699774510029D+02 -.428463767688164D+01 0.186138099715708D+03
0.203406884576D-02 0.000000000000D+00 0.000000000000D+00 0.295432978373D-03 0.145561686506D-04  6 1 -2 25 1 -2 21 2 0.12652831D+00 0.75340819D-01 0.23751462D+06 0.23751462D+06 0.23751462D+06 0.10921369D+01  1  2  1  1  6  1        1 0.911023787207D-02 0.100000000000D+01
  </mgrwgt>
  </event>
</LesHouchesEvents>
