<LesHouchesEvents version="3.0">
  <!--
  <scalesfunctionalform>
    muR  H_T/2 := sum_i mT(i)/2, i=final state
    muF1 H_T/2 := sum_i mT(i)/2, i=final state
    muF2 H_T/2 := sum_i mT(i)/2, i=final state
    QES  H_T/2 := sum_i mT(i)/2, i=final state
  </scalesfunctionalform>
HERWIG6   
  -->
  <header>
       35
  </header>
  <init>
   2212   2212 0.65000000D+04 0.65000000D+04 -1 -1   244800   244800 -4   1
 0.58573766D-04 0.35111810D-05 0.18942956D-05     66
  </init>
  <event>
  7     66 0.18942956E-05 0.58765925E+02 0.75467711E-02 0.88817460E-01
        2 -1    0    0  501    0 0.00000000E+00 0.00000000E+00 0.11941377E+04 0.11941377E+04 0.32000000E+00 0.0000E+00 0.9000E+01
       -2 -1    0    0    0  503 0.00000000E+00 0.00000000E+00 -.78994797E+03 0.78994804E+03 0.32000000E+00 0.0000E+00 0.9000E+01
       23  2    1    2    0    0 -.54370409E+03 0.65427336E+03 0.60272055E+03 0.10465192E+04 0.90788291E+02 0.0000E+00 0.0000E+00
       25  1    1    2    0    0 0.54838403E+03 -.60525500E+03 -.10636003E+03 0.83306430E+03 0.12500000E+03 0.0000E+00 0.9000E+01
        4  1    3    3  502    0 -.26174768E+03 0.28934117E+03 0.32801721E+03 0.50973312E+03 0.15500000E+01 0.0000E+00 0.9000E+01
       -4  1    3    3    0  502 -.28195642E+03 0.36493219E+03 0.27470334E+03 0.53678604E+03 0.15500000E+01 0.0000E+00 0.9000E+01
       21  1    1    2  501  503 -.46799412E+01 -.49018351E+02 -.92170842E+02 0.10450228E+03 0.75000000E+00 0.0000E+00 0.9000E+01
#aMCatNLO 2  0  0  0  0 0.00000000D+00 0.00000000D+00  -5  6  0 0.00000000D+00 0.00000000D+00 0.00000000D+00 0.00000000D+00 0.00000000D+00
  <mgrwgt>
 0.1113766262D-03    1    2    0
 0.906095398604321D+03 0.000000000000000D+00 0.000000000000000D+00 0.906095398604321D+03
 0.906095398604321D+03 0.000000000000000D+00 0.000000000000000D+00 -.906095398604321D+03
 0.908132293995395D+03 0.546058969348900D+03 -.629608057731384D+03 -.338367491096100D+03
 0.431682788419606D+03 -.262865408655546D+03 0.277550094890766D+03 0.200543640079176D+03
 0.472375714793640D+03 -.283193560693355D+03 0.352057962840619D+03 0.137823851016924D+03
 0.000000000000000D+00 -.000000000000000D+00 -.000000000000000D+00 -.000000000000000D+00
 0.911133270001122D+03 0.000000000000000D+00 0.000000000000000D+00 0.911133270001122D+03
 0.103530909099449D+04 0.000000000000000D+00 0.000000000000000D+00 -.103530909099449D+04
 0.892847259285318D+03 0.548384034476177D+03 -.605255004204232D+03 -.338367491096100D+03
 0.438670791332292D+03 -.261741781930858D+03 0.289319116519377D+03 0.200543640079176D+03
 0.481341620201688D+03 -.281962311336393D+03 0.364954238795893D+03 0.137823851016924D+03
 0.133582690176317D+03 -.467994120892553D+01 -.490183511110374D+02 -.124175820993372D+03
0.839767953161D-04 0.000000000000D+00 0.000000000000D+00 0.314882800450D-04 0.778214290884D-07  6 2 -2 25 4 -4 21 2 0.18371328D+00 0.12153033D+00 0.74547897D+06 0.74547897D+06 0.74547897D+06 0.10564626D+01  1  2  1  2  6  2       -2 0.111376626197D-03 0.100000000000D+01
  </mgrwgt>
  </event>
  <event>
  7     66 0.18942956E-05 0.36173761E+02 0.75467711E-02 0.94313601E-01
        2 -1    0    0  501    0 0.00000000E+00 0.00000000E+00 0.15718625E+04 0.15718625E+04 0.32000000E+00 0.0000E+00 0.9000E+01
       21 -1    0    0  503  501 0.00000000E+00 0.00000000E+00 -.49245348E+03 0.49245405E+03 0.75000000E+00 0.0000E+00 0.9000E+01
       23  2    1    2    0    0 0.22743527E+02 0.50137885E+03 0.39639493E+03 0.64671989E+03 0.96019013E+02 0.0000E+00 0.0000E+00
       25  1    1    2    0    0 -.20611134E+02 -.49024446E+03 0.98916693E+03 0.11112338E+04 0.12500000E+03 0.0000E+00 0.9000E+01
        4  1    3    3  502    0 -.29703521E+02 0.74498031E+02 0.50458224E+02 0.94766506E+02 0.15500000E+01 0.0000E+00 0.9000E+01
        2  1    1    2  503    0 -.21323926E+01 -.11134396E+02 -.30615285E+03 0.30636284E+03 0.32000000E+00 0.0000E+00 0.9000E+01
       -4  1    3    3    0  502 0.52447048E+02 0.42688082E+03 0.34593671E+03 0.55195338E+03 0.15500000E+01 0.0000E+00 0.9000E+01
#aMCatNLO 2  0  0  2  1 0.40944227D+02 0.00000000D+00  -5  6  0 0.00000000D+00 0.00000000D+00 0.00000000D+00 0.00000000D+00 0.00000000D+00
  <mgrwgt>
 0.1003317655D-02    1    2    0
 0.540946194993255D+03 0.000000000000000D+00 0.000000000000000D+00 0.540946194993255D+03
 0.540946194993255D+03 0.000000000000000D+00 0.000000000000000D+00 -.540946194993255D+03
 0.543906450026597D+03 -.216780945796350D+02 -.495815646689140D+03 0.184136175408748D+03
 0.885616979201872D+02 -.299001754364326D+02 0.734911073618130D+02 -.393473123111544D+02
 0.000000000000000D+00 -.000000000000000D+00 -.000000000000000D+00 -.000000000000000D+00
 0.449424242039727D+03 0.515782700160676D+02 0.422324539327327D+03 -.144788863097593D+03
 0.541012002130822D+03 0.000000000000000D+00 0.000000000000000D+00 0.541012002130822D+03
 0.143078099967163D+04 0.000000000000000D+00 0.000000000000000D+00 -.143078099967163D+04
 0.538790850159299D+03 -.206111343411586D+02 -.490244459695762D+03 0.184136175408748D+03
 0.892639676885639D+02 -.297249344761452D+02 0.744061369228529D+02 -.393473123111544D+02
 0.889841216654936D+03 -.213239258722662D+01 -.111343960330672D+02 -.889768997540805D+03
 0.453896967299650D+03 0.524684614045305D+02 0.426972718805977D+03 -.144788863097593D+03
0.365880622070D-04 0.000000000000D+00 0.000000000000D+00 0.924635194249D-06 0.750423065901D-08  6 2 21 25 4 2 -4 2 0.24182503D+00 0.75762116D-01 0.26419304D+06 0.26419304D+06 0.26419304D+06 0.10886596D+01  1  2  1  6  5  2       -2 0.100331765510D-02 0.100000000000D+01
  </mgrwgt>
  </event>
  <event>
  7     66 0.18942956E-05 0.82303243E+02 0.75467711E-02 0.93896463E-01
        2 -1    0    0  501    0 0.00000000E+00 0.00000000E+00 0.91299924E+03 0.91299930E+03 0.32000000E+00 0.0000E+00 0.9000E+01
       -2 -1    0    0    0  503 0.00000000E+00 0.00000000E+00 -.32065350E+03 0.32065366E+03 0.32000000E+00 0.0000E+00 0.9000E+01
       23  2    1    2    0    0 -.12993204E+03 0.49666191E+03 0.30466086E+03 0.60401195E+03 0.91960883E+02 0.0000E+00 0.0000E+00
       25  1    1    2    0    0 0.11637291E+03 -.50603558E+03 0.29657465E+03 0.61089785E+03 0.12500000E+03 0.0000E+00 0.9000E+01
        4  1    3    3  502    0 -.38955166E+02 0.25892814E+03 0.11210984E+03 0.28483733E+03 0.15500000E+01 0.0000E+00 0.9000E+01
       -4  1    3    3    0  502 -.90976877E+02 0.23773377E+03 0.19255102E+03 0.31917461E+03 0.15500000E+01 0.0000E+00 0.9000E+01
       21  1    1    2  501  503 0.13559130E+02 0.93736634E+01 -.88897674E+01 0.18743160E+02 0.75000000E+00 0.0000E+00 0.9000E+01
#aMCatNLO 2  0  0  2  1 0.25144115D+01 0.00000000D+00  -5  6  0 0.00000000D+00 0.00000000D+00 0.00000000D+00 0.00000000D+00 0.00000000D+00
  <mgrwgt>
 0.4795991579D-03    1    2    0
 0.527790194969989D+03 0.000000000000000D+00 0.000000000000000D+00 0.527790194969989D+03
 0.527790194969989D+03 0.000000000000000D+00 0.000000000000000D+00 -.527790194969989D+03
 0.531185576504638D+03 0.123214516524468D+03 -.501305854756674D+03 -.661359137581082D+01
 0.265776351153845D+03 -.355383966734150D+02 0.261286015632399D+03 -.332221195813929D+02
 0.258618462281495D+03 -.876761198510534D+02 0.240019839124275D+03 0.398357109572037D+02
 0.000000000000000D+00 0.000000000000000D+00 0.000000000000000D+00 -.000000000000000D+00
 0.530713128885585D+03 0.000000000000000D+00 0.000000000000000D+00 0.530713128885585D+03
 0.551617656860349D+03 0.000000000000000D+00 0.000000000000000D+00 -.551617656860349D+03
 0.534119272879580D+03 0.116372912104393D+03 -.506035575230505D+03 -.661359137581082D+01
 0.263945005164382D+03 -.389403749661920D+02 0.258934168697832D+03 -.332221195813929D+02
 0.257644808404328D+03 -.909916675805962D+02 0.237727743145682D+03 0.398357109572037D+02
 0.266216992976450D+02 0.135591304423951D+02 0.937366338699072D+01 -.209045279747650D+02
0.289519628078D-04 0.000000000000D+00 0.000000000000D+00 0.231730368260D-04 0.537195167167D-06  6 2 -2 25 4 -4 21 2 0.14046005D+00 0.49330835D-01 0.28459801D+06 0.28459801D+06 0.28459801D+06 0.10862494D+01  1  2  1  2  6  2       -2 0.479599157888D-03 0.100000000000D+01
  </mgrwgt>
  </event>
  <event>
  7     66 0.18942956E-05 0.99384811E+02 0.75467711E-02 0.88580785E-01
        2 -1    0    0  501    0 0.00000000E+00 0.00000000E+00 0.33335803E+04 0.33335803E+04 0.32000000E+00 0.0000E+00 0.9000E+01
       -2 -1    0    0    0  503 0.00000000E+00 0.00000000E+00 -.50927445E+03 0.50927455E+03 0.32000000E+00 0.0000E+00 0.9000E+01
       23  2    1    2    0    0 -.64193409E+02 -.86816571E+03 0.15100962E+04 0.17454445E+04 0.91397646E+02 0.0000E+00 0.0000E+00
       25  1    1    2    0    0 0.37354131E+01 0.76162210E+03 0.16055120E+04 0.17813972E+04 0.12500000E+03 0.0000E+00 0.9000E+01
        4  1    3    3  502    0 -.19714806E+02 -.69596536E+03 0.11645385E+04 0.13568009E+04 0.15500000E+01 0.0000E+00 0.9000E+01
       -4  1    3    3    0  502 -.44478603E+02 -.17220035E+03 0.34555768E+03 0.38864357E+03 0.15500000E+01 0.0000E+00 0.9000E+01
       21  1    1    2  501  503 0.60457996E+02 0.10654361E+03 -.29130233E+03 0.31601317E+03 0.75000000E+00 0.0000E+00 0.9000E+01
#aMCatNLO 2  0  0  2  1 0.25144115D+01 0.00000000D+00  -5  6  0 0.00000000D+00 0.00000000D+00 0.00000000D+00 0.00000000D+00 0.00000000D+00
  <mgrwgt>
 0.9190542846D-04    1    2    0
 0.824104254202641D+03 0.000000000000000D+00 0.000000000000000D+00 0.824104254202641D+03
 0.824104254202641D+03 0.000000000000000D+00 0.000000000000000D+00 -.824104254202641D+03
 0.826310125092758D+03 0.330602180655151D+02 0.813300471517763D+03 0.679175076195743D+02
 0.656389410730423D+03 0.513823238394634D+01 -.652330805030035D+03 -.726992289908685D+02
 0.165508972582102D+03 -.381984504494615D+02 -.160969666487728D+03 0.478172137129421D+01
 0.000000000000000D+00 0.000000000000000D+00 0.000000000000000D+00 -.000000000000000D+00
 0.829451458453407D+03 0.000000000000000D+00 0.000000000000000D+00 0.829451458453407D+03
 0.204678284530193D+04 0.000000000000000D+00 0.000000000000000D+00 -.204678284530193D+04
 0.774803180539273D+03 0.373541310163442D+01 0.761622102765853D+03 0.679175076195743D+02
 0.700179430953557D+03 -.197076773730504D+02 -.696116129023843D+03 -.726992289908685D+02
 0.177772057947462D+03 -.444857314511678D+02 -.172049584204257D+03 0.478172137129421D+01
 0.122347963431504D+04 0.604579957225837D+02 0.106543610462247D+03 -.121733138684852D+04
0.444178833869D-03 0.000000000000D+00 0.000000000000D+00 0.215057827250D-04 0.122539725730D-07  6 2 -2 25 4 -4 21 2 0.51285844D+00 0.78349914D-01 0.78183206D+06 0.78183206D+06 0.78183206D+06 0.10550540D+01  1  2  1  2  6  2       -2 0.919054284552D-04 0.100000000000D+01
  </mgrwgt>
  </event>
  <event>
  7     66 0.18942956E-05 0.47077321E+02 0.75467711E-02 0.89082708E-01
        2 -1    0    0  501    0 0.00000000E+00 0.00000000E+00 0.27438776E+04 0.27438776E+04 0.32000000E+00 0.0000E+00 0.9000E+01
       21 -1    0    0  503  501 0.00000000E+00 0.00000000E+00 -.27371702E+03 0.27371805E+03 0.75000000E+00 0.0000E+00 0.9000E+01
       23  2    1    2    0    0 -.90687389E+02 0.80211885E+03 0.13591314E+04 0.15833880E+04 0.90887340E+02 0.0000E+00 0.0000E+00
       25  1    1    2    0    0 0.27665180E+02 -.80029521E+03 0.11057117E+04 0.13709344E+04 0.12500000E+03 0.0000E+00 0.9000E+01
        4  1    3    3  502    0 -.69067485E+02 0.71518998E+03 0.12539804E+04 0.14452461E+04 0.15500000E+01 0.0000E+00 0.9000E+01
        2  1    1    2  503    0 0.63022210E+02 -.18236383E+01 0.53174429E+01 0.63273234E+02 0.32000000E+00 0.0000E+00 0.9000E+01
       -4  1    3    3    0  502 -.21619905E+02 0.86928872E+02 0.10515103E+03 0.13814192E+03 0.15500000E+01 0.0000E+00 0.9000E+01
#aMCatNLO 2  0  0  2  1 0.25144115D+01 0.00000000D+00  -5  6  0 0.00000000D+00 0.00000000D+00 0.00000000D+00 0.00000000D+00 0.00000000D+00
  <mgrwgt>
 0.2582015358D-04    1    2    0
 0.813725106422913D+03 0.000000000000000D+00 0.000000000000000D+00 0.813725106422913D+03
 0.813725106422913D+03 0.000000000000000D+00 0.000000000000000D+00 -.813725106422913D+03
 0.815987692231984D+03 0.592021524952337D+02 -.801207778907049D+03 -.690804895237656D+02
 0.721066317338543D+03 -.411120461639010D+02 0.714563531345042D+03 0.874379398893248D+02
 0.000000000000000D+00 0.000000000000000D+00 -.000000000000000D+00 -.000000000000000D+00
 0.903962032752997D+02 -.180901063313326D+02 0.866442475620074D+02 -.183574503655591D+02
 0.824642366482788D+03 0.000000000000000D+00 0.000000000000000D+00 0.824642366482788D+03
 0.910754976517824D+03 0.000000000000000D+00 0.000000000000000D+00 -.910754976517824D+03
 0.813409430295357D+03 0.276651797508798D+02 -.800295211212667D+03 -.690804895237656D+02
 0.723999965701423D+03 -.690812964785992D+02 0.715372861856255D+03 0.874379398893248D+02
 0.106726314265359D+03 0.630222095205223D+02 -.182363833406737D+01 -.861126100350353D+02
 0.912616327384731D+02 -.216060927928028D+02 0.867459876904793D+02 -.183574503655591D+02
0.133598105864D-05 0.000000000000D+00 0.000000000000D+00 0.162588579405D-04 0.447705325653D-09  6 2 21 25 4 2 -4 2 0.42213497D+00 0.42110379D-01 0.70695823D+06 0.70695823D+06 0.70695823D+06 0.10580389D+01  1  2  1  6  5  2       -2 0.258201535792D-04 0.100000000000D+01
  </mgrwgt>
  </event>
  <event>
  7     66 0.18942956E-05 0.65393817E+02 0.75467711E-02 0.93716465E-01
        2 -1    0    0  503    0 0.00000000E+00 0.00000000E+00 0.35956646E+04 0.35956646E+04 0.32000000E+00 0.0000E+00 0.9000E+01
       -2 -1    0    0    0  501 0.00000000E+00 0.00000000E+00 -.13390556E+03 0.13390594E+03 0.32000000E+00 0.0000E+00 0.9000E+01
       23  2    1    2    0    0 0.43793088E+03 -.26577610E+03 0.20781680E+04 0.21423253E+04 0.91406482E+02 0.0000E+00 0.0000E+00
       25  1    1    2    0    0 -.42493453E+03 0.29812441E+03 0.60113383E+03 0.80401144E+03 0.12500000E+03 0.0000E+00 0.9000E+01
        4  1    3    3  502    0 0.18242408E+03 -.14448186E+03 0.10844968E+04 0.11091840E+04 0.15500000E+01 0.0000E+00 0.9000E+01
       -4  1    3    3    0  502 0.25550681E+03 -.12129424E+03 0.99367122E+03 0.10331413E+04 0.15500000E+01 0.0000E+00 0.9000E+01
       21  1    1    2  503  501 -.12996349E+02 -.32348316E+02 0.78245723E+03 0.78323381E+03 0.75000000E+00 0.0000E+00 0.9000E+01
#aMCatNLO 2  0  0  1  1 0.69614337D+02 0.00000000D+00  -5  6  0 0.00000000D+00 0.00000000D+00 0.00000000D+00 0.00000000D+00 0.00000000D+00
  <mgrwgt>
 0.5600601421D-03    1    2    0
 0.612581977267639D+03 0.000000000000000D+00 0.000000000000000D+00 0.612581977267639D+03
 0.612581977267639D+03 0.000000000000000D+00 0.000000000000000D+00 -.612581977267639D+03
 0.615548867998503D+03 -.431479368094818D+03 0.281834112492020D+03 -.312522794110398D+03
 0.297620021272857D+03 0.179257178411544D+03 -.152318684655218D+03 0.182328163911371D+03
 0.311995065263918D+03 0.252222189683274D+03 -.129515427836803D+03 0.130194630199027D+03
 0.000000000000000D+00 -.000000000000000D+00 -.000000000000000D+00 0.000000000000000D+00
 0.783387706390845D+03 0.000000000000000D+00 0.000000000000000D+00 0.783387706390845D+03
 0.614611306463333D+03 0.000000000000000D+00 0.000000000000000D+00 -.614611306463333D+03
 0.618662281267960D+03 -.424934532338364D+03 0.298124411364589D+03 -.312522794110398D+03
 0.295620305489933D+03 0.182403042476276D+03 -.144488531579733D+03 0.182328163911371D+03
 0.311377249462156D+03 0.255527839139955D+03 -.121287563972659D+03 0.130194630199027D+03
 0.172339176634128D+03 -.129963492778670D+02 -.323483158121971D+02 0.168776399927511D+03
0.280099989275D-03 0.000000000000D+00 0.000000000000D+00 0.299517231305D-04 0.159435804254D-06  6 2 -2 25 4 -4 21 2 0.55317847D+00 0.20600858D-01 0.29394391D+06 0.29394391D+06 0.29394391D+06 0.10852077D+01  1  2  1  1  6  1        2 0.560060142092D-03 0.100000000000D+01
  </mgrwgt>
  </event>
  <event>
  7     66 0.18942956E-05 0.61280826E+02 0.75467711E-02 0.94443323E-01
        4 -1    0    0  501    0 0.00000000E+00 0.00000000E+00 0.55620583E+03 0.55620799E+03 0.15500000E+01 0.0000E+00 0.9000E+01
       21 -1    0    0  503  501 0.00000000E+00 0.00000000E+00 -.97670312E+03 0.97670341E+03 0.75000000E+00 0.0000E+00 0.9000E+01
       23  2    1    2    0    0 0.35923521E+03 0.33484865E+03 -.42647929E+02 0.50129420E+03 0.91123403E+02 0.0000E+00 0.0000E+00
       25  1    1    2    0    0 -.36937687E+03 -.33586446E+03 0.12422690E+03 0.52943510E+03 0.12500000E+03 0.0000E+00 0.9000E+01
        2  1    3    3  502    0 0.11984116E+03 0.12287530E+03 -.57993057E+02 0.18117268E+03 0.32000000E+00 0.0000E+00 0.9000E+01
        4  1    1    2  503    0 0.10141663E+02 0.10158060E+01 -.50207627E+03 0.50218210E+03 0.15500000E+01 0.0000E+00 0.9000E+01
       -2  1    3    3    0  502 0.23939405E+03 0.21197335E+03 0.15345128E+02 0.32012152E+03 0.32000000E+00 0.0000E+00 0.9000E+01
#aMCatNLO 2  0  0  2  1 0.93725950D+02 0.00000000D+00  -5  6  0 0.00000000D+00 0.00000000D+00 0.00000000D+00 0.00000000D+00 0.00000000D+00
  <mgrwgt>
 0.1684592469D-04    1    2    0
 0.513722657939610D+03 0.000000000000000D+00 0.000000000000000D+00 0.513722657939610D+03
 0.513722657939610D+03 0.000000000000000D+00 0.000000000000000D+00 -.513722657939610D+03
 0.517285633704282D+03 -.364251488552957D+03 -.335351089002474D+03 0.825828494825048D+02
 0.187659136359262D+03 0.121685496808990D+03 0.123059077460444D+03 -.725606972130084D+02
 0.000000000000000D+00 0.000000000000000D+00 0.000000000000000D+00 -.000000000000000D+00
 0.322500545815676D+03 0.242565991743966D+03 0.212292011542031D+03 -.100221522694964D+02
 0.513795713622970D+03 0.000000000000000D+00 0.000000000000000D+00 0.513795713622970D+03
 0.105732200314592D+04 0.000000000000000D+00 0.000000000000000D+00 -.105732200314592D+04
 0.521238075767477D+03 -.369376869783519D+03 -.335864455800345D+03 0.825828494825048D+02
 0.186345576917093D+03 0.119839687493242D+03 0.122874198097275D+03 -.725606972130084D+02
 0.543621847043558D+03 0.101416625220470D+02 0.101580596248687D+01 -.543526289522949D+03
 0.319912217040761D+03 0.239395519768230D+03 0.211974451740583D+03 -.100221522694964D+02
0.112087596453D-04 0.000000000000D+00 0.000000000000D+00 0.278373126801D-04 0.167773060237D-06  6 4 21 25 2 4 -2 2 0.85570132D-01 0.15026188D+00 0.25818598D+06 0.25818598D+06 0.25818598D+06 0.10894080D+01  1  2  1  6  5  2       -4 0.168459246854D-04 0.100000000000D+01
  </mgrwgt>
  </event>
  <event>
  7     66 0.18942956E-05 0.27444650E+02 0.75467711E-02 0.94271275E-01
        2 -1    0    0  501    0 0.00000000E+00 0.00000000E+00 0.22495019E+04 0.22495019E+04 0.32000000E+00 0.0000E+00 0.9000E+01
       -2 -1    0    0    0  503 0.00000000E+00 0.00000000E+00 -.20400819E+03 0.20400844E+03 0.32000000E+00 0.0000E+00 0.9000E+01
       23  2    1    2    0    0 0.45916480E+03 0.15641777E+03 0.11112868E+04 0.12159430E+04 0.90885864E+02 0.0000E+00 0.0000E+00
       25  1    1    2    0    0 -.48203703E+03 -.15280306E+03 0.10218265E+04 0.11469363E+04 0.12500000E+03 0.0000E+00 0.9000E+01
        4  1    3    3  502    0 0.38291435E+03 0.15014492E+03 0.99586270E+03 0.10774562E+04 0.15500000E+01 0.0000E+00 0.9000E+01
       -4  1    3    3    0  502 0.76250452E+02 0.62728493E+01 0.11542411E+03 0.13848685E+03 0.15500000E+01 0.0000E+00 0.9000E+01
       21  1    1    2  501  503 0.22872227E+02 -.36147095E+01 -.87619663E+02 0.90630970E+02 0.75000000E+00 0.0000E+00 0.9000E+01
#aMCatNLO 2  0  0  2  1 0.93725950D+02 0.00000000D+00  -5  6  0 0.00000000D+00 0.00000000D+00 0.00000000D+00 0.00000000D+00 0.00000000D+00
  <mgrwgt>
 0.3523992750D-03    1    2    0
 0.508057598767799D+03 0.000000000000000D+00 0.000000000000000D+00 0.508057598767799D+03
 0.508057598767799D+03 0.000000000000000D+00 0.000000000000000D+00 -.508057598767799D+03
 0.511681577580000D+03 -.470406372730964D+03 -.154641159762427D+03 -.315751965344073D+02
 0.423108871861250D+03 0.392434127250475D+03 0.148696411482426D+03 0.539068681070150D+02
 0.813247480943478D+02 0.779722454804897D+02 0.594474828000092D+01 -.223316715726076D+02
 0.000000000000000D+00 0.000000000000000D+00 -.000000000000000D+00 -.000000000000000D+00
 0.508529523756583D+03 0.000000000000000D+00 0.000000000000000D+00 0.508529523756583D+03
 0.902438231630147D+03 0.000000000000000D+00 0.000000000000000D+00 -.902438231630147D+03
 0.521852912938297D+03 -.482037026094315D+03 -.152803060113820D+03 -.315751965344073D+02
 0.414914205330648D+03 0.383003618631048D+03 0.150186801922070D+03 0.539068681070150D+02
 0.796118954666046D+02 0.761611803134435D+02 0.623096764731884D+01 -.223316715726076D+02
 0.394588741651180D+03 0.228722271498235D+02 -.361470945556926D+01 -.393908707873564D+03
0.513275440243D-04 0.000000000000D+00 0.000000000000D+00 0.231307822439D-04 0.318418731445D-06  6 2 -2 25 4 -4 21 2 0.34607699D+00 0.31385874D-01 0.26618684D+06 0.26618684D+06 0.26618684D+06 0.10884153D+01  1  2  1  2  6  2       -2 0.352399274970D-03 0.100000000000D+01
  </mgrwgt>
  </event>
  <event>
  7     66 0.18942956E-05 0.10780632E+03 0.75467711E-02 0.90727906E-01
        2 -1    0    0  501    0 0.00000000E+00 0.00000000E+00 0.16535807E+04 0.16535807E+04 0.32000000E+00 0.0000E+00 0.9000E+01
       21 -1    0    0  503  501 0.00000000E+00 0.00000000E+00 -.65651161E+03 0.65651203E+03 0.75000000E+00 0.0000E+00 0.9000E+01
       23  2    1    2    0    0 0.24181553E+03 -.57267524E+03 0.17054990E+03 0.65503320E+03 0.11640249E+03 0.0000E+00 0.0000E+00
       25  1    1    2    0    0 -.38549763E+03 0.51221647E+03 0.11349524E+04 0.13094717E+04 0.12500000E+03 0.0000E+00 0.9000E+01
        4  1    3    3  502    0 0.11342197E+03 -.22728384E+03 0.13209878E+02 0.25436074E+03 0.15500000E+01 0.0000E+00 0.9000E+01
        2  1    1    2  503    0 0.14368209E+03 0.60458764E+02 -.30843323E+03 0.34558786E+03 0.32000000E+00 0.0000E+00 0.9000E+01
       -4  1    3    3    0  502 0.12839356E+03 -.34539140E+03 0.15734002E+03 0.40067245E+03 0.15500000E+01 0.0000E+00 0.9000E+01
#aMCatNLO 2  0  0  2  1 0.15249406D+02 0.00000000D+00  -5  6  0 0.00000000D+00 0.00000000D+00 0.00000000D+00 0.00000000D+00 0.00000000D+00
  <mgrwgt>
 0.5409122880D-04    1    2    0
 0.729836172051327D+03 0.000000000000000D+00 0.000000000000000D+00 0.729836172051327D+03
 0.729836172051327D+03 0.000000000000000D+00 0.000000000000000D+00 -.729836172051327D+03
 0.730547130210148D+03 -.313176748274998D+03 0.542647782442154D+03 0.354299051662285D+03
 0.332256798514049D+03 0.145854452763210D+03 -.213614872185526D+03 -.208541950573766D+03
 0.000000000000000D+00 0.000000000000000D+00 0.000000000000000D+00 -.000000000000000D+00
 0.396868415378458D+03 0.167322295511787D+03 -.329032910256627D+03 -.145757101088519D+03
 0.742325930213782D+03 0.000000000000000D+00 0.000000000000000D+00 0.742325930213782D+03
 0.146242410678254D+04 0.000000000000000D+00 0.000000000000000D+00 -.146242410678254D+04
 0.743052475481753D+03 -.385497638151104D+03 0.512216491623110D+03 0.354299051662285D+03
 0.328636800838603D+03 0.113419310249607D+03 -.227262979340728D+03 -.208541950573766D+03
 0.736777571806022D+03 0.143682094533282D+03 0.604587638747550D+02 -.720098176568754D+03
 0.396283188869940D+03 0.128396233368215D+03 -.345412276157137D+03 -.145757101088519D+03
0.493862450805D-05 0.000000000000D+00 0.000000000000D+00 0.425806425332D-07 0.103918092225D-11  6 2 21 25 4 2 -4 2 0.25439705D+00 0.10100182D+00 0.51231704D+06 0.51231704D+06 0.51231704D+06 0.10677643D+01  1  2  1  6  5  2       -2 0.540912288041D-04 0.100000000000D+01
  </mgrwgt>
  </event>
  <event>
  7     66 0.18942956E-05 0.68614741E+02 0.75467711E-02 0.94856637E-01
        2 -1    0    0  501    0 0.00000000E+00 0.00000000E+00 0.31183136E+03 0.31183153E+03 0.32000000E+00 0.0000E+00 0.9000E+01
       -2 -1    0    0    0  503 0.00000000E+00 0.00000000E+00 -.78709742E+03 0.78709749E+03 0.32000000E+00 0.0000E+00 0.9000E+01
       23  2    1    2    0    0 -.44062752E+03 -.18447545E+03 -.18358826E+03 0.51912753E+03 0.87206306E+02 0.0000E+00 0.0000E+00
       25  1    1    2    0    0 0.41969252E+03 0.17829993E+03 -.25522172E+03 0.53730420E+03 0.12500000E+03 0.0000E+00 0.9000E+01
        4  1    3    3  502    0 -.21468268E+03 -.43896936E+02 -.73275886E+02 0.23105703E+03 0.15500000E+01 0.0000E+00 0.9000E+01
       -4  1    3    3    0  502 -.22594484E+03 -.14057851E+03 -.11031238E+03 0.28807050E+03 0.15500000E+01 0.0000E+00 0.9000E+01
       21  1    1    2  501  503 0.20934999E+02 0.61755176E+01 -.36456070E+02 0.42497279E+02 0.75000000E+00 0.0000E+00 0.9000E+01
#aMCatNLO 2  0  0  2  1 0.15249406D+02 0.00000000D+00  -5  6  0 0.00000000D+00 0.00000000D+00 0.00000000D+00 0.00000000D+00 0.00000000D+00
  <mgrwgt>
 0.4142122888D-03    1    2    0
 0.480368970962260D+03 0.000000000000000D+00 0.000000000000000D+00 0.480368970962260D+03
 0.480368970962260D+03 0.000000000000000D+00 0.000000000000000D+00 -.480368970962260D+03
 0.484542877482714D+03 0.430136165090738D+03 0.181380652836630D+03 -.352241164093531D+02
 0.215628705354862D+03 -.209927644985824D+03 -.424647506619347D+02 0.249573114525530D+02
 0.260566359086945D+03 -.220208520104914D+03 -.138915902174695D+03 0.102668049568002D+02
 0.000000000000000D+00 0.000000000000000D+00 0.000000000000000D+00 -.000000000000000D+00
 0.485188175504994D+03 0.000000000000000D+00 0.000000000000000D+00 0.485188175504994D+03
 0.505859581296381D+03 0.000000000000000D+00 0.000000000000000D+00 -.505859581296381D+03
 0.474129114173595D+03 0.419692521984703D+03 0.178299931352589D+03 -.352241164093531D+02
 0.220531741698457D+03 -.214679117945958D+03 -.438663654701491D+02 0.249573114525530D+02
 0.266324994317789D+03 -.225948403295939D+03 -.140609083498773D+03 0.102668049568002D+02
 0.300619066115338D+02 0.209349992571945D+02 0.617551761633298D+01 -.206714057913874D+02
0.522357181687D-04 0.000000000000D+00 0.000000000000D+00 0.336963838923D-05 0.450004201030D-07  6 2 -2 25 4 -4 21 2 0.47973614D-01 0.12109077D+00 0.24004499D+06 0.24004499D+06 0.24004499D+06 0.10917892D+01  1  2  1  2  6  2       -2 0.414212288787D-03 0.100000000000D+01
  </mgrwgt>
  </event>
  <event>
  7     66 0.18942956E-05 0.39583515E+02 0.75467711E-02 0.94149383E-01
        2 -1    0    0  501    0 0.00000000E+00 0.00000000E+00 0.22920922E+03 0.22920945E+03 0.32000000E+00 0.0000E+00 0.9000E+01
       -2 -1    0    0    0  503 0.00000000E+00 0.00000000E+00 -.27468922E+04 0.27468922E+04 0.32000000E+00 0.0000E+00 0.9000E+01
       23  2    1    2    0    0 -.38179404E+03 -.29995554E+03 -.36313956E+03 0.61316086E+03 0.91410536E+02 0.0000E+00 0.0000E+00
       25  1    1    2    0    0 0.33374226E+03 0.34057891E+03 -.48275195E+03 0.68996547E+03 0.12500000E+03 0.0000E+00 0.9000E+01
        4  1    3    3  502    0 -.31310845E+03 -.22496370E+03 -.32595705E+03 0.50487223E+03 0.15500000E+01 0.0000E+00 0.9000E+01
       -4  1    3    3    0  502 -.68685597E+02 -.74991833E+02 -.37182512E+02 0.10828863E+03 0.15500000E+01 0.0000E+00 0.9000E+01
       21  1    1    2  501  503 0.48051782E+02 -.40623377E+02 -.16717915E+04 0.16729754E+04 0.75000000E+00 0.0000E+00 0.9000E+01
#aMCatNLO 2  0  0  2  1 0.85839201D+02 0.00000000D+00  -5  6  0 0.00000000D+00 0.00000000D+00 0.00000000D+00 0.00000000D+00 0.00000000D+00
  <mgrwgt>
 0.2083290435D-04    1    2    0
 0.494632827902163D+03 0.000000000000000D+00 0.000000000000000D+00 0.494632827902163D+03
 0.494632827902163D+03 0.000000000000000D+00 0.000000000000000D+00 -.494632827902163D+03
 0.498306822895443D+03 0.357843915321320D+03 0.320203175861450D+03 -.458513705345881D+02
 0.380441951260923D+03 -.294592164083506D+03 -.240720144775081D+03 0.231236659717757D+01
 0.110516881647959D+03 -.632517512378146D+02 -.794830310863688D+02 0.435390039374106D+02
 0.000000000000000D+00 0.000000000000000D+00 -.000000000000000D+00 -.000000000000000D+00
 0.496915481947407D+03 0.000000000000000D+00 0.000000000000000D+00 0.496915481947407D+03
 0.126704230058652D+04 0.000000000000000D+00 0.000000000000000D+00 -.126704230058652D+04
 0.495081046643334D+03 0.333742261871924D+03 0.340578914799744D+03 -.458513705345881D+02
 0.385635041504542D+03 -.313178783430651D+03 -.225006861686100D+03 0.231236659717757D+01
 0.110548644533307D+03 -.686152601601685D+02 -.749486758885170D+02 0.435390039374106D+02
 0.772693049852744D+03 0.480517817188961D+02 -.406233772251270D+02 -.770126818639112D+03
0.243948327837D-03 0.000000000000D+00 0.000000000000D+00 0.201172948742D-04 0.474616301265D-07  6 2 -2 25 4 -4 21 2 0.35262963D-01 0.42259867D+00 0.27202355D+06 0.27202355D+06 0.27202355D+06 0.10877114D+01  1  2  1  2  6  2       -2 0.208329043492D-04 0.100000000000D+01
  </mgrwgt>
  </event>
  <event>
  7     66 0.18942956E-05 0.74542721E+02 0.75467711E-02 0.93714202E-01
        2 -1    0    0  501    0 0.00000000E+00 0.00000000E+00 0.87679819E+03 0.87679825E+03 0.32000000E+00 0.0000E+00 0.9000E+01
       -2 -1    0    0    0  501 0.00000000E+00 0.00000000E+00 -.40160005E+03 0.40160018E+03 0.32000000E+00 0.0000E+00 0.9000E+01
       23  2    1    2    0    0 0.52511192E+03 -.77199767E+02 0.49146258E+03 0.73287862E+03 0.11778482E+03 0.0000E+00 0.0000E+00
       25  1    1    2    0    0 -.52511192E+03 0.77199767E+02 -.16264434E+02 0.54551981E+03 0.12500000E+03 0.0000E+00 0.9000E+01
        4  1    3    3  502    0 0.32310466E+03 -.24314012E+01 0.31484807E+03 0.45114770E+03 0.15500000E+01 0.0000E+00 0.9000E+01
       -4  1    3    3    0  503 0.19279125E+03 -.66971718E+02 0.17619182E+03 0.26962870E+03 0.15500000E+01 0.0000E+00 0.9000E+01
       21  1    3    3  503  502 0.92160092E+01 -.77966480E+01 0.42269349E+00 0.12102219E+02 0.75000000E+00 0.0000E+00 0.9000E+01
#aMCatNLO 2  0  0  5  4 0.12006678D+02 0.00000000D+00  -5  6  0 0.00000000D+00 0.00000000D+00 0.00000000D+00 0.00000000D+00 0.00000000D+00
  <mgrwgt>
 0.7358275606D-03    1    2    0
 0.593398952741956D+03 0.000000000000000D+00 0.000000000000000D+00 0.593398952741956D+03
 0.593398952741956D+03 -.000000000000000D+00 -.000000000000000D+00 -.593398952741956D+03
 0.595986966402512D+03 -.526818079047250D+03 0.778312614658911D+02 -.236601924018513D+03
 0.358942504454971D+03 0.322202262896139D+03 -.203198750600215D+01 0.158181207214353D+03
 0.231868434626428D+03 0.204615816151111D+03 -.757992739598890D+02 0.784207168041608D+02
 0.000000000000000D+00 0.000000000000000D+00 -.000000000000000D+00 0.000000000000000D+00
 0.593398952741956D+03 0.000000000000000D+00 0.000000000000000D+00 0.593398952741956D+03
 0.593398952741956D+03 -.000000000000000D+00 -.000000000000000D+00 -.593398952741956D+03
 0.594124383495065D+03 -.525100326663907D+03 0.771949255953339D+02 -.235943581101882D+03
 0.360051709499213D+03 0.323240026316122D+03 -.241642364225238D+01 0.158578938693761D+03
 0.219714722595737D+03 0.192619164583949D+03 -.669370226200880D+02 0.818037392975468D+02
 0.129070898938964D+02 0.924113576383584D+01 -.784147933299355D+01 -.443909688942603D+01
0.666458274347D-04 0.000000000000D+00 0.000000000000D+00 0.111362109553D-05 0.765261196201D-07  6 2 -2 25 4 -4 21 2 0.13489204D+00 0.61784637D-01 0.29406359D+06 0.29406359D+06 0.29406359D+06 0.10851946D+01  1  2  1  4  6  5       -4 0.735827560644D-03 0.100000000000D+01
  </mgrwgt>
  </event>
  <event>
  7     66 0.18942956E-05 0.38056569E+02 0.75467711E-02 0.92273046E-01
        2 -1    0    0  501    0 0.00000000E+00 0.00000000E+00 0.26896827E+04 0.26896827E+04 0.32000000E+00 0.0000E+00 0.9000E+01
       -2 -1    0    0    0  503 0.00000000E+00 0.00000000E+00 -.18040413E+03 0.18040441E+03 0.32000000E+00 0.0000E+00 0.9000E+01
       23  2    1    2    0    0 -.53800499E+03 -.25989940E+03 0.18295190E+04 0.19267919E+04 0.91597475E+02 0.0000E+00 0.0000E+00
       25  1    1    2    0    0 0.54871183E+03 0.26355967E+03 0.68959377E+03 0.92828494E+03 0.12500000E+03 0.0000E+00 0.9000E+01
        4  1    3    3  502    0 -.79621449E+02 -.77426348E+02 0.34381559E+03 0.36131146E+03 0.15500000E+01 0.0000E+00 0.9000E+01
       -4  1    3    3    0  502 -.45838354E+03 -.18247305E+03 0.14857034E+04 0.15654804E+04 0.15500000E+01 0.0000E+00 0.9000E+01
       21  1    1    2  501  503 -.10706841E+02 -.36602640E+01 -.98342301E+01 0.15010282E+02 0.75000000E+00 0.0000E+00 0.9000E+01
#aMCatNLO 2  0  0  2  1 0.45693202D+02 0.00000000D+00  -5  6  0 0.00000000D+00 0.00000000D+00 0.00000000D+00 0.00000000D+00 0.00000000D+00
  <mgrwgt>
 0.7409721555D-03    1    2    0
 0.671827072570779D+03 0.000000000000000D+00 0.000000000000000D+00 0.671827072570779D+03
 0.671827072570779D+03 0.000000000000000D+00 0.000000000000000D+00 -.671827072570779D+03
 0.674519321410091D+03 0.543316863343736D+03 0.261715331962138D+03 -.275069420288409D+03
 0.123867786710939D+03 -.804965323174255D+02 -.777325093947101D+02 0.531149117737919D+02
 0.545267037020528D+03 -.462820331026310D+03 -.183982822567428D+03 0.221954508514617D+03
 0.000000000000000D+00 -.000000000000000D+00 -.000000000000000D+00 -.000000000000000D+00
 0.672495183320281D+03 0.000000000000000D+00 0.000000000000000D+00 0.672495183320281D+03
 0.721531213620070D+03 0.000000000000000D+00 0.000000000000000D+00 -.721531213620070D+03
 0.679585573465049D+03 0.548711826241070D+03 0.263559665782168D+03 -.275069420288409D+03
 0.123018994167271D+03 -.795128972772441D+02 -.773962417677225D+02 0.531149117737919D+02
 0.541097220611266D+03 -.458492088151556D+03 -.182503159988255D+03 0.221954508514617D+03
 0.503246086967649D+02 -.107068408122706D+02 -.366026402618981D+01 -.490360302997886D+02
0.162317198899D-03 0.000000000000D+00 0.000000000000D+00 0.166919177141D-04 0.808696243138D-06  6 2 -2 25 4 -4 21 2 0.41379564D+00 0.27754389D-01 0.38265680D+06 0.38265680D+06 0.38265680D+06 0.10768181D+01  1  2  1  2  6  2       -2 0.740972155526D-03 0.100000000000D+01
  </mgrwgt>
  </event>
  <event>
  7     66 0.18942956E-05 0.44257303E+02 0.75467711E-02 0.93997967E-01
        2 -1    0    0  501    0 0.00000000E+00 0.00000000E+00 0.69185937E+03 0.69185944E+03 0.32000000E+00 0.0000E+00 0.9000E+01
       -2 -1    0    0    0  503 0.00000000E+00 0.00000000E+00 -.75231658E+03 0.75231665E+03 0.32000000E+00 0.0000E+00 0.9000E+01
       23  2    1    2    0    0 -.39220401E+03 -.32364022E+03 -.44997001E+03 0.68494336E+03 0.90041176E+02 0.0000E+00 0.0000E+00
       25  1    1    2    0    0 0.39868825E+03 0.33274654E+03 0.44956463E+03 0.69814464E+03 0.12500000E+03 0.0000E+00 0.9000E+01
        4  1    3    3  502    0 -.31753566E+03 -.22928067E+03 -.30422159E+03 0.49593517E+03 0.15500000E+01 0.0000E+00 0.9000E+01
       -4  1    3    3    0  502 -.74668350E+02 -.94359550E+02 -.14574843E+03 0.18900818E+03 0.15500000E+01 0.0000E+00 0.9000E+01
       21  1    1    2  501  503 -.64842419E+01 -.91063167E+01 -.60051830E+02 0.61088094E+02 0.75000000E+00 0.0000E+00 0.9000E+01
#aMCatNLO 2  0  0  2  1 0.45693202D+02 0.00000000D+00  -5  6  0 0.00000000D+00 0.00000000D+00 0.00000000D+00 0.00000000D+00 0.00000000D+00
  <mgrwgt>
 0.2407739910D-03    1    2    0
 0.691521378946634D+03 0.000000000000000D+00 0.000000000000000D+00 0.691521378946634D+03
 0.691521378946634D+03 0.000000000000000D+00 0.000000000000000D+00 -.691521378946634D+03
 0.694239149831430D+03 0.395423976094128D+03 0.328162268275598D+03 0.449769276372666D+03
 0.498952224432602D+03 -.319939867332808D+03 -.232595940721831D+03 -.304123218312962D+03
 0.189851383629236D+03 -.754841087613203D+02 -.955663275537671D+02 -.145646058059704D+03
 0.000000000000000D+00 -.000000000000000D+00 -.000000000000000D+00 -.000000000000000D+00
 0.692059950961520D+03 0.000000000000000D+00 0.000000000000000D+00 0.692059950961520D+03
 0.752093679797946D+03 0.000000000000000D+00 0.000000000000000D+00 -.752093679797946D+03
 0.698276435802311D+03 0.398688249852254D+03 0.332746537559346D+03 0.449769276372666D+03
 0.495937048140941D+03 -.317607691680192D+03 -.229320688092673D+03 -.304123218312962D+03
 0.188874452725211D+03 -.745963163215871D+02 -.943195327340369D+02 -.145646058059704D+03
 0.610656940910036D+02 -.648424185047549D+01 -.910631673263636D+01 -.600337288364256D+02
0.678458123044D-04 0.000000000000D+00 0.000000000000D+00 0.957250235477D-05 0.483713491570D-06  6 2 -2 25 4 -4 21 2 0.10643956D+00 0.11574064D+00 0.27947485D+06 0.27947485D+06 0.27947485D+06 0.10868364D+01  1  2  1  2  6  2       -2 0.240773991001D-03 0.100000000000D+01
  </mgrwgt>
  </event>
  <event>
  7     66 0.18942956E-05 0.58663977E+02 0.75467711E-02 0.92975844E-01
        2 -1    0    0  501    0 0.00000000E+00 0.00000000E+00 0.11757138E+04 0.11757138E+04 0.32000000E+00 0.0000E+00 0.9000E+01
       21 -1    0    0  503  501 0.00000000E+00 0.00000000E+00 -.48018206E+03 0.48018264E+03 0.75000000E+00 0.0000E+00 0.9000E+01
       23  2    1    2    0    0 0.45706182E+03 0.16502412E+03 0.14880440E+03 0.51708085E+03 0.95348765E+02 0.0000E+00 0.0000E+00
       25  1    1    2    0    0 -.48817117E+03 -.26435513E+03 0.73147975E+03 0.92675906E+03 0.12500000E+03 0.0000E+00 0.9000E+01
        4  1    3    3  502    0 0.22269471E+03 0.68042911E+02 0.23130171E+02 0.23400893E+03 0.15500000E+01 0.0000E+00 0.9000E+01
        2  1    1    2  503    0 0.31109352E+02 0.99331018E+02 -.18475240E+03 0.21205658E+03 0.32000000E+00 0.0000E+00 0.9000E+01
       -4  1    3    3    0  502 0.23436711E+03 0.96981206E+02 0.12567423E+03 0.28307192E+03 0.15500000E+01 0.0000E+00 0.9000E+01
#aMCatNLO 2  0  0  2  1 0.22530437D+03 0.00000000D+00  -5  6  0 0.00000000D+00 0.00000000D+00 0.00000000D+00 0.00000000D+00 0.00000000D+00
  <mgrwgt>
 0.4738075013D-04    1    2    0
 0.569855037222239D+03 0.000000000000000D+00 0.000000000000000D+00 0.569855037222239D+03
 0.569855037222239D+03 0.000000000000000D+00 0.000000000000000D+00 -.569855037222239D+03
 0.572721387535894D+03 -.472109830123167D+03 -.213071852448703D+03 0.209994004048192D+03
 0.290601320168098D+03 0.230428094138309D+03 0.927375109607887D+02 -.150836914500481D+03
 0.000000000000000D+00 0.000000000000000D+00 0.000000000000000D+00 -.000000000000000D+00
 0.276387366740487D+03 0.241681735984858D+03 0.120334341487914D+03 -.591570895477109D+02
 0.578949230101471D+03 0.000000000000000D+00 0.000000000000000D+00 0.578949230101471D+03
 0.975140896172124D+03 0.000000000000000D+00 0.000000000000000D+00 -.975140896172124D+03
 0.606561797862917D+03 -.488171174395611D+03 -.264355134959987D+03 0.209994004048192D+03
 0.277438521309185D+03 0.222691628828371D+03 0.680352612985982D+02 -.150836914500481D+03
 0.409636764795496D+03 0.311093516579508D+02 0.993310175509279D+02 -.396191666070653D+03
 0.260453042305997D+03 0.234370193909289D+03 0.969888561104611D+02 -.591570895477109D+02
0.100778230969D-05 0.000000000000D+00 0.000000000000D+00 0.207366324992D-05 0.811691274910D-10  6 2 21 25 4 2 -4 2 0.18087908D+00 0.73874203D-01 0.33619051D+06 0.33619051D+06 0.33619051D+06 0.10809111D+01  1  2  1  6  5  2       -2 0.473807501250D-04 0.100000000000D+01
  </mgrwgt>
  </event>
  <event>
  7     66 0.18942956E-05 0.55807997E+02 0.75467711E-02 0.92519522E-01
        2 -1    0    0  501    0 0.00000000E+00 0.00000000E+00 0.11147953E+04 0.11147954E+04 0.32000000E+00 0.0000E+00 0.9000E+01
       -2 -1    0    0    0  503 0.00000000E+00 0.00000000E+00 -.68376539E+03 0.68376547E+03 0.32000000E+00 0.0000E+00 0.9000E+01
       23  2    1    2    0    0 -.49078898E+03 0.16139609E+03 0.60076187E+03 0.79766841E+03 0.91856089E+02 0.0000E+00 0.0000E+00
       25  1    1    2    0    0 0.54168424E+03 -.22807182E+03 0.19101907E+03 0.63051713E+03 0.12500000E+03 0.0000E+00 0.9000E+01
        4  1    3    3  502    0 -.34941950E+03 0.15697886E+03 0.42801771E+03 0.57440222E+03 0.15500000E+01 0.0000E+00 0.9000E+01
       -4  1    3    3    0  502 -.14136948E+03 0.44172310E+01 0.17274417E+03 0.22326619E+03 0.15500000E+01 0.0000E+00 0.9000E+01
       21  1    1    2  501  503 -.50895255E+02 0.66675721E+02 -.36075103E+03 0.37037528E+03 0.75000000E+00 0.0000E+00 0.9000E+01
#aMCatNLO 2  0  0  2  1 0.22530437D+03 0.00000000D+00  -5  6  0 0.00000000D+00 0.00000000D+00 0.00000000D+00 0.00000000D+00 0.00000000D+00
  <mgrwgt>
 0.2202672005D-03    1    2    0
 0.592823939615531D+03 0.000000000000000D+00 0.000000000000000D+00 0.592823939615531D+03
 0.592823939615531D+03 0.000000000000000D+00 0.000000000000000D+00 -.592823939615531D+03
 0.595854965653023D+03 0.515398815989031D+03 -.193636398138381D+03 -.190491852546152D+03
 0.429974525379148D+03 -.367380311650430D+03 0.180474367472467D+03 0.131676883970078D+03
 0.159818388198891D+03 -.148018504338601D+03 0.131620306659143D+02 0.588149685760737D+02
 0.000000000000000D+00 -.000000000000000D+00 0.000000000000000D+00 -.000000000000000D+00
 0.596881956908881D+03 0.000000000000000D+00 0.000000000000000D+00 0.596881956908881D+03
 0.127706664795013D+04 0.000000000000000D+00 0.000000000000000D+00 -.127706664795013D+04
 0.630357605850091D+03 0.541684236577248D+03 -.228071815905250D+03 -.190491852546152D+03
 0.405129907217604D+03 -.349478789715305D+03 0.157022340732779D+03 0.131676883970078D+03
 0.153123807888578D+03 -.141310191738383D+03 0.437375405744374D+01 0.588149685760737D+02
 0.685337283902735D+03 -.508952551235601D+02 0.666757211150277D+02 -.680184691041247D+03
0.958541247451D-04 0.000000000000D+00 0.000000000000D+00 0.191693821584D-04 0.225398314687D-07  6 2 -2 25 4 -4 21 2 0.17150692D+00 0.10519465D+00 0.36558830D+06 0.36558830D+06 0.36558830D+06 0.10782554D+01  1  2  1  2  6  2       -2 0.220267200545D-03 0.100000000000D+01
  </mgrwgt>
  </event>
  <event>
  6     66 0.18942956E-05 0.25565970E+02 0.75467711E-02 0.94551911E-01
        2 -1    0    0  501    0 0.00000000E+00 0.00000000E+00 0.28304394E+04 0.28304394E+04 0.32000000E+00 0.0000E+00 0.9000E+01
       -2 -1    0    0    0  501 0.00000000E+00 0.00000000E+00 -.15211649E+03 0.15211682E+03 0.32000000E+00 0.0000E+00 0.9000E+01
       23  2    1    2    0    0 -.31286540E+03 -.38215585E+03 0.38386461E+03 0.63221759E+03 0.91756143E+02 0.0000E+00 0.0000E+00
       25  1    1    2    0    0 0.31286540E+03 0.38215585E+03 0.22944583E+04 0.23503386E+04 0.12500000E+03 0.0000E+00 0.9000E+01
        4  1    3    3  502    0 -.32164373E+02 -.16713344E+02 0.55803580E+02 0.66560685E+02 0.15500000E+01 0.0000E+00 0.9000E+01
       -4  1    3    3    0  502 -.28070103E+03 -.36544251E+03 0.32806103E+03 0.56565691E+03 0.15500000E+01 0.0000E+00 0.9000E+01
#aMCatNLO 1  0  0  2  1 0.95472440D+03 0.00000000D+00  -5  6  0 0.00000000D+00 0.00000000D+00 0.00000000D+00 0.00000000D+00 0.00000000D+00
  <mgrwgt>
 0.1064488470D-02    3    2    0
 0.656168438170683D+03 0.000000000000000D+00 0.000000000000000D+00 0.656168438170683D+03
 0.656168438170683D+03 0.000000000000000D+00 0.000000000000000D+00 -.656168438170683D+03
 0.658913850026404D+03 0.312865400627575D+03 0.382155852072839D+03 0.417869127327262D+03
 0.372191735543465D+02 -.320933895575723D+02 -.166137451157836D+02 -.890307250348129D+01
 0.616203852760614D+03 -.280772011070003D+03 -.365542106957056D+03 -.408966054823781D+03
 0.000000000000000D+00 0.000000000000000D+00 0.000000000000000D+00 0.000000000000000D+00
 0.130854791740811D+04 0.000000000000000D+00 0.000000000000000D+00 0.130854791740811D+04
 0.126983703995607D+04 0.000000000000000D+00 0.000000000000000D+00 -.126983703995607D+04
 0.470295957471449D+03 0.170400021549618D+03 0.436178025194911D+02 0.417869127327262D+03
 0.662227860974678D+02 -.451440183216078D+02 -.476257315774473D+02 -.890307250348129D+01
 0.108635733423163D+04 -.495573568139128D+03 -.875971382068255D+03 -.408966054823781D+03
 0.955508879563643D+03 0.370317564911118D+03 0.879979311126211D+03 0.387108774520438D+02
0.244196511596D-03 0.000000000000D+00 0.000000000000D+00 0.681238878661D-05 0.000000000000D+00  6 2 -2 25 4 -4 21 0 0.43545224D+00 0.23402563D-01 0.25327527D+06 0.25327527D+06 0.25327527D+06 0.10900341D+01  1  2  2  2  6  2       -2 0.108698058861D-02 0.100000000000D+01
0.640537828500D-04 0.000000000000D+00 -.937778902947D-06 0.681238878661D-05 0.000000000000D+00  6 2 -2 25 4 -4 21 2 0.43545224D+00 0.23402563D-01 0.25327527D+06 0.25327527D+06 0.25327527D+06 0.10900341D+01  1  2  3  2  6  2       -2 0.338771829273D-03 0.100000000000D+01
-.683065132432D-04 0.000000000000D+00 0.000000000000D+00 0.681238878661D-05 0.000000000000D+00  6 2 -2 25 4 -4 21 2 0.43545224D+00 0.23402563D-01 0.25327527D+06 0.25327527D+06 0.25327527D+06 0.10900341D+01  1  2 15  2  6  2       -2 -.361263947469D-03 0.100000000000D+01
  </mgrwgt>
  </event>
  <event>
  7     66 0.18942956E-05 0.36741954E+02 0.75467711E-02 0.89957629E-01
        2 -1    0    0  503    0 0.00000000E+00 0.00000000E+00 0.30435437E+04 0.30435437E+04 0.32000000E+00 0.0000E+00 0.9000E+01
       -2 -1    0    0    0  501 0.00000000E+00 0.00000000E+00 -.22953130E+03 0.22953152E+03 0.32000000E+00 0.0000E+00 0.9000E+01
       23  2    1    2    0    0 0.65589010E+03 0.39177109E+03 0.10366887E+04 0.12910101E+04 0.91144588E+02 0.0000E+00 0.0000E+00
       25  1    1    2    0    0 -.65147678E+03 -.38166215E+03 0.13290231E+04 0.15336282E+04 0.12500000E+03 0.0000E+00 0.9000E+01
        4  1    3    3  502    0 0.10400194E+03 0.87436793E+02 0.23236099E+03 0.26917583E+03 0.15500000E+01 0.0000E+00 0.9000E+01
       -4  1    3    3    0  502 0.55188816E+03 0.30433429E+03 0.80432770E+03 0.10218343E+04 0.15500000E+01 0.0000E+00 0.9000E+01
       21  1    1    2  503  501 -.44133208E+01 -.10108939E+02 0.44830060E+03 0.44843691E+03 0.75000000E+00 0.0000E+00 0.9000E+01
#aMCatNLO 2  0  0  1  1 0.15999686D+02 0.00000000D+00  -5  6  0 0.00000000D+00 0.00000000D+00 0.00000000D+00 0.00000000D+00 0.00000000D+00
  <mgrwgt>
 0.1651157909D-03    1    2    0
 0.771665033214807D+03 0.000000000000000D+00 0.000000000000000D+00 0.771665033214807D+03
 0.771665033214807D+03 0.000000000000000D+00 0.000000000000000D+00 -.771665033214807D+03
 0.774035771759727D+03 -.653683926739054D+03 -.386717726788017D+03 0.815665352616886D+02
 0.135460229669647D+03 0.103483703462295D+03 0.864839111413718D+02 0.126937013346153D+02
 0.633834065000241D+03 0.550200223276758D+03 0.300233815646645D+03 -.942602365963038D+02
 0.000000000000000D+00 -.000000000000000D+00 -.000000000000000D+00 0.000000000000000D+00
 0.905007589170296D+03 0.000000000000000D+00 0.000000000000000D+00 0.905007589170296D+03
 0.771912887175410D+03 0.000000000000000D+00 0.000000000000000D+00 -.771912887175410D+03
 0.769653227294416D+03 -.651476781305506D+03 -.381662146446215D+03 0.815665352616886D+02
 0.136326089017435D+03 0.103872299826303D+03 0.873740111361033D+02 0.126937013346153D+02
 0.637390166990628D+03 0.552017802310082D+03 0.304397074075781D+03 -.942602365963038D+02
 0.133550993043226D+03 -.441332083087928D+01 -.101089387656692D+02 0.133094701994886D+03
0.975810449220D-04 0.000000000000D+00 0.000000000000D+00 0.241593744680D-04 0.121223212529D-05  6 2 -2 25 4 -4 21 2 0.46823687D+00 0.35312478D-01 0.59479945D+06 0.59479945D+06 0.59479945D+06 0.10632219D+01  1  2  1  1  6  1        2 0.165115790934D-03 0.100000000000D+01
  </mgrwgt>
  </event>
  <event>
  7     66 0.18942956E-05 0.35940079E+02 0.75467711E-02 0.93251847E-01
        2 -1    0    0  503    0 0.00000000E+00 0.00000000E+00 0.15174784E+04 0.15174784E+04 0.32000000E+00 0.0000E+00 0.9000E+01
       -2 -1    0    0    0  501 0.00000000E+00 0.00000000E+00 -.25123465E+03 0.25123486E+03 0.32000000E+00 0.0000E+00 0.9000E+01
       23  2    1    2    0    0 0.13347678E+03 -.53746703E+03 0.29098983E+03 0.63203312E+03 0.90021779E+02 0.0000E+00 0.0000E+00
       25  1    1    2    0    0 -.13724537E+03 0.47828817E+03 0.78835200E+03 0.94059542E+03 0.12500000E+03 0.0000E+00 0.9000E+01
        4  1    3    3  502    0 -.90417830E+00 -.11822493E+03 0.37637876E+02 0.12408450E+03 0.15500000E+01 0.0000E+00 0.9000E+01
       -4  1    3    3    0  502 0.13438095E+03 -.41924211E+03 0.25335195E+03 0.50794862E+03 0.15500000E+01 0.0000E+00 0.9000E+01
       21  1    1    2  503  501 0.37685983E+01 0.59178861E+02 0.18690190E+03 0.19608473E+03 0.75000000E+00 0.0000E+00 0.9000E+01
#aMCatNLO 2  0  0  1  1 0.15999686D+02 0.00000000D+00  -5  6  0 0.00000000D+00 0.00000000D+00 0.00000000D+00 0.00000000D+00 0.00000000D+00
  <mgrwgt>
 0.3006861622D-03    1    2    0
 0.571109752167718D+03 0.000000000000000D+00 0.000000000000000D+00 0.571109752167718D+03
 0.571109752167718D+03 0.000000000000000D+00 0.000000000000000D+00 -.571109752167718D+03
 0.574402061350068D+03 -.135392813502025D+03 0.507379217948328D+03 0.196336046943389D+03
 0.129055720085810D+03 -.509009467746431D+00 -.111299851230442D+03 -.653258211759339D+02
 0.438761722899558D+03 0.135901822969772D+03 -.396079366717886D+03 -.131010225767455D+03
 0.000000000000000D+00 0.000000000000000D+00 0.000000000000000D+00 0.000000000000000D+00
 0.654465580668477D+03 0.000000000000000D+00 0.000000000000000D+00 0.654465580668477D+03
 0.582523249959056D+03 0.000000000000000D+00 0.000000000000000D+00 -.582523249959056D+03
 0.549334790867999D+03 -.137245374739241D+03 0.478288172800998D+03 0.196336046943389D+03
 0.134997689166052D+03 -.944320554651871D+00 -.118135606091280D+03 -.653258211759339D+02
 0.459425246055587D+03 0.134421096980253D+03 -.419331427565622D+03 -.131010225767455D+03
 0.932311045378946D+02 0.376859831363989D+01 0.591788608559041D+02 0.719423307094217D+02
0.259097655533D-04 0.000000000000D+00 0.000000000000D+00 0.101726929719D-04 0.181141818060D-07  6 2 -2 25 4 -4 21 2 0.23345763D+00 0.38651405D-01 0.31969887D+06 0.31969887D+06 0.31969887D+06 0.10825143D+01  1  2  1  1  6  1        2 0.300686162158D-03 0.100000000000D+01
  </mgrwgt>
  </event>
  <event>
  7     66 0.18942956E-05 0.34865913E+02 0.75467711E-02 0.91656835E-01
        2 -1    0    0  501    0 0.00000000E+00 0.00000000E+00 0.43470686E+03 0.43470698E+03 0.32000000E+00 0.0000E+00 0.9000E+01
       -2 -1    0    0    0  503 0.00000000E+00 0.00000000E+00 -.11965871E+04 0.11965871E+04 0.32000000E+00 0.0000E+00 0.9000E+01
       23  2    1    2    0    0 0.57868892E+03 -.20989791E+03 -.29344557E+03 0.68812811E+03 0.92043474E+02 0.0000E+00 0.0000E+00
       25  1    1    2    0    0 -.55025240E+03 0.26725516E+03 -.18298429E+03 0.65062376E+03 0.12500000E+03 0.0000E+00 0.9000E+01
        4  1    3    3  502    0 0.21164780E+03 -.31314898E+02 -.91119675E+02 0.23255238E+03 0.15500000E+01 0.0000E+00 0.9000E+01
       -4  1    3    3    0  502 0.36704113E+03 -.17858301E+03 -.20232590E+03 0.45557573E+03 0.15500000E+01 0.0000E+00 0.9000E+01
       21  1    1    2  501  503 -.28436521E+02 -.57357255E+02 -.28545036E+03 0.29254223E+03 0.75000000E+00 0.0000E+00 0.9000E+01
#aMCatNLO 2  0  0  2  1 0.23214878D+02 0.00000000D+00  -5  6  0 0.00000000D+00 0.00000000D+00 0.00000000D+00 0.00000000D+00 0.00000000D+00
  <mgrwgt>
 0.1473715706D-03    1    2    0
 0.624734478564873D+03 0.000000000000000D+00 0.000000000000000D+00 0.624734478564873D+03
 0.624734478564873D+03 0.000000000000000D+00 0.000000000000000D+00 -.624734478564873D+03
 0.627596894294385D+03 -.564514200825787D+03 0.238488711496992D+03 0.519587652132425D+02
 0.210989285703347D+03 0.206769710505613D+03 -.410233729336576D+02 -.893579163698982D+01
 0.410882777132014D+03 0.357744490320175D+03 -.197465338563334D+03 -.430229735762526D+02
 0.000000000000000D+00 -.000000000000000D+00 -.000000000000000D+00 -.000000000000000D+00
 0.630697963471779D+03 0.000000000000000D+00 0.000000000000000D+00 0.630697963471779D+03
 0.824742829508224D+03 0.000000000000000D+00 0.000000000000000D+00 -.824742829508224D+03
 0.626520341386378D+03 -.550252399657318D+03 0.267255161895485D+03 0.519587652132425D+02
 0.214088713129509D+03 0.211603690717322D+03 -.312731001353744D+02 -.893579163698982D+01
 0.410498920549675D+03 0.367085229863872D+03 -.178624806600017D+03 -.430229735762526D+02
 0.204332817914441D+03 -.284365209238769D+02 -.573572551600943D+02 -.194044866036445D+03
0.905237704608D-04 0.000000000000D+00 0.000000000000D+00 0.226583061774D-04 0.353627049171D-07  6 2 -2 25 4 -4 21 2 0.66877919D-01 0.18409013D+00 0.42936688D+06 0.42936688D+06 0.42936688D+06 0.10732165D+01  1  2  1  2  6  2       -2 0.147371570624D-03 0.100000000000D+01
  </mgrwgt>
  </event>
  <event>
  7     66 0.18942956E-05 0.48831263E+02 0.75467711E-02 0.94641141E-01
        2 -1    0    0  503    0 0.00000000E+00 0.00000000E+00 0.58266529E+03 0.58266538E+03 0.32000000E+00 0.0000E+00 0.9000E+01
       -2 -1    0    0    0  501 0.00000000E+00 0.00000000E+00 -.47340920E+03 0.47340931E+03 0.32000000E+00 0.0000E+00 0.9000E+01
       23  2    1    2    0    0 -.10145805E+03 -.47656810E+03 0.17470675E+03 0.52554704E+03 0.90919475E+02 0.0000E+00 0.0000E+00
       25  1    1    2    0    0 0.92752811E+02 0.46618715E+03 -.92639983E+02 0.50014069E+03 0.12500000E+03 0.0000E+00 0.9000E+01
        4  1    3    3  502    0 -.10875337E+03 -.34306225E+03 0.10578670E+03 0.37511629E+03 0.15500000E+01 0.0000E+00 0.9000E+01
       -4  1    3    3    0  502 0.72953216E+01 -.13350585E+03 0.68920054E+02 0.15043075E+03 0.15500000E+01 0.0000E+00 0.9000E+01
       21  1    1    2  503  501 0.87052411E+01 0.10380947E+02 0.27189325E+02 0.30386958E+02 0.75000000E+00 0.0000E+00 0.9000E+01
#aMCatNLO 2  0  0  1  1 0.16183275D+02 0.00000000D+00  -5  6  0 0.00000000D+00 0.00000000D+00 0.00000000D+00 0.00000000D+00 0.00000000D+00
  <mgrwgt>
 0.7577287032D-03    1    2    0
 0.511154777311593D+03 0.000000000000000D+00 0.000000000000000D+00 0.511154777311593D+03
 0.511154777311593D+03 0.000000000000000D+00 0.000000000000000D+00 -.511154777311593D+03
 0.514753809170984D+03 0.971121788256784D+02 0.471385673475570D+03 -.133083641450595D+03
 0.363517875197258D+03 -.105673173842501D+03 -.339409829285516D+03 0.760223237105967D+02
 0.144037870254945D+03 0.856099501682247D+01 -.131975844190054D+03 0.570613177399985D+02
 0.000000000000000D+00 0.000000000000000D+00 0.000000000000000D+00 0.000000000000000D+00
 0.537764410497430D+03 0.000000000000000D+00 0.000000000000000D+00 0.537764410497430D+03
 0.512926999025842D+03 0.000000000000000D+00 0.000000000000000D+00 -.512926999025842D+03
 0.509185429908824D+03 0.927528110496736D+02 0.466187153890009D+03 -.133083641450595D+03
 0.367896135655707D+03 -.108787130753358D+03 -.343123203981450D+03 0.760223237105967D+02
 0.145317755034303D+03 0.732907857046648D+01 -.133444897067264D+03 0.570613177399985D+02
 0.282920889244377D+02 0.870524113321837D+01 0.103809471587044D+02 0.248374114715886D+02
0.579774945839D-04 0.000000000000D+00 0.000000000000D+00 0.236033654381D-04 0.816888336009D-06  6 2 -2 25 4 -4 21 2 0.89639964D-01 0.72831496D-01 0.24931834D+06 0.24931834D+06 0.24931834D+06 0.10905483D+01  1  2  1  1  6  1        2 0.757728703175D-03 0.100000000000D+01
  </mgrwgt>
  </event>
  <event>
  7     66 0.18942956E-05 0.74898108E+02 0.75467711E-02 0.89333536E-01
        2 -1    0    0  501    0 0.00000000E+00 0.00000000E+00 0.19136384E+04 0.19136384E+04 0.32000000E+00 0.0000E+00 0.9000E+01
       -2 -1    0    0    0  503 0.00000000E+00 0.00000000E+00 -.41549208E+03 0.41549220E+03 0.32000000E+00 0.0000E+00 0.9000E+01
       23  2    1    2    0    0 -.81127374E+03 -.27694613E+02 0.73727690E+03 0.11009854E+04 0.98283309E+02 0.0000E+00 0.0000E+00
       25  1    1    2    0    0 0.79478267E+03 0.35182485E+02 0.83011815E+03 0.11565632E+04 0.12500000E+03 0.0000E+00 0.9000E+01
        4  1    3    3  502    0 -.47200227E+03 0.28521547E+02 0.40110560E+03 0.62007075E+03 0.15500000E+01 0.0000E+00 0.9000E+01
       -4  1    3    3    0  502 -.33927146E+03 -.56216160E+02 0.33617129E+03 0.48091467E+03 0.15500000E+01 0.0000E+00 0.9000E+01
       21  1    1    2  501  503 0.16491066E+02 -.74878720E+01 -.69248765E+02 0.71581963E+02 0.75000000E+00 0.0000E+00 0.9000E+01
#aMCatNLO 2  0  0  2  1 0.18447015D+02 0.00000000D+00  -5  6  0 0.00000000D+00 0.00000000D+00 0.00000000D+00 0.00000000D+00 0.00000000D+00
  <mgrwgt>
 0.4627115607D-03    1    2    0
 0.812322371800246D+03 0.000000000000000D+00 0.000000000000000D+00 0.812322371800246D+03
 0.812322371800246D+03 0.000000000000000D+00 0.000000000000000D+00 -.812322371800246D+03
 0.814158279151238D+03 0.803006209230791D+03 0.314485362800788D+02 0.376924529997877D+02
 0.469766515927440D+03 -.467242227888571D+03 0.263663014333138D+02 -.408668339005794D+02
 0.340719948521814D+03 -.335763981342220D+03 -.578148377133926D+02 0.317438090079177D+01
 0.000000000000000D+00 0.000000000000000D+00 -.000000000000000D+00 -.000000000000000D+00
 0.812867544842823D+03 0.000000000000000D+00 0.000000000000000D+00 0.812867544842823D+03
 0.978142265699304D+03 0.000000000000000D+00 0.000000000000000D+00 -.978142265699304D+03
 0.806202843292511D+03 0.794782672358236D+03 0.351824848310759D+02 0.376924529997877D+02
 0.474659999545203D+03 -.472035311458544D+03 0.285426311231141D+02 -.408668339005794D+02
 0.343882849998840D+03 -.339238426809165D+03 -.562372439337483D+02 0.317438090079177D+01
 0.166264117705573D+03 0.164910659094723D+02 -.748787202044174D+01 -.165274720856481D+03
0.193834867467D-03 0.000000000000D+00 0.000000000000D+00 0.914322619560D-06 0.169797433126D-07  6 2 -2 25 4 -4 21 2 0.29440561D+00 0.63921803D-01 0.67256264D+06 0.67256264D+06 0.67256264D+06 0.10595274D+01  1  2  1  2  6  2       -2 0.462711560749D-03 0.100000000000D+01
  </mgrwgt>
  </event>
  <event>
  7     66 0.18942956E-05 0.71848696E+02 0.75467711E-02 0.93264079E-01
        2 -1    0    0  501    0 0.00000000E+00 0.00000000E+00 0.67642244E+03 0.67642252E+03 0.32000000E+00 0.0000E+00 0.9000E+01
       21 -1    0    0  503  501 0.00000000E+00 0.00000000E+00 -.47518701E+03 0.47518760E+03 0.75000000E+00 0.0000E+00 0.9000E+01
       23  2    1    2    0    0 -.48289876E+03 -.25929444E+03 0.78596010E+02 0.56123953E+03 0.91584114E+02 0.0000E+00 0.0000E+00
       25  1    1    2    0    0 0.37590886E+03 0.24739339E+03 0.12198797E+03 0.48271837E+03 0.12500000E+03 0.0000E+00 0.9000E+01
        4  1    3    3  502    0 -.28221370E+03 -.19902755E+03 0.34061412E+02 0.34701458E+03 0.15500000E+01 0.0000E+00 0.9000E+01
        2  1    1    2  503    0 0.10698990E+03 0.11901057E+02 0.65145369E+00 0.10765222E+03 0.32000000E+00 0.0000E+00 0.9000E+01
       -4  1    3    3    0  502 -.20068507E+03 -.60266888E+02 0.44534598E+02 0.21422494E+03 0.15500000E+01 0.0000E+00 0.9000E+01
#aMCatNLO 2  0  0  2  1 0.15187795D+03 0.00000000D+00  -5  6  0 0.00000000D+00 0.00000000D+00 0.00000000D+00 0.00000000D+00 0.00000000D+00
  <mgrwgt>
 0.4586249832D-04    1    2    0
 0.509417725627218D+03 0.000000000000000D+00 0.000000000000000D+00 0.509417725627218D+03
 0.509417725627218D+03 0.000000000000000D+00 0.000000000000000D+00 -.509417725627218D+03
 0.512969501545763D+03 0.427272646503628D+03 0.253106853134559D+03 0.297945626283591D+02
 0.316941418616613D+03 -.247474315820204D+03 -.195200487572194D+03 -.332429766358378D+02
 0.000000000000000D+00 0.000000000000000D+00 0.000000000000000D+00 -.000000000000000D+00
 0.188924531092061D+03 -.179798330683424D+03 -.579063655623648D+02 0.344841400747861D+01
 0.556830951524265D+03 0.000000000000000D+00 0.000000000000000D+00 0.556830951524265D+03
 0.577243907809384D+03 0.000000000000000D+00 0.000000000000000D+00 -.577243907809384D+03
 0.467999652154377D+03 0.375908860352474D+03 0.247393385446956D+03 0.297945626283591D+02
 0.346973574668408D+03 -.282237068154474D+03 -.199067333789673D+03 -.332429766358378D+02
 0.109568075060814D+03 0.106989901999839D+03 0.119010570244371D+02 -.204129562851185D+02
 0.209533557450051D+03 -.200661694197839D+03 -.602271086817200D+02 0.344841400747861D+01
0.444142412803D-06 0.000000000000D+00 0.000000000000D+00 0.293838137143D-04 0.324755615685D-09  6 2 21 25 4 2 -4 2 0.10406500D+00 0.73105715D-01 0.31898924D+06 0.31898924D+06 0.31898924D+06 0.10825853D+01  1  2  1  6  5  2       -2 0.458624983237D-04 0.100000000000D+01
  </mgrwgt>
  </event>
  <event>
  7     66 0.18942956E-05 0.74012456E+02 0.75467711E-02 0.93335453E-01
        2 -1    0    0  501    0 0.00000000E+00 0.00000000E+00 0.12261644E+04 0.12261645E+04 0.32000000E+00 0.0000E+00 0.9000E+01
       -2 -1    0    0    0  503 0.00000000E+00 0.00000000E+00 -.30488845E+03 0.30488862E+03 0.32000000E+00 0.0000E+00 0.9000E+01
       23  2    1    2    0    0 0.42008513E+03 -.35070368E+03 0.18020033E+03 0.58234874E+03 0.84813375E+02 0.0000E+00 0.0000E+00
       25  1    1    2    0    0 -.40852279E+03 0.35873973E+03 0.74789891E+03 0.93303958E+03 0.12500000E+03 0.0000E+00 0.9000E+01
        4  1    3    3  502    0 0.18176044E+03 -.18975134E+03 0.11834276E+03 0.28818369E+03 0.15500000E+01 0.0000E+00 0.9000E+01
       -4  1    3    3    0  502 0.23832470E+03 -.16095234E+03 0.61857566E+02 0.29416505E+03 0.15500000E+01 0.0000E+00 0.9000E+01
       21  1    1    2  501  503 -.11562337E+02 -.80360505E+01 -.68232640E+01 0.15664775E+02 0.75000000E+00 0.0000E+00 0.9000E+01
#aMCatNLO 2  0  0  2  1 0.15187795D+03 0.00000000D+00  -5  6  0 0.00000000D+00 0.00000000D+00 0.00000000D+00 0.00000000D+00 0.00000000D+00
  <mgrwgt>
 0.3156959722D-03    1    2    0
 0.598923050217615D+03 0.000000000000000D+00 0.000000000000000D+00 0.598923050217615D+03
 0.598923050217615D+03 0.000000000000000D+00 0.000000000000000D+00 -.598923050217615D+03
 0.602442572398732D+03 -.414330118387365D+03 0.354703524811465D+03 0.223221897496273D+03
 0.272388399382090D+03 0.179110126036385D+03 -.191589840246351D+03 -.735413895948715D+02
 0.323015128654407D+03 0.235219992350979D+03 -.163113684565113D+03 -.149680507901402D+03
 0.000000000000000D+00 -.000000000000000D+00 -.000000000000000D+00 -.000000000000000D+00
 0.601126133525857D+03 0.000000000000000D+00 0.000000000000000D+00 0.601126133525857D+03
 0.621893751528587D+03 0.000000000000000D+00 0.000000000000000D+00 -.621893751528587D+03
 0.600864445654905D+03 -.408522794553936D+03 0.358739728577952D+03 0.223221897496273D+03
 0.272850769184397D+03 0.181741524649564D+03 -.189760966689739D+03 -.735413895948715D+02
 0.324213642007749D+03 0.238343606698070D+03 -.160942711436284D+03 -.149680507901402D+03
 0.250910282073930D+02 -.115623367936986D+02 -.803605045192881D+01 -.207676180027304D+02
0.269850115889D-04 0.000000000000D+00 0.000000000000D+00 0.134069933522D-05 0.423326633023D-07  6 2 -2 25 4 -4 21 2 0.18863894D+00 0.46905496D-01 0.31488356D+06 0.31488356D+06 0.31488356D+06 0.10829995D+01  1  2  1  2  6  2       -2 0.315695972245D-03 0.100000000000D+01
  </mgrwgt>
  </event>
  <event>
  7     66 0.18942956E-05 0.25012741E+03 0.75467711E-02 0.89315264E-01
        2 -1    0    0  501    0 0.00000000E+00 0.00000000E+00 0.24511002E+04 0.24511002E+04 0.32000000E+00 0.0000E+00 0.9000E+01
       21 -1    0    0  503  501 0.00000000E+00 0.00000000E+00 -.31610199E+03 0.31610288E+03 0.75000000E+00 0.0000E+00 0.9000E+01
       23  2    1    2    0    0 -.30649093E+03 -.59726080E+02 0.18324463E+03 0.37368966E+03 0.92528229E+02 0.0000E+00 0.0000E+00
       25  1    1    2    0    0 -.13212848E+03 -.54302188E+03 0.12258449E+04 0.13530157E+04 0.12500000E+03 0.0000E+00 0.9000E+01
        4  1    3    3  502    0 -.14993098E+03 0.16628093E+02 0.96611000E+02 0.17914207E+03 0.15500000E+01 0.0000E+00 0.9000E+01
        2  1    1    2  503    0 0.43861941E+03 0.60274796E+03 0.72590869E+03 0.10404978E+04 0.32000000E+00 0.0000E+00 0.9000E+01
       -4  1    3    3    0  502 -.15655994E+03 -.76354174E+02 0.86633625E+02 0.19454759E+03 0.15500000E+01 0.0000E+00 0.9000E+01
#aMCatNLO 2  0  0  2  1 0.15187795D+03 0.00000000D+00  -5  6  0 0.00000000D+00 0.00000000D+00 0.00000000D+00 0.00000000D+00 0.00000000D+00
  <mgrwgt>
 0.4228527240D-03    1    2    0
 0.331770220401544D+03 0.000000000000000D+00 0.000000000000000D+00 0.331770220401544D+03
 0.331770220401544D+03 0.000000000000000D+00 0.000000000000000D+00 -.331770220401544D+03
 0.337092827643044D+03 0.117933323107275D+03 -.199388564486445D+03 0.210576603879189D+03
 0.177015684898982D+03 -.573901118660010D+02 0.143820715105981D+03 -.857702143326436D+02
 0.000000000000000D+00 0.000000000000000D+00 0.000000000000000D+00 -.000000000000000D+00
 0.149431928261063D+03 -.605432112412736D+02 0.555678493804643D+02 -.124806389546545D+03
 0.780078596000646D+03 0.000000000000000D+00 0.000000000000000D+00 0.780078596000646D+03
 0.993231779351010D+03 0.000000000000000D+00 0.000000000000000D+00 -.993231779351010D+03
 0.610162446360192D+03 -.132128483792135D+03 -.543021885947291D+03 0.210576603879189D+03
 0.173529924318218D+03 -.149929125210368D+03 0.166542000970499D+02 -.857702143326436D+02
 0.775323397568170D+03 0.438619409051979D+03 0.602747961628366D+03 -.213153183350364D+03
 0.214294607105075D+03 -.156561800049477D+03 -.763802757781241D+02 -.124806389546545D+03
0.198210668848D-04 0.000000000000D+00 0.000000000000D+00 0.126649393944D-04 0.101651303243D-09  6 2 21 25 4 2 -4 2 0.37709239D+00 0.48631144D-01 0.67500416D+06 0.67500416D+06 0.67500416D+06 0.10594190D+01  1  2  1  6  5  2       -2 0.422852724025D-03 0.100000000000D+01
  </mgrwgt>
  </event>
  <event>
  7     66 0.18942956E-05 0.70690046E+02 0.75467711E-02 0.91100453E-01
        2 -1    0    0  503    0 0.00000000E+00 0.00000000E+00 0.62798510E+03 0.62798518E+03 0.32000000E+00 0.0000E+00 0.9000E+01
       -2 -1    0    0    0  501 0.00000000E+00 0.00000000E+00 -.83616620E+03 0.83616626E+03 0.32000000E+00 0.0000E+00 0.9000E+01
       23  2    1    2    0    0 0.63613494E+03 -.24976324E+03 0.34562174E+02 0.69116825E+03 0.97312198E+02 0.0000E+00 0.0000E+00
       25  1    1    2    0    0 -.61852157E+03 0.24637741E+03 -.27892364E+03 0.73259413E+03 0.12500000E+03 0.0000E+00 0.9000E+01
        4  1    3    3  502    0 0.39187598E+03 -.12220266E+03 0.58174929E+02 0.41459257E+03 0.15500000E+01 0.0000E+00 0.9000E+01
       -4  1    3    3    0  502 0.24425897E+03 -.12756058E+03 -.23612756E+02 0.27657568E+03 0.15500000E+01 0.0000E+00 0.9000E+01
       21  1    1    2  503  501 -.17613377E+02 0.33858280E+01 0.36180364E+02 0.40389060E+02 0.75000000E+00 0.0000E+00 0.9000E+01
#aMCatNLO 2  0  0  1  1 0.81041146D+02 0.00000000D+00  -5  6  0 0.00000000D+00 0.00000000D+00 0.00000000D+00 0.00000000D+00 0.00000000D+00
  <mgrwgt>
 0.3589004862D-03    1    2    0
 0.701260488056132D+03 0.000000000000000D+00 0.000000000000000D+00 0.701260488056132D+03
 0.701260488056132D+03 0.000000000000000D+00 0.000000000000000D+00 -.701260488056132D+03
 0.703454872375425D+03 -.627302590142565D+03 0.248065393091272D+03 -.155495268801428D+03
 0.425829855957867D+03 0.386533412423113D+03 -.121167101329418D+03 0.131306971867711D+03
 0.273236247778971D+03 0.240769177719452D+03 -.126898291761854D+03 0.241882969337173D+02
 0.000000000000000D+00 -.000000000000000D+00 0.000000000000000D+00 0.000000000000000D+00
 0.746845845670502D+03 0.000000000000000D+00 0.000000000000000D+00 0.746845845670502D+03
 0.703084294589566D+03 0.000000000000000D+00 0.000000000000000D+00 -.703084294589566D+03
 0.695035638646560D+03 -.618521568489148D+03 0.246377413094072D+03 -.155495268801428D+03
 0.431011414053798D+03 0.391913457325967D+03 -.122201309937310D+03 0.131306971867711D+03
 0.276588603244729D+03 0.244221488539135D+03 -.127561931123849D+03 0.241882969337173D+02
 0.472944843149801D+02 -.176133773759540D+02 0.338582796708694D+01 0.437615510809366D+02
0.124555673406D-03 0.000000000000D+00 0.000000000000D+00 0.135961532998D-05 0.258595481650D-07  6 2 -2 25 4 -4 21 2 0.96612695D-01 0.12864042D+00 0.47707094D+06 0.47707094D+06 0.47707094D+06 0.10699542D+01  1  2  1  1  6  1        2 0.358900486241D-03 0.100000000000D+01
  </mgrwgt>
  </event>
  <event>
  7     66 0.18942956E-05 0.32194272E+03 0.75467711E-02 0.89858002E-01
        2 -1    0    0  501    0 0.00000000E+00 0.00000000E+00 0.29367315E+04 0.29367315E+04 0.32000000E+00 0.0000E+00 0.9000E+01
       -2 -1    0    0    0  503 0.00000000E+00 0.00000000E+00 -.23453341E+03 0.23453363E+03 0.32000000E+00 0.0000E+00 0.9000E+01
       23  2    1    2    0    0 -.20944969E+03 0.60405204E+03 0.16350530E+04 0.17579889E+04 0.91534065E+02 0.0000E+00 0.0000E+00
       25  1    1    2    0    0 0.43510610E+03 -.32528923E+03 0.54327036E+03 0.77839455E+03 0.12500000E+03 0.0000E+00 0.9000E+01
        4  1    3    3  502    0 -.10609235E+03 0.22804829E+03 0.74326463E+03 0.78466957E+03 0.15500000E+01 0.0000E+00 0.9000E+01
       -4  1    3    3    0  502 -.10335734E+03 0.37600374E+03 0.89178838E+03 0.97331930E+03 0.15500000E+01 0.0000E+00 0.9000E+01
       21  1    1    2  501  503 -.22565641E+03 -.27876281E+03 0.52387468E+03 0.63488169E+03 0.75000000E+00 0.0000E+00 0.9000E+01
#aMCatNLO 2  0  0  2  1 0.41554210D+01 0.00000000D+00  -5  6  0 0.00000000D+00 0.00000000D+00 0.00000000D+00 0.00000000D+00 0.00000000D+00
  <mgrwgt>
 0.5245313662D-04    1    2    0
 0.624403447534433D+03 0.000000000000000D+00 0.000000000000000D+00 0.624403447534433D+03
 0.624403447534433D+03 0.000000000000000D+00 0.000000000000000D+00 -.624403447534433D+03
 0.627304822904670D+03 0.325646056352515D+03 -.460509801645291D+03 -.244482533957191D+03
 0.265444357375066D+03 -.154895137408568D+03 0.167718679701645D+03 0.135420263434170D+03
 0.356057714789131D+03 -.170750918943947D+03 0.292791121943645D+03 0.109062270523022D+03
 0.000000000000000D+00 -.000000000000000D+00 -.000000000000000D+00 -.000000000000000D+00
 0.809309506249597D+03 0.000000000000000D+00 0.000000000000000D+00 0.809309506249597D+03
 0.851048179959059D+03 0.000000000000000D+00 0.000000000000000D+00 -.851048179959059D+03
 0.608709378974133D+03 0.435106096342035D+03 -.325289230634740D+03 -.244482533957191D+03
 0.285623985697929D+03 -.106093139196865D+03 0.228005831663897D+03 0.135420263434170D+03
 0.404954200374472D+03 -.103356552002460D+03 0.376046205548539D+03 0.109062270523022D+03
 0.361070121162123D+03 -.225656405142711D+03 -.278762806577696D+03 -.417386737094618D+02
0.276454874809D-04 0.000000000000D+00 0.000000000000D+00 0.314668425407D-04 0.159781292553D-08  6 2 -2 25 4 -4 21 2 0.45180465D+00 0.36082065D-01 0.60651063D+06 0.60651063D+06 0.60651063D+06 0.10626330D+01  1  2  1  2  6  2       -2 0.524531366229D-04 0.100000000000D+01
  </mgrwgt>
  </event>
  <event>
  7     66 0.18942956E-05 0.23900111E+02 0.75467711E-02 0.91020946E-01
        2 -1    0    0  503    0 0.00000000E+00 0.00000000E+00 0.11356821E+04 0.11356822E+04 0.32000000E+00 0.0000E+00 0.9000E+01
       -2 -1    0    0    0  501 0.00000000E+00 0.00000000E+00 -.44863197E+03 0.44863208E+03 0.32000000E+00 0.0000E+00 0.9000E+01
       23  2    1    2    0    0 0.68221450E+03 0.61648556E+02 0.22816837E+03 0.72512126E+03 0.67252283E+02 0.0000E+00 0.0000E+00
       25  1    1    2    0    0 -.67814857E+03 -.48182963E+02 0.39998754E+03 0.79863766E+03 0.12500000E+03 0.0000E+00 0.9000E+01
        4  1    3    3  502    0 0.56227969E+03 0.68643516E+02 0.20716778E+03 0.60315112E+03 0.15500000E+01 0.0000E+00 0.9000E+01
       -4  1    3    3    0  502 0.11993481E+03 -.69949593E+01 0.21000591E+02 0.12197014E+03 0.15500000E+01 0.0000E+00 0.9000E+01
       21  1    1    2  503  501 -.40659326E+01 -.13465593E+02 0.58894252E+02 0.60555342E+02 0.75000000E+00 0.0000E+00 0.9000E+01
#aMCatNLO 2  0  0  1  2 0.10065004D+02 0.00000000D+00  -5  6  0 0.00000000D+00 0.00000000D+00 0.00000000D+00 0.00000000D+00 0.00000000D+00
  <mgrwgt>
 0.1635222255D-03    1    2    0
 0.694093572453101D+03 0.000000000000000D+00 0.000000000000000D+00 0.694093572453101D+03
 0.694093572453101D+03 0.000000000000000D+00 0.000000000000000D+00 -.694093572453101D+03
 0.698092359931293D+03 -.680189548862080D+03 -.549423015008644D+02 0.776625013699028D+02
 0.566234245227075D+03 0.560853262971120D+03 0.631802734521850D+02 -.455312082974993D+02
 0.123860539747832D+03 0.119336285890960D+03 -.823797195132059D+01 -.321312930724035D+02
 0.000000000000000D+00 -.000000000000000D+00 -.000000000000000D+00 0.000000000000000D+00
 0.732655569050953D+03 0.000000000000000D+00 0.000000000000000D+00 0.732655569050953D+03
 0.695413090350640D+03 0.000000000000000D+00 0.000000000000000D+00 -.695413090350640D+03
 0.695603006567723D+03 -.678148568308387D+03 -.481829630503365D+02 0.776625013699028D+02
 0.568518881131388D+03 0.562515038650233D+03 0.686837576591527D+02 -.455312082974993D+02
 0.124136518829339D+03 0.119699462224968D+03 -.703520117805659D+01 -.321312930724035D+02
 0.398102528731432D+02 -.406593256681396D+01 -.134655934307596D+02 0.372424787003122D+02
0.285196219646D-04 0.000000000000D+00 0.000000000000D+00 0.791350076267D-07 0.244323261997D-08  6 2 -2 25 4 -4 21 2 0.17471945D+00 0.69019965D-01 0.48435948D+06 0.48435948D+06 0.48435948D+06 0.10694872D+01  1  2  1  1  6  1        2 0.163522225491D-03 0.100000000000D+01
  </mgrwgt>
  </event>
  <event>
  7     66 0.18942956E-05 0.34505118E+02 0.75467711E-02 0.95362371E-01
        2 -1    0    0  503    0 0.00000000E+00 0.00000000E+00 0.22567982E+04 0.22567982E+04 0.32000000E+00 0.0000E+00 0.9000E+01
       -2 -1    0    0    0  501 0.00000000E+00 0.00000000E+00 -.10146857E+03 0.10146908E+03 0.32000000E+00 0.0000E+00 0.9000E+01
       23  2    1    2    0    0 -.21229472E+03 -.38417434E+03 0.12177426E+04 0.12976370E+04 0.91135856E+02 0.0000E+00 0.0000E+00
       25  1    1    2    0    0 0.20508000E+03 0.40656290E+03 0.88808296E+03 0.10058169E+04 0.12500000E+03 0.0000E+00 0.9000E+01
        4  1    3    3  502    0 -.52087718E+02 -.54950757E+02 0.30345642E+03 0.31276336E+03 0.15500000E+01 0.0000E+00 0.9000E+01
       -4  1    3    3    0  502 -.16020700E+03 -.32922358E+03 0.91428623E+03 0.98487368E+03 0.15500000E+01 0.0000E+00 0.9000E+01
       21  1    1    2  503  501 0.72147130E+01 -.22388562E+02 0.49504034E+02 0.54813426E+02 0.75000000E+00 0.0000E+00 0.9000E+01
#aMCatNLO 2  0  0  1  2 0.10065004D+02 0.00000000D+00  -5  6  0 0.00000000D+00 0.00000000D+00 0.00000000D+00 0.00000000D+00 0.00000000D+00
  <mgrwgt>
 0.1983441528D-03    1    2    0
 0.466595389588548D+03 0.000000000000000D+00 0.000000000000000D+00 0.466595389588548D+03
 0.466595389588548D+03 0.000000000000000D+00 0.000000000000000D+00 -.466595389588548D+03
 0.470517018539521D+03 0.208748086304008D+03 0.395180181076210D+03 -.775765794831648D+02
 0.880707098648167D+02 -.513792693867926D+02 -.569726635300108D+02 0.432520083194792D+02
 0.374603050772758D+03 -.157368816917216D+03 -.338207517546199D+03 0.343245711636856D+02
 0.000000000000000D+00 0.000000000000000D+00 -.000000000000000D+00 -.000000000000000D+00
 0.477780146518114D+03 0.000000000000000D+00 0.000000000000000D+00 0.477780146518114D+03
 0.479276941460968D+03 0.000000000000000D+00 0.000000000000000D+00 -.479276941460968D+03
 0.478533518479328D+03 0.205080004622026D+03 0.406562903285737D+03 -.775765794831648D+02
 0.871290541928485D+02 -.520564167252749D+02 -.548713526222615D+02 0.432520083194792D+02
 0.367824615312636D+03 -.160238300907730D+03 -.329302988699650D+03 0.343245711636856D+02
 0.235698999942681D+02 0.721471301097856D+01 -.223885619638257D+02 -.149679494285400D+01
0.873954204408D-05 0.000000000000D+00 0.000000000000D+00 0.260906314466D-04 0.301613908903D-06  6 2 -2 25 4 -4 21 2 0.34719544D+00 0.15610396D-01 0.21976453D+06 0.21976453D+06 0.21976453D+06 0.10946958D+01  1  2  1  1  6  1        2 0.198344152818D-03 0.100000000000D+01
  </mgrwgt>
  </event>
  <event>
  6     66 0.18942956E-05 0.12385028E+02 0.75467711E-02 0.93803703E-01
        2 -1    0    0  501    0 0.00000000E+00 0.00000000E+00 0.95079635E+03 0.95079640E+03 0.32000000E+00 0.0000E+00 0.9000E+01
       -2 -1    0    0    0  501 0.00000000E+00 0.00000000E+00 -.38894975E+03 0.38894988E+03 0.32000000E+00 0.0000E+00 0.9000E+01
       23  2    1    2    0    0 -.44762135E+03 -.24893101E+03 -.60823483E+02 0.52385747E+03 0.91627639E+02 0.0000E+00 0.0000E+00
       25  1    1    2    0    0 0.44762135E+03 0.24893101E+03 0.62267009E+03 0.81588882E+03 0.12500000E+03 0.0000E+00 0.9000E+01
        4  1    3    3  502    0 -.54876466E+01 -.11228715E+02 -.15297064E+02 0.19814161E+02 0.15500000E+01 0.0000E+00 0.9000E+01
       -4  1    3    3    0  502 -.44213371E+03 -.23770230E+03 -.45526420E+02 0.50404331E+03 0.15500000E+01 0.0000E+00 0.9000E+01
#aMCatNLO 1  0  0  2  2 0.33575316D+02 0.00000000D+00  -5  6  0 0.00000000D+00 0.00000000D+00 0.00000000D+00 0.00000000D+00 0.00000000D+00
  <mgrwgt>
 0.3688907072D-04    4    2    0
 0.608121801380627D+03 0.000000000000000D+00 0.000000000000000D+00 0.608121801380627D+03
 0.608121801380627D+03 0.000000000000000D+00 0.000000000000000D+00 -.608121801380627D+03
 0.611093811215745D+03 0.447621353425670D+03 0.248931013890595D+03 0.308996958539977D+03
 0.287359227116450D+02 -.536258835595222D+01 -.111638513189153D+02 -.259299888920800D+02
 0.576413868833864D+03 -.442258765069718D+03 -.237767162571680D+03 -.283066969647897D+03
 0.000000000000000D+00 -.000000000000000D+00 0.000000000000000D+00 0.000000000000000D+00
 0.629793151925382D+03 0.000000000000000D+00 0.000000000000000D+00 0.629793151925382D+03
 0.621498517441173D+03 0.000000000000000D+00 0.000000000000000D+00 -.621498517441173D+03
 0.620250633694394D+03 0.463400590733634D+03 0.242624443778982D+03 0.308996958539977D+03
 0.287237821084018D+02 -.462626285276026D+01 -.114581423749542D+02 -.259299888920800D+02
 0.567732534569543D+03 -.427596939380746D+03 -.243627130950829D+03 -.283066969647897D+03
 0.345847189942168D+02 -.311773885001274D+02 0.124608295468009D+02 0.829463448420940D+01
0.411226627766D-05 0.000000000000D+00 0.000000000000D+00 0.209946032889D-05 0.000000000000D+00  6 2 -2 25 4 -4 21 0 0.14627638D+00 0.59838437D-01 0.27129638D+06 0.27129638D+06 0.27129638D+06 0.10877982D+01  1  2  2  2  6  2       -2 0.369981523514D-04 0.100000000000D+01
0.128359434307D-05 0.000000000000D+00 -.157921852908D-07 0.209946032889D-05 0.000000000000D+00  6 2 -2 25 4 -4 21 2 0.14627638D+00 0.59838437D-01 0.27129638D+06 0.27129638D+06 0.27129638D+06 0.10877982D+01  1  2  3  2  6  2       -2 0.136654282779D-04 0.100000000000D+01
-.114130718345D-05 0.000000000000D+00 0.000000000000D+00 0.209946032889D-05 0.000000000000D+00  6 2 -2 25 4 -4 21 2 0.14627638D+00 0.59838437D-01 0.27129638D+06 0.27129638D+06 0.27129638D+06 0.10877982D+01  1  2 15  2  6  2       -2 -.121506078168D-04 0.100000000000D+01
-.152533202671D-06 0.000000000000D+00 0.000000000000D+00 0.209946032889D-05 0.000000000000D+00  6 2 -2 25 4 -4 21 2 0.14627638D+00 0.59838437D-01 0.27129638D+06 0.27129638D+06 0.27129638D+06 0.10877982D+01  1  2  4  2  6  2       -2 -.162390209364D-05 0.100000000000D+01
  </mgrwgt>
  </event>
  <event>
  7     66 0.18942956E-05 0.43903185E+02 0.75467711E-02 0.93771749E-01
        2 -1    0    0  501    0 0.00000000E+00 0.00000000E+00 0.61309737E+03 0.61309745E+03 0.32000000E+00 0.0000E+00 0.9000E+01
       21 -1    0    0  503  501 0.00000000E+00 0.00000000E+00 -.10109087E+04 0.10109090E+04 0.75000000E+00 0.0000E+00 0.9000E+01
       23  2    1    2    0    0 -.51258477E+03 -.26715719E+02 0.20433478E+02 0.52011329E+03 0.81507215E+02 0.0000E+00 0.0000E+00
       25  1    1    2    0    0 0.51642446E+03 -.43543338E+01 0.13622562E+03 0.54853952E+03 0.12500000E+03 0.0000E+00 0.9000E+01
        4  1    3    3  502    0 -.17624092E+03 -.35731461E+02 0.35517526E+02 0.18330711E+03 0.15500000E+01 0.0000E+00 0.9000E+01
        2  1    1    2  503    0 -.38396862E+01 0.31070053E+02 -.55447041E+03 0.55535361E+03 0.32000000E+00 0.0000E+00 0.9000E+01
       -4  1    3    3    0  502 -.33634385E+03 0.90157416E+01 -.15084048E+02 0.33680617E+03 0.15500000E+01 0.0000E+00 0.9000E+01
#aMCatNLO 2  0  0  2  1 0.65187219D+01 0.00000000D+00  -5  6  0 0.00000000D+00 0.00000000D+00 0.00000000D+00 0.00000000D+00 0.00000000D+00
  <mgrwgt>
 0.4635799944D-04    1    2    0
 0.528322025516593D+03 0.000000000000000D+00 0.000000000000000D+00 0.528322025516593D+03
 0.528322025516593D+03 0.000000000000000D+00 0.000000000000000D+00 -.528322025516593D+03
 0.532572072904348D+03 0.514486380443833D+03 0.113282477282616D+02 0.564220522388585D+02
 0.179654695888267D+03 -.176836259777857D+03 -.304612888671473D+02 0.876680460807836D+01
 0.000000000000000D+00 -.000000000000000D+00 0.000000000000000D+00 -.000000000000000D+00
 0.344417282240571D+03 -.337650120665976D+03 0.191330411388856D+02 -.651888568469368D+02
 0.528934801153359D+03 0.000000000000000D+00 0.000000000000000D+00 0.528934801153359D+03
 0.117176191048730D+04 0.000000000000000D+00 0.000000000000000D+00 -.117176191048730D+04
 0.534342240169295D+03 0.516424458587811D+03 -.435433377018819D+01 0.564220522388585D+02
 0.179986632938924D+03 -.176182961766452D+03 -.357476594598285D+02 0.876680460807836D+01
 0.643588986770119D+03 -.383968615705497D+01 0.310700532244291D+02 -.642827109333945D+03
 0.342778851762324D+03 -.336401810664304D+03 0.903194000558763D+01 -.651888568469368D+02
0.294392612319D-05 0.000000000000D+00 0.000000000000D+00 0.649231803208D-06 0.482792792497D-09  6 2 21 25 4 2 -4 2 0.94322693D-01 0.15552443D+00 0.29103732D+06 0.29103732D+06 0.29103732D+06 0.10855278D+01  1  2  1  6  5  2       -2 0.463579994413D-04 0.100000000000D+01
  </mgrwgt>
  </event>
  <event>
  7     66 0.18942956E-05 0.10360701E+03 0.75467711E-02 0.88746746E-01
        2 -1    0    0  501    0 0.00000000E+00 0.00000000E+00 0.12339004E+04 0.12339004E+04 0.32000000E+00 0.0000E+00 0.9000E+01
       -2 -1    0    0    0  503 0.00000000E+00 0.00000000E+00 -.10433922E+04 0.10433922E+04 0.32000000E+00 0.0000E+00 0.9000E+01
       23  2    1    2    0    0 -.88006659E+02 0.48023603E+02 0.53261857E+03 0.54968015E+03 0.91729407E+02 0.0000E+00 0.0000E+00
       25  1    1    2    0    0 0.37399815E+03 0.70168866E+03 -.44321104E+03 0.91885941E+03 0.12500000E+03 0.0000E+00 0.9000E+01
        4  1    3    3  502    0 0.17337191E+02 0.72104902E+01 0.13543462E+03 0.13673884E+03 0.15500000E+01 0.0000E+00 0.9000E+01
       -4  1    3    3    0  502 -.10534385E+03 0.40813113E+02 0.39718395E+03 0.41294132E+03 0.15500000E+01 0.0000E+00 0.9000E+01
       21  1    1    2  501  503 -.28599150E+03 -.74971227E+03 0.10110063E+03 0.80875306E+03 0.75000000E+00 0.0000E+00 0.9000E+01
#aMCatNLO 2  0  0  2  1 0.65187219D+01 0.00000000D+00  -5  6  0 0.00000000D+00 0.00000000D+00 0.00000000D+00 0.00000000D+00 0.00000000D+00
  <mgrwgt>
 0.1417227286D-04    1    2    0
 0.613342304685009D+03 0.000000000000000D+00 0.000000000000000D+00 0.613342304685009D+03
 0.613342304685009D+03 0.000000000000000D+00 0.000000000000000D+00 -.613342304685009D+03
 0.616281412232437D+03 0.207885987378289D+03 0.266234004681697D+03 -.500080643562723D+03
 0.145287043108212D+03 -.117255552341516D+02 -.690775373876302D+02 0.127275803191490D+03
 0.465116154029369D+03 -.196160432144138D+03 -.197156467294067D+03 0.372804840371232D+03
 0.000000000000000D+00 -.000000000000000D+00 -.000000000000000D+00 0.000000000000000D+00
 0.116093152942625D+04 0.000000000000000D+00 0.000000000000000D+00 0.116093152942625D+04
 0.110897297452976D+04 0.000000000000000D+00 0.000000000000000D+00 -.110897297452976D+04
 0.947600785918197D+03 0.373998154257787D+03 0.701688663167965D+03 -.500080643562723D+03
 0.128657599452916D+03 0.173722490855541D+02 0.720088749096081D+01 0.127275803191490D+03
 0.389557001338011D+03 -.105378907819799D+03 0.408227151712076D+02 0.372804840371232D+03
 0.804089117246886D+03 -.285991495523542D+03 -.749712265830133D+03 0.519585548964952D+02
0.240635527821D-04 0.000000000000D+00 0.000000000000D+00 0.745601934134D-05 0.130314115103D-09  6 2 -2 25 4 -4 21 2 0.18983080D+00 0.16052186D+00 0.75613941D+06 0.75613941D+06 0.75613941D+06 0.10560419D+01  1  2  1  2  6  2       -2 0.141722728566D-04 0.100000000000D+01
  </mgrwgt>
  </event>
  <event>
  7     66 0.18942956E-05 0.68505316E+02 0.75467711E-02 0.95149939E-01
        2 -1    0    0  503    0 0.00000000E+00 0.00000000E+00 0.33658667E+04 0.33658667E+04 0.32000000E+00 0.0000E+00 0.9000E+01
       -2 -1    0    0    0  501 0.00000000E+00 0.00000000E+00 -.99298126E+02 0.99298641E+02 0.32000000E+00 0.0000E+00 0.9000E+01
       23  2    1    2    0    0 0.32373950E+03 0.32205055E+03 0.10008029E+04 0.11035733E+04 0.87997939E+02 0.0000E+00 0.0000E+00
       25  1    1    2    0    0 -.30527150E+03 -.33642251E+03 0.11134099E+04 0.12089985E+04 0.12500000E+03 0.0000E+00 0.9000E+01
        4  1    3    3  502    0 0.12586498E+03 0.16696120E+03 0.53187247E+03 0.57149695E+03 0.15500000E+01 0.0000E+00 0.9000E+01
       -4  1    3    3    0  502 0.19787452E+03 0.15508935E+03 0.46893044E+03 0.53207630E+03 0.15500000E+01 0.0000E+00 0.9000E+01
       21  1    1    2  503  501 -.18468009E+02 0.14371964E+02 0.11523557E+04 0.11525935E+04 0.75000000E+00 0.0000E+00 0.9000E+01
#aMCatNLO 2  0  0  1  2 0.65485185D+01 0.00000000D+00  -5  6  0 0.00000000D+00 0.00000000D+00 0.00000000D+00 0.00000000D+00 0.00000000D+00
  <mgrwgt>
 0.3994730662D-03    1    2    0
 0.468386790303326D+03 0.000000000000000D+00 0.000000000000000D+00 0.468386790303326D+03
 0.468386790303326D+03 0.000000000000000D+00 0.000000000000000D+00 -.468386790303326D+03
 0.472593443551567D+03 -.314577084093481D+03 -.329180826003019D+03 0.200201109672421D+02
 0.210508346099726D+03 0.121694645408422D+03 0.170192879904674D+03 0.232069103138205D+02
 0.253671790955359D+03 0.192882438685060D+03 0.158987946098345D+03 -.432270212810626D+02
 0.000000000000000D+00 -.000000000000000D+00 0.000000000000000D+00 0.000000000000000D+00
 0.712488926366373D+03 0.000000000000000D+00 0.000000000000000D+00 0.712488926366373D+03
 0.469094100859087D+03 0.000000000000000D+00 0.000000000000000D+00 -.469094100859087D+03
 0.471589439747898D+03 -.305271496051550D+03 -.336422514908031D+03 0.200201109672421D+02
 0.210362069496290D+03 0.125842620102569D+03 0.166964890207997D+03 0.232069103138205D+02
 0.255114316619112D+03 0.197896884511487D+03 0.155085661090412D+03 -.432270212810626D+02
 0.244517201362160D+03 -.184680085625060D+02 0.143719636096217D+02 0.243394825507286D+03
0.814166707253D-04 0.000000000000D+00 0.000000000000D+00 0.555659443170D-05 0.705752182313D-07  6 2 -2 25 4 -4 21 2 0.51782505D+00 0.15276657D-01 0.22803924D+06 0.22803924D+06 0.22803924D+06 0.10934758D+01  1  2  1  1  6  1        2 0.399473066207D-03 0.100000000000D+01
  </mgrwgt>
  </event>
  <event>
  7     66 0.18942956E-05 0.60749373E+02 0.75467711E-02 0.93930906E-01
        2 -1    0    0  501    0 0.00000000E+00 0.00000000E+00 0.34723044E+04 0.34723044E+04 0.32000000E+00 0.0000E+00 0.9000E+01
       -2 -1    0    0    0  503 0.00000000E+00 0.00000000E+00 -.13466982E+03 0.13467020E+03 0.32000000E+00 0.0000E+00 0.9000E+01
       23  2    1    2    0    0 0.42400767E+03 -.25450790E+03 0.25435370E+04 0.25928100E+04 0.92337043E+02 0.0000E+00 0.0000E+00
       25  1    1    2    0    0 -.44364746E+03 0.27560539E+03 0.81675467E+03 0.97749403E+03 0.12500000E+03 0.0000E+00 0.9000E+01
        4  1    3    3  502    0 0.15433878E+03 -.12521563E+03 0.83764538E+03 0.86090162E+03 0.15500000E+01 0.0000E+00 0.9000E+01
       -4  1    3    3    0  502 0.26966889E+03 -.12929226E+03 0.17058917E+04 0.17319084E+04 0.15500000E+01 0.0000E+00 0.9000E+01
       21  1    1    2  501  503 0.19639782E+02 -.21097488E+02 -.22657126E+02 0.36670600E+02 0.75000000E+00 0.0000E+00 0.9000E+01
#aMCatNLO 2  0  0  2  1 0.13963409D+02 0.00000000D+00  -5  6  0 0.00000000D+00 0.00000000D+00 0.00000000D+00 0.00000000D+00 0.00000000D+00
  <mgrwgt>
 0.5782919945D-03    1    2    0
 0.603050480578586D+03 0.000000000000000D+00 0.000000000000000D+00 0.603050480578586D+03
 0.603050480578586D+03 0.000000000000000D+00 0.000000000000000D+00 -.603050480578586D+03
 0.605993381301051D+03 -.433684431745362D+03 0.264902884990969D+03 -.305527827481959D+03
 0.219356205386681D+03 0.157838893597136D+03 -.129009318356361D+03 0.809976807501477D+02
 0.380751374469439D+03 0.275845538148225D+03 -.135893566634608D+03 0.224530146731811D+03
 0.000000000000000D+00 0.000000000000000D+00 -.000000000000000D+00 -.000000000000000D+00
 0.604441550939972D+03 0.000000000000000D+00 0.000000000000000D+00 0.604441550939972D+03
 0.773629876413104D+03 0.000000000000000D+00 0.000000000000000D+00 -.773629876413104D+03
 0.617862158439273D+03 -.443647455680314D+03 0.275605385531155D+03 -.305527827481959D+03
 0.214591966640287D+03 0.154306257690328D+03 -.125214482777550D+03 0.809976807501477D+02
 0.373991212917735D+03 0.269701415562923D+03 -.129293414339733D+03 0.224530146731811D+03
 0.171626089355780D+03 0.196397824270629D+02 -.210974884138718D+02 -.169188325473132D+03
0.237059457406D-03 0.000000000000D+00 0.000000000000D+00 0.121536287542D-04 0.955314227783D-07  6 2 -2 25 4 -4 21 2 0.53419998D+00 0.20718436D-01 0.28284784D+06 0.28284784D+06 0.28284784D+06 0.10864486D+01  1  2  1  2  6  2       -2 0.578291994494D-03 0.100000000000D+01
  </mgrwgt>
  </event>
  <event>
  6     66 0.18942956E-05 0.22374684E+02 0.75467711E-02 0.88300758E-01
        2 -1    0    0  501    0 0.00000000E+00 0.00000000E+00 0.41344800E+03 0.41344812E+03 0.32000000E+00 0.0000E+00 0.9000E+01
       -2 -1    0    0    0  501 0.00000000E+00 0.00000000E+00 -.57559850E+03 0.57559859E+03 0.32000000E+00 0.0000E+00 0.9000E+01
       23  2    1    2    0    0 -.36965615E+03 -.29360526E+03 -.23220386E+02 0.48132997E+03 0.91047436E+02 0.0000E+00 0.0000E+00
       25  1    1    2    0    0 0.36965615E+03 0.29360526E+03 -.13893012E+03 0.50771675E+03 0.12500000E+03 0.0000E+00 0.9000E+01
        4  1    3    3  502    0 -.35165014E+03 -.27190704E+03 -.43389969E+02 0.44662776E+03 0.15500000E+01 0.0000E+00 0.9000E+01
       -4  1    3    3    0  502 -.18006008E+02 -.21698215E+02 0.20169582E+02 0.34702210E+02 0.15500000E+01 0.0000E+00 0.9000E+01
#aMCatNLO 1  0  0  2  1 0.65851310D+03 0.00000000D+00  -5  6  0 0.00000000D+00 0.00000000D+00 0.00000000D+00 0.00000000D+00 0.00000000D+00
  <mgrwgt>
 0.2967744950D-03    5    4    0
 0.487832096356173D+03 0.000000000000000D+00 0.000000000000000D+00 0.487832096356173D+03
 0.487832096356173D+03 0.000000000000000D+00 0.000000000000000D+00 -.487832096356173D+03
 0.491591260964135D+03 0.369656151971382D+03 0.293605255324761D+03 -.564557456039810D+02
 0.445660714336126D+03 -.351746924811591D+03 -.271979619096179D+03 0.302433461189802D+02
 0.384122174120841D+02 -.179092271597910D+02 -.216256362285820D+02 0.262123994850007D+02
 0.000000000000000D+00 -.000000000000000D+00 -.000000000000000D+00 -.000000000000000D+00
 0.695868854671385D+03 0.000000000000000D+00 0.000000000000000D+00 0.695868854671385D+03
 0.159870665195375D+04 0.000000000000000D+00 0.000000000000000D+00 -.159870665195375D+04
 0.858171181345742D+03 0.781112304407317D+03 0.327885792897673D+03 -.564557456039810D+02
 0.285842009125926D+03 -.128758577634714D+03 -.253401307972471D+03 0.302433461189802D+02
 0.330849849308150D+02 0.388569234885915D+01 -.198097888954175D+02 0.262123994850007D+02
 0.111747733122265D+04 -.656239419121463D+03 -.546746960297847D+02 -.902837797282365D+03
 0.487832096356173D+03 0.000000000000000D+00 0.000000000000000D+00 0.487832096356173D+03
 0.487832096356173D+03 0.000000000000000D+00 0.000000000000000D+00 -.487832096356173D+03
 0.491591260964135D+03 0.369656151971382D+03 0.293605255324761D+03 -.564557456039810D+02
 0.445660714336126D+03 -.351746924811591D+03 -.271979619096179D+03 0.302433461189802D+02
 0.000000000000000D+00 -.000000000000000D+00 -.000000000000000D+00 -.000000000000000D+00
 0.384122174120841D+02 -.179092271597910D+02 -.216256362285820D+02 0.262123994850007D+02
 0.695868854671385D+03 0.000000000000000D+00 0.000000000000000D+00 0.695868854671385D+03
 0.159870665195375D+04 0.000000000000000D+00 0.000000000000000D+00 -.159870665195375D+04
 0.858171181345742D+03 0.781112304407317D+03 0.327885792897673D+03 -.564557456039810D+02
 0.285842009125926D+03 -.128758577634714D+03 -.253401307972471D+03 0.302433461189802D+02
 0.111747733122265D+04 -.656239419121463D+03 -.546746960297847D+02 -.902837797282365D+03
 0.330849849308150D+02 0.388569234885915D+01 -.198097888954175D+02 0.262123994850007D+02
0.289977713433D-04 0.000000000000D+00 0.000000000000D+00 0.694852237766D-05 0.000000000000D+00  6 2 -2 25 4 -4 21 0 0.63607401D-01 0.88553632D-01 0.23090461D+06 0.23090461D+06 0.23090461D+06 0.10930646D+01  1  2  2  2  6  2       -2 0.303175931766D-03 0.100000000000D+01
0.735814198640D-05 0.000000000000D+00 -.111359077247D-06 0.694852237766D-05 0.000000000000D+00  6 2 -2 25 4 -4 21 2 0.63607401D-01 0.88553632D-01 0.23090461D+06 0.23090461D+06 0.23090461D+06 0.10930646D+01  1  2  3  2  6  2       -2 0.919157510090D-04 0.100000000000D+01
-.768614931893D-05 0.000000000000D+00 0.000000000000D+00 0.694852237766D-05 0.000000000000D+00  6 2 -2 25 4 -4 21 2 0.63607401D-01 0.88553632D-01 0.23090461D+06 0.23090461D+06 0.23090461D+06 0.10930646D+01  1  2 15  2  6  2       -2 -.960131223782D-04 0.100000000000D+01
-.664315200421D-05 0.000000000000D+00 -.113511538069D-04 0.694852237766D-05 0.000000000000D+00  6 2 -2 25 4 -4 21 2 0.63607401D-01 0.33775276D+00 0.23090461D+06 0.23090461D+06 0.23090461D+06 0.10930646D+01  1  2  5  2  6  2       -2 -.120673306587D-05 0.100000000000D+01
-.835230461034D-06 0.000000000000D+00 -.180171627197D-05 0.694852237766D-05 0.000000000000D+00  6 2 21 25 4 2 -4 2 0.63607401D-01 0.33775276D+00 0.23090461D+06 0.23090461D+06 0.23090461D+06 0.10930646D+01  3  4  5  6  5  2       -2 -.109733228602D-05 0.100000000000D+01
  </mgrwgt>
  </event>
</LesHouchesEvents>
