<event>
 5    0  0.1856407E+000  0.2518801E+03  0.7546771E-02  0.1112122E+00
         21   -1    0    0  502  501  0.00000000000E+00  0.00000000000E+00  0.79848783686E+03  0.79848783686E+03  0.00000000000E+00 0.  1.
         21   -1    0    0  503  502 -0.00000000000E+00 -0.00000000000E+00 -0.73902085077E+02  0.73902085077E+02  0.00000000000E+00 0. -1.
         25    1    1    2    0    0  0.53212106367E+02  0.21210150243E+03  0.47595604077E+03  0.53849580161E+03  0.12500000000E+03 0.  0.
         21    1    1    2  503  504 -0.10670642089E+02 -0.59054289020E+02  0.41936016999E+02  0.73211345951E+02  0.00000000000E+00 0. -1.
         21    1    1    2  504  501 -0.42541464278E+02 -0.15304721341E+03  0.20669369401E+03  0.26068277438E+03  0.00000000000E+00 0. -1.
<mgrwt>
<rscale>  4 0.25188008E+03</rscale>
<asrwt>0</asrwt>
<pdfrwt beam="1">  1       21 0.12284428E+00 0.25188008E+03</pdfrwt>
<pdfrwt beam="2">  1       21 0.11369552E-01 0.25188008E+03</pdfrwt>
<totfact> 0.31192558E+04</totfact>
</mgrwt>
</event>
<event>
 5    0  0.1856407E+000  0.3126867E+03  0.7546771E-02  0.1079065E+00
         21   -1    0    0  502  501  0.00000000000E+00  0.00000000000E+00  0.30909072297E+03  0.30909072297E+03  0.00000000000E+00 0.  1.
         21   -1    0    0  503  502 -0.00000000000E+00 -0.00000000000E+00 -0.48574381268E+03  0.48574381268E+03  0.00000000000E+00 0.  1.
         25    1    1    2    0    0 -0.25578143206E+02 -0.28547110843E+03  0.15779969817E+03  0.35024811192E+03  0.12500000000E+03 0.  0.
         21    1    1    2  503  504 -0.18385077658E+02  0.51596256968E+02 -0.68584171997E+02  0.87772281856E+02  0.00000000000E+00 0.  1.
         21    1    1    2  504  501  0.43963220864E+02  0.23387485146E+03 -0.26586861588E+03  0.35681414188E+03  0.00000000000E+00 0.  1.
<mgrwt>
<rscale>  4 0.31268674E+03</rscale>
<asrwt>0</asrwt>
<pdfrwt beam="1">  1       21 0.47552419E-01 0.31268674E+03</pdfrwt>
<pdfrwt beam="2">  1       21 0.74729817E-01 0.31268674E+03</pdfrwt>
<totfact> 0.63104678E+03</totfact>
</mgrwt>
</event>
<event>
 5    0  0.1856407E+000  0.2665745E+03  0.7546771E-02  0.1103256E+00
         21   -1    0    0  502  501  0.00000000000E+00  0.00000000000E+00  0.45630730781E+03  0.45630730781E+03  0.00000000000E+00 0. -1.
         21   -1    0    0  503  502 -0.00000000000E+00 -0.00000000000E+00 -0.16277238758E+03  0.16277238758E+03  0.00000000000E+00 0.  1.
         25    1    1    2    0    0 -0.18898052763E+03 -0.14043966879E+03  0.26866634532E+03  0.37847529048E+03  0.12500000000E+03 0.  0.
         21    1    1    2  503  504  0.14444891413E+03  0.12623532981E+03  0.27458064908E+02  0.19379058959E+03  0.00000000000E+00 0.  1.
         21    1    1    2  504  501  0.44531613499E+02  0.14204338983E+02 -0.25894899958E+01  0.46813815324E+02  0.00000000000E+00 0.  1.
<mgrwt>
<rscale>  4 0.26657446E+03</rscale>
<asrwt>0</asrwt>
<pdfrwt beam="1">  1       21 0.70201124E-01 0.26657446E+03</pdfrwt>
<pdfrwt beam="2">  1       21 0.25041906E-01 0.26657446E+03</pdfrwt>
<totfact> 0.26790944E+04</totfact>
</mgrwt>
</event>
<event>
 5    0  0.2615180E+000  0.2496963E+03  0.7546771E-02  0.1113497E+00
         21   -1    0    0  502  501  0.00000000000E+00  0.00000000000E+00  0.23494792809E+03  0.23494792809E+03  0.00000000000E+00 0.  1.
         21   -1    0    0  503  502 -0.00000000000E+00 -0.00000000000E+00 -0.26183572767E+03  0.26183572767E+03  0.00000000000E+00 0.  1.
         25    1    1    2    0    0  0.20610874924E+03  0.65133940876E+02  0.58193063339E+02  0.25638775203E+03  0.12500000000E+03 0.  0.
         21    1    1    2  503  504 -0.16797187820E+03 -0.49155852898E+02 -0.40598739783E+02  0.17966387342E+03  0.00000000000E+00 0.  1.
         21    1    1    2  504  501 -0.38136871036E+02 -0.15978087978E+02 -0.44482123131E+02  0.60732030315E+02  0.00000000000E+00 0.  1.
<mgrwt>
<rscale>  4 0.24969631E+03</rscale>
<asrwt>0</asrwt>
<pdfrwt beam="1">  1       21 0.36145835E-01 0.24969631E+03</pdfrwt>
<pdfrwt beam="2">  1       21 0.40282420E-01 0.24969631E+03</pdfrwt>
<totfact> 0.42693901E+04</totfact>
</mgrwt>
</event>
<event>
 5    0  0.1856407E+000  0.5277783E+03  0.7546771E-02  0.1006772E+00
         21   -1    0    0  502  501  0.00000000000E+00  0.00000000000E+00  0.41901246757E+03  0.41901246757E+03  0.00000000000E+00 0.  1.
         21   -1    0    0  503  502 -0.00000000000E+00 -0.00000000000E+00 -0.26077644875E+04  0.26077644875E+04  0.00000000000E+00 0. -1.
         25    1    1    2    0    0 -0.35891122566E+03  0.36339703629E+03  0.20539007562E+03  0.56452170645E+03  0.12500000000E+03 0.  0.
         21    1    1    2  503  504  0.37219998876E+03 -0.39008448651E+03 -0.23293234987E+04  0.23909091785E+04  0.00000000000E+00 0. -1.
         21    1    1    2  504  501 -0.13288763100E+02  0.26687450220E+02 -0.64818596847E+02  0.71346070118E+02  0.00000000000E+00 0.  1.
<mgrwt>
<rscale>  4 0.52777832E+03</rscale>
<asrwt>0</asrwt>
<pdfrwt beam="1">  1       21 0.64463456E-01 0.52777832E+03</pdfrwt>
<pdfrwt beam="2">  1       21 0.40119454E+00 0.52777832E+03</pdfrwt>
<totfact> 0.13006351E+01</totfact>
</mgrwt>
</event>
<event>
 5    0  0.1856407E+000  0.3696054E+03  0.7546771E-02  0.1054844E+00
         21   -1    0    0  502  501  0.00000000000E+00  0.00000000000E+00  0.12054491439E+03  0.12054491439E+03  0.00000000000E+00 0.  1.
         21   -1    0    0  503  502 -0.00000000000E+00 -0.00000000000E+00 -0.12917896024E+04  0.12917896024E+04  0.00000000000E+00 0.  1.
         25    1    1    2    0    0  0.16679405344E+03 -0.30522595377E+03 -0.32352299018E+03  0.49119778531E+03  0.12500000000E+03 0.  0.
         21    1    1    2  503  504 -0.13769394584E+03  0.28749987137E+03 -0.80910769035E+03  0.86963846129E+03  0.00000000000E+00 0.  1.
         21    1    1    2  504  501 -0.29100107598E+02  0.17726082398E+02 -0.38614007498E+02  0.51498270209E+02  0.00000000000E+00 0. -1.
<mgrwt>
<rscale>  4 0.36960538E+03</rscale>
<asrwt>0</asrwt>
<pdfrwt beam="1">  1       21 0.18545372E-01 0.36960538E+03</pdfrwt>
<pdfrwt beam="2">  1       21 0.19873685E+00 0.36960538E+03</pdfrwt>
<totfact> 0.32139152E+03</totfact>
</mgrwt>
</event>
<event>
 5    0  0.2333197E+000  0.2430711E+03  0.7546771E-02  0.1117764E+00
         21   -1    0    0  502  501  0.00000000000E+00  0.00000000000E+00  0.18286111401E+03  0.18286111401E+03  0.00000000000E+00 0. -1.
         21   -1    0    0  503  502 -0.00000000000E+00 -0.00000000000E+00 -0.63621059746E+03  0.63621059746E+03  0.00000000000E+00 0. -1.
         25    1    1    2    0    0  0.24952548241E+03 -0.13924673252E+03 -0.89663551129E+02  0.32452607182E+03  0.12500000000E+03 0.  0.
         21    1    1    2  503  504 -0.90989192792E+02  0.10483474471E+03 -0.27881143449E+03  0.31145653454E+03  0.00000000000E+00 0. -1.
         21    1    1    2  504  501 -0.15853628961E+03  0.34411987813E+02 -0.84874497826E+02  0.18308910511E+03  0.00000000000E+00 0. -1.
<mgrwt>
<rscale>  4 0.24307106E+03</rscale>
<asrwt>0</asrwt>
<pdfrwt beam="1">  1       21 0.28132479E-01 0.24307106E+03</pdfrwt>
<pdfrwt beam="2">  1       21 0.97878555E-01 0.24307106E+03</pdfrwt>
<totfact> 0.10092382E+04</totfact>
</mgrwt>
</event>
<event>
 5    0  0.2172133E+000  0.2612643E+03  0.7546771E-02  0.1106386E+00
         21   -1    0    0  502  501  0.00000000000E+00  0.00000000000E+00  0.85194075409E+03  0.85194075409E+03  0.00000000000E+00 0.  1.
         21   -1    0    0  503  502 -0.00000000000E+00 -0.00000000000E+00 -0.72211422019E+02  0.72211422019E+02  0.00000000000E+00 0.  1.
         25    1    1    2    0    0  0.21818832599E+03 -0.70907671993E+02  0.39899797396E+03  0.47692601813E+03  0.12500000000E+03 0.  0.
         21    1    1    2  503  504 -0.40699762454E+02 -0.48945478030E+01  0.80021913717E+02  0.89910699791E+02  0.00000000000E+00 0.  1.
         21    1    1    2  504  501 -0.17748856354E+03  0.75802219796E+02  0.30070944439E+03  0.35731545819E+03  0.00000000000E+00 0.  1.
<mgrwt>
<rscale>  4 0.26126432E+03</rscale>
<asrwt>0</asrwt>
<pdfrwt beam="1">  1       21 0.13106780E+00 0.26126432E+03</pdfrwt>
<pdfrwt beam="2">  1       21 0.11109450E-01 0.26126432E+03</pdfrwt>
<totfact> 0.27467192E+04</totfact>
</mgrwt>
</event>
<event>
 5    0  0.1856407E+000  0.2746863E+03  0.7546771E-02  0.1098627E+00
         21   -1    0    0  502  501  0.00000000000E+00  0.00000000000E+00  0.34296060013E+03  0.34296060013E+03  0.00000000000E+00 0. -1.
         21   -1    0    0  503  502 -0.00000000000E+00 -0.00000000000E+00 -0.94558906000E+03  0.94558906000E+03  0.00000000000E+00 0. -1.
         25    1    1    2    0    0 -0.24334879595E+03  0.43092882353E+02  0.25253881381E+03  0.37480192833E+03  0.12500000000E+03 0.  0.
         21    1    1    2  503  504  0.22808729486E+03 -0.30471477604E+01 -0.43299174372E+03  0.48940264539E+03  0.00000000000E+00 0. -1.
         21    1    1    2  504  501  0.15261501086E+02 -0.40045734593E+02 -0.42217552996E+03  0.42434508642E+03  0.00000000000E+00 0. -1.
<mgrwt>
<rscale>  4 0.27468625E+03</rscale>
<asrwt>0</asrwt>
<pdfrwt beam="1">  1       21 0.52763171E-01 0.27468625E+03</pdfrwt>
<pdfrwt beam="2">  1       21 0.14547524E+00 0.27468625E+03</pdfrwt>
<totfact> 0.10261032E+03</totfact>
</mgrwt>
</event>
<event>
 5    0  0.1856407E+000  0.3016196E+03  0.7546771E-02  0.1084434E+00
         21   -1    0    0  502  501  0.00000000000E+00  0.00000000000E+00  0.30240933926E+03  0.30240933926E+03  0.00000000000E+00 0.  1.
         21   -1    0    0  503  502 -0.00000000000E+00 -0.00000000000E+00 -0.11776555937E+04  0.11776555937E+04  0.00000000000E+00 0. -1.
         25    1    1    2    0    0 -0.28201414422E+03 -0.72031749810E+02  0.18531645834E+03  0.36699828372E+03  0.12500000000E+03 0.  0.
         21    1    1    2  503  504  0.16341369400E+03 -0.36872998433E+02 -0.66976460556E+03  0.69039719022E+03  0.00000000000E+00 0. -1.
         21    1    1    2  504  501  0.11860045023E+03  0.10890474824E+03 -0.39079810725E+03  0.42266945905E+03  0.00000000000E+00 0. -1.
<mgrwt>
<rscale>  4 0.30161965E+03</rscale>
<asrwt>0</asrwt>
<pdfrwt beam="1">  1       21 0.46524514E-01 0.30161965E+03</pdfrwt>
<pdfrwt beam="2">  1       21 0.18117778E+00 0.30161965E+03</pdfrwt>
<totfact> 0.71617856E+02</totfact>
</mgrwt>
</event>
<event>
 5    0  0.2370417E+000  0.3262183E+03  0.7546771E-02  0.1072823E+00
         21   -1    0    0  502  501  0.00000000000E+00  0.00000000000E+00  0.27256614689E+03  0.27256614689E+03  0.00000000000E+00 0.  1.
         21   -1    0    0  503  502 -0.00000000000E+00 -0.00000000000E+00 -0.37109209156E+03  0.37109209156E+03  0.00000000000E+00 0.  1.
         25    1    1    2    0    0  0.21766350608E+02  0.30053216316E+03 -0.44626874366E+02  0.32925660665E+03  0.12500000000E+03 0.  0.
         21    1    1    2  503  504 -0.42141692034E+02 -0.26192531826E+03 -0.54069251689E+02  0.27074762886E+03  0.00000000000E+00 0.  1.
         21    1    1    2  504  501  0.20375341425E+02 -0.38606844894E+02  0.17018138269E+00  0.43654002939E+02  0.00000000000E+00 0.  1.
<mgrwt>
<rscale>  4 0.32621826E+03</rscale>
<asrwt>0</asrwt>
<pdfrwt beam="1">  1       21 0.41933254E-01 0.32621826E+03</pdfrwt>
<pdfrwt beam="2">  1       21 0.57091091E-01 0.32621826E+03</pdfrwt>
<totfact> 0.14757886E+04</totfact>
</mgrwt>
</event>
