<event>
 5    0  0.1911311E+001  0.2757955E+03  0.7546771E-02  0.1098008E+00
         21   -1    0    0  504  501  0.00000000000E+00  0.00000000000E+00  0.87940983100E+02  0.87940983100E+02  0.00000000000E+00 0.  1.
         21   -1    0    0  503  502 -0.00000000000E+00 -0.00000000000E+00 -0.10875941657E+04  0.10875941657E+04  0.00000000000E+00 0.  1.
         25    1    1    2    0    0  0.24647446280E+03  0.62394141051E+02 -0.68366327462E+03  0.74004267628E+03  0.12500000000E+03 0.  0.
         21    1    1    2  503  501 -0.22278612985E+03 -0.74910105304E+02 -0.33008642871E+03  0.40521874827E+03  0.00000000000E+00 0.  1.
         21    1    1    2  504  502 -0.23688332944E+02  0.12515964253E+02  0.14096520782E+02  0.30273724201E+02  0.00000000000E+00 0. -1.
<mgrwt>
<rscale>  4 0.27579550E+03</rscale>
<asrwt>0</asrwt>
<pdfrwt beam="1">  1       21 0.13529382E-01 0.27579550E+03</pdfrwt>
<pdfrwt beam="2">  1       21 0.16732218E+00 0.27579550E+03</pdfrwt>
<totfact> 0.99714949E+03</totfact>
</mgrwt>
</event>
<event>
 5    0  0.1911311E+001  0.2175422E+03  0.7546771E-02  0.1135729E+00
         21   -1    0    0  502  501  0.00000000000E+00  0.00000000000E+00  0.74977267898E+03  0.74977267898E+03  0.00000000000E+00 0. -1.
         21   -1    0    0  504  502 -0.00000000000E+00 -0.00000000000E+00 -0.47230507637E+03  0.47230507637E+03  0.00000000000E+00 0. -1.
         25    1    1    2    0    0 -0.13535029874E+03 -0.16293576253E+03  0.66102984575E+03  0.70530363891E+03  0.12500000000E+03 0.  0.
         21    1    1    2  503  501  0.13208073829E+02  0.34584144018E+02  0.41889049961E+02  0.55903566419E+02  0.00000000000E+00 0.  1.
         21    1    1    2  504  503  0.12214222491E+03  0.12835161851E+03 -0.42545129310E+03  0.46087055002E+03  0.00000000000E+00 0. -1.
<mgrwt>
<rscale>  4 0.21754215E+03</rscale>
<asrwt>0</asrwt>
<pdfrwt beam="1">  1       21 0.11534964E+00 0.21754215E+03</pdfrwt>
<pdfrwt beam="2">  1       21 0.72662320E-01 0.21754215E+03</pdfrwt>
<totfact> 0.96890015E+02</totfact>
</mgrwt>
</event>
<event>
 5    0  0.4701021E+001  0.2396760E+03  0.7546771E-02  0.1120009E+00
         21   -1    0    0  504  501  0.00000000000E+00  0.00000000000E+00  0.26683266558E+02  0.26683266558E+02  0.00000000000E+00 0. -1.
         21   -1    0    0  501  502 -0.00000000000E+00 -0.00000000000E+00 -0.21049569523E+04  0.21049569523E+04  0.00000000000E+00 0. -1.
         25    1    1    2    0    0  0.12940404788E+03  0.16285134819E+03 -0.11668820716E+04  0.11918492935E+04  0.12500000000E+03 0.  0.
         21    1    1    2  503  502 -0.25343493428E+02  0.10148873668E+02 -0.99821031568E+02  0.10348686216E+03  0.00000000000E+00 0.  1.
         21    1    1    2  504  503 -0.10406055445E+03 -0.17300022185E+03 -0.81157058252E+03  0.83630406323E+03  0.00000000000E+00 0. -1.
<mgrwt>
<rscale>  4 0.23967604E+03</rscale>
<asrwt>0</asrwt>
<pdfrwt beam="1">  1       21 0.41051182E-02 0.23967604E+03</pdfrwt>
<pdfrwt beam="2">  1       21 0.32383951E+00 0.23967604E+03</pdfrwt>
<totfact> 0.88838519E+03</totfact>
</mgrwt>
</event>
