<event>
 5    0  0.1283376E+001  0.2753978E+03  0.7546771E-02  0.1098229E+00
         21   -1    0    0  503  501  0.00000000000E+00  0.00000000000E+00  0.63623087681E+03  0.63623087681E+03  0.00000000000E+00 0.  1.
         21   -1    0    0  504  502 -0.00000000000E+00 -0.00000000000E+00 -0.42492385200E+03  0.42492385200E+03  0.00000000000E+00 0. -1.
         25    1    1    2    0    0  0.12288118013E+03 -0.21564542081E+03  0.36648592648E+03  0.45993441517E+03  0.12500000000E+03 0.  0.
         21    1    1    2  503  502 -0.22592151774E+03 -0.86973190407E+02  0.81740269768E+01  0.24222238283E+03  0.00000000000E+00 0. -1.
         21    1    1    2  504  501  0.10304033761E+03  0.30261861122E+03 -0.16335292865E+03  0.35899793081E+03  0.00000000000E+00 0. -1.
<mgrwt>
<rscale>  4 0.27539776E+03</rscale>
<asrwt>0</asrwt>
<pdfrwt beam="1">  1       21 0.97881674E-01 0.27539776E+03</pdfrwt>
<pdfrwt beam="2">  1       21 0.65372900E-01 0.27539776E+03</pdfrwt>
<totfact> 0.17415863E+03</totfact>
</mgrwt>
</event>
<event>
 5    0  0.1283376E+001  0.2383161E+03  0.7546771E-02  0.1120920E+00
         21   -1    0    0  503  501  0.00000000000E+00  0.00000000000E+00  0.36296315717E+03  0.36296315717E+03  0.00000000000E+00 0. -1.
         21   -1    0    0  504  502 -0.00000000000E+00 -0.00000000000E+00 -0.10614244179E+04  0.10614244179E+04  0.00000000000E+00 0. -1.
         25    1    1    2    0    0 -0.20861782121E+03  0.17974156163E+03  0.13715129099E+03  0.33206008632E+03  0.12500000000E+03 0.  0.
         21    1    1    2  503  502  0.11459318590E+03 -0.44403886099E+02 -0.90515614589E+03  0.91346097443E+03  0.00000000000E+00 0. -1.
         21    1    1    2  504  501  0.94024635307E+02 -0.13533767554E+03  0.69543594152E+02  0.17886651434E+03  0.00000000000E+00 0. -1.
<mgrwt>
<rscale>  4 0.23831613E+03</rscale>
<asrwt>0</asrwt>
<pdfrwt beam="1">  1       21 0.55840486E-01 0.23831613E+03</pdfrwt>
<pdfrwt beam="2">  1       21 0.16329606E+00 0.23831613E+03</pdfrwt>
<totfact> 0.68671099E+02</totfact>
</mgrwt>
</event>
<event>
 5    0  0.1283376E+001  0.3010411E+03  0.7546771E-02  0.1084721E+00
         21   -1    0    0  504  501  0.00000000000E+00  0.00000000000E+00  0.61245462314E+03  0.61245462314E+03  0.00000000000E+00 0. -1.
         21   -1    0    0  501  502 -0.00000000000E+00 -0.00000000000E+00 -0.16524747584E+03  0.16524747584E+03  0.00000000000E+00 0. -1.
         25    1    1    2    0    0  0.23174966375E+03  0.14592069354E+03  0.37980404766E+03  0.48464097028E+03  0.12500000000E+03 0.  0.
         21    1    1    2  503  502 -0.19982790861E+03 -0.15199495853E+03  0.69475740214E+02  0.26050055461E+03  0.00000000000E+00 0. -1.
         21    1    1    2  504  503 -0.31921755142E+02  0.60742649906E+01 -0.20726405708E+01  0.32560574096E+02  0.00000000000E+00 0.  1.
<mgrwt>
<rscale>  4 0.30104112E+03</rscale>
<asrwt>0</asrwt>
<pdfrwt beam="1">  1       21 0.94223787E-01 0.30104112E+03</pdfrwt>
<pdfrwt beam="2">  1       21 0.25422689E-01 0.30104112E+03</pdfrwt>
<totfact> 0.13055867E+04</totfact>
</mgrwt>
</event>
<event>
 5    0  0.1283376E+001  0.3207023E+03  0.7546771E-02  0.1075327E+00
         21   -1    0    0  504  501  0.00000000000E+00  0.00000000000E+00  0.78029067199E+03  0.78029067199E+03  0.00000000000E+00 0. -1.
         21   -1    0    0  503  502 -0.00000000000E+00 -0.00000000000E+00 -0.31029473976E+03  0.31029473976E+03  0.00000000000E+00 0. -1.
         25    1    1    2    0    0  0.13806662932E+03  0.25773128354E+03  0.57992430229E+03  0.66138113447E+03  0.12500000000E+03 0.  0.
         21    1    1    2  503  501 -0.15992421582E+03 -0.26143523590E+03  0.10600322184E+02  0.30665372035E+03  0.00000000000E+00 0. -1.
         21    1    1    2  504  502  0.21857586496E+02  0.37039523586E+01 -0.12052869224E+03  0.12255055693E+03  0.00000000000E+00 0. -1.
<mgrwt>
<rscale>  4 0.32070233E+03</rscale>
<asrwt>0</asrwt>
<pdfrwt beam="1">  1       21 0.12004472E+00 0.32070233E+03</pdfrwt>
<pdfrwt beam="2">  1       21 0.47737652E-01 0.32070233E+03</pdfrwt>
<totfact> 0.20195675E+03</totfact>
</mgrwt>
</event>
<event>
 5    0  0.1283376E+001  0.2853350E+03  0.7546771E-02  0.1092810E+00
         21   -1    0    0  503  501  0.00000000000E+00  0.00000000000E+00  0.16647837780E+04  0.16647837780E+04  0.00000000000E+00 0.  1.
         21   -1    0    0  504  502 -0.00000000000E+00 -0.00000000000E+00 -0.29346368873E+03  0.29346368873E+03  0.00000000000E+00 0.  1.
         25    1    1    2    0    0  0.19837461812E+03  0.16351237420E+03  0.14550260721E+04  0.14828400642E+04  0.12500000000E+03 0.  0.
         21    1    1    2  503  502  0.12218610412E+02 -0.21416054805E+02 -0.19607321977E+03  0.19761743181E+03  0.00000000000E+00 0.  1.
         21    1    1    2  504  501 -0.21059322853E+03 -0.14209631939E+03  0.11236723700E+03  0.27778997073E+03  0.00000000000E+00 0.  1.
<mgrwt>
<rscale>  4 0.28533502E+03</rscale>
<asrwt>0</asrwt>
<pdfrwt beam="1">  1       21 0.25612057E+00 0.28533502E+03</pdfrwt>
<pdfrwt beam="2">  1       21 0.45148261E-01 0.28533502E+03</pdfrwt>
<totfact> 0.25880123E+02</totfact>
</mgrwt>
</event>
<event>
 5    0  0.1283376E+001  0.2446498E+03  0.7546771E-02  0.1116733E+00
         21   -1    0    0  503  501  0.00000000000E+00  0.00000000000E+00  0.10350775609E+04  0.10350775609E+04  0.00000000000E+00 0. -1.
         21   -1    0    0  504  502 -0.00000000000E+00 -0.00000000000E+00 -0.13354701905E+03  0.13354701905E+03  0.00000000000E+00 0. -1.
         25    1    1    2    0    0  0.55534474300E+02 -0.20744573777E+03  0.79472805780E+03  0.83266769951E+03  0.12500000000E+03 0.  0.
         21    1    1    2  503  502  0.19403258569E+02  0.21392449572E+02 -0.65467404972E+02  0.71554905181E+02  0.00000000000E+00 0. -1.
         21    1    1    2  504  501 -0.74937732869E+02  0.18605328820E+03  0.17226988903E+03  0.26440197526E+03  0.00000000000E+00 0. -1.
<mgrwt>
<rscale>  4 0.24464984E+03</rscale>
<asrwt>0</asrwt>
<pdfrwt beam="1">  1       21 0.15924270E+00 0.24464984E+03</pdfrwt>
<pdfrwt beam="2">  1       21 0.20545696E-01 0.24464984E+03</pdfrwt>
<totfact> 0.53760828E+03</totfact>
</mgrwt>
</event>
<event>
 5    0  0.1283376E+001  0.2696121E+03  0.7546771E-02  0.1101502E+00
         21   -1    0    0  504  501  0.00000000000E+00  0.00000000000E+00  0.31726376428E+03  0.31726376428E+03  0.00000000000E+00 0. -1.
         21   -1    0    0  501  502 -0.00000000000E+00 -0.00000000000E+00 -0.37052704159E+03  0.37052704159E+03  0.00000000000E+00 0. -1.
         25    1    1    2    0    0 -0.14457914978E+03  0.18469745536E+03  0.16621723845E+03  0.31347958614E+03  0.12500000000E+03 0.  0.
         21    1    1    2  503  502  0.16679463540E+03 -0.18817047639E+03 -0.13201347266E+03  0.28400023864E+03  0.00000000000E+00 0. -1.
         21    1    1    2  504  503 -0.22215485628E+02  0.34730210308E+01 -0.87467043102E+02  0.90310981092E+02  0.00000000000E+00 0.  1.
<mgrwt>
<rscale>  4 0.26961208E+03</rscale>
<asrwt>0</asrwt>
<pdfrwt beam="1">  1       21 0.48809810E-01 0.26961208E+03</pdfrwt>
<pdfrwt beam="2">  1       21 0.57004160E-01 0.26961208E+03</pdfrwt>
<totfact> 0.11071806E+04</totfact>
</mgrwt>
</event>
<event>
 5    0  0.1283376E+001  0.2817193E+03  0.7546771E-02  0.1094754E+00
         21   -1    0    0  504  501  0.00000000000E+00  0.00000000000E+00  0.73375339490E+03  0.73375339490E+03  0.00000000000E+00 0. -1.
         21   -1    0    0  503  502 -0.00000000000E+00 -0.00000000000E+00 -0.14309082579E+03  0.14309082579E+03  0.00000000000E+00 0. -1.
         25    1    1    2    0    0 -0.20007005130E+03 -0.12144017709E+03  0.39913721316E+03  0.47928202237E+03  0.12500000000E+03 0.  0.
         21    1    1    2  503  501  0.24561186074E+03  0.15323897200E+03  0.17982141503E+03  0.34079775524E+03  0.00000000000E+00 0. -1.
         21    1    1    2  504  502 -0.45541809435E+02 -0.31798794912E+02  0.11703940909E+02  0.56764443072E+02  0.00000000000E+00 0. -1.
<mgrwt>
<rscale>  4 0.28171930E+03</rscale>
<asrwt>0</asrwt>
<pdfrwt beam="1">  1       21 0.11288514E+00 0.28171930E+03</pdfrwt>
<pdfrwt beam="2">  1       21 0.22013974E-01 0.28171930E+03</pdfrwt>
<totfact> 0.11215349E+04</totfact>
</mgrwt>
</event>
<event>
 5    0  0.1283376E+001  0.2681992E+03  0.7546771E-02  0.1102315E+00
         21   -1    0    0  504  501  0.00000000000E+00  0.00000000000E+00  0.57103536673E+03  0.57103536673E+03  0.00000000000E+00 0.  1.
         21   -1    0    0  503  502 -0.00000000000E+00 -0.00000000000E+00 -0.34479041558E+03  0.34479041558E+03  0.00000000000E+00 0.  1.
         25    1    1    2    0    0 -0.23057258177E+03 -0.88034680197E+02  0.46136326314E+03  0.53795434840E+03  0.12500000000E+03 0.  0.
         21    1    1    2  503  501  0.15410514730E+03  0.71681352105E+02 -0.24591529446E+03  0.29893301041E+03  0.00000000000E+00 0.  1.
         21    1    1    2  504  502  0.76467434471E+02  0.16353328092E+02  0.10796982462E+02  0.78938423499E+02  0.00000000000E+00 0.  1.
<mgrwt>
<rscale>  4 0.26819917E+03</rscale>
<asrwt>0</asrwt>
<pdfrwt beam="1">  1       21 0.87851595E-01 0.26819917E+03</pdfrwt>
<pdfrwt beam="2">  1       21 0.53044680E-01 0.26819917E+03</pdfrwt>
<totfact> 0.35426955E+03</totfact>
</mgrwt>
</event>
<event>
 5    0  0.1283376E+001  0.4388511E+03  0.7546771E-02  0.1031100E+00
         21   -1    0    0  502  501  0.00000000000E+00  0.00000000000E+00  0.79503741169E+03  0.79503741169E+03  0.00000000000E+00 0. -1.
         21   -1    0    0  503  502 -0.00000000000E+00 -0.00000000000E+00 -0.39807450005E+03  0.39807450005E+03  0.00000000000E+00 0.  1.
         25    1    1    2    0    0 -0.26567519531E+02 -0.40970932425E+03  0.46620941871E+03  0.63367482636E+03  0.12500000000E+03 0.  0.
         21    1    1    2  503  504 -0.46572675526E+02  0.45702110115E+03 -0.93943549926E+02  0.46889518186E+03  0.00000000000E+00 0.  1.
         21    1    1    2  504  501  0.73140195057E+02 -0.47311776901E+02  0.24697042856E+02  0.90541903516E+02  0.00000000000E+00 0.  1.
<mgrwt>
<rscale>  4 0.43885109E+03</rscale>
<asrwt>0</asrwt>
<pdfrwt beam="1">  1       21 0.12231345E+00 0.43885109E+03</pdfrwt>
<pdfrwt beam="2">  1       21 0.61242231E-01 0.43885109E+03</pdfrwt>
<totfact> 0.10657342E+03</totfact>
</mgrwt>
</event>
<event>
 5    0  0.1283376E+001  0.2613369E+03  0.7546771E-02  0.1106343E+00
         21   -1    0    0  504  501  0.00000000000E+00  0.00000000000E+00  0.23226424131E+03  0.23226424131E+03  0.00000000000E+00 0.  1.
         21   -1    0    0  503  502 -0.00000000000E+00 -0.00000000000E+00 -0.63055429521E+03  0.63055429521E+03  0.00000000000E+00 0.  1.
         25    1    1    2    0    0 -0.10055082450E+03  0.23145144414E+03  0.51932728012E+02  0.28636034561E+03  0.12500000000E+03 0.  0.
         21    1    1    2  503  501  0.15132119619E+03 -0.13719042030E+03 -0.13829409024E+03  0.24666692367E+03  0.00000000000E+00 0.  1.
         21    1    1    2  504  502 -0.50770371686E+02 -0.94261023843E+02 -0.31192869167E+03  0.32979126723E+03  0.00000000000E+00 0.  1.
<mgrwt>
<rscale>  4 0.26133693E+03</rscale>
<asrwt>0</asrwt>
<pdfrwt beam="1">  1       21 0.35732960E-01 0.26133693E+03</pdfrwt>
<pdfrwt beam="2">  1       21 0.97008352E-01 0.26133693E+03</pdfrwt>
<totfact> 0.63615828E+03</totfact>
</mgrwt>
</event>
<event>
 5    0  0.1283376E+001  0.2930336E+03  0.7546771E-02  0.1088776E+00
         21   -1    0    0  503  501  0.00000000000E+00  0.00000000000E+00  0.10897245895E+04  0.10897245895E+04  0.00000000000E+00 0. -1.
         21   -1    0    0  504  502 -0.00000000000E+00 -0.00000000000E+00 -0.11296661411E+03  0.11296661411E+03  0.00000000000E+00 0. -1.
         25    1    1    2    0    0  0.97052103205E+02 -0.23116645871E+03  0.67218769732E+03  0.72822959484E+03  0.12500000000E+03 0.  0.
         21    1    1    2  503  502 -0.14436348557E+03  0.26693833757E+03  0.24109020003E+03  0.38758402519E+03  0.00000000000E+00 0. -1.
         21    1    1    2  504  501  0.47311382363E+02 -0.35771878860E+02  0.63480078012E+02  0.86877583545E+02  0.00000000000E+00 0.  1.
<mgrwt>
<rscale>  4 0.29303355E+03</rscale>
<asrwt>0</asrwt>
<pdfrwt beam="1">  1       21 0.16764993E+00 0.29303355E+03</pdfrwt>
<pdfrwt beam="2">  1       21 0.17379480E-01 0.29303355E+03</pdfrwt>
<totfact> 0.61947662E+03</totfact>
</mgrwt>
</event>
<event>
 5    0  0.1283376E+001  0.2802499E+03  0.7546771E-02  0.1095553E+00
         21   -1    0    0  503  501  0.00000000000E+00  0.00000000000E+00  0.57072109834E+03  0.57072109834E+03  0.00000000000E+00 0.  1.
         21   -1    0    0  504  502 -0.00000000000E+00 -0.00000000000E+00 -0.62801002225E+03  0.62801002225E+03  0.00000000000E+00 0. -1.
         25    1    1    2    0    0 -0.78379357946E+02 -0.24037872936E+03  0.49867660412E+03  0.57291239537E+03  0.12500000000E+03 0.  0.
         21    1    1    2  503  502  0.69713099549E+01  0.32294112673E+02 -0.61261786365E+01  0.33601174690E+02  0.00000000000E+00 0.  1.
         21    1    1    2  504  501  0.71408047992E+02  0.20808461668E+03 -0.54983934939E+03  0.59221755053E+03  0.00000000000E+00 0. -1.
<mgrwt>
<rscale>  4 0.28024993E+03</rscale>
<asrwt>0</asrwt>
<pdfrwt beam="1">  1       21 0.87803246E-01 0.28024993E+03</pdfrwt>
<pdfrwt beam="2">  1       21 0.96616927E-01 0.28024993E+03</pdfrwt>
<totfact> 0.91914316E+02</totfact>
</mgrwt>
</event>
<event>
 5    0  0.1283376E+001  0.3762488E+03  0.7546771E-02  0.1052329E+00
         21   -1    0    0  504  501  0.00000000000E+00  0.00000000000E+00  0.33183193772E+03  0.33183193772E+03  0.00000000000E+00 0. -1.
         21   -1    0    0  501  502 -0.00000000000E+00 -0.00000000000E+00 -0.15568666450E+04  0.15568666450E+04  0.00000000000E+00 0.  1.
         25    1    1    2    0    0 -0.35629419078E+03  0.32336225195E+03 -0.17083322737E+03  0.52565928884E+03  0.12500000000E+03 0.  0.
         21    1    1    2  503  502  0.10330125235E+03 -0.16127723218E+03 -0.10450326933E+04  0.10624381509E+04  0.00000000000E+00 0.  1.
         21    1    1    2  504  503  0.25299293843E+03 -0.16208501977E+03 -0.91687866033E+01  0.30060114301E+03  0.00000000000E+00 0.  1.
<mgrwt>
<rscale>  4 0.37624875E+03</rscale>
<asrwt>0</asrwt>
<pdfrwt beam="1">  1       21 0.51051067E-01 0.37624875E+03</pdfrwt>
<pdfrwt beam="2">  1       21 0.23951795E+00 0.37624875E+03</pdfrwt>
<totfact> 0.23450866E+02</totfact>
</mgrwt>
</event>
<event>
 5    0  0.1283376E+001  0.5193832E+03  0.7546771E-02  0.1008840E+00
         21   -1    0    0  503  501  0.00000000000E+00  0.00000000000E+00  0.79770044326E+03  0.79770044326E+03  0.00000000000E+00 0. -1.
         21   -1    0    0  504  502 -0.00000000000E+00 -0.00000000000E+00 -0.64610256337E+03  0.64610256337E+03  0.00000000000E+00 0.  1.
         25    1    1    2    0    0 -0.50324549796E+03 -0.16179887347E+02  0.56584472304E+03  0.76767380479E+03  0.12500000000E+03 0.  0.
         21    1    1    2  503  502 -0.28609302778E+01 -0.22466506988E+02 -0.38265048902E+02  0.44465074224E+02  0.00000000000E+00 0.  1.
         21    1    1    2  504  501  0.50610642824E+03  0.38646394335E+02 -0.37598179426E+03  0.63166412761E+03  0.00000000000E+00 0.  1.
<mgrwt>
<rscale>  4 0.51938322E+03</rscale>
<asrwt>0</asrwt>
<pdfrwt beam="1">  1       21 0.12272315E+00 0.51938322E+03</pdfrwt>
<pdfrwt beam="2">  1       21 0.99400394E-01 0.51938322E+03</pdfrwt>
<totfact> 0.33436550E+02</totfact>
</mgrwt>
</event>
<event>
 5    0  0.1283376E+001  0.2318872E+03  0.7546771E-02  0.1125318E+00
         21   -1    0    0  503  501  0.00000000000E+00  0.00000000000E+00  0.18071291239E+03  0.18071291239E+03  0.00000000000E+00 0. -1.
         21   -1    0    0  504  502 -0.00000000000E+00 -0.00000000000E+00 -0.63032454208E+03  0.63032454208E+03  0.00000000000E+00 0. -1.
         25    1    1    2    0    0  0.96222015483E+02  0.17967302766E+03  0.51663680444E+02  0.24461236479E+03  0.12500000000E+03 0.  0.
         21    1    1    2  503  502 -0.33349142763E+02 -0.17421840146E+03 -0.24486441311E+03  0.30236203058E+03  0.00000000000E+00 0. -1.
         21    1    1    2  504  501 -0.62872872719E+02 -0.54546261952E+01 -0.25641089702E+03  0.26406305910E+03  0.00000000000E+00 0. -1.
<mgrwt>
<rscale>  4 0.23188717E+03</rscale>
<asrwt>0</asrwt>
<pdfrwt beam="1">  1       21 0.27801987E-01 0.23188717E+03</pdfrwt>
<pdfrwt beam="2">  1       21 0.96973006E-01 0.23188717E+03</pdfrwt>
<totfact> 0.10625895E+04</totfact>
</mgrwt>
</event>
<event>
 5    0  0.1283376E+001  0.2957794E+03  0.7546771E-02  0.1087370E+00
         21   -1    0    0  504  501  0.00000000000E+00  0.00000000000E+00  0.32653835045E+03  0.32653835045E+03  0.00000000000E+00 0.  1.
         21   -1    0    0  501  502 -0.00000000000E+00 -0.00000000000E+00 -0.57431229789E+03  0.57431229789E+03  0.00000000000E+00 0.  1.
         25    1    1    2    0    0 -0.18938007749E+03 -0.22020513749E+03  0.17460954763E+03  0.36120438875E+03  0.12500000000E+03 0.  0.
         21    1    1    2  503  502  0.42166302803E+01  0.11046649774E+03 -0.20969622123E+03  0.23705090654E+03  0.00000000000E+00 0.  1.
         21    1    1    2  504  503  0.18516344721E+03  0.10973863975E+03 -0.21268727383E+03  0.30259535305E+03  0.00000000000E+00 0.  1.
<mgrwt>
<rscale>  4 0.29577937E+03</rscale>
<asrwt>0</asrwt>
<pdfrwt beam="1">  1       21 0.50236669E-01 0.29577937E+03</pdfrwt>
<pdfrwt beam="2">  1       21 0.88355738E-01 0.29577937E+03</pdfrwt>
<totfact> 0.38605599E+03</totfact>
</mgrwt>
</event>
<event>
 5    0  0.1283376E+001  0.5406359E+03  0.7546771E-02  0.1003685E+00
         21   -1    0    0  504  501  0.00000000000E+00  0.00000000000E+00  0.16834978295E+03  0.16834978295E+03  0.00000000000E+00 0.  1.
         21   -1    0    0  503  502 -0.00000000000E+00 -0.00000000000E+00 -0.20795518945E+04  0.20795518945E+04  0.00000000000E+00 0.  1.
         25    1    1    2    0    0  0.51204052970E+03 -0.11196841907E+03 -0.12730437567E+04  0.13823848369E+04  0.12500000000E+03 0.  0.
         21    1    1    2  503  501 -0.50495173528E+03  0.16497521534E+03 -0.58046515577E+03  0.78684996899E+03  0.00000000000E+00 0.  1.
         21    1    1    2  504  502 -0.70887944158E+01 -0.53006796271E+02 -0.57693199129E+02  0.78666871572E+02  0.00000000000E+00 0. -1.
<mgrwt>
<rscale>  4 0.54063592E+03</rscale>
<asrwt>0</asrwt>
<pdfrwt beam="1">  1       21 0.25899967E-01 0.54063592E+03</pdfrwt>
<pdfrwt beam="2">  1       21 0.31993105E+00 0.54063592E+03</pdfrwt>
<totfact> 0.27659972E+02</totfact>
</mgrwt>
</event>
<event>
 5    0  0.1283376E+001  0.2443526E+03  0.7546771E-02  0.1116927E+00
         21   -1    0    0  503  501  0.00000000000E+00  0.00000000000E+00  0.17217679940E+04  0.17217679940E+04  0.00000000000E+00 0.  1.
         21   -1    0    0  504  502 -0.00000000000E+00 -0.00000000000E+00 -0.25727723206E+03  0.25727723206E+03  0.00000000000E+00 0.  1.
         25    1    1    2    0    0 -0.12608932506E+03  0.18314614219E+03  0.12675422584E+04  0.12929537517E+04  0.12500000000E+03 0.  0.
         21    1    1    2  503  502  0.94271572399E+01 -0.33003399049E+02 -0.22272503988E+03  0.22535425230E+03  0.00000000000E+00 0.  1.
         21    1    1    2  504  501  0.11666216782E+03 -0.15014274314E+03  0.41967354344E+03  0.46073722204E+03  0.00000000000E+00 0.  1.
<mgrwt>
<rscale>  4 0.24435256E+03</rscale>
<asrwt>0</asrwt>
<pdfrwt beam="1">  1       21 0.26488738E+00 0.24435256E+03</pdfrwt>
<pdfrwt beam="2">  1       21 0.39581114E-01 0.24435256E+03</pdfrwt>
<totfact> 0.31372984E+02</totfact>
</mgrwt>
</event>
<event>
 5    0  0.1283376E+001  0.2676176E+03  0.7546771E-02  0.1102651E+00
         21   -1    0    0  504  501  0.00000000000E+00  0.00000000000E+00  0.53019786769E+03  0.53019786769E+03  0.00000000000E+00 0.  1.
         21   -1    0    0  501  502 -0.00000000000E+00 -0.00000000000E+00 -0.68464598739E+03  0.68464598739E+03  0.00000000000E+00 0.  1.
         25    1    1    2    0    0  0.23306169375E+03 -0.46461254236E+02  0.40760598876E+03  0.48810249263E+03  0.12500000000E+03 0.  0.
         21    1    1    2  503  502 -0.99827079157E+01 -0.22230093593E+02 -0.47804887246E+03  0.47866956867E+03  0.00000000000E+00 0.  1.
         21    1    1    2  504  503 -0.22307898583E+03  0.68691347829E+02 -0.84005236008E+02  0.24807179377E+03  0.00000000000E+00 0.  1.
<mgrwt>
<rscale>  4 0.26761757E+03</rscale>
<asrwt>0</asrwt>
<pdfrwt beam="1">  1       21 0.81568904E-01 0.26761757E+03</pdfrwt>
<pdfrwt beam="2">  1       21 0.10533015E+00 0.26761757E+03</pdfrwt>
<totfact> 0.89352111E+02</totfact>
</mgrwt>
</event>
<event>
 5    0  0.1283376E+001  0.2155363E+03  0.7546771E-02  0.1137255E+00
         21   -1    0    0  504  501  0.00000000000E+00  0.00000000000E+00  0.74134373713E+03  0.74134373713E+03  0.00000000000E+00 0.  1.
         21   -1    0    0  503  502 -0.00000000000E+00 -0.00000000000E+00 -0.43194766172E+03  0.43194766172E+03  0.00000000000E+00 0. -1.
         25    1    1    2    0    0  0.17621817059E+03 -0.96475480352E+02  0.61911250695E+03  0.66278628397E+03  0.12500000000E+03 0.  0.
         21    1    1    2  503  501 -0.84966537900E+02  0.98524210770E+02  0.50008201857E+02  0.13938132200E+03  0.00000000000E+00 0.  1.
         21    1    1    2  504  502 -0.91251632692E+02 -0.20487304178E+01 -0.35972463340E+03  0.37112379288E+03  0.00000000000E+00 0. -1.
<mgrwt>
<rscale>  4 0.21553632E+03</rscale>
<asrwt>0</asrwt>
<pdfrwt beam="1">  1       21 0.11405288E+00 0.21553632E+03</pdfrwt>
<pdfrwt beam="2">  1       21 0.66453487E-01 0.21553632E+03</pdfrwt>
<totfact> 0.12155548E+03</totfact>
</mgrwt>
</event>
<event>
 5    0  0.1283376E+001  0.2685361E+03  0.7546771E-02  0.1102120E+00
         21   -1    0    0  503  501  0.00000000000E+00  0.00000000000E+00  0.15690535677E+03  0.15690535677E+03  0.00000000000E+00 0. -1.
         21   -1    0    0  504  502 -0.00000000000E+00 -0.00000000000E+00 -0.54823794421E+03  0.54823794421E+03  0.00000000000E+00 0. -1.
         25    1    1    2    0    0 -0.52183327094E+02 -0.22019291343E+03 -0.12672542632E+03  0.28791032011E+03  0.12500000000E+03 0.  0.
         21    1    1    2  503  502 -0.65268177799E+02 -0.81297032421E+01 -0.50746988454E+02  0.83073966712E+02  0.00000000000E+00 0. -1.
         21    1    1    2  504  501  0.11745150489E+03  0.22832261668E+03 -0.21386017267E+03  0.33415901415E+03  0.00000000000E+00 0. -1.
<mgrwt>
<rscale>  4 0.26853613E+03</rscale>
<asrwt>0</asrwt>
<pdfrwt beam="1">  1       21 0.24139285E-01 0.26853613E+03</pdfrwt>
<pdfrwt beam="2">  1       21 0.84344300E-01 0.26853613E+03</pdfrwt>
<totfact> 0.18957802E+04</totfact>
</mgrwt>
</event>
