<LesHouchesEvents version="3.0">
  <!--
  <scalesfunctionalform>
    muR  H_T/2 := sum_i mT(i)/2, i=final state
    muF1 H_T/2 := sum_i mT(i)/2, i=final state
    muF2 H_T/2 := sum_i mT(i)/2, i=final state
    QES  H_T/2 := sum_i mT(i)/2, i=final state
  </scalesfunctionalform>
HERWIG6   
  -->
  <header>
       54
  </header>
  <init>
   2212   2212 0.65000000D+04 0.65000000D+04 -1 -1   247000   247000 -3   1
 0.11004625D-01 0.21841234D-03 0.49224707D-03     66
  </init>
  <event>
  6     66 -.49224707E-03 0.18683209E+02 0.75467711E-02 0.11326815E+00
       -4 -1    0    0    0  501 0.00000000E+00 0.00000000E+00 0.97168585E+02 0.97180947E+02 0.15500000E+01 0.0000E+00 0.9000E+01
       21 -1    0    0  501  503 0.00000000E+00 0.00000000E+00 -.56360553E+03 0.56360603E+03 0.75000000E+00 0.0000E+00 0.9000E+01
       25  1    1    2    0    0 -.65848716E+02 -.16770270E+03 -.29436943E+03 0.36706758E+03 0.12500000E+03 0.0000E+00 0.9000E+01
      -24  1    1    2    0    0 0.58920215E+02 0.15736860E+03 -.13115424E+03 0.22782695E+03 0.80419002E+02 0.0000E+00 0.9000E+01
       -3  1    1    2    0  502 0.12114864E+02 0.21877648E+02 -.21459066E+01 0.25104907E+02 0.50000000E+00 0.0000E+00 0.9000E+01
       21  1    1    2  502  503 -.51863640E+01 -.11543546E+02 -.38767372E+02 0.40787540E+02 0.75000000E+00 0.0000E+00 0.9000E+01
#aMCatNLO 2  0  0  2  1 0.12655110D+02 0.00000000D+00  -5  6  0 0.00000000D+00 0.00000000D+00 0.00000000D+00 0.00000000D+00 0.00000000D+00
  <mgrwgt>
 -.2422814888D-01    4    2    0
 0.224353451289342D+03 0.000000000000000D+00 0.000000000000000D+00 0.224353451289342D+03
 0.224353451289342D+03 0.000000000000000D+00 0.000000000000000D+00 -.224353451289342D+03
 0.231703449776407D+03 -.684971982742377D+02 -.173597237671313D+03 -.568649412182710D+02
 0.185063256814055D+03 0.567540930425023D+02 0.152547611329776D+03 0.359081086769716D+02
 0.319401959882220D+02 0.117431052317355D+02 0.210496263415376D+02 0.209568325412994D+02
 0.000000000000000D+00 -.000000000000000D+00 -.000000000000000D+00 -.000000000000000D+00
 0.226792938980708D+03 0.000000000000000D+00 0.000000000000000D+00 0.226792938980708D+03
 0.241478091714912D+03 0.000000000000000D+00 0.000000000000000D+00 -.241478091714912D+03
 0.226537855843987D+03 -.658494411598269D+02 -.167703994256464D+03 -.568649412182710D+02
 0.189717313614446D+03 0.589196069530205D+02 0.157367502294648D+03 0.359081086769716D+02
 0.326301569252648D+02 0.121161982052622D+02 0.218800377480054D+02 0.209568325412994D+02
 0.193857043119214D+02 -.518636399845586D+01 -.115435457861890D+02 -.146851527342049D+02
-.946647525411D-04 0.000000000000D+00 0.000000000000D+00 0.134290204706D-06 0.000000000000D+00  6 -4 21 25 -24 -3 21 4 0.14788724D-01 0.87124123D-01 0.49115136D+05 0.49115136D+05 0.49115136D+05 0.11930505D+01  1  2 13  2  6  2       21 -.353041163046D-01 0.100000000000D+01
-.620570488309D-04 0.000000000000D+00 0.000000000000D+00 0.134290204706D-06 0.000000000000D+00  6 -4 21 25 -24 -3 21 4 0.14788724D-01 0.90367278D-01 0.49115136D+05 0.49115136D+05 0.49115136D+05 0.11930505D+01  1  2 13  2  6  2       21 -.212643304268D-01 0.100000000000D+01
-.505416883619D-05 0.000000000000D+00 0.000000000000D+00 0.134869083173D-06 0.000000000000D+00  6 -4 21 25 -24 -3 21 4 0.14788724D-01 0.80557891D-01 0.46282427D+05 0.46282427D+05 0.46282427D+05 0.11956192D+01  1  2  8  2  6  2       21 -.227446018286D-02 0.100000000000D+01
0.935595917954D-04 0.000000000000D+00 0.000000000000D+00 0.134869083173D-06 0.122079980621D-07  6 -4 21 25 -24 -3 21 4 0.14949528D-01 0.86706782D-01 0.49115136D+05 0.49115136D+05 0.49115136D+05 0.11930505D+01  1  2  1  2  6  2       21 0.346147580308D-01 0.100000000000D+01
  </mgrwgt>
  </event>
  <event>
  5     66 0.49224707E-03 0.28972964E+02 0.75467711E-02 0.12390750E+00
       -2 -1    0    0    0  501 0.00000000E+00 0.00000000E+00 0.60932515E+03 0.60932524E+03 0.32000000E+00 0.0000E+00 0.9000E+01
       21 -1    0    0  501  502 0.00000000E+00 0.00000000E+00 -.31183619E+02 0.31192637E+02 0.75000000E+00 0.0000E+00 0.9000E+01
       25  1    1    2    0    0 0.28544717E+02 -.65970922E+01 0.20719812E+03 0.24375066E+03 0.12500000E+03 0.0000E+00 0.9000E+01
      -24  1    1    2    0    0 -.12067167E+02 0.30953759E+02 0.35002526E+03 0.36067804E+03 0.80419002E+02 0.0000E+00 0.9000E+01
       -1  1    1    2    0  502 -.16477550E+02 -.24356667E+02 0.20918152E+02 0.36089172E+02 0.32000000E+00 0.0000E+00 0.9000E+01
#aMCatNLO 1  0  0  2  2 0.13903890D+00 0.00000000D+00  -5  6  0 0.00000000D+00 0.00000000D+00 0.00000000D+00 0.00000000D+00 0.00000000D+00
  <mgrwgt>
 0.4621885429D-01   23    4    0
 0.137854555890197D+03 0.000000000000000D+00 0.000000000000000D+00 0.137854555890197D+03
 0.137854555890197D+03 0.000000000000000D+00 0.000000000000000D+00 -.137854555890197D+03
 0.131793971159659D+03 0.285449692691536D+02 -.659671921221880D+01 -.297711077907949D+02
 0.103938021467842D+03 -.120669682558554D+02 0.309540530186370D+02 0.568518357760823D+02
 0.399771191528937D+02 -.164780010132982D+02 -.243573338064182D+02 -.270807279852874D+02
 0.000000000000000D+00 -.000000000000000D+00 0.000000000000000D+00 -.000000000000000D+00
 0.137885486241730D+03 0.000000000000000D+00 0.000000000000000D+00 0.137885486241730D+03
 0.138010914810789D+03 0.000000000000000D+00 0.000000000000000D+00 -.138010914810789D+03
 0.131808520041617D+03 0.286059670983756D+02 -.662312183467124D+01 -.297711077907949D+02
 0.103926249309003D+03 -.120188682958269D+02 0.309332331779835D+02 0.568518357760823D+02
 0.399743774881245D+02 -.164595001724452D+02 -.243653418080524D+02 -.270807279852874D+02
 0.187254213773982D+00 -.127598630103578D+00 0.552304647401453D-01 -.125428569059804D+00
 0.137854555890197D+03 0.000000000000000D+00 0.000000000000000D+00 0.137854555890197D+03
 0.137854555890197D+03 0.000000000000000D+00 0.000000000000000D+00 -.137854555890197D+03
 0.131793971159659D+03 0.285449692691536D+02 -.659671921221880D+01 -.297711077907949D+02
 0.103938021467842D+03 -.120669682558554D+02 0.309540530186370D+02 0.568518357760823D+02
 0.000000000000000D+00 -.000000000000000D+00 0.000000000000000D+00 -.000000000000000D+00
 0.399771191528937D+02 -.164780010132982D+02 -.243573338064182D+02 -.270807279852874D+02
 0.137885486241730D+03 0.000000000000000D+00 0.000000000000000D+00 0.137885486241730D+03
 0.138010914810789D+03 0.000000000000000D+00 0.000000000000000D+00 -.138010914810789D+03
 0.131808520041617D+03 0.286059670983756D+02 -.662312183467124D+01 -.297711077907949D+02
 0.103926249309003D+03 -.120188682958269D+02 0.309332331779835D+02 0.568518357760823D+02
 0.187254213773982D+00 -.127598630103578D+00 0.552304647401453D-01 -.125428569059804D+00
 0.399743774881245D+02 -.164595001724452D+02 -.243653418080524D+02 -.270807279852874D+02
0.852196634052D-06 0.000000000000D+00 0.000000000000D+00 0.102333034924D-05 0.000000000000D+00  6 -2 21 25 -24 -1 21 2 0.93743032D-01 0.47981800D-02 0.14982539D+05 0.14982539D+05 0.14982539D+05 0.12478802D+01  1  2  2  2  6  2       21 0.308855861930D-02 0.100000000000D+01
0.257609860439D-07 0.449716519053D-07 -.172033947542D-08 0.102333034924D-05 0.000000000000D+00  6 -2 21 25 -24 -1 21 4 0.93743032D-01 0.47981800D-02 0.14982539D+05 0.14982539D+05 0.14982539D+05 0.12478802D+01  1  2  3  2  6  2       21 0.145386575060D-03 0.100000000000D+01
0.979674874513D-07 0.000000000000D+00 0.000000000000D+00 0.102333034924D-05 0.000000000000D+00  6 -2 21 25 -24 -1 21 4 0.93743032D-01 0.47981800D-02 0.14982539D+05 0.14982539D+05 0.14982539D+05 0.12478802D+01  1  2 15  2  6  2       21 0.552896439738D-03 0.100000000000D+01
-.123657371326D-03 0.000000000000D+00 0.000000000000D+00 0.102333034924D-05 0.000000000000D+00  6 -2 21 25 -24 -1 21 4 0.93743032D-01 0.47981800D-02 0.14982539D+05 0.14982539D+05 0.14982539D+05 0.12478802D+01  1  2  4  2  6  2       21 -.697881737426D+00 0.100000000000D+01
-.352310758137D-02 0.000000000000D+00 -.230189597429D-03 0.102333034924D-05 0.000000000000D+00  6 -2 21 25 -24 -1 21 4 0.93743032D-01 0.48046802D-02 0.14982539D+05 0.14982539D+05 0.14982539D+05 0.12478802D+01  1  2  5  2  6  2       21 -.198382565223D+02 0.100000000000D+01
0.352340571542D-02 0.000000000000D+00 0.230188753675D-03 0.102333034924D-05 0.000000000000D+00  6 -2 21 25 -24 -1 21 4 0.93743032D-01 0.47981800D-02 0.14982539D+05 0.14982539D+05 0.14982539D+05 0.12478802D+01  1  2  6  2  6  2       21 0.198849488385D+02 0.100000000000D+01
0.123474544691D-03 0.000000000000D+00 0.000000000000D+00 0.102333034924D-05 0.758322746296D-03  6 -2 21 25 -24 -1 21 4 0.93764065D-01 0.48036223D-02 0.14999213D+05 0.14999213D+05 0.14999213D+05 0.12478251D+01  1  2 11  2  6  2       21 0.695067340017D+00 0.100000000000D+01
-.993104711335D-06 0.000000000000D+00 -.693913298605D-07 0.102333034924D-05 0.000000000000D+00  6 -2 -1 25 -24 -1 -1 4 0.93743032D-01 0.48046802D-02 0.14982539D+05 0.14982539D+05 0.14982539D+05 0.12478802D+01  1  2  5  5  6  2       21 -.316150533114D-03 0.100000000000D+01
0.209169615235D-06 0.000000000000D+00 0.000000000000D+00 0.102333034924D-05 0.123984147066D-06  6 -2 -1 25 -24 -1 -1 4 0.93764065D-01 0.48036223D-02 0.14999213D+05 0.14999213D+05 0.14999213D+05 0.12478251D+01  1  2 11  5  6  2       21 0.665667209640D-04 0.100000000000D+01
-.993104711335D-06 0.000000000000D+00 -.693913298605D-07 0.102333034924D-05 0.000000000000D+00  6 -2 1 25 -24 1 -1 4 0.93743032D-01 0.48046802D-02 0.14982539D+05 0.14982539D+05 0.14982539D+05 0.12478802D+01  3  4  5  6  5  2       21 -.354927180127D-03 0.100000000000D+01
0.104995858883D-05 0.000000000000D+00 0.000000000000D+00 0.102333034924D-05 0.633838945124D-05  6 -2 1 25 -24 1 -1 4 0.93764065D-01 0.48036223D-02 0.14999213D+05 0.14999213D+05 0.14999213D+05 0.12478251D+01  3  4 11  6  5  2       21 0.375115397351D-03 0.100000000000D+01
-.993104711335D-06 0.000000000000D+00 -.693913298605D-07 0.102333034924D-05 0.000000000000D+00  6 -2 -2 25 -24 -1 -2 4 0.93743032D-01 0.48046802D-02 0.14982539D+05 0.14982539D+05 0.14982539D+05 0.12478802D+01  1  2  5  7  6  2       21 -.309295843928D-03 0.100000000000D+01
0.202574616025D-06 0.000000000000D+00 0.000000000000D+00 0.102333034924D-05 0.261206522784D-06  6 -2 -2 25 -24 -1 -2 4 0.93764065D-01 0.48036223D-02 0.14999213D+05 0.14999213D+05 0.14999213D+05 0.12478251D+01  1  2 11  7  6  2       21 0.630704588029D-04 0.100000000000D+01
-.993104711335D-06 0.000000000000D+00 -.693913298605D-07 0.102333034924D-05 0.000000000000D+00  6 -2 2 25 -24 2 -1 4 0.93743032D-01 0.48046802D-02 0.14982539D+05 0.14982539D+05 0.14982539D+05 0.12478802D+01  3  4  5  8  5  2       21 -.380964452377D-03 0.100000000000D+01
0.209240205224D-06 0.000000000000D+00 0.000000000000D+00 0.102333034924D-05 0.247969642184D-06  6 -2 2 25 -24 2 -1 4 0.93764065D-01 0.48036223D-02 0.14999213D+05 0.14999213D+05 0.14999213D+05 0.12478251D+01  3  4 11  8  5  2       21 0.802374401497D-04 0.100000000000D+01
-.993104711335D-06 0.000000000000D+00 -.693913298605D-07 0.102333034924D-05 0.000000000000D+00  6 -2 -3 25 -24 -1 -3 4 0.93743032D-01 0.48046802D-02 0.14982539D+05 0.14982539D+05 0.14982539D+05 0.12478802D+01  1  2  5  9  6  2       21 -.224463080454D-03 0.100000000000D+01
-.993104711335D-06 0.000000000000D+00 -.693913298605D-07 0.102333034924D-05 0.000000000000D+00  6 -2 -4 25 -24 -1 -4 4 0.93743032D-01 0.48046802D-02 0.14982539D+05 0.14982539D+05 0.14982539D+05 0.12478802D+01  1  2  5  9  6  2       21 -.199661176951D-03 0.100000000000D+01
0.209240586079D-06 0.000000000000D+00 0.000000000000D+00 0.102333034924D-05 0.247970093534D-06  6 -2 -3 25 -24 -1 -3 4 0.93764065D-01 0.48036223D-02 0.14999213D+05 0.14999213D+05 0.14999213D+05 0.12478251D+01  1  2 11  9  6  2       21 0.472799104494D-04 0.100000000000D+01
0.209240586079D-06 0.000000000000D+00 0.000000000000D+00 0.102333034924D-05 0.247970093534D-06  6 -2 -4 25 -24 -1 -4 4 0.93764065D-01 0.48036223D-02 0.14999213D+05 0.14999213D+05 0.14999213D+05 0.12478251D+01  1  2 11  9  6  2       21 0.420564847152D-04 0.100000000000D+01
-.993104711335D-06 0.000000000000D+00 -.693913298605D-07 0.102333034924D-05 0.000000000000D+00  6 -2 3 25 -24 3 -1 4 0.93743032D-01 0.48046802D-02 0.14982539D+05 0.14982539D+05 0.14982539D+05 0.12478802D+01  3  4  5 10  5  2       21 -.224440827217D-03 0.100000000000D+01
-.993104711335D-06 0.000000000000D+00 -.693913298605D-07 0.102333034924D-05 0.000000000000D+00  6 -2 4 25 -24 4 -1 4 0.93743032D-01 0.48046802D-02 0.14982539D+05 0.14982539D+05 0.14982539D+05 0.12478802D+01  3  4  5 10  5  2       21 -.199661176951D-03 0.100000000000D+01
0.209240586079D-06 0.000000000000D+00 0.000000000000D+00 0.102333034924D-05 0.247970093534D-06  6 -2 3 25 -24 3 -1 4 0.93764065D-01 0.48036223D-02 0.14999213D+05 0.14999213D+05 0.14999213D+05 0.12478251D+01  3  4 11 10  5  2       21 0.472752241101D-04 0.100000000000D+01
0.209240586079D-06 0.000000000000D+00 0.000000000000D+00 0.102333034924D-05 0.247970093534D-06  6 -2 4 25 -24 4 -1 4 0.93764065D-01 0.48036223D-02 0.14999213D+05 0.14999213D+05 0.14999213D+05 0.12478251D+01  3  4 11 10  5  2       21 0.420564847152D-04 0.100000000000D+01
  </mgrwgt>
  </event>
  <event>
  5     66 0.49224707E-03 0.21986676E+02 0.75467711E-02 0.12292323E+00
       -4 -1    0    0    0  501 0.00000000E+00 0.00000000E+00 0.46172607E+03 0.46172867E+03 0.15500000E+01 0.0000E+00 0.9000E+01
       21 -1    0    0  501  502 0.00000000E+00 0.00000000E+00 -.36579513E+02 0.36587201E+02 0.75000000E+00 0.0000E+00 0.9000E+01
       25  1    1    2    0    0 -.12030419E+02 -.47299867E+02 0.18845567E+03 0.23134940E+03 0.12500000E+03 0.0000E+00 0.9000E+01
      -24  1    1    2    0    0 -.64872160E+01 0.35449553E+02 0.12384897E+03 0.15200177E+03 0.80419002E+02 0.0000E+00 0.9000E+01
       -3  1    1    2    0  502 0.18517635E+02 0.11850314E+02 0.11284192E+03 0.11496469E+03 0.50000000E+00 0.0000E+00 0.9000E+01
#aMCatNLO 1  0  0  1  2 0.12565723D+02 0.00000000D+00  -5  6  0 0.00000000D+00 0.00000000D+00 0.00000000D+00 0.00000000D+00 0.00000000D+00
  <mgrwgt>
 0.5195027685D-02    9    4    0
 0.129970297421283D+03 0.000000000000000D+00 0.000000000000000D+00 0.129970297421283D+03
 0.129970297421283D+03 0.000000000000000D+00 0.000000000000000D+00 -.129970297421283D+03
 0.135276775097183D+03 -.120313577855803D+02 -.473004675521748D+02 -.171090058119962D+02
 0.888315767341323D+02 -.648783218231592D+01 0.354491583746949D+02 -.111847340067346D+02
 0.358322430112500D+02 0.185191899678962D+02 0.118513091774799D+02 0.282937398187308D+02
 0.000000000000000D+00 -.000000000000000D+00 -.000000000000000D+00 0.000000000000000D+00
 0.166510881536025D+03 0.000000000000000D+00 0.000000000000000D+00 0.166510881536025D+03
 0.131206861467505D+03 0.000000000000000D+00 0.000000000000000D+00 -.131206861467505D+03
 0.133084331584602D+03 -.109857474443254D+02 -.409027454645133D+02 -.171090058119962D+02
 0.905759228352192D+02 -.578881011027311D+01 0.397262286881960D+02 -.111847340067346D+02
 0.365838814350365D+02 0.188013435539016D+02 0.135777077774909D+02 0.282937398187308D+02
 0.374736071486722D+02 -.202678599930313D+01 -.124011910011736D+02 0.353040200685199D+02
 0.129970297421283D+03 0.000000000000000D+00 0.000000000000000D+00 0.129970297421283D+03
 0.129970297421283D+03 0.000000000000000D+00 0.000000000000000D+00 -.129970297421283D+03
 0.135276775097183D+03 -.120313577855803D+02 -.473004675521748D+02 -.171090058119962D+02
 0.888315767341323D+02 -.648783218231592D+01 0.354491583746949D+02 -.111847340067346D+02
 0.000000000000000D+00 -.000000000000000D+00 -.000000000000000D+00 0.000000000000000D+00
 0.358322430112500D+02 0.185191899678962D+02 0.118513091774799D+02 0.282937398187308D+02
 0.166510881536025D+03 0.000000000000000D+00 0.000000000000000D+00 0.166510881536025D+03
 0.131206861467505D+03 0.000000000000000D+00 0.000000000000000D+00 -.131206861467505D+03
 0.133084331584602D+03 -.109857474443254D+02 -.409027454645133D+02 -.171090058119962D+02
 0.905759228352192D+02 -.578881011027311D+01 0.397262286881960D+02 -.111847340067346D+02
 0.374736071486722D+02 -.202678599930313D+01 -.124011910011736D+02 0.353040200685199D+02
 0.365838814350365D+02 0.188013435539016D+02 0.135777077774909D+02 0.282937398187308D+02
0.415853076106D-06 0.000000000000D+00 0.000000000000D+00 0.393192223393D-06 0.000000000000D+00  6 -4 21 25 -24 -3 21 2 0.71035571D-01 0.56284089D-02 0.14920842D+05 0.14920842D+05 0.14920842D+05 0.12480846D+01  1  2  2  1  6  1       -4 0.105976220830D-02 0.100000000000D+01
-.257848745348D-07 0.219451697356D-07 -.839487548075D-09 0.393192223393D-06 0.000000000000D+00  6 -4 21 25 -24 -3 21 4 0.71035571D-01 0.56284089D-02 0.14920842D+05 0.14920842D+05 0.14920842D+05 0.12480846D+01  1  2  3  1  6  1       -4 -.102357947837D-03 0.100000000000D+01
0.399015614594D-07 0.000000000000D+00 0.000000000000D+00 0.393192223393D-06 0.000000000000D+00  6 -4 21 25 -24 -3 21 4 0.71035571D-01 0.56284089D-02 0.14920842D+05 0.14920842D+05 0.14920842D+05 0.12480846D+01  1  2 15  1  6  1       -4 0.158396812867D-03 0.100000000000D+01
0.622285910980D-05 0.000000000000D+00 0.000000000000D+00 0.389906705171D-06 0.000000000000D+00  6 -4 21 25 -24 -3 21 4 0.91278985D-01 0.56284089D-02 0.16592004D+05 0.16592004D+05 0.16592004D+05 0.12428591D+01  1  2 12  1  6  1       -4 0.140341074450D-01 0.100000000000D+01
-.508424476000D-05 0.000000000000D+00 0.000000000000D+00 0.393192223393D-06 0.000000000000D+00  6 -4 21 25 -24 -3 21 4 0.71035571D-01 0.56284089D-02 0.14920842D+05 0.14920842D+05 0.14920842D+05 0.12480846D+01  1  2  4  1  6  1       -4 -.201828734607D-01 0.100000000000D+01
-.698875657585D-05 0.000000000000D+00 -.447479847219D-06 0.393192223393D-06 0.000000000000D+00  6 -4 21 25 -24 -3 21 4 0.91408461D-01 0.56284089D-02 0.14920842D+05 0.14920842D+05 0.14920842D+05 0.12480846D+01  1  2  5  1  6  1       -4 -.158960556013D-01 0.100000000000D+01
0.689508066571D-05 0.000000000000D+00 0.433621116935D-06 0.393192223393D-06 0.000000000000D+00  6 -4 21 25 -24 -3 21 4 0.71035571D-01 0.56284089D-02 0.14920842D+05 0.14920842D+05 0.14920842D+05 0.12480846D+01  1  2  6  1  6  1       -4 0.273713298919D-01 0.100000000000D+01
0.211061170378D-06 0.000000000000D+00 0.000000000000D+00 0.389906705171D-06 0.000000000000D+00  6 21 21 25 -24 4 -3 4 0.91278985D-01 0.56284089D-02 0.16592004D+05 0.16592004D+05 0.16592004D+05 0.12428591D+01  3  4 12  4  5  1       -4 0.114737376810D-01 0.100000000000D+01
-.230419673369D-06 0.000000000000D+00 -.152403996045D-07 0.393192223393D-06 0.000000000000D+00  6 21 21 25 -24 4 -3 4 0.91408461D-01 0.56284089D-02 0.14920842D+05 0.14920842D+05 0.14920842D+05 0.12480846D+01  3  4  5  4  5  1       -4 -.127210193442D-01 0.100000000000D+01
  </mgrwgt>
  </event>
  <event>
  5     66 -.49224707E-03 0.65581581E+02 0.75467711E-02 0.11697711E+00
       -2 -1    0    0    0  501 0.00000000E+00 0.00000000E+00 0.68984293E+02 0.68985035E+02 0.32000000E+00 0.0000E+00 0.9000E+01
       21 -1    0    0  501  502 -.00000000E+00 -.00000000E+00 -.51205593E+03 0.51205648E+03 0.75000000E+00 0.0000E+00 0.9000E+01
       25  1    1    2    0    0 -.28854634E+02 0.12991711E+03 -.25057364E+03 0.31003741E+03 0.12500000E+03 0.0000E+00 0.9000E+01
      -24  1    1    2    0    0 -.24572433E+01 -.72293832E+02 -.61299002E+02 0.12432707E+03 0.80419002E+02 0.0000E+00 0.9000E+01
       -1  1    1    2    0  502 0.31311877E+02 -.57623274E+02 -.13119900E+03 0.14667704E+03 0.32000000E+00 0.0000E+00 0.9000E+01
#aMCatNLO 1  0  0  5  2 0.37999253D+01 0.00000000D+00  -5  6  0 0.00000000D+00 0.00000000D+00 0.00000000D+00 0.00000000D+00 0.00000000D+00
  <mgrwgt>
 -.1029634659D-01    8    2    0
 0.187947310557927D+03 0.000000000000000D+00 0.000000000000000D+00 0.187947310557927D+03
 0.187947310557927D+03 -.000000000000000D+00 -.000000000000000D+00 -.187947310557927D+03
 0.183888259068584D+03 -.288547847877309D+02 0.129917383568274D+03 -.218807373025373D+02
 0.119925402648308D+03 -.245734173543429D+01 -.722936509451772D+02 0.517926225499399D+02
 0.720809593989604D+02 0.313121265231651D+02 -.576237326230962D+02 -.299118852474026D+02
 0.000000000000000D+00 0.000000000000000D+00 0.000000000000000D+00 -.000000000000000D+00
 0.187947310557927D+03 0.000000000000000D+00 0.000000000000000D+00 0.187947310557927D+03
 0.187947310557927D+03 -.000000000000000D+00 -.000000000000000D+00 -.187947310557927D+03
 0.183769696778144D+03 -.287664756743714D+02 0.129754868233116D+03 -.219650973367610D+02
 0.119964439345585D+03 -.239972171412496D+01 -.723996891185734D+02 0.517375792278557D+02
 0.426883217155650D+02 0.191665763926531D+02 -.354069137323805D+02 -.141875163514950D+02
 0.294721632765599D+02 0.119996209958432D+02 -.219482653821620D+02 -.155849655395998D+02
0.941325815458D-06 0.000000000000D+00 0.000000000000D+00 0.210191819596D-06 0.000000000000D+00  6 -2 21 25 -24 -1 21 2 0.10613067D-01 0.78777935D-01 0.31742451D+05 0.31742451D+05 0.31742451D+05 0.12123334D+01  1  2  2  3  6  5       -1 0.936017998908D-03 0.100000000000D+01
-.249616527260D-07 0.496751280288D-07 -.190026561342D-08 0.210191819596D-06 0.000000000000D+00  6 -2 21 25 -24 -1 21 4 0.10613067D-01 0.78777935D-01 0.31742451D+05 0.31742451D+05 0.31742451D+05 0.12123334D+01  1  2  3  3  6  5       -1 -.364805784819D-04 0.100000000000D+01
0.955945031266D-07 0.000000000000D+00 0.000000000000D+00 0.210191819596D-06 0.000000000000D+00  6 -2 21 25 -24 -1 21 4 0.10613067D-01 0.78777935D-01 0.31742451D+05 0.31742451D+05 0.31742451D+05 0.12123334D+01  1  2 15  3  6  5       -1 0.139708007800D-03 0.100000000000D+01
0.104286624168D-05 0.000000000000D+00 0.000000000000D+00 0.210224049800D-06 0.000000000000D+00  6 -2 21 25 -24 -1 21 4 0.10613067D-01 0.78777935D-01 0.31677375D+05 0.31677375D+05 0.31677375D+05 0.12124264D+01  1  2 12  3  6  5       -1 0.152462845765D-02 0.100000000000D+01
-.372233290261D-04 0.000000000000D+00 0.000000000000D+00 0.210191819596D-06 0.000000000000D+00  6 -2 21 25 -24 -1 21 4 0.10613067D-01 0.78777935D-01 0.31742451D+05 0.31742451D+05 0.31742451D+05 0.12123334D+01  1  2  4  3  6  5       -1 -.544005876054D-01 0.100000000000D+01
-.139706003734D-04 0.000000000000D+00 0.000000000000D+00 0.210191819596D-06 0.000000000000D+00  6 -2 21 25 -24 -1 21 4 0.10613067D-01 0.78777935D-01 0.31742451D+05 0.31742451D+05 0.31742451D+05 0.12123334D+01  1  2  5  3  6  5       -1 -.204175416170D-01 0.100000000000D+01
0.229513981763D-04 0.000000000000D+00 -.000000000000D+00 0.210191819596D-06 0.000000000000D+00  6 -2 21 25 -24 -1 21 4 0.10613067D-01 0.78777935D-01 0.31742451D+05 0.31742451D+05 0.31742451D+05 0.12123334D+01  1  2  6  3  6  5       -1 0.335426620838D-01 0.100000000000D+01
0.194364084886D-04 0.000000000000D+00 0.000000000000D+00 0.210191819596D-06 0.683651752138D-07  6 -2 21 25 -24 -1 21 4 0.10613067D-01 0.78777935D-01 0.31677375D+05 0.31677375D+05 0.31677375D+05 0.12124264D+01  1  2 11  3  6  5       -1 0.284152466653D-01 0.100000000000D+01
  </mgrwgt>
  </event>
  <event>
  5     66 0.49224707E-03 0.75138461E+02 0.75467711E-02 0.11251982E+00
       -4 -1    0    0    0  501 0.00000000E+00 0.00000000E+00 0.24780202E+03 0.24780687E+03 0.15500000E+01 0.0000E+00 0.9000E+01
       21 -1    0    0  501  502 0.00000000E+00 0.00000000E+00 -.34391430E+03 0.34391512E+03 0.75000000E+00 0.0000E+00 0.9000E+01
       25  1    1    2    0    0 0.13186893E+03 0.35700404E+02 -.10296928E+03 0.21187639E+03 0.12500000E+03 0.0000E+00 0.9000E+01
      -24  1    1    2    0    0 -.15096694E+03 -.10837076E+03 0.12636028E+03 0.23868258E+03 0.80419002E+02 0.0000E+00 0.9000E+01
       -3  1    1    2    0  502 0.19098013E+02 0.72670359E+02 -.11950327E+03 0.14116302E+03 0.50000000E+00 0.0000E+00 0.9000E+01
#aMCatNLO 1  0  0  2  1 0.12538168D+01 0.00000000D+00  -5  6  0 0.00000000D+00 0.00000000D+00 0.00000000D+00 0.00000000D+00 0.00000000D+00
  <mgrwgt>
 0.7237528279D-02   41    4    0
 0.291932075181290D+03 0.000000000000000D+00 0.000000000000000D+00 0.291932075181290D+03
 0.291932075181290D+03 0.000000000000000D+00 0.000000000000000D+00 -.291932075181290D+03
 0.197777532324109D+03 0.131868873447078D+03 0.357002020417496D+02 -.694769608013383D+02
 0.262695919416374D+03 -.150967010465172D+03 -.108371031240333D+03 0.167351759664364D+03
 0.123390698622098D+03 0.190981370180942D+02 0.726708291985834D+02 -.978747988630258D+02
 0.000000000000000D+00 0.000000000000000D+00 -.000000000000000D+00 -.000000000000000D+00
 0.291988347944500D+03 0.000000000000000D+00 0.000000000000000D+00 0.291988347944500D+03
 0.299001393864725D+03 0.000000000000000D+00 0.000000000000000D+00 -.299001393864725D+03
 0.197596240988909D+03 0.131527935419085D+03 0.359531441622209D+02 -.694769608013383D+02
 0.262818226799503D+03 -.151420170914314D+03 -.108034831240602D+03 0.167351759664364D+03
 0.123451028824596D+03 0.188852808868517D+02 0.728287472856583D+02 -.978747988630258D+02
 0.712424519621691D+01 0.100695460837757D+01 -.747060207277093D+00 -.701304592022539D+01
 0.291932075181290D+03 0.000000000000000D+00 0.000000000000000D+00 0.291932075181290D+03
 0.291932075181290D+03 0.000000000000000D+00 0.000000000000000D+00 -.291932075181290D+03
 0.197777532324109D+03 0.131868873447078D+03 0.357002020417496D+02 -.694769608013383D+02
 0.262695919416374D+03 -.150967010465172D+03 -.108371031240333D+03 0.167351759664364D+03
 0.000000000000000D+00 0.000000000000000D+00 -.000000000000000D+00 -.000000000000000D+00
 0.123390698622098D+03 0.190981370180942D+02 0.726708291985834D+02 -.978747988630258D+02
 0.291988347944500D+03 0.000000000000000D+00 0.000000000000000D+00 0.291988347944500D+03
 0.299001393864725D+03 0.000000000000000D+00 0.000000000000000D+00 -.299001393864725D+03
 0.197596240988909D+03 0.131527935419085D+03 0.359531441622209D+02 -.694769608013383D+02
 0.262818226799503D+03 -.151420170914314D+03 -.108034831240602D+03 0.167351759664364D+03
 0.712424519621691D+01 0.100695460837757D+01 -.747060207277093D+00 -.701304592022539D+01
 0.123451028824596D+03 0.188852808868517D+02 0.728287472856583D+02 -.978747988630258D+02
0.329204843032D-05 0.000000000000D+00 0.000000000000D+00 0.143143382144D-06 0.000000000000D+00  6 -4 21 25 -24 -3 21 2 0.38123824D-01 0.52910329D-01 0.53546404D+05 0.53546404D+05 0.53546404D+05 0.11893456D+01  1  2  2  2  6  2       21 0.442932925102D-03 0.100000000000D+01
0.376815308044D-07 0.173726168525D-06 -.664569729962D-08 0.143143382144D-06 0.000000000000D+00  6 -4 21 25 -24 -3 21 4 0.38123824D-01 0.52910329D-01 0.53546404D+05 0.53546404D+05 0.53546404D+05 0.11893456D+01  1  2  3  2  6  2       21 0.717160631052D-05 0.100000000000D+01
0.309648785740D-06 0.000000000000D+00 0.000000000000D+00 0.143143382144D-06 0.000000000000D+00  6 -4 21 25 -24 -3 21 4 0.38123824D-01 0.52910329D-01 0.53546404D+05 0.53546404D+05 0.53546404D+05 0.11893456D+01  1  2 15  2  6  2       21 0.589328283234D-04 0.100000000000D+01
0.746370005692D-08 0.000000000000D+00 0.000000000000D+00 0.143084974859D-06 0.000000000000D+00  6 -4 21 25 -24 -3 21 4 0.38123824D-01 0.54196620D-01 0.53851790D+05 0.53851790D+05 0.53851790D+05 0.11891029D+01  1  2 12  2  6  2       21 0.134896441531D-05 0.100000000000D+01
0.684998912780D-08 0.000000000000D+00 0.000000000000D+00 0.143084974859D-06 0.000000000000D+00  6 -4 21 25 -24 -3 21 4 0.38123824D-01 0.54309289D-01 0.53851790D+05 0.53851790D+05 0.53851790D+05 0.11891029D+01  1  2 12  2  6  2       21 0.123260300935D-05 0.100000000000D+01
-.256865065871D-02 0.000000000000D+00 0.000000000000D+00 0.143143382144D-06 0.000000000000D+00  6 -4 21 25 -24 -3 21 4 0.38123824D-01 0.52910329D-01 0.53546404D+05 0.53546404D+05 0.53546404D+05 0.11893456D+01  1  2  4  2  6  2       21 -.488869503979D+00 0.100000000000D+01
-.332641386052D-02 0.000000000000D+00 -.482913745128D-04 0.143143382144D-06 0.000000000000D+00  6 -4 21 25 -24 -3 21 4 0.38123824D-01 0.54196655D-01 0.53546404D+05 0.53546404D+05 0.53546404D+05 0.11893456D+01  1  2  5  2  6  2       21 -.601705268754D+00 0.100000000000D+01
0.332330129561D-02 0.000000000000D+00 0.482356926762D-04 0.143143382144D-06 0.000000000000D+00  6 -4 21 25 -24 -3 21 4 0.38123824D-01 0.52910329D-01 0.53546404D+05 0.53546404D+05 0.53546404D+05 0.11893456D+01  1  2  6  2  6  2       21 0.632495762103D+00 0.100000000000D+01
0.257285992724D-02 0.000000000000D+00 0.000000000000D+00 0.143143382144D-06 0.137975077180D-05  6 -4 21 25 -24 -3 21 4 0.38131173D-01 0.54191585D-01 0.53851790D+05 0.53851790D+05 0.53851790D+05 0.11891029D+01  1  2 11  2  6  2       21 0.464924812786D+00 0.100000000000D+01
0.468068387092D-09 0.000000000000D+00 0.000000000000D+00 0.143084974859D-06 0.000000000000D+00  6 -4 -3 25 -24 -3 -3 4 0.38123824D-01 0.54196620D-01 0.53851790D+05 0.53851790D+05 0.53851790D+05 0.11891029D+01  1  2 12  5  6  2       21 0.448684303424D-08 0.100000000000D+01
0.468559203385D-09 0.000000000000D+00 0.000000000000D+00 0.143084974859D-06 0.000000000000D+00  6 -4 -3 25 -24 -3 -3 4 0.38123824D-01 0.54309289D-01 0.53851790D+05 0.53851790D+05 0.53851790D+05 0.11891029D+01  1  2 12  5  6  2       21 0.447250614330D-08 0.100000000000D+01
-.183350152375D-04 0.000000000000D+00 -.267081314703D-06 0.143143382144D-06 0.000000000000D+00  6 -4 -3 25 -24 -3 -3 4 0.38123824D-01 0.54196655D-01 0.53546404D+05 0.53546404D+05 0.53546404D+05 0.11893456D+01  1  2  5  5  6  2       21 -.175853430155D-03 0.100000000000D+01
0.168838527143D-04 0.000000000000D+00 0.000000000000D+00 0.143143382144D-06 0.428620423617D-08  6 -4 -3 25 -24 -3 -3 4 0.38131173D-01 0.54191585D-01 0.53851790D+05 0.53851790D+05 0.53851790D+05 0.11891029D+01  1  2 11  5  6  2       21 0.161815586038D-03 0.100000000000D+01
0.468068387092D-09 0.000000000000D+00 0.000000000000D+00 0.143084974859D-06 0.000000000000D+00  6 -4 3 25 -24 3 -3 4 0.38123824D-01 0.54196620D-01 0.53851790D+05 0.53851790D+05 0.53851790D+05 0.11891029D+01  3  4 12  6  5  2       21 0.448924700694D-08 0.100000000000D+01
0.468559203385D-09 0.000000000000D+00 0.000000000000D+00 0.143084974859D-06 0.000000000000D+00  6 -4 3 25 -24 3 -3 4 0.38123824D-01 0.54309289D-01 0.53851790D+05 0.53851790D+05 0.53851790D+05 0.11891029D+01  3  4 12  6  5  2       21 0.447491524268D-08 0.100000000000D+01
-.183350152375D-04 0.000000000000D+00 -.267081314703D-06 0.143143382144D-06 0.000000000000D+00  6 -4 3 25 -24 3 -3 4 0.38123824D-01 0.54196655D-01 0.53546404D+05 0.53546404D+05 0.53546404D+05 0.11893456D+01  3  4  5  6  5  2       21 -.175947631860D-03 0.100000000000D+01
0.306300155834D-04 0.000000000000D+00 0.000000000000D+00 0.143143382144D-06 0.164103004196D-07  6 -4 3 25 -24 3 -3 4 0.38131173D-01 0.54191585D-01 0.53851790D+05 0.53851790D+05 0.53851790D+05 0.11891029D+01  3  4 11  6  5  2       21 0.293716661280D-03 0.100000000000D+01
0.468068387092D-09 0.000000000000D+00 0.000000000000D+00 0.143084974859D-06 0.000000000000D+00  6 -4 -4 25 -24 -3 -4 4 0.38123824D-01 0.54196620D-01 0.53851790D+05 0.53851790D+05 0.53851790D+05 0.11891029D+01  1  2 12  7  6  2       21 0.371138390372D-08 0.100000000000D+01
0.468559203385D-09 0.000000000000D+00 0.000000000000D+00 0.143084974859D-06 0.000000000000D+00  6 -4 -4 25 -24 -3 -4 4 0.38123824D-01 0.54309289D-01 0.53851790D+05 0.53851790D+05 0.53851790D+05 0.11891029D+01  1  2 12  7  6  2       21 0.369920838043D-08 0.100000000000D+01
-.183350152375D-04 0.000000000000D+00 -.267081314703D-06 0.143143382144D-06 0.000000000000D+00  6 -4 -4 25 -24 -3 -4 4 0.38123824D-01 0.54196655D-01 0.53546404D+05 0.53546404D+05 0.53546404D+05 0.11893456D+01  1  2  5  7  6  2       21 -.145452832011D-03 0.100000000000D+01
0.169763433540D-04 0.000000000000D+00 0.000000000000D+00 0.143143382144D-06 0.862312725204D-08  6 -4 -4 25 -24 -3 -4 4 0.38131173D-01 0.54191585D-01 0.53851790D+05 0.53851790D+05 0.53851790D+05 0.11891029D+01  1  2 11  7  6  2       21 0.134582816037D-03 0.100000000000D+01
0.468068387092D-09 0.000000000000D+00 0.000000000000D+00 0.143084974859D-06 0.000000000000D+00  6 -4 4 25 -24 4 -3 4 0.38123824D-01 0.54196620D-01 0.53851790D+05 0.53851790D+05 0.53851790D+05 0.11891029D+01  3  4 12  8  5  2       21 0.371138390372D-08 0.100000000000D+01
0.468559203385D-09 0.000000000000D+00 0.000000000000D+00 0.143084974859D-06 0.000000000000D+00  6 -4 4 25 -24 4 -3 4 0.38123824D-01 0.54309289D-01 0.53851790D+05 0.53851790D+05 0.53851790D+05 0.11891029D+01  3  4 12  8  5  2       21 0.369920838043D-08 0.100000000000D+01
-.183350152375D-04 0.000000000000D+00 -.267081314703D-06 0.143143382144D-06 0.000000000000D+00  6 -4 4 25 -24 4 -3 4 0.38123824D-01 0.54196655D-01 0.53546404D+05 0.53546404D+05 0.53546404D+05 0.11893456D+01  3  4  5  8  5  2       21 -.145452832011D-03 0.100000000000D+01
0.169420693738D-04 0.000000000000D+00 0.000000000000D+00 0.143143382144D-06 0.859950140386D-08  6 -4 4 25 -24 4 -3 4 0.38131173D-01 0.54191585D-01 0.53851790D+05 0.53851790D+05 0.53851790D+05 0.11891029D+01  3  4 11  8  5  2       21 0.134311103297D-03 0.100000000000D+01
0.468068387092D-09 0.000000000000D+00 0.000000000000D+00 0.143084974859D-06 0.000000000000D+00  6 -4 -1 25 -24 -3 -1 4 0.38123824D-01 0.54196620D-01 0.53851790D+05 0.53851790D+05 0.53851790D+05 0.11891029D+01  1  2 12  9  6  2       21 0.868997740161D-08 0.100000000000D+01
0.468068387092D-09 0.000000000000D+00 0.000000000000D+00 0.143084974859D-06 0.000000000000D+00  6 -4 -2 25 -24 -3 -2 4 0.38123824D-01 0.54196620D-01 0.53851790D+05 0.53851790D+05 0.53851790D+05 0.11891029D+01  1  2 12  9  6  2       21 0.704691328647D-08 0.100000000000D+01
0.468559203385D-09 0.000000000000D+00 0.000000000000D+00 0.143084974859D-06 0.000000000000D+00  6 -4 -1 25 -24 -3 -1 4 0.38123824D-01 0.54309289D-01 0.53851790D+05 0.53851790D+05 0.53851790D+05 0.11891029D+01  1  2 12  9  6  2       21 0.866519388526D-08 0.100000000000D+01
0.468559203385D-09 0.000000000000D+00 0.000000000000D+00 0.143084974859D-06 0.000000000000D+00  6 -4 -2 25 -24 -3 -2 4 0.38123824D-01 0.54309289D-01 0.53851790D+05 0.53851790D+05 0.53851790D+05 0.11891029D+01  1  2 12  9  6  2       21 0.702461201611D-08 0.100000000000D+01
-.183350152375D-04 0.000000000000D+00 -.267081314703D-06 0.143143382144D-06 0.000000000000D+00  6 -4 -1 25 -24 -3 -1 4 0.38123824D-01 0.54196655D-01 0.53546404D+05 0.53546404D+05 0.53546404D+05 0.11893456D+01  1  2  5  9  6  2       21 -.340629912905D-03 0.100000000000D+01
-.183350152375D-04 0.000000000000D+00 -.267081314703D-06 0.143143382144D-06 0.000000000000D+00  6 -4 -2 25 -24 -3 -2 4 0.38123824D-01 0.54196655D-01 0.53546404D+05 0.53546404D+05 0.53546404D+05 0.11893456D+01  1  2  5  9  6  2       21 -.276220101940D-03 0.100000000000D+01
0.169401608241D-04 0.000000000000D+00 0.000000000000D+00 0.143143382144D-06 0.859853265706D-08  6 -4 -1 25 -24 -3 -1 4 0.38131173D-01 0.54191585D-01 0.53851790D+05 0.53851790D+05 0.53851790D+05 0.11891029D+01  1  2 11  9  6  2       21 0.314439720451D-03 0.100000000000D+01
0.169401608241D-04 0.000000000000D+00 0.000000000000D+00 0.143143382144D-06 0.859853265706D-08  6 -4 -2 25 -24 -3 -2 4 0.38131173D-01 0.54191585D-01 0.53851790D+05 0.53851790D+05 0.53851790D+05 0.11891029D+01  1  2 11  9  6  2       21 0.254990367626D-03 0.100000000000D+01
0.468068387092D-09 0.000000000000D+00 0.000000000000D+00 0.143084974859D-06 0.000000000000D+00  6 -4 1 25 -24 1 -3 4 0.38123824D-01 0.54196620D-01 0.53851790D+05 0.53851790D+05 0.53851790D+05 0.11891029D+01  3  4 12 10  5  2       21 0.208092895428D-07 0.100000000000D+01
0.468068387092D-09 0.000000000000D+00 0.000000000000D+00 0.143084974859D-06 0.000000000000D+00  6 -4 2 25 -24 2 -3 4 0.38123824D-01 0.54196620D-01 0.53851790D+05 0.53851790D+05 0.53851790D+05 0.11891029D+01  3  4 12 10  5  2       21 0.303804405766D-07 0.100000000000D+01
0.468559203385D-09 0.000000000000D+00 0.000000000000D+00 0.143084974859D-06 0.000000000000D+00  6 -4 1 25 -24 1 -3 4 0.38123824D-01 0.54309289D-01 0.53851790D+05 0.53851790D+05 0.53851790D+05 0.11891029D+01  3  4 12 10  5  2       21 0.207762679032D-07 0.100000000000D+01
0.468559203385D-09 0.000000000000D+00 0.000000000000D+00 0.143084974859D-06 0.000000000000D+00  6 -4 2 25 -24 2 -3 4 0.38123824D-01 0.54309289D-01 0.53851790D+05 0.53851790D+05 0.53851790D+05 0.11891029D+01  3  4 12 10  5  2       21 0.303440610814D-07 0.100000000000D+01
-.183350152375D-04 0.000000000000D+00 -.267081314703D-06 0.143143382144D-06 0.000000000000D+00  6 -4 1 25 -24 1 -3 4 0.38123824D-01 0.54196655D-01 0.53546404D+05 0.53546404D+05 0.53546404D+05 0.11893456D+01  3  4  5 10  5  2       21 -.815674714222D-03 0.100000000000D+01
-.183350152375D-04 0.000000000000D+00 -.267081314703D-06 0.143143382144D-06 0.000000000000D+00  6 -4 2 25 -24 2 -3 4 0.38123824D-01 0.54196655D-01 0.53546404D+05 0.53546404D+05 0.53546404D+05 0.11893456D+01  3  4  5 10  5  2       21 -.119081839839D-02 0.100000000000D+01
0.169401608241D-04 0.000000000000D+00 0.000000000000D+00 0.143143382144D-06 0.859853265706D-08  6 -4 1 25 -24 1 -3 4 0.38131173D-01 0.54191585D-01 0.53851790D+05 0.53851790D+05 0.53851790D+05 0.11891029D+01  3  4 11 10  5  2       21 0.752924425178D-03 0.100000000000D+01
0.169401608241D-04 0.000000000000D+00 0.000000000000D+00 0.143143382144D-06 0.859853265706D-08  6 -4 2 25 -24 2 -3 4 0.38131173D-01 0.54191585D-01 0.53851790D+05 0.53851790D+05 0.53851790D+05 0.11891029D+01  3  4 11 10  5  2       21 0.109920988745D-02 0.100000000000D+01
  </mgrwgt>
  </event>
  <event>
  5     66 0.49224707E-03 0.61788999E+02 0.75467711E-02 0.11568694E+00
       -2 -1    0    0    0  501 0.00000000E+00 0.00000000E+00 0.55145556E+03 0.55145566E+03 0.32000000E+00 0.0000E+00 0.9000E+01
       21 -1    0    0  501  502 0.00000000E+00 0.00000000E+00 -.12781131E+03 0.12781351E+03 0.75000000E+00 0.0000E+00 0.9000E+01
       25  1    1    2    0    0 0.58918686E+02 0.13310002E+02 0.43473975E+03 0.45636851E+03 0.12500000E+03 0.0000E+00 0.9000E+01
      -24  1    1    2    0    0 -.86248312E+01 -.56691222E+02 0.67776260E+02 0.11978781E+03 0.80419002E+02 0.0000E+00 0.9000E+01
       -1  1    1    2    0  502 -.50293855E+02 0.43381220E+02 -.78871752E+02 0.10311284E+03 0.32000000E+00 0.0000E+00 0.9000E+01
#aMCatNLO 1  0  0  2  1 0.62557050D+02 0.00000000D+00  -5  6  0 0.00000000D+00 0.00000000D+00 0.00000000D+00 0.00000000D+00 0.00000000D+00
  <mgrwgt>
 0.2924815313D-01   23    4    0
 0.265486410220286D+03 0.000000000000000D+00 0.000000000000000D+00 0.265486410220286D+03
 0.265486410220286D+03 0.000000000000000D+00 0.000000000000000D+00 -.265486410220286D+03
 0.236965250518941D+03 0.589187160314827D+02 0.133099756123620D+02 0.192038952829639D+03
 0.991673040787897D+02 -.862481853048456D+01 -.566912325565138D+02 -.886875980191634D+01
 0.194840265842840D+03 -.502938975009981D+02 0.433812569441518D+02 -.183170193027723D+03
 0.000000000000000D+00 0.000000000000000D+00 -.000000000000000D+00 -.000000000000000D+00
 0.282113182276949D+03 0.000000000000000D+00 0.000000000000000D+00 0.282113182276949D+03
 0.333469236655026D+03 0.000000000000000D+00 0.000000000000000D+00 -.333469236655026D+03
 0.238821317187510D+03 0.535981763891767D+02 0.407295669879729D+02 0.192038952829639D+03
 0.934899149048066D+02 -.107792306987807D+02 -.455883923784972D+02 -.886875980191634D+01
 0.202333996539701D+03 -.547353457287121D+02 0.662704192673682D+02 -.183170193027723D+03
 0.809371902999576D+02 0.119164000383161D+02 -.614115938768438D+02 -.513560543780768D+02
 0.265486410220286D+03 0.000000000000000D+00 0.000000000000000D+00 0.265486410220286D+03
 0.265486410220286D+03 0.000000000000000D+00 0.000000000000000D+00 -.265486410220286D+03
 0.236965250518941D+03 0.589187160314827D+02 0.133099756123620D+02 0.192038952829639D+03
 0.991673040787897D+02 -.862481853048456D+01 -.566912325565138D+02 -.886875980191634D+01
 0.000000000000000D+00 0.000000000000000D+00 -.000000000000000D+00 -.000000000000000D+00
 0.194840265842840D+03 -.502938975009981D+02 0.433812569441518D+02 -.183170193027723D+03
 0.282113182276949D+03 0.000000000000000D+00 0.000000000000000D+00 0.282113182276949D+03
 0.333469236655026D+03 0.000000000000000D+00 0.000000000000000D+00 -.333469236655026D+03
 0.238821317187510D+03 0.535981763891767D+02 0.407295669879729D+02 0.192038952829639D+03
 0.934899149048066D+02 -.107792306987807D+02 -.455883923784972D+02 -.886875980191634D+01
 0.809371902999576D+02 0.119164000383161D+02 -.614115938768438D+02 -.513560543780768D+02
 0.202333996539701D+03 -.547353457287121D+02 0.662704192673682D+02 -.183170193027723D+03
0.216985927908D-04 0.000000000000D+00 0.000000000000D+00 0.111339878239D-05 0.000000000000D+00  6 -2 21 25 -24 -1 21 2 0.84839494D-01 0.19663454D-01 0.23106684D+05 0.23106684D+05 0.23106684D+05 0.12269816D+01  1  2  2  2  6  2       21 0.802589347624D-02 0.100000000000D+01
0.104198942797D-05 0.114506620049D-05 -.438032072030D-07 0.111339878239D-05 0.000000000000D+00  6 -2 21 25 -24 -1 21 4 0.84839494D-01 0.19663454D-01 0.23106684D+05 0.23106684D+05 0.23106684D+05 0.12269816D+01  1  2  3  2  6  2       21 0.580231446511D-03 0.100000000000D+01
0.212989541703D-05 0.000000000000D+00 0.000000000000D+00 0.111339878239D-05 0.000000000000D+00  6 -2 21 25 -24 -1 21 4 0.84839494D-01 0.19663454D-01 0.23106684D+05 0.23106684D+05 0.23106684D+05 0.12269816D+01  1  2 15  2  6  2       21 0.118603151391D-02 0.100000000000D+01
0.361522871698D-04 0.000000000000D+00 0.000000000000D+00 0.107514941855D-05 0.000000000000D+00  6 -2 21 25 -24 -1 21 4 0.84839494D-01 0.25198713D-01 0.36777919D+05 0.36777919D+05 0.36777919D+05 0.12057218D+01  1  2 12  2  6  2       21 0.116646370841D-01 0.100000000000D+01
-.250725842529D-04 0.000000000000D+00 0.000000000000D+00 0.111339878239D-05 0.000000000000D+00  6 -2 21 25 -24 -1 21 4 0.84839494D-01 0.19663454D-01 0.23106684D+05 0.23106684D+05 0.23106684D+05 0.12269816D+01  1  2  4  2  6  2       21 -.139616597235D-01 0.100000000000D+01
-.113023399802D-03 0.000000000000D+00 -.370203775314D-04 0.111339878239D-05 0.000000000000D+00  6 -2 21 25 -24 -1 21 4 0.84839494D-01 0.26090174D-01 0.23106684D+05 0.23106684D+05 0.23106684D+05 0.12269816D+01  1  2  5  2  6  2       21 -.369896433887D-01 0.100000000000D+01
0.107352151457D-03 0.000000000000D+00 0.317091379183D-04 0.111339878239D-05 0.000000000000D+00  6 -2 21 25 -24 -1 21 4 0.84839494D-01 0.19663454D-01 0.23106684D+05 0.23106684D+05 0.23106684D+05 0.12269816D+01  1  2  6  2  6  2       21 0.597790077846D-01 0.100000000000D+01
0.269445775978D-05 0.000000000000D+00 0.000000000000D+00 0.107514941855D-05 0.000000000000D+00  6 -2 -1 25 -24 -1 -1 4 0.84839494D-01 0.25198713D-01 0.36777919D+05 0.36777919D+05 0.36777919D+05 0.12057218D+01  1  2 12  5  6  2       21 0.729086571322D-04 0.100000000000D+01
-.750258407113D-05 0.000000000000D+00 -.324117022097D-05 0.111339878239D-05 0.000000000000D+00  6 -2 -1 25 -24 -1 -1 4 0.84839494D-01 0.26090174D-01 0.23106684D+05 0.23106684D+05 0.23106684D+05 0.12269816D+01  1  2  5  5  6  2       21 -.205669622350D-03 0.100000000000D+01
0.269445775978D-05 0.000000000000D+00 0.000000000000D+00 0.107514941855D-05 0.000000000000D+00  6 -2 1 25 -24 1 -1 4 0.84839494D-01 0.25198713D-01 0.36777919D+05 0.36777919D+05 0.36777919D+05 0.12057218D+01  3  4 12  6  5  2       21 0.119208750679D-03 0.100000000000D+01
-.750258407113D-05 0.000000000000D+00 -.324117022097D-05 0.111339878239D-05 0.000000000000D+00  6 -2 1 25 -24 1 -1 4 0.84839494D-01 0.26090174D-01 0.23106684D+05 0.23106684D+05 0.23106684D+05 0.12269816D+01  3  4  5  6  5  2       21 -.340947740886D-03 0.100000000000D+01
0.269445775978D-05 0.000000000000D+00 0.000000000000D+00 0.107514941855D-05 0.000000000000D+00  6 -2 -2 25 -24 -1 -2 4 0.84839494D-01 0.25198713D-01 0.36777919D+05 0.36777919D+05 0.36777919D+05 0.12057218D+01  1  2 12  7  6  2       21 0.652781725428D-04 0.100000000000D+01
-.750258407113D-05 0.000000000000D+00 -.324117022097D-05 0.111339878239D-05 0.000000000000D+00  6 -2 -2 25 -24 -1 -2 4 0.84839494D-01 0.26090174D-01 0.23106684D+05 0.23106684D+05 0.23106684D+05 0.12269816D+01  1  2  5  7  6  2       21 -.183363397929D-03 0.100000000000D+01
0.269445775978D-05 0.000000000000D+00 0.000000000000D+00 0.107514941855D-05 0.000000000000D+00  6 -2 2 25 -24 2 -1 4 0.84839494D-01 0.25198713D-01 0.36777919D+05 0.36777919D+05 0.36777919D+05 0.12057218D+01  3  4 12  8  5  2       21 0.152497045463D-03 0.100000000000D+01
-.750258407113D-05 0.000000000000D+00 -.324117022097D-05 0.111339878239D-05 0.000000000000D+00  6 -2 2 25 -24 2 -1 4 0.84839494D-01 0.26090174D-01 0.23106684D+05 0.23106684D+05 0.23106684D+05 0.12269816D+01  3  4  5  8  5  2       21 -.438141311498D-03 0.100000000000D+01
0.269445775978D-05 0.000000000000D+00 0.000000000000D+00 0.107514941855D-05 0.000000000000D+00  6 -2 -3 25 -24 -1 -3 4 0.84839494D-01 0.25198713D-01 0.36777919D+05 0.36777919D+05 0.36777919D+05 0.12057218D+01  1  2 12  9  6  2       21 0.425232010851D-04 0.100000000000D+01
0.269445775978D-05 0.000000000000D+00 0.000000000000D+00 0.107514941855D-05 0.000000000000D+00  6 -2 -4 25 -24 -1 -4 4 0.84839494D-01 0.25198713D-01 0.36777919D+05 0.36777919D+05 0.36777919D+05 0.12057218D+01  1  2 12  9  6  2       21 0.361536700232D-04 0.100000000000D+01
-.750258407113D-05 0.000000000000D+00 -.324117022097D-05 0.111339878239D-05 0.000000000000D+00  6 -2 -3 25 -24 -1 -3 4 0.84839494D-01 0.26090174D-01 0.23106684D+05 0.23106684D+05 0.23106684D+05 0.12269816D+01  1  2  5  9  6  2       21 -.118015513137D-03 0.100000000000D+01
-.750258407113D-05 0.000000000000D+00 -.324117022097D-05 0.111339878239D-05 0.000000000000D+00  6 -2 -4 25 -24 -1 -4 4 0.84839494D-01 0.26090174D-01 0.23106684D+05 0.23106684D+05 0.23106684D+05 0.12269816D+01  1  2  5  9  6  2       21 -.997202316356D-04 0.100000000000D+01
0.269445775978D-05 0.000000000000D+00 0.000000000000D+00 0.107514941855D-05 0.000000000000D+00  6 -2 3 25 -24 3 -1 4 0.84839494D-01 0.25198713D-01 0.36777919D+05 0.36777919D+05 0.36777919D+05 0.12057218D+01  3  4 12 10  5  2       21 0.425218388776D-04 0.100000000000D+01
0.269445775978D-05 0.000000000000D+00 0.000000000000D+00 0.107514941855D-05 0.000000000000D+00  6 -2 4 25 -24 4 -1 4 0.84839494D-01 0.25198713D-01 0.36777919D+05 0.36777919D+05 0.36777919D+05 0.12057218D+01  3  4 12 10  5  2       21 0.361536700232D-04 0.100000000000D+01
-.750258407113D-05 0.000000000000D+00 -.324117022097D-05 0.111339878239D-05 0.000000000000D+00  6 -2 3 25 -24 3 -1 4 0.84839494D-01 0.26090174D-01 0.23106684D+05 0.23106684D+05 0.23106684D+05 0.12269816D+01  3  4  5 10  5  2       21 -.118012015183D-03 0.100000000000D+01
-.750258407113D-05 0.000000000000D+00 -.324117022097D-05 0.111339878239D-05 0.000000000000D+00  6 -2 4 25 -24 4 -1 4 0.84839494D-01 0.26090174D-01 0.23106684D+05 0.23106684D+05 0.23106684D+05 0.12269816D+01  3  4  5 10  5  2       21 -.997202316356D-04 0.100000000000D+01
  </mgrwgt>
  </event>
  <event>
  5     66 0.49224707E-03 0.12841684E+03 0.75467711E-02 0.11219283E+00
       -4 -1    0    0    0  501 0.00000000E+00 0.00000000E+00 0.42872946E+03 0.42873227E+03 0.15500000E+01 0.0000E+00 0.9000E+01
       21 -1    0    0  501  502 0.00000000E+00 0.00000000E+00 -.14249540E+03 0.14249737E+03 0.75000000E+00 0.0000E+00 0.9000E+01
       25  1    1    2    0    0 -.44727272E+02 0.62907474E+02 0.16177911E+02 0.14779920E+03 0.12500000E+03 0.0000E+00 0.9000E+01
      -24  1    1    2    0    0 -.88114744E+02 0.69056503E+02 0.97904126E+02 0.16907230E+03 0.80419002E+02 0.0000E+00 0.9000E+01
       -3  1    1    2    0  502 0.13284202E+03 -.13196398E+03 0.17215203E+03 0.25435814E+03 0.50000000E+00 0.0000E+00 0.9000E+01
#aMCatNLO 1  0  0  5  2 0.57433248D+02 0.00000000D+00  -5  6  0 0.00000000D+00 0.00000000D+00 0.00000000D+00 0.00000000D+00 0.00000000D+00
  <mgrwgt>
 0.4551578832D-02    5    2    0
 0.247170670442094D+03 0.000000000000000D+00 0.000000000000000D+00 0.247170670442094D+03
 0.247170670442094D+03 -.000000000000000D+00 -.000000000000000D+00 -.247170670442094D+03
 0.161420191491509D+03 -.447274159079572D+02 0.629076163510274D+02 -.668847388601008D+02
 0.138680853506722D+03 -.881148670906580D+02 0.690566251620760D+02 0.152353501371780D+02
 0.194240295885958D+03 0.132842282998615D+03 -.131964241513103D+03 0.516493887229229D+02
 0.000000000000000D+00 0.000000000000000D+00 -.000000000000000D+00 0.000000000000000D+00
 0.247170670442094D+03 0.000000000000000D+00 0.000000000000000D+00 0.247170670442094D+03
 0.247170670442094D+03 -.000000000000000D+00 -.000000000000000D+00 -.247170670442094D+03
 0.153682222911138D+03 -.347829627637989D+02 0.530288925982512D+02 -.630183123392251D+02
 0.129734637915435D+03 -.796438267062991D+02 0.606415754210199D+02 0.185289103487553D+02
 0.680386071516338D+02 0.612479290223527D+02 0.173602462094654D+02 0.240117701378707D+02
 0.142885872905981D+03 0.531788604477453D+02 -.131030714228737D+03 0.204776318525991D+02
0.162224407771D-04 0.000000000000D+00 0.000000000000D+00 0.173728556295D-06 0.000000000000D+00  6 -4 21 25 -24 -3 21 2 0.65958746D-01 0.21922737D-01 0.55696045D+05 0.55696045D+05 0.55696045D+05 0.11876692D+01  1  2  2  3  6  5       -3 0.406707844081D-02 0.100000000000D+01
-.188527253960D-05 0.856081719322D-06 -.327484340365D-07 0.173728556295D-06 0.000000000000D+00  6 -4 21 25 -24 -3 21 4 0.65958746D-01 0.21922737D-01 0.55696045D+05 0.55696045D+05 0.55696045D+05 0.11876692D+01  1  2  3  3  6  5       -3 -.666701557907D-03 0.100000000000D+01
0.212499715141D-05 0.000000000000D+00 0.000000000000D+00 0.173728556295D-06 0.000000000000D+00  6 -4 21 25 -24 -3 21 4 0.65958746D-01 0.21922737D-01 0.55696045D+05 0.55696045D+05 0.55696045D+05 0.11876692D+01  1  2 15  3  6  5       -3 0.751476978332D-03 0.100000000000D+01
0.410584784613D-05 0.000000000000D+00 0.000000000000D+00 0.173642163588D-06 0.000000000000D+00  6 -4 21 25 -24 -3 21 4 0.65958746D-01 0.21922737D-01 0.56084595D+05 0.56084595D+05 0.56084595D+05 0.11873738D+01  1  2 12  3  6  5       -3 0.145059351188D-02 0.100000000000D+01
-.297160488185D-05 0.000000000000D+00 0.000000000000D+00 0.173728556295D-06 0.000000000000D+00  6 -4 21 25 -24 -3 21 4 0.65958746D-01 0.21922737D-01 0.55696045D+05 0.55696045D+05 0.55696045D+05 0.11876692D+01  1  2  5  3  6  5       -3 -.105086854160D-02 0.100000000000D+01
  </mgrwgt>
  </event>
  <event>
  5     66 -.49224707E-03 0.20833700E+02 0.75467711E-02 0.12460230E+00
       -2 -1    0    0    0  501 0.00000000E+00 0.00000000E+00 0.38114961E+02 0.38116304E+02 0.32000000E+00 0.0000E+00 0.9000E+01
       21 -1    0    0  501  502 -.00000000E+00 -.00000000E+00 -.50867351E+03 0.50867406E+03 0.75000000E+00 0.0000E+00 0.9000E+01
       25  1    1    2    0    0 -.24196962E+02 0.19955459E+02 -.19559621E+03 0.23423619E+03 0.12500000E+03 0.0000E+00 0.9000E+01
      -24  1    1    2    0    0 0.32596450E+02 -.89032093E+00 -.85067297E+02 0.12151947E+03 0.80419002E+02 0.0000E+00 0.9000E+01
       -1  1    1    2    0  502 -.83994870E+01 -.19065138E+02 -.18989504E+03 0.19103470E+03 0.32000000E+00 0.0000E+00 0.9000E+01
#aMCatNLO 1  0  0  5  2 0.57433248D+02 0.00000000D+00  -5  6  0 0.00000000D+00 0.00000000D+00 0.00000000D+00 0.00000000D+00 0.00000000D+00
  <mgrwgt>
 -.3301419891D-02    1    2    0
 0.139242914587749D+03 0.000000000000000D+00 0.000000000000000D+00 0.139242914587749D+03
 0.139242914587749D+03 -.000000000000000D+00 -.000000000000000D+00 -.139242914587749D+03
 0.129409221584649D+03 -.241968944842837D+02 0.199556130506678D+02 0.117486355051661D+02
 0.948578635954991D+02 0.325964993418406D+02 -.890207825886974D+00 0.383076244658410D+02
 0.542187439953495D+02 -.839960485755689D+01 -.190654052247808D+02 -.500562599710071D+02
 0.000000000000000D+00 0.000000000000000D+00 0.000000000000000D+00 -.000000000000000D+00
 0.139242914587749D+03 0.000000000000000D+00 0.000000000000000D+00 0.139242914587749D+03
 0.139242914587749D+03 -.000000000000000D+00 -.000000000000000D+00 -.139242914587749D+03
 0.128880579902359D+03 -.251569512223493D+02 0.177764783103552D+02 0.602731283791110D+01
 0.930416405204937D+02 0.318980815802133D+02 -.247547497445175D+01 0.341455023616166D+02
 0.343577410755020D+02 -.722744661084211D+01 -.263026215705127D+02 -.208899613646619D+02
 0.222058676771433D+02 0.486316252978117D+00 0.110016182346092D+02 -.192828538348659D+02
-.779571593143D-06 0.000000000000D+00 0.000000000000D+00 0.358018182827D-05 0.000000000000D+00  6 -2 21 25 -24 -1 21 4 0.58639860D-02 0.78257609D-01 0.13981548D+05 0.13981548D+05 0.13981548D+05 0.12513188D+01  1  2 14  3  6  5       -1 -.330141989150D-02 0.100000000000D+01
  </mgrwgt>
  </event>
  <event>
  6     66 0.49224707E-03 0.75323589E+02 0.75467711E-02 0.11410297E+00
       -2 -1    0    0    0  501 0.00000000E+00 0.00000000E+00 0.14392660E+04 0.14392660E+04 0.32000000E+00 0.0000E+00 0.9000E+01
       21 -1    0    0  501  503 0.00000000E+00 0.00000000E+00 -.55146640E+02 0.55151740E+02 0.75000000E+00 0.0000E+00 0.9000E+01
       25  1    1    2    0    0 -.57007149E+02 0.63780713E+02 0.67401943E+03 0.69082920E+03 0.12500000E+03 0.0000E+00 0.9000E+01
      -24  1    1    2    0    0 -.18942353E+02 -.87451782E+02 0.61426847E+03 0.62593897E+03 0.80419002E+02 0.0000E+00 0.9000E+01
       -1  1    1    2    0  502 -.21963466E+02 0.44366076E+02 0.31837023E+02 0.58859502E+02 0.32000000E+00 0.0000E+00 0.9000E+01
       21  1    1    2  502  503 0.97912968E+02 -.20695007E+02 0.63994395E+02 0.11879006E+03 0.75000000E+00 0.0000E+00 0.9000E+01
#aMCatNLO 2  0  0  2  5 0.25257755D+03 0.00000000D+00  -5  6  0 0.00000000D+00 0.00000000D+00 0.00000000D+00 0.00000000D+00 0.00000000D+00
  <mgrwgt>
 0.1187229170D-02    1    2    0
 0.186819737531044D+03 0.000000000000000D+00 0.000000000000000D+00 0.186819737531044D+03
 0.186819737531044D+03 0.000000000000000D+00 0.000000000000000D+00 -.186819737531044D+03
 0.143540099342584D+03 -.183755604195968D+02 0.556154071941104D+02 0.393449536939362D+02
 0.134094538452013D+03 0.150158493402325D+02 -.946293091546260D+02 0.483109449896983D+02
 0.960048372674893D+02 0.335971107936433D+01 0.390139019605155D+02 -.876558986836344D+02
 0.000000000000000D+00 0.000000000000000D+00 -.000000000000000D+00 -.000000000000000D+00
 0.206517900008473D+03 0.000000000000000D+00 0.000000000000000D+00 0.206517900008473D+03
 0.384344487490008D+03 0.000000000000000D+00 0.000000000000000D+00 -.384344487490008D+03
 0.156495401384647D+03 -.570071613439300D+02 0.637806305148436D+02 0.393449536939362D+02
 0.129644915656953D+03 -.189423899829262D+02 -.874518533666665D+02 0.483109449896983D+02
 0.100669313035695D+03 -.219634165779600D+02 0.443662297842183D+02 -.876558986836344D+02
 0.204052757421187D+03 0.979129679048163D+02 -.206950069323954D+02 -.177826587481536D+03
0.605168050000D-05 0.000000000000D+00 0.000000000000D+00 0.130656369657D-05 0.177867876786D-08  6 -2 21 25 -24 -1 21 4 0.22142523D+00 0.84844666D-02 0.44385499D+05 0.44385499D+05 0.44385499D+05 0.11974390D+01  1  2  1  2  6  2       21 0.118722917023D-02 0.100000000000D+01
  </mgrwgt>
  </event>
  <event>
  5     66 0.49224707E-03 0.22801178E+02 0.75467711E-02 0.11735382E+00
       -4 -1    0    0    0  501 0.00000000E+00 0.00000000E+00 0.73973470E+03 0.73973632E+03 0.15500000E+01 0.0000E+00 0.9000E+01
       21 -1    0    0  501  502 0.00000000E+00 0.00000000E+00 -.54889343E+02 0.54894466E+02 0.75000000E+00 0.0000E+00 0.9000E+01
       25  1    1    2    0    0 0.10527042E+03 -.11891926E+02 0.46469383E+03 0.49273587E+03 0.12500000E+03 0.0000E+00 0.9000E+01
      -24  1    1    2    0    0 -.12034662E+03 0.29717122E+02 0.23249887E+03 0.27548023E+03 0.80419002E+02 0.0000E+00 0.9000E+01
       -3  1    1    2    0  502 0.15076196E+02 -.17825196E+02 -.12347342E+02 0.26414696E+02 0.50000000E+00 0.0000E+00 0.9000E+01
#aMCatNLO 1  0  0  2  1 0.15212915D+02 0.00000000D+00  -5  6  0 0.00000000D+00 0.00000000D+00 0.00000000D+00 0.00000000D+00 0.00000000D+00
  <mgrwgt>
 0.3198166795D-01   23    4    0
 0.201509881711234D+03 0.000000000000000D+00 0.000000000000000D+00 0.201509881711234D+03
 0.201509881711234D+03 0.000000000000000D+00 0.000000000000000D+00 -.201509881711234D+03
 0.181876355136861D+03 0.105270261139947D+03 -.118917374133497D+02 0.789352092458674D+02
 0.148080427116358D+03 -.120346746247882D+03 0.297172750765008D+02 -.970263727899690D+01
 0.730629811692496D+02 0.150764851079352D+02 -.178255376631511D+02 -.692325719668706D+02
 0.000000000000000D+00 0.000000000000000D+00 -.000000000000000D+00 -.000000000000000D+00
 0.203719462285436D+03 0.000000000000000D+00 0.000000000000000D+00 0.203719462285436D+03
 0.229657380029204D+03 0.000000000000000D+00 0.000000000000000D+00 -.229657380029204D+03
 0.179853653218629D+03 0.102266065546871D+03 -.576377957256077D+01 0.789352092458674D+02
 0.151192797455360D+03 -.122832233438927D+03 0.347871715757986D+02 -.970263727899690D+01
 0.722603339246162D+02 0.138695637779604D+02 -.153636596668314D+02 -.692325719668706D+02
 0.300700577160350D+02 0.669660411409573D+01 -.136597323364064D+02 -.259379177437682D+02
 0.201509881711234D+03 0.000000000000000D+00 0.000000000000000D+00 0.201509881711234D+03
 0.201509881711234D+03 0.000000000000000D+00 0.000000000000000D+00 -.201509881711234D+03
 0.181876355136861D+03 0.105270261139947D+03 -.118917374133497D+02 0.789352092458674D+02
 0.148080427116358D+03 -.120346746247882D+03 0.297172750765008D+02 -.970263727899690D+01
 0.000000000000000D+00 0.000000000000000D+00 -.000000000000000D+00 -.000000000000000D+00
 0.730629811692496D+02 0.150764851079352D+02 -.178255376631511D+02 -.692325719668706D+02
 0.203719462285436D+03 0.000000000000000D+00 0.000000000000000D+00 0.203719462285436D+03
 0.229657380029204D+03 0.000000000000000D+00 0.000000000000000D+00 -.229657380029204D+03
 0.179853653218629D+03 0.102266065546871D+03 -.576377957256077D+01 0.789352092458674D+02
 0.151192797455360D+03 -.122832233438927D+03 0.347871715757986D+02 -.970263727899690D+01
 0.300700577160350D+02 0.669660411409573D+01 -.136597323364064D+02 -.259379177437682D+02
 0.722603339246162D+02 0.138695637779604D+02 -.153636596668314D+02 -.692325719668706D+02
0.376211186378D-05 0.000000000000D+00 0.000000000000D+00 0.181041775803D-05 0.000000000000D+00  6 -4 21 25 -24 -3 21 2 0.11380586D+00 0.84450333D-02 0.28050028D+05 0.28050028D+05 0.28050028D+05 0.12179738D+01  1  2  2  2  6  2       21 0.160423530384D-02 0.100000000000D+01
0.660096781737D-06 0.198532097413D-06 -.759461994049D-08 0.181041775803D-05 0.000000000000D+00  6 -4 21 25 -24 -3 21 4 0.11380586D+00 0.84450333D-02 0.28050028D+05 0.28050028D+05 0.28050028D+05 0.12179738D+01  1  2  3  2  6  2       21 0.417560921928D-03 0.100000000000D+01
0.382173189704D-06 0.000000000000D+00 0.000000000000D+00 0.181041775803D-05 0.000000000000D+00  6 -4 21 25 -24 -3 21 4 0.11380586D+00 0.84450333D-02 0.28050028D+05 0.28050028D+05 0.28050028D+05 0.12179738D+01  1  2 15  2  6  2       21 0.241753321398D-03 0.100000000000D+01
0.364842061643D-04 0.000000000000D+00 0.000000000000D+00 0.179974109661D-05 0.000000000000D+00  6 -4 21 25 -24 -3 21 4 0.11380586D+00 0.96669011D-02 0.30345339D+05 0.30345339D+05 0.30345339D+05 0.12143770D+01  1  2 12  2  6  2       21 0.180335838212D-01 0.100000000000D+01
-.153530707901D-05 0.000000000000D+00 0.000000000000D+00 0.181041775803D-05 0.000000000000D+00  6 -4 21 25 -24 -3 21 4 0.11380586D+00 0.84450333D-02 0.28050028D+05 0.28050028D+05 0.28050028D+05 0.12179738D+01  1  2  4  2  6  2       21 -.971197341194D-03 0.100000000000D+01
-.100678576938D-03 0.000000000000D+00 -.108649172865D-04 0.181041775803D-05 0.000000000000D+00  6 -4 21 25 -24 -3 21 4 0.11380586D+00 0.97193075D-02 0.28050028D+05 0.28050028D+05 0.28050028D+05 0.12179738D+01  1  2  5  2  6  2       21 -.498074388548D-01 0.100000000000D+01
0.993772628900D-04 0.000000000000D+00 0.104474670009D-04 0.181041775803D-05 0.000000000000D+00  6 -4 21 25 -24 -3 21 4 0.11380586D+00 0.84450333D-02 0.28050028D+05 0.28050028D+05 0.28050028D+05 0.12179738D+01  1  2  6  2  6  2       21 0.628636022159D-01 0.100000000000D+01
0.131565992617D-05 0.000000000000D+00 0.000000000000D+00 0.179974109661D-05 0.000000000000D+00  6 -4 -3 25 -24 -3 -3 4 0.11380586D+00 0.96669011D-02 0.30345339D+05 0.30345339D+05 0.30345339D+05 0.12143770D+01  1  2 12  5  6  2       21 0.287756448794D-04 0.100000000000D+01
-.303111794743D-05 0.000000000000D+00 -.410105594437D-06 0.181041775803D-05 0.000000000000D+00  6 -4 -3 25 -24 -3 -3 4 0.11380586D+00 0.97193075D-02 0.28050028D+05 0.28050028D+05 0.28050028D+05 0.12179738D+01  1  2  5  5  6  2       21 -.661763335642D-04 0.100000000000D+01
0.131565992617D-05 0.000000000000D+00 0.000000000000D+00 0.179974109661D-05 0.000000000000D+00  6 -4 3 25 -24 3 -3 4 0.11380586D+00 0.96669011D-02 0.30345339D+05 0.30345339D+05 0.30345339D+05 0.12143770D+01  3  4 12  6  5  2       21 0.287721616180D-04 0.100000000000D+01
-.303111794743D-05 0.000000000000D+00 -.410105594437D-06 0.181041775803D-05 0.000000000000D+00  6 -4 3 25 -24 3 -3 4 0.11380586D+00 0.97193075D-02 0.28050028D+05 0.28050028D+05 0.28050028D+05 0.12179738D+01  3  4  5  6  5  2       21 -.661682575292D-04 0.100000000000D+01
0.131565992617D-05 0.000000000000D+00 0.000000000000D+00 0.179974109661D-05 0.000000000000D+00  6 -4 -4 25 -24 -3 -4 4 0.11380586D+00 0.96669011D-02 0.30345339D+05 0.30345339D+05 0.30345339D+05 0.12143770D+01  1  2 12  7  6  2       21 0.252678635609D-04 0.100000000000D+01
-.303111794743D-05 0.000000000000D+00 -.410105594437D-06 0.181041775803D-05 0.000000000000D+00  6 -4 -4 25 -24 -3 -4 4 0.11380586D+00 0.97193075D-02 0.28050028D+05 0.28050028D+05 0.28050028D+05 0.12179738D+01  1  2  5  7  6  2       21 -.580556378821D-04 0.100000000000D+01
0.131565992617D-05 0.000000000000D+00 0.000000000000D+00 0.179974109661D-05 0.000000000000D+00  6 -4 4 25 -24 4 -3 4 0.11380586D+00 0.96669011D-02 0.30345339D+05 0.30345339D+05 0.30345339D+05 0.12143770D+01  3  4 12  8  5  2       21 0.252678635609D-04 0.100000000000D+01
-.303111794743D-05 0.000000000000D+00 -.410105594437D-06 0.181041775803D-05 0.000000000000D+00  6 -4 4 25 -24 4 -3 4 0.11380586D+00 0.97193075D-02 0.28050028D+05 0.28050028D+05 0.28050028D+05 0.12179738D+01  3  4  5  8  5  2       21 -.580556378821D-04 0.100000000000D+01
0.131565992617D-05 0.000000000000D+00 0.000000000000D+00 0.179974109661D-05 0.000000000000D+00  6 -4 -1 25 -24 -3 -1 4 0.11380586D+00 0.96669011D-02 0.30345339D+05 0.30345339D+05 0.30345339D+05 0.12143770D+01  1  2 12  9  6  2       21 0.431512922057D-04 0.100000000000D+01
0.131565992617D-05 0.000000000000D+00 0.000000000000D+00 0.179974109661D-05 0.000000000000D+00  6 -4 -2 25 -24 -3 -2 4 0.11380586D+00 0.96669011D-02 0.30345339D+05 0.30345339D+05 0.30345339D+05 0.12143770D+01  1  2 12  9  6  2       21 0.413236541002D-04 0.100000000000D+01
-.303111794743D-05 0.000000000000D+00 -.410105594437D-06 0.181041775803D-05 0.000000000000D+00  6 -4 -1 25 -24 -3 -1 4 0.11380586D+00 0.97193075D-02 0.28050028D+05 0.28050028D+05 0.28050028D+05 0.12179738D+01  1  2  5  9  6  2       21 -.994726367199D-04 0.100000000000D+01
-.303111794743D-05 0.000000000000D+00 -.410105594437D-06 0.181041775803D-05 0.000000000000D+00  6 -4 -2 25 -24 -3 -2 4 0.11380586D+00 0.97193075D-02 0.28050028D+05 0.28050028D+05 0.28050028D+05 0.12179738D+01  1  2  5  9  6  2       21 -.952333526026D-04 0.100000000000D+01
0.131565992617D-05 0.000000000000D+00 0.000000000000D+00 0.179974109661D-05 0.000000000000D+00  6 -4 1 25 -24 1 -3 4 0.11380586D+00 0.96669011D-02 0.30345339D+05 0.30345339D+05 0.30345339D+05 0.12143770D+01  3  4 12 10  5  2       21 0.536832276662D-04 0.100000000000D+01
0.131565992617D-05 0.000000000000D+00 0.000000000000D+00 0.179974109661D-05 0.000000000000D+00  6 -4 2 25 -24 2 -3 4 0.11380586D+00 0.96669011D-02 0.30345339D+05 0.30345339D+05 0.30345339D+05 0.12143770D+01  3  4 12 10  5  2       21 0.608163085282D-04 0.100000000000D+01
-.303111794743D-05 0.000000000000D+00 -.410105594437D-06 0.181041775803D-05 0.000000000000D+00  6 -4 1 25 -24 1 -3 4 0.11380586D+00 0.97193075D-02 0.28050028D+05 0.28050028D+05 0.28050028D+05 0.12179738D+01  3  4  5 10  5  2       21 -.123895875247D-03 0.100000000000D+01
-.303111794743D-05 0.000000000000D+00 -.410105594437D-06 0.181041775803D-05 0.000000000000D+00  6 -4 2 25 -24 2 -3 4 0.11380586D+00 0.97193075D-02 0.28050028D+05 0.28050028D+05 0.28050028D+05 0.12179738D+01  3  4  5 10  5  2       21 -.140431727862D-03 0.100000000000D+01
  </mgrwgt>
  </event>
  <event>
  5     66 0.49224707E-03 0.16991506E+03 0.75467711E-02 0.10869358E+00
       -2 -1    0    0    0  501 0.00000000E+00 0.00000000E+00 0.19981925E+04 0.19981926E+04 0.32000000E+00 0.0000E+00 0.9000E+01
       21 -1    0    0  501  502 0.00000000E+00 0.00000000E+00 -.41625795E+02 0.41632551E+02 0.75000000E+00 0.0000E+00 0.9000E+01
       25  1    1    2    0    0 0.83091590E+02 -.55645587E+02 0.78060230E+03 0.79684728E+03 0.12500000E+03 0.0000E+00 0.9000E+01
      -24  1    1    2    0    0 -.20404431E+03 -.63692144E+02 0.58259382E+03 0.62575838E+03 0.80419002E+02 0.0000E+00 0.9000E+01
       -1  1    1    2    0  502 0.12095272E+03 0.11933773E+03 0.59337061E+03 0.61721944E+03 0.32000000E+00 0.0000E+00 0.9000E+01
#aMCatNLO 1  0  0  1  2 0.33728265D+02 0.00000000D+00  -5  6  0 0.00000000D+00 0.00000000D+00 0.00000000D+00 0.00000000D+00 0.00000000D+00
  <mgrwgt>
 0.8780763486D-02    9    4    0
 0.288415097842687D+03 0.000000000000000D+00 0.000000000000000D+00 0.288415097842687D+03
 0.288415097842687D+03 0.000000000000000D+00 0.000000000000000D+00 -.288415097842687D+03
 0.170116954306788D+03 0.830915267285559D+02 -.556456494822043D+02 0.575685506352148D+02
 0.236731739233723D+03 -.204044399911397D+03 -.636922304845886D+02 -.623208074959625D+02
 0.169981502144862D+03 0.120952873182841D+03 0.119337879966793D+03 0.475225686074771D+01
 0.000000000000000D+00 -.000000000000000D+00 0.000000000000000D+00 0.000000000000000D+00
 0.347224059703189D+03 0.000000000000000D+00 0.000000000000000D+00 0.347224059703189D+03
 0.293784545685706D+03 0.000000000000000D+00 0.000000000000000D+00 -.293784545685706D+03
 0.176091146265346D+03 0.899367390202576D+02 -.630899100110806D+02 0.575685506352148D+02
 0.231801868988762D+03 -.194780572725437D+03 -.737667672743940D+02 -.623208074959625D+02
 0.169922414173083D+03 0.127673439403366D+03 0.112029173718515D+03 0.475225686074771D+01
 0.631931759617041D+02 -.228296056981870D+02 0.248275035669600D+02 0.534395140174833D+02
 0.288415097842687D+03 0.000000000000000D+00 0.000000000000000D+00 0.288415097842687D+03
 0.288415097842687D+03 0.000000000000000D+00 0.000000000000000D+00 -.288415097842687D+03
 0.170116954306788D+03 0.830915267285559D+02 -.556456494822043D+02 0.575685506352148D+02
 0.236731739233723D+03 -.204044399911397D+03 -.636922304845886D+02 -.623208074959625D+02
 0.000000000000000D+00 -.000000000000000D+00 0.000000000000000D+00 0.000000000000000D+00
 0.169981502144862D+03 0.120952873182841D+03 0.119337879966793D+03 0.475225686074771D+01
 0.347224059703189D+03 0.000000000000000D+00 0.000000000000000D+00 0.347224059703189D+03
 0.293784545685706D+03 0.000000000000000D+00 0.000000000000000D+00 -.293784545685706D+03
 0.176091146265346D+03 0.899367390202576D+02 -.630899100110806D+02 0.575685506352148D+02
 0.231801868988762D+03 -.194780572725437D+03 -.737667672743940D+02 -.623208074959625D+02
 0.631931759617041D+02 -.228296056981870D+02 0.248275035669600D+02 0.534395140174833D+02
 0.169922414173083D+03 0.127673439403366D+03 0.112029173718515D+03 0.475225686074771D+01
0.460523721592D-04 0.000000000000D+00 0.000000000000D+00 0.461822176418D-07 0.000000000000D+00  6 -2 21 25 -24 -1 21 2 0.30741476D+00 0.64044901D-02 0.77946078D+05 0.77946078D+05 0.77946078D+05 0.11736445D+01  1  2  2  1  6  1       -2 0.302488471126D-02 0.100000000000D+01
-.412282096679D-05 0.243025044620D-05 -.929664711128D-07 0.461822176418D-07 0.000000000000D+00  6 -2 21 25 -24 -1 21 4 0.30741476D+00 0.64044901D-02 0.77946078D+05 0.77946078D+05 0.77946078D+05 0.11736445D+01  1  2  3  1  6  1       -2 -.373013420775D-03 0.100000000000D+01
0.489704795481D-05 0.000000000000D+00 0.000000000000D+00 0.461822176418D-07 0.000000000000D+00  6 -2 21 25 -24 -1 21 4 0.30741476D+00 0.64044901D-02 0.77946078D+05 0.77946078D+05 0.77946078D+05 0.11736445D+01  1  2 15  1  6  1       -2 0.443061831701D-03 0.100000000000D+01
0.269137971404D-03 0.000000000000D+00 0.000000000000D+00 0.457947186966D-07 0.000000000000D+00  6 -2 21 25 -24 -1 21 4 0.37256971D+00 0.64044901D-02 0.87991248D+05 0.87991248D+05 0.87991248D+05 0.11687103D+01  1  2 12  1  6  1       -2 0.963137207876D-02 0.100000000000D+01
-.258413021058D-03 0.000000000000D+00 0.000000000000D+00 0.461822176418D-07 0.000000000000D+00  6 -2 21 25 -24 -1 21 4 0.30741476D+00 0.64044901D-02 0.77946078D+05 0.77946078D+05 0.77946078D+05 0.11736445D+01  1  2  4  1  6  1       -2 -.233799929063D-01 0.100000000000D+01
-.377424460298D-03 0.000000000000D+00 -.466687009047D-04 0.461822176418D-07 0.000000000000D+00  6 -2 21 25 -24 -1 21 4 0.37222458D+00 0.64044901D-02 0.77946078D+05 0.77946078D+05 0.77946078D+05 0.11736445D+01  1  2  5  1  6  1       -2 -.138962945234D-01 0.100000000000D+01
0.380214940639D-03 0.000000000000D+00 0.458275981358D-04 0.461822176418D-07 0.000000000000D+00  6 -2 21 25 -24 -1 21 4 0.30741476D+00 0.64044901D-02 0.77946078D+05 0.77946078D+05 0.77946078D+05 0.11736445D+01  1  2  6  1  6  1       -2 0.344000568494D-01 0.100000000000D+01
0.747036370849D-05 0.000000000000D+00 0.000000000000D+00 0.457947186966D-07 0.000000000000D+00  6 21 21 25 -24 2 -1 4 0.37256971D+00 0.64044901D-02 0.87991248D+05 0.87991248D+05 0.87991248D+05 0.11687103D+01  3  4 12  4  5  1       -2 0.280387995456D-02 0.100000000000D+01
-.993923135193D-05 0.000000000000D+00 -.129053507042D-05 0.461822176418D-07 0.000000000000D+00  6 21 21 25 -24 2 -1 4 0.37222458D+00 0.64044901D-02 0.77946078D+05 0.77946078D+05 0.77946078D+05 0.11736445D+01  3  4  5  4  5  1       -2 -.387319108911D-02 0.100000000000D+01
  </mgrwgt>
  </event>
  <event>
  6     66 0.49224707E-03 0.29628252E+02 0.75467711E-02 0.11366293E+00
       -2 -1    0    0    0  501 0.00000000E+00 0.00000000E+00 0.97665026E+03 0.97665031E+03 0.32000000E+00 0.0000E+00 0.9000E+01
       21 -1    0    0  501  502 0.00000000E+00 0.00000000E+00 -.55986057E+02 0.55991081E+02 0.75000000E+00 0.0000E+00 0.9000E+01
       25  1    1    2    0    0 -.10961095E+03 -.67418653E+02 0.50620750E+03 0.53705760E+03 0.12500000E+03 0.0000E+00 0.9000E+01
      -24  1    1    2    0    0 0.14965305E+03 0.92813869E+02 0.24101968E+03 0.30914099E+03 0.80419002E+02 0.0000E+00 0.9000E+01
       -1  1    1    2    0  503 -.39696415E+02 -.56596948E+01 0.66167218E+02 0.77369507E+02 0.32000000E+00 0.0000E+00 0.9000E+01
       21  1    1    2  503  502 -.34567955E+00 -.19735521E+02 0.10726980E+03 0.10907329E+03 0.75000000E+00 0.0000E+00 0.9000E+01
#aMCatNLO 2  0  0  5  2 0.24186829D+02 0.00000000D+00  -5  6  0 0.00000000D+00 0.00000000D+00 0.00000000D+00 0.00000000D+00 0.00000000D+00
  <mgrwgt>
 0.4094528250D-01    2    2    0
 0.233840582342705D+03 0.000000000000000D+00 0.000000000000000D+00 0.233840582342705D+03
 0.233840582342705D+03 -.000000000000000D+00 -.000000000000000D+00 -.233840582342705D+03
 0.183258324621955D+03 -.103019277616852D+03 -.632381278689824D+02 0.578496427488891D+02
 0.216780216300806D+03 0.157170419450465D+03 0.975814847153631D+02 -.793836212046553D+02
 0.676426237626488D+02 -.541511418336124D+02 -.343433568463807D+02 0.215339784557662D+02
 0.000000000000000D+00 0.000000000000000D+00 0.000000000000000D+00 0.000000000000000D+00
 0.233840582342705D+03 0.000000000000000D+00 0.000000000000000D+00 0.233840582342705D+03
 0.233840582342705D+03 -.000000000000000D+00 -.000000000000000D+00 -.233840582342705D+03
 0.189342979304765D+03 -.109637013664146D+03 -.674351819456202D+02 0.604812804326565D+02
 0.208086657456490D+03 0.149624399626773D+03 0.927957010218037D+02 -.763828381591294D+02
 0.401880950128795D+02 -.393049485926052D+02 -.530574763834691D+01 -.648483144692780D+01
 0.300634329112764D+02 -.682437370021530D+00 -.200547714378365D+02 0.223863891734007D+02
-.211811906744D-04 0.000000000000D+00 0.000000000000D+00 0.704840863577D-07 0.000000000000D+00  6 -2 21 25 -24 -1 21 4 0.15025428D+00 0.86136300D-02 0.46809901D+05 0.46809901D+05 0.46809901D+05 0.11951278D+01  1  2 13  3  6  5       -1 -.118550243963D-01 0.100000000000D+01
0.943375003432D-04 0.000000000000D+00 0.000000000000D+00 0.703199418649D-07 0.344725266188D-08  6 -2 21 25 -24 -1 21 4 0.15025428D+00 0.86136300D-02 0.46809901D+05 0.46809901D+05 0.46809901D+05 0.11951278D+01  1  2  1  3  6  5       -1 0.528003068972D-01 0.100000000000D+01
  </mgrwgt>
  </event>
  <event>
  6     66 0.49224707E-03 0.15912954E+02 0.75467711E-02 0.12415580E+00
       -4 -1    0    0    0  501 0.00000000E+00 0.00000000E+00 0.12608894E+03 0.12609847E+03 0.15500000E+01 0.0000E+00 0.9000E+01
       21 -1    0    0  501  502 -.00000000E+00 -.00000000E+00 -.21076421E+03 0.21076555E+03 0.75000000E+00 0.0000E+00 0.9000E+01
       25  1    1    2    0    0 0.24339351E+02 -.14674182E+02 -.69616219E+02 0.14587376E+03 0.12500000E+03 0.0000E+00 0.9000E+01
      -24  1    1    2    0    0 0.10909491E+01 0.21301769E+02 0.64762546E+02 0.10543414E+03 0.80419002E+02 0.0000E+00 0.9000E+01
       -3  1    1    2    0  503 -.49004779E+01 -.86937363E+01 -.22136998E+02 0.24287701E+02 0.50000000E+00 0.0000E+00 0.9000E+01
       21  1    1    2  503  502 -.20529823E+02 0.20661497E+01 -.57684602E+02 0.61268413E+02 0.75000000E+00 0.0000E+00 0.9000E+01
#aMCatNLO 2  0  0  5  2 0.69921853D+01 0.00000000D+00  -5  6  0 0.00000000D+00 0.00000000D+00 0.00000000D+00 0.00000000D+00 0.00000000D+00
  <mgrwgt>
 0.1988036576D-01    2    2    0
 0.163024127494422D+03 0.000000000000000D+00 0.000000000000000D+00 0.163024127494422D+03
 0.163024127494422D+03 -.000000000000000D+00 -.000000000000000D+00 -.163024127494422D+03
 0.132497337375253D+03 0.246441680587937D+02 -.145947413710428D+02 -.333197076297800D+02
 0.126281756569835D+03 0.138070692931609D+01 0.213772845680306D+02 0.949787946905277D+02
 0.672691610437548D+02 -.260248749881098D+02 -.678254319698786D+01 -.616590870607477D+02
 0.000000000000000D+00 -.000000000000000D+00 0.000000000000000D+00 0.000000000000000D+00
 0.163024127494422D+03 0.000000000000000D+00 0.000000000000000D+00 0.163024127494422D+03
 0.163024127494422D+03 -.000000000000000D+00 -.000000000000000D+00 -.163024127494422D+03
 0.132627429025241D+03 0.243522560722752D+02 -.146708188030837D+02 -.340113162003897D+02
 0.125772962955980D+03 0.110318553858711D+01 0.213049575800406D+02 0.943212808465613D+02
 0.188166342705478D+02 -.476662633163893D+01 -.846305646358411D+01 -.161158826621525D+02
 0.488312287370744D+02 -.206888152792233D+02 0.182891768662720D+01 -.441940819840190D+02
-.575006882508D-05 0.000000000000D+00 0.000000000000D+00 0.160856389896D-05 0.000000000000D+00  6 -4 21 25 -24 -3 21 4 0.19399134D-01 0.32426099D-01 0.14625933D+05 0.14625933D+05 0.14625933D+05 0.12490748D+01  1  2 13  3  6  5       -3 -.124414907644D-01 0.100000000000D+01
0.149381535621D-04 0.000000000000D+00 0.000000000000D+00 0.161232181272D-05 0.117567538379D-06  6 -4 21 25 -24 -3 21 4 0.19399134D-01 0.32426099D-01 0.14625933D+05 0.14625933D+05 0.14625933D+05 0.12490748D+01  1  2  1  3  6  5       -3 0.323218565262D-01 0.100000000000D+01
  </mgrwgt>
  </event>
  <event>
  6     66 0.49224707E-03 0.32190131E+02 0.75467711E-02 0.11771011E+00
       -4 -1    0    0    0  501 0.00000000E+00 0.00000000E+00 0.10572141E+04 0.10572152E+04 0.15500000E+01 0.0000E+00 0.9000E+01
       21 -1    0    0  501  502 0.00000000E+00 0.00000000E+00 -.31363585E+02 0.31372551E+02 0.75000000E+00 0.0000E+00 0.9000E+01
       25  1    1    2    0    0 0.22113364E+02 -.59891449E+02 0.38347830E+03 0.40835841E+03 0.12500000E+03 0.0000E+00 0.9000E+01
      -24  1    1    2    0    0 -.13724535E+02 0.38411399E+02 0.14799745E+03 0.17330395E+03 0.80419002E+02 0.0000E+00 0.9000E+01
       -3  1    1    2    0  503 0.39256679E+02 0.43542518E+02 0.22745676E+03 0.23489118E+03 0.50000000E+00 0.0000E+00 0.9000E+01
       21  1    1    2  503  502 -.47645508E+02 -.22062468E+02 0.26691798E+03 0.27203422E+03 0.75000000E+00 0.0000E+00 0.9000E+01
#aMCatNLO 2  0  0  5  2 0.31127476D+02 0.00000000D+00  -5  6  0 0.00000000D+00 0.00000000D+00 0.00000000D+00 0.00000000D+00 0.00000000D+00
  <mgrwgt>
 0.1042828298D-01    1    2    0
 0.182108545606465D+03 0.000000000000000D+00 0.000000000000000D+00 0.182108545606465D+03
 0.182108545606465D+03 -.000000000000000D+00 -.000000000000000D+00 -.182108545606465D+03
 0.149724179946275D+03 0.266631817243377D+02 -.715415011856949D+02 -.310357601649572D+02
 0.108345748332762D+03 -.104396717857063D+02 0.300003299011718D+02 -.652884268936180D+02
 0.106147162933893D+03 -.162235099386315D+02 0.415411712845231D+02 0.963241870585751D+02
 0.000000000000000D+00 0.000000000000000D+00 -.000000000000000D+00 0.000000000000000D+00
 0.182108545606465D+03 0.000000000000000D+00 0.000000000000000D+00 0.182108545606465D+03
 0.182108545606465D+03 -.000000000000000D+00 -.000000000000000D+00 -.182108545606465D+03
 0.140418980316380D+03 0.221141838767355D+02 -.598935471070159D+02 -.402689948937050D+01
 0.101131014024365D+03 -.137239447639927D+02 0.384098878114026D+02 -.457886438066932D+02
 0.609363963763608D+02 0.394102426442070D+02 0.431352478764175D+02 0.173039755172532D+02
 0.617307004958237D+02 -.478004817569499D+02 -.216515885808042D+02 0.325115677788105D+02
0.155089484627D-04 0.000000000000D+00 0.000000000000D+00 0.178332416661D-06 0.928704090126D-09  6 -4 21 25 -24 -3 21 4 0.16264910D+00 0.48259441D-02 0.29144636D+05 0.29144636D+05 0.29144636D+05 0.12162191D+01  1  2  1  3  6  5       -3 0.104282829779D-01 0.100000000000D+01
  </mgrwgt>
  </event>
  <event>
  5     66 0.49224707E-03 0.43292872E+02 0.75467711E-02 0.12131044E+00
       -2 -1    0    0    0  501 0.00000000E+00 0.00000000E+00 0.39901863E+03 0.39901876E+03 0.32000000E+00 0.0000E+00 0.9000E+01
       21 -1    0    0  501  502 0.00000000E+00 0.00000000E+00 -.98069890E+02 0.98072757E+02 0.75000000E+00 0.0000E+00 0.9000E+01
       25  1    1    2    0    0 0.33627924E+02 -.51892416E+02 0.22716820E+03 0.26655966E+03 0.12500000E+03 0.0000E+00 0.9000E+01
      -24  1    1    2    0    0 0.96031808E+01 0.54202511E+02 0.12817189E+03 0.16101361E+03 0.80419002E+02 0.0000E+00 0.9000E+01
       -1  1    1    2    0  502 -.43231105E+02 -.23100949E+01 -.54391352E+02 0.69518246E+02 0.32000000E+00 0.0000E+00 0.9000E+01
#aMCatNLO 1  0  0  5  2 0.61073732D+01 0.00000000D+00  -5  6  0 0.00000000D+00 0.00000000D+00 0.00000000D+00 0.00000000D+00 0.00000000D+00
  <mgrwgt>
 0.2841558945D-01    8    2    0
 0.197819254762052D+03 0.000000000000000D+00 0.000000000000000D+00 0.197819254762052D+03
 0.197819254762052D+03 -.000000000000000D+00 -.000000000000000D+00 -.197819254762052D+03
 0.162114137342509D+03 0.336279787695815D+02 -.518924131204361D+02 0.826579096682007D+02
 0.104806144634492D+03 0.960321615029823D+01 0.542025127916622D+02 0.385613517062860D+02
 0.128718227547103D+03 -.432311949198798D+02 -.231009967122612D+01 -.121219261374487D+03
 0.000000000000000D+00 0.000000000000000D+00 -.000000000000000D+00 0.000000000000000D+00
 0.197819254762052D+03 0.000000000000000D+00 0.000000000000000D+00 0.197819254762052D+03
 0.197819254762052D+03 -.000000000000000D+00 -.000000000000000D+00 -.197819254762052D+03
 0.161935705482291D+03 0.335176913913528D+02 -.518983064305021D+02 0.823486664341751D+02
 0.104724252777801D+03 0.953190441014004D+01 0.541987021815739D+02 0.383613952515703D+02
 0.981396253256119D+02 -.278460475028489D+02 0.112990529661728D+01 -.940994527696163D+02
 0.308389259384003D+02 -.152035482986439D+02 -.343030104768902D+01 -.266106089161290D+02
0.146141052888D-05 0.000000000000D+00 0.000000000000D+00 0.232219916978D-05 0.000000000000D+00  6 -2 21 25 -24 -1 21 2 0.61387712D-01 0.15087906D-01 0.19628807D+05 0.19628807D+05 0.19628807D+05 0.12347228D+01  1  2  2  3  6  5       -1 0.177908909509D-02 0.100000000000D+01
0.129982862420D-06 0.771207523819D-07 -.295016680677D-08 0.232219916978D-05 0.000000000000D+00  6 -2 21 25 -24 -1 21 4 0.61387712D-01 0.15087906D-01 0.19628807D+05 0.19628807D+05 0.19628807D+05 0.12347228D+01  1  2  3  3  6  5       -1 0.241240640815D-03 0.100000000000D+01
0.136320552582D-06 0.000000000000D+00 0.000000000000D+00 0.232219916978D-05 0.000000000000D+00  6 -2 21 25 -24 -1 21 4 0.61387712D-01 0.15087906D-01 0.19628807D+05 0.19628807D+05 0.19628807D+05 0.12347228D+01  1  2 15  3  6  5       -1 0.253003025544D-03 0.100000000000D+01
0.210755213704D-04 0.000000000000D+00 0.000000000000D+00 0.232203410978D-05 0.000000000000D+00  6 -2 21 25 -24 -1 21 4 0.61387712D-01 0.15087906D-01 0.19646791D+05 0.19646791D+05 0.19646791D+05 0.12346789D+01  1  2 12  3  6  5       -1 0.391093551591D-01 0.100000000000D+01
-.183690885890D-04 0.000000000000D+00 0.000000000000D+00 0.232219916978D-05 0.000000000000D+00  6 -2 21 25 -24 -1 21 4 0.61387712D-01 0.15087906D-01 0.19628807D+05 0.19628807D+05 0.19628807D+05 0.12347228D+01  1  2  4  3  6  5       -1 -.340919612009D-01 0.100000000000D+01
-.302262238456D-04 0.000000000000D+00 0.000000000000D+00 0.232219916978D-05 0.000000000000D+00  6 -2 21 25 -24 -1 21 4 0.61387712D-01 0.15087906D-01 0.19628807D+05 0.19628807D+05 0.19628807D+05 0.12347228D+01  1  2  5  3  6  5       -1 -.560981153528D-01 0.100000000000D+01
0.383039205938D-04 0.000000000000D+00 -.000000000000D+00 0.232219916978D-05 0.000000000000D+00  6 -2 21 25 -24 -1 21 4 0.61387712D-01 0.15087906D-01 0.19628807D+05 0.19628807D+05 0.19628807D+05 0.12347228D+01  1  2  6  3  6  5       -1 0.710898512137D-01 0.100000000000D+01
0.330506207393D-05 0.000000000000D+00 0.000000000000D+00 0.232219916978D-05 0.190448178629D-06  6 -2 21 25 -24 -1 21 4 0.61387712D-01 0.15087906D-01 0.19646791D+05 0.19646791D+05 0.19646791D+05 0.12346789D+01  1  2 11  3  6  5       -1 0.613312687267D-02 0.100000000000D+01
  </mgrwgt>
  </event>
  <event>
  6     66 0.49224707E-03 0.94965821E+02 0.75467711E-02 0.11455440E+00
       -2 -1    0    0    0  501 0.00000000E+00 0.00000000E+00 0.24911285E+03 0.24911305E+03 0.32000000E+00 0.0000E+00 0.9000E+01
       21 -1    0    0  501  503 0.00000000E+00 0.00000000E+00 -.84172193E+03 0.84172226E+03 0.75000000E+00 0.0000E+00 0.9000E+01
       25  1    1    2    0    0 0.74272110E+02 -.13568169E+03 0.76752550E+02 0.21317087E+03 0.12500000E+03 0.0000E+00 0.9000E+01
      -24  1    1    2    0    0 -.55807011E+02 0.28064187E+02 0.64804753E+02 0.12070167E+03 0.80419002E+02 0.0000E+00 0.9000E+01
       -1  1    1    2    0  502 0.28070916E+00 0.96162919E+01 0.51681575E+01 0.10925389E+02 0.32000000E+00 0.0000E+00 0.9000E+01
       21  1    1    2  502  503 -.18745807E+02 0.98001212E+02 -.73933455E+03 0.74603738E+03 0.75000000E+00 0.0000E+00 0.9000E+01
#aMCatNLO 2  0  0  2  1 0.19129449D+02 0.00000000D+00  -5  6  0 0.00000000D+00 0.00000000D+00 0.00000000D+00 0.00000000D+00 0.00000000D+00
  <mgrwgt>
 0.2104701930D-02    1    2    0
 0.147818816645752D+03 0.000000000000000D+00 0.000000000000000D+00 0.147818816645752D+03
 0.147818816645752D+03 0.000000000000000D+00 0.000000000000000D+00 -.147818816645752D+03
 0.160840043592435D+03 0.631568776571304D+02 -.775741000405829D+02 -.154268412292435D+02
 0.121450689151904D+03 -.627282500093716D+02 0.642464230142185D+02 0.148532057732262D+02
 0.133469005471648D+02 -.428627647758765D+00 0.133276770263644D+02 0.573635456017314D+00
 0.000000000000000D+00 -.000000000000000D+00 0.000000000000000D+00 -.000000000000000D+00
 0.158137995940540D+03 0.000000000000000D+00 0.000000000000000D+00 0.158137995940540D+03
 0.132595410694063D+04 0.000000000000000D+00 0.000000000000000D+00 -.132595410694063D+04
 0.199473224623866D+03 0.742722640443477D+02 -.135684231601383D+03 -.154268412292435D+02
 0.102906639625294D+03 -.558069994806083D+02 0.280628154651175D+02 0.148532057732262D+02
 0.964137390145988D+01 0.280542886362290D+00 0.962020419535169D+01 0.573635456017314D+00
 0.117207086473055D+04 -.187458074501016D+02 0.980012119409135D+02 -.116781611100009D+04
0.449339094895D-04 0.000000000000D+00 0.000000000000D+00 0.795439779483D-06 0.342030255509D-08  6 -2 21 25 -24 -1 21 4 0.38325066D-01 0.12949563D+00 0.42046962D+05 0.42046962D+05 0.42046962D+05 0.11998054D+01  1  2  1  2  6  2       21 0.210470193011D-02 0.100000000000D+01
  </mgrwgt>
  </event>
  <event>
  5     66 0.49224707E-03 0.29817185E+02 0.75467711E-02 0.12281493E+00
       -2 -1    0    0    0  501 0.00000000E+00 0.00000000E+00 0.24870390E+02 0.24872448E+02 0.32000000E+00 0.0000E+00 0.9000E+01
       21 -1    0    0  501  502 -.00000000E+00 -.00000000E+00 -.13182017E+04 0.13182020E+04 0.75000000E+00 0.0000E+00 0.9000E+01
       25  1    1    2    0    0 -.59378555E+01 -.29854861E+02 -.21530634E+03 0.25081545E+03 0.12500000E+03 0.0000E+00 0.9000E+01
      -24  1    1    2    0    0 0.85636183E+01 0.59556096E+02 -.36373580E+03 0.37734760E+03 0.80419002E+02 0.0000E+00 0.9000E+01
       -1  1    1    2    0  502 -.26257628E+01 -.29701236E+02 -.71428922E+03 0.71491135E+03 0.32000000E+00 0.0000E+00 0.9000E+01
#aMCatNLO 1  0  0  5  2 0.44170803D+01 0.00000000D+00  -5  6  0 0.00000000D+00 0.00000000D+00 0.00000000D+00 0.00000000D+00 0.00000000D+00
  <mgrwgt>
 0.4084219891D-01    8    2    0
 0.181068265528416D+03 0.000000000000000D+00 0.000000000000000D+00 0.181068265528416D+03
 0.181068265528416D+03 -.000000000000000D+00 -.000000000000000D+00 -.181068265528416D+03
 0.161269054925259D+03 -.593784953202023D+01 -.298547933553389D+02 0.972426929549526D+02
 0.100445539174519D+03 0.856362200505697D+01 0.595561379135402D+02 -.134951867981772D+01
 0.100421936957054D+03 -.262577247303674D+01 -.297013445582013D+02 -.958931742751349D+02
 0.000000000000000D+00 -.000000000000000D+00 0.000000000000000D+00 0.000000000000000D+00
 0.181068265528416D+03 0.000000000000000D+00 0.000000000000000D+00 0.181068265528416D+03
 0.181068265528416D+03 -.000000000000000D+00 -.000000000000000D+00 -.181068265528416D+03
 0.161178982673720D+03 -.594238143995666D+01 -.299060558925573D+02 0.970771877400074D+02
 0.100427805471433D+03 0.856079879201589D+01 0.595242032260701D+02 -.145262238089757D+01
 0.491522245694505D+02 0.910932134782779D+00 -.108323767697307D+02 -.479350706298646D+02
 0.513775183422287D+02 -.352934948684201D+01 -.187857705637821D+02 -.476894947292453D+02
0.478065507774D-05 0.000000000000D+00 0.000000000000D+00 0.280718575290D-05 0.000000000000D+00  6 -2 21 25 -24 -1 21 2 0.38263886D-02 0.20280044D+00 0.16758151D+05 0.16758151D+05 0.16758151D+05 0.12423722D+01  1  2  2  3  6  5       -1 0.223236755419D-02 0.100000000000D+01
0.607922543285D-06 0.252282099512D-06 -.965076523418D-08 0.280718575290D-05 0.000000000000D+00  6 -2 21 25 -24 -1 21 4 0.38263886D-02 0.20280044D+00 0.16758151D+05 0.16758151D+05 0.16758151D+05 0.12423722D+01  1  2  3  3  6  5       -1 0.438157217156D-03 0.100000000000D+01
0.406112779048D-06 0.000000000000D+00 0.000000000000D+00 0.280718575290D-05 0.000000000000D+00  6 -2 21 25 -24 -1 21 4 0.38263886D-02 0.20280044D+00 0.16758151D+05 0.16758151D+05 0.16758151D+05 0.12423722D+01  1  2 15  3  6  5       -1 0.292703810847D-03 0.100000000000D+01
0.149581008938D-04 0.000000000000D+00 0.000000000000D+00 0.280691169135D-05 0.000000000000D+00  6 -2 21 25 -24 -1 21 4 0.38263886D-02 0.20280044D+00 0.16778973D+05 0.16778973D+05 0.16778973D+05 0.12423115D+01  1  2 12  3  6  5       -1 0.107783556240D-01 0.100000000000D+01
-.652337304819D-04 0.000000000000D+00 0.000000000000D+00 0.280718575290D-05 0.000000000000D+00  6 -2 21 25 -24 -1 21 4 0.38263886D-02 0.20280044D+00 0.16758151D+05 0.16758151D+05 0.16758151D+05 0.12423722D+01  1  2  4  3  6  5       -1 -.470168940573D-01 0.100000000000D+01
-.799862668018D-04 0.000000000000D+00 0.000000000000D+00 0.280718575290D-05 0.000000000000D+00  6 -2 21 25 -24 -1 21 4 0.38263886D-02 0.20280044D+00 0.16758151D+05 0.16758151D+05 0.16758151D+05 0.12423722D+01  1  2  5  3  6  5       -1 -.576497128782D-01 0.100000000000D+01
0.129164432334D-03 0.000000000000D+00 -.000000000000D+00 0.280718575290D-05 0.000000000000D+00  6 -2 21 25 -24 -1 21 4 0.38263886D-02 0.20280044D+00 0.16758151D+05 0.16758151D+05 0.16758151D+05 0.12423722D+01  1  2  6  3  6  5       -1 0.930946365656D-01 0.100000000000D+01
0.536694510304D-04 0.000000000000D+00 0.000000000000D+00 0.280718575290D-05 0.324348530871D-06  6 -2 21 25 -24 -1 21 4 0.38263886D-02 0.20280044D+00 0.16778973D+05 0.16778973D+05 0.16778973D+05 0.12423115D+01  1  2 11  3  6  5       -1 0.386725850732D-01 0.100000000000D+01
  </mgrwgt>
  </event>
  <event>
  5     66 0.49224707E-03 0.30503374E+02 0.75467711E-02 0.12139163E+00
       -2 -1    0    0    0  501 0.00000000E+00 0.00000000E+00 0.30523409E+03 0.30523426E+03 0.32000000E+00 0.0000E+00 0.9000E+01
       21 -1    0    0  501  502 0.00000000E+00 0.00000000E+00 -.67130318E+02 0.67134507E+02 0.75000000E+00 0.0000E+00 0.9000E+01
       25  1    1    2    0    0 -.45414390E+02 0.63994842E+02 0.16474858E+03 0.22118974E+03 0.12500000E+03 0.0000E+00 0.9000E+01
      -24  1    1    2    0    0 0.16622005E+02 -.53925406E+02 0.69702575E+02 0.12045707E+03 0.80419002E+02 0.0000E+00 0.9000E+01
       -1  1    1    2    0  502 0.28792384E+02 -.10069436E+02 0.36526248E+01 0.30721963E+02 0.32000000E+00 0.0000E+00 0.9000E+01
#aMCatNLO 1  0  0  2  1 0.27474169D+01 0.00000000D+00  -5  6  0 0.00000000D+00 0.00000000D+00 0.00000000D+00 0.00000000D+00 0.00000000D+00
  <mgrwgt>
 0.9675308432D-01   32    4    0
 0.143147731690426D+03 0.000000000000000D+00 0.000000000000000D+00 0.143147731690426D+03
 0.143147731690426D+03 0.000000000000000D+00 0.000000000000000D+00 -.143147731690426D+03
 0.150672975534656D+03 -.454149589905235D+02 0.639950412782920D+02 0.303226276589900D+02
 0.987020823390896D+02 0.166216324821842D+02 -.539252760160120D+02 -.952213442070639D+01
 0.369204055071060D+02 0.287933265083393D+02 -.100697652622801D+02 -.208004932382836D+02
 0.000000000000000D+00 -.000000000000000D+00 -.000000000000000D+00 -.000000000000000D+00
 0.144422630873728D+03 0.000000000000000D+00 0.000000000000000D+00 0.144422630873728D+03
 0.144642190960006D+03 0.000000000000000D+00 0.000000000000000D+00 -.144642190960006D+03
 0.150726607199029D+03 -.442897722812455D+02 0.649035009907795D+02 0.303226276589900D+02
 0.985056500123764D+02 0.173578495578554D+02 -.533308648419573D+02 -.952213442070639D+01
 0.370763885753170D+02 0.290695717787394D+02 -.984672876811041D+01 -.208004932382836D+02
 0.275617604701112D+01 -.213764905534931D+01 -.172590738071179D+01 -.219560086278532D+00
 0.143147731690426D+03 0.000000000000000D+00 0.000000000000000D+00 0.143147731690426D+03
 0.143147731690426D+03 0.000000000000000D+00 0.000000000000000D+00 -.143147731690426D+03
 0.150672975534656D+03 -.454149589905235D+02 0.639950412782920D+02 0.303226276589900D+02
 0.987020823390896D+02 0.166216324821842D+02 -.539252760160120D+02 -.952213442070639D+01
 0.000000000000000D+00 -.000000000000000D+00 -.000000000000000D+00 -.000000000000000D+00
 0.369204055071060D+02 0.287933265083393D+02 -.100697652622801D+02 -.208004932382836D+02
 0.144422630873728D+03 0.000000000000000D+00 0.000000000000000D+00 0.144422630873728D+03
 0.144642190960006D+03 0.000000000000000D+00 0.000000000000000D+00 -.144642190960006D+03
 0.150726607199029D+03 -.442897722812455D+02 0.649035009907795D+02 0.303226276589900D+02
 0.985056500123764D+02 0.173578495578554D+02 -.533308648419573D+02 -.952213442070639D+01
 0.275617604701112D+01 -.213764905534931D+01 -.172590738071179D+01 -.219560086278532D+00
 0.370763885753170D+02 0.290695717787394D+02 -.984672876811041D+01 -.208004932382836D+02
0.264785829154D-05 0.000000000000D+00 0.000000000000D+00 0.838145622049D-06 0.000000000000D+00  6 -2 21 25 -24 -1 21 2 0.46959427D-01 0.10328076D-01 0.19090303D+05 0.19090303D+05 0.19090303D+05 0.12360580D+01  1  2  2  2  6  2       21 0.108641731501D-01 0.100000000000D+01
0.982989299881D-07 0.139731320946D-06 -.534526300883D-08 0.838145622049D-06 0.000000000000D+00  6 -2 21 25 -24 -1 21 4 0.46959427D-01 0.10328076D-01 0.19090303D+05 0.19090303D+05 0.19090303D+05 0.12360580D+01  1  2  3  2  6  2       21 0.616209565440D-03 0.100000000000D+01
0.258097731139D-06 0.000000000000D+00 0.000000000000D+00 0.838145622049D-06 0.000000000000D+00  6 -2 21 25 -24 -1 21 4 0.46959427D-01 0.10328076D-01 0.19090303D+05 0.19090303D+05 0.19090303D+05 0.12360580D+01  1  2 15  2  6  2       21 0.161794528959D-02 0.100000000000D+01
0.171549049753D-07 0.000000000000D+00 0.000000000000D+00 0.836836062273D-06 0.000000000000D+00  6 -2 21 25 -24 -1 21 4 0.46959427D-01 0.10481450D-01 0.19478215D+05 0.19478215D+05 0.19478215D+05 0.12350920D+01  1  2 12  2  6  2       21 0.104488812977D-03 0.100000000000D+01
-.955373054018D-05 0.000000000000D+00 0.000000000000D+00 0.838145622049D-06 0.000000000000D+00  6 -2 21 25 -24 -1 21 4 0.46959427D-01 0.10328076D-01 0.19090303D+05 0.19090303D+05 0.19090303D+05 0.12360580D+01  1  2  4  2  6  2       21 -.598897683343D-01 0.100000000000D+01
-.419610409719D-03 0.000000000000D+00 -.509291795334D-04 0.838145622049D-06 0.000000000000D+00  6 -2 21 25 -24 -1 21 4 0.46959427D-01 0.10527114D-01 0.19090303D+05 0.19090303D+05 0.19090303D+05 0.12360580D+01  1  2  5  2  6  2       21 -.254365268952D+01 0.100000000000D+01
0.420273542069D-03 0.000000000000D+00 0.508920857735D-04 0.838145622049D-06 0.000000000000D+00  6 -2 21 25 -24 -1 21 4 0.46959427D-01 0.10328076D-01 0.19090303D+05 0.19090303D+05 0.19090303D+05 0.12360580D+01  1  2  6  2  6  2       21 0.263458184902D+01 0.100000000000D+01
0.930630789281D-05 0.000000000000D+00 0.000000000000D+00 0.838145622049D-06 0.111103673917D-05  6 -2 21 25 -24 -1 21 4 0.47377656D-01 0.10435901D-01 0.19478215D+05 0.19478215D+05 0.19478215D+05 0.12350920D+01  1  2 11  2  6  2       21 0.561377005923D-01 0.100000000000D+01
0.109214330827D-08 0.000000000000D+00 0.000000000000D+00 0.836836062273D-06 0.000000000000D+00  6 -2 -1 25 -24 -1 -1 4 0.46959427D-01 0.10481450D-01 0.19478215D+05 0.19478215D+05 0.19478215D+05 0.12350920D+01  1  2 12  5  6  2       21 0.446116245482D-06 0.100000000000D+01
-.161831186161D-05 0.000000000000D+00 -.222227875586D-06 0.838145622049D-06 0.000000000000D+00  6 -2 -1 25 -24 -1 -1 4 0.46959427D-01 0.10527114D-01 0.19090303D+05 0.19090303D+05 0.19090303D+05 0.12360580D+01  1  2  5  5  6  2       21 -.658336001788D-03 0.100000000000D+01
0.192184196681D-06 0.000000000000D+00 0.000000000000D+00 0.838145622049D-06 0.203977944055D-08  6 -2 -1 25 -24 -1 -1 4 0.47377656D-01 0.10435901D-01 0.19478215D+05 0.19478215D+05 0.19478215D+05 0.12350920D+01  1  2 11  5  6  2       21 0.776698642460D-04 0.100000000000D+01
0.109214330827D-08 0.000000000000D+00 0.000000000000D+00 0.836836062273D-06 0.000000000000D+00  6 -2 1 25 -24 1 -1 4 0.46959427D-01 0.10481450D-01 0.19478215D+05 0.19478215D+05 0.19478215D+05 0.12350920D+01  3  4 12  6  5  2       21 0.564497075265D-06 0.100000000000D+01
-.161831186161D-05 0.000000000000D+00 -.222227875586D-06 0.838145622049D-06 0.000000000000D+00  6 -2 1 25 -24 1 -1 4 0.46959427D-01 0.10527114D-01 0.19090303D+05 0.19090303D+05 0.19090303D+05 0.12360580D+01  3  4  5  6  5  2       21 -.833811198799D-03 0.100000000000D+01
0.118612153295D-05 0.000000000000D+00 0.000000000000D+00 0.838145622049D-06 0.121436176227D-06  6 -2 1 25 -24 1 -1 4 0.47377656D-01 0.10435901D-01 0.19478215D+05 0.19478215D+05 0.19478215D+05 0.12350920D+01  3  4 11  6  5  2       21 0.606017322796D-03 0.100000000000D+01
0.109214330827D-08 0.000000000000D+00 0.000000000000D+00 0.836836062273D-06 0.000000000000D+00  6 -2 -2 25 -24 -1 -2 4 0.46959427D-01 0.10481450D-01 0.19478215D+05 0.19478215D+05 0.19478215D+05 0.12350920D+01  1  2 12  7  6  2       21 0.425559066072D-06 0.100000000000D+01
-.161831186161D-05 0.000000000000D+00 -.222227875586D-06 0.838145622049D-06 0.000000000000D+00  6 -2 -2 25 -24 -1 -2 4 0.46959427D-01 0.10527114D-01 0.19090303D+05 0.19090303D+05 0.19090303D+05 0.12360580D+01  1  2  5  7  6  2       21 -.627863471385D-03 0.100000000000D+01
0.150595139468D-06 0.000000000000D+00 0.000000000000D+00 0.838145622049D-06 0.538695180760D-08  6 -2 -2 25 -24 -1 -2 4 0.47377656D-01 0.10435901D-01 0.19478215D+05 0.19478215D+05 0.19478215D+05 0.12350920D+01  1  2 11  7  6  2       21 0.580693049736D-04 0.100000000000D+01
0.109214330827D-08 0.000000000000D+00 0.000000000000D+00 0.836836062273D-06 0.000000000000D+00  6 -2 2 25 -24 2 -1 4 0.46959427D-01 0.10481450D-01 0.19478215D+05 0.19478215D+05 0.19478215D+05 0.12350920D+01  3  4 12  8  5  2       21 0.644656764693D-06 0.100000000000D+01
-.161831186161D-05 0.000000000000D+00 -.222227875586D-06 0.838145622049D-06 0.000000000000D+00  6 -2 2 25 -24 2 -1 4 0.46959427D-01 0.10527114D-01 0.19090303D+05 0.19090303D+05 0.19090303D+05 0.12360580D+01  3  4  5  8  5  2       21 -.952633623352D-03 0.100000000000D+01
0.197007489146D-06 0.000000000000D+00 0.000000000000D+00 0.838145622049D-06 0.393955602946D-08  6 -2 2 25 -24 2 -1 4 0.47377656D-01 0.10435901D-01 0.19478215D+05 0.19478215D+05 0.19478215D+05 0.12350920D+01  3  4 11  8  5  2       21 0.114898131552D-03 0.100000000000D+01
0.109214330827D-08 0.000000000000D+00 0.000000000000D+00 0.836836062273D-06 0.000000000000D+00  6 -2 -3 25 -24 -1 -3 4 0.46959427D-01 0.10481450D-01 0.19478215D+05 0.19478215D+05 0.19478215D+05 0.12350920D+01  1  2 12  9  6  2       21 0.291543566142D-06 0.100000000000D+01
0.109214330827D-08 0.000000000000D+00 0.000000000000D+00 0.836836062273D-06 0.000000000000D+00  6 -2 -4 25 -24 -1 -4 4 0.46959427D-01 0.10481450D-01 0.19478215D+05 0.19478215D+05 0.19478215D+05 0.12350920D+01  1  2 12  9  6  2       21 0.254202896411D-06 0.100000000000D+01
-.161831186161D-05 0.000000000000D+00 -.222227875586D-06 0.838145622049D-06 0.000000000000D+00  6 -2 -3 25 -24 -1 -3 4 0.46959427D-01 0.10527114D-01 0.19090303D+05 0.19090303D+05 0.19090303D+05 0.12360580D+01  1  2  5  9  6  2       21 -.429790893948D-03 0.100000000000D+01
-.161831186161D-05 0.000000000000D+00 -.222227875586D-06 0.838145622049D-06 0.000000000000D+00  6 -2 -4 25 -24 -1 -4 4 0.46959427D-01 0.10527114D-01 0.19090303D+05 0.19090303D+05 0.19090303D+05 0.12360580D+01  1  2  5  9  6  2       21 -.374611112591D-03 0.100000000000D+01
0.196832044400D-06 0.000000000000D+00 0.000000000000D+00 0.838145622049D-06 0.393604766330D-08  6 -2 -3 25 -24 -1 -3 4 0.47377656D-01 0.10435901D-01 0.19478215D+05 0.19478215D+05 0.19478215D+05 0.12350920D+01  1  2 11  9  6  2       21 0.520149836117D-04 0.100000000000D+01
0.196832044400D-06 0.000000000000D+00 0.000000000000D+00 0.838145622049D-06 0.393604766330D-08  6 -2 -4 25 -24 -1 -4 4 0.47377656D-01 0.10435901D-01 0.19478215D+05 0.19478215D+05 0.19478215D+05 0.12350920D+01  1  2 11  9  6  2       21 0.453593974780D-04 0.100000000000D+01
0.109214330827D-08 0.000000000000D+00 0.000000000000D+00 0.836836062273D-06 0.000000000000D+00  6 -2 3 25 -24 3 -1 4 0.46959427D-01 0.10481450D-01 0.19478215D+05 0.19478215D+05 0.19478215D+05 0.12350920D+01  3  4 12 10  5  2       21 0.291506338381D-06 0.100000000000D+01
0.109214330827D-08 0.000000000000D+00 0.000000000000D+00 0.836836062273D-06 0.000000000000D+00  6 -2 4 25 -24 4 -1 4 0.46959427D-01 0.10481450D-01 0.19478215D+05 0.19478215D+05 0.19478215D+05 0.12350920D+01  3  4 12 10  5  2       21 0.254202896411D-06 0.100000000000D+01
-.161831186161D-05 0.000000000000D+00 -.222227875586D-06 0.838145622049D-06 0.000000000000D+00  6 -2 3 25 -24 3 -1 4 0.46959427D-01 0.10527114D-01 0.19090303D+05 0.19090303D+05 0.19090303D+05 0.12360580D+01  3  4  5 10  5  2       21 -.429735878608D-03 0.100000000000D+01
-.161831186161D-05 0.000000000000D+00 -.222227875586D-06 0.838145622049D-06 0.000000000000D+00  6 -2 4 25 -24 4 -1 4 0.46959427D-01 0.10527114D-01 0.19090303D+05 0.19090303D+05 0.19090303D+05 0.12360580D+01  3  4  5 10  5  2       21 -.374611112591D-03 0.100000000000D+01
0.196832044400D-06 0.000000000000D+00 0.000000000000D+00 0.838145622049D-06 0.393604766330D-08  6 -2 3 25 -24 3 -1 4 0.47377656D-01 0.10435901D-01 0.19478215D+05 0.19478215D+05 0.19478215D+05 0.12350920D+01  3  4 11 10  5  2       21 0.520083449939D-04 0.100000000000D+01
0.196832044400D-06 0.000000000000D+00 0.000000000000D+00 0.838145622049D-06 0.393604766330D-08  6 -2 4 25 -24 4 -1 4 0.47377656D-01 0.10435901D-01 0.19478215D+05 0.19478215D+05 0.19478215D+05 0.12350920D+01  3  4 11 10  5  2       21 0.453593974780D-04 0.100000000000D+01
  </mgrwgt>
  </event>
  <event>
  5     66 0.49224707E-03 0.92736063E+02 0.75467711E-02 0.11455171E+00
       -2 -1    0    0    0  501 0.00000000E+00 0.00000000E+00 0.17219252E+03 0.17219281E+03 0.32000000E+00 0.0000E+00 0.9000E+01
       21 -1    0    0  501  502 -.00000000E+00 -.00000000E+00 -.31409378E+03 0.31409468E+03 0.75000000E+00 0.0000E+00 0.9000E+01
       25  1    1    2    0    0 0.91435304E+02 -.36772633E+02 -.10729198E+03 0.19196148E+03 0.12500000E+03 0.0000E+00 0.9000E+01
      -24  1    1    2    0    0 -.12033172E+02 -.69524791E+02 -.99967952E+02 0.14642166E+03 0.80419002E+02 0.0000E+00 0.9000E+01
       -1  1    1    2    0  502 -.79402133E+02 0.10629742E+03 0.65358662E+02 0.14790435E+03 0.32000000E+00 0.0000E+00 0.9000E+01
#aMCatNLO 1  0  0  5  2 0.50663015D+02 0.00000000D+00  -5  6  0 0.00000000D+00 0.00000000D+00 0.00000000D+00 0.00000000D+00 0.00000000D+00
  <mgrwgt>
 0.5221465967D-02    5    2    0
 0.232561579793107D+03 0.000000000000000D+00 0.000000000000000D+00 0.232561579793107D+03
 0.232561579793107D+03 -.000000000000000D+00 -.000000000000000D+00 -.232561579793107D+03
 0.167963314772913D+03 0.914353525612720D+02 -.367726973109690D+02 -.536098884906165D+02
 0.122585731346958D+03 -.120331363597567D+02 -.695248384378547D+02 -.598460194585725D+02
 0.174574113466343D+03 -.794022162015153D+02 0.106297535748824D+03 0.113455907949189D+03
 0.000000000000000D+00 0.000000000000000D+00 0.000000000000000D+00 0.000000000000000D+00
 0.232561579793107D+03 0.000000000000000D+00 0.000000000000000D+00 0.232561579793107D+03
 0.232561579793107D+03 -.000000000000000D+00 -.000000000000000D+00 -.232561579793107D+03
 0.158895186091215D+03 0.839990654333530D+02 -.268175721944059D+02 -.429843575139029D+02
 0.115603218053247D+03 -.174521216814007D+02 -.622703206988547D+02 -.521029622840712D+02
 0.136199208229211D+03 -.928505805869125D+02 0.876143208985567D+02 0.474628779197171D+02
 0.544255472125410D+02 0.263036368349602D+02 0.147357199470384D+01 0.476244418782570D+02
0.854797142371D-05 0.000000000000D+00 0.000000000000D+00 0.162763719040D-06 0.000000000000D+00  6 -2 21 25 -24 -1 21 2 0.26491248D-01 0.48322212D-01 0.39768799D+05 0.39768799D+05 0.39768799D+05 0.12022560D+01  1  2  2  3  6  5       -1 0.517645407233D-02 0.100000000000D+01
-.111142859345D-05 0.451088844995D-06 -.172558915247D-07 0.162763719040D-06 0.000000000000D+00  6 -2 21 25 -24 -1 21 4 0.26491248D-01 0.48322212D-01 0.39768799D+05 0.39768799D+05 0.39768799D+05 0.12022560D+01  1  2  3  3  6  5       -1 -.972847514091D-03 0.100000000000D+01
0.966470199073D-06 0.000000000000D+00 0.000000000000D+00 0.162763719040D-06 0.000000000000D+00  6 -2 21 25 -24 -1 21 4 0.26491248D-01 0.48322212D-01 0.39768799D+05 0.39768799D+05 0.39768799D+05 0.12022560D+01  1  2 15  3  6  5       -1 0.845963596902D-03 0.100000000000D+01
0.636598470876D-05 0.000000000000D+00 0.000000000000D+00 0.162097055584D-06 0.000000000000D+00  6 -2 21 25 -24 -1 21 4 0.26491248D-01 0.48322212D-01 0.42060486D+05 0.42060486D+05 0.42060486D+05 0.11997913D+01  1  2 12  3  6  5       -1 0.551985316255D-02 0.100000000000D+01
-.610976810848D-05 0.000000000000D+00 0.000000000000D+00 0.162763719040D-06 0.000000000000D+00  6 -2 21 25 -24 -1 21 4 0.26491248D-01 0.48322212D-01 0.39768799D+05 0.39768799D+05 0.39768799D+05 0.12022560D+01  1  2  4  3  6  5       -1 -.534795735062D-02 0.100000000000D+01
  </mgrwgt>
  </event>
  <event>
  5     66 0.49224707E-03 0.27651406E+02 0.75467711E-02 0.12062337E+00
       -2 -1    0    0    0  501 0.00000000E+00 0.00000000E+00 0.17220717E+03 0.17220747E+03 0.32000000E+00 0.0000E+00 0.9000E+01
       21 -1    0    0  501  502 0.00000000E+00 0.00000000E+00 -.14199313E+03 0.14199511E+03 0.75000000E+00 0.0000E+00 0.9000E+01
       25  1    1    2    0    0 -.64873447E+02 -.70293290E+02 0.26880294E+02 0.15967862E+03 0.12500000E+03 0.0000E+00 0.9000E+01
      -24  1    1    2    0    0 0.47726858E+02 0.48600808E+02 0.36326523E+02 0.11147522E+03 0.80419002E+02 0.0000E+00 0.9000E+01
       -1  1    1    2    0  502 0.17146590E+02 0.21692482E+02 -.32992772E+02 0.43048748E+02 0.32000000E+00 0.0000E+00 0.9000E+01
#aMCatNLO 1  0  0  5  2 0.32070777D+01 0.00000000D+00  -5  6  0 0.00000000D+00 0.00000000D+00 0.00000000D+00 0.00000000D+00 0.00000000D+00
  <mgrwgt>
 0.1414007299D-01    8    2    0
 0.156373250555555D+03 0.000000000000000D+00 0.000000000000000D+00 0.156373250555555D+03
 0.156373250555555D+03 -.000000000000000D+00 -.000000000000000D+00 -.156373250555555D+03
 0.157825409214762D+03 -.648736528985616D+02 -.702935502688560D+02 0.115795398873946D+02
 0.108484691638649D+03 0.477267163240983D+02 0.486006296566718D+02 0.257264788001850D+02
 0.464364002576991D+02 0.171469365744633D+02 0.216929206121842D+02 -.373060186875797D+02
 0.000000000000000D+00 0.000000000000000D+00 0.000000000000000D+00 0.000000000000000D+00
 0.156373250555555D+03 0.000000000000000D+00 0.000000000000000D+00 0.156373250555555D+03
 0.156373250555555D+03 -.000000000000000D+00 -.000000000000000D+00 -.156373250555555D+03
 0.157649808907784D+03 -.647184145081620D+02 -.700971551831055D+02 0.112417928928731D+02
 0.108537473567204D+03 0.478335081406095D+02 0.487357340461672D+02 0.254941354025671D+02
 0.388612836052751D+02 0.113222699617505D+02 0.187853086381306D+02 -.320798651140095D+02
 0.769793503084700D+01 0.556263640580196D+01 0.257611249880762D+01 -.465606318143076D+01
0.108934330431D-05 0.000000000000D+00 0.000000000000D+00 0.119549625438D-05 0.000000000000D+00  6 -2 21 25 -24 -1 21 2 0.26493587D-01 0.21845272D-01 0.21089076D+05 0.21089076D+05 0.21089076D+05 0.12312989D+01  1  2  2  3  6  5       -1 0.330742259787D-02 0.100000000000D+01
0.857216660700D-07 0.574862255132D-07 -.219907027768D-08 0.119549625438D-05 0.000000000000D+00  6 -2 21 25 -24 -1 21 4 0.26493587D-01 0.21845272D-01 0.21089076D+05 0.21089076D+05 0.21089076D+05 0.12312989D+01  1  2  3  3  6  5       -1 0.394586784492D-03 0.100000000000D+01
0.959207776471D-07 0.000000000000D+00 0.000000000000D+00 0.119549625438D-05 0.000000000000D+00  6 -2 21 25 -24 -1 21 4 0.26493587D-01 0.21845272D-01 0.21089076D+05 0.21089076D+05 0.21089076D+05 0.12312989D+01  1  2 15  3  6  5       -1 0.441534479589D-03 0.100000000000D+01
0.107463215329D-06 0.000000000000D+00 0.000000000000D+00 0.119526041647D-05 0.000000000000D+00  6 -2 21 25 -24 -1 21 4 0.26493587D-01 0.21845272D-01 0.21143066D+05 0.21143066D+05 0.21143066D+05 0.12311775D+01  1  2 12  3  6  5       -1 0.494478635843D-03 0.100000000000D+01
-.873281140918D-05 0.000000000000D+00 0.000000000000D+00 0.119549625438D-05 0.000000000000D+00  6 -2 21 25 -24 -1 21 4 0.26493587D-01 0.21845272D-01 0.21089076D+05 0.21089076D+05 0.21089076D+05 0.12312989D+01  1  2  4  3  6  5       -1 -.401981451306D-01 0.100000000000D+01
-.927389764442D-05 0.000000000000D+00 0.000000000000D+00 0.119549625438D-05 0.000000000000D+00  6 -2 21 25 -24 -1 21 4 0.26493587D-01 0.21845272D-01 0.21089076D+05 0.21089076D+05 0.21089076D+05 0.12312989D+01  1  2  5  3  6  5       -1 -.426888279123D-01 0.100000000000D+01
0.118812321232D-04 0.000000000000D+00 -.000000000000D+00 0.119549625438D-05 0.000000000000D+00  6 -2 21 25 -24 -1 21 4 0.26493587D-01 0.21845272D-01 0.21089076D+05 0.21089076D+05 0.21089076D+05 0.12312989D+01  1  2  6  3  6  5       -1 0.546906913295D-01 0.100000000000D+01
0.819283928109D-05 0.000000000000D+00 0.000000000000D+00 0.119549625438D-05 0.599854661658D-06  6 -2 21 25 -24 -1 21 4 0.26493587D-01 0.21845272D-01 0.21143066D+05 0.21143066D+05 0.21143066D+05 0.12311775D+01  1  2 11  3  6  5       -1 0.376983322059D-01 0.100000000000D+01
  </mgrwgt>
  </event>
  <event>
  5     66 0.49224707E-03 0.44329097E+02 0.75467711E-02 0.11916615E+00
       -2 -1    0    0    0  501 0.00000000E+00 0.00000000E+00 0.17373765E+03 0.17373794E+03 0.32000000E+00 0.0000E+00 0.9000E+01
       21 -1    0    0  501  502 0.00000000E+00 0.00000000E+00 -.13405041E+03 0.13405251E+03 0.75000000E+00 0.0000E+00 0.9000E+01
       25  1    1    2    0    0 -.14277779E+02 -.31496168E+02 0.54736423E+01 0.12981073E+03 0.12500000E+03 0.0000E+00 0.9000E+01
      -24  1    1    2    0    0 -.29995249E+02 0.33718395E+02 -.32590007E+02 0.97805775E+02 0.80419002E+02 0.0000E+00 0.9000E+01
       -1  1    1    2    0  502 0.44273028E+02 -.22222268E+01 0.66803601E+02 0.80173953E+02 0.32000000E+00 0.0000E+00 0.9000E+01
#aMCatNLO 1  0  0  2  2 0.43327997D+02 0.00000000D+00  -5  6  0 0.00000000D+00 0.00000000D+00 0.00000000D+00 0.00000000D+00 0.00000000D+00
  <mgrwgt>
 0.1118721029D-01    4    2    0
 0.152610522562808D+03 0.000000000000000D+00 0.000000000000000D+00 0.152610522562808D+03
 0.152610522562808D+03 0.000000000000000D+00 0.000000000000000D+00 -.152610522562808D+03
 0.130191809126241D+03 -.142779645931630D+02 -.314961587318783D+02 -.113595279733022D+02
 0.102866859642110D+03 -.299953958809735D+02 0.337184022045275D+02 -.455820187900496D+02
 0.721623763572648D+02 0.442733604741365D+02 -.222224347264922D+01 0.569415467633517D+02
 0.000000000000000D+00 -.000000000000000D+00 0.000000000000000D+00 0.000000000000000D+00
 0.189856185362142D+03 0.000000000000000D+00 0.000000000000000D+00 0.189856185362142D+03
 0.167281222042901D+03 0.000000000000000D+00 0.000000000000000D+00 -.167281222042901D+03
 0.133460271983376D+03 -.180877108230747D+01 -.453247577960694D+02 -.113595279733022D+02
 0.974919158800112D+02 -.205196036434577D+02 0.232095483998206D+02 -.455820187900496D+02
 0.773288555404047D+02 0.513434169321139D+02 -.100630854672375D+02 0.569415467633517D+02
 0.488563640012511D+02 -.290150422063487D+02 0.321782948634863D+02 0.225749633192410D+02
0.567936419424D-05 0.000000000000D+00 0.000000000000D+00 0.239640907454D-06 0.000000000000D+00  6 -2 21 25 -24 -1 21 2 0.26729053D-01 0.20623324D-01 0.17721043D+05 0.17721043D+05 0.17721043D+05 0.12396526D+01  1  2  2  2  6  2       21 0.191320264049D-01 0.100000000000D+01
-.639945153733D-06 0.299708282550D-06 -.114650000108D-07 0.239640907454D-06 0.000000000000D+00  6 -2 21 25 -24 -1 21 4 0.26729053D-01 0.20623324D-01 0.17721043D+05 0.17721043D+05 0.17721043D+05 0.12396526D+01  1  2  3  2  6  2       21 -.331286695255D-02 0.100000000000D+01
0.587739715425D-06 0.000000000000D+00 0.000000000000D+00 0.239640907454D-06 0.000000000000D+00  6 -2 21 25 -24 -1 21 4 0.26729053D-01 0.20623324D-01 0.17721043D+05 0.17721043D+05 0.17721043D+05 0.12396526D+01  1  2 15  2  6  2       21 0.304260993083D-02 0.100000000000D+01
-.148249143930D-05 0.000000000000D+00 0.000000000000D+00 0.239640907454D-06 0.000000000000D+00  6 -2 21 25 -24 -1 21 4 0.26729053D-01 0.20623324D-01 0.17721043D+05 0.17721043D+05 0.17721043D+05 0.12396526D+01  1  2  4  2  6  2       21 -.767455909002D-02 0.100000000000D+01
  </mgrwgt>
  </event>
  <event>
  6     66 -.49224707E-03 0.18270066E+02 0.75467711E-02 0.11978718E+00
       21 -1    0    0  503  501 0.00000000E+00 0.00000000E+00 0.87232386E+03 0.87232418E+03 0.75000000E+00 0.0000E+00 0.9000E+01
       21 -1    0    0  501  502 0.00000000E+00 0.00000000E+00 -.94851178E+02 0.94854143E+02 0.75000000E+00 0.0000E+00 0.9000E+01
       25  1    1    2    0    0 0.57561523E+02 -.24563428E+02 0.33943874E+02 0.14385367E+03 0.12500000E+03 0.0000E+00 0.9000E+01
      -24  1    1    2    0    0 -.72395057E+02 0.30180687E+02 0.14101878E+03 0.18029263E+03 0.80419002E+02 0.0000E+00 0.9000E+01
        4  1    1    2  503    0 0.45928812E+01 0.22112437E+02 0.61166406E+03 0.61208282E+03 0.15500000E+01 0.0000E+00 0.9000E+01
       -3  1    1    2    0  502 0.10240653E+02 -.27729696E+02 -.91540382E+01 0.30949207E+02 0.50000000E+00 0.0000E+00 0.9000E+01
#aMCatNLO 2  0  0  1  2 0.22584385D+02 0.00000000D+00  -5  6  0 0.00000000D+00 0.00000000D+00 0.00000000D+00 0.00000000D+00 0.00000000D+00
  <mgrwgt>
 -.6665594721D-02    2    2    0
 0.156596825310505D+03 0.000000000000000D+00 0.000000000000000D+00 0.156596825310505D+03
 0.156596825310505D+03 0.000000000000000D+00 0.000000000000000D+00 -.156596825310505D+03
 0.144238705135832D+03 0.596773392504885D+02 -.143737759181225D+02 -.375741108357770D+02
 0.130826839674695D+03 -.704897054140706D+02 0.393567760536301D+02 0.642704569316247D+02
 0.000000000000000D+00 0.000000000000000D+00 0.000000000000000D+00 0.000000000000000D+00
 0.381281058104836D+02 0.108123661635821D+02 -.249830001355076D+02 -.266963460958477D+02
 0.525842218287480D+03 0.000000000000000D+00 0.000000000000000D+00 0.525842218287480D+03
 0.157349153632669D+03 0.000000000000000D+00 0.000000000000000D+00 -.157349153632669D+03
 0.144752913023428D+03 0.575611034907238D+02 -.245623978593118D+02 -.375741108357770D+02
 0.129421536959468D+03 -.723954593752475D+02 0.301815192166914D+02 0.642704569316247D+02
 0.369184497425469D+03 0.459288123388262D+01 0.221124372825151D+02 0.368493064654811D+03
 0.398324245117834D+02 0.102414746506411D+02 -.277315586398946D+02 -.266963460958477D+02
-.863227820664D-05 0.000000000000D+00 0.000000000000D+00 0.858298425112D-06 0.000000000000D+00  6 21 21 25 -24 4 -3 4 0.13400295D+00 0.14522820D-01 0.23145559D+05 0.23145559D+05 0.23145559D+05 0.12269026D+01  1  2 13  4  5  1       -4 -.335282758041D-01 0.100000000000D+01
0.700245938032D-05 0.000000000000D+00 0.000000000000D+00 0.869165387249D-06 0.299788610619D-08  6 21 21 25 -24 4 -3 4 0.13420254D+00 0.14592591D-01 0.23145559D+05 0.23145559D+05 0.23145559D+05 0.12269026D+01  1  2  1  4  5  1       -4 0.268626810827D-01 0.100000000000D+01
  </mgrwgt>
  </event>
  <event>
  6     66 0.49224707E-03 0.58971898E+02 0.75467711E-02 0.11990191E+00
       -2 -1    0    0    0  501 0.00000000E+00 0.00000000E+00 0.46982965E+03 0.46982976E+03 0.32000000E+00 0.0000E+00 0.9000E+01
       21 -1    0    0  501  502 0.00000000E+00 0.00000000E+00 -.88322125E+02 0.88325309E+02 0.75000000E+00 0.0000E+00 0.9000E+01
       25  1    1    2    0    0 -.46703016E+02 -.16835028E+02 0.21563115E+03 0.25413851E+03 0.12500000E+03 0.0000E+00 0.9000E+01
      -24  1    1    2    0    0 0.10751120E+02 -.47414177E+02 -.25440625E+02 0.97355699E+02 0.80419002E+02 0.0000E+00 0.9000E+01
       -1  1    1    2    0  503 0.33179074E+02 0.54721345E+02 0.18239340E+03 0.19329442E+03 0.32000000E+00 0.0000E+00 0.9000E+01
       21  1    1    2  503  502 0.27728221E+01 0.95278596E+01 0.89236003E+01 0.13366443E+02 0.75000000E+00 0.0000E+00 0.9000E+01
#aMCatNLO 2  0  0  5  2 0.72169723D+01 0.00000000D+00  -5  6  0 0.00000000D+00 0.00000000D+00 0.00000000D+00 0.00000000D+00 0.00000000D+00
  <mgrwgt>
 0.4473843717D-02    3    2    0
 0.203708792052485D+03 0.000000000000000D+00 0.000000000000000D+00 0.203708792052485D+03
 0.203708792052485D+03 -.000000000000000D+00 -.000000000000000D+00 -.203708792052485D+03
 0.146155682154116D+03 -.471347298691291D+02 -.176065387393425D+02 0.566110453862072D+02
 0.158132032611586D+03 0.102855559825526D+02 -.482461809940453D+02 -.126905622968885D+03
 0.103129869339268D+03 0.368491738865765D+02 0.658527197333878D+02 0.702945775826779D+02
 0.000000000000000D+00 0.000000000000000D+00 0.000000000000000D+00 0.000000000000000D+00
 0.203708792052485D+03 0.000000000000000D+00 0.000000000000000D+00 0.203708792052485D+03
 0.203708792052485D+03 -.000000000000000D+00 -.000000000000000D+00 -.203708792052485D+03
 0.146247984498902D+03 -.467007232946623D+02 -.168309307596688D+02 0.574389692065392D+02
 0.157193406966245D+03 0.107535847027117D+02 -.474097724430509D+02 -.126012797493844D+03
 0.940108751288423D+02 0.331733586609284D+02 0.546750096357702D+02 0.689073017827039D+02
 0.996531751098052D+01 0.277377993102214D+01 0.956569356694957D+01 -.333473495398724D+00
-.307956635975D-05 0.000000000000D+00 0.000000000000D+00 0.798105022244D-07 0.000000000000D+00  6 -2 21 25 -24 -1 21 4 0.72281738D-01 0.13588273D-01 0.22858220D+05 0.22858220D+05 0.22858220D+05 0.12274901D+01  1  2 13  3  6  5       -1 -.478012896935D-02 0.100000000000D+01
-.802060746486D-05 0.000000000000D+00 0.000000000000D+00 0.797229631857D-07 0.000000000000D+00  6 -2 21 25 -24 -1 21 4 0.72281738D-01 0.13588273D-01 0.23187944D+05 0.23187944D+05 0.23187944D+05 0.12268167D+01  1  2  8  3  6  5       -1 -.124220955431D-01 0.100000000000D+01
0.139646630787D-04 0.000000000000D+00 0.000000000000D+00 0.797229631857D-07 0.248170550511D-07  6 -2 21 25 -24 -1 21 4 0.72281738D-01 0.13588273D-01 0.22858220D+05 0.22858220D+05 0.22858220D+05 0.12274901D+01  1  2  1  3  6  5       -1 0.216760682289D-01 0.100000000000D+01
  </mgrwgt>
  </event>
  <event>
  5     66 -.49224707E-03 0.46633983E+02 0.75467711E-02 0.11921165E+00
       -4 -1    0    0    0  501 0.00000000E+00 0.00000000E+00 0.26141207E+03 0.26141666E+03 0.15500000E+01 0.0000E+00 0.9000E+01
       21 -1    0    0  501  502 0.00000000E+00 0.00000000E+00 -.75235772E+02 0.75239510E+02 0.75000000E+00 0.0000E+00 0.9000E+01
       25  1    1    2    0    0 -.77887834E+01 0.17742905E+02 0.15367424E+03 0.19903831E+03 0.12500000E+03 0.0000E+00 0.9000E+01
      -24  1    1    2    0    0 -.29342179E+02 0.10468195E+02 0.28420129E+02 0.90804550E+02 0.80419002E+02 0.0000E+00 0.9000E+01
       -3  1    1    2    0  502 0.37130962E+02 -.28211101E+02 0.40819284E+01 0.46813317E+02 0.50000000E+00 0.0000E+00 0.9000E+01
#aMCatNLO 1  0  0  1  2 0.50196668D+02 0.00000000D+00  -5  6  0 0.00000000D+00 0.00000000D+00 0.00000000D+00 0.00000000D+00 0.00000000D+00
  <mgrwgt>
 -.7045881911D-02    5    4    0
 0.140246003652607D+03 0.000000000000000D+00 0.000000000000000D+00 0.140246003652607D+03
 0.140246003652607D+03 0.000000000000000D+00 0.000000000000000D+00 -.140246003652607D+03
 0.136891845730248D+03 -.778957554295746D+01 0.177435073051555D+02 0.523341942596458D+02
 0.901230262460390D+02 -.293427001640339D+02 0.104685913835132D+02 -.261602455436171D+02
 0.534771353289282D+02 0.371322757069913D+02 -.282120986886687D+02 -.261739487160287D+02
 0.000000000000000D+00 0.000000000000000D+00 0.000000000000000D+00 0.000000000000000D+00
 0.345995060899774D+03 0.000000000000000D+00 0.000000000000000D+00 0.345995060899774D+03
 0.145569237908973D+03 0.000000000000000D+00 0.000000000000000D+00 -.145569237908973D+03
 0.138669599872592D+03 -.289157635712992D+02 0.541005148840248D+01 0.523341942596458D+02
 0.951451851231314D+02 -.435464689840771D+02 0.217643972139781D+01 -.261602455436171D+02
 0.511334060982945D+02 0.291122061246761D+02 -.328942104689894D+02 -.261739487160287D+02
 0.206616107714729D+03 0.433500264307002D+02 0.253077192591891D+02 0.200425822990801D+03
 0.140246003652607D+03 0.000000000000000D+00 0.000000000000000D+00 0.140246003652607D+03
 0.140246003652607D+03 0.000000000000000D+00 0.000000000000000D+00 -.140246003652607D+03
 0.136891845730248D+03 -.778957554295746D+01 0.177435073051555D+02 0.523341942596458D+02
 0.901230262460390D+02 -.293427001640339D+02 0.104685913835132D+02 -.261602455436171D+02
 0.000000000000000D+00 0.000000000000000D+00 0.000000000000000D+00 0.000000000000000D+00
 0.534771353289282D+02 0.371322757069913D+02 -.282120986886687D+02 -.261739487160287D+02
 0.345995060899774D+03 0.000000000000000D+00 0.000000000000000D+00 0.345995060899774D+03
 0.145569237908973D+03 0.000000000000000D+00 0.000000000000000D+00 -.145569237908973D+03
 0.138669599872592D+03 -.289157635712992D+02 0.541005148840248D+01 0.523341942596458D+02
 0.951451851231314D+02 -.435464689840771D+02 0.217643972139781D+01 -.261602455436171D+02
 0.206616107714729D+03 0.433500264307002D+02 0.253077192591891D+02 0.200425822990801D+03
 0.511334060982945D+02 0.291122061246761D+02 -.328942104689894D+02 -.261739487160287D+02
0.668396128341D-06 0.000000000000D+00 0.000000000000D+00 0.592494247896D-06 0.000000000000D+00  6 -4 21 25 -24 -3 21 2 0.40217882D-01 0.11575375D-01 0.16818172D+05 0.16818172D+05 0.16818172D+05 0.12421976D+01  1  2  2  1  6  1       -4 0.157836306392D-02 0.100000000000D+01
-.139376341502D-07 0.352722327424D-07 -.134929920966D-08 0.592494247896D-06 0.000000000000D+00  6 -4 21 25 -24 -3 21 4 0.40217882D-01 0.11575375D-01 0.16818172D+05 0.16818172D+05 0.16818172D+05 0.12421976D+01  1  2  3  1  6  1       -4 -.507859291501D-04 0.100000000000D+01
0.732014638062D-07 0.000000000000D+00 0.000000000000D+00 0.592494247896D-06 0.000000000000D+00  6 -4 21 25 -24 -3 21 4 0.40217882D-01 0.11575375D-01 0.16818172D+05 0.16818172D+05 0.16818172D+05 0.12421976D+01  1  2 15  1  6  1       -4 0.266731377397D-03 0.100000000000D+01
-.514851789551D-05 0.000000000000D+00 -.387882062650D-06 0.592494247896D-06 0.000000000000D+00  6 -4 21 25 -24 -3 21 4 0.10069751D+00 0.11575375D-01 0.16818172D+05 0.16818172D+05 0.16818172D+05 0.12421976D+01  1  2  5  1  6  1       -4 -.266705256603D-02 0.100000000000D+01
-.496324400630D-06 0.000000000000D+00 -.391969030030D-07 0.592494247896D-06 0.000000000000D+00  6 21 21 25 -24 4 -3 4 0.10069751D+00 0.11575375D-01 0.16818172D+05 0.16818172D+05 0.16818172D+05 0.12421976D+01  3  4  5  4  5  1       -4 -.617313785726D-02 0.100000000000D+01
  </mgrwgt>
  </event>
  <event>
  5     66 0.49224707E-03 0.44377592E+02 0.75467711E-02 0.10216947E+00
       -4 -1    0    0    0  501 0.00000000E+00 0.00000000E+00 0.23037822E+02 0.23089905E+02 0.15500000E+01 0.0000E+00 0.9000E+01
       21 -1    0    0  501  502 0.00000000E+00 0.00000000E+00 -.25117830E+04 0.25117831E+04 0.75000000E+00 0.0000E+00 0.9000E+01
       25  1    1    2    0    0 0.18335348E+02 -.24433482E+02 -.18525253E+03 0.22555859E+03 0.12500000E+03 0.0000E+00 0.9000E+01
      -24  1    1    2    0    0 -.55588136E+02 0.48549223E+02 -.12074427E+04 0.12123663E+04 0.80419002E+02 0.0000E+00 0.9000E+01
       -3  1    1    2    0  502 0.37252788E+02 -.24115741E+02 -.10960500E+04 0.10969481E+04 0.50000000E+00 0.0000E+00 0.9000E+01
#aMCatNLO 1  0  0  1  2 0.18027305D+02 0.00000000D+00  -5  6  0 0.00000000D+00 0.00000000D+00 0.00000000D+00 0.00000000D+00 0.00000000D+00
  <mgrwgt>
 0.5699784000D-02    5    4    0
 0.240691010699662D+03 0.000000000000000D+00 0.000000000000000D+00 0.240691010699662D+03
 0.240691010699662D+03 0.000000000000000D+00 0.000000000000000D+00 -.240691010699662D+03
 0.229996631866720D+03 0.183351637033249D+02 -.244333628159255D+02 0.190631275564932D+03
 0.141628636421529D+03 -.555882500761039D+02 0.485492966273247D+02 -.902461464591124D+02
 0.109756753111076D+03 0.372530863727790D+02 -.241159338113992D+02 -.100385129105820D+03
 0.000000000000000D+00 0.000000000000000D+00 0.000000000000000D+00 0.000000000000000D+00
 0.134271402787381D+04 0.000000000000000D+00 0.000000000000000D+00 0.134271402787381D+04
 0.365730306377344D+03 0.000000000000000D+00 0.000000000000000D+00 -.365730306377344D+03
 0.319066223982243D+03 -.753057752369477D+02 -.210159492478298D+03 0.190631275564932D+03
 0.172878585382831D+03 -.109226465153902D+03 -.578359895641296D+02 -.902461464591124D+02
 0.150749089893528D+03 -.717536381014280D+01 -.112234701016785D+03 -.100385129105820D+03
 0.106575043499255D+04 0.191707604200993D+03 0.380230183059213D+03 0.976983721496465D+03
 0.240691010699662D+03 0.000000000000000D+00 0.000000000000000D+00 0.240691010699662D+03
 0.240691010699662D+03 0.000000000000000D+00 0.000000000000000D+00 -.240691010699662D+03
 0.229996631866720D+03 0.183351637033249D+02 -.244333628159255D+02 0.190631275564932D+03
 0.141628636421529D+03 -.555882500761039D+02 0.485492966273247D+02 -.902461464591124D+02
 0.000000000000000D+00 0.000000000000000D+00 0.000000000000000D+00 0.000000000000000D+00
 0.109756753111076D+03 0.372530863727790D+02 -.241159338113992D+02 -.100385129105820D+03
 0.134271402787381D+04 0.000000000000000D+00 0.000000000000000D+00 0.134271402787381D+04
 0.365730306377344D+03 0.000000000000000D+00 0.000000000000000D+00 -.365730306377344D+03
 0.319066223982243D+03 -.753057752369477D+02 -.210159492478298D+03 0.190631275564932D+03
 0.172878585382831D+03 -.109226465153902D+03 -.578359895641296D+02 -.902461464591124D+02
 0.106575043499255D+04 0.191707604200993D+03 0.380230183059213D+03 0.976983721496465D+03
 0.150749089893528D+03 -.717536381014280D+01 -.112234701016785D+03 -.100385129105820D+03
0.143018123427D-03 0.000000000000D+00 0.000000000000D+00 0.392741006079D-06 0.000000000000D+00  6 -4 21 25 -24 -3 21 2 0.35482953D-02 0.38643217D+00 0.19910451D+05 0.19910451D+05 0.19910451D+05 0.12340407D+01  1  2  2  1  6  1       -4 0.421758982542D-02 0.100000000000D+01
0.463897642476D-05 0.754727372288D-05 -.288712385851D-06 0.392741006079D-06 0.000000000000D+00  6 -4 21 25 -24 -3 21 4 0.35482953D-02 0.38643217D+00 0.19910451D+05 0.19910451D+05 0.19910451D+05 0.12340407D+01  1  2  3  1  6  1       -4 0.208331225677D-03 0.100000000000D+01
0.125687288965D-04 0.000000000000D+00 0.000000000000D+00 0.392741006079D-06 0.000000000000D+00  6 -4 21 25 -24 -3 21 4 0.35482953D-02 0.38643217D+00 0.19910451D+05 0.19910451D+05 0.19910451D+05 0.12340407D+01  1  2 15  1  6  1       -4 0.564447510928D-03 0.100000000000D+01
0.223996670465D-03 0.000000000000D+00 -.207465239829D-03 0.392741006079D-06 0.000000000000D+00  6 -4 21 25 -24 -3 21 4 0.36995043D-01 0.38643217D+00 0.19910451D+05 0.19910451D+05 0.19910451D+05 0.12340407D+01  1  2  5  1  6  1       -4 0.176554336334D-03 0.100000000000D+01
0.276278504803D-04 0.000000000000D+00 -.576091267930D-04 0.392741006079D-06 0.000000000000D+00  6 21 21 25 -24 4 -3 4 0.36995043D-01 0.38643217D+00 0.19910451D+05 0.19910451D+05 0.19910451D+05 0.12340407D+01  3  4  5  4  5  1       -4 0.532861102103D-03 0.100000000000D+01
  </mgrwgt>
  </event>
  <event>
  6     66 0.49224707E-03 0.24235050E+02 0.75467711E-02 0.12001469E+00
       -4 -1    0    0    0  501 0.00000000E+00 0.00000000E+00 0.16134559E+03 0.16135304E+03 0.15500000E+01 0.0000E+00 0.9000E+01
       21 -1    0    0  503  502 0.00000000E+00 0.00000000E+00 -.73106479E+03 0.73106517E+03 0.75000000E+00 0.0000E+00 0.9000E+01
       25  1    1    2    0    0 -.12143602E+02 0.65984606E+02 0.43328079E+02 0.14833664E+03 0.12500000E+03 0.0000E+00 0.9000E+01
      -24  1    1    2    0    0 0.10694874E+02 -.53984277E+02 0.26543984E+02 0.10099743E+03 0.80419002E+02 0.0000E+00 0.9000E+01
       -3  1    1    2    0  502 -.80059694E+01 0.23318376E+02 -.13991650E+03 0.14207293E+03 0.50000000E+00 0.0000E+00 0.9000E+01
       21  1    1    2  503  501 0.94546970E+01 -.35318704E+02 -.49967476E+03 0.50101121E+03 0.75000000E+00 0.0000E+00 0.9000E+01
#aMCatNLO 2  0  0  2  1 0.49143613D+01 0.00000000D+00  -5  6  0 0.00000000D+00 0.00000000D+00 0.00000000D+00 0.00000000D+00 0.00000000D+00
  <mgrwgt>
 0.7313940103D-01    1    2    0
 0.191674475490489D+03 0.000000000000000D+00 0.000000000000000D+00 0.191674475490489D+03
 0.191674475490489D+03 0.000000000000000D+00 0.000000000000000D+00 -.191674475490489D+03
 0.152992863144148D+03 -.830917741846679D+01 0.516608599971793D+02 0.710206257929648D+02
 0.113208054203666D+03 0.134102197993195D+02 -.641276289005614D+02 0.453504222553153D+02
 0.117148033633163D+03 -.510104238085269D+01 0.124667689033822D+02 -.116371048048280D+03
 0.000000000000000D+00 0.000000000000000D+00 -.000000000000000D+00 -.000000000000000D+00
 0.193344691496595D+03 0.000000000000000D+00 0.000000000000000D+00 0.193344691496595D+03
 0.610087438193436D+03 0.000000000000000D+00 0.000000000000000D+00 -.610087438193436D+03
 0.158651695393008D+03 -.121435878082862D+02 0.659845772752540D+02 0.710206257929648D+02
 0.107482843687923D+03 0.106948844962223D+02 -.539842975294581D+02 0.453504222553153D+02
 0.118954048645065D+03 -.800599371898973D+01 0.233184246845463D+02 -.116371048048280D+03
 0.418343541964035D+03 0.945469703105369D+01 -.353187044303423D+02 -.416742746696841D+03
0.809485934182D-03 0.000000000000D+00 0.000000000000D+00 0.162692957769D-04 0.868905682114D-06  6 -4 21 25 -24 -3 21 4 0.24822958D-01 0.11247191D+00 0.22579778D+05 0.22579778D+05 0.22579778D+05 0.12280672D+01  1  2  1  2  6  2       21 0.731394010303D-01 0.100000000000D+01
  </mgrwgt>
  </event>
  <event>
  5     66 0.49224707E-03 0.37995419E+02 0.75467711E-02 0.12105213E+00
       -2 -1    0    0    0  501 0.00000000E+00 0.00000000E+00 0.85408056E+02 0.85408655E+02 0.32000000E+00 0.0000E+00 0.9000E+01
       21 -1    0    0  501  502 0.00000000E+00 0.00000000E+00 -.32502716E+03 0.32502803E+03 0.75000000E+00 0.0000E+00 0.9000E+01
       25  1    1    2    0    0 0.23199823E+02 0.12918813E+02 -.23184225E+02 0.12987546E+03 0.12500000E+03 0.0000E+00 0.9000E+01
      -24  1    1    2    0    0 -.20911238E+02 0.25007480E+02 -.32370609E+02 0.92616015E+02 0.80419002E+02 0.0000E+00 0.9000E+01
       -1  1    1    2    0  502 -.22885842E+01 -.37926292E+02 -.18406427E+03 0.18794520E+03 0.32000000E+00 0.0000E+00 0.9000E+01
#aMCatNLO 1  0  0  2  1 0.28278306D+02 0.00000000D+00  -5  6  0 0.00000000D+00 0.00000000D+00 0.00000000D+00 0.00000000D+00 0.00000000D+00
  <mgrwgt>
 0.4316932168D-01   23    4    0
 0.166614040304457D+03 0.000000000000000D+00 0.000000000000000D+00 0.166614040304457D+03
 0.166614040304457D+03 0.000000000000000D+00 0.000000000000000D+00 -.166614040304457D+03
 0.143296159976598D+03 0.231998276665765D+02 0.129188977338777D+02 0.648356348131301D+02
 0.907979027023473D+02 -.209112350790888D+02 0.250075334186506D+02 0.267280134046015D+02
 0.991340179299693D+02 -.228859258748775D+01 -.379264311525282D+02 -.915636482177316D+02
 0.000000000000000D+00 0.000000000000000D+00 0.000000000000000D+00 -.000000000000000D+00
 0.174016965941447D+03 0.000000000000000D+00 0.000000000000000D+00 0.174016965941447D+03
 0.196594692858507D+03 0.000000000000000D+00 0.000000000000000D+00 -.196594692858507D+03
 0.141598099732854D+03 0.117404828909804D+02 0.913911198204565D+01 0.648356348131301D+02
 0.921447530987756D+02 -.282697651145001D+02 0.225803730943092D+02 0.267280134046015D+02
 0.100682948011585D+03 -.103258605446345D+02 -.405774684939279D+02 -.915636482177316D+02
 0.361858579567393D+02 0.268551427681543D+02 0.885798341757309D+01 -.225777269170605D+02
 0.166614040304457D+03 0.000000000000000D+00 0.000000000000000D+00 0.166614040304457D+03
 0.166614040304457D+03 0.000000000000000D+00 0.000000000000000D+00 -.166614040304457D+03
 0.143296159976598D+03 0.231998276665765D+02 0.129188977338777D+02 0.648356348131301D+02
 0.907979027023473D+02 -.209112350790888D+02 0.250075334186506D+02 0.267280134046015D+02
 0.000000000000000D+00 0.000000000000000D+00 0.000000000000000D+00 -.000000000000000D+00
 0.991340179299693D+02 -.228859258748775D+01 -.379264311525282D+02 -.915636482177316D+02
 0.174016965941447D+03 0.000000000000000D+00 0.000000000000000D+00 0.174016965941447D+03
 0.196594692858507D+03 0.000000000000000D+00 0.000000000000000D+00 -.196594692858507D+03
 0.141598099732854D+03 0.117404828909804D+02 0.913911198204565D+01 0.648356348131301D+02
 0.921447530987756D+02 -.282697651145001D+02 0.225803730943092D+02 0.267280134046015D+02
 0.361858579567393D+02 0.268551427681543D+02 0.885798341757309D+01 -.225777269170605D+02
 0.100682948011585D+03 -.103258605446345D+02 -.405774684939279D+02 -.915636482177316D+02
0.367660852397D-05 0.000000000000D+00 0.000000000000D+00 0.253742937421D-05 0.000000000000D+00  6 -2 21 25 -24 -1 21 2 0.13139814D-01 0.50004291D-01 0.15946595D+05 0.15946595D+05 0.15946595D+05 0.12448041D+01  1  2  2  2  6  2       21 0.731862046690D-02 0.100000000000D+01
0.281091201497D-06 0.194019962207D-06 -.742201333202D-08 0.253742937421D-05 0.000000000000D+00  6 -2 21 25 -24 -1 21 4 0.13139814D-01 0.50004291D-01 0.15946595D+05 0.15946595D+05 0.15946595D+05 0.12448041D+01  1  2  3  2  6  2       21 0.867023977383D-03 0.100000000000D+01
0.353292701354D-06 0.000000000000D+00 0.000000000000D+00 0.253742937421D-05 0.000000000000D+00  6 -2 21 25 -24 -1 21 4 0.13139814D-01 0.50004291D-01 0.15946595D+05 0.15946595D+05 0.15946595D+05 0.12448041D+01  1  2 15  2  6  2       21 0.108972903270D-02 0.100000000000D+01
0.970787673709D-05 0.000000000000D+00 0.000000000000D+00 0.249100295331D-05 0.000000000000D+00  6 -2 21 25 -24 -1 21 4 0.13139814D-01 0.59971807D-01 0.20194468D+05 0.20194468D+05 0.20194468D+05 0.12333637D+01  1  2 12  2  6  2       21 0.197048616762D-01 0.100000000000D+01
-.449009938232D-05 0.000000000000D+00 0.000000000000D+00 0.253742937421D-05 0.000000000000D+00  6 -2 21 25 -24 -1 21 4 0.13139814D-01 0.50004291D-01 0.15946595D+05 0.15946595D+05 0.15946595D+05 0.12448041D+01  1  2  4  2  6  2       21 -.138496822546D-01 0.100000000000D+01
-.341651580855D-04 0.000000000000D+00 -.767096728160D-05 0.253742937421D-05 0.000000000000D+00  6 -2 21 25 -24 -1 21 4 0.13139814D-01 0.61040257D-01 0.15946595D+05 0.15946595D+05 0.15946595D+05 0.12448041D+01  1  2  5  2  6  2       21 -.694060878644D-01 0.100000000000D+01
0.325198727722D-04 0.000000000000D+00 0.709357429389D-05 0.253742937421D-05 0.000000000000D+00  6 -2 21 25 -24 -1 21 4 0.13139814D-01 0.50004291D-01 0.15946595D+05 0.15946595D+05 0.15946595D+05 0.12448041D+01  1  2  6  2  6  2       21 0.100307335430D+00 0.100000000000D+01
0.496541402916D-06 0.000000000000D+00 0.000000000000D+00 0.249100295331D-05 0.000000000000D+00  6 -2 -1 25 -24 -1 -1 4 0.13139814D-01 0.59971807D-01 0.20194468D+05 0.20194468D+05 0.20194468D+05 0.12333637D+01  1  2 12  5  6  2       21 0.103365035583D-03 0.100000000000D+01
-.187279323975D-05 0.000000000000D+00 -.438564884430D-06 0.253742937421D-05 0.000000000000D+00  6 -2 -1 25 -24 -1 -1 4 0.13139814D-01 0.61040257D-01 0.15946595D+05 0.15946595D+05 0.15946595D+05 0.12448041D+01  1  2  5  5  6  2       21 -.389603924926D-03 0.100000000000D+01
0.496541402916D-06 0.000000000000D+00 0.000000000000D+00 0.249100295331D-05 0.000000000000D+00  6 -2 1 25 -24 1 -1 4 0.13139814D-01 0.59971807D-01 0.20194468D+05 0.20194468D+05 0.20194468D+05 0.12333637D+01  3  4 12  6  5  2       21 0.263234623647D-03 0.100000000000D+01
-.187279323975D-05 0.000000000000D+00 -.438564884430D-06 0.253742937421D-05 0.000000000000D+00  6 -2 1 25 -24 1 -1 4 0.13139814D-01 0.61040257D-01 0.15946595D+05 0.15946595D+05 0.15946595D+05 0.12448041D+01  3  4  5  6  5  2       21 -.100310392616D-02 0.100000000000D+01
0.496541402916D-06 0.000000000000D+00 0.000000000000D+00 0.249100295331D-05 0.000000000000D+00  6 -2 -2 25 -24 -1 -2 4 0.13139814D-01 0.59971807D-01 0.20194468D+05 0.20194468D+05 0.20194468D+05 0.12333637D+01  1  2 12  7  6  2       21 0.822555158831D-04 0.100000000000D+01
-.187279323975D-05 0.000000000000D+00 -.438564884430D-06 0.253742937421D-05 0.000000000000D+00  6 -2 -2 25 -24 -1 -2 4 0.13139814D-01 0.61040257D-01 0.15946595D+05 0.15946595D+05 0.15946595D+05 0.12448041D+01  1  2  5  7  6  2       21 -.308901347385D-03 0.100000000000D+01
0.496541402916D-06 0.000000000000D+00 0.000000000000D+00 0.249100295331D-05 0.000000000000D+00  6 -2 2 25 -24 2 -1 4 0.13139814D-01 0.59971807D-01 0.20194468D+05 0.20194468D+05 0.20194468D+05 0.12333637D+01  3  4 12  8  5  2       21 0.390383421136D-03 0.100000000000D+01
-.187279323975D-05 0.000000000000D+00 -.438564884430D-06 0.253742937421D-05 0.000000000000D+00  6 -2 2 25 -24 2 -1 4 0.13139814D-01 0.61040257D-01 0.15946595D+05 0.15946595D+05 0.15946595D+05 0.12448041D+01  3  4  5  8  5  2       21 -.149130902228D-02 0.100000000000D+01
0.496541402916D-06 0.000000000000D+00 0.000000000000D+00 0.249100295331D-05 0.000000000000D+00  6 -2 -3 25 -24 -1 -3 4 0.13139814D-01 0.59971807D-01 0.20194468D+05 0.20194468D+05 0.20194468D+05 0.12333637D+01  1  2 12  9  6  2       21 0.513161125885D-04 0.100000000000D+01
0.496541402916D-06 0.000000000000D+00 0.000000000000D+00 0.249100295331D-05 0.000000000000D+00  6 -2 -4 25 -24 -1 -4 4 0.13139814D-01 0.59971807D-01 0.20194468D+05 0.20194468D+05 0.20194468D+05 0.12333637D+01  1  2 12  9  6  2       21 0.418449165890D-04 0.100000000000D+01
-.187279323975D-05 0.000000000000D+00 -.438564884430D-06 0.253742937421D-05 0.000000000000D+00  6 -2 -3 25 -24 -1 -3 4 0.13139814D-01 0.61040257D-01 0.15946595D+05 0.15946595D+05 0.15946595D+05 0.12448041D+01  1  2  5  9  6  2       21 -.191719141409D-03 0.100000000000D+01
-.187279323975D-05 0.000000000000D+00 -.438564884430D-06 0.253742937421D-05 0.000000000000D+00  6 -2 -4 25 -24 -1 -4 4 0.13139814D-01 0.61040257D-01 0.15946595D+05 0.15946595D+05 0.15946595D+05 0.12448041D+01  1  2  5  9  6  2       21 -.155791923498D-03 0.100000000000D+01
0.496541402916D-06 0.000000000000D+00 0.000000000000D+00 0.249100295331D-05 0.000000000000D+00  6 -2 3 25 -24 3 -1 4 0.13139814D-01 0.59971807D-01 0.20194468D+05 0.20194468D+05 0.20194468D+05 0.12333637D+01  3  4 12 10  5  2       21 0.513505512573D-04 0.100000000000D+01
0.496541402916D-06 0.000000000000D+00 0.000000000000D+00 0.249100295331D-05 0.000000000000D+00  6 -2 4 25 -24 4 -1 4 0.13139814D-01 0.59971807D-01 0.20194468D+05 0.20194468D+05 0.20194468D+05 0.12333637D+01  3  4 12 10  5  2       21 0.418449165890D-04 0.100000000000D+01
-.187279323975D-05 0.000000000000D+00 -.438564884430D-06 0.253742937421D-05 0.000000000000D+00  6 -2 3 25 -24 3 -1 4 0.13139814D-01 0.61040257D-01 0.15946595D+05 0.15946595D+05 0.15946595D+05 0.12448041D+01  3  4  5 10  5  2       21 -.191852671132D-03 0.100000000000D+01
-.187279323975D-05 0.000000000000D+00 -.438564884430D-06 0.253742937421D-05 0.000000000000D+00  6 -2 4 25 -24 4 -1 4 0.13139814D-01 0.61040257D-01 0.15946595D+05 0.15946595D+05 0.15946595D+05 0.12448041D+01  3  4  5 10  5  2       21 -.155791923498D-03 0.100000000000D+01
  </mgrwgt>
  </event>
  <event>
  5     66 0.49224707E-03 0.89233088E+02 0.75467711E-02 0.11269441E+00
       -2 -1    0    0    0  501 0.00000000E+00 0.00000000E+00 0.45493274E+03 0.45493285E+03 0.32000000E+00 0.0000E+00 0.9000E+01
       21 -1    0    0  501  502 0.00000000E+00 0.00000000E+00 -.92064909E+02 0.92067964E+02 0.75000000E+00 0.0000E+00 0.9000E+01
       25  1    1    2    0    0 0.61750784E+02 -.26641344E+02 0.10184230E+03 0.17469910E+03 0.12500000E+03 0.0000E+00 0.9000E+01
      -24  1    1    2    0    0 0.40214245E+02 0.10306380E+03 0.15327565E+03 0.20542632E+03 0.80419002E+02 0.0000E+00 0.9000E+01
       -1  1    1    2    0  502 -.10196503E+03 -.76422459E+02 0.10774988E+03 0.16687540E+03 0.32000000E+00 0.0000E+00 0.9000E+01
#aMCatNLO 1  0  0  2  5 0.50103652D+02 0.00000000D+00  -5  6  0 0.00000000D+00 0.00000000D+00 0.00000000D+00 0.00000000D+00 0.00000000D+00
  <mgrwgt>
 0.6202553596D-02   32    4    0
 0.204656315988266D+03 0.000000000000000D+00 0.000000000000000D+00 0.204656315988266D+03
 0.204656315988266D+03 0.000000000000000D+00 0.000000000000000D+00 -.204656315988266D+03
 0.143179718543310D+03 0.617508960280467D+02 -.266412593379522D+02 -.187750350935144D+02
 0.138646102325076D+03 0.402143535870801D+02 0.103063883709185D+03 0.227193172414513D+02
 0.127486811108146D+03 -.101965249615127D+03 -.764226243712329D+02 -.394428214793692D+01
 0.000000000000000D+00 0.000000000000000D+00 0.000000000000000D+00 -.000000000000000D+00
 0.210596381221092D+03 0.000000000000000D+00 0.000000000000000D+00 0.210596381221092D+03
 0.348415521935645D+03 0.000000000000000D+00 0.000000000000000D+00 -.348415521935645D+03
 0.145290331514469D+03 0.568829617498461D+02 -.435443125033235D+02 -.187750350935144D+02
 0.126195437249820D+03 0.357451506021260D+02 0.875453554497120D+02 0.227193172414513D+02
 0.140882036300059D+03 -.106493975946467D+03 -.921478370744640D+02 -.394428214793692D+01
 0.146644098092389D+03 0.138658635944946D+02 0.481467941280755D+02 -.137819140714553D+03
 0.204656315988266D+03 0.000000000000000D+00 0.000000000000000D+00 0.204656315988266D+03
 0.204656315988266D+03 0.000000000000000D+00 0.000000000000000D+00 -.204656315988266D+03
 0.143179718543310D+03 0.617508960280467D+02 -.266412593379522D+02 -.187750350935144D+02
 0.138646102325076D+03 0.402143535870801D+02 0.103063883709185D+03 0.227193172414513D+02
 0.000000000000000D+00 0.000000000000000D+00 0.000000000000000D+00 -.000000000000000D+00
 0.127486811108146D+03 -.101965249615127D+03 -.764226243712329D+02 -.394428214793692D+01
 0.210596381221092D+03 0.000000000000000D+00 0.000000000000000D+00 0.210596381221092D+03
 0.348415521935645D+03 0.000000000000000D+00 0.000000000000000D+00 -.348415521935645D+03
 0.145290331514469D+03 0.568829617498461D+02 -.435443125033235D+02 -.187750350935144D+02
 0.126195437249820D+03 0.357451506021260D+02 0.875453554497120D+02 0.227193172414513D+02
 0.146644098092389D+03 0.138658635944946D+02 0.481467941280755D+02 -.137819140714553D+03
 0.140882036300059D+03 -.106493975946467D+03 -.921478370744640D+02 -.394428214793692D+01
0.238349435722D-05 0.000000000000D+00 0.000000000000D+00 0.166688447493D-06 0.000000000000D+00  6 -2 21 25 -24 -1 21 2 0.69989896D-01 0.14164076D-01 0.41237661D+05 0.41237661D+05 0.41237661D+05 0.12006587D+01  1  2  2  2  6  2       21 0.232660298067D-02 0.100000000000D+01
-.208622447410D-06 0.125780452854D-06 -.481158839207D-08 0.166688447493D-06 0.000000000000D+00  6 -2 21 25 -24 -1 21 4 0.69989896D-01 0.14164076D-01 0.41237661D+05 0.41237661D+05 0.41237661D+05 0.12006587D+01  1  2  3  2  6  2       21 -.293567725282D-03 0.100000000000D+01
0.253327443527D-06 0.000000000000D+00 0.000000000000D+00 0.166688447493D-06 0.000000000000D+00  6 -2 21 25 -24 -1 21 4 0.69989896D-01 0.14164076D-01 0.41237661D+05 0.41237661D+05 0.41237661D+05 0.12006587D+01  1  2 15  2  6  2       21 0.356475356660D-03 0.100000000000D+01
0.169993591817D-04 0.000000000000D+00 0.000000000000D+00 0.163748993189D-06 0.000000000000D+00  6 -2 21 25 -24 -1 21 4 0.69989896D-01 0.24192050D-01 0.52701484D+05 0.52701484D+05 0.52701484D+05 0.11900251D+01  1  2 12  2  6  2       21 0.849244652813D-02 0.100000000000D+01
0.163833095892D-04 0.000000000000D+00 0.000000000000D+00 0.163748993189D-06 0.000000000000D+00  6 -2 21 25 -24 -1 21 4 0.69989896D-01 0.24767168D-01 0.52701484D+05 0.52701484D+05 0.52701484D+05 0.11900251D+01  1  2 12  2  6  2       21 0.782496586414D-02 0.100000000000D+01
-.176255588507D-04 0.000000000000D+00 0.000000000000D+00 0.166688447493D-06 0.000000000000D+00  6 -2 21 25 -24 -1 21 4 0.69989896D-01 0.14164076D-01 0.41237661D+05 0.41237661D+05 0.41237661D+05 0.12006587D+01  1  2  4  2  6  2       21 -.248021978597D-01 0.100000000000D+01
-.385717701173D-04 0.000000000000D+00 -.350498211323D-05 0.166688447493D-06 0.000000000000D+00  6 -2 21 25 -24 -1 21 4 0.69989896D-01 0.24618083D-01 0.41237661D+05 0.41237661D+05 0.41237661D+05 0.12006587D+01  1  2  5  2  6  2       21 -.194220202785D-01 0.100000000000D+01
0.228496625744D-04 0.000000000000D+00 0.203179685039D-05 0.166688447493D-06 0.000000000000D+00  6 -2 21 25 -24 -1 21 4 0.69989896D-01 0.14164076D-01 0.41237661D+05 0.41237661D+05 0.41237661D+05 0.12006587D+01  1  2  6  2  6  2       21 0.321534118149D-01 0.100000000000D+01
0.319954236467D-05 0.000000000000D+00 0.000000000000D+00 0.163748993189D-06 0.000000000000D+00  6 -2 -1 25 -24 -1 -1 4 0.69989896D-01 0.24192050D-01 0.52701484D+05 0.52701484D+05 0.52701484D+05 0.11900251D+01  1  2 12  5  6  2       21 0.133844690068D-03 0.100000000000D+01
0.323411170436D-05 0.000000000000D+00 0.000000000000D+00 0.163748993189D-06 0.000000000000D+00  6 -2 -1 25 -24 -1 -1 4 0.69989896D-01 0.24767168D-01 0.52701484D+05 0.52701484D+05 0.52701484D+05 0.11900251D+01  1  2 12  5  6  2       21 0.130116364476D-03 0.100000000000D+01
-.760401840735D-05 0.000000000000D+00 -.683644098196D-06 0.166688447493D-06 0.000000000000D+00  6 -2 -1 25 -24 -1 -1 4 0.69989896D-01 0.24618083D-01 0.41237661D+05 0.41237661D+05 0.41237661D+05 0.12006587D+01  1  2  5  5  6  2       21 -.320102892402D-03 0.100000000000D+01
0.319954236467D-05 0.000000000000D+00 0.000000000000D+00 0.163748993189D-06 0.000000000000D+00  6 -2 1 25 -24 1 -1 4 0.69989896D-01 0.24192050D-01 0.52701484D+05 0.52701484D+05 0.52701484D+05 0.11900251D+01  3  4 12  6  5  2       21 0.215416725996D-03 0.100000000000D+01
0.323411170436D-05 0.000000000000D+00 0.000000000000D+00 0.163748993189D-06 0.000000000000D+00  6 -2 1 25 -24 1 -1 4 0.69989896D-01 0.24767168D-01 0.52701484D+05 0.52701484D+05 0.52701484D+05 0.11900251D+01  3  4 12  6  5  2       21 0.211316873758D-03 0.100000000000D+01
-.760401840735D-05 0.000000000000D+00 -.683644098196D-06 0.166688447493D-06 0.000000000000D+00  6 -2 1 25 -24 1 -1 4 0.69989896D-01 0.24618083D-01 0.41237661D+05 0.41237661D+05 0.41237661D+05 0.12006587D+01  3  4  5  6  5  2       21 -.518663014194D-03 0.100000000000D+01
0.319954236467D-05 0.000000000000D+00 0.000000000000D+00 0.163748993189D-06 0.000000000000D+00  6 -2 -2 25 -24 -1 -2 4 0.69989896D-01 0.24192050D-01 0.52701484D+05 0.52701484D+05 0.52701484D+05 0.11900251D+01  1  2 12  7  6  2       21 0.120383193504D-03 0.100000000000D+01
0.323411170436D-05 0.000000000000D+00 0.000000000000D+00 0.163748993189D-06 0.000000000000D+00  6 -2 -2 25 -24 -1 -2 4 0.69989896D-01 0.24767168D-01 0.52701484D+05 0.52701484D+05 0.52701484D+05 0.11900251D+01  1  2 12  7  6  2       21 0.116754183195D-03 0.100000000000D+01
-.760401840735D-05 0.000000000000D+00 -.683644098196D-06 0.166688447493D-06 0.000000000000D+00  6 -2 -2 25 -24 -1 -2 4 0.69989896D-01 0.24618083D-01 0.41237661D+05 0.41237661D+05 0.41237661D+05 0.12006587D+01  1  2  5  7  6  2       21 -.287323682261D-03 0.100000000000D+01
0.319954236467D-05 0.000000000000D+00 0.000000000000D+00 0.163748993189D-06 0.000000000000D+00  6 -2 2 25 -24 2 -1 4 0.69989896D-01 0.24192050D-01 0.52701484D+05 0.52701484D+05 0.52701484D+05 0.11900251D+01  3  4 12  8  5  2       21 0.274019831004D-03 0.100000000000D+01
0.323411170436D-05 0.000000000000D+00 0.000000000000D+00 0.163748993189D-06 0.000000000000D+00  6 -2 2 25 -24 2 -1 4 0.69989896D-01 0.24767168D-01 0.52701484D+05 0.52701484D+05 0.52701484D+05 0.11900251D+01  3  4 12  8  5  2       21 0.269773652181D-03 0.100000000000D+01
-.760401840735D-05 0.000000000000D+00 -.683644098196D-06 0.166688447493D-06 0.000000000000D+00  6 -2 2 25 -24 2 -1 4 0.69989896D-01 0.24618083D-01 0.41237661D+05 0.41237661D+05 0.41237661D+05 0.12006587D+01  3  4  5  8  5  2       21 -.661256415932D-03 0.100000000000D+01
0.319954236467D-05 0.000000000000D+00 0.000000000000D+00 0.163748993189D-06 0.000000000000D+00  6 -2 -3 25 -24 -1 -3 4 0.69989896D-01 0.24192050D-01 0.52701484D+05 0.52701484D+05 0.52701484D+05 0.11900251D+01  1  2 12  9  6  2       21 0.791831896420D-04 0.100000000000D+01
0.319954236467D-05 0.000000000000D+00 0.000000000000D+00 0.163748993189D-06 0.000000000000D+00  6 -2 -4 25 -24 -1 -4 4 0.69989896D-01 0.24192050D-01 0.52701484D+05 0.52701484D+05 0.52701484D+05 0.11900251D+01  1  2 12  9  6  2       21 0.676584235105D-04 0.100000000000D+01
0.323411170436D-05 0.000000000000D+00 0.000000000000D+00 0.163748993189D-06 0.000000000000D+00  6 -2 -3 25 -24 -1 -3 4 0.69989896D-01 0.24767168D-01 0.52701484D+05 0.52701484D+05 0.52701484D+05 0.11900251D+01  1  2 12  9  6  2       21 0.766847919197D-04 0.100000000000D+01
0.323411170436D-05 0.000000000000D+00 0.000000000000D+00 0.163748993189D-06 0.000000000000D+00  6 -2 -4 25 -24 -1 -4 4 0.69989896D-01 0.24767168D-01 0.52701484D+05 0.52701484D+05 0.52701484D+05 0.11900251D+01  1  2 12  9  6  2       21 0.654638626846D-04 0.100000000000D+01
-.760401840735D-05 0.000000000000D+00 -.683644098196D-06 0.166688447493D-06 0.000000000000D+00  6 -2 -3 25 -24 -1 -3 4 0.69989896D-01 0.24618083D-01 0.41237661D+05 0.41237661D+05 0.41237661D+05 0.12006587D+01  1  2  5  9  6  2       21 -.187866078191D-03 0.100000000000D+01
-.760401840735D-05 0.000000000000D+00 -.683644098196D-06 0.166688447493D-06 0.000000000000D+00  6 -2 -4 25 -24 -1 -4 4 0.69989896D-01 0.24618083D-01 0.41237661D+05 0.41237661D+05 0.41237661D+05 0.12006587D+01  1  2  5  9  6  2       21 -.160046263336D-03 0.100000000000D+01
0.319954236467D-05 0.000000000000D+00 0.000000000000D+00 0.163748993189D-06 0.000000000000D+00  6 -2 3 25 -24 3 -1 4 0.69989896D-01 0.24192050D-01 0.52701484D+05 0.52701484D+05 0.52701484D+05 0.11900251D+01  3  4 12 10  5  2       21 0.791802146719D-04 0.100000000000D+01
0.319954236467D-05 0.000000000000D+00 0.000000000000D+00 0.163748993189D-06 0.000000000000D+00  6 -2 4 25 -24 4 -1 4 0.69989896D-01 0.24192050D-01 0.52701484D+05 0.52701484D+05 0.52701484D+05 0.11900251D+01  3  4 12 10  5  2       21 0.676584235105D-04 0.100000000000D+01
0.323411170436D-05 0.000000000000D+00 0.000000000000D+00 0.163748993189D-06 0.000000000000D+00  6 -2 3 25 -24 3 -1 4 0.69989896D-01 0.24767168D-01 0.52701484D+05 0.52701484D+05 0.52701484D+05 0.11900251D+01  3  4 12 10  5  2       21 0.766824080500D-04 0.100000000000D+01
0.323411170436D-05 0.000000000000D+00 0.000000000000D+00 0.163748993189D-06 0.000000000000D+00  6 -2 4 25 -24 4 -1 4 0.69989896D-01 0.24767168D-01 0.52701484D+05 0.52701484D+05 0.52701484D+05 0.11900251D+01  3  4 12 10  5  2       21 0.654638626846D-04 0.100000000000D+01
-.760401840735D-05 0.000000000000D+00 -.683644098196D-06 0.166688447493D-06 0.000000000000D+00  6 -2 3 25 -24 3 -1 4 0.69989896D-01 0.24618083D-01 0.41237661D+05 0.41237661D+05 0.41237661D+05 0.12006587D+01  3  4  5 10  5  2       21 -.187859165934D-03 0.100000000000D+01
-.760401840735D-05 0.000000000000D+00 -.683644098196D-06 0.166688447493D-06 0.000000000000D+00  6 -2 4 25 -24 4 -1 4 0.69989896D-01 0.24618083D-01 0.41237661D+05 0.41237661D+05 0.41237661D+05 0.12006587D+01  3  4  5 10  5  2       21 -.160046263336D-03 0.100000000000D+01
  </mgrwgt>
  </event>
  <event>
  6     66 0.49224707E-03 0.51831104E+02 0.75467711E-02 0.11358402E+00
       -4 -1    0    0    0  501 0.00000000E+00 0.00000000E+00 0.71806442E+02 0.71823169E+02 0.15500000E+01 0.0000E+00 0.9000E+01
        2 -1    0    0  501    0 0.00000000E+00 0.00000000E+00 -.73073799E+03 0.73073806E+03 0.32000000E+00 0.0000E+00 0.9000E+01
       25  1    1    2    0    0 0.58355096E+02 0.30268791E+02 -.13570554E+03 0.19586350E+03 0.12500000E+03 0.0000E+00 0.9000E+01
      -24  1    1    2    0    0 -.24128747E+02 -.38863041E+02 -.15242216E+03 0.17830385E+03 0.80419002E+02 0.0000E+00 0.9000E+01
        2  1    1    2  502    0 -.35385949E+02 -.92965032E+02 -.25847622E+03 0.27695618E+03 0.32000000E+00 0.0000E+00 0.9000E+01
       -3  1    1    2    0  502 0.11595997E+01 0.10155928E+03 -.11232763E+03 0.15143770E+03 0.50000000E+00 0.0000E+00 0.9000E+01
#aMCatNLO 2  0  0  2  5 0.45814658D+01 0.00000000D+00  -5  6  0 0.00000000D+00 0.00000000D+00 0.00000000D+00 0.00000000D+00 0.00000000D+00
  <mgrwgt>
 0.9133243078D-03    1    2    0
 0.162789390223728D+03 0.000000000000000D+00 0.000000000000000D+00 0.162789390223728D+03
 0.162789390223728D+03 0.000000000000000D+00 0.000000000000000D+00 -.162789390223728D+03
 0.134296125301190D+03 0.436345638109004D+02 -.840545641506900D+01 0.208763601808296D+02
 0.114092103014710D+03 -.352906435298947D+02 -.681880058445772D+02 -.255882464060051D+02
 0.000000000000000D+00 -.000000000000000D+00 -.000000000000000D+00 -.000000000000000D+00
 0.771905521315570D+02 -.834392028100572D+01 0.765934622596462D+02 0.471188622517548D+01
 0.195352272049824D+03 0.000000000000000D+00 0.000000000000000D+00 0.195352272049824D+03
 0.268634355608636D+03 0.000000000000000D+00 0.000000000000000D+00 -.268634355608636D+03
 0.142766616507697D+03 0.583551652843517D+02 0.302681195202496D+02 0.208763601808296D+02
 0.959923988322831D+02 -.241286583158331D+02 -.388635326874554D+02 -.255882464060051D+02
 0.123551310861629D+03 -.353859491796857D+02 -.929650323807756D+02 -.732820835588127D+02
 0.101676301456851D+03 0.115944221116710D+01 0.101560445547981D+03 0.471188622517548D+01
0.328432943962D-05 0.000000000000D+00 0.000000000000D+00 0.233784150183D-06 0.105504337532D-09  6 -4 2 25 -24 2 -3 4 0.11048426D-01 0.11242241D+00 0.47260607D+05 0.47260607D+05 0.47260607D+05 0.11947129D+01  1  2  1 10  5  2       21 0.913324307813D-03 0.100000000000D+01
  </mgrwgt>
  </event>
  <event>
  5     66 0.49224707E-03 0.13024879E+03 0.75467711E-02 0.11052636E+00
       -4 -1    0    0    0  501 0.00000000E+00 0.00000000E+00 0.21388825E+04 0.21388830E+04 0.15500000E+01 0.0000E+00 0.9000E+01
       21 -1    0    0  501  502 0.00000000E+00 0.00000000E+00 -.34102119E+02 0.34110366E+02 0.75000000E+00 0.0000E+00 0.9000E+01
       25  1    1    2    0    0 -.48700282E+02 0.24119593E+02 0.91121864E+03 0.92135654E+03 0.12500000E+03 0.0000E+00 0.9000E+01
      -24  1    1    2    0    0 0.27049034E+02 0.13920945E+03 0.90313183E+03 0.91772830E+03 0.80419002E+02 0.0000E+00 0.9000E+01
       -3  1    1    2    0  502 0.21651248E+02 -.16332904E+03 0.29042987E+03 0.33390854E+03 0.50000000E+00 0.0000E+00 0.9000E+01
#aMCatNLO 1  0  0  2  1 0.59006199D+02 0.00000000D+00  -5  6  0 0.00000000D+00 0.00000000D+00 0.00000000D+00 0.00000000D+00 0.00000000D+00
  <mgrwgt>
 0.3599892037D-02   23    4    0
 0.270092566874156D+03 0.000000000000000D+00 0.000000000000000D+00 0.270092566874156D+03
 0.270092566874156D+03 0.000000000000000D+00 0.000000000000000D+00 -.270092566874156D+03
 0.155847756004862D+03 -.487002998004602D+02 0.241197249403021D+02 0.755648246203246D+02
 0.172762062010874D+03 0.270490147226434D+02 0.139209595760350D+03 0.571712634690955D+02
 0.211575315732577D+03 0.216512850778168D+02 -.163329320700652D+03 -.132736088089420D+03
 0.000000000000000D+00 -.000000000000000D+00 -.000000000000000D+00 -.000000000000000D+00
 0.288862517792006D+03 0.000000000000000D+00 0.000000000000000D+00 0.288862517792006D+03
 0.322413719175209D+03 0.000000000000000D+00 0.000000000000000D+00 -.322413719175209D+03
 0.151945444314994D+03 -.321556607159364D+02 0.268027762013944D+02 0.755648246203246D+02
 0.179140461212034D+03 0.459646380489741D+02 0.142277150559265D+03 0.571712634690955D+02
 0.212312392421904D+03 0.444362885687773D+02 -.159634266850393D+03 -.132736088089420D+03
 0.678779390182837D+02 -.582452659018150D+02 -.944565991026671D+01 -.335512013832037D+02
 0.270092566874156D+03 0.000000000000000D+00 0.000000000000000D+00 0.270092566874156D+03
 0.270092566874156D+03 0.000000000000000D+00 0.000000000000000D+00 -.270092566874156D+03
 0.155847756004862D+03 -.487002998004602D+02 0.241197249403021D+02 0.755648246203246D+02
 0.172762062010874D+03 0.270490147226434D+02 0.139209595760350D+03 0.571712634690955D+02
 0.000000000000000D+00 -.000000000000000D+00 -.000000000000000D+00 -.000000000000000D+00
 0.211575315732577D+03 0.216512850778168D+02 -.163329320700652D+03 -.132736088089420D+03
 0.288862517792006D+03 0.000000000000000D+00 0.000000000000000D+00 0.288862517792006D+03
 0.322413719175209D+03 0.000000000000000D+00 0.000000000000000D+00 -.322413719175209D+03
 0.151945444314994D+03 -.321556607159364D+02 0.268027762013944D+02 0.755648246203246D+02
 0.179140461212034D+03 0.459646380489741D+02 0.142277150559265D+03 0.571712634690955D+02
 0.678779390182837D+02 -.582452659018150D+02 -.944565991026671D+01 -.335512013832037D+02
 0.212312392421904D+03 0.444362885687773D+02 -.159634266850393D+03 -.132736088089420D+03
0.280713417070D-04 0.000000000000D+00 0.000000000000D+00 0.280900134983D-06 0.000000000000D+00  6 -4 21 25 -24 -3 21 2 0.32905952D+00 0.52471574D-02 0.53844693D+05 0.53844693D+05 0.53844693D+05 0.11891086D+01  1  2  2  2  6  2       21 0.101951008025D-02 0.100000000000D+01
-.147580294674D-05 0.148136540010D-05 -.566679511945D-07 0.280900134983D-06 0.000000000000D+00  6 -4 21 25 -24 -3 21 4 0.32905952D+00 0.52471574D-02 0.53844693D+05 0.53844693D+05 0.53844693D+05 0.11891086D+01  1  2  3  2  6  2       21 -.757878775380D-04 0.100000000000D+01
0.292143131855D-05 0.000000000000D+00 0.000000000000D+00 0.280900134983D-06 0.000000000000D+00  6 -4 21 25 -24 -3 21 4 0.32905952D+00 0.52471574D-02 0.53844693D+05 0.53844693D+05 0.53844693D+05 0.11891086D+01  1  2 15  2  6  2       21 0.150026180321D-03 0.100000000000D+01
0.480721593349D-04 0.000000000000D+00 0.000000000000D+00 0.275920934876D-06 0.000000000000D+00  6 -4 21 25 -24 -3 21 4 0.32905952D+00 0.64196070D-02 0.69249427D+05 0.69249427D+05 0.69249427D+05 0.11785225D+01  1  2 12  2  6  2       21 0.167006786368D-02 0.100000000000D+01
-.335575315887D-04 0.000000000000D+00 0.000000000000D+00 0.280900134983D-06 0.000000000000D+00  6 -4 21 25 -24 -3 21 4 0.32905952D+00 0.52471574D-02 0.53844693D+05 0.53844693D+05 0.53844693D+05 0.11891086D+01  1  2  4  2  6  2       21 -.172330194904D-02 0.100000000000D+01
-.186234918829D-03 0.000000000000D+00 -.515974704497D-04 0.280900134983D-06 0.000000000000D+00  6 -4 21 25 -24 -3 21 4 0.32905952D+00 0.67769701D-02 0.53844693D+05 0.53844693D+05 0.53844693D+05 0.11891086D+01  1  2  5  2  6  2       21 -.616149332879D-02 0.100000000000D+01
0.172767672201D-03 0.000000000000D+00 0.454219473943D-04 0.280900134983D-06 0.000000000000D+00  6 -4 21 25 -24 -3 21 4 0.32905952D+00 0.52471574D-02 0.53844693D+05 0.53844693D+05 0.53844693D+05 0.11891086D+01  1  2  6  2  6  2       21 0.887225168659D-02 0.100000000000D+01
0.278575769811D-05 0.000000000000D+00 0.000000000000D+00 0.275920934876D-06 0.000000000000D+00  6 -4 -3 25 -24 -3 -3 4 0.32905952D+00 0.64196070D-02 0.69249427D+05 0.69249427D+05 0.69249427D+05 0.11785225D+01  1  2 12  5  6  2       21 0.424627050472D-05 0.100000000000D+01
-.133058941931D-04 0.000000000000D+00 -.399451337561D-05 0.280900134983D-06 0.000000000000D+00  6 -4 -3 25 -24 -3 -3 4 0.32905952D+00 0.67769701D-02 0.53844693D+05 0.53844693D+05 0.53844693D+05 0.11891086D+01  1  2  5  5  6  2       21 -.192313667672D-04 0.100000000000D+01
0.278575769811D-05 0.000000000000D+00 0.000000000000D+00 0.275920934876D-06 0.000000000000D+00  6 -4 3 25 -24 3 -3 4 0.32905952D+00 0.64196070D-02 0.69249427D+05 0.69249427D+05 0.69249427D+05 0.11785225D+01  3  4 12  6  5  2       21 0.424584523804D-05 0.100000000000D+01
-.133058941931D-04 0.000000000000D+00 -.399451337561D-05 0.280900134983D-06 0.000000000000D+00  6 -4 3 25 -24 3 -3 4 0.32905952D+00 0.67769701D-02 0.53844693D+05 0.53844693D+05 0.53844693D+05 0.11891086D+01  3  4  5  6  5  2       21 -.192293611370D-04 0.100000000000D+01
0.278575769811D-05 0.000000000000D+00 0.000000000000D+00 0.275920934876D-06 0.000000000000D+00  6 -4 -4 25 -24 -3 -4 4 0.32905952D+00 0.64196070D-02 0.69249427D+05 0.69249427D+05 0.69249427D+05 0.11785225D+01  1  2 12  7  6  2       21 0.380099670473D-05 0.100000000000D+01
-.133058941931D-04 0.000000000000D+00 -.399451337561D-05 0.280900134983D-06 0.000000000000D+00  6 -4 -4 25 -24 -3 -4 4 0.32905952D+00 0.67769701D-02 0.53844693D+05 0.53844693D+05 0.53844693D+05 0.11891086D+01  1  2  5  7  6  2       21 -.171543835205D-04 0.100000000000D+01
0.278575769811D-05 0.000000000000D+00 0.000000000000D+00 0.275920934876D-06 0.000000000000D+00  6 -4 4 25 -24 4 -3 4 0.32905952D+00 0.64196070D-02 0.69249427D+05 0.69249427D+05 0.69249427D+05 0.11785225D+01  3  4 12  8  5  2       21 0.380099670473D-05 0.100000000000D+01
-.133058941931D-04 0.000000000000D+00 -.399451337561D-05 0.280900134983D-06 0.000000000000D+00  6 -4 4 25 -24 4 -3 4 0.32905952D+00 0.67769701D-02 0.53844693D+05 0.53844693D+05 0.53844693D+05 0.11891086D+01  3  4  5  8  5  2       21 -.171543835205D-04 0.100000000000D+01
0.278575769811D-05 0.000000000000D+00 0.000000000000D+00 0.275920934876D-06 0.000000000000D+00  6 -4 -1 25 -24 -3 -1 4 0.32905952D+00 0.64196070D-02 0.69249427D+05 0.69249427D+05 0.69249427D+05 0.11785225D+01  1  2 12  9  6  2       21 0.597266311271D-05 0.100000000000D+01
0.278575769811D-05 0.000000000000D+00 0.000000000000D+00 0.275920934876D-06 0.000000000000D+00  6 -4 -2 25 -24 -3 -2 4 0.32905952D+00 0.64196070D-02 0.69249427D+05 0.69249427D+05 0.69249427D+05 0.11785225D+01  1  2 12  9  6  2       21 0.580495028289D-05 0.100000000000D+01
-.133058941931D-04 0.000000000000D+00 -.399451337561D-05 0.280900134983D-06 0.000000000000D+00  6 -4 -1 25 -24 -3 -1 4 0.32905952D+00 0.67769701D-02 0.53844693D+05 0.53844693D+05 0.53844693D+05 0.11891086D+01  1  2  5  9  6  2       21 -.273389734319D-04 0.100000000000D+01
-.133058941931D-04 0.000000000000D+00 -.399451337561D-05 0.280900134983D-06 0.000000000000D+00  6 -4 -2 25 -24 -3 -2 4 0.32905952D+00 0.67769701D-02 0.53844693D+05 0.53844693D+05 0.53844693D+05 0.11891086D+01  1  2  5  9  6  2       21 -.265268845497D-04 0.100000000000D+01
0.278575769811D-05 0.000000000000D+00 0.000000000000D+00 0.275920934876D-06 0.000000000000D+00  6 -4 1 25 -24 1 -3 4 0.32905952D+00 0.64196070D-02 0.69249427D+05 0.69249427D+05 0.69249427D+05 0.11785225D+01  3  4 12 10  5  2       21 0.693399279652D-05 0.100000000000D+01
0.278575769811D-05 0.000000000000D+00 0.000000000000D+00 0.275920934876D-06 0.000000000000D+00  6 -4 2 25 -24 2 -3 4 0.32905952D+00 0.64196070D-02 0.69249427D+05 0.69249427D+05 0.69249427D+05 0.11785225D+01  3  4 12 10  5  2       21 0.758314406327D-05 0.100000000000D+01
-.133058941931D-04 0.000000000000D+00 -.399451337561D-05 0.280900134983D-06 0.000000000000D+00  6 -4 1 25 -24 1 -3 4 0.32905952D+00 0.67769701D-02 0.53844693D+05 0.53844693D+05 0.53844693D+05 0.11891086D+01  3  4  5 10  5  2       21 -.319960422600D-04 0.100000000000D+01
-.133058941931D-04 0.000000000000D+00 -.399451337561D-05 0.280900134983D-06 0.000000000000D+00  6 -4 2 25 -24 2 -3 4 0.32905952D+00 0.67769701D-02 0.53844693D+05 0.53844693D+05 0.53844693D+05 0.11891086D+01  3  4  5 10  5  2       21 -.351380822340D-04 0.100000000000D+01
  </mgrwgt>
  </event>
  <event>
  6     66 0.49224707E-03 0.21976339E+02 0.75467711E-02 0.11141362E+00
       -2 -1    0    0    0  501 0.00000000E+00 0.00000000E+00 0.96374226E+02 0.96374757E+02 0.32000000E+00 0.0000E+00 0.9000E+01
       21 -1    0    0  501  502 -.00000000E+00 -.00000000E+00 -.69736086E+03 0.69736126E+03 0.75000000E+00 0.0000E+00 0.9000E+01
       25  1    1    2    0    0 -.19856275E+03 -.21054170E+02 -.21665576E+03 0.32005494E+03 0.12500000E+03 0.0000E+00 0.9000E+01
      -24  1    1    2    0    0 0.15082829E+03 0.40759459E+02 -.19265488E+03 0.26075587E+03 0.80419002E+02 0.0000E+00 0.9000E+01
       -1  1    1    2    0  503 0.11722260E+02 -.42247668E+02 -.58320136E+02 0.72963124E+02 0.32000000E+00 0.0000E+00 0.9000E+01
       21  1    1    2  503  502 0.36012205E+02 0.22542379E+02 -.13335586E+03 0.13996209E+03 0.75000000E+00 0.0000E+00 0.9000E+01
#aMCatNLO 2  0  0  5  1 0.37316210D+02 0.00000000D+00  -5  6  0 0.00000000D+00 0.00000000D+00 0.00000000D+00 0.00000000D+00 0.00000000D+00
  <mgrwgt>
 0.2732490732D-01    1    2    0
 0.259245026813222D+03 0.000000000000000D+00 0.000000000000000D+00 0.259245026813222D+03
 0.259245026813222D+03 -.000000000000000D+00 -.000000000000000D+00 -.259245026813222D+03
 0.250086166780837D+03 -.210006050727541D+03 -.163302571116122D+02 0.504863563314122D+02
 0.170337574904202D+03 0.142725113117097D+03 0.441045355912375D+02 0.152317266213383D+02
 0.980663119414045D+02 0.672809376104441D+02 -.277742784796253D+02 -.657180829527506D+02
 0.000000000000000D+00 0.000000000000000D+00 0.000000000000000D+00 0.000000000000000D+00
 0.259245026813222D+03 0.000000000000000D+00 0.000000000000000D+00 0.259245026813222D+03
 0.259245026813222D+03 -.000000000000000D+00 -.000000000000000D+00 -.259245026813222D+03
 0.238882372165410D+03 -.198615650103959D+03 -.210323342548531D+02 0.393605409127895D+02
 0.175844761324508D+03 0.150789344625633D+03 0.407755360321192D+02 0.735481743947457D+01
 0.435530716599637D+02 0.112619163572920D+02 -.418520101825839D+02 -.429517574217734D+01
 0.602098484765620D+02 0.365643891210341D+02 0.221088084053177D+02 -.424201826100869D+02
0.741575668039D-04 0.000000000000D+00 0.000000000000D+00 0.163158450918D-06 0.133720365093D-08  6 -2 21 25 -24 -1 21 4 0.14826876D-01 0.10728636D+00 0.61846178D+05 0.61846178D+05 0.61846178D+05 0.11832433D+01  1  2  1  3  6  5       -1 0.273249073233D-01 0.100000000000D+01
  </mgrwgt>
  </event>
  <event>
  5     66 -.49224707E-03 0.10293179E+03 0.75467711E-02 0.11653326E+00
       -2 -1    0    0    0  501 0.00000000E+00 0.00000000E+00 0.18360965E+03 0.18360993E+03 0.32000000E+00 0.0000E+00 0.9000E+01
       21 -1    0    0  501  502 -.00000000E+00 -.00000000E+00 -.28953670E+03 0.28953767E+03 0.75000000E+00 0.0000E+00 0.9000E+01
       25  1    1    2    0    0 0.74813481E+02 -.92257579E+02 0.23780119E+02 0.17406611E+03 0.12500000E+03 0.0000E+00 0.9000E+01
      -24  1    1    2    0    0 0.13653128E+02 0.39640217E+02 0.41168550E+02 0.99598294E+02 0.80419002E+02 0.0000E+00 0.9000E+01
       -1  1    1    2    0  502 -.88466609E+02 0.52617363E+02 -.17087572E+03 0.19948319E+03 0.32000000E+00 0.0000E+00 0.9000E+01
#aMCatNLO 1  0  0  5  2 0.11968371D+02 0.00000000D+00  -5  6  0 0.00000000D+00 0.00000000D+00 0.00000000D+00 0.00000000D+00 0.00000000D+00
  <mgrwgt>
 -.3845676707D-01    7    2    0
 0.230568919756643D+03 0.000000000000000D+00 0.000000000000000D+00 0.230568919756643D+03
 0.230568919756643D+03 -.000000000000000D+00 -.000000000000000D+00 -.230568919756643D+03
 0.184062011103607D+03 0.748135467328041D+02 -.922576185034592D+02 0.643839186818659D+02
 0.111648982729653D+03 0.136531680645740D+02 0.396401928567013D+02 0.651193174279326D+02
 0.165426845680025D+03 -.884667147973780D+02 0.526174256467579D+02 -.129503236109799D+03
 0.000000000000000D+00 0.000000000000000D+00 0.000000000000000D+00 -.000000000000000D+00
 0.230568919756643D+03 0.000000000000000D+00 0.000000000000000D+00 0.230568919756643D+03
 0.230568919756643D+03 -.000000000000000D+00 -.000000000000000D+00 -.230568919756643D+03
 0.183573413587726D+03 0.744112162231174D+02 -.920183240329078D+02 0.637949615457333D+02
 0.111462993335091D+03 0.134090002041925D+02 0.397854167894356D+02 0.647618888951129D+02
 0.106137776644938D+03 -.654446022883560D+02 0.363456165262276D+02 -.752411311835364D+02
 0.599636559455299D+02 -.223756141389539D+02 0.158872907172447D+02 -.533157192573098D+02
0.156521915938D-05 0.000000000000D+00 0.000000000000D+00 0.533335421331D-06 0.000000000000D+00  6 -2 21 25 -24 -1 21 2 0.28247734D-01 0.44544204D-01 0.33499533D+05 0.33499533D+05 0.33499533D+05 0.12099012D+01  1  2  2  3  6  5       -1 0.101591145760D-02 0.100000000000D+01
-.307133724376D-07 0.825988843167D-07 -.315972652316D-08 0.533335421331D-06 0.000000000000D+00  6 -2 21 25 -24 -1 21 4 0.28247734D-01 0.44544204D-01 0.33499533D+05 0.33499533D+05 0.33499533D+05 0.12099012D+01  1  2  3  3  6  5       -1 -.291815286432D-04 0.100000000000D+01
0.133510429189D-06 0.000000000000D+00 0.000000000000D+00 0.533335421331D-06 0.000000000000D+00  6 -2 21 25 -24 -1 21 4 0.28247734D-01 0.44544204D-01 0.33499533D+05 0.33499533D+05 0.33499533D+05 0.12099012D+01  1  2 15  3  6  5       -1 0.126851534180D-03 0.100000000000D+01
0.128348532339D-04 0.000000000000D+00 0.000000000000D+00 0.533531873922D-06 0.000000000000D+00  6 -2 21 25 -24 -1 21 4 0.28247734D-01 0.44544204D-01 0.33334136D+05 0.33334136D+05 0.33334136D+05 0.12101240D+01  1  2 12  3  6  5       -1 0.122047462982D-01 0.100000000000D+01
-.600959544290D-04 0.000000000000D+00 0.000000000000D+00 0.533335421331D-06 0.000000000000D+00  6 -2 21 25 -24 -1 21 4 0.28247734D-01 0.44544204D-01 0.33499533D+05 0.33499533D+05 0.33499533D+05 0.12099012D+01  1  2  4  3  6  5       -1 -.570986406353D-01 0.100000000000D+01
-.132761027565D-04 0.000000000000D+00 0.000000000000D+00 0.533335421331D-06 0.000000000000D+00  6 -2 21 25 -24 -1 21 4 0.28247734D-01 0.44544204D-01 0.33499533D+05 0.33499533D+05 0.33499533D+05 0.12099012D+01  1  2  5  3  6  5       -1 -.126139509312D-01 0.100000000000D+01
0.188791007048D-04 0.000000000000D+00 -.000000000000D+00 0.533335421331D-06 0.000000000000D+00  6 -2 21 25 -24 -1 21 4 0.28247734D-01 0.44544204D-01 0.33499533D+05 0.33499533D+05 0.33499533D+05 0.12099012D+01  1  2  6  3  6  5       -1 0.179374967400D-01 0.100000000000D+01
  </mgrwgt>
  </event>
  <event>
  5     66 0.49224707E-03 0.40377458E+02 0.75467711E-02 0.12148500E+00
       -4 -1    0    0    0  501 0.00000000E+00 0.00000000E+00 0.33745613E+03 0.33745969E+03 0.15500000E+01 0.0000E+00 0.9000E+01
       21 -1    0    0  501  502 0.00000000E+00 0.00000000E+00 -.10307353E+03 0.10307625E+03 0.75000000E+00 0.0000E+00 0.9000E+01
       25  1    1    2    0    0 -.53845968E+02 -.31613040E+02 0.83021550E+02 0.16253107E+03 0.12500000E+03 0.0000E+00 0.9000E+01
      -24  1    1    2    0    0 0.54679835E+02 -.87554200E+01 0.19528846E+03 0.21833767E+03 0.80419002E+02 0.0000E+00 0.9000E+01
       -3  1    1    2    0  502 -.83386725E+00 0.40368460E+02 -.43927402E+02 0.59667198E+02 0.50000000E+00 0.0000E+00 0.9000E+01
#aMCatNLO 1  0  0  5  2 0.12714358D+01 0.00000000D+00  -5  6  0 0.00000000D+00 0.00000000D+00 0.00000000D+00 0.00000000D+00 0.00000000D+00
  <mgrwgt>
 0.5408575840D-02    8    2    0
 0.186505169474892D+03 0.000000000000000D+00 0.000000000000000D+00 0.186505169474892D+03
 0.186505169474892D+03 -.000000000000000D+00 -.000000000000000D+00 -.186505169474892D+03
 0.139786968975403D+03 -.538459635484075D+02 -.316132365073565D+02 -.407580451001674D+01
 0.135153060776525D+03 0.546798387899411D+02 -.875561007565185D+01 0.934483194338017D+02
 0.980703091978560D+02 -.833875241533598D+00 0.403688465830084D+02 -.893725149237850D+02
 0.000000000000000D+00 0.000000000000000D+00 0.000000000000000D+00 0.000000000000000D+00
 0.186505169474892D+03 0.000000000000000D+00 0.000000000000000D+00 0.186505169474892D+03
 0.186505169474892D+03 -.000000000000000D+00 -.000000000000000D+00 -.186505169474892D+03
 0.139784352942871D+03 -.538463160776677D+02 -.315961701658805D+02 -.411358765190375D+01
 0.135126601391126D+03 0.546794979771256D+02 -.873911094055842D+01 0.934117920290780D+02
 0.900967270129411D+02 -.132708708019367D+01 0.360412364411404D+02 -.825632383940929D+02
 0.800265760284664D+01 0.493905180735729D+00 0.429404466529852D+01 -.673496598308134D+01
0.537344771910D-06 0.000000000000D+00 0.000000000000D+00 0.120260468124D-05 0.000000000000D+00  6 -4 21 25 -24 -3 21 2 0.51916811D-01 0.15857949D-01 0.19285707D+05 0.19285707D+05 0.19285707D+05 0.12355687D+01  1  2  2  3  6  5       -3 0.430361651703D-03 0.100000000000D+01
0.338573054704D-07 0.283564626635D-07 -.108474427860D-08 0.120260468124D-05 0.000000000000D+00  6 -4 21 25 -24 -3 21 4 0.51916811D-01 0.15857949D-01 0.19285707D+05 0.19285707D+05 0.19285707D+05 0.12355687D+01  1  2  3  3  6  5       -3 0.413967938265D-04 0.100000000000D+01
0.554041250023D-07 0.000000000000D+00 0.000000000000D+00 0.120260468124D-05 0.000000000000D+00  6 -4 21 25 -24 -3 21 4 0.51916811D-01 0.15857949D-01 0.19285707D+05 0.19285707D+05 0.19285707D+05 0.12355687D+01  1  2 15  3  6  5       -3 0.677417505023D-04 0.100000000000D+01
0.183214069948D-08 0.000000000000D+00 0.000000000000D+00 0.120260120433D-05 0.000000000000D+00  6 -4 21 25 -24 -3 21 4 0.51916811D-01 0.15857949D-01 0.19286424D+05 0.19286424D+05 0.19286424D+05 0.12355669D+01  1  2 12  3  6  5       -3 0.224011944067D-05 0.100000000000D+01
-.540092056682D-04 0.000000000000D+00 0.000000000000D+00 0.120260468124D-05 0.000000000000D+00  6 -4 21 25 -24 -3 21 4 0.51916811D-01 0.15857949D-01 0.19285707D+05 0.19285707D+05 0.19285707D+05 0.12355687D+01  1  2  4  3  6  5       -3 -.660362046157D-01 0.100000000000D+01
-.862259582684D-04 0.000000000000D+00 0.000000000000D+00 0.120260468124D-05 0.000000000000D+00  6 -4 21 25 -24 -3 21 4 0.51916811D-01 0.15857949D-01 0.19285707D+05 0.19285707D+05 0.19285707D+05 0.12355687D+01  1  2  5  3  6  5       -3 -.105427120302D+00 0.100000000000D+01
0.935481443322D-04 0.000000000000D+00 -.000000000000D+00 0.120260468124D-05 0.000000000000D+00  6 -4 21 25 -24 -3 21 4 0.51916811D-01 0.15857949D-01 0.19285707D+05 0.19285707D+05 0.19285707D+05 0.12355687D+01  1  2  6  3  6  5       -3 0.114379841809D+00 0.100000000000D+01
0.506677001475D-04 0.000000000000D+00 0.000000000000D+00 0.120260468124D-05 0.302753578136D-05  6 -4 21 25 -24 -3 21 4 0.51916811D-01 0.15857949D-01 0.19286424D+05 0.19286424D+05 0.19286424D+05 0.12355669D+01  1  2 11  3  6  5       -3 0.619503186337D-01 0.100000000000D+01
  </mgrwgt>
  </event>
  <event>
  6     66 -.49224707E-03 0.13107823E+03 0.75467711E-02 0.11310805E+00
       -2 -1    0    0    0  503 0.00000000E+00 0.00000000E+00 0.63703736E+02 0.63704540E+02 0.32000000E+00 0.0000E+00 0.9000E+01
       21 -1    0    0  501  502 0.00000000E+00 0.00000000E+00 -.94757521E+03 0.94757551E+03 0.75000000E+00 0.0000E+00 0.9000E+01
       25  1    1    2    0    0 -.96578501E+02 0.13217917E+02 -.21428331E+03 0.26654166E+03 0.12500000E+03 0.0000E+00 0.9000E+01
      -24  1    1    2    0    0 0.15986225E+02 -.11803714E+03 -.16187141E+03 0.21646685E+03 0.80419002E+02 0.0000E+00 0.9000E+01
       -1  1    1    2    0  502 0.89695949E+02 0.10201640E+03 -.48402578E+03 0.50272634E+03 0.32000000E+00 0.0000E+00 0.9000E+01
       21  1    1    2  501  503 -.91036728E+01 0.28028316E+01 -.23690973E+02 0.25545203E+02 0.75000000E+00 0.0000E+00 0.9000E+01
#aMCatNLO 2  0  0  1  2 0.95253726D+01 0.00000000D+00  -5  6  0 0.00000000D+00 0.00000000D+00 0.00000000D+00 0.00000000D+00 0.00000000D+00
  <mgrwgt>
 -.1137876973D-01    3    2    0
 0.240661564766275D+03 0.000000000000000D+00 0.000000000000000D+00 0.240661564766275D+03
 0.240661564766275D+03 0.000000000000000D+00 0.000000000000000D+00 -.240661564766275D+03
 0.164823504599836D+03 -.996773962317415D+02 0.141719170363059D+02 0.374881463471927D+02
 0.153044676919202D+03 0.130827193043030D+02 -.117143294887519D+03 0.553330651367963D+02
 0.163454948013513D+03 0.865946769274386D+02 0.102971377851213D+03 -.928212114839890D+02
 0.000000000000000D+00 -.000000000000000D+00 0.000000000000000D+00 -.000000000000000D+00
 0.244249498580510D+03 0.000000000000000D+00 0.000000000000000D+00 0.244249498580510D+03
 0.247114896109599D+03 0.000000000000000D+00 0.000000000000000D+00 -.247114896109599D+03
 0.162887968627042D+03 -.965785570314939D+02 0.132178488647087D+02 0.374881463471927D+02
 0.154004234585555D+03 0.159861733518382D+02 -.118037208032230D+03 0.553330651367963D+02
 0.164525170534599D+03 0.896960564374416D+02 0.102016527571050D+03 -.928212114839890D+02
 0.994702094291291D+01 -.910367275778584D+01 0.280283159647219D+01 -.286539752908964D+01
-.460431894367D-04 0.000000000000D+00 0.000000000000D+00 0.221324542013D-06 0.000000000000D+00  6 -2 21 25 -24 -1 21 4 0.99269204D-02 0.14196569D+00 0.50086908D+05 0.50086908D+05 0.50086908D+05 0.11922071D+01  1  2 13  1  6  1       -2 -.167165849406D-01 0.100000000000D+01
-.468603848904D-04 0.000000000000D+00 0.000000000000D+00 0.222038462885D-06 0.000000000000D+00  6 -2 21 25 -24 -1 21 4 0.96561357D-02 0.14196569D+00 0.47903660D+05 0.47903660D+05 0.47903660D+05 0.11941284D+01  1  2  8  1  6  1       -2 -.179237515506D-01 0.100000000000D+01
0.672780693517D-04 0.000000000000D+00 0.000000000000D+00 0.222038462885D-06 0.246066650137D-07  6 -2 21 25 -24 -1 21 4 0.98000954D-02 0.14577250D+00 0.50086908D+05 0.50086908D+05 0.50086908D+05 0.11922071D+01  1  2  1  1  6  1       -2 0.232615667600D-01 0.100000000000D+01
  </mgrwgt>
  </event>
  <event>
  5     66 0.49224707E-03 0.25574600E+02 0.75467711E-02 0.12218052E+00
       -2 -1    0    0    0  501 0.00000000E+00 0.00000000E+00 0.29157603E+02 0.29159359E+02 0.32000000E+00 0.0000E+00 0.9000E+01
       21 -1    0    0  501  502 -.00000000E+00 -.00000000E+00 -.63259849E+03 0.63259893E+03 0.75000000E+00 0.0000E+00 0.9000E+01
       25  1    1    2    0    0 -.69658391E+02 0.28383172E+02 -.38320996E+03 0.41003996E+03 0.12500000E+03 0.0000E+00 0.9000E+01
      -24  1    1    2    0    0 0.44095410E+02 -.29091989E+02 -.16950668E+03 0.19491147E+03 0.80419002E+02 0.0000E+00 0.9000E+01
       -1  1    1    2    0  502 0.25562981E+02 0.70881739E+00 -.50724244E+02 0.56806864E+02 0.32000000E+00 0.0000E+00 0.9000E+01
#aMCatNLO 1  0  0  5  2 0.53553135D+01 0.00000000D+00  -5  6  0 0.00000000D+00 0.00000000D+00 0.00000000D+00 0.00000000D+00 0.00000000D+00
  <mgrwgt>
 0.3410644314D-01    6    2    0
 0.135815254918714D+03 0.000000000000000D+00 0.000000000000000D+00 0.135815254918714D+03
 0.135815254918714D+03 -.000000000000000D+00 -.000000000000000D+00 -.135815254918714D+03
 0.147637786204924D+03 -.696594676085305D+02 0.283831420182121D+02 -.226687392053679D+02
 0.982839804043956D+02 0.440946936828047D+02 -.290920091268954D+02 0.200458934383413D+02
 0.257087432281092D+02 0.255647739257258D+02 0.708867108683252D+00 0.262284576702663D+01
 0.000000000000000D+00 -.000000000000000D+00 0.000000000000000D+00 0.000000000000000D+00
 0.135815254918714D+03 0.000000000000000D+00 0.000000000000000D+00 0.135815254918714D+03
 0.135815254918714D+03 -.000000000000000D+00 -.000000000000000D+00 -.135815254918714D+03
 0.145360106109186D+03 -.648055354022039D+02 0.285177331903790D+02 -.221707447549657D+02
 0.998413684556427D+02 0.473769255245630D+02 -.290009984963123D+02 0.203826375815739D+02
 0.205821943252004D+02 0.199674160848557D+02 -.477359949960547D+01 0.146347734930399D+01
 0.584684094739983D+01 -.253880620721469D+01 0.525686480553878D+01 0.324629824087782D+00
0.284128106090D-04 0.000000000000D+00 0.000000000000D+00 0.561472817154D-06 0.000000000000D+00  6 -2 21 25 -24 -1 21 2 0.44859543D-02 0.97323014D-01 0.17913104D+05 0.17913104D+05 0.17913104D+05 0.12391300D+01  1  2  2  3  6  5       -1 0.686574629773D-01 0.100000000000D+01
0.620921059215D-06 0.149938520912D-05 -.573572785259D-07 0.561472817154D-06 0.000000000000D+00  6 -2 21 25 -24 -1 21 4 0.44859543D-02 0.97323014D-01 0.17913104D+05 0.17913104D+05 0.17913104D+05 0.12391300D+01  1  2  3  3  6  5       -1 0.230379413144D-02 0.100000000000D+01
0.306656530102D-05 0.000000000000D+00 0.000000000000D+00 0.561472817154D-06 0.000000000000D+00  6 -2 21 25 -24 -1 21 4 0.44859543D-02 0.97323014D-01 0.17913104D+05 0.17913104D+05 0.17913104D+05 0.12391300D+01  1  2 15  3  6  5       -1 0.113778314318D-01 0.100000000000D+01
0.947126596071D-05 0.000000000000D+00 0.000000000000D+00 0.561444517974D-06 0.000000000000D+00  6 -2 21 25 -24 -1 21 4 0.44859543D-02 0.97323014D-01 0.17924654D+05 0.17924654D+05 0.17924654D+05 0.12390987D+01  1  2 12  3  6  5       -1 0.351375227232D-01 0.100000000000D+01
-.509777345413D-04 0.000000000000D+00 0.000000000000D+00 0.561472817154D-06 0.000000000000D+00  6 -2 21 25 -24 -1 21 4 0.44859543D-02 0.97323014D-01 0.17913104D+05 0.17913104D+05 0.17913104D+05 0.12391300D+01  1  2  4  3  6  5       -1 -.189141927025D+00 0.100000000000D+01
0.285106171985D-04 0.000000000000D+00 0.000000000000D+00 0.561472817154D-06 0.239807839395D-06  6 -2 21 25 -24 -1 21 4 0.44859543D-02 0.97323014D-01 0.17924654D+05 0.17924654D+05 0.17924654D+05 0.12390987D+01  1  2 11  3  6  5       -1 0.105771758899D+00 0.100000000000D+01
  </mgrwgt>
  </event>
  <event>
  5     66 0.49224707E-03 0.22597718E+02 0.75467711E-02 0.12244521E+00
       -2 -1    0    0    0  501 0.00000000E+00 0.00000000E+00 0.66151027E+02 0.66151801E+02 0.32000000E+00 0.0000E+00 0.9000E+01
       21 -1    0    0  501  502 0.00000000E+00 0.00000000E+00 -.27092743E+03 0.27092846E+03 0.75000000E+00 0.0000E+00 0.9000E+01
       25  1    1    2    0    0 -.34834957E+02 -.43889232E+02 -.99135321E+02 0.16909332E+03 0.12500000E+03 0.0000E+00 0.9000E+01
      -24  1    1    2    0    0 0.21979186E+02 0.62471939E+02 -.69062684E+02 0.12499079E+03 0.80419002E+02 0.0000E+00 0.9000E+01
       -1  1    1    2    0  502 0.12855771E+02 -.18582708E+02 -.36578393E+02 0.42996152E+02 0.32000000E+00 0.0000E+00 0.9000E+01
#aMCatNLO 1  0  0  2  2 0.33439697D+00 0.00000000D+00  -5  6  0 0.00000000D+00 0.00000000D+00 0.00000000D+00 0.00000000D+00 0.00000000D+00
  <mgrwgt>
 0.8251589142D-01   23    4    0
 0.133874690795873D+03 0.000000000000000D+00 0.000000000000000D+00 0.133874690795873D+03
 0.133874690795873D+03 0.000000000000000D+00 0.000000000000000D+00 -.133874690795873D+03
 0.137058855775610D+03 -.348354500824286D+02 -.438885195882762D+02 0.451876226676045D+01
 0.104536547195263D+03 0.219788107339520D+02 0.624724825564370D+02 0.864838407412655D+01
 0.261539786208733D+02 0.128566393484765D+02 -.185839629681607D+02 -.131671463408870D+02
 0.000000000000000D+00 0.000000000000000D+00 -.000000000000000D+00 -.000000000000000D+00
 0.133956542264024D+03 0.000000000000000D+00 0.000000000000000D+00 0.133956542264024D+03
 0.134216768759575D+03 0.000000000000000D+00 0.000000000000000D+00 -.134216768759575D+03
 0.137044213580729D+03 -.349440787279938D+02 -.437562409878716D+02 0.451876226676045D+01
 0.104579504904052D+03 0.218959368224747D+02 0.625733992618165D+02 0.864838407412655D+01
 0.261258719240423D+02 0.128359205386931D+02 -.185587333876395D+02 -.131671463408870D+02
 0.423720614776142D+00 0.212221366825960D+00 -.258424886305347D+00 -.260226495551204D+00
 0.133874690795873D+03 0.000000000000000D+00 0.000000000000000D+00 0.133874690795873D+03
 0.133874690795873D+03 0.000000000000000D+00 0.000000000000000D+00 -.133874690795873D+03
 0.137058855775610D+03 -.348354500824286D+02 -.438885195882762D+02 0.451876226676045D+01
 0.104536547195263D+03 0.219788107339520D+02 0.624724825564370D+02 0.864838407412655D+01
 0.000000000000000D+00 0.000000000000000D+00 -.000000000000000D+00 -.000000000000000D+00
 0.261539786208733D+02 0.128566393484765D+02 -.185839629681607D+02 -.131671463408870D+02
 0.133956542264024D+03 0.000000000000000D+00 0.000000000000000D+00 0.133956542264024D+03
 0.134216768759575D+03 0.000000000000000D+00 0.000000000000000D+00 -.134216768759575D+03
 0.137044213580729D+03 -.349440787279938D+02 -.437562409878716D+02 0.451876226676045D+01
 0.104579504904052D+03 0.218959368224747D+02 0.625733992618165D+02 0.864838407412655D+01
 0.423720614776142D+00 0.212221366825960D+00 -.258424886305347D+00 -.260226495551204D+00
 0.261258719240423D+02 0.128359205386931D+02 -.185587333876395D+02 -.131671463408870D+02
0.125021048629D-05 0.000000000000D+00 0.000000000000D+00 0.116951270613D-05 0.000000000000D+00  6 -2 21 25 -24 -1 21 2 0.10177220D-01 0.41681282D-01 0.17392368D+05 0.17392368D+05 0.17392368D+05 0.12405619D+01  1  2  2  2  6  2       21 0.537746703904D-02 0.100000000000D+01
0.840608614699D-07 0.659754199340D-07 -.252381477022D-08 0.116951270613D-05 0.000000000000D+00  6 -2 21 25 -24 -1 21 4 0.10177220D-01 0.41681282D-01 0.17392368D+05 0.17392368D+05 0.17392368D+05 0.12405619D+01  1  2  3  2  6  2       21 0.556448932576D-03 0.100000000000D+01
0.130212545054D-06 0.000000000000D+00 0.000000000000D+00 0.116951270613D-05 0.000000000000D+00  6 -2 21 25 -24 -1 21 4 0.10177220D-01 0.41681282D-01 0.17392368D+05 0.17392368D+05 0.17392368D+05 0.12405619D+01  1  2 15  2  6  2       21 0.861954427258D-03 0.100000000000D+01
-.332981997127D-05 0.000000000000D+00 0.000000000000D+00 0.116951270613D-05 0.000000000000D+00  6 -2 21 25 -24 -1 21 4 0.10177220D-01 0.41681282D-01 0.17392368D+05 0.17392368D+05 0.17392368D+05 0.12405619D+01  1  2  4  2  6  2       21 -.220420625757D-01 0.100000000000D+01
-.194099080311D-02 0.000000000000D+00 -.144334330005D-03 0.116951270613D-05 0.000000000000D+00  6 -2 21 25 -24 -1 21 4 0.10177220D-01 0.41808717D-01 0.17392368D+05 0.17392368D+05 0.17392368D+05 0.12405619D+01  1  2  5  2  6  2       21 -.127698893271D+02 0.100000000000D+01
0.194139635974D-02 0.000000000000D+00 0.144331639941D-03 0.116951270613D-05 0.000000000000D+00  6 -2 21 25 -24 -1 21 4 0.10177220D-01 0.41681282D-01 0.17392368D+05 0.17392368D+05 0.17392368D+05 0.12405619D+01  1  2  6  2  6  2       21 0.128512593518D+02 0.100000000000D+01
0.328065756973D-05 0.000000000000D+00 0.000000000000D+00 0.116951270613D-05 0.324088557224D-02  6 -2 21 25 -24 -1 21 4 0.10183443D-01 0.41787786D-01 0.17435957D+05 0.17435957D+05 0.17435957D+05 0.12404402D+01  1  2 11  2  6  2       21 0.215767135832D-01 0.100000000000D+01
-.122449304638D-05 0.000000000000D+00 -.983617484085D-07 0.116951270613D-05 0.000000000000D+00  6 -2 -1 25 -24 -1 -1 4 0.10177220D-01 0.41808717D-01 0.17392368D+05 0.17392368D+05 0.17392368D+05 0.12405619D+01  1  2  5  5  6  2       21 -.755289257053D-03 0.100000000000D+01
0.255311592139D-06 0.000000000000D+00 0.000000000000D+00 0.116951270613D-05 0.533181209447D-07  6 -2 -1 25 -24 -1 -1 4 0.10183443D-01 0.41787786D-01 0.17435957D+05 0.17435957D+05 0.17435957D+05 0.12404402D+01  1  2 11  5  6  2       21 0.157419211802D-03 0.100000000000D+01
-.122449304638D-05 0.000000000000D+00 -.983617484085D-07 0.116951270613D-05 0.000000000000D+00  6 -2 1 25 -24 1 -1 4 0.10177220D-01 0.41808717D-01 0.17392368D+05 0.17392368D+05 0.17392368D+05 0.12405619D+01  3  4  5  6  5  2       21 -.155731415007D-02 0.100000000000D+01
0.263530316908D-06 0.000000000000D+00 0.000000000000D+00 0.116951270613D-05 0.260322452569D-03  6 -2 1 25 -24 1 -1 4 0.10183443D-01 0.41787786D-01 0.17435957D+05 0.17435957D+05 0.17435957D+05 0.12404402D+01  3  4 11  6  5  2       21 0.334939438531D-03 0.100000000000D+01
-.122449304638D-05 0.000000000000D+00 -.983617484085D-07 0.116951270613D-05 0.000000000000D+00  6 -2 -2 25 -24 -1 -2 4 0.10177220D-01 0.41808717D-01 0.17392368D+05 0.17392368D+05 0.17392368D+05 0.12405619D+01  1  2  5  7  6  2       21 -.634369569651D-03 0.100000000000D+01
0.248693924956D-06 0.000000000000D+00 0.000000000000D+00 0.116951270613D-05 0.115883410713D-06  6 -2 -2 25 -24 -1 -2 4 0.10183443D-01 0.41787786D-01 0.17435957D+05 0.17435957D+05 0.17435957D+05 0.12404402D+01  1  2 11  7  6  2       21 0.128799820656D-03 0.100000000000D+01
-.122449304638D-05 0.000000000000D+00 -.983617484085D-07 0.116951270613D-05 0.000000000000D+00  6 -2 2 25 -24 2 -1 4 0.10177220D-01 0.41808717D-01 0.17392368D+05 0.17392368D+05 0.17392368D+05 0.12405619D+01  3  4  5  8  5  2       21 -.216161049156D-02 0.100000000000D+01
0.255459545101D-06 0.000000000000D+00 0.000000000000D+00 0.116951270613D-05 0.106547046506D-06  6 -2 2 25 -24 2 -1 4 0.10183443D-01 0.41787786D-01 0.17435957D+05 0.17435957D+05 0.17435957D+05 0.12404402D+01  3  4 11  8  5  2       21 0.450634353443D-03 0.100000000000D+01
-.122449304638D-05 0.000000000000D+00 -.983617484085D-07 0.116951270613D-05 0.000000000000D+00  6 -2 -3 25 -24 -1 -3 4 0.10177220D-01 0.41808717D-01 0.17392368D+05 0.17392368D+05 0.17392368D+05 0.12405619D+01  1  2  5  9  6  2       21 -.397076083655D-03 0.100000000000D+01
-.122449304638D-05 0.000000000000D+00 -.983617484085D-07 0.116951270613D-05 0.000000000000D+00  6 -2 -4 25 -24 -1 -4 4 0.10177220D-01 0.41808717D-01 0.17392368D+05 0.17392368D+05 0.17392368D+05 0.12405619D+01  1  2  5  9  6  2       21 -.328080885201D-03 0.100000000000D+01
0.255472464809D-06 0.000000000000D+00 0.000000000000D+00 0.116951270613D-05 0.106552435057D-06  6 -2 -3 25 -24 -1 -3 4 0.10183443D-01 0.41787786D-01 0.17435957D+05 0.17435957D+05 0.17435957D+05 0.12404402D+01  1  2 11  9  6  2       21 0.828242692317D-04 0.100000000000D+01
0.255472464809D-06 0.000000000000D+00 0.000000000000D+00 0.116951270613D-05 0.106552435057D-06  6 -2 -4 25 -24 -1 -4 4 0.10183443D-01 0.41787786D-01 0.17435957D+05 0.17435957D+05 0.17435957D+05 0.12404402D+01  1  2 11  9  6  2       21 0.684363605896D-04 0.100000000000D+01
-.122449304638D-05 0.000000000000D+00 -.983617484085D-07 0.116951270613D-05 0.000000000000D+00  6 -2 3 25 -24 3 -1 4 0.10177220D-01 0.41808717D-01 0.17392368D+05 0.17392368D+05 0.17392368D+05 0.12405619D+01  3  4  5 10  5  2       21 -.397166203536D-03 0.100000000000D+01
-.122449304638D-05 0.000000000000D+00 -.983617484085D-07 0.116951270613D-05 0.000000000000D+00  6 -2 4 25 -24 4 -1 4 0.10177220D-01 0.41808717D-01 0.17392368D+05 0.17392368D+05 0.17392368D+05 0.12405619D+01  3  4  5 10  5  2       21 -.328080885201D-03 0.100000000000D+01
0.255472464809D-06 0.000000000000D+00 0.000000000000D+00 0.116951270613D-05 0.106552435057D-06  6 -2 3 25 -24 3 -1 4 0.10183443D-01 0.41787786D-01 0.17435957D+05 0.17435957D+05 0.17435957D+05 0.12404402D+01  3  4 11 10  5  2       21 0.828430352455D-04 0.100000000000D+01
0.255472464809D-06 0.000000000000D+00 0.000000000000D+00 0.116951270613D-05 0.106552435057D-06  6 -2 4 25 -24 4 -1 4 0.10183443D-01 0.41787786D-01 0.17435957D+05 0.17435957D+05 0.17435957D+05 0.12404402D+01  3  4 11 10  5  2       21 0.684363605896D-04 0.100000000000D+01
  </mgrwgt>
  </event>
  <event>
  5     66 0.49224707E-03 0.82700922E+02 0.75467711E-02 0.11338290E+00
       -4 -1    0    0    0  501 0.00000000E+00 0.00000000E+00 0.35629753E+03 0.35630090E+03 0.15500000E+01 0.0000E+00 0.9000E+01
       21 -1    0    0  501  502 0.00000000E+00 0.00000000E+00 -.15965338E+03 0.15965515E+03 0.75000000E+00 0.0000E+00 0.9000E+01
       25  1    1    2    0    0 0.98049661E+02 0.16542453E+02 0.47475513E+02 0.16663227E+03 0.12500000E+03 0.0000E+00 0.9000E+01
      -24  1    1    2    0    0 0.16491620E+02 0.11731150E+02 0.20326680E+03 0.21953178E+03 0.80419002E+02 0.0000E+00 0.9000E+01
       -3  1    1    2    0  502 -.11454128E+03 -.28273603E+02 -.54098168E+02 0.12979200E+03 0.50000000E+00 0.0000E+00 0.9000E+01
#aMCatNLO 1  0  0  2  1 0.69340420D+02 0.00000000D+00  -5  6  0 0.00000000D+00 0.00000000D+00 0.00000000D+00 0.00000000D+00 0.00000000D+00
  <mgrwgt>
 0.7731176129D-02   23    4    0
 0.238506669212083D+03 0.000000000000000D+00 0.000000000000000D+00 0.238506669212083D+03
 0.238506669212083D+03 0.000000000000000D+00 0.000000000000000D+00 -.238506669212083D+03
 0.160664672277157D+03 0.980498431752339D+02 0.165424980365437D+02 -.173410187114014D+02
 0.153659438866646D+03 0.164917944289874D+02 0.117311931123110D+02 0.129361536103727D+03
 0.162689227280364D+03 -.114541637604221D+03 -.282736911488547D+02 -.112020517392325D+03
 0.000000000000000D+00 0.000000000000000D+00 -.000000000000000D+00 -.000000000000000D+00
 0.271116931219903D+03 0.000000000000000D+00 0.000000000000000D+00 0.271116931219903D+03
 0.280943029780088D+03 0.000000000000000D+00 0.000000000000000D+00 -.280943029780088D+03
 0.148321476872673D+03 0.757727697509061D+02 0.182218806937629D+02 -.173410187114014D+02
 0.153012076904633D+03 -.561840013081445D+01 0.133979954154773D+02 0.129361536103727D+03
 0.180693228600573D+03 -.139298592578848D+03 -.264073597848551D+02 -.112020517392325D+03
 0.700331786221123D+02 0.691442229587564D+02 -.521251632438511D+01 -.982609856018567D+01
 0.238506669212083D+03 0.000000000000000D+00 0.000000000000000D+00 0.238506669212083D+03
 0.238506669212083D+03 0.000000000000000D+00 0.000000000000000D+00 -.238506669212083D+03
 0.160664672277157D+03 0.980498431752339D+02 0.165424980365437D+02 -.173410187114014D+02
 0.153659438866646D+03 0.164917944289874D+02 0.117311931123110D+02 0.129361536103727D+03
 0.000000000000000D+00 0.000000000000000D+00 -.000000000000000D+00 -.000000000000000D+00
 0.162689227280364D+03 -.114541637604221D+03 -.282736911488547D+02 -.112020517392325D+03
 0.271116931219903D+03 0.000000000000000D+00 0.000000000000000D+00 0.271116931219903D+03
 0.280943029780088D+03 0.000000000000000D+00 0.000000000000000D+00 -.280943029780088D+03
 0.148321476872673D+03 0.757727697509061D+02 0.182218806937629D+02 -.173410187114014D+02
 0.153012076904633D+03 -.561840013081445D+01 0.133979954154773D+02 0.129361536103727D+03
 0.700331786221123D+02 0.691442229587564D+02 -.521251632438511D+01 -.982609856018567D+01
 0.180693228600573D+03 -.139298592578848D+03 -.264073597848551D+02 -.112020517392325D+03
0.788726421892D-05 0.000000000000D+00 0.000000000000D+00 0.275988447820D-06 0.000000000000D+00  6 -4 21 25 -24 -3 21 2 0.54815400D-01 0.24562454D-01 0.32513910D+05 0.32513910D+05 0.32513910D+05 0.12112475D+01  1  2  2  2  6  2       21 0.243972899537D-02 0.100000000000D+01
-.382211018834D-06 0.416222367896D-06 -.159221140365D-07 0.275988447820D-06 0.000000000000D+00  6 -4 21 25 -24 -3 21 4 0.54815400D-01 0.24562454D-01 0.32513910D+05 0.32513910D+05 0.32513910D+05 0.12112475D+01  1  2  3  2  6  2       21 -.173453949706D-03 0.100000000000D+01
0.996344703149D-06 0.000000000000D+00 0.000000000000D+00 0.275988447820D-06 0.000000000000D+00  6 -4 21 25 -24 -3 21 4 0.54815400D-01 0.24562454D-01 0.32513910D+05 0.32513910D+05 0.32513910D+05 0.12112475D+01  1  2 15  2  6  2       21 0.452158403380D-03 0.100000000000D+01
0.693173742216D-05 0.000000000000D+00 0.000000000000D+00 0.268029456177D-06 0.000000000000D+00  6 -4 21 25 -24 -3 21 4 0.54815400D-01 0.30354109D-01 0.48431919D+05 0.48431919D+05 0.48431919D+05 0.11936547D+01  1  2 12  2  6  2       21 0.197917910087D-02 0.100000000000D+01
-.508305137127D-05 0.000000000000D+00 0.000000000000D+00 0.275988447820D-06 0.000000000000D+00  6 -4 21 25 -24 -3 21 4 0.54815400D-01 0.24562454D-01 0.32513910D+05 0.32513910D+05 0.32513910D+05 0.12112475D+01  1  2  4  2  6  2       21 -.230677634464D-02 0.100000000000D+01
-.314956610782D-04 0.000000000000D+00 -.133470999307D-04 0.275988447820D-06 0.000000000000D+00  6 -4 21 25 -24 -3 21 4 0.54815400D-01 0.32642257D-01 0.32513910D+05 0.32513910D+05 0.32513910D+05 0.12112475D+01  1  2  5  2  6  2       21 -.824873659858D-02 0.100000000000D+01
0.305861935348D-04 0.000000000000D+00 0.114128820336D-04 0.275988447820D-06 0.000000000000D+00  6 -4 21 25 -24 -3 21 4 0.54815400D-01 0.24562454D-01 0.32513910D+05 0.32513910D+05 0.32513910D+05 0.12112475D+01  1  2  6  2  6  2       21 0.138805419354D-01 0.100000000000D+01
0.426002156951D-06 0.000000000000D+00 0.000000000000D+00 0.268029456177D-06 0.000000000000D+00  6 -4 -3 25 -24 -3 -3 4 0.54815400D-01 0.30354109D-01 0.48431919D+05 0.48431919D+05 0.48431919D+05 0.11936547D+01  1  2 12  5  6  2       21 0.612466266924D-05 0.100000000000D+01
-.197834838515D-05 0.000000000000D+00 -.117664584996D-05 0.275988447820D-06 0.000000000000D+00  6 -4 -3 25 -24 -3 -3 4 0.54815400D-01 0.32642257D-01 0.32513910D+05 0.32513910D+05 0.32513910D+05 0.12112475D+01  1  2  5  5  6  2       21 -.257708266392D-04 0.100000000000D+01
0.426002156951D-06 0.000000000000D+00 0.000000000000D+00 0.268029456177D-06 0.000000000000D+00  6 -4 3 25 -24 3 -3 4 0.54815400D-01 0.30354109D-01 0.48431919D+05 0.48431919D+05 0.48431919D+05 0.11936547D+01  3  4 12  6  5  2       21 0.612491737335D-05 0.100000000000D+01
-.197834838515D-05 0.000000000000D+00 -.117664584996D-05 0.275988447820D-06 0.000000000000D+00  6 -4 3 25 -24 3 -3 4 0.54815400D-01 0.32642257D-01 0.32513910D+05 0.32513910D+05 0.32513910D+05 0.12112475D+01  3  4  5  6  5  2       21 -.257726323810D-04 0.100000000000D+01
0.426002156951D-06 0.000000000000D+00 0.000000000000D+00 0.268029456177D-06 0.000000000000D+00  6 -4 -4 25 -24 -3 -4 4 0.54815400D-01 0.30354109D-01 0.48431919D+05 0.48431919D+05 0.48431919D+05 0.11936547D+01  1  2 12  7  6  2       21 0.518247799411D-05 0.100000000000D+01
-.197834838515D-05 0.000000000000D+00 -.117664584996D-05 0.275988447820D-06 0.000000000000D+00  6 -4 -4 25 -24 -3 -4 4 0.54815400D-01 0.32642257D-01 0.32513910D+05 0.32513910D+05 0.32513910D+05 0.12112475D+01  1  2  5  7  6  2       21 -.216580257642D-04 0.100000000000D+01
0.426002156951D-06 0.000000000000D+00 0.000000000000D+00 0.268029456177D-06 0.000000000000D+00  6 -4 4 25 -24 4 -3 4 0.54815400D-01 0.30354109D-01 0.48431919D+05 0.48431919D+05 0.48431919D+05 0.11936547D+01  3  4 12  8  5  2       21 0.518247799411D-05 0.100000000000D+01
-.197834838515D-05 0.000000000000D+00 -.117664584996D-05 0.275988447820D-06 0.000000000000D+00  6 -4 4 25 -24 4 -3 4 0.54815400D-01 0.32642257D-01 0.32513910D+05 0.32513910D+05 0.32513910D+05 0.12112475D+01  3  4  5  8  5  2       21 -.216580257642D-04 0.100000000000D+01
0.426002156951D-06 0.000000000000D+00 0.000000000000D+00 0.268029456177D-06 0.000000000000D+00  6 -4 -1 25 -24 -3 -1 4 0.54815400D-01 0.30354109D-01 0.48431919D+05 0.48431919D+05 0.48431919D+05 0.11936547D+01  1  2 12  9  6  2       21 0.107680102950D-04 0.100000000000D+01
0.426002156951D-06 0.000000000000D+00 0.000000000000D+00 0.268029456177D-06 0.000000000000D+00  6 -4 -2 25 -24 -3 -2 4 0.54815400D-01 0.30354109D-01 0.48431919D+05 0.48431919D+05 0.48431919D+05 0.11936547D+01  1  2 12  9  6  2       21 0.944874299706D-05 0.100000000000D+01
-.197834838515D-05 0.000000000000D+00 -.117664584996D-05 0.275988447820D-06 0.000000000000D+00  6 -4 -1 25 -24 -3 -1 4 0.54815400D-01 0.32642257D-01 0.32513910D+05 0.32513910D+05 0.32513910D+05 0.12112475D+01  1  2  5  9  6  2       21 -.462720376453D-04 0.100000000000D+01
-.197834838515D-05 0.000000000000D+00 -.117664584996D-05 0.275988447820D-06 0.000000000000D+00  6 -4 -2 25 -24 -3 -2 4 0.54815400D-01 0.32642257D-01 0.32513910D+05 0.32513910D+05 0.32513910D+05 0.12112475D+01  1  2  5  9  6  2       21 -.402229614028D-04 0.100000000000D+01
0.426002156951D-06 0.000000000000D+00 0.000000000000D+00 0.268029456177D-06 0.000000000000D+00  6 -4 1 25 -24 1 -3 4 0.54815400D-01 0.30354109D-01 0.48431919D+05 0.48431919D+05 0.48431919D+05 0.11936547D+01  3  4 12 10  5  2       21 0.190251487970D-04 0.100000000000D+01
0.426002156951D-06 0.000000000000D+00 0.000000000000D+00 0.268029456177D-06 0.000000000000D+00  6 -4 2 25 -24 2 -3 4 0.54815400D-01 0.30354109D-01 0.48431919D+05 0.48431919D+05 0.48431919D+05 0.11936547D+01  3  4 12 10  5  2       21 0.250807801550D-04 0.100000000000D+01
-.197834838515D-05 0.000000000000D+00 -.117664584996D-05 0.275988447820D-06 0.000000000000D+00  6 -4 1 25 -24 1 -3 4 0.54815400D-01 0.32642257D-01 0.32513910D+05 0.32513910D+05 0.32513910D+05 0.12112475D+01  3  4  5 10  5  2       21 -.844616512032D-04 0.100000000000D+01
-.197834838515D-05 0.000000000000D+00 -.117664584996D-05 0.275988447820D-06 0.000000000000D+00  6 -4 2 25 -24 2 -3 4 0.54815400D-01 0.32642257D-01 0.32513910D+05 0.32513910D+05 0.32513910D+05 0.12112475D+01  3  4  5 10  5  2       21 -.112586470149D-03 0.100000000000D+01
  </mgrwgt>
  </event>
  <event>
  5     66 0.49224707E-03 0.52163500E+02 0.75467711E-02 0.10426093E+00
       -2 -1    0    0    0  501 0.00000000E+00 0.00000000E+00 0.50201999E+02 0.50203019E+02 0.32000000E+00 0.0000E+00 0.9000E+01
       21 -1    0    0  501  502 0.00000000E+00 0.00000000E+00 -.39187100E+03 0.39187171E+03 0.75000000E+00 0.0000E+00 0.9000E+01
       25  1    1    2    0    0 0.58929490E+01 -.16305755E+02 -.10623276E+03 0.16495758E+03 0.12500000E+03 0.0000E+00 0.9000E+01
      -24  1    1    2    0    0 -.45113179E+02 -.18085007E+02 -.15424878E+03 0.18061608E+03 0.80419002E+02 0.0000E+00 0.9000E+01
       -1  1    1    2    0  502 0.39220230E+02 0.34390762E+02 -.81187457E+02 0.96501070E+02 0.32000000E+00 0.0000E+00 0.9000E+01
#aMCatNLO 1  0  0  2  2 0.63954607D+02 0.00000000D+00  -5  6  0 0.00000000D+00 0.00000000D+00 0.00000000D+00 0.00000000D+00 0.00000000D+00
  <mgrwgt>
 0.3753164365D-01    3    2    0
 0.140260798110998D+03 0.000000000000000D+00 0.000000000000000D+00 0.140260798110998D+03
 0.140260798110998D+03 0.000000000000000D+00 0.000000000000000D+00 -.140260798110998D+03
 0.130568025179806D+03 0.589261862942661D+01 -.163060448840800D+02 0.335022259750132D+02
 0.967619567930910D+02 -.451134236578053D+02 -.180852214570772D+02 -.230946768493807D+02
 0.531916142490990D+02 0.392208050283786D+02 0.343912663411572D+02 -.104075491256325D+02
 0.000000000000000D+00 -.000000000000000D+00 -.000000000000000D+00 0.000000000000000D+00
 0.129500422384835D+04 0.000000000000000D+00 0.000000000000000D+00 0.129500422384835D+04
 0.257385492315346D+03 0.000000000000000D+00 0.000000000000000D+00 -.257385492315346D+03
 0.207803538899577D+03 0.148637549949347D+03 0.658922634226679D+02 0.335022259750132D+02
 0.954657679554416D+02 0.359794821295634D+02 0.286113555055120D+02 -.230946768493807D+02
 0.151498445748636D+03 0.125571053270257D+03 0.841152338524264D+02 -.104075491256325D+02
 0.109762196356005D+04 -.310188085349167D+03 -.178618852780606D+03 0.103761873153301D+04
0.112880580430D-04 0.000000000000D+00 0.000000000000D+00 0.428517674933D-06 0.000000000000D+00  6 -2 21 25 -24 -1 21 2 0.77235181D-02 0.60287979D-01 0.18540321D+05 0.18540321D+05 0.18540321D+05 0.12374660D+01  1  2  2  2  6  2       21 0.346146142238D-01 0.100000000000D+01
-.472118588379D-06 0.595687188511D-06 -.227873369552D-07 0.428517674933D-06 0.000000000000D+00  6 -2 21 25 -24 -1 21 4 0.77235181D-02 0.60287979D-01 0.18540321D+05 0.18540321D+05 0.18540321D+05 0.12374660D+01  1  2  3  2  6  2       21 -.221696024147D-02 0.100000000000D+01
0.109332224755D-05 0.000000000000D+00 0.000000000000D+00 0.428517674933D-06 0.000000000000D+00  6 -2 21 25 -24 -1 21 4 0.77235181D-02 0.60287979D-01 0.18540321D+05 0.18540321D+05 0.18540321D+05 0.12374660D+01  1  2 15  2  6  2       21 0.513398966613D-02 0.100000000000D+01
  </mgrwgt>
  </event>
  <event>
  5     66 0.49224707E-03 0.53430288E+02 0.75467711E-02 0.11104704E+00
       -4 -1    0    0    0  501 0.00000000E+00 0.00000000E+00 0.71194574E+03 0.71194743E+03 0.15500000E+01 0.0000E+00 0.9000E+01
       21 -1    0    0  501  502 0.00000000E+00 0.00000000E+00 -.76158317E+02 0.76162010E+02 0.75000000E+00 0.0000E+00 0.9000E+01
       25  1    1    2    0    0 -.42211722E+01 0.12629524E+03 0.50029629E+03 0.53093285E+03 0.12500000E+03 0.0000E+00 0.9000E+01
      -24  1    1    2    0    0 -.48330623E+02 -.11664950E+03 0.13811396E+03 0.20368023E+03 0.80419002E+02 0.0000E+00 0.9000E+01
       -3  1    1    2    0  502 0.52551795E+02 -.96457373E+01 -.26228240E+01 0.53496361E+02 0.50000000E+00 0.0000E+00 0.9000E+01
#aMCatNLO 1  0  0  1  2 0.23031855D+02 0.00000000D+00  -5  6  0 0.00000000D+00 0.00000000D+00 0.00000000D+00 0.00000000D+00 0.00000000D+00
  <mgrwgt>
 0.1097208124D-01    7    4    0
 0.232857702020745D+03 0.000000000000000D+00 0.000000000000000D+00 0.232857702020745D+03
 0.232857702020745D+03 0.000000000000000D+00 0.000000000000000D+00 -.232857702020745D+03
 0.215477624760612D+03 -.422151535098229D+01 0.126295304775325D+03 0.121808380550454D+03
 0.156127900240180D+03 -.483308714459301D+02 -.116649458813450D+03 -.443366203362805D+02
 0.941098790406986D+02 0.525523867969124D+02 -.964584596187527D+01 -.774717602141735D+02
 0.000000000000000D+00 -.000000000000000D+00 -.000000000000000D+00 0.000000000000000D+00
 0.294366128252227D+03 0.000000000000000D+00 0.000000000000000D+00 0.294366128252227D+03
 0.290197148337843D+03 0.000000000000000D+00 0.000000000000000D+00 -.290197148337843D+03
 0.239700816526149D+03 0.340367105570447D+02 0.160734881732106D+03 0.121808380550454D+03
 0.134062914813490D+03 -.239400287527379D+02 -.946931269649125D+02 -.443366203362805D+02
 0.104018318846723D+03 0.692052698554750D+02 0.534487130312257D+01 -.774717602141735D+02
 0.106781226403709D+03 -.793019516597818D+02 -.713866260703163D+02 0.416897991438394D+01
 0.232857702020745D+03 0.000000000000000D+00 0.000000000000000D+00 0.232857702020745D+03
 0.232857702020745D+03 0.000000000000000D+00 0.000000000000000D+00 -.232857702020745D+03
 0.215477624760612D+03 -.422151535098229D+01 0.126295304775325D+03 0.121808380550454D+03
 0.156127900240180D+03 -.483308714459301D+02 -.116649458813450D+03 -.443366203362805D+02
 0.000000000000000D+00 -.000000000000000D+00 -.000000000000000D+00 0.000000000000000D+00
 0.941098790406986D+02 0.525523867969124D+02 -.964584596187527D+01 -.774717602141735D+02
 0.294366128252227D+03 0.000000000000000D+00 0.000000000000000D+00 0.294366128252227D+03
 0.290197148337843D+03 0.000000000000000D+00 0.000000000000000D+00 -.290197148337843D+03
 0.239700816526149D+03 0.340367105570447D+02 0.160734881732106D+03 0.121808380550454D+03
 0.134062914813490D+03 -.239400287527379D+02 -.946931269649125D+02 -.443366203362805D+02
 0.106781226403709D+03 -.793019516597818D+02 -.713866260703163D+02 0.416897991438394D+01
 0.104018318846723D+03 0.692052698554750D+02 0.534487130312257D+01 -.774717602141735D+02
0.246783083185D-04 0.000000000000D+00 0.000000000000D+00 0.333023592654D-06 0.000000000000D+00  6 -4 21 25 -24 -3 21 2 0.10953053D+00 0.11717078D-01 0.36266578D+05 0.36266578D+05 0.36266578D+05 0.12063457D+01  1  2  2  1  6  1       -4 0.637822853796D-02 0.100000000000D+01
0.819211027624D-06 0.130231010892D-05 -.498183943593D-07 0.333023592654D-06 0.000000000000D+00  6 -4 21 25 -24 -3 21 4 0.10953053D+00 0.11717078D-01 0.36266578D+05 0.36266578D+05 0.36266578D+05 0.12063457D+01  1  2  3  1  6  1       -4 0.308122934851D-03 0.100000000000D+01
0.218897755457D-05 0.000000000000D+00 0.000000000000D+00 0.333023592654D-06 0.000000000000D+00  6 -4 21 25 -24 -3 21 4 0.10953053D+00 0.11717078D-01 0.36266578D+05 0.36266578D+05 0.36266578D+05 0.12063457D+01  1  2 15  1  6  1       -4 0.823321666448D-03 0.100000000000D+01
-.879550772194D-05 0.000000000000D+00 0.000000000000D+00 0.333023592654D-06 0.000000000000D+00  6 -4 21 25 -24 -3 21 4 0.10953053D+00 0.11717078D-01 0.36266578D+05 0.36266578D+05 0.36266578D+05 0.12063457D+01  1  2  4  1  6  1       -4 -.330818014090D-02 0.100000000000D+01
-.303702492137D-04 0.000000000000D+00 -.180375288685D-04 0.333023592654D-06 0.000000000000D+00  6 -4 21 25 -24 -3 21 4 0.16334516D+00 0.11717078D-01 0.36266578D+05 0.36266578D+05 0.36266578D+05 0.12063457D+01  1  2  5  1  6  1       -4 -.421010488781D-02 0.100000000000D+01
0.360148895264D-04 0.000000000000D+00 0.166869894166D-04 0.333023592654D-06 0.000000000000D+00  6 -4 21 25 -24 -3 21 4 0.10953053D+00 0.11717078D-01 0.36266578D+05 0.36266578D+05 0.36266578D+05 0.12063457D+01  1  2  6  1  6  1       -4 0.135459766593D-01 0.100000000000D+01
-.829766893916D-06 0.000000000000D+00 -.858050153271D-06 0.333023592654D-06 0.000000000000D+00  6 21 21 25 -24 4 -3 4 0.16334516D+00 0.11717078D-01 0.36266578D+05 0.36266578D+05 0.36266578D+05 0.12063457D+01  3  4  5  4  5  1       -4 -.256528353085D-02 0.100000000000D+01
  </mgrwgt>
  </event>
  <event>
  6     66 0.49224707E-03 0.26621613E+02 0.75467711E-02 0.11817465E+00
       -2 -1    0    0    0  501 0.00000000E+00 0.00000000E+00 0.28606270E+03 0.28606288E+03 0.32000000E+00 0.0000E+00 0.9000E+01
        1 -1    0    0  501    0 0.00000000E+00 0.00000000E+00 -.44624230E+03 0.44624241E+03 0.32000000E+00 0.0000E+00 0.9000E+01
       25  1    1    2    0    0 0.91851395E+02 -.33329500E+02 0.96916477E+02 0.18591756E+03 0.12500000E+03 0.0000E+00 0.9000E+01
      -24  1    1    2    0    0 -.95162784E+02 0.56195382E+02 0.10584922E+03 0.17287322E+03 0.80419002E+02 0.0000E+00 0.9000E+01
        1  1    1    2  502    0 0.35495596E+01 -.29969099E+02 -.36489247E+03 0.36613845E+03 0.32000000E+00 0.0000E+00 0.9000E+01
       -1  1    1    2    0  502 -.23817051E+00 0.71032170E+01 0.19471861E+01 0.73760660E+01 0.32000000E+00 0.0000E+00 0.9000E+01
#aMCatNLO 2  0  0  2  1 0.33630588D+01 0.00000000D+00  -5  6  0 0.00000000D+00 0.00000000D+00 0.00000000D+00 0.00000000D+00 0.00000000D+00
  <mgrwgt>
 0.4364395039D-01    1    2    0
 0.151046387577512D+03 0.000000000000000D+00 0.000000000000000D+00 0.151046387577512D+03
 0.151046387577512D+03 0.000000000000000D+00 0.000000000000000D+00 -.151046387577512D+03
 0.164062213764239D+03 0.937440638340387D+02 -.493123600877593D+02 -.847063301517487D+01
 0.131117178261743D+03 -.935906894274334D+02 0.429197419333269D+02 0.110985172804995D+02
 0.000000000000000D+00 0.000000000000000D+00 -.000000000000000D+00 -.000000000000000D+00
 0.691338312904185D+01 -.153374406605252D+00 0.639261815443236D+01 -.262788426532464D+01
 0.152129485320828D+03 0.000000000000000D+00 0.000000000000000D+00 0.152129485320828D+03
 0.839109665804535D+03 0.000000000000000D+00 0.000000000000000D+00 -.839109665804535D+03
 0.158885312232087D+03 0.918514735556752D+02 -.333331310419679D+02 -.847063301517487D+01
 0.137127340077675D+03 -.951627001312382D+02 0.561923025005576D+02 0.110985172804995D+02
 0.687642723127208D+03 0.354955961982036D+01 -.299690994005560D+02 -.686980180483707D+03
 0.758377568839416D+01 -.238333044257375D+00 0.710992794196626D+01 -.262788426532464D+01
0.851705833129D-03 0.000000000000D+00 0.000000000000D+00 0.273102317450D-05 0.279161089866D-06  6 -2 1 25 -24 1 -1 4 0.44009658D-01 0.68652667D-01 0.27660566D+05 0.27660566D+05 0.27660566D+05 0.12186166D+01  1  2  1  6  5  2       21 0.436439503920D-01 0.100000000000D+01
  </mgrwgt>
  </event>
  <event>
  6     66 0.49224707E-03 0.19299138E+02 0.75467711E-02 0.11984559E+00
       21 -1    0    0  503  501 0.00000000E+00 0.00000000E+00 0.12600677E+03 0.12600900E+03 0.75000000E+00 0.0000E+00 0.9000E+01
       21 -1    0    0  501  502 0.00000000E+00 0.00000000E+00 -.46164798E+03 0.46164859E+03 0.75000000E+00 0.0000E+00 0.9000E+01
       25  1    1    2    0    0 -.68226533E+02 0.66651553E+02 -.11353314E+03 0.19393830E+03 0.12500000E+03 0.0000E+00 0.9000E+01
      -24  1    1    2    0    0 0.51536341E+02 -.30001679E+02 -.26587483E+03 0.28409987E+03 0.80419002E+02 0.0000E+00 0.9000E+01
        2  1    1    2  503    0 0.20538196E+02 -.19302285E+02 0.71401231E+02 0.76763494E+02 0.32000000E+00 0.0000E+00 0.9000E+01
       -1  1    1    2    0  502 -.38480036E+01 -.17347589E+02 -.27634469E+02 0.32855932E+02 0.32000000E+00 0.0000E+00 0.9000E+01
#aMCatNLO 2  0  0  1  5 0.30348444D-02 0.00000000D+00  -5  6  0 0.00000000D+00 0.00000000D+00 0.00000000D+00 0.00000000D+00 0.00000000D+00
  <mgrwgt>
 0.9416378729D-01    1    2    0
 0.153732590065569D+03 0.000000000000000D+00 0.000000000000000D+00 0.153732590065569D+03
 0.153732590065569D+03 0.000000000000000D+00 0.000000000000000D+00 -.153732590065569D+03
 0.163210350607527D+03 -.570795477943673D+02 0.561769564734152D+02 0.678136662510332D+02
 0.125412807347151D+03 0.597021476464826D+02 -.376748655466867D+02 -.654019446557958D+02
 0.000000000000000D+00 0.000000000000000D+00 -.000000000000000D+00 0.000000000000000D+00
 0.188420221764592D+02 -.262259985211527D+01 -.185020909267286D+02 -.241172159523742D+01
 0.374626131140672D+03 0.000000000000000D+00 0.000000000000000D+00 0.374626131140672D+03
 0.155278864024077D+03 0.000000000000000D+00 0.000000000000000D+00 -.155278864024077D+03
 0.171234206197547D+03 -.682263675726699D+02 0.666530030046403D+02 0.678136662510332D+02
 0.119585447588576D+03 0.515365149931789D+02 -.300006096302672D+02 -.654019446557958D+02
 0.221150671004838D+03 0.205381956992372D+02 -.193022851442727D+02 0.219347267116595D+03
 0.179346703737880D+02 -.384834311974626D+01 -.173501082301003D+02 -.241172159523742D+01
0.925899564005D-05 0.000000000000D+00 0.000000000000D+00 0.606733990605D-06 0.981232731248D-09  6 21 21 25 -24 2 -1 4 0.19385861D-01 0.71022932D-01 0.22998759D+05 0.22998759D+05 0.22998759D+05 0.12272017D+01  1  2  1  4  5  1       -2 0.941637872880D-01 0.100000000000D+01
  </mgrwgt>
  </event>
  <event>
  5     66 0.49224707E-03 0.78721865E+02 0.75467711E-02 0.87704083E-01
       -4 -1    0    0    0  501 0.00000000E+00 0.00000000E+00 0.60629508E+03 0.60629707E+03 0.15500000E+01 0.0000E+00 0.9000E+01
       21 -1    0    0  501  502 0.00000000E+00 0.00000000E+00 -.10195821E+03 0.10196097E+03 0.75000000E+00 0.0000E+00 0.9000E+01
       25  1    1    2    0    0 0.61353537E+02 0.34376401E+02 0.42226116E+03 0.44595457E+03 0.12500000E+03 0.0000E+00 0.9000E+01
      -24  1    1    2    0    0 -.13366075E+03 -.65499130E+02 0.43749497E+02 0.17474715E+03 0.80419002E+02 0.0000E+00 0.9000E+01
       -3  1    1    2    0  502 0.72307218E+02 0.31122729E+02 0.38326218E+02 0.87556307E+02 0.50000000E+00 0.0000E+00 0.9000E+01
#aMCatNLO 1  0  0  2  2 0.16706030D+04 0.00000000D+00  -5  6  0 0.00000000D+00 0.00000000D+00 0.00000000D+00 0.00000000D+00 0.00000000D+00
  <mgrwgt>
 0.6627419932D-02   12    4    0
 0.248633142868464D+03 0.000000000000000D+00 0.000000000000000D+00 0.248633142868464D+03
 0.248633142868464D+03 0.000000000000000D+00 0.000000000000000D+00 -.248633142868464D+03
 0.206909317704700D+03 0.613530268101581D+02 0.343761811705629D+02 0.149132659140730D+03
 0.204521653431153D+03 -.133661259366698D+03 -.654993472217340D+02 -.114919075987744D+03
 0.858353146010763D+02 0.723082325565403D+02 0.311231660511710D+02 -.342135831529857D+02
 0.000000000000000D+00 0.000000000000000D+00 0.000000000000000D+00 -.000000000000000D+00
 0.114820296671897D+04 0.000000000000000D+00 0.000000000000000D+00 0.114820296671897D+04
 0.339328144342067D+04 0.000000000000000D+00 0.000000000000000D+00 -.339328144342067D+04
 0.491035412403959D+03 -.355442562346428D+03 -.277327984676892D+03 0.149132659140730D+03
 0.120829193463919D+04 -.977359114519979D+03 -.696466044110265D+03 -.114919075987744D+03
 0.437125502837198D+02 -.505459624543421D+01 -.267332907988544D+02 -.342135831529857D+02
 0.279844451281277D+04 0.133785627311184D+04 0.100052731958601D+04 -.224507847670170D+04
 0.248633142868464D+03 0.000000000000000D+00 0.000000000000000D+00 0.248633142868464D+03
 0.248633142868464D+03 0.000000000000000D+00 0.000000000000000D+00 -.248633142868464D+03
 0.206909317704700D+03 0.613530268101581D+02 0.343761811705629D+02 0.149132659140730D+03
 0.204521653431153D+03 -.133661259366698D+03 -.654993472217340D+02 -.114919075987744D+03
 0.000000000000000D+00 0.000000000000000D+00 0.000000000000000D+00 -.000000000000000D+00
 0.858353146010763D+02 0.723082325565403D+02 0.311231660511710D+02 -.342135831529857D+02
 0.114820296671897D+04 0.000000000000000D+00 0.000000000000000D+00 0.114820296671897D+04
 0.339328144342067D+04 0.000000000000000D+00 0.000000000000000D+00 -.339328144342067D+04
 0.491035412403959D+03 -.355442562346428D+03 -.277327984676892D+03 0.149132659140730D+03
 0.120829193463919D+04 -.977359114519979D+03 -.696466044110265D+03 -.114919075987744D+03
 0.279844451281277D+04 0.133785627311184D+04 0.100052731958601D+04 -.224507847670170D+04
 0.437125502837198D+02 -.505459624543421D+01 -.267332907988544D+02 -.342135831529857D+02
0.185239146636D-04 0.000000000000D+00 0.000000000000D+00 0.706855646383D-07 0.000000000000D+00  6 -4 21 25 -24 -3 21 2 0.93276531D-01 0.15686243D-01 0.38284791D+05 0.38284791D+05 0.38284791D+05 0.12039379D+01  1  2  2  2  6  2       21 0.410063486650D-02 0.100000000000D+01
-.764906512303D-06 0.977533833023D-06 -.373944467294D-07 0.706855646383D-07 0.000000000000D+00  6 -4 21 25 -24 -3 21 4 0.93276531D-01 0.15686243D-01 0.38284791D+05 0.38284791D+05 0.38284791D+05 0.12039379D+01  1  2  3  2  6  2       21 -.245434091094D-03 0.100000000000D+01
0.188585067181D-05 0.000000000000D+00 0.000000000000D+00 0.706855646383D-07 0.000000000000D+00  6 -4 21 25 -24 -3 21 4 0.93276531D-01 0.15686243D-01 0.38284791D+05 0.38284791D+05 0.38284791D+05 0.12039379D+01  1  2 15  2  6  2       21 0.605109301766D-03 0.100000000000D+01
0.312496506695D-01 0.000000000000D+00 -.799740576809D-02 0.706855646383D-07 0.000000000000D+00  6 -4 21 25 -24 -3 21 4 0.93276531D-01 0.54959047D+00 0.38284791D+05 0.38284791D+05 0.38284791D+05 0.12039379D+01  1  2  5  2  6  2       21 0.228076488857D-03 0.100000000000D+01
0.138784817220D-01 0.000000000000D+00 -.354993667530D-02 0.706855646383D-07 0.000000000000D+00  6 -4 -3 25 -24 -3 -3 4 0.93276531D-01 0.54959047D+00 0.38284791D+05 0.38284791D+05 0.38284791D+05 0.12039379D+01  1  2  5  5  6  2       21 0.135319388951D-04 0.100000000000D+01
0.138784817220D-01 0.000000000000D+00 -.354993667530D-02 0.706855646383D-07 0.000000000000D+00  6 -4 3 25 -24 3 -3 4 0.93276531D-01 0.54959047D+00 0.38284791D+05 0.38284791D+05 0.38284791D+05 0.12039379D+01  3  4  5  6  5  2       21 0.158247391933D-04 0.100000000000D+01
0.138784817220D-01 0.000000000000D+00 -.354993667530D-02 0.706855646383D-07 0.000000000000D+00  6 -4 -4 25 -24 -3 -4 4 0.93276531D-01 0.54959047D+00 0.38284791D+05 0.38284791D+05 0.38284791D+05 0.12039379D+01  1  2  5  7  6  2       21 0.347393684882D-05 0.100000000000D+01
0.138784817220D-01 0.000000000000D+00 -.354993667530D-02 0.706855646383D-07 0.000000000000D+00  6 -4 4 25 -24 4 -3 4 0.93276531D-01 0.54959047D+00 0.38284791D+05 0.38284791D+05 0.38284791D+05 0.12039379D+01  3  4  5  8  5  2       21 0.347393684882D-05 0.100000000000D+01
0.138784817220D-01 0.000000000000D+00 -.354993667530D-02 0.706855646383D-07 0.000000000000D+00  6 -4 -1 25 -24 -3 -1 4 0.93276531D-01 0.54959047D+00 0.38284791D+05 0.38284791D+05 0.38284791D+05 0.12039379D+01  1  2  5  9  6  2       21 0.108327671460D-04 0.100000000000D+01
0.138784817220D-01 0.000000000000D+00 -.354993667530D-02 0.706855646383D-07 0.000000000000D+00  6 -4 -2 25 -24 -3 -2 4 0.93276531D-01 0.54959047D+00 0.38284791D+05 0.38284791D+05 0.38284791D+05 0.12039379D+01  1  2  5  9  6  2       21 0.106727942140D-04 0.100000000000D+01
0.138784817220D-01 0.000000000000D+00 -.354993667530D-02 0.706855646383D-07 0.000000000000D+00  6 -4 1 25 -24 1 -3 4 0.93276531D-01 0.54959047D+00 0.38284791D+05 0.38284791D+05 0.38284791D+05 0.12039379D+01  3  4  5 10  5  2       21 0.397661951158D-03 0.100000000000D+01
0.138784817220D-01 0.000000000000D+00 -.354993667530D-02 0.706855646383D-07 0.000000000000D+00  6 -4 2 25 -24 2 -3 4 0.93276531D-01 0.54959047D+00 0.38284791D+05 0.38284791D+05 0.38284791D+05 0.12039379D+01  3  4  5 10  5  2       21 0.148356130121D-02 0.100000000000D+01
  </mgrwgt>
  </event>
  <event>
  5     66 0.49224707E-03 0.33656838E+02 0.75467711E-02 0.10072839E+00
       -4 -1    0    0    0  501 0.00000000E+00 0.00000000E+00 0.90769786E+03 0.90769918E+03 0.15500000E+01 0.0000E+00 0.9000E+01
       21 -1    0    0  501  502 0.00000000E+00 0.00000000E+00 -.24761445E+02 0.24772800E+02 0.75000000E+00 0.0000E+00 0.9000E+01
       25  1    1    2    0    0 -.64170088E+02 -.30183504E+02 0.38355300E+03 0.40959340E+03 0.12500000E+03 0.0000E+00 0.9000E+01
      -24  1    1    2    0    0 0.63005474E+02 0.63817159E+02 0.36590224E+03 0.38521940E+03 0.80419002E+02 0.0000E+00 0.9000E+01
       -3  1    1    2    0  502 0.11646145E+01 -.33633654E+02 0.13348117E+03 0.13765919E+03 0.50000000E+00 0.0000E+00 0.9000E+01
#aMCatNLO 1  0  0  2  2 0.16706030D+04 0.00000000D+00  -5  6  0 0.00000000D+00 0.00000000D+00 0.00000000D+00 0.00000000D+00 0.00000000D+00
  <mgrwgt>
 0.5627551908D-01   12    4    0
 0.149939393390870D+03 0.000000000000000D+00 0.000000000000000D+00 0.149939393390870D+03
 0.149939393390870D+03 0.000000000000000D+00 0.000000000000000D+00 -.149939393390870D+03
 0.144329550966832D+03 -.641701455068048D+02 -.301818560209944D+02 -.133141757180389D+02
 0.120508996501037D+03 0.630054262640787D+02 0.638185347405504D+02 0.356555299602080D+01
 0.350402393138697D+02 0.116471924272612D+01 -.336366787195560D+02 0.974862272201813D+01
 0.000000000000000D+00 0.000000000000000D+00 0.000000000000000D+00 -.000000000000000D+00
 0.514143770659974D+03 0.000000000000000D+00 0.000000000000000D+00 0.514143770659974D+03
 0.538564848037229D+03 0.000000000000000D+00 0.000000000000000D+00 -.538564848037229D+03
 0.352429883815767D+03 -.151021819044963D+03 -.292569591556769D+03 -.133141757180389D+02
 0.990167254326678D+02 0.246243206430880D+02 -.521346873562770D+02 0.356555299602080D+01
 0.117336771238567D+03 -.254763416985974D+02 -.114122032287249D+03 0.974862272201813D+01
 0.483925238210201D+03 0.151873840100472D+03 0.458826311200295D+03 -.244210773772555D+02
 0.149939393390870D+03 0.000000000000000D+00 0.000000000000000D+00 0.149939393390870D+03
 0.149939393390870D+03 0.000000000000000D+00 0.000000000000000D+00 -.149939393390870D+03
 0.144329550966832D+03 -.641701455068048D+02 -.301818560209944D+02 -.133141757180389D+02
 0.120508996501037D+03 0.630054262640787D+02 0.638185347405504D+02 0.356555299602080D+01
 0.000000000000000D+00 0.000000000000000D+00 0.000000000000000D+00 -.000000000000000D+00
 0.350402393138697D+02 0.116471924272612D+01 -.336366787195560D+02 0.974862272201813D+01
 0.514143770659974D+03 0.000000000000000D+00 0.000000000000000D+00 0.514143770659974D+03
 0.538564848037229D+03 0.000000000000000D+00 0.000000000000000D+00 -.538564848037229D+03
 0.352429883815767D+03 -.151021819044963D+03 -.292569591556769D+03 -.133141757180389D+02
 0.990167254326678D+02 0.246243206430880D+02 -.521346873562770D+02 0.356555299602080D+01
 0.483925238210201D+03 0.151873840100472D+03 0.458826311200295D+03 -.244210773772555D+02
 0.117336771238567D+03 -.254763416985974D+02 -.114122032287249D+03 0.974862272201813D+01
0.144899381509D-04 0.000000000000D+00 0.000000000000D+00 0.339198012358D-06 0.000000000000D+00  6 -4 21 25 -24 -3 21 2 0.13964680D+00 0.38104283D-02 0.22175261D+05 0.22175261D+05 0.22175261D+05 0.12289200D+01  1  2  2  2  6  2       21 0.146608862906D-01 0.100000000000D+01
-.193455895049D-06 0.764655043934D-06 -.292510103904D-07 0.339198012358D-06 0.000000000000D+00  6 -4 21 25 -24 -3 21 4 0.13964680D+00 0.38104283D-02 0.22175261D+05 0.22175261D+05 0.22175261D+05 0.12289200D+01  1  2  3  2  6  2       21 -.295612572786D-03 0.100000000000D+01
0.153740383632D-05 0.000000000000D+00 0.000000000000D+00 0.339198012358D-06 0.000000000000D+00  6 -4 21 25 -24 -3 21 4 0.13964680D+00 0.38104283D-02 0.22175261D+05 0.22175261D+05 0.22175261D+05 0.12289200D+01  1  2 15  2  6  2       21 0.234924814956D-02 0.100000000000D+01
0.252507181346D-02 0.000000000000D+00 -.109745476019D-02 0.339198012358D-06 0.000000000000D+00  6 -4 21 25 -24 -3 21 4 0.13964680D+00 0.56502313D-01 0.22175261D+05 0.22175261D+05 0.22175261D+05 0.12289200D+01  1  2  5  2  6  2       21 0.275957453321D-01 0.100000000000D+01
0.111550636404D-02 0.000000000000D+00 -.484212664761D-03 0.339198012358D-06 0.000000000000D+00  6 -4 -3 25 -24 -3 -3 4 0.13964680D+00 0.56502313D-01 0.22175261D+05 0.22175261D+05 0.22175261D+05 0.12289200D+01  1  2  5  5  6  2       21 0.620929766614D-03 0.100000000000D+01
0.111550636404D-02 0.000000000000D+00 -.484212664761D-03 0.339198012358D-06 0.000000000000D+00  6 -4 3 25 -24 3 -3 4 0.13964680D+00 0.56502313D-01 0.22175261D+05 0.22175261D+05 0.22175261D+05 0.12289200D+01  3  4  5  6  5  2       21 0.621289466750D-03 0.100000000000D+01
0.111550636404D-02 0.000000000000D+00 -.484212664761D-03 0.339198012358D-06 0.000000000000D+00  6 -4 -4 25 -24 -3 -4 4 0.13964680D+00 0.56502313D-01 0.22175261D+05 0.22175261D+05 0.22175261D+05 0.12289200D+01  1  2  5  7  6  2       21 0.508100669072D-03 0.100000000000D+01
0.111550636404D-02 0.000000000000D+00 -.484212664761D-03 0.339198012358D-06 0.000000000000D+00  6 -4 4 25 -24 4 -3 4 0.13964680D+00 0.56502313D-01 0.22175261D+05 0.22175261D+05 0.22175261D+05 0.12289200D+01  3  4  5  8  5  2       21 0.508100669072D-03 0.100000000000D+01
0.111550636404D-02 0.000000000000D+00 -.484212664761D-03 0.339198012358D-06 0.000000000000D+00  6 -4 -1 25 -24 -3 -1 4 0.13964680D+00 0.56502313D-01 0.22175261D+05 0.22175261D+05 0.22175261D+05 0.12289200D+01  1  2  5  9  6  2       21 0.123586124945D-02 0.100000000000D+01
0.111550636404D-02 0.000000000000D+00 -.484212664761D-03 0.339198012358D-06 0.000000000000D+00  6 -4 -2 25 -24 -3 -2 4 0.13964680D+00 0.56502313D-01 0.22175261D+05 0.22175261D+05 0.22175261D+05 0.12289200D+01  1  2  5  9  6  2       21 0.992868145260D-03 0.100000000000D+01
0.111550636404D-02 0.000000000000D+00 -.484212664761D-03 0.339198012358D-06 0.000000000000D+00  6 -4 1 25 -24 1 -3 4 0.13964680D+00 0.56502313D-01 0.22175261D+05 0.22175261D+05 0.22175261D+05 0.12289200D+01  3  4  5 10  5  2       21 0.303139168887D-02 0.100000000000D+01
0.111550636404D-02 0.000000000000D+00 -.484212664761D-03 0.339198012358D-06 0.000000000000D+00  6 -4 2 25 -24 2 -3 4 0.13964680D+00 0.56502313D-01 0.22175261D+05 0.22175261D+05 0.22175261D+05 0.12289200D+01  3  4  5 10  5  2       21 0.444671022880D-02 0.100000000000D+01
  </mgrwgt>
  </event>
  <event>
  5     66 -.49224707E-03 0.43574848E+02 0.75467711E-02 0.12264699E+00
       -4 -1    0    0    0  501 0.00000000E+00 0.00000000E+00 0.34036783E+02 0.34072057E+02 0.15500000E+01 0.0000E+00 0.9000E+01
       21 -1    0    0  501  502 -.00000000E+00 -.00000000E+00 -.52243226E+03 0.52243279E+03 0.75000000E+00 0.0000E+00 0.9000E+01
       25  1    1    2    0    0 0.39250766E+02 -.34713680E+02 -.31102837E+03 0.33927763E+03 0.12500000E+03 0.0000E+00 0.9000E+01
      -24  1    1    2    0    0 -.11110240E+01 0.13643828E+02 -.12218952E+03 0.14691795E+03 0.80419002E+02 0.0000E+00 0.9000E+01
       -3  1    1    2    0  502 -.38139742E+02 0.21069852E+02 -.55177584E+02 0.70309276E+02 0.50000000E+00 0.0000E+00 0.9000E+01
#aMCatNLO 1  0  0  5  2 0.15700785D+02 0.00000000D+00  -5  6  0 0.00000000D+00 0.00000000D+00 0.00000000D+00 0.00000000D+00 0.00000000D+00
  <mgrwgt>
 -.7545404428D-02    7    2    0
 0.133386198003777D+03 0.000000000000000D+00 0.000000000000000D+00 0.133386198003777D+03
 0.133386198003777D+03 -.000000000000000D+00 -.000000000000000D+00 -.133386198003777D+03
 0.138338730125203D+03 0.392519521645599D+02 -.347143357487854D+02 -.276912151673679D+02
 0.827810931810927D+02 -.111031416570738D+01 0.136434361160584D+02 0.140754142847264D+02
 0.456525727012586D+02 -.381416379988525D+02 0.210708996327269D+02 0.136158008826415D+02
 0.000000000000000D+00 0.000000000000000D+00 0.000000000000000D+00 0.000000000000000D+00
 0.133386198003777D+03 0.000000000000000D+00 0.000000000000000D+00 0.133386198003777D+03
 0.133386198003777D+03 -.000000000000000D+00 -.000000000000000D+00 -.133386198003777D+03
 0.135695164836950D+03 0.336168662753278D+02 -.316012987786013D+02 -.256796023617859D+02
 0.834440831559089D+02 -.452847944683478D+01 0.155317613518250D+02 0.152956308326678D+02
 0.283183380299331D+02 -.266071436478729D+02 -.304878752114290D+01 0.920288380508706D+01
 0.193148099847619D+02 -.248124318062015D+01 0.191183249479192D+02 0.118108772403104D+01
0.137049025273D-04 0.000000000000D+00 0.000000000000D+00 0.387553819361D-06 0.000000000000D+00  6 -4 21 25 -24 -3 21 2 0.52391829D-02 0.80376948D-01 0.16989748D+05 0.16989748D+05 0.16989748D+05 0.12417023D+01  1  2  2  3  6  5       -3 0.261873995747D-01 0.100000000000D+01
-.802929251360D-06 0.723227575924D-06 -.276662496453D-07 0.387553819361D-06 0.000000000000D+00  6 -4 21 25 -24 -3 21 4 0.52391829D-02 0.80376948D-01 0.16989748D+05 0.16989748D+05 0.16989748D+05 0.12417023D+01  1  2  3  3  6  5       -3 -.236553128308D-02 0.100000000000D+01
0.130660418850D-05 0.000000000000D+00 0.000000000000D+00 0.387553819361D-06 0.000000000000D+00  6 -4 21 25 -24 -3 21 4 0.52391829D-02 0.80376948D-01 0.16989748D+05 0.16989748D+05 0.16989748D+05 0.12417023D+01  1  2 15  3  6  5       -3 0.384942144937D-02 0.100000000000D+01
0.725200428806D-05 0.000000000000D+00 0.000000000000D+00 0.387403712964D-06 0.000000000000D+00  6 -4 21 25 -24 -3 21 4 0.52391829D-02 0.80376948D-01 0.17073772D+05 0.17073772D+05 0.17073772D+05 0.12414618D+01  1  2 12  3  6  5       -3 0.213526155205D-01 0.100000000000D+01
-.227408770266D-04 0.000000000000D+00 0.000000000000D+00 0.387553819361D-06 0.000000000000D+00  6 -4 21 25 -24 -3 21 4 0.52391829D-02 0.80376948D-01 0.16989748D+05 0.16989748D+05 0.16989748D+05 0.12417023D+01  1  2  4  3  6  5       -3 -.669975043503D-01 0.100000000000D+01
-.477552936776D-05 0.000000000000D+00 0.000000000000D+00 0.387553819361D-06 0.000000000000D+00  6 -4 21 25 -24 -3 21 4 0.52391829D-02 0.80376948D-01 0.16989748D+05 0.16989748D+05 0.16989748D+05 0.12417023D+01  1  2  5  3  6  5       -3 -.140693144428D-01 0.100000000000D+01
0.831515811492D-05 0.000000000000D+00 -.000000000000D+00 0.387553819361D-06 0.000000000000D+00  6 -4 21 25 -24 -3 21 4 0.52391829D-02 0.80376948D-01 0.16989748D+05 0.16989748D+05 0.16989748D+05 0.12417023D+01  1  2  6  3  6  5       -3 0.244975091034D-01 0.100000000000D+01
  </mgrwgt>
  </event>
  <event>
  5     66 0.49224707E-03 0.43903424E+02 0.75467711E-02 0.11234213E+00
       -2 -1    0    0    0  501 0.00000000E+00 0.00000000E+00 0.33209871E+03 0.33209886E+03 0.32000000E+00 0.0000E+00 0.9000E+01
       21 -1    0    0  501  502 0.00000000E+00 0.00000000E+00 -.10389590E+03 0.10389860E+03 0.75000000E+00 0.0000E+00 0.9000E+01
       25  1    1    2    0    0 0.12827867E+03 -.53370068E+02 0.11756214E+03 0.22079320E+03 0.12500000E+03 0.0000E+00 0.9000E+01
      -24  1    1    2    0    0 -.10516063E+03 0.16047187E+02 0.10731911E+03 0.17117499E+03 0.80419002E+02 0.0000E+00 0.9000E+01
       -1  1    1    2    0  502 -.23118040E+02 0.37322881E+02 0.33215621E+01 0.44029268E+02 0.32000000E+00 0.0000E+00 0.9000E+01
#aMCatNLO 1  0  0  2  5 0.23603986D+03 0.00000000D+00  -5  6  0 0.00000000D+00 0.00000000D+00 0.00000000D+00 0.00000000D+00 0.00000000D+00
  <mgrwgt>
 0.1294676238D-01    4    2    0
 0.185753375640981D+03 0.000000000000000D+00 0.000000000000000D+00 0.185753375640981D+03
 0.185753375640981D+03 0.000000000000000D+00 0.000000000000000D+00 -.185753375640981D+03
 0.186907426035156D+03 0.128278915542170D+03 -.533704581914474D+02 0.234519228364509D+01
 0.134967365977254D+03 -.105160459280771D+03 0.160469049652492D+02 0.208026096767009D+02
 0.496319592695520D+02 -.231184562613992D+02 0.373235532261981D+02 -.231478019603460D+02
 0.000000000000000D+00 0.000000000000000D+00 0.000000000000000D+00 0.000000000000000D+00
 0.245451082463988D+03 0.000000000000000D+00 0.000000000000000D+00 0.245451082463988D+03
 0.231709786431750D+03 0.000000000000000D+00 0.000000000000000D+00 -.231709786431750D+03
 0.171909789623549D+03 0.902229722746430D+02 -.760413776538441D+02 0.234519228364509D+01
 0.159737599864320D+03 -.136416694966499D+03 -.257325107575207D+01 0.208026096767009D+02
 0.513585961901337D+02 -.338294552921297D+02 0.309427313219699D+02 -.231478019603460D+02
 0.941548832177362D+02 0.800231779839859D+02 0.476718974076263D+02 0.137412960322379D+02
0.817749526448D-05 0.000000000000D+00 0.000000000000D+00 0.329344787932D-06 0.000000000000D+00  6 -2 21 25 -24 -1 21 2 0.51092329D-01 0.15984204D-01 0.33151434D+05 0.33151434D+05 0.33151434D+05 0.12103716D+01  1  2  2  2  6  2       21 0.124911237079D-01 0.100000000000D+01
0.178561775877D-06 0.431538280952D-06 -.165080068982D-07 0.329344787932D-06 0.000000000000D+00  6 -2 21 25 -24 -1 21 4 0.51092329D-01 0.15984204D-01 0.33151434D+05 0.33151434D+05 0.33151434D+05 0.12103716D+01  1  2  3  2  6  2       21 0.399583134092D-03 0.100000000000D+01
0.887441587685D-06 0.000000000000D+00 0.000000000000D+00 0.329344787932D-06 0.000000000000D+00  6 -2 21 25 -24 -1 21 4 0.51092329D-01 0.15984204D-01 0.33151434D+05 0.33151434D+05 0.33151434D+05 0.12103716D+01  1  2 15  2  6  2       21 0.198590481747D-02 0.100000000000D+01
-.862392043104D-06 0.000000000000D+00 0.000000000000D+00 0.329344787932D-06 0.000000000000D+00  6 -2 21 25 -24 -1 21 4 0.51092329D-01 0.15984204D-01 0.33151434D+05 0.33151434D+05 0.33151434D+05 0.12103716D+01  1  2  4  2  6  2       21 -.192984928441D-02 0.100000000000D+01
  </mgrwgt>
  </event>
  <event>
  5     66 0.49224707E-03 0.47371550E+02 0.75467711E-02 0.11057714E+00
       -2 -1    0    0    0  501 0.00000000E+00 0.00000000E+00 0.89200613E+02 0.89201187E+02 0.32000000E+00 0.0000E+00 0.9000E+01
       21 -1    0    0  501  502 0.00000000E+00 0.00000000E+00 -.73395965E+03 0.73396003E+03 0.75000000E+00 0.0000E+00 0.9000E+01
       25  1    1    2    0    0 0.18267509E+03 0.20893216E+02 -.27896649E+03 0.35672681E+03 0.12500000E+03 0.0000E+00 0.9000E+01
      -24  1    1    2    0    0 -.22314086E+03 -.45520326E+02 -.31571139E+03 0.39749823E+03 0.80419002E+02 0.0000E+00 0.9000E+01
       -1  1    1    2    0  502 0.40465763E+02 0.24627110E+02 -.50081154E+02 0.68936180E+02 0.32000000E+00 0.0000E+00 0.9000E+01
#aMCatNLO 1  0  0  2  1 0.13199876D+02 0.00000000D+00  -5  6  0 0.00000000D+00 0.00000000D+00 0.00000000D+00 0.00000000D+00 0.00000000D+00
  <mgrwgt>
 0.1382471225D+00   23    4    0
 0.255871148216250D+03 0.000000000000000D+00 0.000000000000000D+00 0.255871148216250D+03
 0.255871148216250D+03 0.000000000000000D+00 0.000000000000000D+00 -.255871148216250D+03
 0.222333263384303D+03 0.182674698004002D+03 0.208929760134987D+02 0.719909410735203D+00
 0.241620795792480D+03 -.223141283953345D+03 -.455205863660534D+02 -.701688089994724D+01
 0.477882372557179D+02 0.404665859493432D+02 0.246276103525547D+02 0.629697148921204D+01
 0.000000000000000D+00 0.000000000000000D+00 -.000000000000000D+00 -.000000000000000D+00
 0.261320014617231D+03 0.000000000000000D+00 0.000000000000000D+00 0.261320014617231D+03
 0.264077268151079D+03 0.000000000000000D+00 0.000000000000000D+00 -.264077268151079D+03
 0.219793282700599D+03 0.179012267820393D+03 0.252621618343719D+02 0.719909410735203D+00
 0.244498796017184D+03 -.227168137987905D+03 -.407166521834278D+02 -.701688089994724D+01
 0.476204281541767D+02 0.396762520979395D+02 0.255704584845854D+02 0.629697148921204D+01
 0.134847758963502D+02 0.847961806957265D+01 -.101159681355295D+02 -.275725353384795D+01
 0.255871148216250D+03 0.000000000000000D+00 0.000000000000000D+00 0.255871148216250D+03
 0.255871148216250D+03 0.000000000000000D+00 0.000000000000000D+00 -.255871148216250D+03
 0.222333263384303D+03 0.182674698004002D+03 0.208929760134987D+02 0.719909410735203D+00
 0.241620795792480D+03 -.223141283953345D+03 -.455205863660534D+02 -.701688089994724D+01
 0.000000000000000D+00 0.000000000000000D+00 -.000000000000000D+00 -.000000000000000D+00
 0.477882372557179D+02 0.404665859493432D+02 0.246276103525547D+02 0.629697148921204D+01
 0.261320014617231D+03 0.000000000000000D+00 0.000000000000000D+00 0.261320014617231D+03
 0.264077268151079D+03 0.000000000000000D+00 0.000000000000000D+00 -.264077268151079D+03
 0.219793282700599D+03 0.179012267820393D+03 0.252621618343719D+02 0.719909410735203D+00
 0.244498796017184D+03 -.227168137987905D+03 -.407166521834278D+02 -.701688089994724D+01
 0.134847758963502D+02 0.847961806957265D+01 -.101159681355295D+02 -.275725353384795D+01
 0.476204281541767D+02 0.396762520979395D+02 0.255704584845854D+02 0.629697148921204D+01
0.503819319039D-04 0.000000000000D+00 0.000000000000D+00 0.110006061309D-06 0.000000000000D+00  6 -2 21 25 -24 -1 21 2 0.13723245D-01 0.11291694D+00 0.65337120D+05 0.65337120D+05 0.65337120D+05 0.11809434D+01  1  2  2  2  6  2       21 0.132164406057D-01 0.100000000000D+01
0.122294999660D-05 0.265872759098D-05 -.101706604836D-06 0.110006061309D-06 0.000000000000D+00  6 -2 21 25 -24 -1 21 4 0.13723245D-01 0.11291694D+00 0.65337120D+05 0.65337120D+05 0.65337120D+05 0.11809434D+01  1  2  3  2  6  2       21 0.447410871277D-03 0.100000000000D+01
0.498545063660D-05 0.000000000000D+00 0.000000000000D+00 0.110006061309D-06 0.000000000000D+00  6 -2 21 25 -24 -1 21 4 0.13723245D-01 0.11291694D+00 0.65337120D+05 0.65337120D+05 0.65337120D+05 0.11809434D+01  1  2 15  2  6  2       21 0.182390516311D-02 0.100000000000D+01
0.143882581284D-03 0.000000000000D+00 0.000000000000D+00 0.109605842537D-06 0.000000000000D+00  6 -2 21 25 -24 -1 21 4 0.13723245D-01 0.11770852D+00 0.68799277D+05 0.68799277D+05 0.68799277D+05 0.11787932D+01  1  2 12  2  6  2       21 0.470826158049D-01 0.100000000000D+01
-.272255964864D-04 0.000000000000D+00 0.000000000000D+00 0.110006061309D-06 0.000000000000D+00  6 -2 21 25 -24 -1 21 4 0.13723245D-01 0.11291694D+00 0.65337120D+05 0.65337120D+05 0.65337120D+05 0.11809434D+01  1  2  4  2  6  2       21 -.996036459286D-02 0.100000000000D+01
-.236439497100D-02 0.000000000000D+00 -.355582704704D-03 0.110006061309D-06 0.000000000000D+00  6 -2 21 25 -24 -1 21 4 0.13723245D-01 0.11840626D+00 0.65337120D+05 0.65337120D+05 0.65337120D+05 0.11809434D+01  1  2  5  2  6  2       21 -.769575826623D+00 0.100000000000D+01
0.237048988960D-02 0.000000000000D+00 0.353985326499D-03 0.110006061309D-06 0.000000000000D+00  6 -2 21 25 -24 -1 21 4 0.13723245D-01 0.11291694D+00 0.65337120D+05 0.65337120D+05 0.65337120D+05 0.11809434D+01  1  2  6  2  6  2       21 0.867233288200D+00 0.100000000000D+01
0.268642432588D-05 0.000000000000D+00 0.000000000000D+00 0.109605842537D-06 0.000000000000D+00  6 -2 -1 25 -24 -1 -1 4 0.13723245D-01 0.11770852D+00 0.68799277D+05 0.68799277D+05 0.68799277D+05 0.11787932D+01  1  2 12  5  6  2       21 0.105687717774D-03 0.100000000000D+01
-.231123988049D-04 0.000000000000D+00 -.401865007193D-05 0.110006061309D-06 0.000000000000D+00  6 -2 -1 25 -24 -1 -1 4 0.13723245D-01 0.11840626D+00 0.65337120D+05 0.65337120D+05 0.65337120D+05 0.11809434D+01  1  2  5  5  6  2       21 -.903455127450D-03 0.100000000000D+01
0.268642432588D-05 0.000000000000D+00 0.000000000000D+00 0.109605842537D-06 0.000000000000D+00  6 -2 1 25 -24 1 -1 4 0.13723245D-01 0.11770852D+00 0.68799277D+05 0.68799277D+05 0.68799277D+05 0.11787932D+01  3  4 12  6  5  2       21 0.447190319478D-03 0.100000000000D+01
-.231123988049D-04 0.000000000000D+00 -.401865007193D-05 0.110006061309D-06 0.000000000000D+00  6 -2 1 25 -24 1 -1 4 0.13723245D-01 0.11840626D+00 0.65337120D+05 0.65337120D+05 0.65337120D+05 0.11809434D+01  3  4  5  6  5  2       21 -.384142718119D-02 0.100000000000D+01
0.268642432588D-05 0.000000000000D+00 0.000000000000D+00 0.109605842537D-06 0.000000000000D+00  6 -2 -2 25 -24 -1 -2 4 0.13723245D-01 0.11770852D+00 0.68799277D+05 0.68799277D+05 0.68799277D+05 0.11787932D+01  1  2 12  7  6  2       21 0.779860228569D-04 0.100000000000D+01
-.231123988049D-04 0.000000000000D+00 -.401865007193D-05 0.110006061309D-06 0.000000000000D+00  6 -2 -2 25 -24 -1 -2 4 0.13723245D-01 0.11840626D+00 0.65337120D+05 0.65337120D+05 0.65337120D+05 0.11809434D+01  1  2  5  7  6  2       21 -.666239972099D-03 0.100000000000D+01
0.268642432588D-05 0.000000000000D+00 0.000000000000D+00 0.109605842537D-06 0.000000000000D+00  6 -2 2 25 -24 2 -1 4 0.13723245D-01 0.11770852D+00 0.68799277D+05 0.68799277D+05 0.68799277D+05 0.11787932D+01  3  4 12  8  5  2       21 0.772695600198D-03 0.100000000000D+01
-.231123988049D-04 0.000000000000D+00 -.401865007193D-05 0.110006061309D-06 0.000000000000D+00  6 -2 2 25 -24 2 -1 4 0.13723245D-01 0.11840626D+00 0.65337120D+05 0.65337120D+05 0.65337120D+05 0.11809434D+01  3  4  5  8  5  2       21 -.664596191576D-02 0.100000000000D+01
0.268642432588D-05 0.000000000000D+00 0.000000000000D+00 0.109605842537D-06 0.000000000000D+00  6 -2 -3 25 -24 -1 -3 4 0.13723245D-01 0.11770852D+00 0.68799277D+05 0.68799277D+05 0.68799277D+05 0.11787932D+01  1  2 12  9  6  2       21 0.502824799998D-04 0.100000000000D+01
0.268642432588D-05 0.000000000000D+00 0.000000000000D+00 0.109605842537D-06 0.000000000000D+00  6 -2 -4 25 -24 -1 -4 4 0.13723245D-01 0.11770852D+00 0.68799277D+05 0.68799277D+05 0.68799277D+05 0.11787932D+01  1  2 12  9  6  2       21 0.403404894594D-04 0.100000000000D+01
-.231123988049D-04 0.000000000000D+00 -.401865007193D-05 0.110006061309D-06 0.000000000000D+00  6 -2 -3 25 -24 -1 -3 4 0.13723245D-01 0.11840626D+00 0.65337120D+05 0.65337120D+05 0.65337120D+05 0.11809434D+01  1  2  5  9  6  2       21 -.429329566997D-03 0.100000000000D+01
-.231123988049D-04 0.000000000000D+00 -.401865007193D-05 0.110006061309D-06 0.000000000000D+00  6 -2 -4 25 -24 -1 -4 4 0.13723245D-01 0.11840626D+00 0.65337120D+05 0.65337120D+05 0.65337120D+05 0.11809434D+01  1  2  5  9  6  2       21 -.344201567722D-03 0.100000000000D+01
0.268642432588D-05 0.000000000000D+00 0.000000000000D+00 0.109605842537D-06 0.000000000000D+00  6 -2 3 25 -24 3 -1 4 0.13723245D-01 0.11770852D+00 0.68799277D+05 0.68799277D+05 0.68799277D+05 0.11787932D+01  3  4 12 10  5  2       21 0.504144791163D-04 0.100000000000D+01
0.268642432588D-05 0.000000000000D+00 0.000000000000D+00 0.109605842537D-06 0.000000000000D+00  6 -2 4 25 -24 4 -1 4 0.13723245D-01 0.11770852D+00 0.68799277D+05 0.68799277D+05 0.68799277D+05 0.11787932D+01  3  4 12 10  5  2       21 0.403404894594D-04 0.100000000000D+01
-.231123988049D-04 0.000000000000D+00 -.401865007193D-05 0.110006061309D-06 0.000000000000D+00  6 -2 3 25 -24 3 -1 4 0.13723245D-01 0.11840626D+00 0.65337120D+05 0.65337120D+05 0.65337120D+05 0.11809434D+01  3  4  5 10  5  2       21 -.430467669681D-03 0.100000000000D+01
-.231123988049D-04 0.000000000000D+00 -.401865007193D-05 0.110006061309D-06 0.000000000000D+00  6 -2 4 25 -24 4 -1 4 0.13723245D-01 0.11840626D+00 0.65337120D+05 0.65337120D+05 0.65337120D+05 0.11809434D+01  3  4  5 10  5  2       21 -.344201567722D-03 0.100000000000D+01
  </mgrwgt>
  </event>
  <event>
  5     66 0.49224707E-03 0.35735002E+02 0.75467711E-02 0.11994558E+00
       -4 -1    0    0    0  501 0.00000000E+00 0.00000000E+00 0.57128974E+03 0.57129184E+03 0.15500000E+01 0.0000E+00 0.9000E+01
       21 -1    0    0  501  502 0.00000000E+00 0.00000000E+00 -.32108363E+02 0.32117122E+02 0.75000000E+00 0.0000E+00 0.9000E+01
       25  1    1    2    0    0 0.20633553E+00 0.38299851E+02 0.23622898E+03 0.26999269E+03 0.12500000E+03 0.0000E+00 0.9000E+01
      -24  1    1    2    0    0 0.34975640E+02 -.51396003E+02 0.21746945E+03 0.24005212E+03 0.80419002E+02 0.0000E+00 0.9000E+01
       -3  1    1    2    0  502 -.35181976E+02 0.13096151E+02 0.85482951E+02 0.93364156E+02 0.50000000E+00 0.0000E+00 0.9000E+01
#aMCatNLO 1  0  0  2  1 0.30057430D+02 0.00000000D+00  -5  6  0 0.00000000D+00 0.00000000D+00 0.00000000D+00 0.00000000D+00 0.00000000D+00
  <mgrwgt>
 0.1191845202D-01   23    4    0
 0.135449087626281D+03 0.000000000000000D+00 0.000000000000000D+00 0.135449087626281D+03
 0.135449087626281D+03 0.000000000000000D+00 0.000000000000000D+00 -.135449087626281D+03
 0.131214260002197D+03 0.207824798734570D+00 0.382992968500980D+02 -.111938687487905D+02
 0.101862220542627D+03 0.349767961715373D+02 -.513964330112596D+02 0.661259576853187D+01
 0.378216947077381D+02 -.351846209702718D+02 0.130971361611616D+02 0.458127298025857D+01
 0.000000000000000D+00 0.000000000000000D+00 0.000000000000000D+00 -.000000000000000D+00
 0.142023944754817D+03 0.000000000000000D+00 0.000000000000000D+00 0.142023944754817D+03
 0.175604085205642D+03 0.000000000000000D+00 0.000000000000000D+00 -.175604085205642D+03
 0.129893112484641D+03 -.123345623835520D+02 0.311412354313183D+02 -.111938687487905D+02
 0.101943391686670D+03 0.251869197917286D+02 -.569836099489879D+02 0.661259576853187D+01
 0.407240770856182D+02 -.389575955591585D+02 0.109438631481192D+02 0.458127298025857D+01
 0.450674487035294D+02 0.261052381509819D+02 0.148985113695504D+02 -.335801404508252D+02
 0.135449087626281D+03 0.000000000000000D+00 0.000000000000000D+00 0.135449087626281D+03
 0.135449087626281D+03 0.000000000000000D+00 0.000000000000000D+00 -.135449087626281D+03
 0.131214260002197D+03 0.207824798734570D+00 0.382992968500980D+02 -.111938687487905D+02
 0.101862220542627D+03 0.349767961715373D+02 -.513964330112596D+02 0.661259576853187D+01
 0.000000000000000D+00 0.000000000000000D+00 0.000000000000000D+00 -.000000000000000D+00
 0.378216947077381D+02 -.351846209702718D+02 0.130971361611616D+02 0.458127298025857D+01
 0.142023944754817D+03 0.000000000000000D+00 0.000000000000000D+00 0.142023944754817D+03
 0.175604085205642D+03 0.000000000000000D+00 0.000000000000000D+00 -.175604085205642D+03
 0.129893112484641D+03 -.123345623835520D+02 0.311412354313183D+02 -.111938687487905D+02
 0.101943391686670D+03 0.251869197917286D+02 -.569836099489879D+02 0.661259576853187D+01
 0.450674487035294D+02 0.261052381509819D+02 0.148985113695504D+02 -.335801404508252D+02
 0.407240770856182D+02 -.389575955591585D+02 0.109438631481192D+02 0.458127298025857D+01
0.188132411033D-05 0.000000000000D+00 0.000000000000D+00 0.450034519679D-06 0.000000000000D+00  6 -4 21 25 -24 -3 21 2 0.87891565D-01 0.49405837D-02 0.18215076D+05 0.18215076D+05 0.18215076D+05 0.12383208D+01  1  2  2  2  6  2       21 0.371545281569D-02 0.100000000000D+01
-.499623269455D-07 0.992802008718D-07 -.379785134526D-08 0.450034519679D-06 0.000000000000D+00  6 -4 21 25 -24 -3 21 4 0.87891565D-01 0.49405837D-02 0.18215076D+05 0.18215076D+05 0.18215076D+05 0.12383208D+01  1  2  3  2  6  2       21 -.151306347143D-03 0.100000000000D+01
0.180218095103D-06 0.000000000000D+00 0.000000000000D+00 0.450034519679D-06 0.000000000000D+00  6 -4 21 25 -24 -3 21 4 0.87891565D-01 0.49405837D-02 0.18215076D+05 0.18215076D+05 0.18215076D+05 0.12383208D+01  1  2 15  2  6  2       21 0.545774052697D-03 0.100000000000D+01
0.509413679523D-05 0.000000000000D+00 0.000000000000D+00 0.442357694408D-06 0.000000000000D+00  6 -4 21 25 -24 -3 21 4 0.87891565D-01 0.64992196D-02 0.22749928D+05 0.22749928D+05 0.22749928D+05 0.12277136D+01  1  2 12  2  6  2       21 0.945735402092D-02 0.100000000000D+01
-.482570639824D-05 0.000000000000D+00 0.000000000000D+00 0.450034519679D-06 0.000000000000D+00  6 -4 21 25 -24 -3 21 4 0.87891565D-01 0.49405837D-02 0.18215076D+05 0.18215076D+05 0.18215076D+05 0.12383208D+01  1  2  4  2  6  2       21 -.146142113897D-01 0.100000000000D+01
-.153733806719D-04 0.000000000000D+00 -.312415392236D-05 0.450034519679D-06 0.000000000000D+00  6 -4 21 25 -24 -3 21 4 0.87891565D-01 0.67076455D-02 0.18215076D+05 0.18215076D+05 0.18215076D+05 0.12383208D+01  1  2  5  2  6  2       21 -.277357835038D-01 0.100000000000D+01
0.136625940238D-04 0.000000000000D+00 0.260928219265D-05 0.450034519679D-06 0.000000000000D+00  6 -4 21 25 -24 -3 21 4 0.87891565D-01 0.49405837D-02 0.18215076D+05 0.18215076D+05 0.18215076D+05 0.12383208D+01  1  2  6  2  6  2       21 0.413759190297D-01 0.100000000000D+01
0.429383666714D-06 0.000000000000D+00 0.000000000000D+00 0.442357694408D-06 0.000000000000D+00  6 -4 -3 25 -24 -3 -3 4 0.87891565D-01 0.64992196D-02 0.22749928D+05 0.22749928D+05 0.22749928D+05 0.12277136D+01  1  2 12  5  6  2       21 0.335040009548D-04 0.100000000000D+01
-.131850764121D-05 0.000000000000D+00 -.301102464668D-06 0.450034519679D-06 0.000000000000D+00  6 -4 -3 25 -24 -3 -3 4 0.87891565D-01 0.67076455D-02 0.18215076D+05 0.18215076D+05 0.18215076D+05 0.12383208D+01  1  2  5  5  6  2       21 -.994546672114D-04 0.100000000000D+01
0.429383666714D-06 0.000000000000D+00 0.000000000000D+00 0.442357694408D-06 0.000000000000D+00  6 -4 3 25 -24 3 -3 4 0.87891565D-01 0.64992196D-02 0.22749928D+05 0.22749928D+05 0.22749928D+05 0.12277136D+01  3  4 12  6  5  2       21 0.335003113601D-04 0.100000000000D+01
-.131850764121D-05 0.000000000000D+00 -.301102464668D-06 0.450034519679D-06 0.000000000000D+00  6 -4 3 25 -24 3 -3 4 0.87891565D-01 0.67076455D-02 0.18215076D+05 0.18215076D+05 0.18215076D+05 0.12383208D+01  3  4  5  6  5  2       21 -.994433595695D-04 0.100000000000D+01
0.429383666714D-06 0.000000000000D+00 0.000000000000D+00 0.442357694408D-06 0.000000000000D+00  6 -4 -4 25 -24 -3 -4 4 0.87891565D-01 0.64992196D-02 0.22749928D+05 0.22749928D+05 0.22749928D+05 0.12277136D+01  1  2 12  7  6  2       21 0.296882614085D-04 0.100000000000D+01
-.131850764121D-05 0.000000000000D+00 -.301102464668D-06 0.450034519679D-06 0.000000000000D+00  6 -4 -4 25 -24 -3 -4 4 0.87891565D-01 0.67076455D-02 0.18215076D+05 0.18215076D+05 0.18215076D+05 0.12383208D+01  1  2  5  7  6  2       21 -.878509342409D-04 0.100000000000D+01
0.429383666714D-06 0.000000000000D+00 0.000000000000D+00 0.442357694408D-06 0.000000000000D+00  6 -4 4 25 -24 4 -3 4 0.87891565D-01 0.64992196D-02 0.22749928D+05 0.22749928D+05 0.22749928D+05 0.12277136D+01  3  4 12  8  5  2       21 0.296882614085D-04 0.100000000000D+01
-.131850764121D-05 0.000000000000D+00 -.301102464668D-06 0.450034519679D-06 0.000000000000D+00  6 -4 4 25 -24 4 -3 4 0.87891565D-01 0.67076455D-02 0.18215076D+05 0.18215076D+05 0.18215076D+05 0.12383208D+01  3  4  5  8  5  2       21 -.878509342409D-04 0.100000000000D+01
0.429383666714D-06 0.000000000000D+00 0.000000000000D+00 0.442357694408D-06 0.000000000000D+00  6 -4 -1 25 -24 -3 -1 4 0.87891565D-01 0.64992196D-02 0.22749928D+05 0.22749928D+05 0.22749928D+05 0.12277136D+01  1  2 12  9  6  2       21 0.482602940225D-04 0.100000000000D+01
0.429383666714D-06 0.000000000000D+00 0.000000000000D+00 0.442357694408D-06 0.000000000000D+00  6 -4 -2 25 -24 -3 -2 4 0.87891565D-01 0.64992196D-02 0.22749928D+05 0.22749928D+05 0.22749928D+05 0.12277136D+01  1  2 12  9  6  2       21 0.468683163637D-04 0.100000000000D+01
-.131850764121D-05 0.000000000000D+00 -.301102464668D-06 0.450034519679D-06 0.000000000000D+00  6 -4 -1 25 -24 -3 -1 4 0.87891565D-01 0.67076455D-02 0.18215076D+05 0.18215076D+05 0.18215076D+05 0.12383208D+01  1  2  5  9  6  2       21 -.144486962024D-03 0.100000000000D+01
-.131850764121D-05 0.000000000000D+00 -.301102464668D-06 0.450034519679D-06 0.000000000000D+00  6 -4 -2 25 -24 -3 -2 4 0.87891565D-01 0.67076455D-02 0.18215076D+05 0.18215076D+05 0.18215076D+05 0.12383208D+01  1  2  5  9  6  2       21 -.140175629139D-03 0.100000000000D+01
0.429383666714D-06 0.000000000000D+00 0.000000000000D+00 0.442357694408D-06 0.000000000000D+00  6 -4 1 25 -24 1 -3 4 0.87891565D-01 0.64992196D-02 0.22749928D+05 0.22749928D+05 0.22749928D+05 0.12277136D+01  3  4 12 10  5  2       21 0.562134682381D-04 0.100000000000D+01
0.429383666714D-06 0.000000000000D+00 0.000000000000D+00 0.442357694408D-06 0.000000000000D+00  6 -4 2 25 -24 2 -3 4 0.87891565D-01 0.64992196D-02 0.22749928D+05 0.22749928D+05 0.22749928D+05 0.12277136D+01  3  4 12 10  5  2       21 0.615536533283D-04 0.100000000000D+01
-.131850764121D-05 0.000000000000D+00 -.301102464668D-06 0.450034519679D-06 0.000000000000D+00  6 -4 1 25 -24 1 -3 4 0.87891565D-01 0.67076455D-02 0.18215076D+05 0.18215076D+05 0.18215076D+05 0.12383208D+01  3  4  5 10  5  2       21 -.169119400111D-03 0.100000000000D+01
-.131850764121D-05 0.000000000000D+00 -.301102464668D-06 0.450034519679D-06 0.000000000000D+00  6 -4 2 25 -24 2 -3 4 0.87891565D-01 0.67076455D-02 0.18215076D+05 0.18215076D+05 0.18215076D+05 0.12383208D+01  3  4  5 10  5  2       21 -.185641341707D-03 0.100000000000D+01
  </mgrwgt>
  </event>
  <event>
  6     66 -.49224707E-03 0.26146537E+02 0.75467711E-02 0.12207604E+00
       -4 -1    0    0    0  501 0.00000000E+00 0.00000000E+00 0.29430082E+02 0.29470871E+02 0.15500000E+01 0.0000E+00 0.9000E+01
       21 -1    0    0  501  503 0.00000000E+00 0.00000000E+00 -.66974211E+03 0.66974253E+03 0.75000000E+00 0.0000E+00 0.9000E+01
       25  1    1    2    0    0 -.44807658E+01 -.80472834E+01 -.27773142E+03 0.30470409E+03 0.12500000E+03 0.0000E+00 0.9000E+01
      -24  1    1    2    0    0 -.94882052E+01 0.11688877E+02 -.12908298E+03 0.15282764E+03 0.80419002E+02 0.0000E+00 0.9000E+01
       -3  1    1    2    0  502 0.34995488E+02 -.15120602E+02 -.15403441E+03 0.15868260E+03 0.50000000E+00 0.0000E+00 0.9000E+01
       21  1    1    2  502  503 -.21026517E+02 0.11479009E+02 -.79463207E+02 0.82999072E+02 0.75000000E+00 0.0000E+00 0.9000E+01
#aMCatNLO 2  0  0  2  1 0.23955836D+02 0.00000000D+00  -5  6  0 0.00000000D+00 0.00000000D+00 0.00000000D+00 0.00000000D+00 0.00000000D+00
  <mgrwgt>
 -.7729529419D-02    2    2    0
 0.127077551782334D+03 0.000000000000000D+00 0.000000000000000D+00 0.127077551782334D+03
 0.127077551782334D+03 0.000000000000000D+00 0.000000000000000D+00 -.127077551782334D+03
 0.125905606127098D+03 -.148519408028499D+02 -.238549191608655D+01 -.975159955572813D+00
 0.870032490171136D+02 -.166011230370573D+02 0.155719330112172D+02 0.241716156134834D+02
 0.412462484204569D+02 0.314530638399072D+02 -.131864410951307D+02 -.231964556579106D+02
 0.000000000000000D+00 -.000000000000000D+00 0.000000000000000D+00 -.000000000000000D+00
 0.135787118422103D+03 0.000000000000000D+00 0.000000000000000D+00 0.135787118422103D+03
 0.145252510614812D+03 0.000000000000000D+00 0.000000000000000D+00 -.145252510614812D+03
 0.125342688280414D+03 -.448190566212560D+01 -.804680620233853D+01 -.975159955572813D+00
 0.853121371295310D+02 -.948896884774408D+01 0.116891939875216D+02 0.241716156134834D+02
 0.446267813149288D+02 0.349973917251825D+02 -.151213963599659D+02 -.231964556579106D+02
 0.257580223120404D+02 -.210265172153129D+02 0.114790085747828D+02 -.946539219270845D+01
-.566911812373D-05 0.000000000000D+00 0.000000000000D+00 0.102931765032D-05 0.000000000000D+00  6 -4 21 25 -24 -3 21 4 0.42400917D-02 0.10578428D+00 0.18121926D+05 0.18121926D+05 0.18121926D+05 0.12385688D+01  1  2 13  2  6  2       21 -.123521886308D-01 0.100000000000D+01
0.221567633786D-05 0.000000000000D+00 0.000000000000D+00 0.104568229190D-05 0.179214866299D-07  6 -4 21 25 -24 -3 21 4 0.45306966D-02 0.10303636D+00 0.18121926D+05 0.18121926D+05 0.18121926D+05 0.12385688D+01  1  2  1  2  6  2       21 0.462265921194D-02 0.100000000000D+01
  </mgrwgt>
  </event>
  <event>
  5     66 0.49224707E-03 0.42905508E+02 0.75467711E-02 0.11069871E+00
       -2 -1    0    0    0  501 0.00000000E+00 0.00000000E+00 0.59884988E+02 0.59885843E+02 0.32000000E+00 0.0000E+00 0.9000E+01
       21 -1    0    0  501  502 0.00000000E+00 0.00000000E+00 -.63307479E+03 0.63307523E+03 0.75000000E+00 0.0000E+00 0.9000E+01
       25  1    1    2    0    0 0.12975335E+03 0.29571269E+02 -.19830591E+03 0.26955635E+03 0.12500000E+03 0.0000E+00 0.9000E+01
      -24  1    1    2    0    0 -.12449473E+03 0.13009740E+02 -.32610602E+03 0.35844183E+03 0.80419002E+02 0.0000E+00 0.9000E+01
       -1  1    1    2    0  502 -.52586218E+01 -.42581009E+02 -.48777868E+02 0.64962899E+02 0.32000000E+00 0.0000E+00 0.9000E+01
#aMCatNLO 1  0  0  2  1 0.67506119D+01 0.00000000D+00  -5  6  0 0.00000000D+00 0.00000000D+00 0.00000000D+00 0.00000000D+00 0.00000000D+00
  <mgrwgt>
 0.6302685657D-01    3    2    0
 0.194710365288905D+03 0.000000000000000D+00 0.000000000000000D+00 0.194710365288905D+03
 0.194710365288905D+03 0.000000000000000D+00 0.000000000000000D+00 -.194710365288905D+03
 0.187779355979529D+03 0.129753415091687D+03 0.295718171194336D+02 0.438821767507680D+02
 0.157838537368410D+03 -.124494668716704D+03 0.130102007026001D+02 -.527029416923263D+02
 0.438028372298716D+02 -.525874637498318D+01 -.425820178220338D+02 0.882076494155828D+01
 0.000000000000000D+00 0.000000000000000D+00 0.000000000000000D+00 0.000000000000000D+00
 0.328646849766387D+03 0.000000000000000D+00 0.000000000000000D+00 0.328646849766387D+03
 0.236406638940957D+03 0.000000000000000D+00 0.000000000000000D+00 -.236406638940957D+03
 0.170200739277193D+03 0.104787137026388D+03 -.209117700812394D+02 0.438821767507680D+02
 0.179893484227903D+03 -.148048803917105D+03 -.346179333434838D+02 -.527029416923263D+02
 0.590933164823609D+02 -.124349386255247D+02 -.570927881619883D+02 0.882076494155828D+01
 0.155865948719887D+03 0.556966055162424D+02 0.112622491586711D+03 0.922402108254300D+02
0.740360338154D-04 0.000000000000D+00 0.000000000000D+00 0.172100620428D-06 0.000000000000D+00  6 -2 21 25 -24 -1 21 2 0.92131750D-02 0.97396221D-01 0.35018607D+05 0.35018607D+05 0.35018607D+05 0.12079105D+01  1  2  2  2  6  2       21 0.560249319183D-01 0.100000000000D+01
-.679791867033D-06 0.390698884290D-05 -.149457421546D-06 0.172100620428D-06 0.000000000000D+00  6 -2 21 25 -24 -1 21 4 0.92131750D-02 0.97396221D-01 0.35018607D+05 0.35018607D+05 0.35018607D+05 0.12079105D+01  1  2  3  2  6  2       21 -.750556924260D-03 0.100000000000D+01
0.702155127339D-05 0.000000000000D+00 0.000000000000D+00 0.172100620428D-06 0.000000000000D+00  6 -2 21 25 -24 -1 21 4 0.92131750D-02 0.97396221D-01 0.35018607D+05 0.35018607D+05 0.35018607D+05 0.12079105D+01  1  2 15  2  6  2       21 0.775248157983D-02 0.100000000000D+01
  </mgrwgt>
  </event>
  <event>
  5     66 0.49224707E-03 0.24364533E+02 0.75467711E-02 0.11534356E+00
       -2 -1    0    0    0  501 0.00000000E+00 0.00000000E+00 0.16125698E+04 0.16125698E+04 0.32000000E+00 0.0000E+00 0.9000E+01
       21 -1    0    0  501  502 0.00000000E+00 0.00000000E+00 -.49217584E+02 0.49223298E+02 0.75000000E+00 0.0000E+00 0.9000E+01
       25  1    1    2    0    0 0.34073433E+02 0.14484609E+03 0.39574372E+03 0.44088488E+03 0.12500000E+03 0.0000E+00 0.9000E+01
      -24  1    1    2    0    0 -.56553091E+02 -.13544970E+03 0.11812060E+04 0.11930045E+04 0.80419002E+02 0.0000E+00 0.9000E+01
       -1  1    1    2    0  502 0.22479658E+02 -.93963890E+01 -.13597482E+02 0.27903782E+02 0.32000000E+00 0.0000E+00 0.9000E+01
#aMCatNLO 1  0  0  2  1 0.64151074D+01 0.00000000D+00  -5  6  0 0.00000000D+00 0.00000000D+00 0.00000000D+00 0.00000000D+00 0.00000000D+00
  <mgrwgt>
 0.5244643278D+00   41    4    0
 0.281729593870506D+03 0.000000000000000D+00 0.000000000000000D+00 0.281729593870506D+03
 0.281729593870506D+03 0.000000000000000D+00 0.000000000000000D+00 -.281729593870506D+03
 0.202273082798137D+03 0.340734042270305D+02 0.144846100002233D+03 -.561071337994248D+02
 0.241163362633162D+03 -.565531248607152D+02 -.135449684764280D+03 0.173630868476515D+03
 0.120022742309713D+03 0.224797206336847D+02 -.939641523795305D+01 -.117523734677090D+03
 0.000000000000000D+00 0.000000000000000D+00 -.000000000000000D+00 -.000000000000000D+00
 0.281967246442786D+03 0.000000000000000D+00 0.000000000000000D+00 0.281967246442786D+03
 0.328642524290903D+03 0.000000000000000D+00 0.000000000000000D+00 -.328642524290903D+03
 0.203794148883512D+03 0.335190914871002D+02 0.147090159976282D+03 -.561071337994248D+02
 0.239836269186226D+03 -.572097260415470D+02 -.132791523905479D+03 0.173630868476515D+03
 0.119865287195630D+03 0.221522551783686D+02 -.807071573977659D+01 -.117523734677090D+03
 0.471140654683206D+02 0.153837937607814D+01 -.622792033102589D+01 -.466752778481163D+02
 0.281729593870506D+03 0.000000000000000D+00 0.000000000000000D+00 0.281729593870506D+03
 0.281729593870506D+03 0.000000000000000D+00 0.000000000000000D+00 -.281729593870506D+03
 0.202273082798137D+03 0.340734042270305D+02 0.144846100002233D+03 -.561071337994248D+02
 0.241163362633162D+03 -.565531248607152D+02 -.135449684764280D+03 0.173630868476515D+03
 0.000000000000000D+00 0.000000000000000D+00 -.000000000000000D+00 -.000000000000000D+00
 0.120022742309713D+03 0.224797206336847D+02 -.939641523795305D+01 -.117523734677090D+03
 0.281967246442786D+03 0.000000000000000D+00 0.000000000000000D+00 0.281967246442786D+03
 0.328642524290903D+03 0.000000000000000D+00 0.000000000000000D+00 -.328642524290903D+03
 0.203794148883512D+03 0.335190914871002D+02 0.147090159976282D+03 -.561071337994248D+02
 0.239836269186226D+03 -.572097260415470D+02 -.132791523905479D+03 0.173630868476515D+03
 0.471140654683206D+02 0.153837937607814D+01 -.622792033102589D+01 -.466752778481163D+02
 0.119865287195630D+03 0.221522551783686D+02 -.807071573977659D+01 -.117523734677090D+03
0.297506387489D-04 0.000000000000D+00 0.000000000000D+00 0.144986450920D-05 0.000000000000D+00  6 -2 21 25 -24 -1 21 2 0.24808811D+00 0.75723780D-02 0.37262207D+05 0.37262207D+05 0.37262207D+05 0.12051397D+01  1  2  2  2  6  2       21 0.351320055227D-02 0.100000000000D+01
0.693686729978D-05 0.156998433966D-05 -.600579680950D-07 0.144986450920D-05 0.000000000000D+00  6 -2 21 25 -24 -1 21 4 0.24808811D+00 0.75723780D-02 0.37262207D+05 0.37262207D+05 0.37262207D+05 0.12051397D+01  1  2  3  2  6  2       21 0.118972022390D-02 0.100000000000D+01
0.284838638327D-05 0.000000000000D+00 0.000000000000D+00 0.144986450920D-05 0.000000000000D+00  6 -2 21 25 -24 -1 21 4 0.24808811D+00 0.75723780D-02 0.37262207D+05 0.37262207D+05 0.37262207D+05 0.12051397D+01  1  2 15  2  6  2       21 0.488517761579D-03 0.100000000000D+01
0.324567966418D-02 0.000000000000D+00 0.000000000000D+00 0.144695771752D-05 0.000000000000D+00  6 -2 21 25 -24 -1 21 4 0.24808811D+00 0.88361777D-02 0.38290740D+05 0.38290740D+05 0.38290740D+05 0.12039311D+01  1  2 12  2  6  2       21 0.423214186985D+00 0.100000000000D+01
0.205658561388D-02 0.000000000000D+00 0.000000000000D+00 0.144695771752D-05 0.000000000000D+00  6 -2 21 25 -24 -1 21 4 0.24808811D+00 0.95499932D-02 0.38290740D+05 0.38290740D+05 0.38290740D+05 0.12039311D+01  1  2 12  2  6  2       21 0.233944095328D+00 0.100000000000D+01
-.240666662661D-02 0.000000000000D+00 0.000000000000D+00 0.144986450920D-05 0.000000000000D+00  6 -2 21 25 -24 -1 21 4 0.24808811D+00 0.75723780D-02 0.37262207D+05 0.37262207D+05 0.37262207D+05 0.12051397D+01  1  2  4  2  6  2       21 -.412759799795D+00 0.100000000000D+01
-.753250196070D-02 0.000000000000D+00 -.794025102324D-04 0.144986450920D-05 0.000000000000D+00  6 -2 21 25 -24 -1 21 4 0.24808811D+00 0.88374142D-02 0.37262207D+05 0.37262207D+05 0.37262207D+05 0.12051397D+01  1  2  5  2  6  2       21 -.986870938780D+00 0.100000000000D+01
0.716721922770D-02 0.000000000000D+00 0.757368863432D-04 0.144986450920D-05 0.000000000000D+00  6 -2 21 25 -24 -1 21 4 0.24808811D+00 0.75723780D-02 0.37262207D+05 0.37262207D+05 0.37262207D+05 0.12051397D+01  1  2  6  2  6  2       21 0.122922715627D+01 0.100000000000D+01
0.258774761278D-03 0.000000000000D+00 0.000000000000D+00 0.144986450920D-05 0.685940242789D-06  6 -2 21 25 -24 -1 21 4 0.24829738D+00 0.88333120D-02 0.38290740D+05 0.38290740D+05 0.38290740D+05 0.12039311D+01  1  2 11  2  6  2       21 0.336666764178D-01 0.100000000000D+01
0.142090787319D-03 0.000000000000D+00 0.000000000000D+00 0.144695771752D-05 0.000000000000D+00  6 -2 -1 25 -24 -1 -1 4 0.24808811D+00 0.88361777D-02 0.38290740D+05 0.38290740D+05 0.38290740D+05 0.12039311D+01  1  2 12  5  6  2       21 0.121033514701D-02 0.100000000000D+01
0.148571810413D-03 0.000000000000D+00 0.000000000000D+00 0.144695771752D-05 0.000000000000D+00  6 -2 -1 25 -24 -1 -1 4 0.24808811D+00 0.95499932D-02 0.38290740D+05 0.38290740D+05 0.38290740D+05 0.12039311D+01  1  2 12  5  6  2       21 0.112344550890D-02 0.100000000000D+01
-.327591771178D-03 0.000000000000D+00 -.334863315757D-05 0.144986450920D-05 0.000000000000D+00  6 -2 -1 25 -24 -1 -1 4 0.24808811D+00 0.88374142D-02 0.37262207D+05 0.37262207D+05 0.37262207D+05 0.12051397D+01  1  2  5  5  6  2       21 -.280217117068D-02 0.100000000000D+01
0.321427045405D-04 0.000000000000D+00 0.000000000000D+00 0.144986450920D-05 0.127318704706D-07  6 -2 -1 25 -24 -1 -1 4 0.24829738D+00 0.88333120D-02 0.38290740D+05 0.38290740D+05 0.38290740D+05 0.12039311D+01  1  2 11  5  6  2       21 0.273158412717D-03 0.100000000000D+01
0.142090787319D-03 0.000000000000D+00 0.000000000000D+00 0.144695771752D-05 0.000000000000D+00  6 -2 1 25 -24 1 -1 4 0.24808811D+00 0.88361777D-02 0.38290740D+05 0.38290740D+05 0.38290740D+05 0.12039311D+01  3  4 12  6  5  2       21 0.147994973434D-02 0.100000000000D+01
0.148571810413D-03 0.000000000000D+00 0.000000000000D+00 0.144695771752D-05 0.000000000000D+00  6 -2 1 25 -24 1 -1 4 0.24808811D+00 0.95499932D-02 0.38290740D+05 0.38290740D+05 0.38290740D+05 0.12039311D+01  3  4 12  6  5  2       21 0.139388552535D-02 0.100000000000D+01
-.327591771178D-03 0.000000000000D+00 -.334863315757D-05 0.144986450920D-05 0.000000000000D+00  6 -2 1 25 -24 1 -1 4 0.24808811D+00 0.88374142D-02 0.37262207D+05 0.37262207D+05 0.37262207D+05 0.12051397D+01  3  4  5  6  5  2       21 -.342659627026D-02 0.100000000000D+01
0.646368933208D-04 0.000000000000D+00 0.000000000000D+00 0.144986450920D-05 0.167473304531D-06  6 -2 1 25 -24 1 -1 4 0.24829738D+00 0.88333120D-02 0.38290740D+05 0.38290740D+05 0.38290740D+05 0.12039311D+01  3  4 11  6  5  2       21 0.671627338280D-03 0.100000000000D+01
0.142090787319D-03 0.000000000000D+00 0.000000000000D+00 0.144695771752D-05 0.000000000000D+00  6 -2 -2 25 -24 -1 -2 4 0.24808811D+00 0.88361777D-02 0.38290740D+05 0.38290740D+05 0.38290740D+05 0.12039311D+01  1  2 12  7  6  2       21 0.116352617144D-02 0.100000000000D+01
0.148571810413D-03 0.000000000000D+00 0.000000000000D+00 0.144695771752D-05 0.000000000000D+00  6 -2 -2 25 -24 -1 -2 4 0.24808811D+00 0.95499932D-02 0.38290740D+05 0.38290740D+05 0.38290740D+05 0.12039311D+01  1  2 12  7  6  2       21 0.107655136357D-02 0.100000000000D+01
-.327591771178D-03 0.000000000000D+00 -.334863315757D-05 0.144986450920D-05 0.000000000000D+00  6 -2 -2 25 -24 -1 -2 4 0.24808811D+00 0.88374142D-02 0.37262207D+05 0.37262207D+05 0.37262207D+05 0.12051397D+01  1  2  5  7  6  2       21 -.269375096037D-02 0.100000000000D+01
0.291305962145D-04 0.000000000000D+00 0.000000000000D+00 0.144986450920D-05 0.213545424007D-07  6 -2 -2 25 -24 -1 -2 4 0.24829738D+00 0.88333120D-02 0.38290740D+05 0.38290740D+05 0.38290740D+05 0.12039311D+01  1  2 11  7  6  2       21 0.237989385826D-03 0.100000000000D+01
0.142090787319D-03 0.000000000000D+00 0.000000000000D+00 0.144695771752D-05 0.000000000000D+00  6 -2 2 25 -24 2 -1 4 0.24808811D+00 0.88361777D-02 0.38290740D+05 0.38290740D+05 0.38290740D+05 0.12039311D+01  3  4 12  8  5  2       21 0.166234869713D-02 0.100000000000D+01
0.148571810413D-03 0.000000000000D+00 0.000000000000D+00 0.144695771752D-05 0.000000000000D+00  6 -2 2 25 -24 2 -1 4 0.24808811D+00 0.95499932D-02 0.38290740D+05 0.38290740D+05 0.38290740D+05 0.12039311D+01  3  4 12  8  5  2       21 0.157725042821D-02 0.100000000000D+01
-.327591771178D-03 0.000000000000D+00 -.334863315757D-05 0.144986450920D-05 0.000000000000D+00  6 -2 2 25 -24 2 -1 4 0.24808811D+00 0.88374142D-02 0.37262207D+05 0.37262207D+05 0.37262207D+05 0.12051397D+01  3  4  5  8  5  2       21 -.384896230366D-02 0.100000000000D+01
0.291772913558D-04 0.000000000000D+00 0.000000000000D+00 0.144986450920D-05 0.213801639034D-07  6 -2 2 25 -24 2 -1 4 0.24829738D+00 0.88333120D-02 0.38290740D+05 0.38290740D+05 0.38290740D+05 0.12039311D+01  3  4 11  8  5  2       21 0.340529717399D-03 0.100000000000D+01
0.142090787319D-03 0.000000000000D+00 0.000000000000D+00 0.144695771752D-05 0.000000000000D+00  6 -2 -3 25 -24 -1 -3 4 0.24808811D+00 0.88361777D-02 0.38290740D+05 0.38290740D+05 0.38290740D+05 0.12039311D+01  1  2 12  9  6  2       21 0.820106213978D-03 0.100000000000D+01
0.142090787319D-03 0.000000000000D+00 0.000000000000D+00 0.144695771752D-05 0.000000000000D+00  6 -2 -4 25 -24 -1 -4 4 0.24808811D+00 0.88361777D-02 0.38290740D+05 0.38290740D+05 0.38290740D+05 0.12039311D+01  1  2 12  9  6  2       21 0.723724417378D-03 0.100000000000D+01
0.148571810413D-03 0.000000000000D+00 0.000000000000D+00 0.144695771752D-05 0.000000000000D+00  6 -2 -3 25 -24 -1 -3 4 0.24808811D+00 0.95499932D-02 0.38290740D+05 0.38290740D+05 0.38290740D+05 0.12039311D+01  1  2 12  9  6  2       21 0.754031383852D-03 0.100000000000D+01
0.148571810413D-03 0.000000000000D+00 0.000000000000D+00 0.144695771752D-05 0.000000000000D+00  6 -2 -4 25 -24 -1 -4 4 0.24808811D+00 0.95499932D-02 0.38290740D+05 0.38290740D+05 0.38290740D+05 0.12039311D+01  1  2 12  9  6  2       21 0.663813640377D-03 0.100000000000D+01
-.327591771178D-03 0.000000000000D+00 -.334863315757D-05 0.144986450920D-05 0.000000000000D+00  6 -2 -3 25 -24 -1 -3 4 0.24808811D+00 0.88374142D-02 0.37262207D+05 0.37262207D+05 0.37262207D+05 0.12051397D+01  1  2  5  9  6  2       21 -.189762735786D-02 0.100000000000D+01
-.327591771178D-03 0.000000000000D+00 -.334863315757D-05 0.144986450920D-05 0.000000000000D+00  6 -2 -4 25 -24 -1 -4 4 0.24808811D+00 0.88374142D-02 0.37262207D+05 0.37262207D+05 0.37262207D+05 0.12051397D+01  1  2  5  9  6  2       21 -.167419830547D-02 0.100000000000D+01
0.291815379778D-04 0.000000000000D+00 0.000000000000D+00 0.144986450920D-05 0.213832756890D-07  6 -2 -3 25 -24 -1 -3 4 0.24829738D+00 0.88333120D-02 0.38290740D+05 0.38290740D+05 0.38290740D+05 0.12039311D+01  1  2 11  9  6  2       21 0.168043525909D-03 0.100000000000D+01
0.291815379778D-04 0.000000000000D+00 0.000000000000D+00 0.144986450920D-05 0.213832756890D-07  6 -2 -4 25 -24 -1 -4 4 0.24829738D+00 0.88333120D-02 0.38290740D+05 0.38290740D+05 0.38290740D+05 0.12039311D+01  1  2 11  9  6  2       21 0.148295929769D-03 0.100000000000D+01
0.142090787319D-03 0.000000000000D+00 0.000000000000D+00 0.144695771752D-05 0.000000000000D+00  6 -2 3 25 -24 3 -1 4 0.24808811D+00 0.88361777D-02 0.38290740D+05 0.38290740D+05 0.38290740D+05 0.12039311D+01  3  4 12 10  5  2       21 0.820010714788D-03 0.100000000000D+01
0.142090787319D-03 0.000000000000D+00 0.000000000000D+00 0.144695771752D-05 0.000000000000D+00  6 -2 4 25 -24 4 -1 4 0.24808811D+00 0.88361777D-02 0.38290740D+05 0.38290740D+05 0.38290740D+05 0.12039311D+01  3  4 12 10  5  2       21 0.723724417378D-03 0.100000000000D+01
0.148571810413D-03 0.000000000000D+00 0.000000000000D+00 0.144695771752D-05 0.000000000000D+00  6 -2 3 25 -24 3 -1 4 0.24808811D+00 0.95499932D-02 0.38290740D+05 0.38290740D+05 0.38290740D+05 0.12039311D+01  3  4 12 10  5  2       21 0.753942211880D-03 0.100000000000D+01
0.148571810413D-03 0.000000000000D+00 0.000000000000D+00 0.144695771752D-05 0.000000000000D+00  6 -2 4 25 -24 4 -1 4 0.24808811D+00 0.95499932D-02 0.38290740D+05 0.38290740D+05 0.38290740D+05 0.12039311D+01  3  4 12 10  5  2       21 0.663813640377D-03 0.100000000000D+01
-.327591771178D-03 0.000000000000D+00 -.334863315757D-05 0.144986450920D-05 0.000000000000D+00  6 -2 3 25 -24 3 -1 4 0.24808811D+00 0.88374142D-02 0.37262207D+05 0.37262207D+05 0.37262207D+05 0.12051397D+01  3  4  5 10  5  2       21 -.189740585302D-02 0.100000000000D+01
-.327591771178D-03 0.000000000000D+00 -.334863315757D-05 0.144986450920D-05 0.000000000000D+00  6 -2 4 25 -24 4 -1 4 0.24808811D+00 0.88374142D-02 0.37262207D+05 0.37262207D+05 0.37262207D+05 0.12051397D+01  3  4  5 10  5  2       21 -.167419830547D-02 0.100000000000D+01
0.291815379778D-04 0.000000000000D+00 0.000000000000D+00 0.144986450920D-05 0.213832756890D-07  6 -2 3 25 -24 3 -1 4 0.24829738D+00 0.88333120D-02 0.38290740D+05 0.38290740D+05 0.38290740D+05 0.12039311D+01  3  4 11 10  5  2       21 0.168023959143D-03 0.100000000000D+01
0.291815379778D-04 0.000000000000D+00 0.000000000000D+00 0.144986450920D-05 0.213832756890D-07  6 -2 4 25 -24 4 -1 4 0.24829738D+00 0.88333120D-02 0.38290740D+05 0.38290740D+05 0.38290740D+05 0.12039311D+01  3  4 11 10  5  2       21 0.148295929769D-03 0.100000000000D+01
  </mgrwgt>
  </event>
  <event>
  5     66 0.49224707E-03 0.34550506E+02 0.75467711E-02 0.11777940E+00
       -2 -1    0    0    0  501 0.00000000E+00 0.00000000E+00 0.13009176E+03 0.13009215E+03 0.32000000E+00 0.0000E+00 0.9000E+01
       21 -1    0    0  501  502 0.00000000E+00 0.00000000E+00 -.25230437E+03 0.25230549E+03 0.75000000E+00 0.0000E+00 0.9000E+01
       25  1    1    2    0    0 0.53704019E+02 -.81113975E+02 0.12803402E+02 0.15891043E+03 0.12500000E+03 0.0000E+00 0.9000E+01
      -24  1    1    2    0    0 -.87706748E+02 0.74990499E+02 -.90974494E+02 0.16751007E+03 0.80419002E+02 0.0000E+00 0.9000E+01
       -1  1    1    2    0  502 0.34002729E+02 0.61234760E+01 -.44041519E+02 0.55977141E+02 0.32000000E+00 0.0000E+00 0.9000E+01
#aMCatNLO 1  0  0  1  2 0.63888533D+01 0.00000000D+00  -5  6  0 0.00000000D+00 0.00000000D+00 0.00000000D+00 0.00000000D+00 0.00000000D+00
  <mgrwgt>
 0.1522279670D-01    6    4    0
 0.181171213738349D+03 0.000000000000000D+00 0.000000000000000D+00 0.181171213738349D+03
 0.181171213738349D+03 0.000000000000000D+00 0.000000000000000D+00 -.181171213738349D+03
 0.172024364241572D+03 0.537035958858336D+02 -.811140509671759D+02 0.671104791917220D+02
 0.146097333195734D+03 -.877071068404433D+02 0.749904341871988D+02 -.395109225737531D+02
 0.442207300393916D+02 0.340035109546097D+02 0.612361677997700D+01 -.275995566179689D+02
 0.000000000000000D+00 -.000000000000000D+00 0.000000000000000D+00 -.000000000000000D+00
 0.182389915685330D+03 0.000000000000000D+00 0.000000000000000D+00 0.182389915685330D+03
 0.189770564250835D+03 0.000000000000000D+00 0.000000000000000D+00 -.189770564250835D+03
 0.173555912440215D+03 0.539599166331429D+02 -.841496626407810D+02 0.671104791917220D+02
 0.144672375458293D+03 -.874914397030338D+02 0.724362840186877D+02 -.395109225737531D+02
 0.441704596109568D+02 0.340690716862703D+02 0.534717973986920D+01 -.275995566179689D+02
 0.976173242670052D+01 -.537548616379388D+00 0.636619888222414D+01 -.738064856550514D+01
 0.181171213738349D+03 0.000000000000000D+00 0.000000000000000D+00 0.181171213738349D+03
 0.181171213738349D+03 0.000000000000000D+00 0.000000000000000D+00 -.181171213738349D+03
 0.172024364241572D+03 0.537035958858336D+02 -.811140509671759D+02 0.671104791917220D+02
 0.146097333195734D+03 -.877071068404433D+02 0.749904341871988D+02 -.395109225737531D+02
 0.000000000000000D+00 -.000000000000000D+00 0.000000000000000D+00 -.000000000000000D+00
 0.442207300393916D+02 0.340035109546097D+02 0.612361677997700D+01 -.275995566179689D+02
 0.182389915685330D+03 0.000000000000000D+00 0.000000000000000D+00 0.182389915685330D+03
 0.189770564250835D+03 0.000000000000000D+00 0.000000000000000D+00 -.189770564250835D+03
 0.173555912440215D+03 0.539599166331429D+02 -.841496626407810D+02 0.671104791917220D+02
 0.144672375458293D+03 -.874914397030338D+02 0.724362840186877D+02 -.395109225737531D+02
 0.976173242670052D+01 -.537548616379388D+00 0.636619888222414D+01 -.738064856550514D+01
 0.441704596109568D+02 0.340690716862703D+02 0.534717973986920D+01 -.275995566179689D+02
0.113600282901D-04 0.000000000000D+00 0.000000000000D+00 0.476602345269D-06 0.000000000000D+00  6 -2 21 25 -24 -1 21 2 0.20014233D-01 0.38816173D-01 0.27821805D+05 0.27821805D+05 0.27821805D+05 0.12183492D+01  1  2  2  1  6  1       -2 0.180627307487D-01 0.100000000000D+01
0.511286484441D-06 0.599485162793D-06 -.229326241485D-07 0.476602345269D-06 0.000000000000D+00  6 -2 21 25 -24 -1 21 4 0.20014233D-01 0.38816173D-01 0.27821805D+05 0.27821805D+05 0.27821805D+05 0.12183492D+01  1  2  3  1  6  1       -2 0.120673497837D-02 0.100000000000D+01
0.110912209231D-05 0.000000000000D+00 0.000000000000D+00 0.476602345269D-06 0.000000000000D+00  6 -2 21 25 -24 -1 21 4 0.20014233D-01 0.38816173D-01 0.27821805D+05 0.27821805D+05 0.27821805D+05 0.12183492D+01  1  2 15  1  6  1       -2 0.261774262534D-02 0.100000000000D+01
-.352479007109D-05 0.000000000000D+00 0.000000000000D+00 0.476602345269D-06 0.000000000000D+00  6 -2 21 25 -24 -1 21 4 0.20014233D-01 0.38816173D-01 0.27821805D+05 0.27821805D+05 0.27821805D+05 0.12183492D+01  1  2  4  1  6  1       -2 -.831918620900D-02 0.100000000000D+01
0.700704364528D-06 0.000000000000D+00 0.000000000000D+00 0.476602345269D-06 0.162083606454D-06  6 -2 21 25 -24 -1 21 4 0.20148865D-01 0.40658596D-01 0.28917551D+05 0.28917551D+05 0.28917551D+05 0.12165770D+01  1  2 11  1  6  1       -2 0.148032776690D-02 0.100000000000D+01
0.595579972984D-08 0.000000000000D+00 0.000000000000D+00 0.475216805322D-06 0.363700350898D-09  6 21 21 25 -24 2 -1 4 0.20148865D-01 0.40658596D-01 0.28917551D+05 0.28917551D+05 0.28917551D+05 0.12165770D+01  3  4 11  4  5  1       -2 0.174446791964D-03 0.100000000000D+01
  </mgrwgt>
  </event>
  <event>
  6     66 -.49224707E-03 0.57615317E+02 0.75467711E-02 0.11705275E+00
       -2 -1    0    0    0  501 0.00000000E+00 0.00000000E+00 0.42303763E+02 0.42304974E+02 0.32000000E+00 0.0000E+00 0.9000E+01
       21 -1    0    0  503  502 0.00000000E+00 0.00000000E+00 -.17555730E+04 0.17555732E+04 0.75000000E+00 0.0000E+00 0.9000E+01
       25  1    1    2    0    0 -.62930466E+02 0.52317843E+01 -.56020109E+03 0.57744080E+03 0.12500000E+03 0.0000E+00 0.9000E+01
      -24  1    1    2    0    0 0.10851340E+03 -.29387205E+02 -.11601212E+03 0.18045718E+03 0.80419002E+02 0.0000E+00 0.9000E+01
       -1  1    1    2    0  502 -.57347608E+02 0.27949317E+02 -.93531072E+03 0.93748395E+03 0.32000000E+00 0.0000E+00 0.9000E+01
       21  1    1    2  503  501 0.11764671E+02 -.37938961E+01 -.10174532E+03 0.10249621E+03 0.75000000E+00 0.0000E+00 0.9000E+01
#aMCatNLO 2  0  0  2  1 0.12361276D+02 0.00000000D+00  -5  6  0 0.00000000D+00 0.00000000D+00 0.00000000D+00 0.00000000D+00 0.00000000D+00
  <mgrwgt>
 -.5512134944D-02    3    2    0
 0.263228855232067D+03 0.000000000000000D+00 0.000000000000000D+00 0.263228855232067D+03
 0.263228855232067D+03 0.000000000000000D+00 0.000000000000000D+00 -.263228855232067D+03
 0.143306881423584D+03 -.597127313981844D+02 0.419411677262307D+01 -.364508073548311D+02
 0.228652224348542D+03 0.113592250763083D+03 -.310250515437060D+02 0.178742469739155D+03
 0.154498604692007D+03 -.538795193648982D+02 0.268309347710829D+02 -.142291662384324D+03
 0.000000000000000D+00 0.000000000000000D+00 -.000000000000000D+00 -.000000000000000D+00
 0.265651591935951D+03 0.000000000000000D+00 0.000000000000000D+00 0.265651591935951D+03
 0.279555561279344D+03 0.000000000000000D+00 0.000000000000000D+00 -.279555561279344D+03
 0.144710995713889D+03 -.629304340016040D+02 0.523176834884940D+01 -.364508073548311D+02
 0.225953235659024D+03 0.108513450840198D+03 -.293872293472984D+02 0.178742469739155D+03
 0.155938581039208D+03 -.573476879058697D+02 0.279493571353291D+02 -.142291662384324D+03
 0.186043408031742D+02 0.117646710672755D+02 -.379389613688012D+01 -.139039693433937D+02
-.102028774385D-03 0.000000000000D+00 0.000000000000D+00 0.398441242823D-06 0.000000000000D+00  6 -2 21 25 -24 -1 21 4 0.64488382D-02 0.27120655D+00 0.31404571D+05 0.31404571D+05 0.31404571D+05 0.12128183D+01  1  2 13  2  6  2       21 -.115472913282D-01 0.100000000000D+01
-.163505862068D-04 0.000000000000D+00 0.000000000000D+00 0.400689117358D-06 0.000000000000D+00  6 -2 21 25 -24 -1 21 4 0.64488382D-02 0.25430728D+00 0.29134721D+05 0.29134721D+05 0.29134721D+05 0.12162347D+01  1  2  8  2  6  2       21 -.235676271814D-02 0.100000000000D+01
0.740826859013D-04 0.000000000000D+00 0.000000000000D+00 0.400689117358D-06 0.243118081641D-07  6 -2 21 25 -24 -1 21 4 0.65081928D-02 0.27008063D+00 0.31404571D+05 0.31404571D+05 0.31404571D+05 0.12128183D+01  1  2  1  2  6  2       21 0.839191910222D-02 0.100000000000D+01
  </mgrwgt>
  </event>
  <event>
  6     66 0.49224707E-03 0.18593901E+02 0.75467711E-02 0.12257263E+00
       -2 -1    0    0    0  501 0.00000000E+00 0.00000000E+00 0.23236533E+04 0.23236533E+04 0.32000000E+00 0.0000E+00 0.9000E+01
       21 -1    0    0  503  502 0.00000000E+00 0.00000000E+00 -.21587359E+02 0.21600383E+02 0.75000000E+00 0.0000E+00 0.9000E+01
       25  1    1    2    0    0 -.44998457E+02 -.21216903E+02 0.58951396E+03 0.60467076E+03 0.12500000E+03 0.0000E+00 0.9000E+01
      -24  1    1    2    0    0 0.58527461E+02 0.32144640E+02 0.17138388E+04 0.17170234E+04 0.80419002E+02 0.0000E+00 0.9000E+01
       -1  1    1    2    0  502 -.16616690E+02 -.11408892E+02 -.17704242E+00 0.20159636E+02 0.32000000E+00 0.0000E+00 0.9000E+01
       21  1    1    2  503  501 0.30876867E+01 0.48115484E+00 -.11097650E+01 0.33999114E+01 0.75000000E+00 0.0000E+00 0.9000E+01
#aMCatNLO 2  0  0  2  5 0.11929092D+02 0.00000000D+00  -5  6  0 0.00000000D+00 0.00000000D+00 0.00000000D+00 0.00000000D+00 0.00000000D+00
  <mgrwgt>
 0.4220799578D+00    1    2    0
 0.211926341204171D+03 0.000000000000000D+00 0.000000000000000D+00 0.211926341204171D+03
 0.211926341204171D+03 0.000000000000000D+00 0.000000000000000D+00 -.211926341204171D+03
 0.137187087081943D+03 -.439977997962676D+02 -.210609586236854D+02 -.285644271247942D+02
 0.174452471451408D+03 0.597966188225542D+02 0.323424279376299D+02 0.139085515326446D+03
 0.112213123874991D+03 -.157988190262866D+02 -.112814693139445D+02 -.110521088201652D+03
 0.000000000000000D+00 0.000000000000000D+00 0.000000000000000D+00 -.000000000000000D+00
 0.212030924532467D+03 0.000000000000000D+00 0.000000000000000D+00 0.212030924532467D+03
 0.236636026884865D+03 0.000000000000000D+00 0.000000000000000D+00 -.236636026884865D+03
 0.137535239497486D+03 -.449984363019021D+02 -.212168880151370D+02 -.285644271247942D+02
 0.173984890776500D+03 0.585274859169277D+02 0.321446586972201D+02 0.139085515326446D+03
 0.112344071686494D+03 -.166167362675952D+02 -.114089255250430D+02 -.110521088201652D+03
 0.248027494568520D+02 0.308768665256966D+01 0.481154842959910D+00 -.246051023523986D+02
0.229914597549D-02 0.000000000000D+00 0.000000000000D+00 0.366900345044D-05 0.490392093399D-05  6 -2 21 25 -24 -1 21 4 0.35747658D+00 0.33220470D-02 0.17206218D+05 0.17206218D+05 0.17206218D+05 0.12410854D+01  1  2  1  2  6  2       21 0.422079957777D+00 0.100000000000D+01
  </mgrwgt>
  </event>
  <event>
  5     66 0.49224707E-03 0.70324274E+02 0.75467711E-02 0.10764565E+00
       -4 -1    0    0    0  501 0.00000000E+00 0.00000000E+00 0.16598123E+03 0.16598847E+03 0.15500000E+01 0.0000E+00 0.9000E+01
       21 -1    0    0  501  502 0.00000000E+00 0.00000000E+00 -.23423841E+03 0.23423961E+03 0.75000000E+00 0.0000E+00 0.9000E+01
       25  1    1    2    0    0 -.27924380E+02 -.19792186E+02 -.10737011E+03 0.16829986E+03 0.12500000E+03 0.0000E+00 0.9000E+01
      -24  1    1    2    0    0 -.10446948E+01 0.83871326E+02 0.88439999E+02 0.14602856E+03 0.80419002E+02 0.0000E+00 0.9000E+01
       -3  1    1    2    0  502 0.28969074E+02 -.64079140E+02 -.49327066E+02 0.85899668E+02 0.50000000E+00 0.0000E+00 0.9000E+01
#aMCatNLO 1  0  0  1  2 0.76789669D+02 0.00000000D+00  -5  6  0 0.00000000D+00 0.00000000D+00 0.00000000D+00 0.00000000D+00 0.00000000D+00
  <mgrwgt>
 0.6835668638D-02    5    4    0
 0.197182325907301D+03 0.000000000000000D+00 0.000000000000000D+00 0.197182325907301D+03
 0.197182325907301D+03 0.000000000000000D+00 0.000000000000000D+00 -.197182325907301D+03
 0.152218215352684D+03 -.279246055337636D+02 -.197916864292482D+02 -.798366497244593D+02
 0.163507521693476D+03 -.104493756418660D+01 0.838718634916638D+02 0.115030049621368D+03
 0.786389147684421D+02 0.289695430979502D+02 -.640801770624157D+02 -.351933998969092D+02
 0.000000000000000D+00 0.000000000000000D+00 0.000000000000000D+00 0.000000000000000D+00
 0.421382812963200D+03 0.000000000000000D+00 0.000000000000000D+00 0.421382812963200D+03
 0.315581331449866D+03 0.000000000000000D+00 0.000000000000000D+00 -.315581331449866D+03
 0.198234023138155D+03 -.660443773184782D+02 -.113736438817676D+03 -.798366497244593D+02
 0.144550089520978D+03 -.345533148729144D+02 0.129172038417715D+01 0.115030049621368D+03
 0.123619633352428D+03 0.696925647094143D+01 -.118299060935103D+03 -.351933998969092D+02
 0.270560398401505D+03 0.936284357204512D+02 0.230743779368602D+03 0.105801481513333D+03
 0.197182325907301D+03 0.000000000000000D+00 0.000000000000000D+00 0.197182325907301D+03
 0.197182325907301D+03 0.000000000000000D+00 0.000000000000000D+00 -.197182325907301D+03
 0.152218215352684D+03 -.279246055337636D+02 -.197916864292482D+02 -.798366497244593D+02
 0.163507521693476D+03 -.104493756418660D+01 0.838718634916638D+02 0.115030049621368D+03
 0.000000000000000D+00 0.000000000000000D+00 0.000000000000000D+00 0.000000000000000D+00
 0.786389147684421D+02 0.289695430979502D+02 -.640801770624157D+02 -.351933998969092D+02
 0.421382812963200D+03 0.000000000000000D+00 0.000000000000000D+00 0.421382812963200D+03
 0.315581331449866D+03 0.000000000000000D+00 0.000000000000000D+00 -.315581331449866D+03
 0.198234023138155D+03 -.660443773184782D+02 -.113736438817676D+03 -.798366497244593D+02
 0.144550089520978D+03 -.345533148729144D+02 0.129172038417715D+01 0.115030049621368D+03
 0.270560398401505D+03 0.936284357204512D+02 0.230743779368602D+03 0.105801481513333D+03
 0.123619633352428D+03 0.696925647094143D+01 -.118299060935103D+03 -.351933998969092D+02
0.718197717667D-05 0.000000000000D+00 0.000000000000D+00 0.166234105089D-06 0.000000000000D+00  6 -4 21 25 -24 -3 21 2 0.25536224D-01 0.36037328D-01 0.24984086D+05 0.24984086D+05 0.24984086D+05 0.12233273D+01  1  2  2  1  6  1       -4 0.479174342503D-02 0.100000000000D+01
-.334753370975D-06 0.379003348142D-06 -.144983427004D-07 0.166234105089D-06 0.000000000000D+00  6 -4 21 25 -24 -3 21 4 0.25536224D-01 0.36037328D-01 0.24984086D+05 0.24984086D+05 0.24984086D+05 0.12233273D+01  1  2  3  1  6  1       -4 -.334241078504D-03 0.100000000000D+01
0.836425483026D-06 0.000000000000D+00 0.000000000000D+00 0.166234105089D-06 0.000000000000D+00  6 -4 21 25 -24 -3 21 4 0.25536224D-01 0.36037328D-01 0.24984086D+05 0.24984086D+05 0.24984086D+05 0.12233273D+01  1  2 15  1  6  1       -4 0.835145452667D-03 0.100000000000D+01
0.289849991388D-05 0.000000000000D+00 -.448771114221D-05 0.166234105089D-06 0.000000000000D+00  6 -4 21 25 -24 -3 21 4 0.82459791D-01 0.36037328D-01 0.24984086D+05 0.24984086D+05 0.24984086D+05 0.12233273D+01  1  2  5  1  6  1       -4 0.269442619531D-03 0.100000000000D+01
0.581303324178D-06 0.000000000000D+00 -.606828881827D-06 0.166234105089D-06 0.000000000000D+00  6 21 21 25 -24 4 -3 4 0.82459791D-01 0.36037328D-01 0.24984086D+05 0.24984086D+05 0.24984086D+05 0.12233273D+01  3  4  5  4  5  1       -4 0.127357821882D-02 0.100000000000D+01
  </mgrwgt>
  </event>
</LesHouchesEvents>
