<event>
 5    0  0.1257040E+001  0.2177820E+03  0.7546771E-02  0.1135548E+00
         21   -1    0    0  502  501  0.00000000000E+00  0.00000000000E+00  0.43271771982E+03  0.43271771982E+03  0.00000000000E+00 0.  1.
         21   -1    0    0  504  502 -0.00000000000E+00 -0.00000000000E+00 -0.22941775690E+03  0.22941775690E+03  0.00000000000E+00 0.  1.
         25    1    1    2    0    0 -0.72606614302E+02 -0.19759037807E+03  0.17544394477E+03  0.30119637398E+03  0.12500000000E+03 0.  0.
         21    1    1    2  503  501 -0.52117722916E+02  0.74881005999E+02  0.12963630710E+03  0.15852127371E+03  0.00000000000E+00 0.  1.
         21    1    1    2  504  503  0.12472433722E+03  0.12270937207E+03 -0.10178028895E+03  0.20241782902E+03  0.00000000000E+00 0.  1.
<mgrwt>
<rscale>  4 0.21778201E+03</rscale>
<asrwt>0</asrwt>
<pdfrwt beam="1">  1       21 0.66571957E-01 0.21778201E+03</pdfrwt>
<pdfrwt beam="2">  1       21 0.35295040E-01 0.21778201E+03</pdfrwt>
<totfact> 0.15765117E+04</totfact>
</mgrwt>
</event>
<event>
 5    0  0.1257040E+001  0.3556270E+03  0.7546771E-02  0.1060329E+00
         21   -1    0    0  502  501  0.00000000000E+00  0.00000000000E+00  0.10800036712E+04  0.10800036712E+04  0.00000000000E+00 0. -1.
         21   -1    0    0  504  502 -0.00000000000E+00 -0.00000000000E+00 -0.55566852860E+03  0.55566852860E+03  0.00000000000E+00 0. -1.
         25    1    1    2    0    0 -0.35497646157E+03 -0.11728787947E+03  0.88277481054E+03  0.96678906751E+03  0.12500000000E+03 0.  0.
         21    1    1    2  503  501  0.53146908123E+02 -0.17724192554E+02  0.93441193802E+02  0.10894951833E+03  0.00000000000E+00 0.  1.
         21    1    1    2  504  503  0.30182955344E+03  0.13501207202E+03 -0.45188086170E+03  0.55993361400E+03  0.00000000000E+00 0. -1.
<mgrwt>
<rscale>  4 0.35562701E+03</rscale>
<asrwt>0</asrwt>
<pdfrwt beam="1">  1       21 0.16615441E+00 0.35562701E+03</pdfrwt>
<pdfrwt beam="2">  1       21 0.85487466E-01 0.35562701E+03</pdfrwt>
<totfact> 0.23164484E+02</totfact>
</mgrwt>
</event>
<event>
 5    0  0.1257040E+001  0.3060034E+03  0.7546771E-02  0.1082277E+00
         21   -1    0    0  502  501  0.00000000000E+00  0.00000000000E+00  0.13080776666E+04  0.13080776666E+04  0.00000000000E+00 0.  1.
         21   -1    0    0  504  502 -0.00000000000E+00 -0.00000000000E+00 -0.15432497916E+03  0.15432497916E+03  0.00000000000E+00 0.  1.
         25    1    1    2    0    0  0.90793112841E+02  0.25616808260E+03  0.72953991128E+03  0.78849157131E+03  0.12500000000E+03 0.  0.
         21    1    1    2  503  501 -0.16420412650E+03 -0.24493979517E+03  0.49184064883E+03  0.57346815278E+03  0.00000000000E+00 0.  1.
         21    1    1    2  504  503  0.73411013657E+02 -0.11228287432E+02 -0.67627872620E+02  0.10044292170E+03  0.00000000000E+00 0.  1.
<mgrwt>
<rscale>  4 0.30600339E+03</rscale>
<asrwt>0</asrwt>
<pdfrwt beam="1">  1       21 0.20124271E+00 0.30600339E+03</pdfrwt>
<pdfrwt beam="2">  1       21 0.23742305E-01 0.30600339E+03</pdfrwt>
<totfact> 0.20062680E+03</totfact>
</mgrwt>
</event>
<event>
 5    0  0.1257040E+001  0.2646500E+03  0.7546771E-02  0.1104381E+00
         21   -1    0    0  502  501  0.00000000000E+00  0.00000000000E+00  0.32916059722E+03  0.32916059722E+03  0.00000000000E+00 0. -1.
         21   -1    0    0  504  502 -0.00000000000E+00 -0.00000000000E+00 -0.27083624972E+03  0.27083624972E+03  0.00000000000E+00 0.  1.
         25    1    1    2    0    0  0.86866642273E+02 -0.20201135016E+03  0.18103275037E+03  0.31105024649E+03  0.12500000000E+03 0.  0.
         21    1    1    2  503  501  0.16620201101E+02 -0.11420703320E+02  0.31755669247E+01  0.20414401148E+02  0.00000000000E+00 0.  1.
         21    1    1    2  504  503 -0.10348684337E+03  0.21343205348E+03 -0.12588396980E+03  0.26853219929E+03  0.00000000000E+00 0.  1.
<mgrwt>
<rscale>  4 0.26464996E+03</rscale>
<asrwt>0</asrwt>
<pdfrwt beam="1">  1       21 0.50640092E-01 0.26464996E+03</pdfrwt>
<pdfrwt beam="2">  1       21 0.41667115E-01 0.26464996E+03</pdfrwt>
<totfact> 0.19806610E+04</totfact>
</mgrwt>
</event>
<event>
 5    0  0.1257040E+001  0.3279308E+03  0.7546771E-02  0.1072056E+00
         21   -1    0    0  504  501  0.00000000000E+00  0.00000000000E+00  0.20377916303E+03  0.20377916303E+03  0.00000000000E+00 0. -1.
         21   -1    0    0  503  502 -0.00000000000E+00 -0.00000000000E+00 -0.51694449811E+03  0.51694449811E+03  0.00000000000E+00 0. -1.
         25    1    1    2    0    0  0.29175095092E+03  0.82431558744E+02 -0.18575068575E+03  0.37688446041E+03  0.12500000000E+03 0.  0.
         21    1    1    2  503  501 -0.25073416392E+03 -0.78669861924E+02 -0.14374438706E+03  0.29953132882E+03  0.00000000000E+00 0. -1.
         21    1    1    2  504  502 -0.41016787002E+02 -0.37616968204E+01  0.16329737742E+02  0.44307871915E+02  0.00000000000E+00 0. -1.
<mgrwt>
<rscale>  4 0.32793075E+03</rscale>
<asrwt>0</asrwt>
<pdfrwt beam="1">  1       21 0.31350641E-01 0.32793075E+03</pdfrwt>
<pdfrwt beam="2">  1       21 0.79529921E-01 0.32793075E+03</pdfrwt>
<totfact> 0.12708615E+04</totfact>
</mgrwt>
</event>
<event>
 5    0  0.1257040E+001  0.3293683E+03  0.7546771E-02  0.1071417E+00
         21   -1    0    0  503  501  0.00000000000E+00  0.00000000000E+00  0.30244650096E+03  0.30244650096E+03  0.00000000000E+00 0.  1.
         21   -1    0    0  504  502 -0.00000000000E+00 -0.00000000000E+00 -0.81246932525E+03  0.81246932525E+03  0.00000000000E+00 0.  1.
         25    1    1    2    0    0  0.16456858340E+03  0.23159812022E+03 -0.58130669332E+03  0.65898632734E+03  0.12500000000E+03 0.  0.
         21    1    1    2  503  502  0.14709091713E+01  0.27548868217E+02 -0.99976512317E+02  0.10371309816E+03  0.00000000000E+00 0.  1.
         21    1    1    2  504  501 -0.16603949257E+03 -0.25914698843E+03  0.17126038134E+03  0.35221640070E+03  0.00000000000E+00 0.  1.
<mgrwt>
<rscale>  4 0.32936829E+03</rscale>
<asrwt>0</asrwt>
<pdfrwt beam="1">  1       21 0.46530231E-01 0.32936829E+03</pdfrwt>
<pdfrwt beam="2">  1       21 0.12499528E+00 0.32936829E+03</pdfrwt>
<totfact> 0.19141856E+03</totfact>
</mgrwt>
</event>
<event>
 5    0  0.1257040E+001  0.3327802E+03  0.7546771E-02  0.1069913E+00
         21   -1    0    0  503  501  0.00000000000E+00  0.00000000000E+00  0.71341657602E+03  0.71341657602E+03  0.00000000000E+00 0. -1.
         21   -1    0    0  504  502 -0.00000000000E+00 -0.00000000000E+00 -0.40489708810E+03  0.40489708810E+03  0.00000000000E+00 0. -1.
         25    1    1    2    0    0 -0.13957126333E+03  0.16824227903E+03 -0.26396516406E+03  0.36481256810E+03  0.12500000000E+03 0.  0.
         21    1    1    2  503  502 -0.35597939108E+02  0.10046563997E+03  0.11390967557E+02  0.10719287395E+03  0.00000000000E+00 0.  1.
         21    1    1    2  504  501  0.17516920244E+03 -0.26870791900E+03  0.56109368443E+03  0.64630822207E+03  0.00000000000E+00 0. -1.
<mgrwt>
<rscale>  4 0.33278023E+03</rscale>
<asrwt>0</asrwt>
<pdfrwt beam="1">  1       21 0.10975640E+00 0.33278023E+03</pdfrwt>
<pdfrwt beam="2">  1       21 0.62291860E-01 0.33278023E+03</pdfrwt>
<totfact> 0.14170413E+03</totfact>
</mgrwt>
</event>
<event>
 5    0  0.1257040E+001  0.2820563E+03  0.7546771E-02  0.1094571E+00
         21   -1    0    0  502  501  0.00000000000E+00  0.00000000000E+00  0.15979411863E+04  0.15979411863E+04  0.00000000000E+00 0.  1.
         21   -1    0    0  504  502 -0.00000000000E+00 -0.00000000000E+00 -0.85109565230E+02  0.85109565230E+02  0.00000000000E+00 0.  1.
         25    1    1    2    0    0 -0.30456449698E+03 -0.95771355302E+02  0.89137657402E+03  0.95504391628E+03  0.12500000000E+03 0.  0.
         21    1    1    2  503  501  0.19432341778E+03  0.87324445414E+02  0.56506665349E+03  0.60389359357E+03  0.00000000000E+00 0.  1.
         21    1    1    2  504  503  0.11024107920E+03  0.84469098873E+01  0.56388393544E+02  0.12411324166E+03  0.00000000000E+00 0.  1.
<mgrwt>
<rscale>  4 0.28205634E+03</rscale>
<asrwt>0</asrwt>
<pdfrwt beam="1">  1       21 0.24583708E+00 0.28205634E+03</pdfrwt>
<pdfrwt beam="2">  1       21 0.13093780E-01 0.28205634E+03</pdfrwt>
<totfact> 0.32585845E+03</totfact>
</mgrwt>
</event>
<event>
 5    0  0.1257040E+001  0.2816748E+03  0.7546771E-02  0.1094778E+00
         21   -1    0    0  502  501  0.00000000000E+00  0.00000000000E+00  0.43486176359E+03  0.43486176359E+03  0.00000000000E+00 0. -1.
         21   -1    0    0  504  502 -0.00000000000E+00 -0.00000000000E+00 -0.28369058348E+03  0.28369058348E+03  0.00000000000E+00 0. -1.
         25    1    1    2    0    0  0.37366647663E+01  0.21150573125E+03 -0.80623207920E+02  0.25859957206E+03  0.12500000000E+03 0.  0.
         21    1    1    2  503  501 -0.37621015450E+01 -0.26506291698E+03  0.28165103560E+03  0.38678134549E+03  0.00000000000E+00 0. -1.
         21    1    1    2  504  503  0.25436778674E-01  0.53557185736E+02 -0.49856647571E+02  0.73171429520E+02  0.00000000000E+00 0.  1.
<mgrwt>
<rscale>  4 0.28167480E+03</rscale>
<asrwt>0</asrwt>
<pdfrwt beam="1">  1       21 0.66901810E-01 0.28167480E+03</pdfrwt>
<pdfrwt beam="2">  1       21 0.43644705E-01 0.28167480E+03</pdfrwt>
<totfact> 0.97999772E+03</totfact>
</mgrwt>
</event>
<event>
 5    0  0.1257040E+001  0.2486366E+03  0.7546771E-02  0.1114170E+00
         21   -1    0    0  502  501  0.00000000000E+00  0.00000000000E+00  0.19992082855E+03  0.19992082855E+03  0.00000000000E+00 0.  1.
         21   -1    0    0  504  502 -0.00000000000E+00 -0.00000000000E+00 -0.98512012180E+03  0.98512012180E+03  0.00000000000E+00 0. -1.
         25    1    1    2    0    0  0.14912550495E+03  0.16672201828E+03 -0.81088335192E+03  0.85040664275E+03  0.12500000000E+03 0.  0.
         21    1    1    2  503  501 -0.12478848407E+03 -0.17427573475E+03  0.11395773200E+03  0.24275617842E+03  0.00000000000E+00 0.  1.
         21    1    1    2  504  503 -0.24337020879E+02  0.75537164650E+01 -0.88273673335E+02  0.91878129181E+02  0.00000000000E+00 0.  1.
<mgrwt>
<rscale>  4 0.24863658E+03</rscale>
<asrwt>0</asrwt>
<pdfrwt beam="1">  1       21 0.30757051E-01 0.24863658E+03</pdfrwt>
<pdfrwt beam="2">  1       21 0.15155694E+00 0.24863658E+03</pdfrwt>
<totfact> 0.28195066E+03</totfact>
</mgrwt>
</event>
<event>
 5    0  0.1257040E+001  0.2004551E+03  0.7546771E-02  0.1149356E+00
         21   -1    0    0  503  501  0.00000000000E+00  0.00000000000E+00  0.11843251774E+03  0.11843251774E+03  0.00000000000E+00 0.  1.
         21   -1    0    0  501  502 -0.00000000000E+00 -0.00000000000E+00 -0.52747746237E+03  0.52747746237E+03  0.00000000000E+00 0.  1.
         25    1    1    2    0    0  0.20313623967E+02 -0.20680965278E+03 -0.27085090645E+03  0.36354929422E+03  0.12500000000E+03 0.  0.
         21    1    1    2  503  504 -0.11889779511E+01  0.64338004903E+02 -0.12170374172E+03  0.13766841792E+03  0.00000000000E+00 0.  1.
         21    1    1    2  504  502 -0.19124646015E+02  0.14247164788E+03 -0.16490296465E+02  0.14469226798E+03  0.00000000000E+00 0.  1.
<mgrwt>
<rscale>  4 0.20045508E+03</rscale>
<asrwt>0</asrwt>
<pdfrwt beam="1">  1       21 0.18220387E-01 0.20045508E+03</pdfrwt>
<pdfrwt beam="2">  1       21 0.81150380E-01 0.20045508E+03</pdfrwt>
<totfact> 0.36400659E+04</totfact>
</mgrwt>
</event>
<event>
 5    0  0.1257040E+001  0.3647844E+03  0.7546771E-02  0.1056705E+00
         21   -1    0    0  502  501  0.00000000000E+00  0.00000000000E+00  0.73241410584E+03  0.73241410584E+03  0.00000000000E+00 0.  1.
         21   -1    0    0  504  502 -0.00000000000E+00 -0.00000000000E+00 -0.41120988034E+03  0.41120988034E+03  0.00000000000E+00 0. -1.
         25    1    1    2    0    0 -0.21316989115E+03  0.26207125701E+03 -0.26300528825E+03  0.44600395501E+03  0.12500000000E+03 0.  0.
         21    1    1    2  503  501  0.19814493080E+03 -0.28051487154E+03  0.57911208725E+03  0.67329103392E+03  0.00000000000E+00 0.  1.
         21    1    1    2  504  503  0.15024960348E+02  0.18443614529E+02  0.50974264983E+01  0.24328997251E+02  0.00000000000E+00 0.  1.
<mgrwt>
<rscale>  4 0.36478440E+03</rscale>
<asrwt>0</asrwt>
<pdfrwt beam="1">  1       21 0.11267909E+00 0.36478440E+03</pdfrwt>
<pdfrwt beam="2">  1       21 0.63263058E-01 0.36478440E+03</pdfrwt>
<totfact> 0.12622091E+03</totfact>
</mgrwt>
</event>
<event>
 5    0  0.1257040E+001  0.2514572E+03  0.7546771E-02  0.1112387E+00
         21   -1    0    0  504  501  0.00000000000E+00  0.00000000000E+00  0.32984592972E+03  0.32984592972E+03  0.00000000000E+00 0. -1.
         21   -1    0    0  503  502 -0.00000000000E+00 -0.00000000000E+00 -0.49308472609E+03  0.49308472609E+03  0.00000000000E+00 0.  1.
         25    1    1    2    0    0  0.13390851228E+03 -0.17398464461E+03 -0.21188668484E+03  0.32973188113E+03  0.12500000000E+03 0.  0.
         21    1    1    2  503  501  0.32381947294E+02  0.32039714620E+02 -0.17476600968E+03  0.18060534866E+03  0.00000000000E+00 0. -1.
         21    1    1    2  504  502 -0.16629045958E+03  0.14194492999E+03  0.22341389815E+03  0.31259342601E+03  0.00000000000E+00 0. -1.
<mgrwt>
<rscale>  4 0.25145718E+03</rscale>
<asrwt>0</asrwt>
<pdfrwt beam="1">  1       21 0.50745528E-01 0.25145718E+03</pdfrwt>
<pdfrwt beam="2">  1       21 0.75859189E-01 0.25145718E+03</pdfrwt>
<totfact> 0.54984958E+03</totfact>
</mgrwt>
</event>
<event>
 5    0  0.1257040E+001  0.2269762E+03  0.7546771E-02  0.1128786E+00
         21   -1    0    0  502  501  0.00000000000E+00  0.00000000000E+00  0.23635981629E+03  0.23635981629E+03  0.00000000000E+00 0.  1.
         21   -1    0    0  504  502 -0.00000000000E+00 -0.00000000000E+00 -0.64709195728E+03  0.64709195728E+03  0.00000000000E+00 0.  1.
         25    1    1    2    0    0 -0.24503905150E+03  0.11315017285E+03 -0.36846660780E+03  0.47353958593E+03  0.12500000000E+03 0.  0.
         21    1    1    2  503  501  0.15881222451E+03 -0.85739698299E+02  0.12514067017E+03  0.21961968457E+03  0.00000000000E+00 0.  1.
         21    1    1    2  504  503  0.86226826988E+02 -0.27410474548E+02 -0.16740620336E+03  0.19029250308E+03  0.00000000000E+00 0.  1.
<mgrwt>
<rscale>  4 0.22697622E+03</rscale>
<asrwt>0</asrwt>
<pdfrwt beam="1">  1       21 0.36363050E-01 0.22697622E+03</pdfrwt>
<pdfrwt beam="2">  1       21 0.99552606E-01 0.22697622E+03</pdfrwt>
<totfact> 0.59011608E+03</totfact>
</mgrwt>
</event>
<event>
 5    0  0.1257040E+001  0.2246108E+03  0.7546771E-02  0.1130491E+00
         21   -1    0    0  502  501  0.00000000000E+00  0.00000000000E+00  0.19742644339E+04  0.19742644339E+04  0.00000000000E+00 0. -1.
         21   -1    0    0  504  502 -0.00000000000E+00 -0.00000000000E+00 -0.95780891493E+02  0.95780891493E+02  0.00000000000E+00 0. -1.
         25    1    1    2    0    0  0.18044620754E+03 -0.96896440356E+02  0.66272717466E+03  0.70482768249E+03  0.12500000000E+03 0.  0.
         21    1    1    2  503  501 -0.30669399216E+01  0.47011536013E+02  0.11757127312E+04  0.11766562442E+04  0.00000000000E+00 0. -1.
         21    1    1    2  504  503 -0.17737926762E+03  0.49884904343E+02  0.40043636533E+02  0.18856139872E+03  0.00000000000E+00 0. -1.
<mgrwt>
<rscale>  4 0.22461082E+03</rscale>
<asrwt>0</asrwt>
<pdfrwt beam="1">  1       21 0.30373296E+00 0.22461082E+03</pdfrwt>
<pdfrwt beam="2">  1       21 0.14735523E-01 0.22461082E+03</pdfrwt>
<totfact> 0.12649998E+03</totfact>
</mgrwt>
</event>
<event>
 5    0  0.1257040E+001  0.2372430E+03  0.7546771E-02  0.1121643E+00
         21   -1    0    0  502  501  0.00000000000E+00  0.00000000000E+00  0.20216193560E+04  0.20216193560E+04  0.00000000000E+00 0.  1.
         21   -1    0    0  504  502 -0.00000000000E+00 -0.00000000000E+00 -0.18186699469E+03  0.18186699469E+03  0.00000000000E+00 0.  1.
         25    1    1    2    0    0 -0.24203872860E+03  0.44111105639E+02 -0.33985912341E+02  0.27804420156E+03  0.12500000000E+03 0.  0.
         21    1    1    2  503  501  0.18005485252E+03 -0.87956275452E+02  0.18233289392E+04  0.18343076287E+04  0.00000000000E+00 0.  1.
         21    1    1    2  504  503  0.61983876078E+02  0.43845169813E+02  0.50409334458E+02  0.91134520408E+02  0.00000000000E+00 0.  1.
<mgrwt>
<rscale>  4 0.23724297E+03</rscale>
<asrwt>0</asrwt>
<pdfrwt beam="1">  1       21 0.31101835E+00 0.23724297E+03</pdfrwt>
<pdfrwt beam="2">  1       21 0.27979539E-01 0.23724297E+03</pdfrwt>
<totfact> 0.33851527E+02</totfact>
</mgrwt>
</event>
<event>
 5    0  0.1257040E+001  0.2915401E+03  0.7546771E-02  0.1089548E+00
         21   -1    0    0  504  501  0.00000000000E+00  0.00000000000E+00  0.41931258193E+03  0.41931258193E+03  0.00000000000E+00 0.  1.
         21   -1    0    0  503  502 -0.00000000000E+00 -0.00000000000E+00 -0.76549580506E+03  0.76549580506E+03  0.00000000000E+00 0.  1.
         25    1    1    2    0    0  0.19844968384E+03  0.15016699658E+03  0.32827050876E+03  0.43048685323E+03  0.12500000000E+03 0.  0.
         21    1    1    2  503  501 -0.22213647295E+03 -0.14335158429E+03 -0.67953834176E+03  0.72915474850E+03  0.00000000000E+00 0.  1.
         21    1    1    2  504  502  0.23686789109E+02 -0.68154122939E+01  0.50846098642E+01  0.25166785264E+02  0.00000000000E+00 0. -1.
<mgrwt>
<rscale>  4 0.29154006E+03</rscale>
<asrwt>0</asrwt>
<pdfrwt beam="1">  1       21 0.64509628E-01 0.29154006E+03</pdfrwt>
<pdfrwt beam="2">  1       21 0.11776859E+00 0.29154006E+03</pdfrwt>
<totfact> 0.11305878E+03</totfact>
</mgrwt>
</event>
<event>
 5    0  0.1257040E+001  0.2008958E+03  0.7546771E-02  0.1148985E+00
         21   -1    0    0  503  501  0.00000000000E+00  0.00000000000E+00  0.24823213106E+04  0.24823213106E+04  0.00000000000E+00 0. -1.
         21   -1    0    0  504  502 -0.00000000000E+00 -0.00000000000E+00 -0.93746356669E+02  0.93746356669E+02  0.00000000000E+00 0. -1.
         25    1    1    2    0    0 -0.15668901967E+02  0.23317701268E+03  0.20288060483E+04  0.20460439916E+04  0.12500000000E+03 0.  0.
         21    1    1    2  503  502  0.60735841727E+02 -0.14245196281E+03 -0.14528110074E+01  0.15486611908E+03  0.00000000000E+00 0. -1.
         21    1    1    2  504  501 -0.45066939760E+02 -0.90725049870E+02  0.36122171667E+03  0.37515755667E+03  0.00000000000E+00 0. -1.
<mgrwt>
<rscale>  4 0.20089580E+03</rscale>
<asrwt>0</asrwt>
<pdfrwt beam="1">  1       21 0.38189554E+00 0.20089580E+03</pdfrwt>
<pdfrwt beam="2">  1       21 0.14422518E-01 0.20089580E+03</pdfrwt>
<totfact> 0.46831355E+02</totfact>
</mgrwt>
</event>
<event>
 5    0  0.1257040E+001  0.2287643E+03  0.7546771E-02  0.1127513E+00
         21   -1    0    0  502  501  0.00000000000E+00  0.00000000000E+00  0.42067661878E+03  0.42067661878E+03  0.00000000000E+00 0. -1.
         21   -1    0    0  504  502 -0.00000000000E+00 -0.00000000000E+00 -0.22981276716E+03  0.22981276716E+03  0.00000000000E+00 0. -1.
         25    1    1    2    0    0  0.20178030478E+03  0.75512877302E+02  0.16949745440E+03  0.30128370863E+03  0.12500000000E+03 0.  0.
         21    1    1    2  503  501 -0.10588903415E+03 -0.16266244053E+03 -0.51148454550E+02  0.20071801492E+03  0.00000000000E+00 0. -1.
         21    1    1    2  504  503 -0.95891270634E+02  0.87149563225E+02  0.72514851769E+02  0.14848766239E+03  0.00000000000E+00 0. -1.
<mgrwt>
<rscale>  4 0.22876426E+03</rscale>
<asrwt>0</asrwt>
<pdfrwt beam="1">  1       21 0.64719480E-01 0.22876426E+03</pdfrwt>
<pdfrwt beam="2">  1       21 0.35355810E-01 0.22876426E+03</pdfrwt>
<totfact> 0.16607960E+04</totfact>
</mgrwt>
</event>
<event>
 5    0  0.1257040E+001  0.4716443E+03  0.7546771E-02  0.1021457E+00
         21   -1    0    0  502  501  0.00000000000E+00  0.00000000000E+00  0.10803020768E+04  0.10803020768E+04  0.00000000000E+00 0.  1.
         21   -1    0    0  504  502 -0.00000000000E+00 -0.00000000000E+00 -0.18429912845E+04  0.18429912845E+04  0.00000000000E+00 0. -1.
         25    1    1    2    0    0  0.84206561072E+02 -0.29541189918E+03 -0.15172951165E+04  0.15531157090E+04  0.12500000000E+03 0.  0.
         21    1    1    2  503  501  0.12951503504E+03  0.44298492118E+03  0.94262213520E+03  0.10495457467E+04  0.00000000000E+00 0.  1.
         21    1    1    2  504  503 -0.21372159612E+03 -0.14757302199E+03 -0.18801622650E+03  0.32063190561E+03  0.00000000000E+00 0. -1.
<mgrwt>
<rscale>  4 0.47164431E+03</rscale>
<asrwt>0</asrwt>
<pdfrwt beam="1">  1       21 0.16620032E+00 0.47164431E+03</pdfrwt>
<pdfrwt beam="2">  1       21 0.28353712E+00 0.47164431E+03</pdfrwt>
<totfact> 0.68966703E+00</totfact>
</mgrwt>
</event>
<event>
 5    0  0.1257040E+001  0.3921947E+03  0.7546771E-02  0.1046516E+00
         21   -1    0    0  502  501  0.00000000000E+00  0.00000000000E+00  0.56170223372E+03  0.56170223372E+03  0.00000000000E+00 0. -1.
         21   -1    0    0  504  502 -0.00000000000E+00 -0.00000000000E+00 -0.65160848457E+03  0.65160848457E+03  0.00000000000E+00 0. -1.
         25    1    1    2    0    0 -0.31233229792E+03  0.13825602270E+03  0.73005012131E+00  0.36371929439E+03  0.12500000000E+03 0.  0.
         21    1    1    2  503  501  0.50850760045E+01  0.99467704252E+02  0.28944843621E+03  0.30610468702E+03  0.00000000000E+00 0. -1.
         21    1    1    2  504  503  0.30724722191E+03 -0.23772372695E+03 -0.38008473719E+03  0.54348673689E+03  0.00000000000E+00 0. -1.
<mgrwt>
<rscale>  4 0.39219468E+03</rscale>
<asrwt>0</asrwt>
<pdfrwt beam="1">  1       21 0.86415729E-01 0.39219468E+03</pdfrwt>
<pdfrwt beam="2">  1       21 0.10024746E+00 0.39219468E+03</pdfrwt>
<totfact> 0.81787400E+02</totfact>
</mgrwt>
</event>
<event>
 5    0  0.1257040E+001  0.5106881E+03  0.7546771E-02  0.1011026E+00
         21   -1    0    0  504  501  0.00000000000E+00  0.00000000000E+00  0.82893650970E+03  0.82893650970E+03  0.00000000000E+00 0. -1.
         21   -1    0    0  503  502 -0.00000000000E+00 -0.00000000000E+00 -0.44748432429E+03  0.44748432429E+03  0.00000000000E+00 0. -1.
         25    1    1    2    0    0  0.40888605501E+03  0.24704949555E+03  0.13476500107E+03  0.51186703815E+03  0.12500000000E+03 0.  0.
         21    1    1    2  503  501 -0.43470981777E+03 -0.26414593216E+03 -0.72627421626E+01  0.50872236689E+03  0.00000000000E+00 0. -1.
         21    1    1    2  504  502  0.25823762760E+02  0.17096436613E+02  0.25394992650E+03  0.25583142895E+03  0.00000000000E+00 0.  1.
<mgrwt>
<rscale>  4 0.51068815E+03</rscale>
<asrwt>0</asrwt>
<pdfrwt beam="1">  1       21 0.12752869E+00 0.51068815E+03</pdfrwt>
<pdfrwt beam="2">  1       21 0.68843742E-01 0.51068815E+03</pdfrwt>
<totfact> 0.71668160E+02</totfact>
</mgrwt>
</event>
<event>
 5    0  0.1257040E+001  0.2628615E+03  0.7546771E-02  0.1105436E+00
         21   -1    0    0  504  501  0.00000000000E+00  0.00000000000E+00  0.18062424137E+04  0.18062424137E+04  0.00000000000E+00 0.  1.
         21   -1    0    0  503  502 -0.00000000000E+00 -0.00000000000E+00 -0.54522628737E+02  0.54522628737E+02  0.00000000000E+00 0.  1.
         25    1    1    2    0    0 -0.10134097774E+02 -0.22930641139E+03  0.10035487518E+04  0.10370242174E+04  0.12500000000E+03 0.  0.
         21    1    1    2  503  501  0.28049773117E+02 -0.39110356344E+01 -0.10212034030E+02  0.30106006223E+02  0.00000000000E+00 0. -1.
         21    1    1    2  504  502 -0.17915675343E+02  0.23321744703E+03  0.75838306712E+03  0.79363481874E+03  0.00000000000E+00 0.  1.
<mgrwt>
<rscale>  4 0.26286147E+03</rscale>
<asrwt>0</asrwt>
<pdfrwt beam="1">  1       21 0.27788340E+00 0.26286147E+03</pdfrwt>
<pdfrwt beam="2">  1       21 0.83880981E-02 0.26286147E+03</pdfrwt>
<totfact> 0.47289580E+03</totfact>
</mgrwt>
</event>
<event>
 5    0  0.1257040E+001  0.2841025E+03  0.7546771E-02  0.1093469E+00
         21   -1    0    0  504  501  0.00000000000E+00  0.00000000000E+00  0.43723126744E+03  0.43723126744E+03  0.00000000000E+00 0. -1.
         21   -1    0    0  503  502 -0.00000000000E+00 -0.00000000000E+00 -0.31047505143E+03  0.31047505143E+03  0.00000000000E+00 0.  1.
         25    1    1    2    0    0  0.14983346844E+03  0.24189209891E+03 -0.10819539347E+03  0.32907916821E+03  0.12500000000E+03 0.  0.
         21    1    1    2  503  501  0.12051601527E+02 -0.52711249889E+02 -0.24204338967E+02  0.59241598469E+02  0.00000000000E+00 0. -1.
         21    1    1    2  504  502 -0.16188506997E+03 -0.18918084902E+03  0.25915594845E+03  0.35938555220E+03  0.00000000000E+00 0. -1.
<mgrwt>
<rscale>  4 0.28410247E+03</rscale>
<asrwt>0</asrwt>
<pdfrwt beam="1">  1       21 0.67266349E-01 0.28410247E+03</pdfrwt>
<pdfrwt beam="2">  1       21 0.47765392E-01 0.28410247E+03</pdfrwt>
<totfact> 0.80186870E+03</totfact>
</mgrwt>
</event>
<event>
 5    0  0.1257040E+001  0.3456636E+03  0.7546771E-02  0.1064409E+00
         21   -1    0    0  502  501  0.00000000000E+00  0.00000000000E+00  0.19167497197E+04  0.19167497197E+04  0.00000000000E+00 0.  1.
         21   -1    0    0  504  502 -0.00000000000E+00 -0.00000000000E+00 -0.48962730469E+03  0.48962730469E+03  0.00000000000E+00 0. -1.
         25    1    1    2    0    0 -0.39823060069E+03  0.28159724240E+03 -0.31443223636E+02  0.50447823993E+03  0.12500000000E+03 0.  0.
         21    1    1    2  503  501  0.90701264368E+02 -0.30488887929E+03  0.15483486762E+04  0.15806857914E+04  0.00000000000E+00 0.  1.
         21    1    1    2  504  503  0.30752933632E+03  0.23291636887E+02 -0.89783037580E+02  0.32121299302E+03  0.00000000000E+00 0. -1.
<mgrwt>
<rscale>  4 0.34566359E+03</rscale>
<asrwt>0</asrwt>
<pdfrwt beam="1">  1       21 0.29488457E+00 0.34566359E+03</pdfrwt>
<pdfrwt beam="2">  1       21 0.75327279E-01 0.34566359E+03</pdfrwt>
<totfact> 0.47522992E+01</totfact>
</mgrwt>
</event>
<event>
 5    0  0.1257040E+001  0.2486612E+03  0.7546771E-02  0.1114154E+00
         21   -1    0    0  503  501  0.00000000000E+00  0.00000000000E+00  0.27687846372E+03  0.27687846372E+03  0.00000000000E+00 0.  1.
         21   -1    0    0  504  502 -0.00000000000E+00 -0.00000000000E+00 -0.25394827130E+03  0.25394827130E+03  0.00000000000E+00 0.  1.
         25    1    1    2    0    0  0.17118254173E+03 -0.13728689224E+03 -0.77199108649E+02  0.26407547359E+03  0.12500000000E+03 0.  0.
         21    1    1    2  503  502 -0.18111308717E+03  0.10530917707E+03  0.67786592089E+02  0.22019762757E+03  0.00000000000E+00 0.  1.
         21    1    1    2  504  501  0.99305454368E+01  0.31977715177E+02  0.32342708982E+02  0.46553633853E+02  0.00000000000E+00 0.  1.
<mgrwt>
<rscale>  4 0.24866123E+03</rscale>
<asrwt>0</asrwt>
<pdfrwt beam="1">  1       21 0.42596687E-01 0.24866123E+03</pdfrwt>
<pdfrwt beam="2">  1       21 0.39068965E-01 0.24866123E+03</pdfrwt>
<totfact> 0.32578485E+04</totfact>
</mgrwt>
</event>
<event>
 5    0  0.1257040E+001  0.2903260E+03  0.7546771E-02  0.1090179E+00
         21   -1    0    0  502  501  0.00000000000E+00  0.00000000000E+00  0.26360690033E+03  0.26360690033E+03  0.00000000000E+00 0. -1.
         21   -1    0    0  504  502 -0.00000000000E+00 -0.00000000000E+00 -0.45498263090E+03  0.45498263090E+03  0.00000000000E+00 0. -1.
         25    1    1    2    0    0  0.21046622788E+03  0.18742814745E+03 -0.17240533555E+03  0.35323355342E+03  0.12500000000E+03 0.  0.
         21    1    1    2  503  501 -0.32112697723E+01 -0.55506714903E+02  0.82550426844E+02  0.99528290576E+02  0.00000000000E+00 0.  1.
         21    1    1    2  504  503 -0.20725495811E+03 -0.13192143255E+03 -0.10152082186E+03  0.26582768723E+03  0.00000000000E+00 0. -1.
<mgrwt>
<rscale>  4 0.29032600E+03</rscale>
<asrwt>0</asrwt>
<pdfrwt beam="1">  1       21 0.40554908E-01 0.29032600E+03</pdfrwt>
<pdfrwt beam="2">  1       21 0.69997328E-01 0.29032600E+03</pdfrwt>
<totfact> 0.10265387E+04</totfact>
</mgrwt>
</event>
<event>
 5    0  0.1257040E+001  0.1909289E+03  0.7546771E-02  0.1157626E+00
         21   -1    0    0  503  501  0.00000000000E+00  0.00000000000E+00  0.88105851467E+02  0.88105851467E+02  0.00000000000E+00 0.  1.
         21   -1    0    0  504  502 -0.00000000000E+00 -0.00000000000E+00 -0.98739425645E+03  0.98739425645E+03  0.00000000000E+00 0.  1.
         25    1    1    2    0    0 -0.23009917066E+03 -0.70798489481E+02 -0.41829959704E+03  0.49855552082E+03  0.12500000000E+03 0.  0.
         21    1    1    2  503  502  0.12340213372E+03  0.10789123225E+02 -0.42435276240E+03  0.44206307100E+03  0.00000000000E+00 0.  1.
         21    1    1    2  504  501  0.10669703694E+03  0.60009366256E+02 -0.56636045544E+02  0.13488151610E+03  0.00000000000E+00 0.  1.
<mgrwt>
<rscale>  4 0.19092891E+03</rscale>
<asrwt>0</asrwt>
<pdfrwt beam="1">  1       21 0.13554747E-01 0.19092891E+03</pdfrwt>
<pdfrwt beam="2">  1       21 0.15190681E+00 0.19092891E+03</pdfrwt>
<totfact> 0.13646186E+04</totfact>
</mgrwt>
</event>
<event>
 5    0  0.1257040E+001  0.2524849E+03  0.7546771E-02  0.1111744E+00
         21   -1    0    0  502  501  0.00000000000E+00  0.00000000000E+00  0.10266389280E+03  0.10266389280E+03  0.00000000000E+00 0.  1.
         21   -1    0    0  504  502 -0.00000000000E+00 -0.00000000000E+00 -0.72180473481E+03  0.72180473481E+03  0.00000000000E+00 0.  1.
         25    1    1    2    0    0  0.11777207398E+03  0.20164415559E+03 -0.17598513701E+03  0.31800376624E+03  0.12500000000E+03 0.  0.
         21    1    1    2  503  501 -0.11383998232E+03 -0.18169635526E+03 -0.43418651349E+03  0.48424274448E+03  0.00000000000E+00 0.  1.
         21    1    1    2  504  503 -0.39320916618E+01 -0.19947800329E+02 -0.89691915085E+01  0.22222116891E+02  0.00000000000E+00 0. -1.
<mgrwt>
<rscale>  4 0.25248487E+03</rscale>
<asrwt>0</asrwt>
<pdfrwt beam="1">  1       21 0.15794446E-01 0.25248487E+03</pdfrwt>
<pdfrwt beam="2">  1       21 0.11104688E+00 0.25248487E+03</pdfrwt>
<totfact> 0.22039640E+04</totfact>
</mgrwt>
</event>
<event>
 5    0  0.1257040E+001  0.2433089E+03  0.7546771E-02  0.1117608E+00
         21   -1    0    0  504  501  0.00000000000E+00  0.00000000000E+00  0.16788836765E+04  0.16788836765E+04  0.00000000000E+00 0. -1.
         21   -1    0    0  503  502 -0.00000000000E+00 -0.00000000000E+00 -0.39397623707E+02  0.39397623707E+02  0.00000000000E+00 0. -1.
         25    1    1    2    0    0  0.91796640642E+02 -0.18466700288E+03  0.65991079214E+03  0.70259218525E+03  0.12500000000E+03 0.  0.
         21    1    1    2  503  501 -0.12374211450E+03  0.17274111865E+03  0.63884084779E+03  0.67325272653E+03  0.00000000000E+00 0. -1.
         21    1    1    2  504  502  0.31945473857E+02  0.11925884228E+02  0.34073441289E+03  0.34243638846E+03  0.00000000000E+00 0. -1.
<mgrwt>
<rscale>  4 0.24330886E+03</rscale>
<asrwt>0</asrwt>
<pdfrwt beam="1">  1       21 0.25828974E+00 0.24330886E+03</pdfrwt>
<pdfrwt beam="2">  1       21 0.60611742E-02 0.24330886E+03</pdfrwt>
<totfact> 0.11024177E+04</totfact>
</mgrwt>
</event>
<event>
 5    0  0.1257040E+001  0.3468372E+03  0.7546771E-02  0.1063921E+00
         21   -1    0    0  504  501  0.00000000000E+00  0.00000000000E+00  0.13559752323E+03  0.13559752323E+03  0.00000000000E+00 0. -1.
         21   -1    0    0  503  502 -0.00000000000E+00 -0.00000000000E+00 -0.11101985462E+04  0.11101985462E+04  0.00000000000E+00 0. -1.
         25    1    1    2    0    0 -0.76766887494E+02  0.31631814738E+03 -0.60890372902E+03  0.70166877984E+03  0.12500000000E+03 0.  0.
         21    1    1    2  503  501  0.13462065836E+03 -0.29496554947E+03 -0.35630542466E+03  0.48174781024E+03  0.00000000000E+00 0. -1.
         21    1    1    2  504  502 -0.57853770863E+02 -0.21352597914E+02 -0.93918693303E+01  0.62379479400E+02  0.00000000000E+00 0.  1.
<mgrwt>
<rscale>  4 0.34683721E+03</rscale>
<asrwt>0</asrwt>
<pdfrwt beam="1">  1       21 0.20861157E-01 0.34683721E+03</pdfrwt>
<pdfrwt beam="2">  1       21 0.17079978E+00 0.34683721E+03</pdfrwt>
<totfact> 0.40537298E+03</totfact>
</mgrwt>
</event>
<event>
 5    0  0.1257040E+001  0.2634859E+03  0.7546771E-02  0.1105067E+00
         21   -1    0    0  504  501  0.00000000000E+00  0.00000000000E+00  0.19058003753E+03  0.19058003753E+03  0.00000000000E+00 0.  1.
         21   -1    0    0  501  502 -0.00000000000E+00 -0.00000000000E+00 -0.35385705846E+03  0.35385705846E+03  0.00000000000E+00 0.  1.
         25    1    1    2    0    0  0.10540210442E+03 -0.20661611081E+03 -0.15464984205E+03  0.30551823924E+03  0.12500000000E+03 0.  0.
         21    1    1    2  503  502 -0.35914786268E+02  0.10051600904E+03  0.20735037302E+02  0.10873491490E+03  0.00000000000E+00 0.  1.
         21    1    1    2  504  503 -0.69487318149E+02  0.10610010176E+03 -0.29362216180E+02  0.13018394186E+03  0.00000000000E+00 0.  1.
<mgrwt>
<rscale>  4 0.26348590E+03</rscale>
<asrwt>0</asrwt>
<pdfrwt beam="1">  1       21 0.29320006E-01 0.26348590E+03</pdfrwt>
<pdfrwt beam="2">  1       21 0.54439547E-01 0.26348590E+03</pdfrwt>
<totfact> 0.34346257E+04</totfact>
</mgrwt>
</event>
<event>
 5    0  0.1257040E+001  0.2241225E+03  0.7546771E-02  0.1130846E+00
         21   -1    0    0  502  501  0.00000000000E+00  0.00000000000E+00  0.89406989479E+03  0.89406989479E+03  0.00000000000E+00 0.  1.
         21   -1    0    0  504  502 -0.00000000000E+00 -0.00000000000E+00 -0.65428823455E+02  0.65428823455E+02  0.00000000000E+00 0.  1.
         25    1    1    2    0    0 -0.20861377373E+03  0.13914368951E+01  0.50485891477E+03  0.56038305338E+03  0.12500000000E+03 0.  0.
         21    1    1    2  503  501  0.34980552084E+02 -0.35970870701E+02  0.11438046630E+03  0.12490169588E+03  0.00000000000E+00 0.  1.
         21    1    1    2  504  503  0.17363322165E+03  0.34579433806E+02  0.20940169026E+03  0.27421396899E+03  0.00000000000E+00 0.  1.
<mgrwt>
<rscale>  4 0.22412246E+03</rscale>
<asrwt>0</asrwt>
<pdfrwt beam="1">  1       21 0.13754921E+00 0.22412246E+03</pdfrwt>
<pdfrwt beam="2">  1       21 0.10065973E-01 0.22412246E+03</pdfrwt>
<totfact> 0.29486123E+04</totfact>
</mgrwt>
</event>
<event>
 5    0  0.1257040E+001  0.1679843E+03  0.7546771E-02  0.1179966E+00
         21   -1    0    0  502  501  0.00000000000E+00  0.00000000000E+00  0.20713158132E+03  0.20713158132E+03  0.00000000000E+00 0. -1.
         21   -1    0    0  504  502 -0.00000000000E+00 -0.00000000000E+00 -0.75653077102E+03  0.75653077102E+03  0.00000000000E+00 0. -1.
         25    1    1    2    0    0 -0.57870744278E+02 -0.20152618888E+03  0.31601222659E+02  0.24614114878E+03  0.12500000000E+03 0.  0.
         21    1    1    2  503  501  0.33465603484E+02  0.95478324267E+02  0.23034416637E+02  0.10376242755E+03  0.00000000000E+00 0.  1.
         21    1    1    2  504  503  0.24405140794E+02  0.10604786461E+03 -0.60403482900E+03  0.61375877601E+03  0.00000000000E+00 0. -1.
<mgrwt>
<rscale>  4 0.16798431E+03</rscale>
<asrwt>0</asrwt>
<pdfrwt beam="1">  1       21 0.31866397E-01 0.16798431E+03</pdfrwt>
<pdfrwt beam="2">  1       21 0.11638935E+00 0.16798431E+03</pdfrwt>
<totfact> 0.55029826E+03</totfact>
</mgrwt>
</event>
<event>
 5    0  0.1257040E+001  0.2086732E+03  0.7546771E-02  0.1142621E+00
         21   -1    0    0  504  501  0.00000000000E+00  0.00000000000E+00  0.73563284900E+03  0.73563284900E+03  0.00000000000E+00 0.  1.
         21   -1    0    0  503  502 -0.00000000000E+00 -0.00000000000E+00 -0.25694105769E+03  0.25694105769E+03  0.00000000000E+00 0.  1.
         25    1    1    2    0    0 -0.22698246893E+03 -0.55619423928E+02  0.50100729435E+03  0.56678732388E+03  0.12500000000E+03 0.  0.
         21    1    1    2  503  501  0.10088113593E+03  0.62298865073E+02 -0.18506714525E+03  0.21979081061E+03  0.00000000000E+00 0.  1.
         21    1    1    2  504  502  0.12610133300E+03 -0.66794411457E+01  0.16275164222E+03  0.20599577220E+03  0.00000000000E+00 0.  1.
<mgrwt>
<rscale>  4 0.20867320E+03</rscale>
<asrwt>0</asrwt>
<pdfrwt beam="1">  1       21 0.11317428E+00 0.20867320E+03</pdfrwt>
<pdfrwt beam="2">  1       21 0.39529394E-01 0.20867320E+03</pdfrwt>
<totfact> 0.37109413E+03</totfact>
</mgrwt>
</event>
<event>
 5    0  0.1257040E+001  0.2713222E+03  0.7546771E-02  0.1100525E+00
         21   -1    0    0  502  501  0.00000000000E+00  0.00000000000E+00  0.12092505746E+03  0.12092505746E+03  0.00000000000E+00 0.  1.
         21   -1    0    0  504  502 -0.00000000000E+00 -0.00000000000E+00 -0.89717531050E+03  0.89717531050E+03  0.00000000000E+00 0.  1.
         25    1    1    2    0    0  0.23647348608E+03  0.13389269124E+03 -0.44603815660E+03  0.53704934552E+03  0.12500000000E+03 0.  0.
         21    1    1    2  503  501 -0.17396601477E+03 -0.15107732565E+03 -0.11742116252E+03  0.25860445090E+03  0.00000000000E+00 0.  1.
         21    1    1    2  504  503 -0.62507471317E+02  0.17184634413E+02 -0.21279093393E+03  0.22244657154E+03  0.00000000000E+00 0.  1.
<mgrwt>
<rscale>  4 0.27132222E+03</rscale>
<asrwt>0</asrwt>
<pdfrwt beam="1">  1       21 0.18603855E-01 0.27132222E+03</pdfrwt>
<pdfrwt beam="2">  1       21 0.13802697E+00 0.27132222E+03</pdfrwt>
<totfact> 0.93164587E+03</totfact>
</mgrwt>
</event>
