<event>
 4    0  0.1002184E-001  0.2452281E+03  0.7546771E-02  0.1116358E+00
         21   -1    0    0  501  502  0.00000000000E+00  0.00000000000E+00  0.45280787405E+02  0.45280787405E+02  0.00000000000E+00 0. -1.
          2   -1    0    0  502    0 -0.00000000000E+00 -0.00000000000E+00 -0.16261572767E+04  0.16261572767E+04  0.00000000000E+00 0.  1.
         25    1    1    2    0    0  0.13829255087E+03 -0.15933302349E+03 -0.38061004807E+03  0.45277019634E+03  0.12500000000E+03 0.  0.
          2    1    1    2  501    0 -0.13829255087E+03  0.15933302349E+03 -0.12002664412E+04  0.12186678678E+04  0.00000000000E+00 0.  1.
<mgrwt>
<rscale>  3 0.24522814E+03</rscale>
<asrwt>0</asrwt>
<pdfrwt beam="1">  1       21 0.69662740E-02 0.24522814E+03</pdfrwt>
<pdfrwt beam="2">  1        2 0.25017808E+00 0.24522814E+03</pdfrwt>
<totfact> 0.22656943E+04</totfact>
</mgrwt>
</event>
<event>
 4    0  0.1372151E-001  0.2438973E+03  0.7546771E-02  0.1117223E+00
          2   -1    0    0  502    0 -0.00000000000E+00  0.00000000000E+00  0.18427346843E+04  0.18427346843E+04  0.00000000000E+00 0.  1.
         21   -1    0    0  501  502  0.00000000000E+00 -0.00000000000E+00 -0.53625480375E+02  0.53625480375E+02  0.00000000000E+00 0.  1.
         25    1    1    2    0    0  0.16037252018E+03 -0.13469060130E+03  0.27392554393E+03  0.36677119151E+03  0.12500000000E+03 0.  0.
          2    1    1    2  501    0 -0.16037252018E+03  0.13469060130E+03  0.15151836600E+04  0.15295889731E+04  0.00000000000E+00 0.  1.
<mgrwt>
<rscale>  3 0.24389732E+03</rscale>
<asrwt>0</asrwt>
<pdfrwt beam="1">  1       21 0.82500753E-02 0.24389732E+03</pdfrwt>
<pdfrwt beam="2">  1        2 0.28349760E+00 0.24389732E+03</pdfrwt>
<totfact> 0.12988381E+04</totfact>
</mgrwt>
</event>
<event>
 4    0  0.1254572E-001  0.3389490E+03  0.7546771E-02  0.1067244E+00
         21   -1    0    0  501  502  0.00000000000E+00  0.00000000000E+00  0.54632514136E+03  0.54632514136E+03  0.00000000000E+00 0. -1.
          2   -1    0    0  502    0 -0.00000000000E+00 -0.00000000000E+00 -0.40202462673E+03  0.40202462673E+03  0.00000000000E+00 0. -1.
         25    1    1    2    0    0 -0.24410659941E+03  0.19918182762E+03  0.41299378690E+03  0.53427549106E+03  0.12500000000E+03 0.  0.
          2    1    1    2  501    0  0.24410659941E+03 -0.19918182762E+03 -0.26869327227E+03  0.41407427703E+03  0.00000000000E+00 0. -1.
<mgrwt>
<rscale>  3 0.33894901E+03</rscale>
<asrwt>0</asrwt>
<pdfrwt beam="1">  1       21 0.84050022E-01 0.33894901E+03</pdfrwt>
<pdfrwt beam="2">  1        2 0.61849942E-01 0.33894901E+03</pdfrwt>
<totfact> 0.11495603E+03</totfact>
</mgrwt>
</event>
<event>
 4    0  0.1401832E-001  0.2584938E+03  0.7546771E-02  0.1108052E+00
         21   -1    0    0  501  502  0.00000000000E+00  0.00000000000E+00  0.25557608444E+03  0.25557608444E+03  0.00000000000E+00 0. -1.
          1   -1    0    0  502    0 -0.00000000000E+00 -0.00000000000E+00 -0.64622524741E+03  0.64622524741E+03  0.00000000000E+00 0. -1.
         25    1    1    2    0    0 -0.81175573141E+02 -0.21119793594E+03  0.16170218551E+03  0.30490431059E+03  0.12500000000E+03 0.  0.
          1    1    1    2  501    0  0.81175573141E+02  0.21119793594E+03 -0.55235134848E+03  0.59689702125E+03  0.00000000000E+00 0. -1.
<mgrwt>
<rscale>  3 0.25849379E+03</rscale>
<asrwt>0</asrwt>
<pdfrwt beam="1">  1       21 0.39319398E-01 0.25849379E+03</pdfrwt>
<pdfrwt beam="2">  1        1 0.99419267E-01 0.25849379E+03</pdfrwt>
<totfact> 0.21388703E+03</totfact>
</mgrwt>
</event>
<event>
 4    0  0.1342757E-001  0.4192905E+03  0.7546771E-02  0.1037297E+00
         -4   -1    0    0    0  501 -0.00000000000E+00  0.00000000000E+00  0.34863440383E+03  0.34863440383E+03  0.00000000000E+00 0.  1.
         21   -1    0    0  501  502  0.00000000000E+00 -0.00000000000E+00 -0.48161279852E+03  0.48161279852E+03  0.00000000000E+00 0.  1.
         25    1    1    2    0    0 -0.19397119664E+03 -0.35007816082E+03 -0.70438461644E+02  0.42516599192E+03  0.12500000000E+03 0.  0.
         -4    1    1    2    0  502  0.19397119664E+03  0.35007816082E+03 -0.62539933050E+02  0.40508121042E+03  0.00000000000E+00 0.  1.
<mgrwt>
<rscale>  3 0.41929052E+03</rscale>
<asrwt>0</asrwt>
<pdfrwt beam="1">  1       21 0.74094276E-01 0.41929052E+03</pdfrwt>
<pdfrwt beam="2">  1       -4 0.53636062E-01 0.41929052E+03</pdfrwt>
<totfact> 0.22320250E+02</totfact>
</mgrwt>
</event>
<event>
 4    0  0.1289737E-001  0.2661045E+03  0.7546771E-02  0.1103530E+00
          2   -1    0    0  502    0 -0.00000000000E+00  0.00000000000E+00  0.25768954390E+03  0.25768954390E+03  0.00000000000E+00 0.  1.
         21   -1    0    0  501  502  0.00000000000E+00 -0.00000000000E+00 -0.25446370244E+03  0.25446370244E+03  0.00000000000E+00 0.  1.
         25    1    1    2    0    0  0.13882278700E+03  0.18951205607E+03 -0.51266100219E+02  0.27099778342E+03  0.12500000000E+03 0.  0.
          2    1    1    2  501    0 -0.13882278700E+03 -0.18951205607E+03  0.54491941685E+02  0.24115546292E+03  0.00000000000E+00 0.  1.
<mgrwt>
<rscale>  3 0.26610446E+03</rscale>
<asrwt>0</asrwt>
<pdfrwt beam="1">  1       21 0.39148262E-01 0.26610446E+03</pdfrwt>
<pdfrwt beam="2">  1        2 0.39644545E-01 0.26610446E+03</pdfrwt>
<totfact> 0.98967382E+03</totfact>
</mgrwt>
</event>
<event>
 4    0  0.1386427E-001  0.3492895E+03  0.7546771E-02  0.1062907E+00
         21   -1    0    0  501  502  0.00000000000E+00  0.00000000000E+00  0.91338931322E+02  0.91338931322E+02  0.00000000000E+00 0. -1.
          2   -1    0    0  502    0 -0.00000000000E+00 -0.00000000000E+00 -0.15010165932E+04  0.15010165932E+04  0.00000000000E+00 0. -1.
         25    1    1    2    0    0  0.30098095492E+03  0.12565267573E+03 -0.39866371995E+03  0.53003385905E+03  0.12500000000E+03 0.  0.
          2    1    1    2  501    0 -0.30098095492E+03 -0.12565267573E+03 -0.10110139419E+04  0.10623216654E+04  0.00000000000E+00 0. -1.
<mgrwt>
<rscale>  3 0.34928946E+03</rscale>
<asrwt>0</asrwt>
<pdfrwt beam="1">  1       21 0.14052144E-01 0.34928946E+03</pdfrwt>
<pdfrwt beam="2">  1        2 0.23092561E+00 0.34928946E+03</pdfrwt>
<totfact> 0.73763771E+03</totfact>
</mgrwt>
</event>
<event>
 4    0  0.1002184E-001  0.5905467E+03  0.7546771E-02  0.9925215E-01
          2   -1    0    0  502    0 -0.00000000000E+00  0.00000000000E+00  0.27211408585E+04  0.27211408585E+04  0.00000000000E+00 0. -1.
         21   -1    0    0  501  502  0.00000000000E+00 -0.00000000000E+00 -0.21060920260E+03  0.21060920260E+03  0.00000000000E+00 0. -1.
         25    1    1    2    0    0 -0.45036430312E+03  0.36096030908E+03  0.33077044320E+03  0.67687106331E+03  0.12500000000E+03 0.  0.
          2    1    1    2  501    0  0.45036430312E+03 -0.36096030908E+03  0.21797612127E+04  0.22548789978E+04  0.00000000000E+00 0. -1.
<mgrwt>
<rscale>  3 0.59054665E+03</rscale>
<asrwt>0</asrwt>
<pdfrwt beam="1">  1       21 0.32401418E-01 0.59054665E+03</pdfrwt>
<pdfrwt beam="2">  1        2 0.41863703E+00 0.59054665E+03</pdfrwt>
<totfact> 0.29982977E+02</totfact>
</mgrwt>
</event>
<event>
 4    0  0.1439356E-001  0.2974155E+03  0.7546771E-02  0.1086540E+00
         21   -1    0    0  501  502  0.00000000000E+00  0.00000000000E+00  0.33405656210E+02  0.33405656210E+02  0.00000000000E+00 0.  1.
          1   -1    0    0  502    0 -0.00000000000E+00 -0.00000000000E+00 -0.24147698286E+04  0.24147698286E+04  0.00000000000E+00 0.  1.
         25    1    1    2    0    0  0.13873279593E+03  0.23148254545E+03 -0.13111921203E+04  0.13445001799E+04  0.12500000000E+03 0.  0.
          1    1    1    2  501    0 -0.13873279593E+03 -0.23148254545E+03 -0.10701720522E+04  0.11036753049E+04  0.00000000000E+00 0.  1.
<mgrwt>
<rscale>  3 0.29741546E+03</rscale>
<asrwt>0</asrwt>
<pdfrwt beam="1">  1       21 0.51393312E-02 0.29741546E+03</pdfrwt>
<pdfrwt beam="2">  1        1 0.37150308E+00 0.29741546E+03</pdfrwt>
<totfact> 0.51223936E+03</totfact>
</mgrwt>
</event>
<event>
 4    0  0.1142989E-001  0.2426318E+03  0.7546771E-02  0.1118052E+00
         21   -1    0    0  501  502  0.00000000000E+00  0.00000000000E+00  0.93179635578E+03  0.93179635578E+03  0.00000000000E+00 0. -1.
         -3   -1    0    0    0  501 -0.00000000000E+00 -0.00000000000E+00 -0.83013733442E+02  0.83013733442E+02  0.00000000000E+00 0. -1.
         25    1    1    2    0    0  0.16745545007E+02 -0.20727945738E+03  0.74276545199E+03  0.78139023759E+03  0.12500000000E+03 0.  0.
         -3    1    1    2    0  502 -0.16745545007E+02  0.20727945738E+03  0.10601717035E+03  0.23341985164E+03  0.00000000000E+00 0. -1.
<mgrwt>
<rscale>  3 0.24263179E+03</rscale>
<asrwt>0</asrwt>
<pdfrwt beam="1">  1       21 0.14335328E+00 0.24263179E+03</pdfrwt>
<pdfrwt beam="2">  1       -3 0.12771344E-01 0.24263179E+03</pdfrwt>
<totfact> 0.80079596E+02</totfact>
</mgrwt>
</event>
<event>
 4    0  0.1185307E-001  0.2451017E+03  0.7546771E-02  0.1116440E+00
         21   -1    0    0  501  502  0.00000000000E+00  0.00000000000E+00  0.61626061622E+03  0.61626061622E+03  0.00000000000E+00 0.  1.
         -1   -1    0    0    0  501 -0.00000000000E+00 -0.00000000000E+00 -0.71472479260E+03  0.71472479260E+03  0.00000000000E+00 0. -1.
         25    1    1    2    0    0  0.13137931119E+03 -0.16489188006E+03  0.57512359369E+03  0.62517357873E+03  0.12500000000E+03 0.  0.
         -1    1    1    2    0  502 -0.13137931119E+03  0.16489188006E+03 -0.67358777006E+03  0.70581183009E+03  0.00000000000E+00 0. -1.
<mgrwt>
<rscale>  3 0.24510172E+03</rscale>
<asrwt>0</asrwt>
<pdfrwt beam="1">  1       21 0.94809326E-01 0.24510172E+03</pdfrwt>
<pdfrwt beam="2">  1       -1 0.10995766E+00 0.24510172E+03</pdfrwt>
<totfact> 0.68590574E+01</totfact>
</mgrwt>
</event>
<event>
 4    0  0.1318756E-001  0.2421786E+03  0.7546771E-02  0.1118350E+00
         21   -1    0    0  501  502  0.00000000000E+00  0.00000000000E+00  0.13017115367E+03  0.13017115367E+03  0.00000000000E+00 0.  1.
          2   -1    0    0  502    0 -0.00000000000E+00 -0.00000000000E+00 -0.14946876419E+04  0.14946876419E+04  0.00000000000E+00 0.  1.
         25    1    1    2    0    0 -0.95596735139E+02 -0.18408346890E+03  0.25033983313E+01  0.24219150748E+03  0.12500000000E+03 0.  0.
          2    1    1    2  501    0  0.95596735139E+02  0.18408346890E+03 -0.13670198866E+04  0.13826672881E+04  0.00000000000E+00 0.  1.
<mgrwt>
<rscale>  3 0.24217857E+03</rscale>
<asrwt>0</asrwt>
<pdfrwt beam="1">  1       21 0.20026332E-01 0.24217857E+03</pdfrwt>
<pdfrwt beam="2">  1        2 0.22995193E+00 0.24217857E+03</pdfrwt>
<totfact> 0.39793931E+03</totfact>
</mgrwt>
</event>
<event>
 4    0  0.1002184E-001  0.2626407E+03  0.7546771E-02  0.1105567E+00
          3   -1    0    0  502    0 -0.00000000000E+00  0.00000000000E+00  0.10086236581E+03  0.10086236581E+03  0.00000000000E+00 0. -1.
         21   -1    0    0  501  502  0.00000000000E+00 -0.00000000000E+00 -0.20473998266E+04  0.20473998266E+04  0.00000000000E+00 0. -1.
         25    1    1    2    0    0  0.23074299818E+03  0.10620053584E+02 -0.18930245546E+04  0.19111572623E+04  0.12500000000E+03 0.  0.
          3    1    1    2  501    0 -0.23074299818E+03 -0.10620053584E+02 -0.53512906127E+02  0.23710493009E+03  0.00000000000E+00 0. -1.
<mgrwt>
<rscale>  3 0.26264066E+03</rscale>
<asrwt>0</asrwt>
<pdfrwt beam="1">  1       21 0.31498460E+00 0.26264066E+03</pdfrwt>
<pdfrwt beam="2">  1        3 0.15517287E-01 0.26264066E+03</pdfrwt>
<totfact> 0.45601700E+01</totfact>
</mgrwt>
</event>
<event>
 4    0  0.1002184E-001  0.2388125E+03  0.7546771E-02  0.1120586E+00
         21   -1    0    0  501  502  0.00000000000E+00  0.00000000000E+00  0.51602356442E+02  0.51602356442E+02  0.00000000000E+00 0.  1.
          2   -1    0    0  502    0 -0.00000000000E+00 -0.00000000000E+00 -0.10449616478E+04  0.10449616478E+04  0.00000000000E+00 0. -1.
         25    1    1    2    0    0  0.19903387861E+03 -0.42331379703E+02 -0.36592836819E+03  0.43696109803E+03  0.12500000000E+03 0.  0.
          2    1    1    2  501    0 -0.19903387861E+03  0.42331379703E+02 -0.62743092321E+03  0.65960290626E+03  0.00000000000E+00 0. -1.
<mgrwt>
<rscale>  3 0.23881254E+03</rscale>
<asrwt>0</asrwt>
<pdfrwt beam="1">  1       21 0.79388249E-02 0.23881254E+03</pdfrwt>
<pdfrwt beam="2">  1        2 0.16076331E+00 0.23881254E+03</pdfrwt>
<totfact> 0.37890251E+04</totfact>
</mgrwt>
</event>
<event>
 4    0  0.1282834E-001  0.2549624E+03  0.7546771E-02  0.1110208E+00
         21   -1    0    0  501  502  0.00000000000E+00  0.00000000000E+00  0.34729036994E+03  0.34729036994E+03  0.00000000000E+00 0.  1.
          2   -1    0    0  502    0 -0.00000000000E+00 -0.00000000000E+00 -0.47806680922E+03  0.47806680922E+03  0.00000000000E+00 0.  1.
         25    1    1    2    0    0 -0.13217206588E+03  0.17863751107E+03  0.26733628343E+03  0.36942455765E+03  0.12500000000E+03 0.  0.
          2    1    1    2  501    0  0.13217206588E+03 -0.17863751107E+03 -0.39811272271E+03  0.45593262150E+03  0.00000000000E+00 0.  1.
<mgrwt>
<rscale>  3 0.25496238E+03</rscale>
<asrwt>0</asrwt>
<pdfrwt beam="1">  1       21 0.53429288E-01 0.25496238E+03</pdfrwt>
<pdfrwt beam="2">  1        2 0.73548740E-01 0.25496238E+03</pdfrwt>
<totfact> 0.26551232E+03</totfact>
</mgrwt>
</event>
<event>
 4    0  0.1166601E-001  0.2808824E+03  0.7546771E-02  0.1095208E+00
          1   -1    0    0  502    0 -0.00000000000E+00  0.00000000000E+00  0.16330243753E+04  0.16330243753E+04  0.00000000000E+00 0. -1.
         21   -1    0    0  501  502  0.00000000000E+00 -0.00000000000E+00 -0.81648892603E+02  0.81648892603E+02  0.00000000000E+00 0.  1.
         25    1    1    2    0    0 -0.44257287246E+02 -0.24761096789E+03  0.21206375060E+03  0.35194592370E+03  0.12500000000E+03 0.  0.
          1    1    1    2  501    0  0.44257287246E+02  0.24761096789E+03  0.13393117321E+04  0.13627273442E+04  0.00000000000E+00 0. -1.
<mgrwt>
<rscale>  3 0.28088236E+03</rscale>
<asrwt>0</asrwt>
<pdfrwt beam="1">  1       21 0.12561369E-01 0.28088236E+03</pdfrwt>
<pdfrwt beam="2">  1        1 0.25123449E+00 0.28088236E+03</pdfrwt>
<totfact> 0.34716958E+03</totfact>
</mgrwt>
</event>
<event>
 4    0  0.1002184E-001  0.3417348E+03  0.7546771E-02  0.1066059E+00
          1   -1    0    0  502    0 -0.00000000000E+00  0.00000000000E+00  0.23356756476E+03  0.23356756476E+03  0.00000000000E+00 0. -1.
         21   -1    0    0  501  502  0.00000000000E+00 -0.00000000000E+00 -0.54758265850E+03  0.54758265850E+03  0.00000000000E+00 0.  1.
         25    1    1    2    0    0 -0.31599035315E+03 -0.36162757359E+02 -0.31252721092E+03  0.46309384132E+03  0.12500000000E+03 0.  0.
          1    1    1    2  501    0  0.31599035315E+03  0.36162757359E+02 -0.14878828252E+01  0.31805638195E+03  0.00000000000E+00 0. -1.
<mgrwt>
<rscale>  3 0.34173476E+03</rscale>
<asrwt>0</asrwt>
<pdfrwt beam="1">  1       21 0.84243486E-01 0.34173476E+03</pdfrwt>
<pdfrwt beam="2">  1        1 0.35933471E-01 0.34173476E+03</pdfrwt>
<totfact> 0.15224213E+03</totfact>
</mgrwt>
</event>
<event>
 4    0  0.1002184E-001  0.2534299E+03  0.7546771E-02  0.1111156E+00
         21   -1    0    0  501  502  0.00000000000E+00  0.00000000000E+00  0.31714143915E+03  0.31714143915E+03  0.00000000000E+00 0.  1.
         -3   -1    0    0    0  501 -0.00000000000E+00 -0.00000000000E+00 -0.33965722722E+03  0.33965722722E+03  0.00000000000E+00 0. -1.
         25    1    1    2    0    0 -0.94726484823E+02 -0.19906931760E+03  0.21528620175E+03  0.33252796695E+03  0.12500000000E+03 0.  0.
         -3    1    1    2    0  502  0.94726484823E+02  0.19906931760E+03 -0.23780198983E+03  0.32427069942E+03  0.00000000000E+00 0. -1.
<mgrwt>
<rscale>  3 0.25342987E+03</rscale>
<asrwt>0</asrwt>
<pdfrwt beam="1">  1       21 0.48790991E-01 0.25342987E+03</pdfrwt>
<pdfrwt beam="2">  1       -3 0.52254958E-01 0.25342987E+03</pdfrwt>
<totfact> 0.71712178E+02</totfact>
</mgrwt>
</event>
<event>
 4    0  0.1355689E-001  0.3262321E+03  0.7546771E-02  0.1072816E+00
         21   -1    0    0  501  502  0.00000000000E+00  0.00000000000E+00  0.73559932920E+03  0.73559932920E+03  0.00000000000E+00 0. -1.
          2   -1    0    0  502    0 -0.00000000000E+00 -0.00000000000E+00 -0.19968295306E+04  0.19968295306E+04  0.00000000000E+00 0. -1.
         25    1    1    2    0    0  0.11938535642E+03  0.27667579027E+03  0.68726900209E+03  0.76076674315E+03  0.12500000000E+03 0.  0.
          2    1    1    2  501    0 -0.11938535642E+03 -0.27667579027E+03 -0.19484992035E+04  0.19716621166E+04  0.00000000000E+00 0. -1.
<mgrwt>
<rscale>  3 0.32623206E+03</rscale>
<asrwt>0</asrwt>
<pdfrwt beam="1">  1       21 0.11316913E+00 0.32623206E+03</pdfrwt>
<pdfrwt beam="2">  1        2 0.30720454E+00 0.32623206E+03</pdfrwt>
<totfact> 0.52740934E+01</totfact>
</mgrwt>
</event>
<event>
 4    0  0.1002184E-001  0.2560908E+03  0.7546771E-02  0.1109515E+00
         21   -1    0    0  501  502  0.00000000000E+00  0.00000000000E+00  0.16608451396E+04  0.16608451396E+04  0.00000000000E+00 0. -1.
         -4   -1    0    0    0  501 -0.00000000000E+00 -0.00000000000E+00 -0.43318983589E+02  0.43318983589E+02  0.00000000000E+00 0. -1.
         25    1    1    2    0    0  0.20488142799E+03 -0.89336961498E+02  0.12337234866E+04  0.12600222750E+04  0.12500000000E+03 0.  0.
         -4    1    1    2    0  502 -0.20488142799E+03  0.89336961498E+02  0.38380266942E+03  0.44414184815E+03  0.00000000000E+00 0. -1.
<mgrwt>
<rscale>  3 0.25609079E+03</rscale>
<asrwt>0</asrwt>
<pdfrwt beam="1">  1       21 0.25551459E+00 0.25609079E+03</pdfrwt>
<pdfrwt beam="2">  1       -4 0.66644603E-02 0.25609079E+03</pdfrwt>
<totfact> 0.37815784E+02</totfact>
</mgrwt>
</event>
<event>
 4    0  0.1466364E-001  0.3290457E+03  0.7546771E-02  0.1071560E+00
         21   -1    0    0  501  502  0.00000000000E+00  0.00000000000E+00  0.10083776660E+03  0.10083776660E+03  0.00000000000E+00 0.  1.
          1   -1    0    0  502    0 -0.00000000000E+00 -0.00000000000E+00 -0.12249914538E+04  0.12249914538E+04  0.00000000000E+00 0.  1.
         25    1    1    2    0    0 -0.11399473857E+03 -0.28222554011E+03 -0.29261909342E+03  0.44033735902E+03  0.12500000000E+03 0.  0.
          1    1    1    2  501    0  0.11399473857E+03  0.28222554011E+03 -0.83153459380E+03  0.88549186139E+03  0.00000000000E+00 0.  1.
<mgrwt>
<rscale>  3 0.32904567E+03</rscale>
<asrwt>0</asrwt>
<pdfrwt beam="1">  1       21 0.15513503E-01 0.32904567E+03</pdfrwt>
<pdfrwt beam="2">  1        1 0.18846022E+00 0.32904567E+03</pdfrwt>
<totfact> 0.43853120E+03</totfact>
</mgrwt>
</event>
<event>
 4    0  0.1224587E-001  0.3806752E+03  0.7546771E-02  0.1050684E+00
         21   -1    0    0  501  502  0.00000000000E+00  0.00000000000E+00  0.61845514534E+02  0.61845514534E+02  0.00000000000E+00 0. -1.
          1   -1    0    0  502    0 -0.00000000000E+00 -0.00000000000E+00 -0.23369600336E+04  0.23369600336E+04  0.00000000000E+00 0. -1.
         25    1    1    2    0    0 -0.33913884415E+03  0.11947168934E+03 -0.14421598919E+04  0.14915558300E+04  0.12500000000E+03 0.  0.
          1    1    1    2  501    0  0.33913884415E+03 -0.11947168934E+03 -0.83295462721E+03  0.90724971819E+03  0.00000000000E+00 0. -1.
<mgrwt>
<rscale>  3 0.38067524E+03</rscale>
<asrwt>0</asrwt>
<pdfrwt beam="1">  1       21 0.95146950E-02 0.38067524E+03</pdfrwt>
<pdfrwt beam="2">  1        1 0.35953230E+00 0.38067524E+03</pdfrwt>
<totfact> 0.19142001E+03</totfact>
</mgrwt>
</event>
<event>
 4    0  0.1370087E-001  0.2446055E+03  0.7546771E-02  0.1116762E+00
          2   -1    0    0  502    0 -0.00000000000E+00  0.00000000000E+00  0.89128651574E+03  0.89128651574E+03  0.00000000000E+00 0. -1.
         21   -1    0    0  501  502  0.00000000000E+00 -0.00000000000E+00 -0.99147248963E+02  0.99147248963E+02  0.00000000000E+00 0. -1.
         25    1    1    2    0    0  0.20353164029E+03 -0.52741921768E+02  0.95213952728E+02  0.26248340082E+03  0.12500000000E+03 0.  0.
          2    1    1    2  501    0 -0.20353164029E+03  0.52741921768E+02  0.69692531404E+03  0.72795036388E+03  0.00000000000E+00 0. -1.
<mgrwt>
<rscale>  3 0.24460548E+03</rscale>
<asrwt>0</asrwt>
<pdfrwt beam="1">  1       21 0.15253423E-01 0.24460548E+03</pdfrwt>
<pdfrwt beam="2">  1        2 0.13712100E+00 0.24460548E+03</pdfrwt>
<totfact> 0.14672465E+04</totfact>
</mgrwt>
</event>
<event>
 4    0  0.1294532E-001  0.2359363E+03  0.7546771E-02  0.1122530E+00
          2   -1    0    0  502    0 -0.00000000000E+00  0.00000000000E+00  0.13336444947E+04  0.13336444947E+04  0.00000000000E+00 0. -1.
         21   -1    0    0  501  502  0.00000000000E+00 -0.00000000000E+00 -0.49828793273E+03  0.49828793273E+03  0.00000000000E+00 0.  1.
         25    1    1    2    0    0 -0.16364929673E+03  0.11515144153E+03 -0.46225372815E+03  0.51898406141E+03  0.12500000000E+03 0.  0.
          2    1    1    2  501    0  0.16364929673E+03 -0.11515144153E+03  0.12976102902E+04  0.13129483661E+04  0.00000000000E+00 0. -1.
<mgrwt>
<rscale>  3 0.23593632E+03</rscale>
<asrwt>0</asrwt>
<pdfrwt beam="1">  1       21 0.76659683E-01 0.23593632E+03</pdfrwt>
<pdfrwt beam="2">  1        2 0.20517607E+00 0.23593632E+03</pdfrwt>
<totfact> 0.31611974E+02</totfact>
</mgrwt>
</event>
<event>
 4    0  0.1013785E-001  0.2517623E+03  0.7546771E-02  0.1112196E+00
         -4   -1    0    0    0  501 -0.00000000000E+00  0.00000000000E+00  0.82637082485E+03  0.82637082485E+03  0.00000000000E+00 0.  1.
         21   -1    0    0  501  502  0.00000000000E+00 -0.00000000000E+00 -0.12412584992E+03  0.12412584992E+03  0.00000000000E+00 0. -1.
         25    1    1    2    0    0 -0.15173827380E+02 -0.21801147806E+03  0.42277800478E+02  0.25528741061E+03  0.12500000000E+03 0.  0.
         -4    1    1    2    0  502  0.15173827380E+02  0.21801147806E+03  0.65996717446E+03  0.69520926416E+03  0.00000000000E+00 0.  1.
<mgrwt>
<rscale>  3 0.25176229E+03</rscale>
<asrwt>0</asrwt>
<pdfrwt beam="1">  1       21 0.19096285E-01 0.25176229E+03</pdfrwt>
<pdfrwt beam="2">  1       -4 0.12713397E+00 0.25176229E+03</pdfrwt>
<totfact> 0.50767215E+02</totfact>
</mgrwt>
</event>
<event>
 4    0  0.1369641E-001  0.4137909E+03  0.7546771E-02  0.1039106E+00
          2   -1    0    0  502    0 -0.00000000000E+00  0.00000000000E+00  0.14719535587E+04  0.14719535587E+04  0.00000000000E+00 0.  1.
         21   -1    0    0  501  502  0.00000000000E+00 -0.00000000000E+00 -0.52612492308E+03  0.52612492308E+03  0.00000000000E+00 0. -1.
         25    1    1    2    0    0  0.25040618777E+03 -0.30478618435E+03 -0.41211403999E+03  0.58400416009E+03  0.12500000000E+03 0.  0.
          2    1    1    2  501    0 -0.25040618777E+03  0.30478618435E+03  0.13579426756E+04  0.14140743217E+04  0.00000000000E+00 0.  1.
<mgrwt>
<rscale>  3 0.41379086E+03</rscale>
<asrwt>0</asrwt>
<pdfrwt beam="1">  1       21 0.80942297E-01 0.41379086E+03</pdfrwt>
<pdfrwt beam="2">  1        2 0.22645439E+00 0.41379086E+03</pdfrwt>
<totfact> 0.21484514E+02</totfact>
</mgrwt>
</event>
<event>
 4    0  0.1002184E-001  0.2903728E+03  0.7546771E-02  0.1090155E+00
          1   -1    0    0  502    0 -0.00000000000E+00  0.00000000000E+00  0.34258143446E+03  0.34258143446E+03  0.00000000000E+00 0.  1.
         21   -1    0    0  501  502  0.00000000000E+00 -0.00000000000E+00 -0.34232598615E+03  0.34232598615E+03  0.00000000000E+00 0. -1.
         25    1    1    2    0    0  0.20649489443E+03 -0.16140398637E+03 -0.20210737612E+03  0.35378493428E+03  0.12500000000E+03 0.  0.
          1    1    1    2  501    0 -0.20649489443E+03  0.16140398637E+03  0.20236282443E+03  0.33112248633E+03  0.00000000000E+00 0.  1.
<mgrwt>
<rscale>  3 0.29037284E+03</rscale>
<asrwt>0</asrwt>
<pdfrwt beam="1">  1       21 0.52665536E-01 0.29037284E+03</pdfrwt>
<pdfrwt beam="2">  1        1 0.52704836E-01 0.29037284E+03</pdfrwt>
<totfact> 0.26865621E+03</totfact>
</mgrwt>
</event>
<event>
 4    0  0.1528873E-001  0.2528089E+03  0.7546771E-02  0.1111542E+00
         21   -1    0    0  501  502  0.00000000000E+00  0.00000000000E+00  0.11521622128E+03  0.11521622128E+03  0.00000000000E+00 0.  1.
          4   -1    0    0  502    0 -0.00000000000E+00 -0.00000000000E+00 -0.13006415982E+04  0.13006415982E+04  0.00000000000E+00 0.  1.
         25    1    1    2    0    0 -0.21348578056E+03 -0.52068630875E+02 -0.47905736270E+02  0.25730775424E+03  0.12500000000E+03 0.  0.
          4    1    1    2  501    0  0.21348578056E+03  0.52068630875E+02 -0.11375196407E+04  0.11585500653E+04  0.00000000000E+00 0.  1.
<mgrwt>
<rscale>  3 0.25280886E+03</rscale>
<asrwt>0</asrwt>
<pdfrwt beam="1">  1       21 0.17725573E-01 0.25280886E+03</pdfrwt>
<pdfrwt beam="2">  1        4 0.20009870E+00 0.25280886E+03</pdfrwt>
<totfact> 0.17399754E+02</totfact>
</mgrwt>
</event>
<event>
 4    0  0.1396540E-001  0.2731452E+03  0.7546771E-02  0.1099493E+00
          1   -1    0    0  502    0 -0.00000000000E+00  0.00000000000E+00  0.58772973237E+03  0.58772973237E+03  0.00000000000E+00 0.  1.
         21   -1    0    0  501  502  0.00000000000E+00 -0.00000000000E+00 -0.50016348359E+03  0.50016348359E+03  0.00000000000E+00 0.  1.
         25    1    1    2    0    0  0.66846151151E+02  0.23348430210E+03 -0.43385964781E+03  0.51268169584E+03  0.12500000000E+03 0.  0.
          1    1    1    2  501    0 -0.66846151151E+02 -0.23348430210E+03  0.52142589659E+03  0.57521152012E+03  0.00000000000E+00 0.  1.
<mgrwt>
<rscale>  3 0.27314525E+03</rscale>
<asrwt>0</asrwt>
<pdfrwt beam="1">  1       21 0.76948228E-01 0.27314525E+03</pdfrwt>
<pdfrwt beam="2">  1        1 0.90419959E-01 0.27314525E+03</pdfrwt>
<totfact> 0.57826404E+02</totfact>
</mgrwt>
</event>
<event>
 4    0  0.1432251E-001  0.2456409E+03  0.7546771E-02  0.1116091E+00
          2   -1    0    0  502    0 -0.00000000000E+00  0.00000000000E+00  0.13784067910E+04  0.13784067910E+04  0.00000000000E+00 0. -1.
         21   -1    0    0  501  502  0.00000000000E+00 -0.00000000000E+00 -0.31650585215E+03  0.31650585215E+03  0.00000000000E+00 0. -1.
         25    1    1    2    0    0  0.10192364051E+03 -0.18527288197E+03 -0.25913600723E+03  0.35705873401E+03  0.12500000000E+03 0.  0.
          2    1    1    2  501    0 -0.10192364051E+03  0.18527288197E+03  0.13210369461E+04  0.13378539092E+04  0.00000000000E+00 0. -1.
<mgrwt>
<rscale>  3 0.24564094E+03</rscale>
<asrwt>0</asrwt>
<pdfrwt beam="1">  1       21 0.48693209E-01 0.24564094E+03</pdfrwt>
<pdfrwt beam="2">  1        2 0.21206258E+00 0.24564094E+03</pdfrwt>
<totfact> 0.79462003E+02</totfact>
</mgrwt>
</event>
<event>
 4    0  0.1004152E-001  0.2492489E+03  0.7546771E-02  0.1113780E+00
          2   -1    0    0  502    0 -0.00000000000E+00  0.00000000000E+00  0.21692519508E+03  0.21692519508E+03  0.00000000000E+00 0. -1.
         21   -1    0    0  501  502  0.00000000000E+00 -0.00000000000E+00 -0.10908988659E+04  0.10908988659E+04  0.00000000000E+00 0. -1.
         25    1    1    2    0    0 -0.19573825024E+03 -0.90479431069E+02 -0.10182889301E+04  0.10483498153E+04  0.12500000000E+03 0.  0.
          2    1    1    2  501    0  0.19573825024E+03  0.90479431069E+02  0.14431525935E+03  0.25947424561E+03  0.00000000000E+00 0. -1.
<mgrwt>
<rscale>  3 0.24924885E+03</rscale>
<asrwt>0</asrwt>
<pdfrwt beam="1">  1       21 0.16783059E+00 0.24924885E+03</pdfrwt>
<pdfrwt beam="2">  1        2 0.33373107E-01 0.24924885E+03</pdfrwt>
<totfact> 0.41004940E+02</totfact>
</mgrwt>
</event>
<event>
 4    0  0.1148085E-001  0.2359395E+03  0.7546771E-02  0.1122528E+00
         21   -1    0    0  501  502  0.00000000000E+00  0.00000000000E+00  0.45059103017E+03  0.45059103017E+03  0.00000000000E+00 0. -1.
          1   -1    0    0  502    0 -0.00000000000E+00 -0.00000000000E+00 -0.13681969608E+03  0.13681969608E+03  0.00000000000E+00 0. -1.
         25    1    1    2    0    0 -0.19576786664E+03 -0.41441179474E+02  0.30699962878E+03  0.38719013551E+03  0.12500000000E+03 0.  0.
          1    1    1    2  501    0  0.19576786664E+03  0.41441179474E+02  0.67717053031E+01  0.20022059074E+03  0.00000000000E+00 0. -1.
<mgrwt>
<rscale>  3 0.23593946E+03</rscale>
<asrwt>0</asrwt>
<pdfrwt beam="1">  1       21 0.69321696E-01 0.23593946E+03</pdfrwt>
<pdfrwt beam="2">  1        1 0.21049184E-01 0.23593946E+03</pdfrwt>
<totfact> 0.48140273E+03</totfact>
</mgrwt>
</event>
<event>
 4    0  0.1002184E-001  0.2541113E+03  0.7546771E-02  0.1110734E+00
         -1   -1    0    0    0  501 -0.00000000000E+00  0.00000000000E+00  0.35113631160E+03  0.35113631160E+03  0.00000000000E+00 0.  1.
         21   -1    0    0  501  502  0.00000000000E+00 -0.00000000000E+00 -0.16090436927E+03  0.16090436927E+03  0.00000000000E+00 0. -1.
         25    1    1    2    0    0  0.63139702792E+02 -0.21203990470E+03  0.10499326665E+03  0.27494750280E+03  0.12500000000E+03 0.  0.
         -1    1    1    2    0  502 -0.63139702792E+02  0.21203990470E+03  0.85238675679E+02  0.23709317807E+03  0.00000000000E+00 0.  1.
<mgrwt>
<rscale>  3 0.25411128E+03</rscale>
<asrwt>0</asrwt>
<pdfrwt beam="1">  1       21 0.24754518E-01 0.25411128E+03</pdfrwt>
<pdfrwt beam="2">  1       -1 0.54020971E-01 0.25411128E+03</pdfrwt>
<totfact> 0.50187999E+03</totfact>
</mgrwt>
</event>
<event>
 4    0  0.1002184E-001  0.2915638E+03  0.7546771E-02  0.1089535E+00
          2   -1    0    0  502    0 -0.00000000000E+00  0.00000000000E+00  0.40224270357E+04  0.40224270357E+04  0.00000000000E+00 0. -1.
         21   -1    0    0  501  502  0.00000000000E+00 -0.00000000000E+00 -0.45324512488E+02  0.45324512488E+02  0.00000000000E+00 0.  1.
         25    1    1    2    0    0 -0.54104750797E+02  0.25779282186E+03  0.48617272016E+03  0.56689803042E+03  0.12500000000E+03 0.  0.
          2    1    1    2  501    0  0.54104750797E+02 -0.25779282186E+03  0.34909298031E+04  0.35008535178E+04  0.00000000000E+00 0. -1.
<mgrwt>
<rscale>  3 0.29156382E+03</rscale>
<asrwt>0</asrwt>
<pdfrwt beam="1">  1       21 0.69730051E-02 0.29156382E+03</pdfrwt>
<pdfrwt beam="2">  1        2 0.61883464E+00 0.29156382E+03</pdfrwt>
<totfact> 0.81725636E+02</totfact>
</mgrwt>
</event>
<event>
 4    0  0.1143669E-001  0.3413300E+03  0.7546771E-02  0.1066231E+00
          1   -1    0    0  502    0 -0.00000000000E+00  0.00000000000E+00  0.27585347779E+04  0.27585347779E+04  0.00000000000E+00 0. -1.
         21   -1    0    0  501  502  0.00000000000E+00 -0.00000000000E+00 -0.81362901584E+02  0.81362901584E+02  0.00000000000E+00 0.  1.
         25    1    1    2    0    0 -0.23851137706E+03  0.20974620608E+03  0.34186955355E+03  0.48309516619E+03  0.12500000000E+03 0.  0.
          1    1    1    2  501    0  0.23851137706E+03 -0.20974620608E+03  0.23353023228E+04  0.23568025133E+04  0.00000000000E+00 0. -1.
<mgrwt>
<rscale>  3 0.34132997E+03</rscale>
<asrwt>0</asrwt>
<pdfrwt beam="1">  1       21 0.12517372E-01 0.34132997E+03</pdfrwt>
<pdfrwt beam="2">  1        1 0.42438989E+00 0.34132997E+03</pdfrwt>
<totfact> 0.61587470E+02</totfact>
</mgrwt>
</event>
<event>
 4    0  0.1406990E-001  0.4159797E+03  0.7546771E-02  0.1038383E+00
          1   -1    0    0  502    0 -0.00000000000E+00  0.00000000000E+00  0.10030143382E+04  0.10030143382E+04  0.00000000000E+00 0. -1.
         21   -1    0    0  501  502  0.00000000000E+00 -0.00000000000E+00 -0.17039560414E+03  0.17039560414E+03  0.00000000000E+00 0. -1.
         25    1    1    2    0    0  0.59945196359E+02 -0.39219984182E+03  0.31800539890E+03  0.52360918271E+03  0.12500000000E+03 0.  0.
          1    1    1    2  501    0 -0.59945196359E+02  0.39219984182E+03  0.51461333518E+03  0.64980075964E+03  0.00000000000E+00 0. -1.
<mgrwt>
<rscale>  3 0.41597974E+03</rscale>
<asrwt>0</asrwt>
<pdfrwt beam="1">  1       21 0.26214709E-01 0.41597974E+03</pdfrwt>
<pdfrwt beam="2">  1        1 0.15430989E+00 0.41597974E+03</pdfrwt>
<totfact> 0.23028529E+03</totfact>
</mgrwt>
</event>
<event>
 4    0  0.1009543E-001  0.2514389E+03  0.7546771E-02  0.1112399E+00
         21   -1    0    0  501  502  0.00000000000E+00  0.00000000000E+00  0.26667221297E+03  0.26667221297E+03  0.00000000000E+00 0.  1.
          1   -1    0    0  502    0 -0.00000000000E+00 -0.00000000000E+00 -0.34420943995E+03  0.34420943995E+03  0.00000000000E+00 0. -1.
         25    1    1    2    0    0  0.21816618156E+03 -0.18191110196E+00  0.15231650269E+03  0.29397590524E+03  0.12500000000E+03 0.  0.
          1    1    1    2  501    0 -0.21816618156E+03  0.18191110196E+00 -0.22985372967E+03  0.31690574768E+03  0.00000000000E+00 0. -1.
<mgrwt>
<rscale>  3 0.25143889E+03</rscale>
<asrwt>0</asrwt>
<pdfrwt beam="1">  1       21 0.41026494E-01 0.25143889E+03</pdfrwt>
<pdfrwt beam="2">  1        1 0.52955299E-01 0.25143889E+03</pdfrwt>
<totfact> 0.45356317E+03</totfact>
</mgrwt>
</event>
<event>
 4    0  0.1002184E-001  0.2395502E+03  0.7546771E-02  0.1120093E+00
         21   -1    0    0  501  502  0.00000000000E+00  0.00000000000E+00  0.86401252036E+03  0.86401252036E+03  0.00000000000E+00 0.  1.
         -1   -1    0    0    0  501 -0.00000000000E+00 -0.00000000000E+00 -0.24585086847E+03  0.24585086847E+03  0.00000000000E+00 0. -1.
         25    1    1    2    0    0 -0.40481693806E+02  0.20030110572E+03  0.80075597682E+03  0.83581961864E+03  0.12500000000E+03 0.  0.
         -1    1    1    2    0  502  0.40481693806E+02 -0.20030110572E+03 -0.18259432493E+03  0.27404377019E+03  0.00000000000E+00 0. -1.
<mgrwt>
<rscale>  3 0.23955020E+03</rscale>
<asrwt>0</asrwt>
<pdfrwt beam="1">  1       21 0.13292500E+00 0.23955020E+03</pdfrwt>
<pdfrwt beam="2">  1       -1 0.37823211E-01 0.23955020E+03</pdfrwt>
<totfact> 0.24920563E+02</totfact>
</mgrwt>
</event>
<event>
 4    0  0.1559219E-001  0.3094124E+03  0.7546771E-02  0.1080628E+00
         21   -1    0    0  501  502  0.00000000000E+00  0.00000000000E+00  0.34044302375E+03  0.34044302375E+03  0.00000000000E+00 0.  1.
          2   -1    0    0  502    0 -0.00000000000E+00 -0.00000000000E+00 -0.15881331953E+04  0.15881331953E+04  0.00000000000E+00 0.  1.
         25    1    1    2    0    0  0.59828445834E+02 -0.27664343137E+03  0.25408056107E+03  0.40036603573E+03  0.12500000000E+03 0.  0.
          2    1    1    2  501    0 -0.59828445834E+02  0.27664343137E+03 -0.15017707326E+04  0.15282101833E+04  0.00000000000E+00 0.  1.
<mgrwt>
<rscale>  3 0.30941240E+03</rscale>
<asrwt>0</asrwt>
<pdfrwt beam="1">  1       21 0.52375849E-01 0.30941240E+03</pdfrwt>
<pdfrwt beam="2">  1        2 0.24432819E+00 0.30941240E+03</pdfrwt>
<totfact> 0.50905190E+02</totfact>
</mgrwt>
</event>
<event>
 4    0  0.1002184E-001  0.2431286E+03  0.7546771E-02  0.1117726E+00
         21   -1    0    0  501  502  0.00000000000E+00  0.00000000000E+00  0.78963336758E+02  0.78963336758E+02  0.00000000000E+00 0. -1.
          2   -1    0    0  502    0 -0.00000000000E+00 -0.00000000000E+00 -0.92945546136E+03  0.92945546136E+03  0.00000000000E+00 0.  1.
         25    1    1    2    0    0  0.12429266001E+03 -0.16744501242E+03 -0.16993740457E+03  0.29663145314E+03  0.12500000000E+03 0.  0.
          2    1    1    2  501    0 -0.12429266001E+03  0.16744501242E+03 -0.68055472004E+03  0.71178734499E+03  0.00000000000E+00 0.  1.
<mgrwt>
<rscale>  3 0.24312856E+03</rscale>
<asrwt>0</asrwt>
<pdfrwt beam="1">  1       21 0.12148206E-01 0.24312856E+03</pdfrwt>
<pdfrwt beam="2">  1        2 0.14299314E+00 0.24312856E+03</pdfrwt>
<totfact> 0.20975682E+04</totfact>
</mgrwt>
</event>
<event>
 4    0  0.1208120E-001  0.2431383E+03  0.7546771E-02  0.1117720E+00
          2   -1    0    0  502    0 -0.00000000000E+00  0.00000000000E+00  0.13585397100E+04  0.13585397100E+04  0.00000000000E+00 0. -1.
         21   -1    0    0  501  502  0.00000000000E+00 -0.00000000000E+00 -0.10168269799E+03  0.10168269799E+03  0.00000000000E+00 0.  1.
         25    1    1    2    0    0 -0.51007503499E+02 -0.20221140675E+03  0.66962373096E+02  0.25219075686E+03  0.12500000000E+03 0.  0.
          2    1    1    2  501    0  0.51007503499E+02  0.20221140675E+03  0.11898946389E+04  0.12080316511E+04  0.00000000000E+00 0. -1.
<mgrwt>
<rscale>  3 0.24313827E+03</rscale>
<asrwt>0</asrwt>
<pdfrwt beam="1">  1       21 0.15643493E-01 0.24313827E+03</pdfrwt>
<pdfrwt beam="2">  1        2 0.20900610E+00 0.24313827E+03</pdfrwt>
<totfact> 0.74529221E+03</totfact>
</mgrwt>
</event>
<event>
 4    0  0.1302962E-001  0.2596279E+03  0.7546771E-02  0.1107367E+00
         -3   -1    0    0    0  501 -0.00000000000E+00  0.00000000000E+00  0.17042802015E+03  0.17042802015E+03  0.00000000000E+00 0.  1.
         21   -1    0    0  501  502  0.00000000000E+00 -0.00000000000E+00 -0.10814421175E+04  0.10814421175E+04  0.00000000000E+00 0.  1.
         25    1    1    2    0    0 -0.22639883548E+03 -0.22917333316E+02 -0.98022214516E+03  0.10140227269E+04  0.12500000000E+03 0.  0.
         -3    1    1    2    0  502  0.22639883548E+03  0.22917333316E+02  0.69208047859E+02  0.23784741067E+03  0.00000000000E+00 0.  1.
<mgrwt>
<rscale>  3 0.25962788E+03</rscale>
<asrwt>0</asrwt>
<pdfrwt beam="1">  1       21 0.16637572E+00 0.25962788E+03</pdfrwt>
<pdfrwt beam="2">  1       -3 0.26219695E-01 0.25962788E+03</pdfrwt>
<totfact> 0.14950261E+02</totfact>
</mgrwt>
</event>
<event>
 4    0  0.1458540E-001  0.2607733E+03  0.7546771E-02  0.1106680E+00
         -3   -1    0    0    0  501 -0.00000000000E+00  0.00000000000E+00  0.17542317005E+03  0.17542317005E+03  0.00000000000E+00 0. -1.
         21   -1    0    0  501  502  0.00000000000E+00 -0.00000000000E+00 -0.41628724131E+03  0.41628724131E+03  0.00000000000E+00 0. -1.
         25    1    1    2    0    0  0.22881558042E+03  0.45970500499E+01 -0.25191841821E+03  0.36258184200E+03  0.12500000000E+03 0.  0.
         -3    1    1    2    0  502 -0.22881558042E+03 -0.45970500499E+01  0.11054346954E+02  0.22912856936E+03  0.00000000000E+00 0. -1.
<mgrwt>
<rscale>  3 0.26077328E+03</rscale>
<asrwt>0</asrwt>
<pdfrwt beam="1">  1       21 0.64044190E-01 0.26077328E+03</pdfrwt>
<pdfrwt beam="2">  1       -3 0.26988180E-01 0.26077328E+03</pdfrwt>
<totfact> 0.14400800E+03</totfact>
</mgrwt>
</event>
<event>
 4    0  0.1444454E-001  0.2737321E+03  0.7546771E-02  0.1099162E+00
          1   -1    0    0  502    0 -0.00000000000E+00  0.00000000000E+00  0.15132153479E+04  0.15132153479E+04  0.00000000000E+00 0. -1.
         21   -1    0    0  501  502  0.00000000000E+00 -0.00000000000E+00 -0.73657124307E+02  0.73657124307E+02  0.00000000000E+00 0. -1.
         25    1    1    2    0    0  0.19833604601E+03 -0.14130490783E+03  0.24377964248E+03  0.36654846639E+03  0.12500000000E+03 0.  0.
          1    1    1    2  501    0 -0.19833604601E+03  0.14130490783E+03  0.11957785811E+04  0.12203240058E+04  0.00000000000E+00 0. -1.
<mgrwt>
<rscale>  3 0.27373210E+03</rscale>
<asrwt>0</asrwt>
<pdfrwt beam="1">  1       21 0.11331866E-01 0.27373210E+03</pdfrwt>
<pdfrwt beam="2">  1        1 0.23280234E+00 0.27373210E+03</pdfrwt>
<totfact> 0.50265790E+03</totfact>
</mgrwt>
</event>
<event>
 4    0  0.1243880E-001  0.2739461E+03  0.7546771E-02  0.1099042E+00
         21   -1    0    0  501  502  0.00000000000E+00  0.00000000000E+00  0.18950625731E+03  0.18950625731E+03  0.00000000000E+00 0.  1.
          2   -1    0    0  502    0 -0.00000000000E+00 -0.00000000000E+00 -0.69354836996E+03  0.69354836996E+03  0.00000000000E+00 0. -1.
         25    1    1    2    0    0  0.15957030050E+03 -0.18427907628E+03  0.49347377347E+02  0.27835520905E+03  0.12500000000E+03 0.  0.
          2    1    1    2  501    0 -0.15957030050E+03  0.18427907628E+03 -0.55338948999E+03  0.60469941822E+03  0.00000000000E+00 0. -1.
<mgrwt>
<rscale>  3 0.27394609E+03</rscale>
<asrwt>0</asrwt>
<pdfrwt beam="1">  1       21 0.29154809E-01 0.27394609E+03</pdfrwt>
<pdfrwt beam="2">  1        2 0.10669975E+00 0.27394609E+03</pdfrwt>
<totfact> 0.58841404E+03</totfact>
</mgrwt>
</event>
<event>
 4    0  0.1002184E-001  0.2464622E+03  0.7546771E-02  0.1115561E+00
         21   -1    0    0  501  502  0.00000000000E+00  0.00000000000E+00  0.55191955195E+02  0.55191955195E+02  0.00000000000E+00 0.  1.
         -3   -1    0    0    0  501 -0.00000000000E+00 -0.00000000000E+00 -0.16925943519E+04  0.16925943519E+04  0.00000000000E+00 0. -1.
         25    1    1    2    0    0 -0.18245838520E+03 -0.10875452194E+03 -0.27646961642E+03  0.37037691231E+03  0.12500000000E+03 0.  0.
         -3    1    1    2    0  502  0.18245838520E+03  0.10875452194E+03 -0.13609327803E+04  0.13774093948E+04  0.00000000000E+00 0. -1.
<mgrwt>
<rscale>  3 0.24646218E+03</rscale>
<asrwt>0</asrwt>
<pdfrwt beam="1">  1       21 0.84910705E-02 0.24646218E+03</pdfrwt>
<pdfrwt beam="2">  1       -3 0.26039912E+00 0.24646218E+03</pdfrwt>
<totfact> 0.38342939E+02</totfact>
</mgrwt>
</event>
<event>
 4    0  0.1276074E-001  0.3627223E+03  0.7546771E-02  0.1057511E+00
         21   -1    0    0  501  502  0.00000000000E+00  0.00000000000E+00  0.23818983042E+03  0.23818983042E+03  0.00000000000E+00 0. -1.
          1   -1    0    0  502    0 -0.00000000000E+00 -0.00000000000E+00 -0.57153275911E+03  0.57153275911E+03  0.00000000000E+00 0. -1.
         25    1    1    2    0    0  0.31789651514E+03  0.12200116641E+03 -0.48819604073E+02  0.36599294076E+03  0.12500000000E+03 0.  0.
          1    1    1    2  501    0 -0.31789651514E+03 -0.12200116641E+03 -0.28452332461E+03  0.44372964877E+03  0.00000000000E+00 0. -1.
<mgrwt>
<rscale>  3 0.36272232E+03</rscale>
<asrwt>0</asrwt>
<pdfrwt beam="1">  1       21 0.36644589E-01 0.36272232E+03</pdfrwt>
<pdfrwt beam="2">  1        1 0.87928117E-01 0.36272232E+03</pdfrwt>
<totfact> 0.28504002E+03</totfact>
</mgrwt>
</event>
<event>
 4    0  0.1364465E-001  0.2913012E+03  0.7546771E-02  0.1089672E+00
         21   -1    0    0  501  502  0.00000000000E+00  0.00000000000E+00  0.23190837935E+03  0.23190837935E+03  0.00000000000E+00 0.  1.
          2   -1    0    0  502    0 -0.00000000000E+00 -0.00000000000E+00 -0.60467807939E+03  0.60467807939E+03  0.00000000000E+00 0.  1.
         25    1    1    2    0    0 -0.62074293119E+02  0.25569160945E+03  0.89447942648E+02  0.30472504238E+03  0.12500000000E+03 0.  0.
          2    1    1    2  501    0  0.62074293119E+02 -0.25569160945E+03 -0.46221764269E+03  0.53186141637E+03  0.00000000000E+00 0.  1.
<mgrwt>
<rscale>  3 0.29130125E+03</rscale>
<asrwt>0</asrwt>
<pdfrwt beam="1">  1       21 0.35678212E-01 0.29130125E+03</pdfrwt>
<pdfrwt beam="2">  1        2 0.93027397E-01 0.29130125E+03</pdfrwt>
<totfact> 0.46235424E+03</totfact>
</mgrwt>
</event>
<event>
 4    0  0.1524158E-001  0.2790300E+03  0.7546771E-02  0.1096220E+00
         21   -1    0    0  501  502  0.00000000000E+00  0.00000000000E+00  0.13619731306E+03  0.13619731306E+03  0.00000000000E+00 0. -1.
          1   -1    0    0  502    0 -0.00000000000E+00 -0.00000000000E+00 -0.77326937264E+03  0.77326937264E+03  0.00000000000E+00 0. -1.
         25    1    1    2    0    0 -0.24061629506E+03  0.65852391325E+02 -0.66649422551E+02  0.28687956431E+03  0.12500000000E+03 0.  0.
          1    1    1    2  501    0  0.24061629506E+03 -0.65852391325E+02 -0.57042263703E+03  0.62258712139E+03  0.00000000000E+00 0. -1.
<mgrwt>
<rscale>  3 0.27903000E+03</rscale>
<asrwt>0</asrwt>
<pdfrwt beam="1">  1       21 0.20953433E-01 0.27903000E+03</pdfrwt>
<pdfrwt beam="2">  1        1 0.11896452E+00 0.27903000E+03</pdfrwt>
<totfact> 0.55929868E+03</totfact>
</mgrwt>
</event>
<event>
 4    0  0.1354397E-001  0.2417189E+03  0.7546771E-02  0.1118653E+00
          2   -1    0    0  502    0 -0.00000000000E+00  0.00000000000E+00  0.20085823147E+03  0.20085823147E+03  0.00000000000E+00 0. -1.
         21   -1    0    0  501  502  0.00000000000E+00 -0.00000000000E+00 -0.25089464149E+03  0.25089464149E+03  0.00000000000E+00 0. -1.
         25    1    1    2    0    0  0.18498385187E+03  0.92649814584E+02 -0.17872239075E+02  0.24237869239E+03  0.12500000000E+03 0.  0.
          2    1    1    2  501    0 -0.18498385187E+03 -0.92649814584E+02 -0.32164170945E+02  0.20937418057E+03  0.00000000000E+00 0. -1.
<mgrwt>
<rscale>  3 0.24171887E+03</rscale>
<asrwt>0</asrwt>
<pdfrwt beam="1">  1       21 0.38599176E-01 0.24171887E+03</pdfrwt>
<pdfrwt beam="2">  1        2 0.30901266E-01 0.24171887E+03</pdfrwt>
<totfact> 0.13420054E+04</totfact>
</mgrwt>
</event>
<event>
 4    0  0.1929358E-001  0.2893295E+03  0.7546771E-02  0.1090700E+00
         21   -1    0    0  501  502  0.00000000000E+00  0.00000000000E+00  0.42818767760E+03  0.42818767760E+03  0.00000000000E+00 0. -1.
         -1   -1    0    0    0  501 -0.00000000000E+00 -0.00000000000E+00 -0.11718775447E+04  0.11718775447E+04  0.00000000000E+00 0. -1.
         25    1    1    2    0    0  0.26024820640E+03 -0.18906304849E+02  0.36233400373E+03  0.46367823709E+03  0.12500000000E+03 0.  0.
         -1    1    1    2    0  502 -0.26024820640E+03  0.18906304849E+02 -0.11060238708E+04  0.11363869852E+04  0.00000000000E+00 0. -1.
<mgrwt>
<rscale>  3 0.28932953E+03</rscale>
<asrwt>0</asrwt>
<pdfrwt beam="1">  1       21 0.65875028E-01 0.28932953E+03</pdfrwt>
<pdfrwt beam="2">  1       -1 0.18028885E+00 0.28932953E+03</pdfrwt>
<totfact> 0.43037968E+01</totfact>
</mgrwt>
</event>
<event>
 4    0  0.1002184E-001  0.2529250E+03  0.7546771E-02  0.1111470E+00
         -2   -1    0    0    0  501 -0.00000000000E+00  0.00000000000E+00  0.27545149579E+03  0.27545149579E+03  0.00000000000E+00 0.  1.
         21   -1    0    0  501  502  0.00000000000E+00 -0.00000000000E+00 -0.23104810876E+03  0.23104810876E+03  0.00000000000E+00 0. -1.
         25    1    1    2    0    0  0.54995385299E+01 -0.21980855074E+03 -0.64660222252E+02  0.26105935770E+03  0.12500000000E+03 0.  0.
         -2    1    1    2    0  502 -0.54995385299E+01  0.21980855074E+03  0.10906360928E+03  0.24544024684E+03  0.00000000000E+00 0.  1.
<mgrwt>
<rscale>  3 0.25292498E+03</rscale>
<asrwt>0</asrwt>
<pdfrwt beam="1">  1       21 0.35545863E-01 0.25292498E+03</pdfrwt>
<pdfrwt beam="2">  1       -2 0.42377153E-01 0.25292498E+03</pdfrwt>
<totfact> 0.32454840E+03</totfact>
</mgrwt>
</event>
<event>
 4    0  0.1379786E-001  0.3689574E+03  0.7546771E-02  0.1055092E+00
          2   -1    0    0  502    0 -0.00000000000E+00  0.00000000000E+00  0.16720169599E+04  0.16720169599E+04  0.00000000000E+00 0. -1.
         21   -1    0    0  501  502  0.00000000000E+00 -0.00000000000E+00 -0.13695994107E+03  0.13695994107E+03  0.00000000000E+00 0. -1.
         25    1    1    2    0    0 -0.31870740029E+03  0.13758690383E+03  0.18068332599E+03  0.41082359645E+03  0.12500000000E+03 0.  0.
          2    1    1    2  501    0  0.31870740029E+03 -0.13758690383E+03  0.13543736929E+04  0.13981533046E+04  0.00000000000E+00 0. -1.
<mgrwt>
<rscale>  3 0.36895740E+03</rscale>
<asrwt>0</asrwt>
<pdfrwt beam="1">  1       21 0.21070761E-01 0.36895740E+03</pdfrwt>
<pdfrwt beam="2">  1        2 0.25723336E+00 0.36895740E+03</pdfrwt>
<totfact> 0.27854746E+03</totfact>
</mgrwt>
</event>
<event>
 4    0  0.1449155E-001  0.2781135E+03  0.7546771E-02  0.1096724E+00
         21   -1    0    0  501  502  0.00000000000E+00  0.00000000000E+00  0.15664396514E+03  0.15664396514E+03  0.00000000000E+00 0.  1.
          1   -1    0    0  502    0 -0.00000000000E+00 -0.00000000000E+00 -0.17338069381E+04  0.17338069381E+04  0.00000000000E+00 0.  1.
         25    1    1    2    0    0  0.11494213883E+03 -0.22025083404E+03  0.15483009532E+02  0.27854415944E+03  0.12500000000E+03 0.  0.
          1    1    1    2  501    0 -0.11494213883E+03  0.22025083404E+03 -0.15926459825E+04  0.16119067438E+04  0.00000000000E+00 0.  1.
<mgrwt>
<rscale>  3 0.27811351E+03</rscale>
<asrwt>0</asrwt>
<pdfrwt beam="1">  1       21 0.24099072E-01 0.27811351E+03</pdfrwt>
<pdfrwt beam="2">  1        1 0.26673953E+00 0.27811351E+03</pdfrwt>
<totfact> 0.88778145E+02</totfact>
</mgrwt>
</event>
<event>
 4    0  0.1253306E-001  0.2432856E+03  0.7546771E-02  0.1117623E+00
          1   -1    0    0  502    0 -0.00000000000E+00  0.00000000000E+00  0.75823796284E+03  0.75823796284E+03  0.00000000000E+00 0.  1.
         21   -1    0    0  501  502  0.00000000000E+00 -0.00000000000E+00 -0.15037565572E+03  0.15037565572E+03  0.00000000000E+00 0. -1.
         25    1    1    2    0    0 -0.13357032349E+03 -0.16038031936E+03 -0.22761136296E+02  0.24434800487E+03  0.12500000000E+03 0.  0.
          1    1    1    2  501    0  0.13357032349E+03  0.16038031936E+03  0.63062344341E+03  0.66426561369E+03  0.00000000000E+00 0.  1.
<mgrwt>
<rscale>  3 0.24328559E+03</rscale>
<asrwt>0</asrwt>
<pdfrwt beam="1">  1       21 0.23134717E-01 0.24328559E+03</pdfrwt>
<pdfrwt beam="2">  1        1 0.11665199E+00 0.24328559E+03</pdfrwt>
<totfact> 0.48204073E+03</totfact>
</mgrwt>
</event>
<event>
 4    0  0.1002184E-001  0.2537083E+03  0.7546771E-02  0.1110983E+00
         -1   -1    0    0    0  501 -0.00000000000E+00  0.00000000000E+00  0.80827690261E+02  0.80827690261E+02  0.00000000000E+00 0.  1.
         21   -1    0    0  501  502  0.00000000000E+00 -0.00000000000E+00 -0.76889321171E+03  0.76889321171E+03  0.00000000000E+00 0. -1.
         25    1    1    2    0    0  0.53900038495E+02  0.21409736393E+03 -0.49587281115E+03  0.55700784575E+03  0.12500000000E+03 0.  0.
         -1    1    1    2    0  502 -0.53900038495E+02 -0.21409736393E+03 -0.19219271030E+03  0.29271305622E+03  0.00000000000E+00 0.  1.
<mgrwt>
<rscale>  3 0.25370829E+03</rscale>
<asrwt>0</asrwt>
<pdfrwt beam="1">  1       21 0.11829126E+00 0.25370829E+03</pdfrwt>
<pdfrwt beam="2">  1       -1 0.12435030E-01 0.25370829E+03</pdfrwt>
<totfact> 0.20836121E+03</totfact>
</mgrwt>
</event>
<event>
 4    0  0.1519306E-001  0.2583415E+03  0.7546771E-02  0.1108144E+00
          1   -1    0    0  502    0 -0.00000000000E+00  0.00000000000E+00  0.19345591888E+04  0.19345591888E+04  0.00000000000E+00 0.  1.
         21   -1    0    0  501  502  0.00000000000E+00 -0.00000000000E+00 -0.21312610849E+03  0.21312610849E+03  0.00000000000E+00 0. -1.
         25    1    1    2    0    0 -0.59334015236E+02 -0.21816239349E+03 -0.12532788338E+03  0.28713661147E+03  0.12500000000E+03 0.  0.
          1    1    1    2  501    0  0.59334015236E+02  0.21816239349E+03  0.18467609637E+04  0.18605486858E+04  0.00000000000E+00 0.  1.
<mgrwt>
<rscale>  3 0.25834155E+03</rscale>
<asrwt>0</asrwt>
<pdfrwt beam="1">  1       21 0.32788633E-01 0.25834155E+03</pdfrwt>
<pdfrwt beam="2">  1        1 0.29762448E+00 0.25834155E+03</pdfrwt>
<totfact> 0.36434378E+02</totfact>
</mgrwt>
</event>
<event>
 4    0  0.1115255E-001  0.2385873E+03  0.7546771E-02  0.1120738E+00
         21   -1    0    0  501  502  0.00000000000E+00  0.00000000000E+00  0.21676865082E+03  0.21676865082E+03  0.00000000000E+00 0. -1.
          1   -1    0    0  502    0 -0.00000000000E+00 -0.00000000000E+00 -0.26181155243E+03  0.26181155243E+03  0.00000000000E+00 0. -1.
         25    1    1    2    0    0  0.13459656983E+03  0.15225855160E+03  0.65263135141E+02  0.24735233969E+03  0.12500000000E+03 0.  0.
          1    1    1    2  501    0 -0.13459656983E+03 -0.15225855160E+03 -0.11030603675E+03  0.23122786356E+03  0.00000000000E+00 0. -1.
<mgrwt>
<rscale>  3 0.23858731E+03</rscale>
<asrwt>0</asrwt>
<pdfrwt beam="1">  1       21 0.33349023E-01 0.23858731E+03</pdfrwt>
<pdfrwt beam="2">  1        1 0.40278700E-01 0.23858731E+03</pdfrwt>
<totfact> 0.97430519E+03</totfact>
</mgrwt>
</event>
<event>
 4    0  0.1002184E-001  0.2560412E+03  0.7546771E-02  0.1109545E+00
         21   -1    0    0  501  502  0.00000000000E+00  0.00000000000E+00  0.20035746144E+03  0.20035746144E+03  0.00000000000E+00 0.  1.
         -2   -1    0    0    0  501 -0.00000000000E+00 -0.00000000000E+00 -0.32397180604E+03  0.32397180604E+03  0.00000000000E+00 0. -1.
         25    1    1    2    0    0 -0.11961238872E+03  0.18874580892E+03  0.22995551067E+02  0.25707177848E+03  0.12500000000E+03 0.  0.
         -2    1    1    2    0  502  0.11961238872E+03 -0.18874580892E+03 -0.14660989567E+03  0.26725748900E+03  0.00000000000E+00 0. -1.
<mgrwt>
<rscale>  3 0.25604122E+03</rscale>
<asrwt>0</asrwt>
<pdfrwt beam="1">  1       21 0.30824225E-01 0.25604122E+03</pdfrwt>
<pdfrwt beam="2">  1       -2 0.49841816E-01 0.25604122E+03</pdfrwt>
<totfact> 0.31280249E+03</totfact>
</mgrwt>
</event>
<event>
 4    0  0.1499391E-001  0.2940896E+03  0.7546771E-02  0.1088233E+00
         21   -1    0    0  501  502  0.00000000000E+00  0.00000000000E+00  0.50100809872E+03  0.50100809872E+03  0.00000000000E+00 0. -1.
         -4   -1    0    0    0  501 -0.00000000000E+00 -0.00000000000E+00 -0.17938850759E+03  0.17938850759E+03  0.00000000000E+00 0. -1.
         25    1    1    2    0    0 -0.13973160887E+03 -0.22658054598E+03  0.46803929886E+02  0.29779065497E+03  0.12500000000E+03 0.  0.
         -4    1    1    2    0  502  0.13973160887E+03  0.22658054598E+03  0.27481566124E+03  0.38260595134E+03  0.00000000000E+00 0. -1.
<mgrwt>
<rscale>  3 0.29408955E+03</rscale>
<asrwt>0</asrwt>
<pdfrwt beam="1">  1       21 0.77078169E-01 0.29408955E+03</pdfrwt>
<pdfrwt beam="2">  1       -4 0.27598232E-01 0.29408955E+03</pdfrwt>
<totfact> 0.77787169E+02</totfact>
</mgrwt>
</event>
<event>
 4    0  0.1150633E-001  0.2866671E+03  0.7546771E-02  0.1092102E+00
          2   -1    0    0  502    0 -0.00000000000E+00  0.00000000000E+00  0.32887860500E+04  0.32887860500E+04  0.00000000000E+00 0.  1.
         21   -1    0    0  501  502  0.00000000000E+00 -0.00000000000E+00 -0.22597166100E+02  0.22597166100E+02  0.00000000000E+00 0.  1.
         25    1    1    2    0    0 -0.24852792989E+03  0.69187194906E+02  0.16428172929E+04  0.16676410459E+04  0.12500000000E+03 0.  0.
          2    1    1    2  501    0  0.24852792989E+03 -0.69187194906E+02  0.16233715910E+04  0.16437421703E+04  0.00000000000E+00 0.  1.
<mgrwt>
<rscale>  3 0.28666705E+03</rscale>
<asrwt>0</asrwt>
<pdfrwt beam="1">  1       21 0.34764897E-02 0.28666705E+03</pdfrwt>
<pdfrwt beam="2">  1        2 0.50596670E+00 0.28666705E+03</pdfrwt>
<totfact> 0.87132490E+03</totfact>
</mgrwt>
</event>
<event>
 4    0  0.1042287E-001  0.2560198E+03  0.7546771E-02  0.1109558E+00
         21   -1    0    0  501  502  0.00000000000E+00  0.00000000000E+00  0.13314896443E+04  0.13314896443E+04  0.00000000000E+00 0.  1.
         -3   -1    0    0    0  501 -0.00000000000E+00 -0.00000000000E+00 -0.49556429595E+02  0.49556429595E+02  0.00000000000E+00 0.  1.
         25    1    1    2    0    0 -0.19358773834E+03 -0.11155690498E+03  0.92648002839E+03  0.96120309950E+03  0.12500000000E+03 0.  0.
         -3    1    1    2    0  502  0.19358773834E+03  0.11155690498E+03  0.35545318629E+03  0.41984297437E+03  0.00000000000E+00 0.  1.
<mgrwt>
<rscale>  3 0.25601983E+03</rscale>
<asrwt>0</asrwt>
<pdfrwt beam="1">  1       21 0.20484453E+00 0.25601983E+03</pdfrwt>
<pdfrwt beam="2">  1       -3 0.76240671E-02 0.25601983E+03</pdfrwt>
<totfact> 0.69520041E+02</totfact>
</mgrwt>
</event>
<event>
 4    0  0.1165124E-001  0.3535644E+03  0.7546771E-02  0.1061162E+00
          1   -1    0    0  502    0 -0.00000000000E+00  0.00000000000E+00  0.25880763494E+04  0.25880763494E+04  0.00000000000E+00 0. -1.
         21   -1    0    0  501  502  0.00000000000E+00 -0.00000000000E+00 -0.72860921076E+02  0.72860921076E+02  0.00000000000E+00 0. -1.
         25    1    1    2    0    0  0.20901504545E+03  0.25631130194E+03  0.46465547177E+03  0.58387711050E+03  0.12500000000E+03 0.  0.
          1    1    1    2  501    0 -0.20901504545E+03 -0.25631130194E+03  0.20505599566E+04  0.20770601600E+04  0.00000000000E+00 0. -1.
<mgrwt>
<rscale>  3 0.35356438E+03</rscale>
<asrwt>0</asrwt>
<pdfrwt beam="1">  1       21 0.11209374E-01 0.35356438E+03</pdfrwt>
<pdfrwt beam="2">  1        1 0.39816552E+00 0.35356438E+03</pdfrwt>
<totfact> 0.97745515E+02</totfact>
</mgrwt>
</event>
<event>
 4    0  0.1447241E-001  0.2690520E+03  0.7546771E-02  0.1101823E+00
          2   -1    0    0  502    0 -0.00000000000E+00  0.00000000000E+00  0.14405069319E+04  0.14405069319E+04  0.00000000000E+00 0.  1.
         21   -1    0    0  501  502  0.00000000000E+00 -0.00000000000E+00 -0.10530241217E+03  0.10530241217E+03  0.00000000000E+00 0.  1.
         25    1    1    2    0    0  0.19033414824E+03 -0.14330707131E+03  0.98737563795E+02  0.28659747239E+03  0.12500000000E+03 0.  0.
          2    1    1    2  501    0 -0.19033414824E+03  0.14330707131E+03  0.12364669559E+04  0.12592118717E+04  0.00000000000E+00 0.  1.
<mgrwt>
<rscale>  3 0.26905205E+03</rscale>
<asrwt>0</asrwt>
<pdfrwt beam="1">  1       21 0.16200372E-01 0.26905205E+03</pdfrwt>
<pdfrwt beam="2">  1        2 0.22161644E+00 0.26905205E+03</pdfrwt>
<totfact> 0.62552490E+03</totfact>
</mgrwt>
</event>
<event>
 4    0  0.1569560E-001  0.3017312E+03  0.7546771E-02  0.1084378E+00
         -2   -1    0    0    0  501 -0.00000000000E+00  0.00000000000E+00  0.44179884946E+03  0.44179884946E+03  0.00000000000E+00 0.  1.
         21   -1    0    0  501  502  0.00000000000E+00 -0.00000000000E+00 -0.19384564366E+03  0.19384564366E+03  0.00000000000E+00 0.  1.
         25    1    1    2    0    0 -0.23098666593E+02 -0.27364790395E+03  0.18489911263E+03  0.35387767037E+03  0.12500000000E+03 0.  0.
         -2    1    1    2    0  502  0.23098666593E+02  0.27364790395E+03  0.63054093174E+02  0.28176682274E+03  0.00000000000E+00 0.  1.
<mgrwt>
<rscale>  3 0.30173121E+03</rscale>
<asrwt>0</asrwt>
<pdfrwt beam="1">  1       21 0.29822407E-01 0.30173121E+03</pdfrwt>
<pdfrwt beam="2">  1       -2 0.67969053E-01 0.30173121E+03</pdfrwt>
<totfact> 0.17430831E+03</totfact>
</mgrwt>
</event>
<event>
 4    0  0.1002184E-001  0.2486450E+03  0.7546771E-02  0.1114164E+00
         21   -1    0    0  501  502  0.00000000000E+00  0.00000000000E+00  0.68516960451E+03  0.68516960451E+03  0.00000000000E+00 0. -1.
          1   -1    0    0  502    0 -0.00000000000E+00 -0.00000000000E+00 -0.15000630090E+03  0.15000630090E+03  0.00000000000E+00 0.  1.
         25    1    1    2    0    0 -0.21470776527E+03  0.99962829281E+01  0.56583678115E+03  0.61805793664E+03  0.12500000000E+03 0.  0.
          1    1    1    2  501    0  0.21470776527E+03 -0.99962829281E+01 -0.30673477547E+02  0.21711796877E+03  0.00000000000E+00 0.  1.
<mgrwt>
<rscale>  3 0.24864503E+03</rscale>
<asrwt>0</asrwt>
<pdfrwt beam="1">  1       21 0.10541071E+00 0.24864503E+03</pdfrwt>
<pdfrwt beam="2">  1        1 0.23077893E-01 0.24864503E+03</pdfrwt>
<totfact> 0.16190649E+03</totfact>
</mgrwt>
</event>
<event>
 4    0  0.1328966E-001  0.2581064E+03  0.7546771E-02  0.1108286E+00
          2   -1    0    0  502    0 -0.00000000000E+00  0.00000000000E+00  0.40051125452E+03  0.40051125452E+03  0.00000000000E+00 0. -1.
         21   -1    0    0  501  502  0.00000000000E+00 -0.00000000000E+00 -0.19327258758E+03  0.19327258758E+03  0.00000000000E+00 0. -1.
         25    1    1    2    0    0  0.83749932076E+02  0.20971381885E+03 -0.37459624919E+02  0.26081058344E+03  0.12500000000E+03 0.  0.
          2    1    1    2  501    0 -0.83749932076E+02 -0.20971381885E+03  0.24469829187E+03  0.33297325866E+03  0.00000000000E+00 0. -1.
<mgrwt>
<rscale>  3 0.25810644E+03</rscale>
<asrwt>0</asrwt>
<pdfrwt beam="1">  1       21 0.29734244E-01 0.25810644E+03</pdfrwt>
<pdfrwt beam="2">  1        2 0.61617116E-01 0.25810644E+03</pdfrwt>
<totfact> 0.10632304E+04</totfact>
</mgrwt>
</event>
<event>
 4    0  0.1600137E-001  0.2579346E+03  0.7546771E-02  0.1108391E+00
         21   -1    0    0  501  502  0.00000000000E+00  0.00000000000E+00  0.19187231165E+03  0.19187231165E+03  0.00000000000E+00 0.  1.
         -1   -1    0    0    0  501 -0.00000000000E+00 -0.00000000000E+00 -0.31368965770E+03  0.31368965770E+03  0.00000000000E+00 0.  1.
         25    1    1    2    0    0 -0.19920966281E+03 -0.10592807805E+03 -0.10764485509E+03  0.27949537081E+03  0.12500000000E+03 0.  0.
         -1    1    1    2    0  502  0.19920966281E+03  0.10592807805E+03 -0.14172490954E+02  0.22606659854E+03  0.00000000000E+00 0.  1.
<mgrwt>
<rscale>  3 0.25793458E+03</rscale>
<asrwt>0</asrwt>
<pdfrwt beam="1">  1       21 0.29518817E-01 0.25793458E+03</pdfrwt>
<pdfrwt beam="2">  1       -1 0.48259947E-01 0.25793458E+03</pdfrwt>
<totfact> 0.43976289E+03</totfact>
</mgrwt>
</event>
<event>
 4    0  0.1002184E-001  0.2391153E+03  0.7546771E-02  0.1120384E+00
         21   -1    0    0  501  502  0.00000000000E+00  0.00000000000E+00  0.37708305633E+02  0.37708305633E+02  0.00000000000E+00 0.  1.
          1   -1    0    0  502    0 -0.00000000000E+00 -0.00000000000E+00 -0.30428757944E+04  0.30428757944E+04  0.00000000000E+00 0. -1.
         25    1    1    2    0    0  0.11580848389E+02 -0.20351165503E+03 -0.38988007331E+03  0.45736482303E+03  0.12500000000E+03 0.  0.
          1    1    1    2  501    0 -0.11580848389E+02  0.20351165503E+03 -0.26152874154E+04  0.26232192770E+04  0.00000000000E+00 0. -1.
<mgrwt>
<rscale>  3 0.23911526E+03</rscale>
<asrwt>0</asrwt>
<pdfrwt beam="1">  1       21 0.58012767E-02 0.23911526E+03</pdfrwt>
<pdfrwt beam="2">  1        1 0.46813483E+00 0.23911526E+03</pdfrwt>
<totfact> 0.15950077E+03</totfact>
</mgrwt>
</event>
<event>
 4    0  0.1153926E-001  0.2862381E+03  0.7546771E-02  0.1092330E+00
          2   -1    0    0  502    0 -0.00000000000E+00  0.00000000000E+00  0.11200725072E+04  0.11200725072E+04  0.00000000000E+00 0. -1.
         21   -1    0    0  501  502  0.00000000000E+00 -0.00000000000E+00 -0.10037804415E+03  0.10037804415E+03  0.00000000000E+00 0.  1.
         25    1    1    2    0    0  0.72258805591E+02 -0.24715561488E+03  0.17071821279E+03  0.33328207442E+03  0.12500000000E+03 0.  0.
          2    1    1    2  501    0 -0.72258805591E+02  0.24715561488E+03  0.84897625021E+03  0.88716847688E+03  0.00000000000E+00 0. -1.
<mgrwt>
<rscale>  3 0.28623807E+03</rscale>
<asrwt>0</asrwt>
<pdfrwt beam="1">  1       21 0.15442777E-01 0.28623807E+03</pdfrwt>
<pdfrwt beam="2">  1        2 0.17231884E+00 0.28623807E+03</pdfrwt>
<totfact> 0.10281484E+04</totfact>
</mgrwt>
</event>
<event>
 4    0  0.1447106E-001  0.2550416E+03  0.7546771E-02  0.1110159E+00
          2   -1    0    0  502    0 -0.00000000000E+00  0.00000000000E+00  0.63088135228E+03  0.63088135228E+03  0.00000000000E+00 0.  1.
         21   -1    0    0  501  502  0.00000000000E+00 -0.00000000000E+00 -0.39420019970E+03  0.39420019970E+03  0.00000000000E+00 0. -1.
         25    1    1    2    0    0 -0.11539161578E+03 -0.19001583341E+03 -0.32958520434E+03  0.41674050542E+03  0.12500000000E+03 0.  0.
          2    1    1    2  501    0  0.11539161578E+03  0.19001583341E+03  0.56626635692E+03  0.60834104656E+03  0.00000000000E+00 0.  1.
<mgrwt>
<rscale>  3 0.25504165E+03</rscale>
<asrwt>0</asrwt>
<pdfrwt beam="1">  1       21 0.60646184E-01 0.25504165E+03</pdfrwt>
<pdfrwt beam="2">  1        2 0.97058670E-01 0.25504165E+03</pdfrwt>
<totfact> 0.14733267E+03</totfact>
</mgrwt>
</event>
<event>
 4    0  0.1011191E-001  0.2399489E+03  0.7546771E-02  0.1119827E+00
          2   -1    0    0  502    0 -0.00000000000E+00  0.00000000000E+00  0.64338572976E+03  0.64338572976E+03  0.00000000000E+00 0.  1.
         21   -1    0    0  501  502  0.00000000000E+00 -0.00000000000E+00 -0.13434373663E+03  0.13434373663E+03  0.00000000000E+00 0. -1.
         25    1    1    2    0    0  0.13497564975E+03 -0.15405217126E+03  0.12123191904E+02  0.24025500885E+03  0.12500000000E+03 0.  0.
          2    1    1    2  501    0 -0.13497564975E+03  0.15405217126E+03  0.49691880123E+03  0.53747445754E+03  0.00000000000E+00 0.  1.
<mgrwt>
<rscale>  3 0.23994895E+03</rscale>
<asrwt>0</asrwt>
<pdfrwt beam="1">  1       21 0.20668268E-01 0.23994895E+03</pdfrwt>
<pdfrwt beam="2">  1        2 0.98982418E-01 0.23994895E+03</pdfrwt>
<totfact> 0.12559173E+04</totfact>
</mgrwt>
</event>
<event>
 4    0  0.1002184E-001  0.5643912E+03  0.7546771E-02  0.9982168E-01
          2   -1    0    0  502    0 -0.00000000000E+00  0.00000000000E+00  0.11122168147E+04  0.11122168147E+04  0.00000000000E+00 0.  1.
         21   -1    0    0  501  502  0.00000000000E+00 -0.00000000000E+00 -0.29700973656E+03  0.29700973656E+03  0.00000000000E+00 0. -1.
         25    1    1    2    0    0  0.15174720201E+03  0.52904175035E+03  0.24052642299E+03  0.61350659906E+03  0.12500000000E+03 0.  0.
          2    1    1    2  501    0 -0.15174720201E+03 -0.52904175035E+03  0.57468065513E+03  0.79571995219E+03  0.00000000000E+00 0.  1.
<mgrwt>
<rscale>  3 0.56439116E+03</rscale>
<asrwt>0</asrwt>
<pdfrwt beam="1">  1       21 0.45693806E-01 0.56439116E+03</pdfrwt>
<pdfrwt beam="2">  1        2 0.17111028E+00 0.56439116E+03</pdfrwt>
<totfact> 0.11658050E+03</totfact>
</mgrwt>
</event>
<event>
 4    0  0.1002184E-001  0.2657445E+03  0.7546771E-02  0.1103740E+00
         21   -1    0    0  501  502  0.00000000000E+00  0.00000000000E+00  0.45147716949E+02  0.45147716949E+02  0.00000000000E+00 0. -1.
         -1   -1    0    0    0  501 -0.00000000000E+00 -0.00000000000E+00 -0.13941222329E+04  0.13941222329E+04  0.00000000000E+00 0.  1.
         25    1    1    2    0    0  0.11674569936E+03 -0.20338531269E+03 -0.77198425022E+03  0.81644340057E+03  0.12500000000E+03 0.  0.
         -1    1    1    2    0  502 -0.11674569936E+03  0.20338531269E+03 -0.57699026568E+03  0.62282654923E+03  0.00000000000E+00 0.  1.
<mgrwt>
<rscale>  3 0.26574451E+03</rscale>
<asrwt>0</asrwt>
<pdfrwt beam="1">  1       21 0.69458037E-02 0.26574451E+03</pdfrwt>
<pdfrwt beam="2">  1       -1 0.21448031E+00 0.26574451E+03</pdfrwt>
<totfact> 0.19203198E+03</totfact>
</mgrwt>
</event>
<event>
 4    0  0.1470812E-001  0.2936361E+03  0.7546771E-02  0.1088466E+00
         21   -1    0    0  501  502  0.00000000000E+00  0.00000000000E+00  0.38380789181E+02  0.38380789181E+02  0.00000000000E+00 0. -1.
         -3   -1    0    0    0  501 -0.00000000000E+00 -0.00000000000E+00 -0.29968239030E+04  0.29968239030E+04  0.00000000000E+00 0. -1.
         25    1    1    2    0    0 -0.98232266504E+02 -0.24687568015E+03 -0.67170859290E+03  0.73308567944E+03  0.12500000000E+03 0.  0.
         -3    1    1    2    0  502  0.98232266504E+02  0.24687568015E+03 -0.22867345209E+04  0.23021190128E+04  0.00000000000E+00 0. -1.
<mgrwt>
<rscale>  3 0.29363613E+03</rscale>
<asrwt>0</asrwt>
<pdfrwt beam="1">  1       21 0.59047329E-02 0.29363613E+03</pdfrwt>
<pdfrwt beam="2">  1       -3 0.46105013E+00 0.29363613E+03</pdfrwt>
<totfact> 0.60234325E+01</totfact>
</mgrwt>
</event>
<event>
 4    0  0.1170520E-001  0.5082833E+03  0.7546771E-02  0.1011639E+00
          2   -1    0    0  502    0 -0.00000000000E+00  0.00000000000E+00  0.14290898020E+04  0.14290898020E+04  0.00000000000E+00 0. -1.
         21   -1    0    0  501  502  0.00000000000E+00 -0.00000000000E+00 -0.18188944934E+03  0.18188944934E+03  0.00000000000E+00 0. -1.
         25    1    1    2    0    0  0.27132473280E+03  0.41122965625E+03  0.78659982691E+03  0.93653148826E+03  0.12500000000E+03 0.  0.
          2    1    1    2  501    0 -0.27132473280E+03 -0.41122965625E+03  0.46060052573E+03  0.67444776307E+03  0.00000000000E+00 0. -1.
<mgrwt>
<rscale>  3 0.50828333E+03</rscale>
<asrwt>0</asrwt>
<pdfrwt beam="1">  1       21 0.27982993E-01 0.50828333E+03</pdfrwt>
<pdfrwt beam="2">  1        2 0.21985996E+00 0.50828333E+03</pdfrwt>
<totfact> 0.21054597E+03</totfact>
</mgrwt>
</event>
<event>
 4    0  0.1333278E-001  0.2899295E+03  0.7546771E-02  0.1090386E+00
         21   -1    0    0  501  502  0.00000000000E+00  0.00000000000E+00  0.22713524200E+03  0.22713524200E+03  0.00000000000E+00 0.  1.
          2   -1    0    0  502    0 -0.00000000000E+00 -0.00000000000E+00 -0.42022483531E+03  0.42022483531E+03  0.00000000000E+00 0.  1.
         25    1    1    2    0    0  0.17388946973E+03  0.19543938559E+03  0.45284142856E+02  0.29344463654E+03  0.12500000000E+03 0.  0.
          2    1    1    2  501    0 -0.17388946973E+03 -0.19543938559E+03 -0.23837373617E+03  0.35391544077E+03  0.00000000000E+00 0.  1.
<mgrwt>
<rscale>  3 0.28992948E+03</rscale>
<asrwt>0</asrwt>
<pdfrwt beam="1">  1       21 0.34943884E-01 0.28992948E+03</pdfrwt>
<pdfrwt beam="2">  1        2 0.64649974E-01 0.28992948E+03</pdfrwt>
<totfact> 0.72802864E+03</totfact>
</mgrwt>
</event>
<event>
 4    0  0.1469643E-001  0.2679350E+03  0.7546771E-02  0.1102467E+00
         21   -1    0    0  501  502  0.00000000000E+00  0.00000000000E+00  0.14187695482E+03  0.14187695482E+03  0.00000000000E+00 0. -1.
          2   -1    0    0  502    0 -0.00000000000E+00 -0.00000000000E+00 -0.48783066861E+03  0.48783066861E+03  0.00000000000E+00 0. -1.
         25    1    1    2    0    0  0.14589931931E+03 -0.18675536240E+03 -0.27113789589E+03  0.38118884473E+03  0.12500000000E+03 0.  0.
          2    1    1    2  501    0 -0.14589931931E+03  0.18675536240E+03 -0.74815817898E+02  0.24851877870E+03  0.00000000000E+00 0. -1.
<mgrwt>
<rscale>  3 0.26793502E+03</rscale>
<asrwt>0</asrwt>
<pdfrwt beam="1">  1       21 0.21827224E-01 0.26793502E+03</pdfrwt>
<pdfrwt beam="2">  1        2 0.75050873E-01 0.26793502E+03</pdfrwt>
<totfact> 0.15491969E+04</totfact>
</mgrwt>
</event>
<event>
 4    0  0.1319907E-001  0.2686574E+03  0.7546771E-02  0.1102050E+00
         21   -1    0    0  501  502  0.00000000000E+00  0.00000000000E+00  0.73681827001E+03  0.73681827001E+03  0.00000000000E+00 0. -1.
         -4   -1    0    0    0  501 -0.00000000000E+00 -0.00000000000E+00 -0.94199571166E+02  0.94199571166E+02  0.00000000000E+00 0. -1.
         25    1    1    2    0    0 -0.20229836820E+03 -0.12500865600E+03  0.45381555922E+03  0.52737591492E+03  0.12500000000E+03 0.  0.
         -4    1    1    2    0  502  0.20229836820E+03  0.12500865600E+03  0.18880313963E+03  0.30364192626E+03  0.00000000000E+00 0. -1.
<mgrwt>
<rscale>  3 0.26865739E+03</rscale>
<asrwt>0</asrwt>
<pdfrwt beam="1">  1       21 0.11335665E+00 0.26865739E+03</pdfrwt>
<pdfrwt beam="2">  1       -4 0.14492242E-01 0.26865739E+03</pdfrwt>
<totfact> 0.10162268E+03</totfact>
</mgrwt>
</event>
<event>
 4    0  0.1203862E-001  0.2600288E+03  0.7546771E-02  0.1107126E+00
          2   -1    0    0  502    0 -0.00000000000E+00  0.00000000000E+00  0.83434570945E+03  0.83434570945E+03  0.00000000000E+00 0. -1.
         21   -1    0    0  501  502  0.00000000000E+00 -0.00000000000E+00 -0.17232323481E+04  0.17232323481E+04  0.00000000000E+00 0. -1.
         25    1    1    2    0    0 -0.22543692023E+03  0.34178221152E+02 -0.16975673353E+04  0.17173671168E+04  0.12500000000E+03 0.  0.
          2    1    1    2  501    0  0.22543692023E+03 -0.34178221152E+02  0.80868069669E+03  0.84021094078E+03  0.00000000000E+00 0. -1.
<mgrwt>
<rscale>  3 0.26002876E+03</rscale>
<asrwt>0</asrwt>
<pdfrwt beam="1">  1       21 0.26511267E+00 0.26002876E+03</pdfrwt>
<pdfrwt beam="2">  1        2 0.12836088E+00 0.26002876E+03</pdfrwt>
<totfact> 0.21351817E+01</totfact>
</mgrwt>
</event>
<event>
 4    0  0.1299596E-001  0.3007976E+03  0.7546771E-02  0.1084843E+00
          2   -1    0    0  502    0 -0.00000000000E+00  0.00000000000E+00  0.28523676454E+03  0.28523676454E+03  0.00000000000E+00 0. -1.
         21   -1    0    0  501  502  0.00000000000E+00 -0.00000000000E+00 -0.35683437409E+03  0.35683437409E+03  0.00000000000E+00 0. -1.
         25    1    1    2    0    0 -0.23042646970E+03 -0.14750547606E+03 -0.17684392657E+03  0.34893122212E+03  0.12500000000E+03 0.  0.
          2    1    1    2  501    0  0.23042646970E+03  0.14750547606E+03  0.10524631702E+03  0.29313991651E+03  0.00000000000E+00 0. -1.
<mgrwt>
<rscale>  3 0.30079765E+03</rscale>
<asrwt>0</asrwt>
<pdfrwt beam="1">  1       21 0.54897596E-01 0.30079765E+03</pdfrwt>
<pdfrwt beam="2">  1        2 0.43882579E-01 0.30079765E+03</pdfrwt>
<totfact> 0.43535844E+03</totfact>
</mgrwt>
</event>
<event>
 4    0  0.1002184E-001  0.2654968E+03  0.7546771E-02  0.1103885E+00
         21   -1    0    0  501  502  0.00000000000E+00  0.00000000000E+00  0.56459841504E+02  0.56459841504E+02  0.00000000000E+00 0.  1.
          2   -1    0    0  502    0 -0.00000000000E+00 -0.00000000000E+00 -0.15308195726E+04  0.15308195726E+04  0.00000000000E+00 0. -1.
         25    1    1    2    0    0 -0.99226903393E+02  0.21217340225E+03 -0.35289183543E+03  0.44161202259E+03  0.12500000000E+03 0.  0.
          2    1    1    2  501    0  0.99226903393E+02 -0.21217340225E+03 -0.11214678956E+04  0.11456673915E+04  0.00000000000E+00 0. -1.
<mgrwt>
<rscale>  3 0.26549676E+03</rscale>
<asrwt>0</asrwt>
<pdfrwt beam="1">  1       21 0.86861299E-02 0.26549676E+03</pdfrwt>
<pdfrwt beam="2">  1        2 0.23551069E+00 0.26549676E+03</pdfrwt>
<totfact> 0.17221661E+04</totfact>
</mgrwt>
</event>
<event>
 4    0  0.1463141E-001  0.2669830E+03  0.7546771E-02  0.1103019E+00
         21   -1    0    0  501  502  0.00000000000E+00  0.00000000000E+00  0.50804563792E+02  0.50804563792E+02  0.00000000000E+00 0.  1.
          2   -1    0    0  502    0 -0.00000000000E+00 -0.00000000000E+00 -0.19831684623E+04  0.19831684623E+04  0.00000000000E+00 0.  1.
         25    1    1    2    0    0 -0.69826122437E+02 -0.22534247201E+03 -0.38371396955E+03  0.46745730018E+03  0.12500000000E+03 0.  0.
          2    1    1    2  501    0  0.69826122437E+02  0.22534247201E+03 -0.15486499290E+04  0.15665157259E+04  0.00000000000E+00 0.  1.
<mgrwt>
<rscale>  3 0.26698299E+03</rscale>
<asrwt>0</asrwt>
<pdfrwt beam="1">  1       21 0.78160875E-02 0.26698299E+03</pdfrwt>
<pdfrwt beam="2">  1        2 0.30510281E+00 0.26698299E+03</pdfrwt>
<totfact> 0.11965393E+04</totfact>
</mgrwt>
</event>
<event>
 4    0  0.1002184E-001  0.2533862E+03  0.7546771E-02  0.1111183E+00
         21   -1    0    0  501  502  0.00000000000E+00  0.00000000000E+00  0.17601561054E+03  0.17601561054E+03  0.00000000000E+00 0.  1.
          2   -1    0    0  502    0 -0.00000000000E+00 -0.00000000000E+00 -0.33349954434E+03  0.33349954434E+03  0.00000000000E+00 0. -1.
         25    1    1    2    0    0 -0.68695586502E+02 -0.20942890067E+03 -0.30686704217E+02  0.25523757924E+03  0.12500000000E+03 0.  0.
          2    1    1    2  501    0  0.68695586502E+02  0.20942890067E+03 -0.12679722958E+03  0.25427757564E+03  0.00000000000E+00 0. -1.
<mgrwt>
<rscale>  3 0.25338616E+03</rscale>
<asrwt>0</asrwt>
<pdfrwt beam="1">  1       21 0.27079325E-01 0.25338616E+03</pdfrwt>
<pdfrwt beam="2">  1        2 0.51307622E-01 0.25338616E+03</pdfrwt>
<totfact> 0.15579933E+04</totfact>
</mgrwt>
</event>
<event>
 4    0  0.1015478E-001  0.2379041E+03  0.7546771E-02  0.1121197E+00
          2   -1    0    0  502    0 -0.00000000000E+00  0.00000000000E+00  0.33106987757E+04  0.33106987757E+04  0.00000000000E+00 0.  1.
         21   -1    0    0  501  502  0.00000000000E+00 -0.00000000000E+00 -0.21435039850E+02  0.21435039850E+02  0.00000000000E+00 0.  1.
         25    1    1    2    0    0  0.14713320935E+03  0.13901505821E+03  0.79924317714E+03  0.83389928883E+03  0.12500000000E+03 0.  0.
          2    1    1    2  501    0 -0.14713320935E+03 -0.13901505821E+03  0.24900205587E+04  0.24982345267E+04  0.00000000000E+00 0.  1.
<mgrwt>
<rscale>  3 0.23790411E+03</rscale>
<asrwt>0</asrwt>
<pdfrwt beam="1">  1       21 0.32977011E-02 0.23790411E+03</pdfrwt>
<pdfrwt beam="2">  1        2 0.50933787E+00 0.23790411E+03</pdfrwt>
<totfact> 0.94149080E+03</totfact>
</mgrwt>
</event>
<event>
 4    0  0.1565361E-001  0.2715121E+03  0.7546771E-02  0.1100417E+00
          2   -1    0    0  502    0 -0.00000000000E+00  0.00000000000E+00  0.72731389924E+03  0.72731389924E+03  0.00000000000E+00 0. -1.
         21   -1    0    0  501  502  0.00000000000E+00 -0.00000000000E+00 -0.10175648182E+03  0.10175648182E+03  0.00000000000E+00 0. -1.
         25    1    1    2    0    0  0.18781879057E+02 -0.24029367420E+03  0.19039204872E+03  0.33161414484E+03  0.12500000000E+03 0.  0.
          2    1    1    2  501    0 -0.18781879057E+02  0.24029367420E+03  0.43516536870E+03  0.49745623622E+03  0.00000000000E+00 0. -1.
<mgrwt>
<rscale>  3 0.27151208E+03</rscale>
<asrwt>0</asrwt>
<pdfrwt beam="1">  1       21 0.15654844E-01 0.27151208E+03</pdfrwt>
<pdfrwt beam="2">  1        2 0.11189444E+00 0.27151208E+03</pdfrwt>
<totfact> 0.18060717E+04</totfact>
</mgrwt>
</event>
<event>
 4    0  0.1644657E-001  0.2820587E+03  0.7546771E-02  0.1094570E+00
         21   -1    0    0  501  502  0.00000000000E+00  0.00000000000E+00  0.19857993280E+03  0.19857993280E+03  0.00000000000E+00 0. -1.
         -3   -1    0    0    0  501 -0.00000000000E+00 -0.00000000000E+00 -0.38759618068E+03  0.38759618068E+03  0.00000000000E+00 0. -1.
         25    1    1    2    0    0  0.34242804973E+02  0.25051851394E+03 -0.17709732063E+03  0.33304737875E+03  0.12500000000E+03 0.  0.
         -3    1    1    2    0  502 -0.34242804973E+02 -0.25051851394E+03 -0.11918927248E+02  0.25312873473E+03  0.00000000000E+00 0. -1.
<mgrwt>
<rscale>  3 0.28205867E+03</rscale>
<asrwt>0</asrwt>
<pdfrwt beam="1">  1       21 0.30550759E-01 0.28205867E+03</pdfrwt>
<pdfrwt beam="2">  1       -3 0.59630181E-01 0.28205867E+03</pdfrwt>
<totfact> 0.14077401E+03</totfact>
</mgrwt>
</event>
<event>
 4    0  0.1199910E-001  0.5062000E+03  0.7546771E-02  0.1012173E+00
          2   -1    0    0  502    0 -0.00000000000E+00  0.00000000000E+00  0.12535306179E+04  0.12535306179E+04  0.00000000000E+00 0. -1.
         21   -1    0    0  501  502  0.00000000000E+00 -0.00000000000E+00 -0.61159282622E+03  0.61159282622E+03  0.00000000000E+00 0. -1.
         25    1    1    2    0    0  0.47538106778E+03 -0.12093920135E+03 -0.44413227623E+03  0.67341809362E+03  0.12500000000E+03 0.  0.
          2    1    1    2  501    0 -0.47538106778E+03  0.12093920135E+03  0.10860700679E+04  0.11917053505E+04  0.00000000000E+00 0. -1.
<mgrwt>
<rscale>  3 0.50620001E+03</rscale>
<asrwt>0</asrwt>
<pdfrwt beam="1">  1       21 0.94091204E-01 0.50620001E+03</pdfrwt>
<pdfrwt beam="2">  1        2 0.19285086E+00 0.50620001E+03</pdfrwt>
<totfact> 0.19357395E+02</totfact>
</mgrwt>
</event>
<event>
 4    0  0.1556038E-001  0.2853090E+03  0.7546771E-02  0.1092824E+00
         21   -1    0    0  501  502  0.00000000000E+00  0.00000000000E+00  0.71318737906E+02  0.71318737906E+02  0.00000000000E+00 0.  1.
          2   -1    0    0  502    0 -0.00000000000E+00 -0.00000000000E+00 -0.10289479186E+04  0.10289479186E+04  0.00000000000E+00 0.  1.
         25    1    1    2    0    0  0.20312008279E+03  0.15658379036E+03 -0.50747989242E+03  0.58218304050E+03  0.12500000000E+03 0.  0.
          2    1    1    2  501    0 -0.20312008279E+03 -0.15658379036E+03 -0.45014928828E+03  0.51808361601E+03  0.00000000000E+00 0.  1.
<mgrwt>
<rscale>  3 0.28530905E+03</rscale>
<asrwt>0</asrwt>
<pdfrwt beam="1">  1       21 0.10972113E-01 0.28530905E+03</pdfrwt>
<pdfrwt beam="2">  1        2 0.15829969E+00 0.28530905E+03</pdfrwt>
<totfact> 0.21687711E+04</totfact>
</mgrwt>
</event>
<event>
 4    0  0.1261494E-001  0.3139248E+03  0.7546771E-02  0.1078480E+00
         21   -1    0    0  501  502  0.00000000000E+00  0.00000000000E+00  0.15022085095E+03  0.15022085095E+03  0.00000000000E+00 0.  1.
          2   -1    0    0  502    0 -0.00000000000E+00 -0.00000000000E+00 -0.24820158939E+04  0.24820158939E+04  0.00000000000E+00 0.  1.
         25    1    1    2    0    0 -0.26334729665E+03 -0.11649873504E+03 -0.33201635877E+02  0.31567562869E+03  0.12500000000E+03 0.  0.
          2    1    1    2  501    0  0.26334729665E+03  0.11649873504E+03 -0.22985934071E+04  0.23165611162E+04  0.00000000000E+00 0.  1.
<mgrwt>
<rscale>  3 0.31392476E+03</rscale>
<asrwt>0</asrwt>
<pdfrwt beam="1">  1       21 0.23110898E-01 0.31392476E+03</pdfrwt>
<pdfrwt beam="2">  1        2 0.38184863E+00 0.31392476E+03</pdfrwt>
<totfact> 0.87720421E+02</totfact>
</mgrwt>
</event>
<event>
 4    0  0.1002184E-001  0.2791420E+03  0.7546771E-02  0.1096159E+00
         21   -1    0    0  501  502  0.00000000000E+00  0.00000000000E+00  0.26313086929E+04  0.26313086929E+04  0.00000000000E+00 0. -1.
          1   -1    0    0  502    0 -0.00000000000E+00 -0.00000000000E+00 -0.18129518705E+03  0.18129518705E+03  0.00000000000E+00 0. -1.
         25    1    1    2    0    0 -0.10922513628E+03 -0.22442169876E+03  0.25339492606E+04  0.25492781497E+04  0.12500000000E+03 0.  0.
          1    1    1    2  501    0  0.10922513628E+03  0.22442169876E+03 -0.83935754770E+02  0.26332573022E+03  0.00000000000E+00 0. -1.
<mgrwt>
<rscale>  3 0.27914195E+03</rscale>
<asrwt>0</asrwt>
<pdfrwt beam="1">  1       21 0.40481669E+00 0.27914195E+03</pdfrwt>
<pdfrwt beam="2">  1        1 0.27891569E-01 0.27914195E+03</pdfrwt>
<totfact> 0.13076888E+01</totfact>
</mgrwt>
</event>
<event>
 4    0  0.1197506E-001  0.2378936E+03  0.7546771E-02  0.1121204E+00
          2   -1    0    0  502    0 -0.00000000000E+00  0.00000000000E+00  0.22913930800E+04  0.22913930800E+04  0.00000000000E+00 0.  1.
         21   -1    0    0  501  502  0.00000000000E+00 -0.00000000000E+00 -0.73024997492E+02  0.73024997492E+02  0.00000000000E+00 0.  1.
         25    1    1    2    0    0 -0.15772568778E+03  0.12685026874E+03  0.13961961435E+03  0.27583875720E+03  0.12500000000E+03 0.  0.
          2    1    1    2  501    0  0.15772568778E+03 -0.12685026874E+03  0.20787484681E+04  0.20885793203E+04  0.00000000000E+00 0.  1.
<mgrwt>
<rscale>  3 0.23789364E+03</rscale>
<asrwt>0</asrwt>
<pdfrwt beam="1">  1       21 0.11234617E-01 0.23789364E+03</pdfrwt>
<pdfrwt beam="2">  1        2 0.35252196E+00 0.23789364E+03</pdfrwt>
<totfact> 0.43735621E+03</totfact>
</mgrwt>
</event>
<event>
 4    0  0.1457030E-001  0.3009777E+03  0.7546771E-02  0.1084753E+00
         21   -1    0    0  501  502  0.00000000000E+00  0.00000000000E+00  0.26383046661E+03  0.26383046661E+03  0.00000000000E+00 0. -1.
          3   -1    0    0  502    0 -0.00000000000E+00 -0.00000000000E+00 -0.51576972166E+03  0.51576972166E+03  0.00000000000E+00 0. -1.
         25    1    1    2    0    0  0.13628809302E+03 -0.23746183519E+03  0.11463036852E+03  0.32206783270E+03  0.12500000000E+03 0.  0.
          3    1    1    2  501    0 -0.13628809302E+03  0.23746183519E+03 -0.36656962357E+03  0.45753235557E+03  0.00000000000E+00 0. -1.
<mgrwt>
<rscale>  3 0.30097769E+03</rscale>
<asrwt>0</asrwt>
<pdfrwt beam="1">  1       21 0.40589302E-01 0.30097769E+03</pdfrwt>
<pdfrwt beam="2">  1        3 0.79349188E-01 0.30097769E+03</pdfrwt>
<totfact> 0.43103220E+02</totfact>
</mgrwt>
</event>
<event>
 4    0  0.1289610E-001  0.2867758E+03  0.7546771E-02  0.1092045E+00
          2   -1    0    0  502    0 -0.00000000000E+00  0.00000000000E+00  0.45067739584E+03  0.45067739584E+03  0.00000000000E+00 0.  1.
         21   -1    0    0  501  502  0.00000000000E+00 -0.00000000000E+00 -0.44803370918E+03  0.44803370918E+03  0.00000000000E+00 0.  1.
         25    1    1    2    0    0  0.19204749277E+03 -0.17243286340E+03 -0.35581852139E+03  0.45699797814E+03  0.12500000000E+03 0.  0.
          2    1    1    2  501    0 -0.19204749277E+03  0.17243286340E+03  0.35846220805E+03  0.44171312688E+03  0.00000000000E+00 0.  1.
<mgrwt>
<rscale>  3 0.28677575E+03</rscale>
<asrwt>0</asrwt>
<pdfrwt beam="1">  1       21 0.68928263E-01 0.28677575E+03</pdfrwt>
<pdfrwt beam="2">  1        2 0.69334984E-01 0.28677575E+03</pdfrwt>
<totfact> 0.16145932E+03</totfact>
</mgrwt>
</event>
<event>
 4    0  0.1002184E-001  0.2481160E+03  0.7546771E-02  0.1114501E+00
          1   -1    0    0  502    0 -0.00000000000E+00  0.00000000000E+00  0.16460049779E+03  0.16460049779E+03  0.00000000000E+00 0. -1.
         21   -1    0    0  501  502  0.00000000000E+00 -0.00000000000E+00 -0.16592133730E+04  0.16592133730E+04  0.00000000000E+00 0.  1.
         25    1    1    2    0    0  0.18645225507E+03 -0.10569829696E+03 -0.15753603387E+04  0.15947795365E+04  0.12500000000E+03 0.  0.
          1    1    1    2  501    0 -0.18645225507E+03  0.10569829696E+03  0.80747463497E+02  0.22903433425E+03  0.00000000000E+00 0. -1.
<mgrwt>
<rscale>  3 0.24811605E+03</rscale>
<asrwt>0</asrwt>
<pdfrwt beam="1">  1       21 0.25526361E+00 0.24811605E+03</pdfrwt>
<pdfrwt beam="2">  1        1 0.25323153E-01 0.24811605E+03</pdfrwt>
<totfact> 0.11980654E+02</totfact>
</mgrwt>
</event>
<event>
 4    0  0.1180059E-001  0.5340505E+03  0.7546771E-02  0.1005255E+00
         -2   -1    0    0    0  501 -0.00000000000E+00  0.00000000000E+00  0.66556590364E+03  0.66556590364E+03  0.00000000000E+00 0. -1.
         21   -1    0    0  501  502  0.00000000000E+00 -0.00000000000E+00 -0.57972191684E+03  0.57972191684E+03  0.00000000000E+00 0. -1.
         25    1    1    2    0    0  0.51443541752E+03  0.70293461556E+02  0.37351286898E+03  0.65170686112E+03  0.12500000000E+03 0.  0.
         -2    1    1    2    0  502 -0.51443541752E+03 -0.70293461556E+02 -0.28766888217E+03  0.59358095936E+03  0.00000000000E+00 0. -1.
<mgrwt>
<rscale>  3 0.53405053E+03</rscale>
<asrwt>0</asrwt>
<pdfrwt beam="1">  1       21 0.89187988E-01 0.53405053E+03</pdfrwt>
<pdfrwt beam="2">  1       -2 0.10239475E+00 0.53405053E+03</pdfrwt>
<totfact> 0.62823996E+01</totfact>
</mgrwt>
</event>
<event>
 4    0  0.1448771E-001  0.2410187E+03  0.7546771E-02  0.1119116E+00
          1   -1    0    0  502    0 -0.00000000000E+00  0.00000000000E+00  0.63379418316E+03  0.63379418316E+03  0.00000000000E+00 0.  1.
         21   -1    0    0  501  502  0.00000000000E+00 -0.00000000000E+00 -0.39871878104E+03  0.39871878104E+03  0.00000000000E+00 0. -1.
         25    1    1    2    0    0 -0.20189244067E+03  0.41284893934E+02 -0.34276915047E+03  0.41902349645E+03  0.12500000000E+03 0.  0.
          1    1    1    2  501    0  0.20189244067E+03 -0.41284893934E+02  0.57784455260E+03  0.61348946775E+03  0.00000000000E+00 0.  1.
<mgrwt>
<rscale>  3 0.24101867E+03</rscale>
<asrwt>0</asrwt>
<pdfrwt beam="1">  1       21 0.61341351E-01 0.24101867E+03</pdfrwt>
<pdfrwt beam="2">  1        1 0.97506797E-01 0.24101867E+03</pdfrwt>
<totfact> 0.87198807E+02</totfact>
</mgrwt>
</event>
<event>
 4    0  0.1002184E-001  0.2934227E+03  0.7546771E-02  0.1088576E+00
         21   -1    0    0  501  502  0.00000000000E+00  0.00000000000E+00  0.28933658608E+03  0.28933658608E+03  0.00000000000E+00 0.  1.
          4   -1    0    0  502    0 -0.00000000000E+00 -0.00000000000E+00 -0.27622575175E+03  0.27622575175E+03  0.00000000000E+00 0. -1.
         25    1    1    2    0    0  0.20865018793E+03 -0.16412485053E+03  0.49651421738E+02  0.29759390311E+03  0.12500000000E+03 0.  0.
          4    1    1    2  501    0 -0.20865018793E+03  0.16412485053E+03 -0.36540587409E+02  0.26796843473E+03  0.00000000000E+00 0. -1.
<mgrwt>
<rscale>  3 0.29342268E+03</rscale>
<asrwt>0</asrwt>
<pdfrwt beam="1">  1       21 0.44513321E-01 0.29342268E+03</pdfrwt>
<pdfrwt beam="2">  1        4 0.42496269E-01 0.29342268E+03</pdfrwt>
<totfact> 0.10976623E+03</totfact>
</mgrwt>
</event>
<event>
 4    0  0.1002184E-001  0.3349502E+03  0.7546771E-02  0.1068967E+00
         21   -1    0    0  501  502  0.00000000000E+00  0.00000000000E+00  0.89049398546E+03  0.89049398546E+03  0.00000000000E+00 0.  1.
          1   -1    0    0  502    0 -0.00000000000E+00 -0.00000000000E+00 -0.13310261884E+03  0.13310261884E+03  0.00000000000E+00 0.  1.
         25    1    1    2    0    0 -0.13646162771E+03  0.27918607743E+03  0.56880100838E+03  0.66009562095E+03  0.12500000000E+03 0.  0.
          1    1    1    2  501    0  0.13646162771E+03 -0.27918607743E+03  0.18859035825E+03  0.36350098335E+03  0.00000000000E+00 0.  1.
<mgrwt>
<rscale>  3 0.33495021E+03</rscale>
<asrwt>0</asrwt>
<pdfrwt beam="1">  1       21 0.13699907E+00 0.33495021E+03</pdfrwt>
<pdfrwt beam="2">  1        1 0.20477327E-01 0.33495021E+03</pdfrwt>
<totfact> 0.95133117E+02</totfact>
</mgrwt>
</event>
<event>
 4    0  0.1855352E-001  0.2827793E+03  0.7546771E-02  0.1094181E+00
         21   -1    0    0  501  502  0.00000000000E+00  0.00000000000E+00  0.11251560427E+03  0.11251560427E+03  0.00000000000E+00 0.  1.
         -1   -1    0    0    0  501 -0.00000000000E+00 -0.00000000000E+00 -0.64805051551E+03  0.64805051551E+03  0.00000000000E+00 0.  1.
         25    1    1    2    0    0 -0.22685803953E+03  0.11346608014E+03 -0.32605136812E+03  0.43159427255E+03  0.12500000000E+03 0.  0.
         -1    1    1    2    0  502  0.22685803953E+03 -0.11346608014E+03 -0.20948354312E+03  0.32897184724E+03  0.00000000000E+00 0.  1.
<mgrwt>
<rscale>  3 0.28277928E+03</rscale>
<asrwt>0</asrwt>
<pdfrwt beam="1">  1       21 0.17310094E-01 0.28277928E+03</pdfrwt>
<pdfrwt beam="2">  1       -1 0.99700076E-01 0.28277928E+03</pdfrwt>
<totfact> 0.28124483E+03</totfact>
</mgrwt>
</event>
<event>
 4    0  0.1172626E-001  0.2632722E+03  0.7546771E-02  0.1105193E+00
          2   -1    0    0  502    0 -0.00000000000E+00  0.00000000000E+00  0.26502279318E+04  0.26502279318E+04  0.00000000000E+00 0. -1.
         21   -1    0    0  501  502  0.00000000000E+00 -0.00000000000E+00 -0.13835334739E+03  0.13835334739E+03  0.00000000000E+00 0. -1.
         25    1    1    2    0    0 -0.23121479733E+03 -0.15065987186E+02 -0.27675506080E+01  0.26328677485E+03  0.12500000000E+03 0.  0.
          2    1    1    2  501    0  0.23121479733E+03  0.15065987186E+02  0.25146421351E+04  0.25252945044E+04  0.00000000000E+00 0. -1.
<mgrwt>
<rscale>  3 0.26327223E+03</rscale>
<asrwt>0</asrwt>
<pdfrwt beam="1">  1       21 0.21285132E-01 0.26327223E+03</pdfrwt>
<pdfrwt beam="2">  1        2 0.40772734E+00 0.26327223E+03</pdfrwt>
<totfact> 0.84996931E+02</totfact>
</mgrwt>
</event>
<event>
 4    0  0.1297529E-001  0.2554162E+03  0.7546771E-02  0.1109929E+00
         21   -1    0    0  501  502  0.00000000000E+00  0.00000000000E+00  0.66672285410E+02  0.66672285410E+02  0.00000000000E+00 0.  1.
          2   -1    0    0  502    0 -0.00000000000E+00 -0.00000000000E+00 -0.12545701785E+04  0.12545701785E+04  0.00000000000E+00 0.  1.
         25    1    1    2    0    0 -0.13003032856E+03 -0.18084393607E+03 -0.25053141622E+03  0.35777563650E+03  0.12500000000E+03 0.  0.
          2    1    1    2  501    0  0.13003032856E+03  0.18084393607E+03 -0.93736647692E+03  0.96346682746E+03  0.00000000000E+00 0.  1.
<mgrwt>
<rscale>  3 0.25541616E+03</rscale>
<asrwt>0</asrwt>
<pdfrwt beam="1">  1       21 0.10257276E-01 0.25541616E+03</pdfrwt>
<pdfrwt beam="2">  1        2 0.19301077E+00 0.25541616E+03</pdfrwt>
<totfact> 0.18186182E+04</totfact>
</mgrwt>
</event>
<event>
 4    0  0.1285040E-001  0.3655059E+03  0.7546771E-02  0.1056425E+00
          2   -1    0    0  502    0 -0.00000000000E+00  0.00000000000E+00  0.17985749421E+04  0.17985749421E+04  0.00000000000E+00 0. -1.
         21   -1    0    0  501  502  0.00000000000E+00 -0.00000000000E+00 -0.94382376741E+02  0.94382376741E+02  0.00000000000E+00 0. -1.
         25    1    1    2    0    0 -0.30163311490E+03 -0.16427721135E+03  0.38949947815E+03  0.53413891607E+03  0.12500000000E+03 0.  0.
          2    1    1    2  501    0  0.30163311490E+03  0.16427721135E+03  0.13146930872E+04  0.13588184028E+04  0.00000000000E+00 0. -1.
<mgrwt>
<rscale>  3 0.36550587E+03</rscale>
<asrwt>0</asrwt>
<pdfrwt beam="1">  1       21 0.14520367E-01 0.36550587E+03</pdfrwt>
<pdfrwt beam="2">  1        2 0.27670381E+00 0.36550587E+03</pdfrwt>
<totfact> 0.47931368E+03</totfact>
</mgrwt>
</event>
<event>
 4    0  0.1002184E-001  0.4056781E+03  0.7546771E-02  0.1041831E+00
          2   -1    0    0  502    0 -0.00000000000E+00  0.00000000000E+00  0.20497908835E+04  0.20497908835E+04  0.00000000000E+00 0. -1.
         21   -1    0    0  501  502  0.00000000000E+00 -0.00000000000E+00 -0.10386572304E+03  0.10386572304E+03  0.00000000000E+00 0.  1.
         25    1    1    2    0    0  0.18727125594E+03 -0.33745991455E+03  0.43749979125E+03  0.59664125282E+03  0.12500000000E+03 0.  0.
          2    1    1    2  501    0 -0.18727125594E+03  0.33745991455E+03  0.15084253692E+04  0.15570153537E+04  0.00000000000E+00 0. -1.
<mgrwt>
<rscale>  3 0.40567810E+03</rscale>
<asrwt>0</asrwt>
<pdfrwt beam="1">  1       21 0.15979344E-01 0.40567810E+03</pdfrwt>
<pdfrwt beam="2">  1        2 0.31535241E+00 0.40567810E+03</pdfrwt>
<totfact> 0.29175181E+03</totfact>
</mgrwt>
</event>
<event>
 4    0  0.1002184E-001  0.4493579E+03  0.7546771E-02  0.1027914E+00
          1   -1    0    0  502    0 -0.00000000000E+00  0.00000000000E+00  0.42010118665E+03  0.42010118665E+03  0.00000000000E+00 0. -1.
         21   -1    0    0  501  502  0.00000000000E+00 -0.00000000000E+00 -0.17537495598E+04  0.17537495598E+04  0.00000000000E+00 0.  1.
         25    1    1    2    0    0  0.32549368327E+03 -0.28346314065E+03 -0.16031930796E+04  0.16649776396E+04  0.12500000000E+03 0.  0.
          1    1    1    2  501    0 -0.32549368327E+03  0.28346314065E+03  0.26954470653E+03  0.50887310675E+03  0.00000000000E+00 0. -1.
<mgrwt>
<rscale>  3 0.44935786E+03</rscale>
<asrwt>0</asrwt>
<pdfrwt beam="1">  1       21 0.26980762E+00 0.44935786E+03</pdfrwt>
<pdfrwt beam="2">  1        1 0.64630953E-01 0.44935786E+03</pdfrwt>
<totfact> 0.26125180E+01</totfact>
</mgrwt>
</event>
<event>
 4    0  0.1241836E-001  0.4189969E+03  0.7546771E-02  0.1037393E+00
         -1   -1    0    0    0  501 -0.00000000000E+00  0.00000000000E+00  0.28242819512E+04  0.28242819512E+04  0.00000000000E+00 0. -1.
         21   -1    0    0  501  502  0.00000000000E+00 -0.00000000000E+00 -0.60476258498E+02  0.60476258498E+02  0.00000000000E+00 0. -1.
         25    1    1    2    0    0  0.25177390994E+03 -0.31071414895E+03  0.12177691671E+04  0.12878354431E+04  0.12500000000E+03 0.  0.
         -1    1    1    2    0  502 -0.25177390994E+03  0.31071414895E+03  0.15460365255E+04  0.15969227666E+04  0.00000000000E+00 0. -1.
<mgrwt>
<rscale>  3 0.41899688E+03</rscale>
<asrwt>0</asrwt>
<pdfrwt beam="1">  1       21 0.93040420E-02 0.41899688E+03</pdfrwt>
<pdfrwt beam="2">  1       -1 0.43450481E+00 0.41899688E+03</pdfrwt>
<totfact> 0.41282363E+01</totfact>
</mgrwt>
</event>
<event>
 4    0  0.1064410E-001  0.2597700E+03  0.7546771E-02  0.1107282E+00
         21   -1    0    0  501  502  0.00000000000E+00  0.00000000000E+00  0.21002369845E+03  0.21002369845E+03  0.00000000000E+00 0. -1.
          2   -1    0    0  502    0 -0.00000000000E+00 -0.00000000000E+00 -0.27142314232E+04  0.27142314232E+04  0.00000000000E+00 0. -1.
         25    1    1    2    0    0 -0.21675747397E+03 -0.69797158402E+02  0.12284434305E+03  0.28735201141E+03  0.12500000000E+03 0.  0.
          2    1    1    2  501    0  0.21675747397E+03  0.69797158402E+02 -0.26270520678E+04  0.26369031102E+04  0.00000000000E+00 0. -1.
<mgrwt>
<rscale>  3 0.25976999E+03</rscale>
<asrwt>0</asrwt>
<pdfrwt beam="1">  1       21 0.32311338E-01 0.25976999E+03</pdfrwt>
<pdfrwt beam="2">  1        2 0.41757407E+00 0.25976999E+03</pdfrwt>
<totfact> 0.34978273E+02</totfact>
</mgrwt>
</event>
<event>
 4    0  0.1002184E-001  0.3030596E+03  0.7546771E-02  0.1083721E+00
         21   -1    0    0  501  502  0.00000000000E+00  0.00000000000E+00  0.90872811625E+02  0.90872811625E+02  0.00000000000E+00 0. -1.
          2   -1    0    0  502    0 -0.00000000000E+00 -0.00000000000E+00 -0.10861655904E+04  0.10861655904E+04  0.00000000000E+00 0.  1.
         25    1    1    2    0    0 -0.25089621974E+03 -0.11520080331E+03 -0.28925907615E+03  0.41894623915E+03  0.12500000000E+03 0.  0.
          2    1    1    2  501    0  0.25089621974E+03  0.11520080331E+03 -0.70603370260E+03  0.75809216285E+03  0.00000000000E+00 0.  1.
<mgrwt>
<rscale>  3 0.30305963E+03</rscale>
<asrwt>0</asrwt>
<pdfrwt beam="1">  1       21 0.13980433E-01 0.30305963E+03</pdfrwt>
<pdfrwt beam="2">  1        2 0.16710239E+00 0.30305963E+03</pdfrwt>
<totfact> 0.12877346E+04</totfact>
</mgrwt>
</event>
<event>
 4    0  0.1002184E-001  0.2937989E+03  0.7546771E-02  0.1088382E+00
         21   -1    0    0  501  502  0.00000000000E+00  0.00000000000E+00  0.26570414708E+03  0.26570414708E+03  0.00000000000E+00 0. -1.
          2   -1    0    0  502    0 -0.00000000000E+00 -0.00000000000E+00 -0.38697573717E+03  0.38697573717E+03  0.00000000000E+00 0.  1.
         25    1    1    2    0    0 -0.20746093433E+03  0.16629110833E+03  0.96242839646E+02  0.30916089042E+03  0.12500000000E+03 0.  0.
          2    1    1    2  501    0  0.20746093433E+03 -0.16629110833E+03 -0.21751442973E+03  0.34351899383E+03  0.00000000000E+00 0.  1.
<mgrwt>
<rscale>  3 0.29379886E+03</rscale>
<asrwt>0</asrwt>
<pdfrwt beam="1">  1       21 0.40877561E-01 0.29379886E+03</pdfrwt>
<pdfrwt beam="2">  1        2 0.59534729E-01 0.29379886E+03</pdfrwt>
<totfact> 0.57967346E+03</totfact>
</mgrwt>
</event>
<event>
 4    0  0.1647074E-001  0.3347263E+03  0.7546771E-02  0.1069065E+00
         21   -1    0    0  501  502  0.00000000000E+00  0.00000000000E+00  0.38276105206E+03  0.38276105206E+03  0.00000000000E+00 0. -1.
          2   -1    0    0  502    0 -0.00000000000E+00 -0.00000000000E+00 -0.84529057665E+03  0.84529057665E+03  0.00000000000E+00 0. -1.
         25    1    1    2    0    0 -0.31020210677E+03 -0.13832986044E+02  0.27153571450E+03  0.43101431855E+03  0.12500000000E+03 0.  0.
          2    1    1    2  501    0  0.31020210677E+03  0.13832986044E+02 -0.73406523909E+03  0.79703731016E+03  0.00000000000E+00 0. -1.
<mgrwt>
<rscale>  3 0.33472630E+03</rscale>
<asrwt>0</asrwt>
<pdfrwt beam="1">  1       21 0.58886316E-01 0.33472630E+03</pdfrwt>
<pdfrwt beam="2">  1        2 0.13004470E+00 0.33472630E+03</pdfrwt>
<totfact> 0.10608130E+03</totfact>
</mgrwt>
</event>
<event>
 4    0  0.1190869E-001  0.3887311E+03  0.7546771E-02  0.1047753E+00
          1   -1    0    0  502    0 -0.00000000000E+00  0.00000000000E+00  0.34225731530E+03  0.34225731530E+03  0.00000000000E+00 0.  1.
         21   -1    0    0  501  502  0.00000000000E+00 -0.00000000000E+00 -0.43789997088E+03  0.43789997088E+03  0.00000000000E+00 0.  1.
         25    1    1    2    0    0  0.25876931698E+02 -0.36717472084E+03 -0.13140099080E+03  0.41033902033E+03  0.12500000000E+03 0.  0.
          1    1    1    2  501    0 -0.25876931698E+02  0.36717472084E+03  0.35758335226E+02  0.36981826585E+03  0.00000000000E+00 0.  1.
<mgrwt>
<rscale>  3 0.38873113E+03</rscale>
<asrwt>0</asrwt>
<pdfrwt beam="1">  1       21 0.67369226E-01 0.38873113E+03</pdfrwt>
<pdfrwt beam="2">  1        1 0.52654972E-01 0.38873113E+03</pdfrwt>
<totfact> 0.15372803E+03</totfact>
</mgrwt>
</event>
<event>
 4    0  0.1060106E-001  0.3219995E+03  0.7546771E-02  0.1074733E+00
          2   -1    0    0  502    0 -0.00000000000E+00  0.00000000000E+00  0.28734396404E+04  0.28734396404E+04  0.00000000000E+00 0.  1.
         21   -1    0    0  501  502  0.00000000000E+00 -0.00000000000E+00 -0.65498524331E+02  0.65498524331E+02  0.00000000000E+00 0. -1.
         25    1    1    2    0    0  0.22963146752E+03  0.18795761334E+03  0.40339498685E+03  0.51615035669E+03  0.12500000000E+03 0.  0.
          2    1    1    2  501    0 -0.22963146752E+03 -0.18795761334E+03  0.24045461293E+04  0.24227878081E+04  0.00000000000E+00 0.  1.
<mgrwt>
<rscale>  3 0.32199950E+03</rscale>
<asrwt>0</asrwt>
<pdfrwt beam="1">  1       21 0.10076698E-01 0.32199950E+03</pdfrwt>
<pdfrwt beam="2">  1        2 0.44206754E+00 0.32199950E+03</pdfrwt>
<totfact> 0.24325862E+03</totfact>
</mgrwt>
</event>
<event>
 4    0  0.1002184E-001  0.4745752E+03  0.7546771E-02  0.1020637E+00
          1   -1    0    0  502    0 -0.00000000000E+00  0.00000000000E+00  0.20993909382E+03  0.20993909382E+03  0.00000000000E+00 0.  1.
         21   -1    0    0  501  502  0.00000000000E+00 -0.00000000000E+00 -0.12143181840E+04  0.12143181840E+04  0.00000000000E+00 0.  1.
         25    1    1    2    0    0 -0.14913441638E+03 -0.43284588478E+03 -0.78331344926E+03  0.91586112152E+03  0.12500000000E+03 0.  0.
          1    1    1    2  501    0  0.14913441638E+03  0.43284588478E+03 -0.22106564087E+03  0.50839615626E+03  0.00000000000E+00 0.  1.
<mgrwt>
<rscale>  3 0.47457521E+03</rscale>
<asrwt>0</asrwt>
<pdfrwt beam="1">  1       21 0.18681818E+00 0.47457521E+03</pdfrwt>
<pdfrwt beam="2">  1        1 0.32298323E-01 0.47457521E+03</pdfrwt>
<totfact> 0.21352927E+02</totfact>
</mgrwt>
</event>
<event>
 4    0  0.1183963E-001  0.2381369E+03  0.7546771E-02  0.1121040E+00
         -2   -1    0    0    0  501 -0.00000000000E+00  0.00000000000E+00  0.17975942187E+03  0.17975942187E+03  0.00000000000E+00 0.  1.
         21   -1    0    0  501  502  0.00000000000E+00 -0.00000000000E+00 -0.60876426340E+03  0.60876426340E+03  0.00000000000E+00 0.  1.
         25    1    1    2    0    0  0.10290345799E+02  0.20243095118E+03 -0.51573166614E+03  0.56805662805E+03  0.12500000000E+03 0.  0.
         -2    1    1    2    0  502 -0.10290345799E+02 -0.20243095118E+03  0.86726824611E+02  0.22046705722E+03  0.00000000000E+00 0.  1.
<mgrwt>
<rscale>  3 0.23813690E+03</rscale>
<asrwt>0</asrwt>
<pdfrwt beam="1">  1       21 0.93656040E-01 0.23813690E+03</pdfrwt>
<pdfrwt beam="2">  1       -2 0.27655296E-01 0.23813690E+03</pdfrwt>
<totfact> 0.89379697E+02</totfact>
</mgrwt>
</event>
<event>
 4    0  0.1586876E-001  0.2499410E+03  0.7546771E-02  0.1113342E+00
         -1   -1    0    0    0  501 -0.00000000000E+00  0.00000000000E+00  0.14955505443E+03  0.14955505443E+03  0.00000000000E+00 0.  1.
         21   -1    0    0  501  502  0.00000000000E+00 -0.00000000000E+00 -0.38169648950E+03  0.38169648950E+03  0.00000000000E+00 0.  1.
         25    1    1    2    0    0 -0.97705607451E+02  0.19312978759E+03 -0.66309516663E+02  0.25858741768E+03  0.12500000000E+03 0.  0.
         -1    1    1    2    0  502  0.97705607451E+02 -0.19312978759E+03 -0.16583191840E+03  0.27266412625E+03  0.00000000000E+00 0.  1.
<mgrwt>
<rscale>  3 0.24994099E+03</rscale>
<asrwt>0</asrwt>
<pdfrwt beam="1">  1       21 0.58722536E-01 0.24994099E+03</pdfrwt>
<pdfrwt beam="2">  1       -1 0.23008470E-01 0.24994099E+03</pdfrwt>
<totfact> 0.38928901E+03</totfact>
</mgrwt>
</event>
<event>
 4    0  0.1616565E-001  0.2441326E+03  0.7546771E-02  0.1117070E+00
         -1   -1    0    0    0  501 -0.00000000000E+00  0.00000000000E+00  0.73209933201E+03  0.73209933201E+03  0.00000000000E+00 0. -1.
         21   -1    0    0  501  502  0.00000000000E+00 -0.00000000000E+00 -0.12655610956E+03  0.12655610956E+03  0.00000000000E+00 0. -1.
         25    1    1    2    0    0 -0.55224691836E+02 -0.20230169940E+03  0.29841402790E+02  0.24594969707E+03  0.12500000000E+03 0.  0.
         -1    1    1    2    0  502  0.55224691836E+02  0.20230169940E+03  0.57570181967E+03  0.61270574449E+03  0.00000000000E+00 0. -1.
<mgrwt>
<rscale>  3 0.24413264E+03</rscale>
<asrwt>0</asrwt>
<pdfrwt beam="1">  1       21 0.19470171E-01 0.24413264E+03</pdfrwt>
<pdfrwt beam="2">  1       -1 0.11263066E+00 0.24413264E+03</pdfrwt>
<totfact> 0.17260875E+03</totfact>
</mgrwt>
</event>
<event>
 4    0  0.1300078E-001  0.2565297E+03  0.7546771E-02  0.1109246E+00
         21   -1    0    0  501  502  0.00000000000E+00  0.00000000000E+00  0.85497342042E+02  0.85497342042E+02  0.00000000000E+00 0.  1.
          1   -1    0    0  502    0 -0.00000000000E+00 -0.00000000000E+00 -0.20221809857E+04  0.20221809857E+04  0.00000000000E+00 0. -1.
         25    1    1    2    0    0  0.17970571503E+03 -0.13374737359E+03 -0.13079642662E+03  0.28795001159E+03  0.12500000000E+03 0.  0.
          1    1    1    2  501    0 -0.17970571503E+03  0.13374737359E+03 -0.18058872171E+04  0.18197283162E+04  0.00000000000E+00 0. -1.
<mgrwt>
<rscale>  3 0.25652973E+03</rscale>
<asrwt>0</asrwt>
<pdfrwt beam="1">  1       21 0.13153437E-01 0.25652973E+03</pdfrwt>
<pdfrwt beam="2">  1        1 0.31110478E+00 0.25652973E+03</pdfrwt>
<totfact> 0.17994050E+03</totfact>
</mgrwt>
</event>
<event>
 4    0  0.1002184E-001  0.2597208E+03  0.7546771E-02  0.1107311E+00
          2   -1    0    0  502    0 -0.00000000000E+00  0.00000000000E+00  0.40127615254E+04  0.40127615254E+04  0.00000000000E+00 0. -1.
         21   -1    0    0  501  502  0.00000000000E+00 -0.00000000000E+00 -0.63503250734E+02  0.63503250734E+02  0.00000000000E+00 0. -1.
         25    1    1    2    0    0  0.22083747244E+03  0.55323854187E+02  0.22088537572E+03  0.34094760196E+03  0.12500000000E+03 0.  0.
          2    1    1    2  501    0 -0.22083747244E+03 -0.55323854187E+02  0.37283728990E+04  0.37353171742E+04  0.00000000000E+00 0. -1.
<mgrwt>
<rscale>  3 0.25972085E+03</rscale>
<asrwt>0</asrwt>
<pdfrwt beam="1">  1       21 0.97697340E-02 0.25972085E+03</pdfrwt>
<pdfrwt beam="2">  1        2 0.61734773E+00 0.25972085E+03</pdfrwt>
<totfact> 0.46913377E+02</totfact>
</mgrwt>
</event>
<event>
 4    0  0.1002184E-001  0.5697196E+03  0.7546771E-02  0.9970299E-01
          2   -1    0    0  502    0 -0.00000000000E+00  0.00000000000E+00  0.29521683728E+04  0.29521683728E+04  0.00000000000E+00 0. -1.
         21   -1    0    0  501  502  0.00000000000E+00 -0.00000000000E+00 -0.11861987327E+03  0.11861987327E+03  0.00000000000E+00 0. -1.
         25    1    1    2    0    0  0.33952383390E+03 -0.44008968684E+03  0.95796075199E+03  0.11145712936E+04  0.12500000000E+03 0.  0.
          2    1    1    2  501    0 -0.33952383390E+03  0.44008968684E+03  0.18755877476E+04  0.19562169524E+04  0.00000000000E+00 0. -1.
<mgrwt>
<rscale>  3 0.56971955E+03</rscale>
<asrwt>0</asrwt>
<pdfrwt beam="1">  1       21 0.18249214E-01 0.56971955E+03</pdfrwt>
<pdfrwt beam="2">  1        2 0.45417969E+00 0.56971955E+03</pdfrwt>
<totfact> 0.67581328E+02</totfact>
</mgrwt>
</event>
<event>
 4    0  0.1002184E-001  0.2873962E+03  0.7546771E-02  0.1091717E+00
         21   -1    0    0  501  502  0.00000000000E+00  0.00000000000E+00  0.53648919405E+03  0.53648919405E+03  0.00000000000E+00 0.  1.
         -1   -1    0    0    0  501 -0.00000000000E+00 -0.00000000000E+00 -0.16472572742E+03  0.16472572742E+03  0.00000000000E+00 0. -1.
         25    1    1    2    0    0 -0.14136172286E+03  0.21676812787E+03  0.33245575530E+03  0.43945806078E+03  0.12500000000E+03 0.  0.
         -1    1    1    2    0  502  0.14136172286E+03 -0.21676812787E+03  0.39307711328E+02  0.26175686069E+03  0.00000000000E+00 0. -1.
<mgrwt>
<rscale>  3 0.28739617E+03</rscale>
<asrwt>0</asrwt>
<pdfrwt beam="1">  1       21 0.82536798E-01 0.28739617E+03</pdfrwt>
<pdfrwt beam="2">  1       -1 0.25342420E-01 0.28739617E+03</pdfrwt>
<totfact> 0.15413270E+03</totfact>
</mgrwt>
</event>
<event>
 4    0  0.1123180E-001  0.2412862E+03  0.7546771E-02  0.1118939E+00
         21   -1    0    0  501  502  0.00000000000E+00  0.00000000000E+00  0.46798164062E+03  0.46798164062E+03  0.00000000000E+00 0.  1.
          1   -1    0    0  502    0 -0.00000000000E+00 -0.00000000000E+00 -0.33757494026E+03  0.33757494026E+03  0.00000000000E+00 0.  1.
         25    1    1    2    0    0 -0.22199407320E+02 -0.20518575825E+03  0.39933101578E+03  0.46656646819E+03  0.12500000000E+03 0.  0.
          1    1    1    2  501    0  0.22199407320E+02  0.20518575825E+03 -0.26892431542E+03  0.33899011269E+03  0.00000000000E+00 0.  1.
<mgrwt>
<rscale>  3 0.24128616E+03</rscale>
<asrwt>0</asrwt>
<pdfrwt beam="1">  1       21 0.71997175E-01 0.24128616E+03</pdfrwt>
<pdfrwt beam="2">  1        1 0.51934606E-01 0.24128616E+03</pdfrwt>
<totfact> 0.14087087E+03</totfact>
</mgrwt>
</event>
<event>
 4    0  0.1002184E-001  0.3064044E+03  0.7546771E-02  0.1082082E+00
          2   -1    0    0  502    0 -0.00000000000E+00  0.00000000000E+00  0.16261595689E+04  0.16261595689E+04  0.00000000000E+00 0. -1.
         21   -1    0    0  501  502  0.00000000000E+00 -0.00000000000E+00 -0.71136565311E+02  0.71136565311E+02  0.00000000000E+00 0.  1.
         25    1    1    2    0    0 -0.95864196037E+02  0.26280926047E+03  0.37346651697E+03  0.48307441536E+03  0.12500000000E+03 0.  0.
          2    1    1    2  501    0  0.95864196037E+02 -0.26280926047E+03  0.11815564866E+04  0.12142217188E+04  0.00000000000E+00 0. -1.
<mgrwt>
<rscale>  3 0.30640439E+03</rscale>
<asrwt>0</asrwt>
<pdfrwt beam="1">  1       21 0.10944088E-01 0.30640439E+03</pdfrwt>
<pdfrwt beam="2">  1        2 0.25017837E+00 0.30640439E+03</pdfrwt>
<totfact> 0.10052919E+04</totfact>
</mgrwt>
</event>
<event>
 4    0  0.1558030E-001  0.2666559E+03  0.7546771E-02  0.1103209E+00
         21   -1    0    0  501  502  0.00000000000E+00  0.00000000000E+00  0.32515414990E+03  0.32515414990E+03  0.00000000000E+00 0.  1.
         -3   -1    0    0    0  501 -0.00000000000E+00 -0.00000000000E+00 -0.10863304662E+04  0.10863304662E+04  0.00000000000E+00 0. -1.
         25    1    1    2    0    0  0.23540825487E+03 -0.79592049408E+01  0.25464463987E+03  0.36871301580E+03  0.12500000000E+03 0.  0.
         -3    1    1    2    0  502 -0.23540825487E+03  0.79592049408E+01 -0.10158209562E+04  0.10427716003E+04  0.00000000000E+00 0. -1.
<mgrwt>
<rscale>  3 0.26665595E+03</rscale>
<asrwt>0</asrwt>
<pdfrwt beam="1">  1       21 0.50023716E-01 0.26665595E+03</pdfrwt>
<pdfrwt beam="2">  1       -3 0.16712776E+00 0.26665595E+03</pdfrwt>
<totfact> 0.47475990E+01</totfact>
</mgrwt>
</event>
<event>
 4    0  0.1002184E-001  0.6667096E+03  0.7546771E-02  0.9775920E-01
         21   -1    0    0  501  502  0.00000000000E+00  0.00000000000E+00  0.57512484363E+03  0.57512484363E+03  0.00000000000E+00 0.  1.
          2   -1    0    0  502    0 -0.00000000000E+00 -0.00000000000E+00 -0.10057716970E+04  0.10057716970E+04  0.00000000000E+00 0. -1.
         25    1    1    2    0    0  0.53650832613E+03  0.37554701231E+03  0.17456078927E+03  0.68918300300E+03  0.12500000000E+03 0.  0.
          2    1    1    2  501    0 -0.53650832613E+03 -0.37554701231E+03 -0.60520764260E+03  0.89171353759E+03  0.00000000000E+00 0. -1.
<mgrwt>
<rscale>  3 0.66670964E+03</rscale>
<asrwt>0</asrwt>
<pdfrwt beam="1">  1       21 0.88480746E-01 0.66670964E+03</pdfrwt>
<pdfrwt beam="2">  1        2 0.15473411E+00 0.66670964E+03</pdfrwt>
<totfact> 0.30365264E+02</totfact>
</mgrwt>
</event>
<event>
 4    0  0.1359289E-001  0.2512730E+03  0.7546771E-02  0.1112503E+00
         21   -1    0    0  501  502  0.00000000000E+00  0.00000000000E+00  0.11460246396E+03  0.11460246396E+03  0.00000000000E+00 0. -1.
          2   -1    0    0  502    0 -0.00000000000E+00 -0.00000000000E+00 -0.68358180944E+03  0.68358180944E+03  0.00000000000E+00 0. -1.
         25    1    1    2    0    0  0.10587332482E+03 -0.19053595219E+03 -0.81448888156E+02  0.26414395955E+03  0.12500000000E+03 0.  0.
          2    1    1    2  501    0 -0.10587332482E+03  0.19053595219E+03 -0.48753045732E+03  0.53404031384E+03  0.00000000000E+00 0. -1.
<mgrwt>
<rscale>  3 0.25127298E+03</rscale>
<asrwt>0</asrwt>
<pdfrwt beam="1">  1       21 0.17631148E-01 0.25127298E+03</pdfrwt>
<pdfrwt beam="2">  1        2 0.10516643E+00 0.25127298E+03</pdfrwt>
<totfact> 0.15690193E+04</totfact>
</mgrwt>
</event>
<event>
 4    0  0.1432694E-001  0.2566110E+03  0.7546771E-02  0.1109197E+00
          2   -1    0    0  502    0 -0.00000000000E+00  0.00000000000E+00  0.30816507825E+04  0.30816507825E+04  0.00000000000E+00 0.  1.
         21   -1    0    0  501  502  0.00000000000E+00 -0.00000000000E+00 -0.18828110669E+02  0.18828110669E+02  0.00000000000E+00 0.  1.
         25    1    1    2    0    0 -0.20902057690E+03 -0.80836812777E+02  0.17358541073E+04  0.17547189729E+04  0.12500000000E+03 0.  0.
          2    1    1    2  501    0  0.20902057690E+03  0.80836812777E+02  0.13269685646E+04  0.13457599204E+04  0.00000000000E+00 0.  1.
<mgrwt>
<rscale>  3 0.25661097E+03</rscale>
<asrwt>0</asrwt>
<pdfrwt beam="1">  1       21 0.28966349E-02 0.25661097E+03</pdfrwt>
<pdfrwt beam="2">  1        2 0.47409972E+00 0.25661097E+03</pdfrwt>
<totfact> 0.16038176E+04</totfact>
</mgrwt>
</event>
<event>
 4    0  0.1016189E-001  0.3145005E+03  0.7546771E-02  0.1078209E+00
         21   -1    0    0  501  502  0.00000000000E+00  0.00000000000E+00  0.52816116982E+03  0.52816116982E+03  0.00000000000E+00 0.  1.
          2   -1    0    0  502    0 -0.00000000000E+00 -0.00000000000E+00 -0.29897252741E+04  0.29897252741E+04  0.00000000000E+00 0. -1.
         25    1    1    2    0    0  0.24606763264E+03  0.15078555504E+03  0.47363034729E+03  0.56853871400E+03  0.12500000000E+03 0.  0.
          2    1    1    2  501    0 -0.24606763264E+03 -0.15078555504E+03 -0.29351944515E+04  0.29493477299E+04  0.00000000000E+00 0. -1.
<mgrwt>
<rscale>  3 0.31450050E+03</rscale>
<asrwt>0</asrwt>
<pdfrwt beam="1">  1       21 0.81255563E-01 0.31450050E+03</pdfrwt>
<pdfrwt beam="2">  1        2 0.45995774E+00 0.31450050E+03</pdfrwt>
<totfact> 0.32953715E+01</totfact>
</mgrwt>
</event>
<event>
 4    0  0.1002184E-001  0.3080925E+03  0.7546771E-02  0.1081264E+00
         21   -1    0    0  501  502  0.00000000000E+00  0.00000000000E+00  0.38798135151E+02  0.38798135151E+02  0.00000000000E+00 0.  1.
          2   -1    0    0  502    0 -0.00000000000E+00 -0.00000000000E+00 -0.31568008112E+04  0.31568008112E+04  0.00000000000E+00 0. -1.
         25    1    1    2    0    0  0.11887489472E+03  0.25527385906E+03 -0.74857915897E+03  0.80950092091E+03  0.12500000000E+03 0.  0.
          2    1    1    2  501    0 -0.11887489472E+03 -0.25527385906E+03 -0.23694235170E+04  0.23860980254E+04  0.00000000000E+00 0. -1.
<mgrwt>
<rscale>  3 0.30809249E+03</rscale>
<asrwt>0</asrwt>
<pdfrwt beam="1">  1       21 0.59689424E-02 0.30809249E+03</pdfrwt>
<pdfrwt beam="2">  1        2 0.48566178E+00 0.30809249E+03</pdfrwt>
<totfact> 0.41565971E+03</totfact>
</mgrwt>
</event>
<event>
 4    0  0.1002184E-001  0.4269044E+03  0.7546771E-02  0.1034842E+00
         21   -1    0    0  501  502  0.00000000000E+00  0.00000000000E+00  0.42735724301E+03  0.42735724301E+03  0.00000000000E+00 0.  1.
          2   -1    0    0  502    0 -0.00000000000E+00 -0.00000000000E+00 -0.28214210265E+04  0.28214210265E+04  0.00000000000E+00 0.  1.
         25    1    1    2    0    0 -0.26559284288E+03 -0.30997227511E+03  0.30140144988E+03  0.52258033211E+03  0.12500000000E+03 0.  0.
          2    1    1    2  501    0  0.26559284288E+03  0.30997227511E+03 -0.26954652334E+04  0.27261979374E+04  0.00000000000E+00 0.  1.
<mgrwt>
<rscale>  3 0.42690440E+03</rscale>
<asrwt>0</asrwt>
<pdfrwt beam="1">  1       21 0.65747269E-01 0.42690440E+03</pdfrwt>
<pdfrwt beam="2">  1        2 0.43406477E+00 0.42690440E+03</pdfrwt>
<totfact> 0.62491388E+01</totfact>
</mgrwt>
</event>
<event>
 4    0  0.1219528E-001  0.2364471E+03  0.7546771E-02  0.1122183E+00
          1   -1    0    0  502    0 -0.00000000000E+00  0.00000000000E+00  0.32766760545E+03  0.32766760545E+03  0.00000000000E+00 0. -1.
         21   -1    0    0  501  502  0.00000000000E+00 -0.00000000000E+00 -0.16993091594E+03  0.16993091594E+03  0.00000000000E+00 0. -1.
         25    1    1    2    0    0 -0.94800467899E+02  0.17690426231E+03 -0.90771622648E+01  0.23662130422E+03  0.12500000000E+03 0.  0.
          1    1    1    2  501    0  0.94800467899E+02 -0.17690426231E+03  0.16681385177E+03  0.26097721717E+03  0.00000000000E+00 0. -1.
<mgrwt>
<rscale>  3 0.23644713E+03</rscale>
<asrwt>0</asrwt>
<pdfrwt beam="1">  1       21 0.26143218E-01 0.23644713E+03</pdfrwt>
<pdfrwt beam="2">  1        1 0.50410401E-01 0.23644713E+03</pdfrwt>
<totfact> 0.11828091E+04</totfact>
</mgrwt>
</event>
<event>
 4    0  0.1002184E-001  0.3735629E+03  0.7546771E-02  0.1053339E+00
          1   -1    0    0  502    0 -0.00000000000E+00  0.00000000000E+00  0.32962554636E+04  0.32962554636E+04  0.00000000000E+00 0.  1.
         21   -1    0    0  501  502  0.00000000000E+00 -0.00000000000E+00 -0.43598110719E+02  0.43598110719E+02  0.00000000000E+00 0.  1.
         25    1    1    2    0    0 -0.30966950546E+03  0.16741883585E+03  0.11863786985E+04  0.12438021086E+04  0.12500000000E+03 0.  0.
          1    1    1    2  501    0  0.30966950546E+03 -0.16741883585E+03  0.20662786544E+04  0.20960514657E+04  0.00000000000E+00 0.  1.
<mgrwt>
<rscale>  3 0.37356294E+03</rscale>
<asrwt>0</asrwt>
<pdfrwt beam="1">  1       21 0.67074042E-02 0.37356294E+03</pdfrwt>
<pdfrwt beam="2">  1        1 0.50711603E+00 0.37356294E+03</pdfrwt>
<totfact> 0.76831563E+02</totfact>
</mgrwt>
</event>
<event>
 4    0  0.1002184E-001  0.2418989E+03  0.7546771E-02  0.1118534E+00
         -1   -1    0    0    0  501 -0.00000000000E+00  0.00000000000E+00  0.12352475993E+03  0.12352475993E+03  0.00000000000E+00 0.  1.
         21   -1    0    0  501  502  0.00000000000E+00 -0.00000000000E+00 -0.70347849119E+03  0.70347849119E+03  0.00000000000E+00 0. -1.
         25    1    1    2    0    0  0.89705532266E+02  0.18666278806E+03 -0.57052615802E+03  0.61968958031E+03  0.12500000000E+03 0.  0.
         -1    1    1    2    0  502 -0.89705532266E+02 -0.18666278806E+03 -0.94275732399E+01  0.20731367081E+03  0.00000000000E+00 0.  1.
<mgrwt>
<rscale>  3 0.24189890E+03</rscale>
<asrwt>0</asrwt>
<pdfrwt beam="1">  1       21 0.10822746E+00 0.24189890E+03</pdfrwt>
<pdfrwt beam="2">  1       -1 0.19003809E-01 0.24189890E+03</pdfrwt>
<totfact> 0.13229387E+03</totfact>
</mgrwt>
</event>
<event>
 4    0  0.1017812E-001  0.3110466E+03  0.7546771E-02  0.1079845E+00
          2   -1    0    0  502    0 -0.00000000000E+00  0.00000000000E+00  0.33313745205E+04  0.33313745205E+04  0.00000000000E+00 0. -1.
         21   -1    0    0  501  502  0.00000000000E+00 -0.00000000000E+00 -0.58397763808E+02  0.58397763808E+02  0.00000000000E+00 0.  1.
         25    1    1    2    0    0  0.10049991290E+03 -0.26650473591E+03  0.42012736641E+03  0.52273990738E+03  0.12500000000E+03 0.  0.
          2    1    1    2  501    0 -0.10049991290E+03  0.26650473591E+03  0.28528493903E+04  0.28670323770E+04  0.00000000000E+00 0. -1.
<mgrwt>
<rscale>  3 0.31104663E+03</rscale>
<asrwt>0</asrwt>
<pdfrwt beam="1">  1       21 0.89842739E-02 0.31104663E+03</pdfrwt>
<pdfrwt beam="2">  1        2 0.51251901E+00 0.31104663E+03</pdfrwt>
<totfact> 0.15780482E+03</totfact>
</mgrwt>
</event>
<event>
 4    0  0.1002184E-001  0.2952266E+03  0.7546771E-02  0.1087651E+00
          1   -1    0    0  502    0 -0.00000000000E+00  0.00000000000E+00  0.13087275275E+03  0.13087275275E+03  0.00000000000E+00 0. -1.
         21   -1    0    0  501  502  0.00000000000E+00 -0.00000000000E+00 -0.99550649181E+03  0.99550649181E+03  0.00000000000E+00 0. -1.
         25    1    1    2    0    0  0.25197741103E+03  0.89672488945E+02 -0.79783577497E+03  0.85070599784E+03  0.12500000000E+03 0.  0.
          1    1    1    2  501    0 -0.25197741103E+03 -0.89672488945E+02 -0.66797964095E+02  0.27567324671E+03  0.00000000000E+00 0. -1.
<mgrwt>
<rscale>  3 0.29522664E+03</rscale>
<asrwt>0</asrwt>
<pdfrwt beam="1">  1       21 0.15315485E+00 0.29522664E+03</pdfrwt>
<pdfrwt beam="2">  1        1 0.20134269E-01 0.29522664E+03</pdfrwt>
<totfact> 0.73343787E+02</totfact>
</mgrwt>
</event>
<event>
 4    0  0.1253780E-001  0.2981615E+03  0.7546771E-02  0.1086163E+00
          2   -1    0    0  502    0 -0.00000000000E+00  0.00000000000E+00  0.26158004237E+04  0.26158004237E+04  0.00000000000E+00 0.  1.
         21   -1    0    0  501  502  0.00000000000E+00 -0.00000000000E+00 -0.85265807693E+02  0.85265807693E+02  0.00000000000E+00 0.  1.
         25    1    1    2    0    0 -0.23544108332E+03  0.13357693588E+03  0.20974992679E+03  0.36454812207E+03  0.12500000000E+03 0.  0.
          2    1    1    2  501    0  0.23544108332E+03 -0.13357693588E+03  0.23207846892E+04  0.23365181093E+04  0.00000000000E+00 0.  1.
<mgrwt>
<rscale>  3 0.29816154E+03</rscale>
<asrwt>0</asrwt>
<pdfrwt beam="1">  1       21 0.13117819E-01 0.29816154E+03</pdfrwt>
<pdfrwt beam="2">  1        2 0.40243077E+00 0.29816154E+03</pdfrwt>
<totfact> 0.21418351E+03</totfact>
</mgrwt>
</event>
<event>
 4    0  0.1287175E-001  0.2482718E+03  0.7546771E-02  0.1114402E+00
          2   -1    0    0  502    0 -0.00000000000E+00  0.00000000000E+00  0.31061960300E+03  0.31061960300E+03  0.00000000000E+00 0.  1.
         21   -1    0    0  501  502  0.00000000000E+00 -0.00000000000E+00 -0.29726030089E+03  0.29726030089E+03  0.00000000000E+00 0.  1.
         25    1    1    2    0    0 -0.13717828663E+03 -0.16491215535E+03 -0.18974164871E+03  0.31247527032E+03  0.12500000000E+03 0.  0.
          2    1    1    2  501    0  0.13717828663E+03  0.16491215535E+03  0.20310095083E+03  0.29540463357E+03  0.00000000000E+00 0.  1.
<mgrwt>
<rscale>  3 0.24827183E+03</rscale>
<asrwt>0</asrwt>
<pdfrwt beam="1">  1       21 0.45732354E-01 0.24827183E+03</pdfrwt>
<pdfrwt beam="2">  1        2 0.47787631E-01 0.24827183E+03</pdfrwt>
<totfact> 0.59006976E+03</totfact>
</mgrwt>
</event>
<event>
 4    0  0.1233458E-001  0.2607413E+03  0.7546771E-02  0.1106699E+00
          1   -1    0    0  502    0 -0.00000000000E+00  0.00000000000E+00  0.41449273193E+03  0.41449273193E+03  0.00000000000E+00 0. -1.
         21   -1    0    0  501  502  0.00000000000E+00 -0.00000000000E+00 -0.29155837728E+03  0.29155837728E+03  0.00000000000E+00 0. -1.
         25    1    1    2    0    0 -0.18312227866E+03  0.13721245283E+03 -0.18695059218E+03  0.32083726416E+03  0.12500000000E+03 0.  0.
          1    1    1    2  501    0  0.18312227866E+03 -0.13721245283E+03  0.30988494683E+03  0.38521384506E+03  0.00000000000E+00 0. -1.
<mgrwt>
<rscale>  3 0.26074130E+03</rscale>
<asrwt>0</asrwt>
<pdfrwt beam="1">  1       21 0.44855135E-01 0.26074130E+03</pdfrwt>
<pdfrwt beam="2">  1        1 0.63768112E-01 0.26074130E+03</pdfrwt>
<totfact> 0.29690964E+03</totfact>
</mgrwt>
</event>
<event>
 4    0  0.1002184E-001  0.2662604E+03  0.7546771E-02  0.1103439E+00
         21   -1    0    0  501  502  0.00000000000E+00  0.00000000000E+00  0.34661207993E+03  0.34661207993E+03  0.00000000000E+00 0.  1.
          1   -1    0    0  502    0 -0.00000000000E+00 -0.00000000000E+00 -0.22794864940E+03  0.22794864940E+03  0.00000000000E+00 0. -1.
         25    1    1    2    0    0 -0.23080905409E+03 -0.44685239961E+02  0.19203043476E+03  0.32828383754E+03  0.12500000000E+03 0.  0.
          1    1    1    2  501    0  0.23080905409E+03  0.44685239961E+02 -0.73367004230E+02  0.24627689179E+03  0.00000000000E+00 0. -1.
<mgrwt>
<rscale>  3 0.26626038E+03</rscale>
<asrwt>0</asrwt>
<pdfrwt beam="1">  1       21 0.53324935E-01 0.26626038E+03</pdfrwt>
<pdfrwt beam="2">  1        1 0.35069023E-01 0.26626038E+03</pdfrwt>
<totfact> 0.44067329E+03</totfact>
</mgrwt>
</event>
<event>
 4    0  0.1002184E-001  0.4682948E+03  0.7546771E-02  0.1022403E+00
          1   -1    0    0  502    0 -0.00000000000E+00  0.00000000000E+00  0.36854310206E+04  0.36854310206E+04  0.00000000000E+00 0.  1.
         21   -1    0    0  501  502  0.00000000000E+00 -0.00000000000E+00 -0.12122429844E+03  0.12122429844E+03  0.00000000000E+00 0.  1.
         25    1    1    2    0    0  0.10295854179E+03  0.43940248781E+03  0.41636229724E+03  0.62662394639E+03  0.12500000000E+03 0.  0.
          1    1    1    2  501    0 -0.10295854179E+03 -0.43940248781E+03  0.31478444249E+04  0.31800313726E+04  0.00000000000E+00 0.  1.
<mgrwt>
<rscale>  3 0.46829479E+03</rscale>
<asrwt>0</asrwt>
<pdfrwt beam="1">  1       21 0.18649895E-01 0.46829479E+03</pdfrwt>
<pdfrwt beam="2">  1        1 0.56698930E+00 0.46829479E+03</pdfrwt>
<totfact> 0.58445312E+01</totfact>
</mgrwt>
</event>
<event>
 4    0  0.1646224E-001  0.3309847E+03  0.7546771E-02  0.1070702E+00
         -1   -1    0    0    0  501 -0.00000000000E+00  0.00000000000E+00  0.51629172823E+03  0.51629172823E+03  0.00000000000E+00 0. -1.
         21   -1    0    0  501  502  0.00000000000E+00 -0.00000000000E+00 -0.39067388425E+03  0.39067388425E+03  0.00000000000E+00 0. -1.
         25    1    1    2    0    0 -0.52154116730E+02 -0.30200304542E+03 -0.25534212004E+03  0.41803168493E+03  0.12500000000E+03 0.  0.
         -1    1    1    2    0  502  0.52154116730E+02  0.30200304542E+03  0.38095996401E+03  0.48893392756E+03  0.00000000000E+00 0. -1.
<mgrwt>
<rscale>  3 0.33098473E+03</rscale>
<asrwt>0</asrwt>
<pdfrwt beam="1">  1       21 0.60103674E-01 0.33098473E+03</pdfrwt>
<pdfrwt beam="2">  1       -1 0.79429497E-01 0.33098473E+03</pdfrwt>
<totfact> 0.37730683E+02</totfact>
</mgrwt>
</event>
<event>
 4    0  0.1481830E-001  0.3056923E+03  0.7546771E-02  0.1082429E+00
          2   -1    0    0  502    0 -0.00000000000E+00  0.00000000000E+00  0.12749687527E+04  0.12749687527E+04  0.00000000000E+00 0.  1.
         21   -1    0    0  501  502  0.00000000000E+00 -0.00000000000E+00 -0.11587511249E+04  0.11587511249E+04  0.00000000000E+00 0.  1.
         25    1    1    2    0    0 -0.23246469271E+03 -0.15421725030E+03 -0.11228080083E+04  0.11636776260E+04  0.12500000000E+03 0.  0.
          2    1    1    2  501    0  0.23246469271E+03  0.15421725030E+03  0.12390256361E+04  0.12700422515E+04  0.00000000000E+00 0.  1.
<mgrwt>
<rscale>  3 0.30569232E+03</rscale>
<asrwt>0</asrwt>
<pdfrwt beam="1">  1       21 0.17826940E+00 0.30569232E+03</pdfrwt>
<pdfrwt beam="2">  1        2 0.19614904E+00 0.30569232E+03</pdfrwt>
<totfact> 0.39183467E+01</totfact>
</mgrwt>
</event>
<event>
 4    0  0.1115806E-001  0.2522276E+03  0.7546771E-02  0.1111905E+00
         21   -1    0    0  501  502  0.00000000000E+00  0.00000000000E+00  0.64195438958E+03  0.64195438958E+03  0.00000000000E+00 0.  1.
         -2   -1    0    0    0  501 -0.00000000000E+00 -0.00000000000E+00 -0.39324308672E+03  0.39324308672E+03  0.00000000000E+00 0. -1.
         25    1    1    2    0    0 -0.13373773691E+03  0.17351654839E+03  0.58316907486E+03  0.63537779683E+03  0.12500000000E+03 0.  0.
         -2    1    1    2    0  502  0.13373773691E+03 -0.17351654839E+03 -0.33445777200E+03  0.39981967947E+03  0.00000000000E+00 0. -1.
<mgrwt>
<rscale>  3 0.25222763E+03</rscale>
<asrwt>0</asrwt>
<pdfrwt beam="1">  1       21 0.98762214E-01 0.25222763E+03</pdfrwt>
<pdfrwt beam="2">  1       -2 0.60498937E-01 0.25222763E+03</pdfrwt>
<totfact> 0.17338458E+02</totfact>
</mgrwt>
</event>
<event>
 4    0  0.1757705E-001  0.2383072E+03  0.7546771E-02  0.1120926E+00
         -2   -1    0    0    0  501 -0.00000000000E+00  0.00000000000E+00  0.26965833843E+03  0.26965833843E+03  0.00000000000E+00 0.  1.
         21   -1    0    0  501  502  0.00000000000E+00 -0.00000000000E+00 -0.18567989860E+03  0.18567989860E+03  0.00000000000E+00 0.  1.
         25    1    1    2    0    0  0.12139991944E+03  0.16256505272E+03  0.83294467318E+02  0.25244465748E+03  0.12500000000E+03 0.  0.
         -2    1    1    2    0  502 -0.12139991944E+03 -0.16256505272E+03  0.68397251690E+00  0.20289357955E+03  0.00000000000E+00 0.  1.
<mgrwt>
<rscale>  3 0.23830723E+03</rscale>
<asrwt>0</asrwt>
<pdfrwt beam="1">  1       21 0.28566138E-01 0.23830723E+03</pdfrwt>
<pdfrwt beam="2">  1       -2 0.41485898E-01 0.23830723E+03</pdfrwt>
<totfact> 0.52194979E+03</totfact>
</mgrwt>
</event>
<event>
 4    0  0.1338710E-001  0.4148581E+03  0.7546771E-02  0.1038753E+00
         21   -1    0    0  501  502  0.00000000000E+00  0.00000000000E+00  0.11737956572E+03  0.11737956572E+03  0.00000000000E+00 0. -1.
          2   -1    0    0  502    0 -0.00000000000E+00 -0.00000000000E+00 -0.14157279305E+04  0.14157279305E+04  0.00000000000E+00 0. -1.
         25    1    1    2    0    0  0.29734224664E+03  0.26090189111E+03 -0.74799444428E+03  0.85533788476E+03  0.12500000000E+03 0.  0.
          2    1    1    2  501    0 -0.29734224664E+03 -0.26090189111E+03 -0.55035392049E+03  0.67776961146E+03  0.00000000000E+00 0. -1.
<mgrwt>
<rscale>  3 0.41485806E+03</rscale>
<asrwt>0</asrwt>
<pdfrwt beam="1">  1       21 0.18058394E-01 0.41485806E+03</pdfrwt>
<pdfrwt beam="2">  1        2 0.21780431E+00 0.41485806E+03</pdfrwt>
<totfact> 0.50784188E+03</totfact>
</mgrwt>
</event>
<event>
 4    0  0.1002184E-001  0.2360863E+03  0.7546771E-02  0.1122428E+00
         21   -1    0    0  501  502  0.00000000000E+00  0.00000000000E+00  0.34422116755E+03  0.34422116755E+03  0.00000000000E+00 0. -1.
          1   -1    0    0  502    0 -0.00000000000E+00 -0.00000000000E+00 -0.15504243259E+03  0.15504243259E+03  0.00000000000E+00 0.  1.
         25    1    1    2    0    0 -0.40931638647E+02  0.19605188939E+03  0.18331285953E+03  0.29889855611E+03  0.12500000000E+03 0.  0.
          1    1    1    2  501    0  0.40931638647E+02 -0.19605188939E+03  0.58658754340E+01  0.20036504403E+03  0.00000000000E+00 0.  1.
<mgrwt>
<rscale>  3 0.23608630E+03</rscale>
<asrwt>0</asrwt>
<pdfrwt beam="1">  1       21 0.52957102E-01 0.23608630E+03</pdfrwt>
<pdfrwt beam="2">  1        1 0.23852682E-01 0.23608630E+03</pdfrwt>
<totfact> 0.73404352E+03</totfact>
</mgrwt>
</event>
<event>
 4    0  0.1004237E-001  0.2380714E+03  0.7546771E-02  0.1121084E+00
         21   -1    0    0  501  502  0.00000000000E+00  0.00000000000E+00  0.10078187412E+03  0.10078187412E+03  0.00000000000E+00 0.  1.
         -2   -1    0    0    0  501 -0.00000000000E+00 -0.00000000000E+00 -0.12458805306E+04  0.12458805306E+04  0.00000000000E+00 0. -1.
         25    1    1    2    0    0 -0.20037310434E+03 -0.30060262315E+02 -0.63700114485E+02  0.24644615010E+03  0.12500000000E+03 0.  0.
         -2    1    1    2    0  502  0.20037310434E+03  0.30060262315E+02 -0.10813985420E+04  0.11002162547E+04  0.00000000000E+00 0. -1.
<mgrwt>
<rscale>  3 0.23807142E+03</rscale>
<asrwt>0</asrwt>
<pdfrwt beam="1">  1       21 0.15504904E-01 0.23807142E+03</pdfrwt>
<pdfrwt beam="2">  1       -2 0.19167393E+00 0.23807142E+03</pdfrwt>
<totfact> 0.49260044E+02</totfact>
</mgrwt>
</event>
<event>
 4    0  0.1002184E-001  0.2603753E+03  0.7546771E-02  0.1106918E+00
          2   -1    0    0  502    0 -0.00000000000E+00  0.00000000000E+00  0.35786064312E+03  0.35786064312E+03  0.00000000000E+00 0. -1.
         21   -1    0    0  501  502  0.00000000000E+00 -0.00000000000E+00 -0.21494272423E+03  0.21494272423E+03  0.00000000000E+00 0.  1.
         25    1    1    2    0    0 -0.11880060277E+03  0.19508133936E+03 -0.60088406085E+02  0.26721887795E+03  0.12500000000E+03 0.  0.
          2    1    1    2  501    0  0.11880060277E+03 -0.19508133936E+03  0.20300632497E+03  0.30558448941E+03  0.00000000000E+00 0. -1.
<mgrwt>
<rscale>  3 0.26037533E+03</rscale>
<asrwt>0</asrwt>
<pdfrwt beam="1">  1       21 0.33068111E-01 0.26037533E+03</pdfrwt>
<pdfrwt beam="2">  1        2 0.55055484E-01 0.26037533E+03</pdfrwt>
<totfact> 0.97413873E+03</totfact>
</mgrwt>
</event>
<event>
 4    0  0.1002184E-001  0.2817157E+03  0.7546771E-02  0.1094756E+00
         21   -1    0    0  501  502  0.00000000000E+00  0.00000000000E+00  0.21229263406E+03  0.21229263406E+03  0.00000000000E+00 0. -1.
          2   -1    0    0  502    0 -0.00000000000E+00 -0.00000000000E+00 -0.33673601294E+03  0.33673601294E+03  0.00000000000E+00 0.  1.
         25    1    1    2    0    0 -0.15376538148E+03 -0.20023716996E+03 -0.53097013830E+02  0.28667579189E+03  0.12500000000E+03 0.  0.
          2    1    1    2  501    0  0.15376538148E+03  0.20023716996E+03 -0.71346365046E+02  0.26235285511E+03  0.00000000000E+00 0.  1.
<mgrwt>
<rscale>  3 0.28171567E+03</rscale>
<asrwt>0</asrwt>
<pdfrwt beam="1">  1       21 0.32660405E-01 0.28171567E+03</pdfrwt>
<pdfrwt beam="2">  1        2 0.51805540E-01 0.28171567E+03</pdfrwt>
<totfact> 0.10626842E+04</totfact>
</mgrwt>
</event>
<event>
 4    0  0.1259177E-001  0.3507301E+03  0.7546771E-02  0.1062316E+00
          2   -1    0    0  502    0 -0.00000000000E+00  0.00000000000E+00  0.26184784758E+04  0.26184784758E+04  0.00000000000E+00 0. -1.
         21   -1    0    0  501  502  0.00000000000E+00 -0.00000000000E+00 -0.21316310517E+03  0.21316310517E+03  0.00000000000E+00 0.  1.
         25    1    1    2    0    0  0.14062873010E+03  0.29599009597E+03 -0.50245807331E+02  0.35431090556E+03  0.12500000000E+03 0.  0.
          2    1    1    2  501    0 -0.14062873010E+03 -0.29599009597E+03  0.24555611779E+04  0.24773306754E+04  0.00000000000E+00 0. -1.
<mgrwt>
<rscale>  3 0.35073006E+03</rscale>
<asrwt>0</asrwt>
<pdfrwt beam="1">  1       21 0.32794326E-01 0.35073006E+03</pdfrwt>
<pdfrwt beam="2">  1        2 0.40284282E+00 0.35073006E+03</pdfrwt>
<totfact> 0.36524847E+02</totfact>
</mgrwt>
</event>
<event>
 4    0  0.1731278E-001  0.2520691E+03  0.7546771E-02  0.1112004E+00
         21   -1    0    0  501  502  0.00000000000E+00  0.00000000000E+00  0.45528817779E+02  0.45528817779E+02  0.00000000000E+00 0. -1.
          1   -1    0    0  502    0 -0.00000000000E+00 -0.00000000000E+00 -0.16661232003E+04  0.16661232003E+04  0.00000000000E+00 0. -1.
         25    1    1    2    0    0  0.10179785233E+03 -0.19378094172E+03 -0.12950938039E+04  0.13193963836E+04  0.12500000000E+03 0.  0.
          1    1    1    2  501    0 -0.10179785233E+03  0.19378094172E+03 -0.32550057865E+03  0.39225563453E+03  0.00000000000E+00 0. -1.
<mgrwt>
<rscale>  3 0.25206915E+03</rscale>
<asrwt>0</asrwt>
<pdfrwt beam="1">  1       21 0.70044338E-02 0.25206915E+03</pdfrwt>
<pdfrwt beam="2">  1        1 0.25632664E+00 0.25206915E+03</pdfrwt>
<totfact> 0.93858554E+03</totfact>
</mgrwt>
</event>
<event>
 4    0  0.1493910E-001  0.3087309E+03  0.7546771E-02  0.1080956E+00
         21   -1    0    0  501  502  0.00000000000E+00  0.00000000000E+00  0.78007219365E+02  0.78007219365E+02  0.00000000000E+00 0. -1.
          4   -1    0    0  502    0 -0.00000000000E+00 -0.00000000000E+00 -0.12145719541E+04  0.12145719541E+04  0.00000000000E+00 0. -1.
         25    1    1    2    0    0 -0.26886822802E+03 -0.86021032823E+02 -0.41104168569E+03  0.51407198864E+03  0.12500000000E+03 0.  0.
          4    1    1    2  501    0  0.26886822802E+03  0.86021032823E+02 -0.72552304901E+03  0.77850718479E+03  0.00000000000E+00 0. -1.
<mgrwt>
<rscale>  3 0.30873086E+03</rscale>
<asrwt>0</asrwt>
<pdfrwt beam="1">  1       21 0.12001111E-01 0.30873086E+03</pdfrwt>
<pdfrwt beam="2">  1        4 0.18685721E+00 0.30873086E+03</pdfrwt>
<totfact> 0.42993579E+02</totfact>
</mgrwt>
</event>
<event>
 4    0  0.1415805E-001  0.2673823E+03  0.7546771E-02  0.1102787E+00
          2   -1    0    0  502    0 -0.00000000000E+00  0.00000000000E+00  0.18504889129E+04  0.18504889129E+04  0.00000000000E+00 0.  1.
         21   -1    0    0  501  502  0.00000000000E+00 -0.00000000000E+00 -0.45081818653E+02  0.45081818653E+02  0.00000000000E+00 0.  1.
         25    1    1    2    0    0 -0.14567624865E+03  0.18613626701E+03  0.48176944890E+03  0.55099462902E+03  0.12500000000E+03 0.  0.
          2    1    1    2  501    0  0.14567624865E+03 -0.18613626701E+03  0.13236376453E+04  0.13445761025E+04  0.00000000000E+00 0.  1.
<mgrwt>
<rscale>  3 0.26738227E+03</rscale>
<asrwt>0</asrwt>
<pdfrwt beam="1">  1       21 0.69356658E-02 0.26738227E+03</pdfrwt>
<pdfrwt beam="2">  1        2 0.28469054E+00 0.26738227E+03</pdfrwt>
<totfact> 0.17303638E+04</totfact>
</mgrwt>
</event>
<event>
 4    0  0.1151396E-001  0.3484112E+03  0.7546771E-02  0.1063269E+00
          2   -1    0    0  502    0 -0.00000000000E+00  0.00000000000E+00  0.18590636639E+04  0.18590636639E+04  0.00000000000E+00 0.  1.
         21   -1    0    0  501  502  0.00000000000E+00 -0.00000000000E+00 -0.11134286528E+03  0.11134286528E+03  0.00000000000E+00 0. -1.
         25    1    1    2    0    0 -0.27405872253E+03 -0.17509198875E+03  0.22824388752E+03  0.41651609826E+03  0.12500000000E+03 0.  0.
          2    1    1    2  501    0  0.27405872253E+03  0.17509198875E+03  0.15194769111E+04  0.15538904309E+04  0.00000000000E+00 0.  1.
<mgrwt>
<rscale>  3 0.34841123E+03</rscale>
<asrwt>0</asrwt>
<pdfrwt beam="1">  1       21 0.17129673E-01 0.34841123E+03</pdfrwt>
<pdfrwt beam="2">  1        2 0.28600977E+00 0.34841123E+03</pdfrwt>
<totfact> 0.32926580E+03</totfact>
</mgrwt>
</event>
<event>
 4    0  0.1002184E-001  0.2620442E+03  0.7546771E-02  0.1105921E+00
         21   -1    0    0  501  502  0.00000000000E+00  0.00000000000E+00  0.50093005786E+03  0.50093005786E+03  0.00000000000E+00 0.  1.
         -1   -1    0    0    0  501 -0.00000000000E+00 -0.00000000000E+00 -0.12113190577E+03  0.12113190577E+03  0.00000000000E+00 0. -1.
         25    1    1    2    0    0 -0.11238247204E+03 -0.20102826769E+03  0.21308788346E+03  0.33774788010E+03  0.12500000000E+03 0.  0.
         -1    1    1    2    0  502  0.11238247204E+03  0.20102826769E+03  0.16671026862E+03  0.28431408353E+03  0.00000000000E+00 0. -1.
<mgrwt>
<rscale>  3 0.26204424E+03</rscale>
<asrwt>0</asrwt>
<pdfrwt beam="1">  1       21 0.77066162E-01 0.26204424E+03</pdfrwt>
<pdfrwt beam="2">  1       -1 0.18635678E-01 0.26204424E+03</pdfrwt>
<totfact> 0.30087107E+03</totfact>
</mgrwt>
</event>
<event>
 4    0  0.1002184E-001  0.2729878E+03  0.7546771E-02  0.1099582E+00
          1   -1    0    0  502    0 -0.00000000000E+00  0.00000000000E+00  0.31312151287E+02  0.31312151287E+02  0.00000000000E+00 0. -1.
         21   -1    0    0  501  502  0.00000000000E+00 -0.00000000000E+00 -0.21397311818E+04  0.21397311818E+04  0.00000000000E+00 0. -1.
         25    1    1    2    0    0  0.18660007216E+03 -0.15517014409E+03 -0.12110719755E+04  0.12414578891E+04  0.12500000000E+03 0.  0.
          1    1    1    2  501    0 -0.18660007216E+03  0.15517014409E+03 -0.89734705500E+03  0.92958544398E+03  0.00000000000E+00 0. -1.
<mgrwt>
<rscale>  3 0.27298784E+03</rscale>
<asrwt>0</asrwt>
<pdfrwt beam="1">  1       21 0.32918941E+00 0.27298784E+03</pdfrwt>
<pdfrwt beam="2">  1        1 0.48172541E-02 0.27298784E+03</pdfrwt>
<totfact> 0.39906857E+02</totfact>
</mgrwt>
</event>
<event>
 4    0  0.1144489E-001  0.2486552E+03  0.7546771E-02  0.1114158E+00
         21   -1    0    0  501  502  0.00000000000E+00  0.00000000000E+00  0.32868858476E+03  0.32868858476E+03  0.00000000000E+00 0. -1.
          1   -1    0    0  502    0 -0.00000000000E+00 -0.00000000000E+00 -0.37609388122E+03  0.37609388122E+03  0.00000000000E+00 0.  1.
         25    1    1    2    0    0 -0.15744826527E+03  0.14633669684E+03  0.24020133717E+03  0.34572542206E+03  0.12500000000E+03 0.  0.
          1    1    1    2  501    0  0.15744826527E+03 -0.14633669684E+03 -0.28760663363E+03  0.35905704392E+03  0.00000000000E+00 0.  1.
<mgrwt>
<rscale>  3 0.24865515E+03</rscale>
<asrwt>0</asrwt>
<pdfrwt beam="1">  1       21 0.50567475E-01 0.24865515E+03</pdfrwt>
<pdfrwt beam="2">  1        1 0.57860597E-01 0.24865515E+03</pdfrwt>
<totfact> 0.26298084E+03</totfact>
</mgrwt>
</event>
<event>
 4    0  0.1044378E-001  0.2389832E+03  0.7546771E-02  0.1120472E+00
          3   -1    0    0  502    0 -0.00000000000E+00  0.00000000000E+00  0.19043468810E+03  0.19043468810E+03  0.00000000000E+00 0. -1.
         21   -1    0    0  501  502  0.00000000000E+00 -0.00000000000E+00 -0.28917710476E+03  0.28917710476E+03  0.00000000000E+00 0. -1.
         25    1    1    2    0    0 -0.36804826781E+02 -0.20033318217E+03 -0.13233122049E+03  0.27317490930E+03  0.12500000000E+03 0.  0.
          3    1    1    2  501    0  0.36804826781E+02  0.20033318217E+03  0.33588803829E+02  0.20643688357E+03  0.00000000000E+00 0. -1.
<mgrwt>
<rscale>  3 0.23898322E+03</rscale>
<asrwt>0</asrwt>
<pdfrwt beam="1">  1       21 0.44488785E-01 0.23898322E+03</pdfrwt>
<pdfrwt beam="2">  1        3 0.29297644E-01 0.23898322E+03</pdfrwt>
<totfact> 0.26818112E+03</totfact>
</mgrwt>
</event>
<event>
 4    0  0.1002184E-001  0.2379175E+03  0.7546771E-02  0.1121188E+00
         21   -1    0    0  501  502  0.00000000000E+00  0.00000000000E+00  0.12974121482E+03  0.12974121482E+03  0.00000000000E+00 0.  1.
         -2   -1    0    0    0  501 -0.00000000000E+00 -0.00000000000E+00 -0.40054377838E+03  0.40054377838E+03  0.00000000000E+00 0. -1.
         25    1    1    2    0    0 -0.33589862601E+02 -0.19962824899E+03 -0.77080342879E+02  0.25009217486E+03  0.12500000000E+03 0.  0.
         -2    1    1    2    0  502  0.33589862601E+02  0.19962824899E+03 -0.19372222069E+03  0.28019281835E+03  0.00000000000E+00 0. -1.
<mgrwt>
<rscale>  3 0.23791746E+03</rscale>
<asrwt>0</asrwt>
<pdfrwt beam="1">  1       21 0.19960187E-01 0.23791746E+03</pdfrwt>
<pdfrwt beam="2">  1       -2 0.61622118E-01 0.23791746E+03</pdfrwt>
<totfact> 0.46859710E+03</totfact>
</mgrwt>
</event>
<event>
 4    0  0.1002184E-001  0.4499719E+03  0.7546771E-02  0.1027730E+00
         -4   -1    0    0    0  501 -0.00000000000E+00  0.00000000000E+00  0.20596696221E+03  0.20596696221E+03  0.00000000000E+00 0. -1.
         21   -1    0    0  501  502  0.00000000000E+00 -0.00000000000E+00 -0.97178319380E+03  0.97178319380E+03  0.00000000000E+00 0. -1.
         25    1    1    2    0    0  0.39937445809E+03  0.16537752950E+03 -0.29215208335E+03  0.53649559629E+03  0.12500000000E+03 0.  0.
         -4    1    1    2    0  502 -0.39937445809E+03 -0.16537752950E+03 -0.47366414823E+03  0.64125455972E+03  0.00000000000E+00 0. -1.
<mgrwt>
<rscale>  3 0.44997187E+03</rscale>
<asrwt>0</asrwt>
<pdfrwt beam="1">  1       21 0.14950511E+00 0.44997187E+03</pdfrwt>
<pdfrwt beam="2">  1       -4 0.31687225E-01 0.44997187E+03</pdfrwt>
<totfact> 0.11407534E+02</totfact>
</mgrwt>
</event>
<event>
 4    0  0.1002184E-001  0.5989696E+03  0.7546771E-02  0.9907546E-01
         21   -1    0    0  501  502  0.00000000000E+00  0.00000000000E+00  0.88920293487E+03  0.88920293487E+03  0.00000000000E+00 0. -1.
          2   -1    0    0  502    0 -0.00000000000E+00 -0.00000000000E+00 -0.43813390210E+03  0.43813390210E+03  0.00000000000E+00 0. -1.
         25    1    1    2    0    0  0.48048916284E+03  0.33506671919E+03  0.43690551303E+03  0.74138449487E+03  0.12500000000E+03 0.  0.
          2    1    1    2  501    0 -0.48048916284E+03 -0.33506671919E+03  0.14163519743E+02  0.58595234210E+03  0.00000000000E+00 0. -1.
<mgrwt>
<rscale>  3 0.59896957E+03</rscale>
<asrwt>0</asrwt>
<pdfrwt beam="1">  1       21 0.13680045E+00 0.59896957E+03</pdfrwt>
<pdfrwt beam="2">  1        2 0.67405216E-01 0.59896957E+03</pdfrwt>
<totfact> 0.29292026E+02</totfact>
</mgrwt>
</event>
<event>
 4    0  0.1465423E-001  0.2556088E+03  0.7546771E-02  0.1109811E+00
         21   -1    0    0  501  502  0.00000000000E+00  0.00000000000E+00  0.57943603573E+03  0.57943603573E+03  0.00000000000E+00 0.  1.
          1   -1    0    0  502    0 -0.00000000000E+00 -0.00000000000E+00 -0.16855752937E+04  0.16855752937E+04  0.00000000000E+00 0.  1.
         25    1    1    2    0    0 -0.22197584170E+03  0.20918660590E+02  0.54337689727E+03  0.60049506005E+03  0.12500000000E+03 0.  0.
          1    1    1    2  501    0  0.22197584170E+03 -0.20918660590E+02 -0.16495161553E+04  0.16645162694E+04  0.00000000000E+00 0.  1.
<mgrwt>
<rscale>  3 0.25560881E+03</rscale>
<asrwt>0</asrwt>
<pdfrwt beam="1">  1       21 0.89144006E-01 0.25560881E+03</pdfrwt>
<pdfrwt beam="2">  1        1 0.25931928E+00 0.25560881E+03</pdfrwt>
<totfact> 0.62576927E+01</totfact>
</mgrwt>
</event>
<event>
 4    0  0.1372818E-001  0.3164897E+03  0.7546771E-02  0.1077276E+00
         21   -1    0    0  501  502  0.00000000000E+00  0.00000000000E+00  0.42642678572E+03  0.42642678572E+03  0.00000000000E+00 0. -1.
          2   -1    0    0  502    0 -0.00000000000E+00 -0.00000000000E+00 -0.19317891338E+04  0.19317891338E+04  0.00000000000E+00 0. -1.
         25    1    1    2    0    0 -0.27219667651E+03 -0.10222373574E+03  0.35481200921E+03  0.47545481881E+03  0.12500000000E+03 0.  0.
          2    1    1    2  501    0  0.27219667651E+03  0.10222373574E+03 -0.18601743573E+04  0.18827611007E+04  0.00000000000E+00 0. -1.
<mgrwt>
<rscale>  3 0.31648969E+03</rscale>
<asrwt>0</asrwt>
<pdfrwt beam="1">  1       21 0.65604122E-01 0.31648969E+03</pdfrwt>
<pdfrwt beam="2">  1        2 0.29719832E+00 0.31648969E+03</pdfrwt>
<totfact> 0.20482846E+02</totfact>
</mgrwt>
</event>
<event>
 4    0  0.1087927E-001  0.4690983E+03  0.7546771E-02  0.1022175E+00
         21   -1    0    0  501  502  0.00000000000E+00  0.00000000000E+00  0.44182369288E+03  0.44182369288E+03  0.00000000000E+00 0. -1.
          1   -1    0    0  502    0 -0.00000000000E+00 -0.00000000000E+00 -0.58482696432E+03  0.58482696432E+03  0.00000000000E+00 0. -1.
         25    1    1    2    0    0  0.42542439909E+03 -0.15310883144E+03  0.14449577785E+03  0.49084851372E+03  0.12500000000E+03 0.  0.
          1    1    1    2  501    0 -0.42542439909E+03  0.15310883144E+03 -0.28749904929E+03  0.53580214347E+03  0.00000000000E+00 0. -1.
<mgrwt>
<rscale>  3 0.46909832E+03</rscale>
<asrwt>0</asrwt>
<pdfrwt beam="1">  1       21 0.67972875E-01 0.46909832E+03</pdfrwt>
<pdfrwt beam="2">  1        1 0.89973380E-01 0.46909832E+03</pdfrwt>
<totfact> 0.72413487E+02</totfact>
</mgrwt>
</event>
<event>
 4    0  0.1370386E-001  0.3068400E+03  0.7546771E-02  0.1081870E+00
         21   -1    0    0  501  502  0.00000000000E+00  0.00000000000E+00  0.16141531851E+03  0.16141531851E+03  0.00000000000E+00 0. -1.
          2   -1    0    0  502    0 -0.00000000000E+00 -0.00000000000E+00 -0.94986067071E+03  0.94986067071E+03  0.00000000000E+00 0.  1.
         25    1    1    2    0    0  0.40698635136E+02  0.27725333170E+03 -0.36733060206E+02  0.30903091521E+03  0.12500000000E+03 0.  0.
          2    1    1    2  501    0 -0.40698635136E+02 -0.27725333170E+03 -0.75171229199E+03  0.80224507401E+03  0.00000000000E+00 0.  1.
<mgrwt>
<rscale>  3 0.30684001E+03</rscale>
<asrwt>0</asrwt>
<pdfrwt beam="1">  1       21 0.24833125E-01 0.30684001E+03</pdfrwt>
<pdfrwt beam="2">  1        2 0.14613241E+00 0.30684001E+03</pdfrwt>
<totfact> 0.53074763E+03</totfact>
</mgrwt>
</event>
<event>
 4    0  0.1148497E-001  0.2416630E+03  0.7546771E-02  0.1118690E+00
         21   -1    0    0  501  502  0.00000000000E+00  0.00000000000E+00  0.62439817495E+02  0.62439817495E+02  0.00000000000E+00 0.  1.
          1   -1    0    0  502    0 -0.00000000000E+00 -0.00000000000E+00 -0.19394229678E+04  0.19394229678E+04  0.00000000000E+00 0. -1.
         25    1    1    2    0    0 -0.88650251884E+02 -0.18686133520E+03 -0.20431958999E+03  0.31646093062E+03  0.12500000000E+03 0.  0.
          1    1    1    2  501    0  0.88650251884E+02  0.18686133520E+03 -0.16726635604E+04  0.16854018547E+04  0.00000000000E+00 0. -1.
<mgrwt>
<rscale>  3 0.24166304E+03</rscale>
<asrwt>0</asrwt>
<pdfrwt beam="1">  1       21 0.96061253E-02 0.24166304E+03</pdfrwt>
<pdfrwt beam="2">  1        1 0.29837278E+00 0.24166304E+03</pdfrwt>
<totfact> 0.35980825E+03</totfact>
</mgrwt>
</event>
<event>
 4    0  0.1002184E-001  0.4316934E+03  0.7546771E-02  0.1033326E+00
          2   -1    0    0  502    0 -0.00000000000E+00  0.00000000000E+00  0.43487435754E+04  0.43487435754E+04  0.00000000000E+00 0.  1.
         21   -1    0    0  501  502  0.00000000000E+00 -0.00000000000E+00 -0.43946839165E+02  0.43946839165E+02  0.00000000000E+00 0.  1.
         25    1    1    2    0    0  0.17670447786E+03 -0.37350997489E+03  0.27613857381E+04  0.27949258252E+04  0.12500000000E+03 0.  0.
          2    1    1    2  501    0 -0.17670447786E+03  0.37350997489E+03  0.15434109982E+04  0.15977645894E+04  0.00000000000E+00 0.  1.
<mgrwt>
<rscale>  3 0.43169338E+03</rscale>
<asrwt>0</asrwt>
<pdfrwt beam="1">  1       21 0.67610556E-02 0.43169338E+03</pdfrwt>
<pdfrwt beam="2">  1        2 0.66903714E+00 0.43169338E+03</pdfrwt>
<totfact> 0.43250198E+02</totfact>
</mgrwt>
</event>
<event>
 4    0  0.1251499E-001  0.2391615E+03  0.7546771E-02  0.1120353E+00
          3   -1    0    0  502    0 -0.00000000000E+00  0.00000000000E+00  0.66418925792E+03  0.66418925792E+03  0.00000000000E+00 0. -1.
         21   -1    0    0  501  502  0.00000000000E+00 -0.00000000000E+00 -0.16410577800E+03  0.16410577800E+03  0.00000000000E+00 0. -1.
         25    1    1    2    0    0  0.18962378970E+03 -0.74940318374E+02 -0.47632310680E+02  0.24385870901E+03  0.12500000000E+03 0.  0.
          3    1    1    2  501    0 -0.18962378970E+03  0.74940318374E+02  0.54771579060E+03  0.58443632691E+03  0.00000000000E+00 0. -1.
<mgrwt>
<rscale>  3 0.23916152E+03</rscale>
<asrwt>0</asrwt>
<pdfrwt beam="1">  1       21 0.25247043E-01 0.23916152E+03</pdfrwt>
<pdfrwt beam="2">  1        3 0.10218296E+00 0.23916152E+03</pdfrwt>
<totfact> 0.63006852E+02</totfact>
</mgrwt>
</event>
<event>
 4    0  0.1002184E-001  0.2841705E+03  0.7546771E-02  0.1093433E+00
         21   -1    0    0  501  502  0.00000000000E+00  0.00000000000E+00  0.46525698459E+03  0.46525698459E+03  0.00000000000E+00 0.  1.
         -3   -1    0    0    0  501 -0.00000000000E+00 -0.00000000000E+00 -0.24583146929E+03  0.24583146929E+03  0.00000000000E+00 0. -1.
         25    1    1    2    0    0  0.16459746511E+03  0.19502706714E+03  0.32780172103E+03  0.43382813504E+03  0.12500000000E+03 0.  0.
         -3    1    1    2    0  502 -0.16459746511E+03 -0.19502706714E+03 -0.10837620572E+03  0.27726031885E+03  0.00000000000E+00 0. -1.
<mgrwt>
<rscale>  3 0.28417052E+03</rscale>
<asrwt>0</asrwt>
<pdfrwt beam="1">  1       21 0.71577997E-01 0.28417052E+03</pdfrwt>
<pdfrwt beam="2">  1       -3 0.37820226E-01 0.28417052E+03</pdfrwt>
<totfact> 0.59283555E+02</totfact>
</mgrwt>
</event>
<event>
 4    0  0.1002184E-001  0.3859247E+03  0.7546771E-02  0.1048765E+00
          4   -1    0    0  502    0 -0.00000000000E+00  0.00000000000E+00  0.15660165200E+03  0.15660165200E+03  0.00000000000E+00 0.  1.
         21   -1    0    0  501  502  0.00000000000E+00 -0.00000000000E+00 -0.12039231217E+04  0.12039231217E+04  0.00000000000E+00 0.  1.
         25    1    1    2    0    0  0.24460513580E+03 -0.27107409920E+03 -0.87593030397E+03  0.95717905176E+03  0.12500000000E+03 0.  0.
          4    1    1    2  501    0 -0.24460513580E+03  0.27107409920E+03 -0.17139116574E+03  0.40334572194E+03  0.00000000000E+00 0.  1.
<mgrwt>
<rscale>  3 0.38592466E+03</rscale>
<asrwt>0</asrwt>
<pdfrwt beam="1">  1       21 0.18521895E+00 0.38592466E+03</pdfrwt>
<pdfrwt beam="2">  1        4 0.24092561E-01 0.38592466E+03</pdfrwt>
<totfact> 0.10657438E+02</totfact>
</mgrwt>
</event>
<event>
 4    0  0.1633860E-001  0.2951809E+03  0.7546771E-02  0.1087675E+00
          2   -1    0    0  502    0 -0.00000000000E+00  0.00000000000E+00  0.20434631178E+04  0.20434631178E+04  0.00000000000E+00 0. -1.
         21   -1    0    0  501  502  0.00000000000E+00 -0.00000000000E+00 -0.40473358015E+03  0.40473358015E+03  0.00000000000E+00 0.  1.
         25    1    1    2    0    0 -0.25289331853E+03 -0.86900866012E+02 -0.34070003499E+03  0.45078631846E+03  0.12500000000E+03 0.  0.
          2    1    1    2  501    0  0.25289331853E+03  0.86900866012E+02  0.19794295726E+04  0.19974103795E+04  0.00000000000E+00 0. -1.
<mgrwt>
<rscale>  3 0.29518095E+03</rscale>
<asrwt>0</asrwt>
<pdfrwt beam="1">  1       21 0.62266706E-01 0.29518095E+03</pdfrwt>
<pdfrwt beam="2">  1        2 0.31437894E+00 0.29518095E+03</pdfrwt>
<totfact> 0.20292889E+02</totfact>
</mgrwt>
</event>
<event>
 4    0  0.1002184E-001  0.3151281E+03  0.7546771E-02  0.1077914E+00
         21   -1    0    0  501  502  0.00000000000E+00  0.00000000000E+00  0.36004487435E+03  0.36004487435E+03  0.00000000000E+00 0.  1.
         -2   -1    0    0    0  501 -0.00000000000E+00 -0.00000000000E+00 -0.31627199545E+03  0.31627199545E+03  0.00000000000E+00 0. -1.
         25    1    1    2    0    0  0.62034185129E+02  0.28254644497E+03  0.17299539911E+03  0.35949011364E+03  0.12500000000E+03 0.  0.
         -2    1    1    2    0  502 -0.62034185129E+02 -0.28254644497E+03 -0.12922252021E+03  0.31682675616E+03  0.00000000000E+00 0. -1.
<mgrwt>
<rscale>  3 0.31512812E+03</rscale>
<asrwt>0</asrwt>
<pdfrwt beam="1">  1       21 0.55391519E-01 0.31512812E+03</pdfrwt>
<pdfrwt beam="2">  1       -2 0.48657230E-01 0.31512812E+03</pdfrwt>
<totfact> 0.97433413E+02</totfact>
</mgrwt>
</event>
<event>
 4    0  0.1388765E-001  0.3203891E+03  0.7546771E-02  0.1075470E+00
         21   -1    0    0  501  502  0.00000000000E+00  0.00000000000E+00  0.83589166771E+03  0.83589166771E+03  0.00000000000E+00 0.  1.
          1   -1    0    0  502    0 -0.00000000000E+00 -0.00000000000E+00 -0.58769693826E+03  0.58769693826E+03  0.00000000000E+00 0.  1.
         25    1    1    2    0    0 -0.84136413066E+02  0.28274586164E+03  0.76451630077E+03  0.82893566241E+03  0.12500000000E+03 0.  0.
          1    1    1    2  501    0  0.84136413066E+02 -0.28274586164E+03 -0.51632157131E+03  0.59465294356E+03  0.00000000000E+00 0.  1.
<mgrwt>
<rscale>  3 0.32038907E+03</rscale>
<asrwt>0</asrwt>
<pdfrwt beam="1">  1       21 0.12859872E+00 0.32038907E+03</pdfrwt>
<pdfrwt beam="2">  1        1 0.90414913E-01 0.32038907E+03</pdfrwt>
<totfact> 0.16488069E+02</totfact>
</mgrwt>
</event>
<event>
 4    0  0.1691147E-001  0.3130847E+03  0.7546771E-02  0.1078877E+00
         21   -1    0    0  501  502  0.00000000000E+00  0.00000000000E+00  0.18533867004E+03  0.18533867004E+03  0.00000000000E+00 0.  1.
         -1   -1    0    0    0  501 -0.00000000000E+00 -0.00000000000E+00 -0.70125257496E+03  0.70125257496E+03  0.00000000000E+00 0.  1.
         25    1    1    2    0    0  0.28597393622E+03  0.24818104582E+02 -0.20162731250E+02  0.31373327246E+03  0.12500000000E+03 0.  0.
         -1    1    1    2    0  502 -0.28597393622E+03 -0.24818104582E+02 -0.49575117367E+03  0.57285797255E+03  0.00000000000E+00 0.  1.
<mgrwt>
<rscale>  3 0.31308470E+03</rscale>
<asrwt>0</asrwt>
<pdfrwt beam="1">  1       21 0.28513642E-01 0.31308470E+03</pdfrwt>
<pdfrwt beam="2">  1       -1 0.10788501E+00 0.31308470E+03</pdfrwt>
<totfact> 0.90133274E+02</totfact>
</mgrwt>
</event>
<event>
 4    0  0.1808552E-001  0.2900816E+03  0.7546771E-02  0.1090307E+00
         21   -1    0    0  501  502  0.00000000000E+00  0.00000000000E+00  0.16947210075E+03  0.16947210075E+03  0.00000000000E+00 0. -1.
         -1   -1    0    0    0  501 -0.00000000000E+00 -0.00000000000E+00 -0.11037308888E+04  0.11037308888E+04  0.00000000000E+00 0. -1.
         25    1    1    2    0    0  0.25564032234E+03  0.56305876555E+02  0.13067463923E+02  0.29037576475E+03  0.12500000000E+03 0.  0.
         -1    1    1    2    0  502 -0.25564032234E+03 -0.56305876555E+02 -0.94732625196E+03  0.98282722479E+03  0.00000000000E+00 0. -1.
<mgrwt>
<rscale>  3 0.29008159E+03</rscale>
<asrwt>0</asrwt>
<pdfrwt beam="1">  1       21 0.26072631E-01 0.29008159E+03</pdfrwt>
<pdfrwt beam="2">  1       -1 0.16980475E+00 0.29008159E+03</pdfrwt>
<totfact> 0.34338040E+02</totfact>
</mgrwt>
</event>
<event>
 4    0  0.1394711E-001  0.2703471E+03  0.7546771E-02  0.1101081E+00
         -1   -1    0    0    0  501 -0.00000000000E+00  0.00000000000E+00  0.35461574607E+03  0.35461574607E+03  0.00000000000E+00 0.  1.
         21   -1    0    0  501  502  0.00000000000E+00 -0.00000000000E+00 -0.35372229454E+03  0.35372229454E+03  0.00000000000E+00 0.  1.
         25    1    1    2    0    0  0.23921531120E+03 -0.15445686021E+02 -0.24506370644E+03  0.36488868789E+03  0.12500000000E+03 0.  0.
         -1    1    1    2    0  502 -0.23921531120E+03  0.15445686021E+02  0.24595715797E+03  0.34344935272E+03  0.00000000000E+00 0.  1.
<mgrwt>
<rscale>  3 0.27034706E+03</rscale>
<asrwt>0</asrwt>
<pdfrwt beam="1">  1       21 0.54418815E-01 0.27034706E+03</pdfrwt>
<pdfrwt beam="2">  1       -1 0.54556269E-01 0.27034706E+03</pdfrwt>
<totfact> 0.10022779E+03</totfact>
</mgrwt>
</event>
<event>
 4    0  0.1002184E-001  0.5465146E+03  0.7546771E-02  0.1002304E+00
         21   -1    0    0  501  502  0.00000000000E+00  0.00000000000E+00  0.13292247960E+03  0.13292247960E+03  0.00000000000E+00 0. -1.
          2   -1    0    0  502    0 -0.00000000000E+00 -0.00000000000E+00 -0.29122200004E+04  0.29122200004E+04  0.00000000000E+00 0. -1.
         25    1    1    2    0    0 -0.42557328940E+03  0.31928132453E+03 -0.21629817637E+04  0.22309568124E+04  0.12500000000E+03 0.  0.
          2    1    1    2  501    0  0.42557328940E+03 -0.31928132453E+03 -0.61631575716E+03  0.81418566762E+03  0.00000000000E+00 0. -1.
<mgrwt>
<rscale>  3 0.54651458E+03</rscale>
<asrwt>0</asrwt>
<pdfrwt beam="1">  1       21 0.20449614E-01 0.54651458E+03</pdfrwt>
<pdfrwt beam="2">  1        2 0.44803381E+00 0.54651458E+03</pdfrwt>
<totfact> 0.57856918E+02</totfact>
</mgrwt>
</event>
<event>
 4    0  0.1597648E-001  0.2867880E+03  0.7546771E-02  0.1092038E+00
          2   -1    0    0  502    0 -0.00000000000E+00  0.00000000000E+00  0.22678945091E+04  0.22678945091E+04  0.00000000000E+00 0. -1.
         21   -1    0    0  501  502  0.00000000000E+00 -0.00000000000E+00 -0.35303827440E+02  0.35303827440E+02  0.00000000000E+00 0. -1.
         25    1    1    2    0    0 -0.56493219285E+02  0.25185487822E+03  0.86024393951E+03  0.90678939064E+03  0.12500000000E+03 0.  0.
          2    1    1    2  501    0  0.56493219285E+02 -0.25185487822E+03  0.13723467421E+04  0.13964089459E+04  0.00000000000E+00 0. -1.
<mgrwt>
<rscale>  3 0.28678801E+03</rscale>
<asrwt>0</asrwt>
<pdfrwt beam="1">  1       21 0.54313598E-02 0.28678801E+03</pdfrwt>
<pdfrwt beam="2">  1        2 0.34890673E+00 0.28678801E+03</pdfrwt>
<totfact> 0.15793091E+04</totfact>
</mgrwt>
</event>
<event>
 4    0  0.1002184E-001  0.2436917E+03  0.7546771E-02  0.1117358E+00
          2   -1    0    0  502    0 -0.00000000000E+00  0.00000000000E+00  0.55231030887E+03  0.55231030887E+03  0.00000000000E+00 0. -1.
         21   -1    0    0  501  502  0.00000000000E+00 -0.00000000000E+00 -0.96555837240E+02  0.96555837240E+02  0.00000000000E+00 0.  1.
         25    1    1    2    0    0  0.18803559064E+03 -0.91669209737E+02  0.18108710067E+03  0.30360857265E+03  0.12500000000E+03 0.  0.
          2    1    1    2  501    0 -0.18803559064E+03  0.91669209737E+02  0.27466737096E+03  0.34525757346E+03  0.00000000000E+00 0. -1.
<mgrwt>
<rscale>  3 0.24369166E+03</rscale>
<asrwt>0</asrwt>
<pdfrwt beam="1">  1       21 0.14854745E-01 0.24369166E+03</pdfrwt>
<pdfrwt beam="2">  1        2 0.84970815E-01 0.24369166E+03</pdfrwt>
<totfact> 0.27658722E+04</totfact>
</mgrwt>
</event>
<event>
 4    0  0.1407392E-001  0.3622042E+03  0.7546771E-02  0.1057714E+00
         -4   -1    0    0    0  501 -0.00000000000E+00  0.00000000000E+00  0.54131356762E+03  0.54131356762E+03  0.00000000000E+00 0.  1.
         21   -1    0    0  501  502  0.00000000000E+00 -0.00000000000E+00 -0.13269809385E+04  0.13269809385E+04  0.00000000000E+00 0.  1.
         25    1    1    2    0    0  0.29105037143E+03  0.17566033124E+03 -0.12451295777E+04  0.12967418925E+04  0.12500000000E+03 0.  0.
         -4    1    1    2    0  502 -0.29105037143E+03 -0.17566033124E+03  0.45946220676E+03  0.57155261361E+03  0.00000000000E+00 0.  1.
<mgrwt>
<rscale>  3 0.36220418E+03</rscale>
<asrwt>0</asrwt>
<pdfrwt beam="1">  1       21 0.20415091E+00 0.36220418E+03</pdfrwt>
<pdfrwt beam="2">  1       -4 0.83279010E-01 0.36220418E+03</pdfrwt>
<totfact> 0.62859065E+00</totfact>
</mgrwt>
</event>
<event>
 4    0  0.1252713E-001  0.2725635E+03  0.7546771E-02  0.1099821E+00
         21   -1    0    0  501  502  0.00000000000E+00  0.00000000000E+00  0.11358027219E+04  0.11358027219E+04  0.00000000000E+00 0.  1.
         -2   -1    0    0    0  501 -0.00000000000E+00 -0.00000000000E+00 -0.11862942922E+03  0.11862942922E+03  0.00000000000E+00 0.  1.
         25    1    1    2    0    0  0.10747709947E+03 -0.21705888200E+03  0.97013462331E+03  0.10076964188E+04  0.12500000000E+03 0.  0.
         -2    1    1    2    0  502 -0.10747709947E+03  0.21705888200E+03  0.47038669352E+02  0.24673573227E+03  0.00000000000E+00 0.  1.
<mgrwt>
<rscale>  3 0.27256354E+03</rscale>
<asrwt>0</asrwt>
<pdfrwt beam="1">  1       21 0.17473887E+00 0.27256354E+03</pdfrwt>
<pdfrwt beam="2">  1       -2 0.18250682E-01 0.27256354E+03</pdfrwt>
<totfact> 0.36981660E+02</totfact>
</mgrwt>
</event>
<event>
 4    0  0.1002184E-001  0.2702373E+03  0.7546771E-02  0.1101144E+00
         21   -1    0    0  501  502  0.00000000000E+00  0.00000000000E+00  0.62998207311E+02  0.62998207311E+02  0.00000000000E+00 0.  1.
          2   -1    0    0  502    0 -0.00000000000E+00 -0.00000000000E+00 -0.35885609398E+04  0.35885609398E+04  0.00000000000E+00 0.  1.
         25    1    1    2    0    0  0.23864833642E+03 -0.21216743209E+02 -0.25283301717E+03  0.37007122725E+03  0.12500000000E+03 0.  0.
          2    1    1    2  501    0 -0.23864833642E+03  0.21216743209E+02 -0.32727297153E+04  0.32814879199E+04  0.00000000000E+00 0.  1.
<mgrwt>
<rscale>  3 0.27023726E+03</rscale>
<asrwt>0</asrwt>
<pdfrwt beam="1">  1       21 0.96920261E-02 0.27023726E+03</pdfrwt>
<pdfrwt beam="2">  1        2 0.55208663E+00 0.27023726E+03</pdfrwt>
<totfact> 0.95519055E+02</totfact>
</mgrwt>
</event>
<event>
 4    0  0.1195223E-001  0.4511511E+03  0.7546771E-02  0.1027379E+00
          2   -1    0    0  502    0 -0.00000000000E+00  0.00000000000E+00  0.23083436973E+04  0.23083436973E+04  0.00000000000E+00 0.  1.
         21   -1    0    0  501  502  0.00000000000E+00 -0.00000000000E+00 -0.13107094701E+03  0.13107094701E+03  0.00000000000E+00 0.  1.
         25    1    1    2    0    0 -0.13438592773E+03 -0.41213192719E+03  0.37774609856E+03  0.58841262559E+03  0.12500000000E+03 0.  0.
          2    1    1    2  501    0  0.13438592773E+03  0.41213192719E+03  0.17995266517E+04  0.18510020187E+04  0.00000000000E+00 0.  1.
<mgrwt>
<rscale>  3 0.45115109E+03</rscale>
<asrwt>0</asrwt>
<pdfrwt beam="1">  1       21 0.20164763E-01 0.45115109E+03</pdfrwt>
<pdfrwt beam="2">  1        2 0.35512977E+00 0.45115109E+03</pdfrwt>
<totfact> 0.13474396E+03</totfact>
</mgrwt>
</event>
<event>
 4    0  0.1585418E-001  0.2522766E+03  0.7546771E-02  0.1111874E+00
         21   -1    0    0  501  502  0.00000000000E+00  0.00000000000E+00  0.31077392168E+02  0.31077392168E+02  0.00000000000E+00 0. -1.
          1   -1    0    0  502    0 -0.00000000000E+00 -0.00000000000E+00 -0.22944511022E+04  0.22944511022E+04  0.00000000000E+00 0. -1.
         25    1    1    2    0    0  0.13639535263E+03 -0.17150740634E+03 -0.64827462661E+03  0.69563170870E+03  0.12500000000E+03 0.  0.
          1    1    1    2  501    0 -0.13639535263E+03  0.17150740634E+03 -0.16150990834E+04  0.16298967857E+04  0.00000000000E+00 0. -1.
<mgrwt>
<rscale>  3 0.25227660E+03</rscale>
<asrwt>0</asrwt>
<pdfrwt beam="1">  1       21 0.47811368E-02 0.25227660E+03</pdfrwt>
<pdfrwt beam="2">  1        1 0.35299251E+00 0.25227660E+03</pdfrwt>
<totfact> 0.70629335E+03</totfact>
</mgrwt>
</event>
<event>
 4    0  0.1440965E-001  0.3097927E+03  0.7546771E-02  0.1080445E+00
         21   -1    0    0  501  502  0.00000000000E+00  0.00000000000E+00  0.42123298521E+02  0.42123298521E+02  0.00000000000E+00 0.  1.
          1   -1    0    0  502    0 -0.00000000000E+00 -0.00000000000E+00 -0.21034707662E+04  0.21034707662E+04  0.00000000000E+00 0.  1.
         25    1    1    2    0    0 -0.24065032748E+03  0.14977957112E+03 -0.98649285046E+03  0.10339920909E+04  0.12500000000E+03 0.  0.
          1    1    1    2  501    0  0.24065032748E+03 -0.14977957112E+03 -0.10748546172E+04  0.11116019738E+04  0.00000000000E+00 0.  1.
<mgrwt>
<rscale>  3 0.30979267E+03</rscale>
<asrwt>0</asrwt>
<pdfrwt beam="1">  1       21 0.64805081E-02 0.30979267E+03</pdfrwt>
<pdfrwt beam="2">  1        1 0.32361086E+00 0.30979267E+03</pdfrwt>
<totfact> 0.54802602E+03</totfact>
</mgrwt>
</event>
<event>
 4    0  0.1463829E-001  0.2937865E+03  0.7546771E-02  0.1088389E+00
          1   -1    0    0  502    0 -0.00000000000E+00  0.00000000000E+00  0.23638178661E+04  0.23638178661E+04  0.00000000000E+00 0. -1.
         21   -1    0    0  501  502  0.00000000000E+00 -0.00000000000E+00 -0.42927171004E+02  0.42927171004E+02  0.00000000000E+00 0. -1.
         25    1    1    2    0    0  0.74935117700E+02  0.25508871756E+03  0.63065496358E+03  0.69572710798E+03  0.12500000000E+03 0.  0.
          1    1    1    2  501    0 -0.74935117700E+02 -0.25508871756E+03  0.16902357315E+04  0.17110179291E+04  0.00000000000E+00 0. -1.
<mgrwt>
<rscale>  3 0.29378653E+03</rscale>
<asrwt>0</asrwt>
<pdfrwt beam="1">  1       21 0.66041820E-02 0.29378653E+03</pdfrwt>
<pdfrwt beam="2">  1        1 0.36366419E+00 0.29378653E+03</pdfrwt>
<totfact> 0.35961129E+03</totfact>
</mgrwt>
</event>
<event>
 4    0  0.1312054E-001  0.2686241E+03  0.7546771E-02  0.1102070E+00
          2   -1    0    0  502    0 -0.00000000000E+00  0.00000000000E+00  0.15514025559E+04  0.15514025559E+04  0.00000000000E+00 0. -1.
         21   -1    0    0  501  502  0.00000000000E+00 -0.00000000000E+00 -0.89254516673E+02  0.89254516673E+02  0.00000000000E+00 0.  1.
         25    1    1    2    0    0  0.23621677896E+03  0.27120368193E+02  0.15106300053E+03  0.30818648764E+03  0.12500000000E+03 0.  0.
          2    1    1    2  501    0 -0.23621677896E+03 -0.27120368193E+02  0.13110850387E+04  0.13324705850E+04  0.00000000000E+00 0. -1.
<mgrwt>
<rscale>  3 0.26862405E+03</rscale>
<asrwt>0</asrwt>
<pdfrwt beam="1">  1       21 0.13731465E-01 0.26862405E+03</pdfrwt>
<pdfrwt beam="2">  1        2 0.23867730E+00 0.26862405E+03</pdfrwt>
<totfact> 0.73875660E+03</totfact>
</mgrwt>
</event>
<event>
 4    0  0.1092061E-001  0.3683701E+03  0.7546771E-02  0.1055318E+00
          2   -1    0    0  502    0 -0.00000000000E+00  0.00000000000E+00  0.54371404331E+03  0.54371404331E+03  0.00000000000E+00 0.  1.
         21   -1    0    0  501  502  0.00000000000E+00 -0.00000000000E+00 -0.40145437408E+03  0.40145437408E+03  0.00000000000E+00 0.  1.
         25    1    1    2    0    0 -0.25408838548E+03  0.23560693284E+03  0.37663801618E+03  0.52683273405E+03  0.12500000000E+03 0.  0.
          2    1    1    2  501    0  0.25408838548E+03 -0.23560693284E+03 -0.23437834695E+03  0.41833568334E+03  0.00000000000E+00 0.  1.
<mgrwt>
<rscale>  3 0.36837011E+03</rscale>
<asrwt>0</asrwt>
<pdfrwt beam="1">  1       21 0.61762212E-01 0.36837011E+03</pdfrwt>
<pdfrwt beam="2">  1        2 0.83648314E-01 0.36837011E+03</pdfrwt>
<totfact> 0.16253463E+03</totfact>
</mgrwt>
</event>
<event>
 4    0  0.1035096E-001  0.2444395E+03  0.7546771E-02  0.1116870E+00
          2   -1    0    0  502    0 -0.00000000000E+00  0.00000000000E+00  0.13329290623E+04  0.13329290623E+04  0.00000000000E+00 0.  1.
         21   -1    0    0  501  502  0.00000000000E+00 -0.00000000000E+00 -0.65275082405E+02  0.65275082405E+02  0.00000000000E+00 0. -1.
         25    1    1    2    0    0  0.24264018593E+02  0.20865505501E+03  0.21733693432E+03  0.32708717126E+03  0.12500000000E+03 0.  0.
          2    1    1    2  501    0 -0.24264018593E+02 -0.20865505501E+03  0.10503170456E+04  0.10711169734E+04  0.00000000000E+00 0.  1.
<mgrwt>
<rscale>  3 0.24443951E+03</rscale>
<asrwt>0</asrwt>
<pdfrwt beam="1">  1       21 0.10042321E-01 0.24443951E+03</pdfrwt>
<pdfrwt beam="2">  1        2 0.20506599E+00 0.24443951E+03</pdfrwt>
<totfact> 0.17130219E+04</totfact>
</mgrwt>
</event>
<event>
 4    0  0.1011761E-001  0.3317839E+03  0.7546771E-02  0.1070350E+00
         21   -1    0    0  501  502  0.00000000000E+00  0.00000000000E+00  0.11662373523E+04  0.11662373523E+04  0.00000000000E+00 0. -1.
          1   -1    0    0  502    0 -0.00000000000E+00 -0.00000000000E+00 -0.23721678906E+03  0.23721678906E+03  0.00000000000E+00 0.  1.
         25    1    1    2    0    0 -0.30180876408E+03  0.58026133310E+02  0.10282840755E+04  0.10804854012E+04  0.12500000000E+03 0.  0.
          1    1    1    2  501    0  0.30180876408E+03 -0.58026133310E+02 -0.99263512317E+02  0.32296874013E+03  0.00000000000E+00 0.  1.
<mgrwt>
<rscale>  3 0.33178391E+03</rscale>
<asrwt>0</asrwt>
<pdfrwt beam="1">  1       21 0.17942113E+00 0.33178391E+03</pdfrwt>
<pdfrwt beam="2">  1        1 0.36494891E-01 0.33178391E+03</pdfrwt>
<totfact> 0.21696540E+02</totfact>
</mgrwt>
</event>
<event>
 4    0  0.1235488E-001  0.2789391E+03  0.7546771E-02  0.1096270E+00
          2   -1    0    0  502    0 -0.00000000000E+00  0.00000000000E+00  0.35335570412E+04  0.35335570412E+04  0.00000000000E+00 0.  1.
         21   -1    0    0  501  502  0.00000000000E+00 -0.00000000000E+00 -0.32279923168E+02  0.32279923168E+02  0.00000000000E+00 0.  1.
         25    1    1    2    0    0  0.21876330519E+03  0.11968550075E+03  0.29204850221E+04  0.29337756845E+04  0.12500000000E+03 0.  0.
          2    1    1    2  501    0 -0.21876330519E+03 -0.11968550075E+03  0.58079209601E+03  0.63206127992E+03  0.00000000000E+00 0.  1.
<mgrwt>
<rscale>  3 0.27893907E+03</rscale>
<asrwt>0</asrwt>
<pdfrwt beam="1">  1       21 0.49661448E-02 0.27893907E+03</pdfrwt>
<pdfrwt beam="2">  1        2 0.54362385E+00 0.27893907E+03</pdfrwt>
<totfact> 0.33147709E+03</totfact>
</mgrwt>
</event>
<event>
 4    0  0.1002184E-001  0.2842137E+03  0.7546771E-02  0.1093410E+00
         21   -1    0    0  501  502  0.00000000000E+00  0.00000000000E+00  0.12928651824E+03  0.12928651824E+03  0.00000000000E+00 0. -1.
          1   -1    0    0  502    0 -0.00000000000E+00 -0.00000000000E+00 -0.70332989983E+03  0.70332989983E+03  0.00000000000E+00 0.  1.
         25    1    1    2    0    0 -0.18055172744E+03 -0.18042583192E+03 -0.11344058305E+03  0.30601662208E+03  0.12500000000E+03 0.  0.
          1    1    1    2  501    0  0.18055172744E+03  0.18042583192E+03 -0.46060279855E+03  0.52659979599E+03  0.00000000000E+00 0.  1.
<mgrwt>
<rscale>  3 0.28421366E+03</rscale>
<asrwt>0</asrwt>
<pdfrwt beam="1">  1       21 0.19890233E-01 0.28421366E+03</pdfrwt>
<pdfrwt beam="2">  1        1 0.10820460E+00 0.28421366E+03</pdfrwt>
<totfact> 0.71025241E+03</totfact>
</mgrwt>
</event>
<event>
 4    0  0.1268334E-001  0.2479151E+03  0.7546771E-02  0.1114630E+00
         21   -1    0    0  501  502  0.00000000000E+00  0.00000000000E+00  0.11072428871E+03  0.11072428871E+03  0.00000000000E+00 0. -1.
          2   -1    0    0  502    0 -0.00000000000E+00 -0.00000000000E+00 -0.60383485290E+03  0.60383485290E+03  0.00000000000E+00 0. -1.
         25    1    1    2    0    0 -0.21351228226E+03  0.15792188192E+02 -0.10078508070E+03  0.26761823625E+03  0.12500000000E+03 0.  0.
          2    1    1    2  501    0  0.21351228226E+03 -0.15792188192E+02 -0.39232548349E+03  0.44694090536E+03  0.00000000000E+00 0. -1.
<mgrwt>
<rscale>  3 0.24791508E+03</rscale>
<asrwt>0</asrwt>
<pdfrwt beam="1">  1       21 0.17034506E-01 0.24791508E+03</pdfrwt>
<pdfrwt beam="2">  1        2 0.92897670E-01 0.24791508E+03</pdfrwt>
<totfact> 0.19385622E+04</totfact>
</mgrwt>
</event>
<event>
 4    0  0.1825550E-001  0.3047006E+03  0.7546771E-02  0.1082914E+00
         -3   -1    0    0    0  501 -0.00000000000E+00  0.00000000000E+00  0.11009256039E+04  0.11009256039E+04  0.00000000000E+00 0. -1.
         21   -1    0    0  501  502  0.00000000000E+00 -0.00000000000E+00 -0.10780005349E+03  0.10780005349E+03  0.00000000000E+00 0. -1.
         25    1    1    2    0    0 -0.22669305660E+03  0.16071000057E+03  0.19048135492E+03  0.35934049698E+03  0.12500000000E+03 0.  0.
         -3    1    1    2    0  502  0.22669305660E+03 -0.16071000057E+03  0.80264419551E+03  0.84938516045E+03  0.00000000000E+00 0. -1.
<mgrwt>
<rscale>  3 0.30470058E+03</rscale>
<asrwt>0</asrwt>
<pdfrwt beam="1">  1       21 0.16584624E-01 0.30470058E+03</pdfrwt>
<pdfrwt beam="2">  1       -3 0.16937316E+00 0.30470058E+03</pdfrwt>
<totfact> 0.39734974E+02</totfact>
</mgrwt>
</event>
<event>
 4    0  0.1498276E-001  0.3256902E+03  0.7546771E-02  0.1073060E+00
          2   -1    0    0  502    0 -0.00000000000E+00  0.00000000000E+00  0.15715623774E+04  0.15715623774E+04  0.00000000000E+00 0.  1.
         21   -1    0    0  501  502  0.00000000000E+00 -0.00000000000E+00 -0.12267544577E+03  0.12267544577E+03  0.00000000000E+00 0.  1.
         25    1    1    2    0    0  0.24846780273E+03  0.16944877748E+03  0.14569461234E+03  0.35679273710E+03  0.12500000000E+03 0.  0.
          2    1    1    2  501    0 -0.24846780273E+03 -0.16944877748E+03  0.13031923193E+04  0.13374450860E+04  0.00000000000E+00 0.  1.
<mgrwt>
<rscale>  3 0.32569025E+03</rscale>
<asrwt>0</asrwt>
<pdfrwt beam="1">  1       21 0.18873147E-01 0.32569025E+03</pdfrwt>
<pdfrwt beam="2">  1        2 0.24177881E+00 0.32569025E+03</pdfrwt>
<totfact> 0.39326221E+03</totfact>
</mgrwt>
</event>
<event>
 4    0  0.1002184E-001  0.2391811E+03  0.7546771E-02  0.1120340E+00
         -1   -1    0    0    0  501 -0.00000000000E+00  0.00000000000E+00  0.30062250770E+03  0.30062250770E+03  0.00000000000E+00 0.  1.
         21   -1    0    0  501  502  0.00000000000E+00 -0.00000000000E+00 -0.39657394023E+03  0.39657394023E+03  0.00000000000E+00 0. -1.
         25    1    1    2    0    0 -0.17010712621E+03  0.11245517931E+03 -0.31657283772E+03  0.39676940825E+03  0.12500000000E+03 0.  0.
         -1    1    1    2    0  502  0.17010712621E+03 -0.11245517931E+03  0.22062140519E+03  0.30042703968E+03  0.00000000000E+00 0.  1.
<mgrwt>
<rscale>  3 0.23918111E+03</rscale>
<asrwt>0</asrwt>
<pdfrwt beam="1">  1       21 0.61011375E-01 0.23918111E+03</pdfrwt>
<pdfrwt beam="2">  1       -1 0.46249617E-01 0.23918111E+03</pdfrwt>
<totfact> 0.10759514E+03</totfact>
</mgrwt>
</event>
<event>
 4    0  0.1516405E-001  0.3339588E+03  0.7546771E-02  0.1069399E+00
         21   -1    0    0  501  502  0.00000000000E+00  0.00000000000E+00  0.19255164815E+03  0.19255164815E+03  0.00000000000E+00 0. -1.
          1   -1    0    0  502    0 -0.00000000000E+00 -0.00000000000E+00 -0.10341145717E+04  0.10341145717E+04  0.00000000000E+00 0. -1.
         25    1    1    2    0    0 -0.16066624227E+03 -0.26474486186E+03 -0.43215448324E+01  0.33398676476E+03  0.12500000000E+03 0.  0.
          1    1    1    2  501    0  0.16066624227E+03  0.26474486186E+03 -0.83724137868E+03  0.89267945505E+03  0.00000000000E+00 0. -1.
<mgrwt>
<rscale>  3 0.33395880E+03</rscale>
<asrwt>0</asrwt>
<pdfrwt beam="1">  1       21 0.29623330E-01 0.33395880E+03</pdfrwt>
<pdfrwt beam="2">  1        1 0.15909455E+00 0.33395880E+03</pdfrwt>
<totfact> 0.17532378E+03</totfact>
</mgrwt>
</event>
<event>
 4    0  0.1002184E-001  0.2373980E+03  0.7546771E-02  0.1121538E+00
         21   -1    0    0  501  502  0.00000000000E+00  0.00000000000E+00  0.59127772531E+02  0.59127772531E+02  0.00000000000E+00 0.  1.
         -3   -1    0    0    0  501 -0.00000000000E+00 -0.00000000000E+00 -0.19859284100E+04  0.19859284100E+04  0.00000000000E+00 0. -1.
         25    1    1    2    0    0 -0.55784189576E+02  0.19396111215E+03 -0.21157200126E+03  0.31799449767E+03  0.12500000000E+03 0.  0.
         -3    1    1    2    0  502  0.55784189576E+02 -0.19396111215E+03 -0.17152286363E+04  0.17270616849E+04  0.00000000000E+00 0. -1.
<mgrwt>
<rscale>  3 0.23739795E+03</rscale>
<asrwt>0</asrwt>
<pdfrwt beam="1">  1       21 0.90965809E-02 0.23739795E+03</pdfrwt>
<pdfrwt beam="2">  1       -3 0.30552743E+00 0.23739795E+03</pdfrwt>
<totfact> 0.19443958E+02</totfact>
</mgrwt>
</event>
<event>
 4    0  0.1153150E-001  0.3357771E+03  0.7546771E-02  0.1068609E+00
          2   -1    0    0  502    0 -0.00000000000E+00  0.00000000000E+00  0.28202075288E+04  0.28202075288E+04  0.00000000000E+00 0. -1.
         21   -1    0    0  501  502  0.00000000000E+00 -0.00000000000E+00 -0.80655842286E+02  0.80655842286E+02  0.00000000000E+00 0.  1.
         25    1    1    2    0    0 -0.29980004621E+03  0.85095045556E+02  0.32846146383E+03  0.46971605008E+03  0.12500000000E+03 0.  0.
          2    1    1    2  501    0  0.29980004621E+03 -0.85095045556E+02  0.24110902227E+04  0.24311473210E+04  0.00000000000E+00 0. -1.
<mgrwt>
<rscale>  3 0.33577706E+03</rscale>
<asrwt>0</asrwt>
<pdfrwt beam="1">  1       21 0.12408593E-01 0.33577706E+03</pdfrwt>
<pdfrwt beam="2">  1        2 0.43387801E+00 0.33577706E+03</pdfrwt>
<totfact> 0.17850176E+03</totfact>
</mgrwt>
</event>
<event>
 4    0  0.1158056E-001  0.3054232E+03  0.7546771E-02  0.1082561E+00
          1   -1    0    0  502    0 -0.00000000000E+00  0.00000000000E+00  0.20396499514E+03  0.20396499514E+03  0.00000000000E+00 0.  1.
         21   -1    0    0  501  502  0.00000000000E+00 -0.00000000000E+00 -0.43138633559E+03  0.43138633559E+03  0.00000000000E+00 0.  1.
         25    1    1    2    0    0 -0.22720379629E+03 -0.16135920510E+03 -0.63210555044E+02  0.31189570755E+03  0.12500000000E+03 0.  0.
          1    1    1    2  501    0  0.22720379629E+03  0.16135920510E+03 -0.16421078540E+03  0.32345562317E+03  0.00000000000E+00 0.  1.
<mgrwt>
<rscale>  3 0.30542324E+03</rscale>
<asrwt>0</asrwt>
<pdfrwt beam="1">  1       21 0.66367128E-01 0.30542324E+03</pdfrwt>
<pdfrwt beam="2">  1        1 0.31379230E-01 0.30542324E+03</pdfrwt>
<totfact> 0.31299950E+03</totfact>
</mgrwt>
</event>
<event>
 4    0  0.1002184E-001  0.2373049E+03  0.7546771E-02  0.1121601E+00
         -1   -1    0    0    0  501 -0.00000000000E+00  0.00000000000E+00  0.21019540341E+03  0.21019540341E+03  0.00000000000E+00 0.  1.
         21   -1    0    0  501  502  0.00000000000E+00 -0.00000000000E+00 -0.22943453627E+03  0.22943453627E+03  0.00000000000E+00 0.  1.
         25    1    1    2    0    0 -0.82036813048E+02 -0.18427849800E+03 -0.16837834170E+02  0.23790148419E+03  0.12500000000E+03 0.  0.
         -1    1    1    2    0  502  0.82036813048E+02  0.18427849800E+03 -0.24012986820E+01  0.20172845549E+03  0.00000000000E+00 0.  1.
<mgrwt>
<rscale>  3 0.23730487E+03</rscale>
<asrwt>0</asrwt>
<pdfrwt beam="1">  1       21 0.35297621E-01 0.23730487E+03</pdfrwt>
<pdfrwt beam="2">  1       -1 0.32337754E-01 0.23730487E+03</pdfrwt>
<totfact> 0.63112588E+03</totfact>
</mgrwt>
</event>
<event>
 4    0  0.1002184E-001  0.3861327E+03  0.7546771E-02  0.1048690E+00
          2   -1    0    0  502    0 -0.00000000000E+00  0.00000000000E+00  0.37031085913E+04  0.37031085913E+04  0.00000000000E+00 0. -1.
         21   -1    0    0  501  502  0.00000000000E+00 -0.00000000000E+00 -0.77036461827E+02  0.77036461827E+02  0.00000000000E+00 0. -1.
         25    1    1    2    0    0  0.23735789012E+03 -0.27773131416E+03  0.49481389277E+03  0.62764579131E+03  0.12500000000E+03 0.  0.
          2    1    1    2  501    0 -0.23735789012E+03  0.27773131416E+03  0.31312582367E+04  0.31524992618E+04  0.00000000000E+00 0. -1.
<mgrwt>
<rscale>  3 0.38613269E+03</rscale>
<asrwt>0</asrwt>
<pdfrwt beam="1">  1       21 0.11851766E-01 0.38613269E+03</pdfrwt>
<pdfrwt beam="2">  1        2 0.56970888E+00 0.38613269E+03</pdfrwt>
<totfact> 0.52213457E+02</totfact>
</mgrwt>
</event>
<event>
 4    0  0.1471077E-001  0.2368845E+03  0.7546771E-02  0.1121886E+00
         21   -1    0    0  501  502  0.00000000000E+00  0.00000000000E+00  0.66730470840E+02  0.66730470840E+02  0.00000000000E+00 0.  1.
          2   -1    0    0  502    0 -0.00000000000E+00 -0.00000000000E+00 -0.74021679726E+03  0.74021679726E+03  0.00000000000E+00 0.  1.
         25    1    1    2    0    0  0.13565971080E+02  0.20076162753E+03 -0.29539475927E+03  0.37864538880E+03  0.12500000000E+03 0.  0.
          2    1    1    2  501    0 -0.13565971080E+02 -0.20076162753E+03 -0.37809156715E+03  0.42830187930E+03  0.00000000000E+00 0.  1.
<mgrwt>
<rscale>  3 0.23688450E+03</rscale>
<asrwt>0</asrwt>
<pdfrwt beam="1">  1       21 0.10266227E-01 0.23688450E+03</pdfrwt>
<pdfrwt beam="2">  1        2 0.11387950E+00 0.23688450E+03</pdfrwt>
<totfact> 0.38088283E+04</totfact>
</mgrwt>
</event>
<event>
 4    0  0.1002184E-001  0.3737993E+03  0.7546771E-02  0.1053250E+00
          1   -1    0    0  502    0 -0.00000000000E+00  0.00000000000E+00  0.23014144231E+04  0.23014144231E+04  0.00000000000E+00 0. -1.
         21   -1    0    0  501  502  0.00000000000E+00 -0.00000000000E+00 -0.92111556781E+02  0.92111556781E+02  0.00000000000E+00 0.  1.
         25    1    1    2    0    0 -0.12253021571E+03 -0.33028366486E+03  0.38915047957E+03  0.53959619049E+03  0.12500000000E+03 0.  0.
          1    1    1    2  501    0  0.12253021571E+03  0.33028366486E+03  0.18201523867E+04  0.18539297894E+04  0.00000000000E+00 0. -1.
<mgrwt>
<rscale>  3 0.37379935E+03</rscale>
<asrwt>0</asrwt>
<pdfrwt beam="1">  1       21 0.14171011E-01 0.37379935E+03</pdfrwt>
<pdfrwt beam="2">  1        1 0.35406371E+00 0.37379935E+03</pdfrwt>
<totfact> 0.98405964E+02</totfact>
</mgrwt>
</event>
<event>
 4    0  0.1067141E-001  0.2449647E+03  0.7546771E-02  0.1116529E+00
         21   -1    0    0  501  502  0.00000000000E+00  0.00000000000E+00  0.71562971316E+03  0.71562971316E+03  0.00000000000E+00 0. -1.
         -2   -1    0    0    0  501 -0.00000000000E+00 -0.00000000000E+00 -0.21780332918E+04  0.21780332918E+04  0.00000000000E+00 0.  1.
         25    1    1    2    0    0  0.19925172962E+03 -0.68421134297E+02  0.68937045187E+03  0.73160052165E+03  0.12500000000E+03 0.  0.
         -2    1    1    2    0  502 -0.19925172962E+03  0.68421134297E+02 -0.21517740305E+04  0.21620624833E+04  0.00000000000E+00 0.  1.
<mgrwt>
<rscale>  3 0.24496470E+03</rscale>
<asrwt>0</asrwt>
<pdfrwt beam="1">  1       21 0.11009688E+00 0.24496470E+03</pdfrwt>
<pdfrwt beam="2">  1       -2 0.33508204E+00 0.24496470E+03</pdfrwt>
<totfact> 0.11836137E+00</totfact>
</mgrwt>
</event>
<event>
 4    0  0.1022553E-001  0.3524603E+03  0.7546771E-02  0.1061610E+00
          2   -1    0    0  502    0 -0.00000000000E+00  0.00000000000E+00  0.32983259516E+03  0.32983259516E+03  0.00000000000E+00 0.  1.
         21   -1    0    0  501  502  0.00000000000E+00 -0.00000000000E+00 -0.12870683384E+04  0.12870683384E+04  0.00000000000E+00 0. -1.
         25    1    1    2    0    0  0.27281171497E+03 -0.18487034812E+03 -0.11717978207E+04  0.12236577994E+04  0.12500000000E+03 0.  0.
          2    1    1    2  501    0 -0.27281171497E+03  0.18487034812E+03  0.21456207749E+03  0.39324313413E+03  0.00000000000E+00 0.  1.
<mgrwt>
<rscale>  3 0.35246032E+03</rscale>
<asrwt>0</asrwt>
<pdfrwt beam="1">  1       21 0.19801051E+00 0.35246032E+03</pdfrwt>
<pdfrwt beam="2">  1        2 0.50743476E-01 0.35246032E+03</pdfrwt>
<totfact> 0.15275028E+02</totfact>
</mgrwt>
</event>
<event>
 4    0  0.1002184E-001  0.2464093E+03  0.7546771E-02  0.1115595E+00
         21   -1    0    0  501  502  0.00000000000E+00  0.00000000000E+00  0.42444672184E+02  0.42444672184E+02  0.00000000000E+00 0. -1.
          1   -1    0    0  502    0 -0.00000000000E+00 -0.00000000000E+00 -0.12429582812E+04  0.12429582812E+04  0.00000000000E+00 0.  1.
         25    1    1    2    0    0  0.20749056866E+03 -0.45168718674E+02 -0.67794327791E+03  0.72133531544E+03  0.12500000000E+03 0.  0.
          1    1    1    2  501    0 -0.20749056866E+03  0.45168718674E+02 -0.52257033114E+03  0.56406763799E+03  0.00000000000E+00 0.  1.
<mgrwt>
<rscale>  3 0.24640931E+03</rscale>
<asrwt>0</asrwt>
<pdfrwt beam="1">  1       21 0.65299500E-02 0.24640931E+03</pdfrwt>
<pdfrwt beam="2">  1        1 0.19122434E+00 0.24640931E+03</pdfrwt>
<totfact> 0.20350364E+04</totfact>
</mgrwt>
</event>
<event>
 4    0  0.1262456E-001  0.2564664E+03  0.7546771E-02  0.1109285E+00
         -2   -1    0    0    0  501 -0.00000000000E+00  0.00000000000E+00  0.64209733434E+02  0.64209733434E+02  0.00000000000E+00 0. -1.
         21   -1    0    0  501  502  0.00000000000E+00 -0.00000000000E+00 -0.90272363924E+03  0.90272363924E+03  0.00000000000E+00 0. -1.
         25    1    1    2    0    0  0.46789158877E+02  0.21899952376E+03 -0.48016244098E+03  0.54436291802E+03  0.12500000000E+03 0.  0.
         -2    1    1    2    0  502 -0.46789158877E+02 -0.21899952376E+03 -0.35835146483E+03  0.42257045465E+03  0.00000000000E+00 0. -1.
<mgrwt>
<rscale>  3 0.25646640E+03</rscale>
<asrwt>0</asrwt>
<pdfrwt beam="1">  1       21 0.13888056E+00 0.25646640E+03</pdfrwt>
<pdfrwt beam="2">  1       -2 0.98784208E-02 0.25646640E+03</pdfrwt>
<totfact> 0.18971587E+03</totfact>
</mgrwt>
</event>
<event>
 4    0  0.1037298E-001  0.2397872E+03  0.7546771E-02  0.1119935E+00
         21   -1    0    0  501  502  0.00000000000E+00  0.00000000000E+00  0.50646031197E+02  0.50646031197E+02  0.00000000000E+00 0.  1.
          1   -1    0    0  502    0 -0.00000000000E+00 -0.00000000000E+00 -0.16128185720E+04  0.16128185720E+04  0.00000000000E+00 0. -1.
         25    1    1    2    0    0 -0.69047701782E+02 -0.19262745180E+03 -0.29635624308E+03  0.38121508774E+03  0.12500000000E+03 0.  0.
          1    1    1    2  501    0  0.69047701782E+02  0.19262745180E+03 -0.12658162977E+04  0.12822495155E+04  0.00000000000E+00 0. -1.
<mgrwt>
<rscale>  3 0.23978724E+03</rscale>
<asrwt>0</asrwt>
<pdfrwt beam="1">  1       21 0.77916985E-02 0.23978724E+03</pdfrwt>
<pdfrwt beam="2">  1        1 0.24812589E+00 0.23978724E+03</pdfrwt>
<totfact> 0.84792063E+03</totfact>
</mgrwt>
</event>
<event>
 4    0  0.1002184E-001  0.4456597E+03  0.7546771E-02  0.1029024E+00
         -3   -1    0    0    0  501 -0.00000000000E+00  0.00000000000E+00  0.22384722129E+03  0.22384722129E+03  0.00000000000E+00 0.  1.
         21   -1    0    0  501  502  0.00000000000E+00 -0.00000000000E+00 -0.18842272590E+04  0.18842272590E+04  0.00000000000E+00 0.  1.
         25    1    1    2    0    0  0.19407176150E+03  0.38121345440E+03 -0.16179489477E+04  0.16782047980E+04  0.12500000000E+03 0.  0.
         -3    1    1    2    0  502 -0.19407176150E+03 -0.38121345440E+03 -0.42431090019E+02  0.42986968237E+03  0.00000000000E+00 0.  1.
<mgrwt>
<rscale>  3 0.44565968E+03</rscale>
<asrwt>0</asrwt>
<pdfrwt beam="1">  1       21 0.28988113E+00 0.44565968E+03</pdfrwt>
<pdfrwt beam="2">  1       -3 0.34438032E-01 0.44565968E+03</pdfrwt>
<totfact> 0.13590474E+01</totfact>
</mgrwt>
</event>
<event>
 4    0  0.1553268E-001  0.3296443E+03  0.7546771E-02  0.1071294E+00
          2   -1    0    0  502    0 -0.00000000000E+00  0.00000000000E+00  0.13418235759E+04  0.13418235759E+04  0.00000000000E+00 0.  1.
         21   -1    0    0  501  502  0.00000000000E+00 -0.00000000000E+00 -0.13904084136E+03  0.13904084136E+03  0.00000000000E+00 0.  1.
         25    1    1    2    0    0  0.45946392421E+02  0.30154488782E+03  0.11186827209E+03  0.34810903557E+03  0.12500000000E+03 0.  0.
          2    1    1    2  501    0 -0.45946392421E+02 -0.30154488782E+03  0.10909144625E+04  0.11327553817E+04  0.00000000000E+00 0.  1.
<mgrwt>
<rscale>  3 0.32964434E+03</rscale>
<asrwt>0</asrwt>
<pdfrwt beam="1">  1       21 0.21390900E-01 0.32964434E+03</pdfrwt>
<pdfrwt beam="2">  1        2 0.20643439E+00 0.32964434E+03</pdfrwt>
<totfact> 0.41335671E+03</totfact>
</mgrwt>
</event>
<event>
 4    0  0.1018383E-001  0.2406867E+03  0.7546771E-02  0.1119336E+00
         21   -1    0    0  501  502  0.00000000000E+00  0.00000000000E+00  0.30841132599E+03  0.30841132599E+03  0.00000000000E+00 0. -1.
          2   -1    0    0  502    0 -0.00000000000E+00 -0.00000000000E+00 -0.27552339631E+04  0.27552339631E+04  0.00000000000E+00 0.  1.
         25    1    1    2    0    0 -0.38363814736E+02  0.20207251991E+03  0.25694446851E+03  0.35206610953E+03  0.12500000000E+03 0.  0.
          2    1    1    2  501    0  0.38363814736E+02 -0.20207251991E+03 -0.27037671056E+04  0.27115791796E+04  0.00000000000E+00 0.  1.
<mgrwt>
<rscale>  3 0.24068670E+03</rscale>
<asrwt>0</asrwt>
<pdfrwt beam="1">  1       21 0.47447898E-01 0.24068670E+03</pdfrwt>
<pdfrwt beam="2">  1        2 0.42388213E+00 0.24068670E+03</pdfrwt>
<totfact> 0.15428657E+02</totfact>
</mgrwt>
</event>
<event>
 4    0  0.1481365E-001  0.4031231E+03  0.7546771E-02  0.1042704E+00
          2   -1    0    0  502    0 -0.00000000000E+00  0.00000000000E+00  0.12276123968E+04  0.12276123968E+04  0.00000000000E+00 0.  1.
         21   -1    0    0  501  502  0.00000000000E+00 -0.00000000000E+00 -0.12868950652E+03  0.12868950652E+03  0.00000000000E+00 0.  1.
         25    1    1    2    0    0  0.54653779191E+02  0.37933656345E+03  0.66226512209E+03  0.77530855527E+03  0.12500000000E+03 0.  0.
          2    1    1    2  501    0 -0.54653779191E+02 -0.37933656345E+03  0.43665776821E+03  0.58099334806E+03  0.00000000000E+00 0.  1.
<mgrwt>
<rscale>  3 0.40312314E+03</rscale>
<asrwt>0</asrwt>
<pdfrwt beam="1">  1       21 0.19798387E-01 0.40312314E+03</pdfrwt>
<pdfrwt beam="2">  1        2 0.18886344E+00 0.40312314E+03</pdfrwt>
<totfact> 0.54581215E+03</totfact>
</mgrwt>
</event>
<event>
 4    0  0.1002184E-001  0.2817001E+03  0.7546771E-02  0.1094764E+00
         21   -1    0    0  501  502  0.00000000000E+00  0.00000000000E+00  0.11879430200E+04  0.11879430200E+04  0.00000000000E+00 0.  1.
          1   -1    0    0  502    0 -0.00000000000E+00 -0.00000000000E+00 -0.13260882686E+03  0.13260882686E+03  0.00000000000E+00 0. -1.
         25    1    1    2    0    0 -0.10677643413E+03 -0.22875472571E+03  0.10288506569E+04  0.10667186160E+04  0.12500000000E+03 0.  0.
          1    1    1    2  501    0  0.10677643413E+03  0.22875472571E+03  0.26483536234E+02  0.25383323090E+03  0.00000000000E+00 0. -1.
<mgrwt>
<rscale>  3 0.28170007E+03</rscale>
<asrwt>0</asrwt>
<pdfrwt beam="1">  1       21 0.18276046E+00 0.28170007E+03</pdfrwt>
<pdfrwt beam="2">  1        1 0.20401359E-01 0.28170007E+03</pdfrwt>
<totfact> 0.44313002E+02</totfact>
</mgrwt>
</event>
<event>
 4    0  0.1002184E-001  0.2481153E+03  0.7546771E-02  0.1114502E+00
         21   -1    0    0  501  502  0.00000000000E+00  0.00000000000E+00  0.75800624423E+03  0.75800624423E+03  0.00000000000E+00 0.  1.
         -4   -1    0    0    0  501 -0.00000000000E+00 -0.00000000000E+00 -0.19939705213E+03  0.19939705213E+03  0.00000000000E+00 0. -1.
         25    1    1    2    0    0  0.82476990864E+02 -0.19782255139E+03  0.67099407080E+03  0.71539797240E+03  0.12500000000E+03 0.  0.
         -4    1    1    2    0  502 -0.82476990864E+02  0.19782255139E+03 -0.11238487870E+03  0.24200532395E+03  0.00000000000E+00 0. -1.
<mgrwt>
<rscale>  3 0.24811533E+03</rscale>
<asrwt>0</asrwt>
<pdfrwt beam="1">  1       21 0.11661634E+00 0.24811533E+03</pdfrwt>
<pdfrwt beam="2">  1       -4 0.30676470E-01 0.24811533E+03</pdfrwt>
<totfact> 0.23997126E+02</totfact>
</mgrwt>
</event>
<event>
 4    0  0.1002184E-001  0.2769577E+03  0.7546771E-02  0.1097362E+00
         21   -1    0    0  501  502  0.00000000000E+00  0.00000000000E+00  0.16095019287E+03  0.16095019287E+03  0.00000000000E+00 0. -1.
         -2   -1    0    0    0  501 -0.00000000000E+00 -0.00000000000E+00 -0.46278658646E+03  0.46278658646E+03  0.00000000000E+00 0.  1.
         25    1    1    2    0    0  0.32453713001E+02 -0.24500471857E+03 -0.71826344764E+02  0.28611986895E+03  0.12500000000E+03 0.  0.
         -2    1    1    2    0  502 -0.32453713001E+02  0.24500471857E+03 -0.23001004883E+03  0.33761691038E+03  0.00000000000E+00 0.  1.
<mgrwt>
<rscale>  3 0.27695768E+03</rscale>
<asrwt>0</asrwt>
<pdfrwt beam="1">  1       21 0.24761569E-01 0.27695768E+03</pdfrwt>
<pdfrwt beam="2">  1       -2 0.71197935E-01 0.27695768E+03</pdfrwt>
<totfact> 0.22757058E+03</totfact>
</mgrwt>
</event>
<event>
 4    0  0.1504082E-001  0.2562498E+03  0.7546771E-02  0.1109418E+00
          1   -1    0    0  502    0 -0.00000000000E+00  0.00000000000E+00  0.11710407375E+04  0.11710407375E+04  0.00000000000E+00 0. -1.
         21   -1    0    0  501  502  0.00000000000E+00 -0.00000000000E+00 -0.16992693278E+03  0.16992693278E+03  0.00000000000E+00 0.  1.
         25    1    1    2    0    0  0.21947612145E+03  0.43234182798E+02 -0.54442213884E+02  0.26196930565E+03  0.12500000000E+03 0.  0.
          1    1    1    2  501    0 -0.21947612145E+03 -0.43234182798E+02  0.10555560186E+04  0.10789983646E+04  0.00000000000E+00 0. -1.
<mgrwt>
<rscale>  3 0.25624980E+03</rscale>
<asrwt>0</asrwt>
<pdfrwt beam="1">  1       21 0.26142606E-01 0.25624980E+03</pdfrwt>
<pdfrwt beam="2">  1        1 0.18016011E+00 0.25624980E+03</pdfrwt>
<totfact> 0.18290799E+03</totfact>
</mgrwt>
</event>
<event>
 4    0  0.1517312E-001  0.3043359E+03  0.7546771E-02  0.1083093E+00
          1   -1    0    0  502    0 -0.00000000000E+00  0.00000000000E+00  0.14821872575E+04  0.14821872575E+04  0.00000000000E+00 0.  1.
         21   -1    0    0  501  502  0.00000000000E+00 -0.00000000000E+00 -0.13151332747E+03  0.13151332747E+03  0.00000000000E+00 0.  1.
         25    1    1    2    0    0 -0.83719055105E+01 -0.27735397962E+03  0.82213577931E+02  0.31524497016E+03  0.12500000000E+03 0.  0.
          1    1    1    2  501    0  0.83719055105E+01  0.27735397962E+03  0.12684603521E+04  0.12984556148E+04  0.00000000000E+00 0.  1.
<mgrwt>
<rscale>  3 0.30433587E+03</rscale>
<asrwt>0</asrwt>
<pdfrwt beam="1">  1       21 0.20232821E-01 0.30433587E+03</pdfrwt>
<pdfrwt beam="2">  1        1 0.22802880E+00 0.30433587E+03</pdfrwt>
<totfact> 0.17955460E+03</totfact>
</mgrwt>
</event>
<event>
 4    0  0.1198934E-001  0.5127234E+03  0.7546771E-02  0.1010510E+00
         21   -1    0    0  501  502  0.00000000000E+00  0.00000000000E+00  0.33845040925E+03  0.33845040925E+03  0.00000000000E+00 0. -1.
          2   -1    0    0  502    0 -0.00000000000E+00 -0.00000000000E+00 -0.16871195448E+04  0.16871195448E+04  0.00000000000E+00 0. -1.
         25    1    1    2    0    0  0.41016348091E+03 -0.28111596946E+03  0.74430476701E+02  0.51809764062E+03  0.12500000000E+03 0.  0.
          2    1    1    2  501    0 -0.41016348091E+03  0.28111596946E+03 -0.14230996123E+04  0.15074723135E+04  0.00000000000E+00 0. -1.
<mgrwt>
<rscale>  3 0.51272338E+03</rscale>
<asrwt>0</asrwt>
<pdfrwt beam="1">  1       21 0.52069295E-01 0.51272338E+03</pdfrwt>
<pdfrwt beam="2">  1        2 0.25955685E+00 0.51272338E+03</pdfrwt>
<totfact> 0.42414388E+02</totfact>
</mgrwt>
</event>
<event>
 4    0  0.1303796E-001  0.4147369E+03  0.7546771E-02  0.1038793E+00
         21   -1    0    0  501  502  0.00000000000E+00  0.00000000000E+00  0.10828990116E+04  0.10828990116E+04  0.00000000000E+00 0.  1.
          2   -1    0    0  502    0 -0.00000000000E+00 -0.00000000000E+00 -0.57578457323E+03  0.57578457323E+03  0.00000000000E+00 0. -1.
         25    1    1    2    0    0  0.37630978132E+03  0.12154282049E+03  0.96698166265E+03  0.10521693042E+04  0.12500000000E+03 0.  0.
          2    1    1    2  501    0 -0.37630978132E+03 -0.12154282049E+03 -0.45986722425E+03  0.60651428068E+03  0.00000000000E+00 0. -1.
<mgrwt>
<rscale>  3 0.41473692E+03</rscale>
<asrwt>0</asrwt>
<pdfrwt beam="1">  1       21 0.16659985E+00 0.41473692E+03</pdfrwt>
<pdfrwt beam="2">  1        2 0.88582242E-01 0.41473692E+03</pdfrwt>
<totfact> 0.13172705E+02</totfact>
</mgrwt>
</event>
<event>
 4    0  0.1327341E-001  0.2386659E+03  0.7546771E-02  0.1120685E+00
          2   -1    0    0  502    0 -0.00000000000E+00  0.00000000000E+00  0.13618933307E+03  0.13618933307E+03  0.00000000000E+00 0. -1.
         21   -1    0    0  501  502  0.00000000000E+00 -0.00000000000E+00 -0.36288780094E+03  0.36288780094E+03  0.00000000000E+00 0. -1.
         25    1    1    2    0    0 -0.20284502980E+03 -0.13794991960E+02 -0.14937128915E+03  0.28155495012E+03  0.12500000000E+03 0.  0.
          2    1    1    2  501    0  0.20284502980E+03  0.13794991960E+02 -0.77327178720E+02  0.21752218389E+03  0.00000000000E+00 0. -1.
<mgrwt>
<rscale>  3 0.23866589E+03</rscale>
<asrwt>0</asrwt>
<pdfrwt beam="1">  1       21 0.55828892E-01 0.23866589E+03</pdfrwt>
<pdfrwt beam="2">  1        2 0.20952205E-01 0.23866589E+03</pdfrwt>
<totfact> 0.96445441E+03</totfact>
</mgrwt>
</event>
<event>
 4    0  0.1002184E-001  0.2483390E+03  0.7546771E-02  0.1114359E+00
         -2   -1    0    0    0  501 -0.00000000000E+00  0.00000000000E+00  0.12054915358E+03  0.12054915358E+03  0.00000000000E+00 0.  1.
         21   -1    0    0  501  502  0.00000000000E+00 -0.00000000000E+00 -0.19304259026E+04  0.19304259026E+04  0.00000000000E+00 0. -1.
         25    1    1    2    0    0 -0.17942441758E+03 -0.11770360221E+03 -0.18193104177E+04  0.18361815421E+04  0.12500000000E+03 0.  0.
         -2    1    1    2    0  502  0.17942441758E+03  0.11770360221E+03  0.94336686599E+01  0.21479351411E+03  0.00000000000E+00 0.  1.
<mgrwt>
<rscale>  3 0.24833900E+03</rscale>
<asrwt>0</asrwt>
<pdfrwt beam="1">  1       21 0.29698857E+00 0.24833900E+03</pdfrwt>
<pdfrwt beam="2">  1       -2 0.18546026E-01 0.24833900E+03</pdfrwt>
<totfact> 0.63939964E+01</totfact>
</mgrwt>
</event>
<event>
 4    0  0.1442286E-001  0.2459519E+03  0.7546771E-02  0.1115890E+00
         21   -1    0    0  501  502  0.00000000000E+00  0.00000000000E+00  0.41817713914E+02  0.41817713914E+02  0.00000000000E+00 0.  1.
          1   -1    0    0  502    0 -0.00000000000E+00 -0.00000000000E+00 -0.13938014360E+04  0.13938014360E+04  0.00000000000E+00 0.  1.
         25    1    1    2    0    0 -0.19690337227E+03 -0.78079306531E+02 -0.49354662216E+03  0.55143502280E+03  0.12500000000E+03 0.  0.
          1    1    1    2  501    0  0.19690337227E+03  0.78079306531E+02 -0.85843709990E+03  0.88418412709E+03  0.00000000000E+00 0.  1.
<mgrwt>
<rscale>  3 0.24595186E+03</rscale>
<asrwt>0</asrwt>
<pdfrwt beam="1">  1       21 0.64334934E-02 0.24595186E+03</pdfrwt>
<pdfrwt beam="2">  1        1 0.21443102E+00 0.24595186E+03</pdfrwt>
<totfact> 0.16485507E+04</totfact>
</mgrwt>
</event>
<event>
 4    0  0.1298987E-001  0.3481175E+03  0.7546771E-02  0.1063390E+00
         21   -1    0    0  501  502  0.00000000000E+00  0.00000000000E+00  0.21925294753E+03  0.21925294753E+03  0.00000000000E+00 0. -1.
          2   -1    0    0  502    0 -0.00000000000E+00 -0.00000000000E+00 -0.59443240748E+03  0.59443240748E+03  0.00000000000E+00 0. -1.
         25    1    1    2    0    0 -0.30844398256E+03 -0.10209367396E+03 -0.45953515882E+02  0.35113748627E+03  0.12500000000E+03 0.  0.
          2    1    1    2  501    0  0.30844398256E+03  0.10209367396E+03 -0.32922594407E+03  0.46254786875E+03  0.00000000000E+00 0. -1.
<mgrwt>
<rscale>  3 0.34811752E+03</rscale>
<asrwt>0</asrwt>
<pdfrwt beam="1">  1       21 0.33731223E-01 0.34811752E+03</pdfrwt>
<pdfrwt beam="2">  1        2 0.91451138E-01 0.34811752E+03</pdfrwt>
<totfact> 0.52139701E+03</totfact>
</mgrwt>
</event>
<event>
 4    0  0.1385255E-001  0.2984911E+03  0.7546771E-02  0.1085997E+00
         21   -1    0    0  501  502  0.00000000000E+00  0.00000000000E+00  0.14989861605E+03  0.14989861605E+03  0.00000000000E+00 0. -1.
          2   -1    0    0  502    0 -0.00000000000E+00 -0.00000000000E+00 -0.60903273525E+03  0.60903273525E+03  0.00000000000E+00 0. -1.
         25    1    1    2    0    0  0.25784762976E+03 -0.83585655181E+02 -0.11270087108E+03  0.31905869095E+03  0.12500000000E+03 0.  0.
          2    1    1    2  501    0 -0.25784762976E+03  0.83585655181E+02 -0.34643324812E+03  0.43987266036E+03  0.00000000000E+00 0. -1.
<mgrwt>
<rscale>  3 0.29849114E+03</rscale>
<asrwt>0</asrwt>
<pdfrwt beam="1">  1       21 0.23061326E-01 0.29849114E+03</pdfrwt>
<pdfrwt beam="2">  1        2 0.93697344E-01 0.29849114E+03</pdfrwt>
<totfact> 0.10763434E+04</totfact>
</mgrwt>
</event>
<event>
 4    0  0.1586057E-001  0.2682366E+03  0.7546771E-02  0.1102293E+00
          3   -1    0    0  502    0 -0.00000000000E+00  0.00000000000E+00  0.20529220514E+04  0.20529220514E+04  0.00000000000E+00 0.  1.
         21   -1    0    0  501  502  0.00000000000E+00 -0.00000000000E+00 -0.35864358453E+02  0.35864358453E+02  0.00000000000E+00 0.  1.
         25    1    1    2    0    0  0.54904022589E+02  0.23089263336E+03  0.68304065370E+03  0.73382245431E+03  0.12500000000E+03 0.  0.
          3    1    1    2  501    0 -0.54904022589E+02 -0.23089263336E+03  0.13340170393E+04  0.13549639556E+04  0.00000000000E+00 0.  1.
<mgrwt>
<rscale>  3 0.26823657E+03</rscale>
<asrwt>0</asrwt>
<pdfrwt beam="1">  1       21 0.55175952E-02 0.26823657E+03</pdfrwt>
<pdfrwt beam="2">  1        3 0.31583407E+00 0.26823657E+03</pdfrwt>
<totfact> 0.41312935E+02</totfact>
</mgrwt>
</event>
<event>
 4    0  0.1002184E-001  0.2696534E+03  0.7546771E-02  0.1101478E+00
          1   -1    0    0  502    0 -0.00000000000E+00  0.00000000000E+00  0.20299862752E+04  0.20299862752E+04  0.00000000000E+00 0. -1.
         21   -1    0    0  501  502  0.00000000000E+00 -0.00000000000E+00 -0.41403144111E+02  0.41403144111E+02  0.00000000000E+00 0.  1.
         25    1    1    2    0    0  0.23650788322E+03 -0.33941095746E+02  0.54382816455E+03  0.60701074897E+03  0.12500000000E+03 0.  0.
          1    1    1    2  501    0 -0.23650788322E+03  0.33941095746E+02  0.14447549665E+04  0.14643786703E+04  0.00000000000E+00 0. -1.
<mgrwt>
<rscale>  3 0.26965344E+03</rscale>
<asrwt>0</asrwt>
<pdfrwt beam="1">  1       21 0.63697161E-02 0.26965344E+03</pdfrwt>
<pdfrwt beam="2">  1        1 0.31230550E+00 0.26965344E+03</pdfrwt>
<totfact> 0.63842045E+03</totfact>
</mgrwt>
</event>
<event>
 4    0  0.1167823E-001  0.3330684E+03  0.7546771E-02  0.1069787E+00
         21   -1    0    0  501  502  0.00000000000E+00  0.00000000000E+00  0.22236238960E+03  0.22236238960E+03  0.00000000000E+00 0.  1.
          2   -1    0    0  502    0 -0.00000000000E+00 -0.00000000000E+00 -0.23458618107E+04  0.23458618107E+04  0.00000000000E+00 0.  1.
         25    1    1    2    0    0  0.19794153879E+03  0.23691498646E+03  0.80540318383E+02  0.34266792448E+03  0.12500000000E+03 0.  0.
          2    1    1    2  501    0 -0.19794153879E+03 -0.23691498646E+03 -0.22040397395E+04  0.22255562758E+04  0.00000000000E+00 0.  1.
<mgrwt>
<rscale>  3 0.33306841E+03</rscale>
<asrwt>0</asrwt>
<pdfrwt beam="1">  1       21 0.34209598E-01 0.33306841E+03</pdfrwt>
<pdfrwt beam="2">  1        2 0.36090182E+00 0.33306841E+03</pdfrwt>
<totfact> 0.47854629E+02</totfact>
</mgrwt>
</event>
<event>
 4    0  0.1252435E-001  0.4746042E+03  0.7546771E-02  0.1020629E+00
          2   -1    0    0  502    0 -0.00000000000E+00  0.00000000000E+00  0.59813384098E+03  0.59813384098E+03  0.00000000000E+00 0. -1.
         21   -1    0    0  501  502  0.00000000000E+00 -0.00000000000E+00 -0.37851691035E+03  0.37851691035E+03  0.00000000000E+00 0. -1.
         25    1    1    2    0    0  0.45755741219E+03  0.16290190518E+02  0.14154706937E+02  0.47481523931E+03  0.12500000000E+03 0.  0.
          2    1    1    2  501    0 -0.45755741219E+03 -0.16290190518E+02  0.20546222369E+03  0.50183551202E+03  0.00000000000E+00 0. -1.
<mgrwt>
<rscale>  3 0.47460421E+03</rscale>
<asrwt>0</asrwt>
<pdfrwt beam="1">  1       21 0.58233371E-01 0.47460421E+03</pdfrwt>
<pdfrwt beam="2">  1        2 0.92020591E-01 0.47460421E+03</pdfrwt>
<totfact> 0.16144399E+03</totfact>
</mgrwt>
</event>
<event>
 4    0  0.1502100E-001  0.2833424E+03  0.7546771E-02  0.1093877E+00
         21   -1    0    0  501  502  0.00000000000E+00  0.00000000000E+00  0.57581322919E+03  0.57581322919E+03  0.00000000000E+00 0.  1.
         -4   -1    0    0    0  501 -0.00000000000E+00 -0.00000000000E+00 -0.21587470901E+03  0.21587470901E+03  0.00000000000E+00 0.  1.
         25    1    1    2    0    0  0.21171900658E+02  0.25339623060E+03  0.44154210582E+03  0.52463542605E+03  0.12500000000E+03 0.  0.
         -4    1    1    2    0  502 -0.21171900658E+02 -0.25339623060E+03 -0.81603585636E+02  0.26705251215E+03  0.00000000000E+00 0.  1.
<mgrwt>
<rscale>  3 0.28334237E+03</rscale>
<asrwt>0</asrwt>
<pdfrwt beam="1">  1       21 0.88586650E-01 0.28334237E+03</pdfrwt>
<pdfrwt beam="2">  1       -4 0.33211494E-01 0.28334237E+03</pdfrwt>
<totfact> 0.39620757E+02</totfact>
</mgrwt>
</event>
<event>
 4    0  0.1464532E-001  0.2702134E+03  0.7546771E-02  0.1101158E+00
         21   -1    0    0  501  502  0.00000000000E+00  0.00000000000E+00  0.46568018697E+02  0.46568018697E+02  0.00000000000E+00 0. -1.
          2   -1    0    0  502    0 -0.00000000000E+00 -0.00000000000E+00 -0.20638474135E+04  0.20638474135E+04  0.00000000000E+00 0. -1.
         25    1    1    2    0    0 -0.15921258597E+03  0.17900170571E+03 -0.44971514930E+03  0.52465128771E+03  0.12500000000E+03 0.  0.
          2    1    1    2  501    0  0.15921258597E+03 -0.17900170571E+03 -0.15675642455E+04  0.15857641445E+04  0.00000000000E+00 0. -1.
<mgrwt>
<rscale>  3 0.27021336E+03</rscale>
<asrwt>0</asrwt>
<pdfrwt beam="1">  1       21 0.71643095E-02 0.27021336E+03</pdfrwt>
<pdfrwt beam="2">  1        2 0.31751504E+00 0.27021336E+03</pdfrwt>
<totfact> 0.12619619E+04</totfact>
</mgrwt>
</event>
<event>
 4    0  0.1004175E-001  0.2489945E+03  0.7546771E-02  0.1113942E+00
         21   -1    0    0  501  502  0.00000000000E+00  0.00000000000E+00  0.56241372840E+02  0.56241372840E+02  0.00000000000E+00 0.  1.
          2   -1    0    0  502    0 -0.00000000000E+00 -0.00000000000E+00 -0.13566823706E+04  0.13566823706E+04  0.00000000000E+00 0. -1.
         25    1    1    2    0    0  0.18269803925E+03 -0.11399426611E+03 -0.30145084279E+03  0.39098705461E+03  0.12500000000E+03 0.  0.
          2    1    1    2  501    0 -0.18269803925E+03  0.11399426611E+03 -0.99899015492E+03  0.10219366888E+04  0.00000000000E+00 0. -1.
<mgrwt>
<rscale>  3 0.24899451E+03</rscale>
<asrwt>0</asrwt>
<pdfrwt beam="1">  1       21 0.86525194E-02 0.24899451E+03</pdfrwt>
<pdfrwt beam="2">  1        2 0.20872035E+00 0.24899451E+03</pdfrwt>
<totfact> 0.21611152E+04</totfact>
</mgrwt>
</event>
<event>
 4    0  0.1287916E-001  0.3170137E+03  0.7546771E-02  0.1077032E+00
         21   -1    0    0  501  502  0.00000000000E+00  0.00000000000E+00  0.45604631261E+02  0.45604631261E+02  0.00000000000E+00 0.  1.
          2   -1    0    0  502    0 -0.00000000000E+00 -0.00000000000E+00 -0.28202779035E+04  0.28202779035E+04  0.00000000000E+00 0.  1.
         25    1    1    2    0    0 -0.15978990299E+03  0.24359770969E+03 -0.21881152343E+04  0.22109604103E+04  0.12500000000E+03 0.  0.
          2    1    1    2  501    0  0.15978990299E+03 -0.24359770969E+03 -0.58655803797E+03  0.65492212451E+03  0.00000000000E+00 0.  1.
<mgrwt>
<rscale>  3 0.31701365E+03</rscale>
<asrwt>0</asrwt>
<pdfrwt beam="1">  1       21 0.70160960E-02 0.31701365E+03</pdfrwt>
<pdfrwt beam="2">  1        2 0.43388898E+00 0.31701365E+03</pdfrwt>
<totfact> 0.49593513E+03</totfact>
</mgrwt>
</event>
<event>
 4    0  0.1209256E-001  0.2376740E+03  0.7546771E-02  0.1121352E+00
         21   -1    0    0  501  502  0.00000000000E+00  0.00000000000E+00  0.46375534794E+02  0.46375534794E+02  0.00000000000E+00 0.  1.
          1   -1    0    0  502    0 -0.00000000000E+00 -0.00000000000E+00 -0.10428260598E+04  0.10428260598E+04  0.00000000000E+00 0.  1.
         25    1    1    2    0    0 -0.75786501101E+02  0.18740423769E+03 -0.53641273122E+03  0.58670909339E+03  0.12500000000E+03 0.  0.
          1    1    1    2  501    0  0.75786501101E+02 -0.18740423769E+03 -0.46003779381E+03  0.50249250122E+03  0.00000000000E+00 0.  1.
<mgrwt>
<rscale>  3 0.23767402E+03</rscale>
<asrwt>0</asrwt>
<pdfrwt beam="1">  1       21 0.71346974E-02 0.23767402E+03</pdfrwt>
<pdfrwt beam="2">  1        1 0.16043479E+00 0.23767402E+03</pdfrwt>
<totfact> 0.24260316E+04</totfact>
</mgrwt>
</event>
<event>
 4    0  0.1347030E-001  0.2557394E+03  0.7546771E-02  0.1109730E+00
         21   -1    0    0  501  502  0.00000000000E+00  0.00000000000E+00  0.27785443255E+03  0.27785443255E+03  0.00000000000E+00 0. -1.
          1   -1    0    0  502    0 -0.00000000000E+00 -0.00000000000E+00 -0.22834409160E+03  0.22834409160E+03  0.00000000000E+00 0. -1.
         25    1    1    2    0    0  0.78810995953E+02 -0.20872586705E+03  0.10473719990E+03  0.27635582444E+03  0.12500000000E+03 0.  0.
          1    1    1    2  501    0 -0.78810995953E+02  0.20872586705E+03 -0.55226858949E+02  0.22984269970E+03  0.00000000000E+00 0. -1.
<mgrwt>
<rscale>  3 0.25573944E+03</rscale>
<asrwt>0</asrwt>
<pdfrwt beam="1">  1       21 0.42746836E-01 0.25573944E+03</pdfrwt>
<pdfrwt beam="2">  1        1 0.35129860E-01 0.25573944E+03</pdfrwt>
<totfact> 0.69914278E+03</totfact>
</mgrwt>
</event>
<event>
 4    0  0.1002184E-001  0.2379866E+03  0.7546771E-02  0.1121141E+00
          2   -1    0    0  502    0 -0.00000000000E+00  0.00000000000E+00  0.52661792914E+02  0.52661792914E+02  0.00000000000E+00 0.  1.
         21   -1    0    0  501  502  0.00000000000E+00 -0.00000000000E+00 -0.97321640390E+03  0.97321640390E+03  0.00000000000E+00 0.  1.
         25    1    1    2    0    0  0.13808234438E+03 -0.14814143783E+03 -0.61361117703E+03  0.65814610537E+03  0.12500000000E+03 0.  0.
          2    1    1    2  501    0 -0.13808234438E+03  0.14814143783E+03 -0.30694343395E+03  0.36773209145E+03  0.00000000000E+00 0.  1.
<mgrwt>
<rscale>  3 0.23798660E+03</rscale>
<asrwt>0</asrwt>
<pdfrwt beam="1">  1       21 0.14972560E+00 0.23798660E+03</pdfrwt>
<pdfrwt beam="2">  1        2 0.81018145E-02 0.23798660E+03</pdfrwt>
<totfact> 0.29785449E+03</totfact>
</mgrwt>
</event>
<event>
 4    0  0.1578111E-001  0.2829769E+03  0.7546771E-02  0.1094074E+00
          2   -1    0    0  502    0 -0.00000000000E+00  0.00000000000E+00  0.18550713196E+04  0.18550713196E+04  0.00000000000E+00 0. -1.
         21   -1    0    0  501  502  0.00000000000E+00 -0.00000000000E+00 -0.40250037202E+02  0.40250037202E+02  0.00000000000E+00 0. -1.
         25    1    1    2    0    0  0.22781764557E+03  0.11202692802E+03  0.11319802777E+04  0.11668141503E+04  0.12500000000E+03 0.  0.
          2    1    1    2  501    0 -0.22781764557E+03 -0.11202692802E+03  0.68284100479E+03  0.72850720659E+03  0.00000000000E+00 0. -1.
<mgrwt>
<rscale>  3 0.28297688E+03</rscale>
<asrwt>0</asrwt>
<pdfrwt beam="1">  1       21 0.61923149E-02 0.28297688E+03</pdfrwt>
<pdfrwt beam="2">  1        2 0.28539552E+00 0.28297688E+03</pdfrwt>
<totfact> 0.20864653E+04</totfact>
</mgrwt>
</event>
<event>
 4    0  0.1579755E-001  0.2483288E+03  0.7546771E-02  0.1114366E+00
         21   -1    0    0  501  502  0.00000000000E+00  0.00000000000E+00  0.21048772023E+03  0.21048772023E+03  0.00000000000E+00 0.  1.
         -1   -1    0    0    0  501 -0.00000000000E+00 -0.00000000000E+00 -0.44846713612E+03  0.44846713612E+03  0.00000000000E+00 0.  1.
         25    1    1    2    0    0  0.13243501039E+03  0.16882872718E+03  0.92440119847E+02  0.26497612507E+03  0.12500000000E+03 0.  0.
         -1    1    1    2    0  502 -0.13243501039E+03 -0.16882872718E+03 -0.33041953575E+03  0.39397873128E+03  0.00000000000E+00 0.  1.
<mgrwt>
<rscale>  3 0.24832876E+03</rscale>
<asrwt>0</asrwt>
<pdfrwt beam="1">  1       21 0.32382726E-01 0.24832876E+03</pdfrwt>
<pdfrwt beam="2">  1       -1 0.68994944E-01 0.24832876E+03</pdfrwt>
<totfact> 0.18541909E+03</totfact>
</mgrwt>
</event>
<event>
 4    0  0.1541155E-001  0.2900837E+03  0.7546771E-02  0.1090305E+00
          2   -1    0    0  502    0 -0.00000000000E+00  0.00000000000E+00  0.60581996336E+03  0.60581996336E+03  0.00000000000E+00 0.  1.
         21   -1    0    0  501  502  0.00000000000E+00 -0.00000000000E+00 -0.77546267716E+03  0.77546267716E+03  0.00000000000E+00 0. -1.
         25    1    1    2    0    0  0.23667411932E+03 -0.11184331681E+03 -0.71759727030E+03  0.77401189178E+03  0.12500000000E+03 0.  0.
          2    1    1    2  501    0 -0.23667411932E+03  0.11184331681E+03  0.54795455651E+03  0.60727074874E+03  0.00000000000E+00 0.  1.
<mgrwt>
<rscale>  3 0.29008372E+03</rscale>
<asrwt>0</asrwt>
<pdfrwt beam="1">  1       21 0.11930195E+00 0.29008372E+03</pdfrwt>
<pdfrwt beam="2">  1        2 0.93203071E-01 0.29008372E+03</pdfrwt>
<totfact> 0.31713454E+02</totfact>
</mgrwt>
</event>
<event>
 4    0  0.1389787E-001  0.2932199E+03  0.7546771E-02  0.1088680E+00
         21   -1    0    0  501  502  0.00000000000E+00  0.00000000000E+00  0.11064466368E+03  0.11064466368E+03  0.00000000000E+00 0. -1.
          2   -1    0    0  502    0 -0.00000000000E+00 -0.00000000000E+00 -0.70636564277E+03  0.70636564277E+03  0.00000000000E+00 0. -1.
         25    1    1    2    0    0 -0.15843447017E+03 -0.21272381636E+03 -0.33264514990E+03  0.44343060239E+03  0.12500000000E+03 0.  0.
          2    1    1    2  501    0  0.15843447017E+03  0.21272381636E+03 -0.26307582919E+03  0.37357970406E+03  0.00000000000E+00 0. -1.
<mgrwt>
<rscale>  3 0.29321989E+03</rscale>
<asrwt>0</asrwt>
<pdfrwt beam="1">  1       21 0.17022257E-01 0.29321989E+03</pdfrwt>
<pdfrwt beam="2">  1        2 0.10867163E+00 0.29321989E+03</pdfrwt>
<totfact> 0.15980494E+04</totfact>
</mgrwt>
</event>
<event>
 4    0  0.1116638E-001  0.5902572E+03  0.7546771E-02  0.9925828E-01
         21   -1    0    0  501  502  0.00000000000E+00  0.00000000000E+00  0.44187601925E+03  0.44187601925E+03  0.00000000000E+00 0.  1.
          2   -1    0    0  502    0 -0.00000000000E+00 -0.00000000000E+00 -0.11530641434E+04  0.11530641434E+04  0.00000000000E+00 0.  1.
         25    1    1    2    0    0  0.35003419955E+03  0.45853532307E+03 -0.81753613983E+03  0.10083496037E+04  0.12500000000E+03 0.  0.
          2    1    1    2  501    0 -0.35003419955E+03 -0.45853532307E+03  0.10634801570E+03  0.58659055891E+03  0.00000000000E+00 0.  1.
<mgrwt>
<rscale>  3 0.59025722E+03</rscale>
<asrwt>0</asrwt>
<pdfrwt beam="1">  1       21 0.67980927E-01 0.59025722E+03</pdfrwt>
<pdfrwt beam="2">  1        2 0.17739448E+00 0.59025722E+03</pdfrwt>
<totfact> 0.46136332E+02</totfact>
</mgrwt>
</event>
<event>
 4    0  0.1002184E-001  0.2514123E+03  0.7546771E-02  0.1112416E+00
         21   -1    0    0  501  502  0.00000000000E+00  0.00000000000E+00  0.81635384365E+03  0.81635384365E+03  0.00000000000E+00 0. -1.
         -1   -1    0    0    0  501 -0.00000000000E+00 -0.00000000000E+00 -0.17213766199E+03  0.17213766199E+03  0.00000000000E+00 0.  1.
         25    1    1    2    0    0  0.18070369413E+03  0.12218562503E+03  0.71599285031E+03  0.75885038956E+03  0.12500000000E+03 0.  0.
         -1    1    1    2    0  502 -0.18070369413E+03 -0.12218562503E+03 -0.71776668646E+02  0.22964111609E+03  0.00000000000E+00 0.  1.
<mgrwt>
<rscale>  3 0.25141231E+03</rscale>
<asrwt>0</asrwt>
<pdfrwt beam="1">  1       21 0.12559290E+00 0.25141231E+03</pdfrwt>
<pdfrwt beam="2">  1       -1 0.26482718E-01 0.25141231E+03</pdfrwt>
<totfact> 0.52788966E+02</totfact>
</mgrwt>
</event>
<event>
 4    0  0.1581571E-001  0.2673471E+03  0.7546771E-02  0.1102808E+00
         21   -1    0    0  501  502  0.00000000000E+00  0.00000000000E+00  0.19932121953E+03  0.19932121953E+03  0.00000000000E+00 0. -1.
          1   -1    0    0  502    0 -0.00000000000E+00 -0.00000000000E+00 -0.19886837816E+04  0.19886837816E+04  0.00000000000E+00 0.  1.
         25    1    1    2    0    0  0.23177479270E+03 -0.46150939187E+02  0.98868269092E+02  0.28504280091E+03  0.12500000000E+03 0.  0.
          1    1    1    2  501    0 -0.23177479270E+03  0.46150939187E+02 -0.18882308311E+04  0.19029622002E+04  0.00000000000E+00 0.  1.
<mgrwt>
<rscale>  3 0.26734708E+03</rscale>
<asrwt>0</asrwt>
<pdfrwt beam="1">  1       21 0.30664803E-01 0.26734708E+03</pdfrwt>
<pdfrwt beam="2">  1        1 0.30595135E+00 0.26734708E+03</pdfrwt>
<totfact> 0.38159589E+02</totfact>
</mgrwt>
</event>
<event>
 4    0  0.1002184E-001  0.5924954E+03  0.7546771E-02  0.9921099E-01
         21   -1    0    0  501  502  0.00000000000E+00  0.00000000000E+00  0.29036707339E+03  0.29036707339E+03  0.00000000000E+00 0. -1.
          2   -1    0    0  502    0 -0.00000000000E+00 -0.00000000000E+00 -0.19240008997E+04  0.19240008997E+04  0.00000000000E+00 0.  1.
         25    1    1    2    0    0 -0.57914823567E+03  0.36203985002E+01 -0.13494964632E+03  0.60766947694E+03  0.12500000000E+03 0.  0.
          2    1    1    2  501    0  0.57914823567E+03 -0.36203985002E+01 -0.14986841799E+04  0.16066984961E+04  0.00000000000E+00 0.  1.
<mgrwt>
<rscale>  3 0.59249539E+03</rscale>
<asrwt>0</asrwt>
<pdfrwt beam="1">  1       21 0.44671859E-01 0.59249539E+03</pdfrwt>
<pdfrwt beam="2">  1        2 0.29600013E+00 0.59249539E+03</pdfrwt>
<totfact> 0.42849693E+02</totfact>
</mgrwt>
</event>
<event>
 4    0  0.1257241E-001  0.5481672E+03  0.7546771E-02  0.1001919E+00
          2   -1    0    0  502    0 -0.00000000000E+00  0.00000000000E+00  0.13666479232E+04  0.13666479232E+04  0.00000000000E+00 0. -1.
         21   -1    0    0  501  502  0.00000000000E+00 -0.00000000000E+00 -0.24482790583E+03  0.24482790583E+03  0.00000000000E+00 0. -1.
         25    1    1    2    0    0  0.33316927708E+03 -0.41696580945E+03  0.28210996084E+03  0.61650083815E+03  0.12500000000E+03 0.  0.
          2    1    1    2  501    0 -0.33316927708E+03  0.41696580945E+03  0.83971005652E+03  0.99497499088E+03  0.00000000000E+00 0. -1.
<mgrwt>
<rscale>  3 0.54816718E+03</rscale>
<asrwt>0</asrwt>
<pdfrwt beam="1">  1       21 0.37665832E-01 0.54816718E+03</pdfrwt>
<pdfrwt beam="2">  1        2 0.21025352E+00 0.54816718E+03</pdfrwt>
<totfact> 0.12442588E+03</totfact>
</mgrwt>
</event>
<event>
 4    0  0.1444670E-001  0.2472284E+03  0.7546771E-02  0.1115069E+00
         21   -1    0    0  501  502  0.00000000000E+00  0.00000000000E+00  0.99698822138E+02  0.99698822138E+02  0.00000000000E+00 0. -1.
          2   -1    0    0  502    0 -0.00000000000E+00 -0.00000000000E+00 -0.10270900173E+04  0.10270900173E+04  0.00000000000E+00 0. -1.
         25    1    1    2    0    0 -0.62176961753E+02  0.20403653919E+03 -0.90706038629E+02  0.26334287410E+03  0.12500000000E+03 0.  0.
          2    1    1    2  501    0  0.62176961753E+02 -0.20403653919E+03 -0.83668515653E+03  0.86344596533E+03  0.00000000000E+00 0. -1.
<mgrwt>
<rscale>  3 0.24722840E+03</rscale>
<asrwt>0</asrwt>
<pdfrwt beam="1">  1       21 0.15338280E-01 0.24722840E+03</pdfrwt>
<pdfrwt beam="2">  1        2 0.15801385E+00 0.24722840E+03</pdfrwt>
<totfact> 0.11935133E+04</totfact>
</mgrwt>
</event>
<event>
 4    0  0.1403693E-001  0.3215893E+03  0.7546771E-02  0.1074920E+00
          1   -1    0    0  502    0 -0.00000000000E+00  0.00000000000E+00  0.52906407643E+03  0.52906407643E+03  0.00000000000E+00 0.  1.
         21   -1    0    0  501  502  0.00000000000E+00 -0.00000000000E+00 -0.22944373461E+03  0.22944373461E+03  0.00000000000E+00 0.  1.
         25    1    1    2    0    0  0.29517446558E+03  0.25821266088E+02 -0.20580551767E+02  0.32224720639E+03  0.12500000000E+03 0.  0.
          1    1    1    2  501    0 -0.29517446558E+03 -0.25821266088E+02  0.32020089359E+03  0.43626060465E+03  0.00000000000E+00 0.  1.
<mgrwt>
<rscale>  3 0.32158934E+03</rscale>
<asrwt>0</asrwt>
<pdfrwt beam="1">  1       21 0.35299036E-01 0.32158934E+03</pdfrwt>
<pdfrwt beam="2">  1        1 0.81394473E-01 0.32158934E+03</pdfrwt>
<totfact> 0.34495815E+03</totfact>
</mgrwt>
</event>
<event>
 4    0  0.1273291E-001  0.2377327E+03  0.7546771E-02  0.1121313E+00
          1   -1    0    0  502    0 -0.00000000000E+00  0.00000000000E+00  0.17675785470E+04  0.17675785470E+04  0.00000000000E+00 0.  1.
         21   -1    0    0  501  502  0.00000000000E+00 -0.00000000000E+00 -0.27441334642E+02  0.27441334642E+02  0.00000000000E+00 0.  1.
         25    1    1    2    0    0  0.10586856707E+03  0.17228948863E+03  0.98383524749E+03  0.10121504906E+04  0.12500000000E+03 0.  0.
          1    1    1    2  501    0 -0.10586856707E+03 -0.17228948863E+03  0.75630196483E+03  0.78286939102E+03  0.00000000000E+00 0.  1.
<mgrwt>
<rscale>  3 0.23773267E+03</rscale>
<asrwt>0</asrwt>
<pdfrwt beam="1">  1       21 0.42217452E-02 0.23773267E+03</pdfrwt>
<pdfrwt beam="2">  1        1 0.27193507E+00 0.23773267E+03</pdfrwt>
<totfact> 0.19260291E+04</totfact>
</mgrwt>
</event>
<event>
 4    0  0.1403129E-001  0.3589905E+03  0.7546771E-02  0.1058984E+00
          2   -1    0    0  502    0 -0.00000000000E+00  0.00000000000E+00  0.10236654237E+04  0.10236654237E+04  0.00000000000E+00 0.  1.
         21   -1    0    0  501  502  0.00000000000E+00 -0.00000000000E+00 -0.12313783921E+03  0.12313783921E+03  0.00000000000E+00 0.  1.
         25    1    1    2    0    0 -0.33638873016E+03  0.95815514782E+01  0.34875207057E+03  0.50050193869E+03  0.12500000000E+03 0.  0.
          2    1    1    2  501    0  0.33638873016E+03 -0.95815514782E+01  0.55177551390E+03  0.64630132419E+03  0.00000000000E+00 0.  1.
<mgrwt>
<rscale>  3 0.35899051E+03</rscale>
<asrwt>0</asrwt>
<pdfrwt beam="1">  1       21 0.18944284E-01 0.35899051E+03</pdfrwt>
<pdfrwt beam="2">  1        2 0.15748698E+00 0.35899051E+03</pdfrwt>
<totfact> 0.79058559E+03</totfact>
</mgrwt>
</event>
<event>
 4    0  0.1731976E-001  0.2887860E+03  0.7546771E-02  0.1090985E+00
          2   -1    0    0  502    0 -0.00000000000E+00  0.00000000000E+00  0.18080932906E+04  0.18080932906E+04  0.00000000000E+00 0.  1.
         21   -1    0    0  501  502  0.00000000000E+00 -0.00000000000E+00 -0.54861366860E+03  0.54861366860E+03  0.00000000000E+00 0. -1.
         25    1    1    2    0    0 -0.20395589484E+03  0.16178486738E+03 -0.50035935502E+03  0.57771691555E+03  0.12500000000E+03 0.  0.
          2    1    1    2  501    0  0.20395589484E+03 -0.16178486738E+03  0.17598389770E+04  0.17789900436E+04  0.00000000000E+00 0.  1.
<mgrwt>
<rscale>  3 0.28878599E+03</rscale>
<asrwt>0</asrwt>
<pdfrwt beam="1">  1       21 0.84402104E-01 0.28878599E+03</pdfrwt>
<pdfrwt beam="2">  1        2 0.27816819E+00 0.28878599E+03</pdfrwt>
<totfact> 0.13699179E+02</totfact>
</mgrwt>
</event>
<event>
 4    0  0.1522154E-001  0.2635235E+03  0.7546771E-02  0.1105045E+00
         21   -1    0    0  501  502  0.00000000000E+00  0.00000000000E+00  0.25320613336E+03  0.25320613336E+03  0.00000000000E+00 0. -1.
         -4   -1    0    0    0  501 -0.00000000000E+00 -0.00000000000E+00 -0.32237076850E+03  0.32237076850E+03  0.00000000000E+00 0. -1.
         25    1    1    2    0    0 -0.20204178641E+03  0.11401214407E+03  0.10685961834E+03  0.28436531167E+03  0.12500000000E+03 0.  0.
         -4    1    1    2    0  502  0.20204178641E+03 -0.11401214407E+03 -0.17602425349E+03  0.29121159019E+03  0.00000000000E+00 0. -1.
<mgrwt>
<rscale>  3 0.26352353E+03</rscale>
<asrwt>0</asrwt>
<pdfrwt beam="1">  1       21 0.38954790E-01 0.26352353E+03</pdfrwt>
<pdfrwt beam="2">  1       -4 0.49595503E-01 0.26352353E+03</pdfrwt>
<totfact> 0.10536375E+03</totfact>
</mgrwt>
</event>
<event>
 4    0  0.1414264E-001  0.2583523E+03  0.7546771E-02  0.1108137E+00
          1   -1    0    0  502    0 -0.00000000000E+00  0.00000000000E+00  0.70194292095E+03  0.70194292095E+03  0.00000000000E+00 0.  1.
         21   -1    0    0  501  502  0.00000000000E+00 -0.00000000000E+00 -0.21735918640E+03  0.21735918640E+03  0.00000000000E+00 0. -1.
         25    1    1    2    0    0  0.22311141527E+03 -0.36635810981E+02 -0.11179444865E+03  0.28150290411E+03  0.12500000000E+03 0.  0.
          1    1    1    2  501    0 -0.22311141527E+03  0.36635810981E+02  0.59637818319E+03  0.63779920324E+03  0.00000000000E+00 0.  1.
<mgrwt>
<rscale>  3 0.25835225E+03</rscale>
<asrwt>0</asrwt>
<pdfrwt beam="1">  1       21 0.33439875E-01 0.25835225E+03</pdfrwt>
<pdfrwt beam="2">  1        1 0.10799122E+00 0.25835225E+03</pdfrwt>
<totfact> 0.26277735E+03</totfact>
</mgrwt>
</event>
<event>
 4    0  0.1002184E-001  0.2865855E+03  0.7546771E-02  0.1092145E+00
         21   -1    0    0  501  502  0.00000000000E+00  0.00000000000E+00  0.49964346919E+02  0.49964346919E+02  0.00000000000E+00 0. -1.
          1   -1    0    0  502    0 -0.00000000000E+00 -0.00000000000E+00 -0.19229394891E+04  0.19229394891E+04  0.00000000000E+00 0.  1.
         25    1    1    2    0    0 -0.13303800665E+03  0.22092338998E+03 -0.50340249507E+03  0.57926274479E+03  0.12500000000E+03 0.  0.
          1    1    1    2  501    0  0.13303800665E+03 -0.22092338998E+03 -0.13695726471E+04  0.13936410912E+04  0.00000000000E+00 0.  1.
<mgrwt>
<rscale>  3 0.28658551E+03</rscale>
<asrwt>0</asrwt>
<pdfrwt beam="1">  1       21 0.76868216E-02 0.28658551E+03</pdfrwt>
<pdfrwt beam="2">  1        1 0.29583688E+00 0.28658551E+03</pdfrwt>
<totfact> 0.53730393E+03</totfact>
</mgrwt>
</event>
<event>
 4    0  0.1470215E-001  0.2825802E+03  0.7546771E-02  0.1094288E+00
         21   -1    0    0  501  502  0.00000000000E+00  0.00000000000E+00  0.44534475887E+02  0.44534475887E+02  0.00000000000E+00 0. -1.
          2   -1    0    0  502    0 -0.00000000000E+00 -0.00000000000E+00 -0.16208926715E+04  0.16208926715E+04  0.00000000000E+00 0. -1.
         25    1    1    2    0    0  0.18790485897E+03  0.17005386125E+03 -0.77219338150E+03  0.82227378055E+03  0.12500000000E+03 0.  0.
          2    1    1    2  501    0 -0.18790485897E+03 -0.17005386125E+03 -0.80416481406E+03  0.84315336679E+03  0.00000000000E+00 0. -1.
<mgrwt>
<rscale>  3 0.28258017E+03</rscale>
<asrwt>0</asrwt>
<pdfrwt beam="1">  1       21 0.68514580E-02 0.28258017E+03</pdfrwt>
<pdfrwt beam="2">  1        2 0.24936810E+00 0.28258017E+03</pdfrwt>
<totfact> 0.23272890E+04</totfact>
</mgrwt>
</event>
<event>
 4    0  0.1424012E-001  0.2785394E+03  0.7546771E-02  0.1096489E+00
          1   -1    0    0  502    0 -0.00000000000E+00  0.00000000000E+00  0.29331551233E+04  0.29331551233E+04  0.00000000000E+00 0. -1.
         21   -1    0    0  501  502  0.00000000000E+00 -0.00000000000E+00 -0.24138436267E+02  0.24138436267E+02  0.00000000000E+00 0. -1.
         25    1    1    2    0    0 -0.22601463220E+03 -0.10429098694E+03  0.13386340323E+04  0.13673058533E+04  0.12500000000E+03 0.  0.
          1    1    1    2  501    0  0.22601463220E+03  0.10429098694E+03  0.15703826547E+04  0.15899877063E+04  0.00000000000E+00 0. -1.
<mgrwt>
<rscale>  3 0.27853945E+03</rscale>
<asrwt>0</asrwt>
<pdfrwt beam="1">  1       21 0.37136079E-02 0.27853945E+03</pdfrwt>
<pdfrwt beam="2">  1        1 0.45125435E+00 0.27853945E+03</pdfrwt>
<totfact> 0.39896372E+03</totfact>
</mgrwt>
</event>
<event>
 4    0  0.1095716E-001  0.2458381E+03  0.7546771E-02  0.1115964E+00
          2   -1    0    0  502    0 -0.00000000000E+00  0.00000000000E+00  0.11820485121E+03  0.11820485121E+03  0.00000000000E+00 0. -1.
         21   -1    0    0  501  502  0.00000000000E+00 -0.00000000000E+00 -0.48672970996E+03  0.48672970996E+03  0.00000000000E+00 0. -1.
         25    1    1    2    0    0  0.18604695978E+03  0.10098461002E+03 -0.28748785862E+03  0.37826661439E+03  0.12500000000E+03 0.  0.
          2    1    1    2  501    0 -0.18604695978E+03 -0.10098461002E+03 -0.81037000133E+02  0.22666794678E+03  0.00000000000E+00 0. -1.
<mgrwt>
<rscale>  3 0.24583808E+03</rscale>
<asrwt>0</asrwt>
<pdfrwt beam="1">  1       21 0.74881494E-01 0.24583808E+03</pdfrwt>
<pdfrwt beam="2">  1        2 0.18185362E-01 0.24583808E+03</pdfrwt>
<totfact> 0.59633574E+03</totfact>
</mgrwt>
</event>
<event>
 4    0  0.1452774E-001  0.3436200E+03  0.7546771E-02  0.1065265E+00
          1   -1    0    0  502    0 -0.00000000000E+00  0.00000000000E+00  0.15836532552E+04  0.15836532552E+04  0.00000000000E+00 0.  1.
         21   -1    0    0  501  502  0.00000000000E+00 -0.00000000000E+00 -0.17153633648E+03  0.17153633648E+03  0.00000000000E+00 0.  1.
         25    1    1    2    0    0 -0.18141565299E+03 -0.26370071804E+03  0.39657465706E+02  0.34590088527E+03  0.12500000000E+03 0.  0.
          1    1    1    2  501    0  0.18141565299E+03  0.26370071804E+03  0.13724594530E+04  0.14092887064E+04  0.00000000000E+00 0.  1.
<mgrwt>
<rscale>  3 0.34362001E+03</rscale>
<asrwt>0</asrwt>
<pdfrwt beam="1">  1       21 0.26390207E-01 0.34362001E+03</pdfrwt>
<pdfrwt beam="2">  1        1 0.24363895E+00 0.34362001E+03</pdfrwt>
<totfact> 0.91067528E+02</totfact>
</mgrwt>
</event>
<event>
 4    0  0.1351954E-001  0.3557128E+03  0.7546771E-02  0.1060294E+00
         21   -1    0    0  501  502  0.00000000000E+00  0.00000000000E+00  0.87015250176E+02  0.87015250176E+02  0.00000000000E+00 0. -1.
          2   -1    0    0  502    0 -0.00000000000E+00 -0.00000000000E+00 -0.15728302306E+04  0.15728302306E+04  0.00000000000E+00 0. -1.
         25    1    1    2    0    0 -0.24993120590E+03  0.22009308135E+03 -0.46102829055E+03  0.58230460828E+03  0.12500000000E+03 0.  0.
          2    1    1    2  501    0  0.24993120590E+03 -0.22009308135E+03 -0.10247866898E+04  0.10775408725E+04  0.00000000000E+00 0. -1.
<mgrwt>
<rscale>  3 0.35571277E+03</rscale>
<asrwt>0</asrwt>
<pdfrwt beam="1">  1       21 0.13386961E-01 0.35571277E+03</pdfrwt>
<pdfrwt beam="2">  1        2 0.24197388E+00 0.35571277E+03</pdfrwt>
<totfact> 0.73626548E+03</totfact>
</mgrwt>
</event>
<event>
 4    0  0.1002184E-001  0.4949734E+03  0.7546771E-02  0.1015099E+00
         21   -1    0    0  501  502  0.00000000000E+00  0.00000000000E+00  0.64913904682E+02  0.64913904682E+02  0.00000000000E+00 0.  1.
          2   -1    0    0  502    0 -0.00000000000E+00 -0.00000000000E+00 -0.39613863513E+04  0.39613863513E+04  0.00000000000E+00 0. -1.
         25    1    1    2    0    0  0.45913485459E+03 -0.13626756506E+03 -0.14160851979E+04  0.15000986473E+04  0.12500000000E+03 0.  0.
          2    1    1    2  501    0 -0.45913485459E+03  0.13626756506E+03 -0.24803872487E+04  0.25262016087E+04  0.00000000000E+00 0. -1.
<mgrwt>
<rscale>  3 0.49497340E+03</rscale>
<asrwt>0</asrwt>
<pdfrwt beam="1">  1       21 0.99867555E-02 0.49497340E+03</pdfrwt>
<pdfrwt beam="2">  1        2 0.60944400E+00 0.49497340E+03</pdfrwt>
<totfact> 0.43937010E+02</totfact>
</mgrwt>
</event>
<event>
 4    0  0.1650083E-001  0.2406550E+03  0.7546771E-02  0.1119357E+00
          1   -1    0    0  502    0 -0.00000000000E+00  0.00000000000E+00  0.71329026974E+03  0.71329026974E+03  0.00000000000E+00 0. -1.
         21   -1    0    0  501  502  0.00000000000E+00 -0.00000000000E+00 -0.69817144848E+02  0.69817144848E+02  0.00000000000E+00 0. -1.
         25    1    1    2    0    0  0.20476876388E+03  0.18963217679E+02  0.34348963819E+03  0.41940431785E+03  0.12500000000E+03 0.  0.
          1    1    1    2  501    0 -0.20476876388E+03 -0.18963217679E+02  0.29998348670E+03  0.36370309674E+03  0.00000000000E+00 0. -1.
<mgrwt>
<rscale>  3 0.24065504E+03</rscale>
<asrwt>0</asrwt>
<pdfrwt beam="1">  1       21 0.10741100E-01 0.24065504E+03</pdfrwt>
<pdfrwt beam="2">  1        1 0.10973696E+00 0.24065504E+03</pdfrwt>
<totfact> 0.21674611E+04</totfact>
</mgrwt>
</event>
<event>
 4    0  0.1611936E-001  0.2623074E+03  0.7546771E-02  0.1105765E+00
         -3   -1    0    0    0  501 -0.00000000000E+00  0.00000000000E+00  0.27882369980E+03  0.27882369980E+03  0.00000000000E+00 0.  1.
         21   -1    0    0  501  502  0.00000000000E+00 -0.00000000000E+00 -0.31562026899E+03  0.31562026899E+03  0.00000000000E+00 0.  1.
         25    1    1    2    0    0 -0.60070781509E+02  0.22264700084E+03 -0.18440476078E+03  0.32064045530E+03  0.12500000000E+03 0.  0.
         -3    1    1    2    0  502  0.60070781509E+02 -0.22264700084E+03  0.14760819159E+03  0.27380351349E+03  0.00000000000E+00 0.  1.
<mgrwt>
<rscale>  3 0.26230743E+03</rscale>
<asrwt>0</asrwt>
<pdfrwt beam="1">  1       21 0.48556964E-01 0.26230743E+03</pdfrwt>
<pdfrwt beam="2">  1       -3 0.42895954E-01 0.26230743E+03</pdfrwt>
<totfact> 0.10747629E+03</totfact>
</mgrwt>
</event>
<event>
 4    0  0.1002184E-001  0.4353844E+03  0.7546771E-02  0.1032172E+00
          2   -1    0    0  502    0 -0.00000000000E+00  0.00000000000E+00  0.26591556809E+04  0.26591556809E+04  0.00000000000E+00 0.  1.
         21   -1    0    0  501  502  0.00000000000E+00 -0.00000000000E+00 -0.53366480918E+03  0.53366480918E+03  0.00000000000E+00 0.  1.
         25    1    1    2    0    0 -0.29098072674E+03  0.29877216477E+03 -0.42501681015E+03  0.60843970834E+03  0.12500000000E+03 0.  0.
          2    1    1    2  501    0  0.29098072674E+03 -0.29877216477E+03  0.25505076819E+04  0.25843807817E+04  0.00000000000E+00 0.  1.
<mgrwt>
<rscale>  3 0.43538442E+03</rscale>
<asrwt>0</asrwt>
<pdfrwt beam="1">  1       21 0.82102280E-01 0.43538442E+03</pdfrwt>
<pdfrwt beam="2">  1        2 0.40910087E+00 0.43538442E+03</pdfrwt>
<totfact> 0.46602381E+01</totfact>
</mgrwt>
</event>
<event>
 4    0  0.1245104E-001  0.5038973E+03  0.7546771E-02  0.1012767E+00
         21   -1    0    0  501  502  0.00000000000E+00  0.00000000000E+00  0.19931052727E+03  0.19931052727E+03  0.00000000000E+00 0.  1.
          1   -1    0    0  502    0 -0.00000000000E+00 -0.00000000000E+00 -0.15537010948E+04  0.15537010948E+04  0.00000000000E+00 0.  1.
         25    1    1    2    0    0  0.48201932991E+03 -0.77102828039E+02 -0.10830177938E+04  0.11945040905E+04  0.12500000000E+03 0.  0.
          1    1    1    2  501    0 -0.48201932991E+03  0.77102828039E+02 -0.27137277370E+03  0.55850753155E+03  0.00000000000E+00 0.  1.
<mgrwt>
<rscale>  3 0.50389729E+03</rscale>
<asrwt>0</asrwt>
<pdfrwt beam="1">  1       21 0.30663157E-01 0.50389729E+03</pdfrwt>
<pdfrwt beam="2">  1        1 0.23903094E+00 0.50389729E+03</pdfrwt>
<totfact> 0.67640559E+02</totfact>
</mgrwt>
</event>
<event>
 4    0  0.1211796E-001  0.2403950E+03  0.7546771E-02  0.1119530E+00
          1   -1    0    0  502    0 -0.00000000000E+00  0.00000000000E+00  0.10113287584E+04  0.10113287584E+04  0.00000000000E+00 0.  1.
         21   -1    0    0  501  502  0.00000000000E+00 -0.00000000000E+00 -0.95796142457E+02  0.95796142457E+02  0.00000000000E+00 0. -1.
         25    1    1    2    0    0  0.18989392139E+03 -0.78134789504E+02  0.90407621993E+02  0.25683318482E+03  0.12500000000E+03 0.  0.
          1    1    1    2  501    0 -0.18989392139E+03  0.78134789504E+02  0.82512499392E+03  0.85029171601E+03  0.00000000000E+00 0.  1.
<mgrwt>
<rscale>  3 0.24039498E+03</rscale>
<asrwt>0</asrwt>
<pdfrwt beam="1">  1       21 0.14737869E-01 0.24039498E+03</pdfrwt>
<pdfrwt beam="2">  1        1 0.15558903E+00 0.24039498E+03</pdfrwt>
<totfact> 0.70347126E+03</totfact>
</mgrwt>
</event>
<event>
 4    0  0.1250209E-001  0.2411263E+03  0.7546771E-02  0.1119045E+00
          2   -1    0    0  502    0 -0.00000000000E+00  0.00000000000E+00  0.36959467081E+04  0.36959467081E+04  0.00000000000E+00 0.  1.
         21   -1    0    0  501  502  0.00000000000E+00 -0.00000000000E+00 -0.15255824082E+02  0.15255824082E+02  0.00000000000E+00 0.  1.
         25    1    1    2    0    0  0.20418052128E+03 -0.28760917551E+02  0.13463047483E+04  0.13677274403E+04  0.12500000000E+03 0.  0.
          2    1    1    2  501    0 -0.20418052128E+03  0.28760917551E+02  0.23343861357E+04  0.23434750919E+04  0.00000000000E+00 0.  1.
<mgrwt>
<rscale>  3 0.24112626E+03</rscale>
<asrwt>0</asrwt>
<pdfrwt beam="1">  1       21 0.23470528E-02 0.24112626E+03</pdfrwt>
<pdfrwt beam="2">  1        2 0.56860647E+00 0.24112626E+03</pdfrwt>
<totfact> 0.91883464E+03</totfact>
</mgrwt>
</event>
<event>
 4    0  0.1509899E-001  0.2737276E+03  0.7546771E-02  0.1099165E+00
          1   -1    0    0  502    0 -0.00000000000E+00  0.00000000000E+00  0.21031486797E+04  0.21031486797E+04  0.00000000000E+00 0.  1.
         21   -1    0    0  501  502  0.00000000000E+00 -0.00000000000E+00 -0.45608987528E+02  0.45608987528E+02  0.00000000000E+00 0.  1.
         25    1    1    2    0    0 -0.33366342910E+02  0.24122291420E+03  0.48025828701E+03  0.55278823198E+03  0.12500000000E+03 0.  0.
          1    1    1    2  501    0  0.33366342910E+02 -0.24122291420E+03  0.15772814052E+04  0.15959694352E+04  0.00000000000E+00 0.  1.
<mgrwt>
<rscale>  3 0.27372761E+03</rscale>
<asrwt>0</asrwt>
<pdfrwt beam="1">  1       21 0.70167690E-02 0.27372761E+03</pdfrwt>
<pdfrwt beam="2">  1        1 0.32356126E+00 0.27372761E+03</pdfrwt>
<totfact> 0.48302685E+03</totfact>
</mgrwt>
</event>
<event>
 4    0  0.1571274E-001  0.3202871E+03  0.7546771E-02  0.1075517E+00
         -4   -1    0    0    0  501 -0.00000000000E+00  0.00000000000E+00  0.23595452496E+03  0.23595452496E+03  0.00000000000E+00 0.  1.
         21   -1    0    0  501  502  0.00000000000E+00 -0.00000000000E+00 -0.63264386669E+03  0.63264386669E+03  0.00000000000E+00 0.  1.
         25    1    1    2    0    0  0.25079675073E+03 -0.15511217803E+03 -0.46620820777E+03  0.56562698923E+03  0.12500000000E+03 0.  0.
         -4    1    1    2    0  502 -0.25079675073E+03  0.15511217803E+03  0.69518866040E+02  0.30297140242E+03  0.00000000000E+00 0.  1.
<mgrwt>
<rscale>  3 0.32028706E+03</rscale>
<asrwt>0</asrwt>
<pdfrwt beam="1">  1       21 0.97329826E-01 0.32028706E+03</pdfrwt>
<pdfrwt beam="2">  1       -4 0.36300696E-01 0.32028706E+03</pdfrwt>
<totfact> 0.26526788E+02</totfact>
</mgrwt>
</event>
<event>
 4    0  0.1075332E-001  0.2434982E+03  0.7546771E-02  0.1117484E+00
          2   -1    0    0  502    0 -0.00000000000E+00  0.00000000000E+00  0.34510279691E+03  0.34510279691E+03  0.00000000000E+00 0. -1.
         21   -1    0    0  501  502  0.00000000000E+00 -0.00000000000E+00 -0.45850646735E+03  0.45850646735E+03  0.00000000000E+00 0. -1.
         25    1    1    2    0    0  0.20752025663E+03  0.24529649450E+02 -0.38828415191E+03  0.45831860451E+03  0.12500000000E+03 0.  0.
          2    1    1    2  501    0 -0.20752025663E+03 -0.24529649450E+02  0.27488048147E+03  0.34529065975E+03  0.00000000000E+00 0. -1.
<mgrwt>
<rscale>  3 0.24349817E+03</rscale>
<asrwt>0</asrwt>
<pdfrwt beam="1">  1       21 0.70539456E-01 0.24349817E+03</pdfrwt>
<pdfrwt beam="2">  1        2 0.53092738E-01 0.24349817E+03</pdfrwt>
<totfact> 0.20839103E+03</totfact>
</mgrwt>
</event>
<event>
 4    0  0.1425054E-001  0.3862666E+03  0.7546771E-02  0.1048642E+00
         21   -1    0    0  501  502  0.00000000000E+00  0.00000000000E+00  0.13465713393E+03  0.13465713393E+03  0.00000000000E+00 0.  1.
          1   -1    0    0  502    0 -0.00000000000E+00 -0.00000000000E+00 -0.10689595253E+04  0.10689595253E+04  0.00000000000E+00 0.  1.
         25    1    1    2    0    0 -0.30508207543E+02 -0.36420611906E+03 -0.56163312900E+03  0.68164038868E+03  0.12500000000E+03 0.  0.
          1    1    1    2  501    0  0.30508207543E+02  0.36420611906E+03 -0.37266926236E+03  0.52197627053E+03  0.00000000000E+00 0.  1.
<mgrwt>
<rscale>  3 0.38626655E+03</rscale>
<asrwt>0</asrwt>
<pdfrwt beam="1">  1       21 0.20716482E-01 0.38626655E+03</pdfrwt>
<pdfrwt beam="2">  1        1 0.16445531E+00 0.38626655E+03</pdfrwt>
<totfact> 0.32566556E+03</totfact>
</mgrwt>
</event>
<event>
 4    0  0.1623582E-001  0.2434137E+03  0.7546771E-02  0.1117539E+00
         21   -1    0    0  501  502  0.00000000000E+00  0.00000000000E+00  0.82658850362E+02  0.82658850362E+02  0.00000000000E+00 0.  1.
          2   -1    0    0  502    0 -0.00000000000E+00 -0.00000000000E+00 -0.68284977641E+03  0.68284977641E+03  0.00000000000E+00 0.  1.
         25    1    1    2    0    0  0.20869239057E+03  0.85285486977E+01 -0.20384074780E+03  0.31749220540E+03  0.12500000000E+03 0.  0.
          2    1    1    2  501    0 -0.20869239057E+03 -0.85285486977E+01 -0.39635017825E+03  0.44801642137E+03  0.00000000000E+00 0.  1.
<mgrwt>
<rscale>  3 0.24341374E+03</rscale>
<asrwt>0</asrwt>
<pdfrwt beam="1">  1       21 0.12716746E-01 0.24341374E+03</pdfrwt>
<pdfrwt beam="2">  1        2 0.10505381E+00 0.24341374E+03</pdfrwt>
<totfact> 0.28616424E+04</totfact>
</mgrwt>
</event>
<event>
 4    0  0.1002184E-001  0.2488324E+03  0.7546771E-02  0.1114045E+00
          2   -1    0    0  502    0 -0.00000000000E+00  0.00000000000E+00  0.49577392587E+03  0.49577392587E+03  0.00000000000E+00 0.  1.
         21   -1    0    0  501  502  0.00000000000E+00 -0.00000000000E+00 -0.13858878953E+03  0.13858878953E+03  0.00000000000E+00 0. -1.
         25    1    1    2    0    0 -0.21127236956E+03  0.40700831850E+02  0.41409726290E+02  0.25225450895E+03  0.12500000000E+03 0.  0.
          2    1    1    2  501    0  0.21127236956E+03 -0.40700831850E+02  0.31577541004E+03  0.38210820646E+03  0.00000000000E+00 0.  1.
<mgrwt>
<rscale>  3 0.24883242E+03</rscale>
<asrwt>0</asrwt>
<pdfrwt beam="1">  1       21 0.21321352E-01 0.24883242E+03</pdfrwt>
<pdfrwt beam="2">  1        2 0.76272911E-01 0.24883242E+03</pdfrwt>
<totfact> 0.15952793E+04</totfact>
</mgrwt>
</event>
<event>
 4    0  0.1426190E-001  0.2561681E+03  0.7546771E-02  0.1109468E+00
          3   -1    0    0  502    0 -0.00000000000E+00  0.00000000000E+00  0.49819399858E+03  0.49819399858E+03  0.00000000000E+00 0.  1.
         21   -1    0    0  501  502  0.00000000000E+00 -0.00000000000E+00 -0.49083634020E+03  0.49083634020E+03  0.00000000000E+00 0. -1.
         25    1    1    2    0    0 -0.14317055414E+03 -0.17175351330E+03 -0.42846013601E+03  0.49919952429E+03  0.12500000000E+03 0.  0.
          3    1    1    2  501    0  0.14317055414E+03  0.17175351330E+03  0.43581779440E+03  0.48983081448E+03  0.00000000000E+00 0.  1.
<mgrwt>
<rscale>  3 0.25616806E+03</rscale>
<asrwt>0</asrwt>
<pdfrwt beam="1">  1       21 0.75513282E-01 0.25616806E+03</pdfrwt>
<pdfrwt beam="2">  1        3 0.76645231E-01 0.25616806E+03</pdfrwt>
<totfact> 0.12419561E+02</totfact>
</mgrwt>
</event>
<event>
 4    0  0.1459677E-001  0.2561327E+03  0.7546771E-02  0.1109489E+00
          1   -1    0    0  502    0 -0.00000000000E+00  0.00000000000E+00  0.12426633667E+04  0.12426633667E+04  0.00000000000E+00 0.  1.
         21   -1    0    0  501  502  0.00000000000E+00 -0.00000000000E+00 -0.52696535056E+02  0.52696535056E+02  0.00000000000E+00 0.  1.
         25    1    1    2    0    0  0.21918845714E+03 -0.43993226145E+02  0.40515085833E+03  0.47932369198E+03  0.12500000000E+03 0.  0.
          1    1    1    2  501    0 -0.21918845714E+03  0.43993226145E+02  0.78481597330E+03  0.81603620976E+03  0.00000000000E+00 0.  1.
<mgrwt>
<rscale>  3 0.25613275E+03</rscale>
<asrwt>0</asrwt>
<pdfrwt beam="1">  1       21 0.81071601E-02 0.25613275E+03</pdfrwt>
<pdfrwt beam="2">  1        1 0.19117896E+00 0.25613275E+03</pdfrwt>
<totfact> 0.13939569E+04</totfact>
</mgrwt>
</event>
<event>
 4    0  0.1329000E-001  0.2465675E+03  0.7546771E-02  0.1115494E+00
         21   -1    0    0  501  502  0.00000000000E+00  0.00000000000E+00  0.78997937430E+02  0.78997937430E+02  0.00000000000E+00 0.  1.
          3   -1    0    0  502    0 -0.00000000000E+00 -0.00000000000E+00 -0.18490746071E+04  0.18490746071E+04  0.00000000000E+00 0.  1.
         25    1    1    2    0    0  0.19305209980E+03 -0.88889790076E+02 -0.13868316485E+03  0.28289313924E+03  0.12500000000E+03 0.  0.
          3    1    1    2  501    0 -0.19305209980E+03  0.88889790076E+02 -0.16313935048E+04  0.16451794053E+04  0.00000000000E+00 0.  1.
<mgrwt>
<rscale>  3 0.24656745E+03</rscale>
<asrwt>0</asrwt>
<pdfrwt beam="1">  1       21 0.12153529E-01 0.24656745E+03</pdfrwt>
<pdfrwt beam="2">  1        3 0.28447301E+00 0.24656745E+03</pdfrwt>
<totfact> 0.15210265E+02</totfact>
</mgrwt>
</event>
<event>
 4    0  0.1482503E-001  0.2416551E+03  0.7546771E-02  0.1118695E+00
          1   -1    0    0  502    0 -0.00000000000E+00  0.00000000000E+00  0.16067176744E+04  0.16067176744E+04  0.00000000000E+00 0. -1.
         21   -1    0    0  501  502  0.00000000000E+00 -0.00000000000E+00 -0.41141984979E+02  0.41141984979E+02  0.00000000000E+00 0. -1.
         25    1    1    2    0    0 -0.20582634925E+03 -0.20191429898E+02  0.42687098703E+03  0.49052626785E+03  0.12500000000E+03 0.  0.
          1    1    1    2  501    0  0.20582634925E+03  0.20191429898E+02  0.11387047024E+04  0.11573333916E+04  0.00000000000E+00 0. -1.
<mgrwt>
<rscale>  3 0.24165508E+03</rscale>
<asrwt>0</asrwt>
<pdfrwt beam="1">  1       21 0.63295374E-02 0.24165508E+03</pdfrwt>
<pdfrwt beam="2">  1        1 0.24718729E+00 0.24165508E+03</pdfrwt>
<totfact> 0.12269163E+04</totfact>
</mgrwt>
</event>
<event>
 4    0  0.1485600E-001  0.2498194E+03  0.7546771E-02  0.1113419E+00
         21   -1    0    0  501  502  0.00000000000E+00  0.00000000000E+00  0.14623124673E+03  0.14623124673E+03  0.00000000000E+00 0.  1.
          2   -1    0    0  502    0 -0.00000000000E+00 -0.00000000000E+00 -0.68998382856E+03  0.68998382856E+03  0.00000000000E+00 0.  1.
         25    1    1    2    0    0  0.20007891620E+03  0.82177754272E+02  0.12897765026E+01  0.24982277624E+03  0.12500000000E+03 0.  0.
          2    1    1    2  501    0 -0.20007891620E+03 -0.82177754272E+02 -0.54504235834E+03  0.58639229905E+03  0.00000000000E+00 0.  1.
<mgrwt>
<rscale>  3 0.24981945E+03</rscale>
<asrwt>0</asrwt>
<pdfrwt beam="1">  1       21 0.22497115E-01 0.24981945E+03</pdfrwt>
<pdfrwt beam="2">  1        2 0.10615136E+00 0.24981945E+03</pdfrwt>
<totfact> 0.98178292E+03</totfact>
</mgrwt>
</event>
<event>
 4    0  0.1002184E-001  0.3787587E+03  0.7546771E-02  0.1051394E+00
         21   -1    0    0  501  502  0.00000000000E+00  0.00000000000E+00  0.32306942909E+03  0.32306942909E+03  0.00000000000E+00 0. -1.
          2   -1    0    0  502    0 -0.00000000000E+00 -0.00000000000E+00 -0.27948597184E+04  0.27948597184E+04  0.00000000000E+00 0. -1.
         25    1    1    2    0    0  0.28692678806E+03  0.21332172014E+03  0.19587579389E+03  0.42640997247E+03  0.12500000000E+03 0.  0.
          2    1    1    2  501    0 -0.28692678806E+03 -0.21332172014E+03 -0.26676660832E+04  0.26915191750E+04  0.00000000000E+00 0. -1.
<mgrwt>
<rscale>  3 0.37875868E+03</rscale>
<asrwt>0</asrwt>
<pdfrwt beam="1">  1       21 0.49702991E-01 0.37875868E+03</pdfrwt>
<pdfrwt beam="2">  1        2 0.42997840E+00 0.37875868E+03</pdfrwt>
<totfact> 0.12164947E+02</totfact>
</mgrwt>
</event>
<event>
 4    0  0.1002184E-001  0.3277710E+03  0.7546771E-02  0.1072127E+00
          2   -1    0    0  502    0 -0.00000000000E+00  0.00000000000E+00  0.64114361124E+03  0.64114361124E+03  0.00000000000E+00 0. -1.
         21   -1    0    0  501  502  0.00000000000E+00 -0.00000000000E+00 -0.21783012276E+03  0.21783012276E+03  0.00000000000E+00 0.  1.
         25    1    1    2    0    0 -0.30298020714E+03  0.34373831096E+01 -0.12698396418E+02  0.32801687577E+03  0.12500000000E+03 0.  0.
          2    1    1    2  501    0  0.30298020714E+03 -0.34373831096E+01  0.43601188490E+03  0.53095685823E+03  0.00000000000E+00 0. -1.
<mgrwt>
<rscale>  3 0.32777099E+03</rscale>
<asrwt>0</asrwt>
<pdfrwt beam="1">  1       21 0.33512327E-01 0.32777099E+03</pdfrwt>
<pdfrwt beam="2">  1        2 0.98637478E-01 0.32777099E+03</pdfrwt>
<totfact> 0.48495607E+03</totfact>
</mgrwt>
</event>
<event>
 4    0  0.1362563E-001  0.3285948E+03  0.7546771E-02  0.1071760E+00
         21   -1    0    0  501  502  0.00000000000E+00  0.00000000000E+00  0.17656326270E+04  0.17656326270E+04  0.00000000000E+00 0. -1.
          2   -1    0    0  502    0 -0.00000000000E+00 -0.00000000000E+00 -0.97067343059E+03  0.97067343059E+03  0.00000000000E+00 0.  1.
         25    1    1    2    0    0  0.29904936076E+03 -0.54028025894E+02  0.17259611651E+04  0.17569622908E+04  0.12500000000E+03 0.  0.
          2    1    1    2  501    0 -0.29904936076E+03  0.54028025894E+02 -0.93100196873E+03  0.97934376678E+03  0.00000000000E+00 0.  1.
<mgrwt>
<rscale>  3 0.32859481E+03</rscale>
<asrwt>0</asrwt>
<pdfrwt beam="1">  1       21 0.27163579E+00 0.32859481E+03</pdfrwt>
<pdfrwt beam="2">  1        2 0.14933437E+00 0.32859481E+03</pdfrwt>
<totfact> 0.14982241E+01</totfact>
</mgrwt>
</event>
<event>
 4    0  0.1342888E-001  0.2369919E+03  0.7546771E-02  0.1121813E+00
          2   -1    0    0  502    0 -0.00000000000E+00  0.00000000000E+00  0.10015616399E+04  0.10015616399E+04  0.00000000000E+00 0. -1.
         21   -1    0    0  501  502  0.00000000000E+00 -0.00000000000E+00 -0.99028263090E+02  0.99028263090E+02  0.00000000000E+00 0. -1.
         25    1    1    2    0    0 -0.11203503721E+03 -0.16729706830E+03  0.74496399911E+02  0.24842478182E+03  0.12500000000E+03 0.  0.
          2    1    1    2  501    0  0.11203503721E+03  0.16729706830E+03  0.82803697689E+03  0.85216512116E+03  0.00000000000E+00 0. -1.
<mgrwt>
<rscale>  3 0.23699190E+03</rscale>
<asrwt>0</asrwt>
<pdfrwt beam="1">  1       21 0.15235118E-01 0.23699190E+03</pdfrwt>
<pdfrwt beam="2">  1        2 0.15408640E+00 0.23699190E+03</pdfrwt>
<totfact> 0.12554778E+04</totfact>
</mgrwt>
</event>
<event>
 4    0  0.1238382E-001  0.2740596E+03  0.7546771E-02  0.1098978E+00
          2   -1    0    0  502    0 -0.00000000000E+00  0.00000000000E+00  0.83102753875E+03  0.83102753875E+03  0.00000000000E+00 0.  1.
         21   -1    0    0  501  502  0.00000000000E+00 -0.00000000000E+00 -0.15459108056E+03  0.15459108056E+03  0.00000000000E+00 0. -1.
         25    1    1    2    0    0 -0.17506535378E+03  0.16981105449E+03  0.81087844886E+01  0.27417954830E+03  0.12500000000E+03 0.  0.
          2    1    1    2  501    0  0.17506535378E+03 -0.16981105449E+03  0.66832767370E+03  0.71143907101E+03  0.00000000000E+00 0.  1.
<mgrwt>
<rscale>  3 0.27405961E+03</rscale>
<asrwt>0</asrwt>
<pdfrwt beam="1">  1       21 0.23783244E-01 0.27405961E+03</pdfrwt>
<pdfrwt beam="2">  1        2 0.12785039E+00 0.27405961E+03</pdfrwt>
<totfact> 0.69552025E+03</totfact>
</mgrwt>
</event>
<event>
 4    0  0.1497174E-001  0.2562885E+03  0.7546771E-02  0.1109394E+00
          2   -1    0    0  502    0 -0.00000000000E+00  0.00000000000E+00  0.70477540948E+03  0.70477540948E+03  0.00000000000E+00 0. -1.
         21   -1    0    0  501  502  0.00000000000E+00 -0.00000000000E+00 -0.10572693934E+03  0.10572693934E+03  0.00000000000E+00 0. -1.
         25    1    1    2    0    0  0.22373165079E+03  0.17142134842E+01  0.12253127886E+03  0.28407341374E+03  0.12500000000E+03 0.  0.
          2    1    1    2  501    0 -0.22373165079E+03 -0.17142134842E+01  0.47651719128E+03  0.52642893507E+03  0.00000000000E+00 0. -1.
<mgrwt>
<rscale>  3 0.25628849E+03</rscale>
<asrwt>0</asrwt>
<pdfrwt beam="1">  1       21 0.16265683E-01 0.25628849E+03</pdfrwt>
<pdfrwt beam="2">  1        2 0.10842698E+00 0.25628849E+03</pdfrwt>
<totfact> 0.17537040E+04</totfact>
</mgrwt>
</event>
<event>
 4    0  0.1002184E-001  0.2411209E+03  0.7546771E-02  0.1119048E+00
          1   -1    0    0  502    0 -0.00000000000E+00  0.00000000000E+00  0.52837856311E+03  0.52837856311E+03  0.00000000000E+00 0.  1.
         21   -1    0    0  501  502  0.00000000000E+00 -0.00000000000E+00 -0.13326035136E+03  0.13326035136E+03  0.00000000000E+00 0. -1.
         25    1    1    2    0    0  0.15723900272E+03  0.13337981920E+03  0.30881196719E+02  0.24309037097E+03  0.12500000000E+03 0.  0.
          1    1    1    2  501    0 -0.15723900272E+03 -0.13337981920E+03  0.36423701504E+03  0.41854854350E+03  0.00000000000E+00 0.  1.
<mgrwt>
<rscale>  3 0.24112088E+03</rscale>
<asrwt>0</asrwt>
<pdfrwt beam="1">  1       21 0.20501593E-01 0.24112088E+03</pdfrwt>
<pdfrwt beam="2">  1        1 0.81289008E-01 0.24112088E+03</pdfrwt>
<totfact> 0.10111015E+04</totfact>
</mgrwt>
</event>
<event>
 4    0  0.1355799E-001  0.2450394E+03  0.7546771E-02  0.1116481E+00
         21   -1    0    0  501  502  0.00000000000E+00  0.00000000000E+00  0.95939101867E+02  0.95939101867E+02  0.00000000000E+00 0. -1.
          2   -1    0    0  502    0 -0.00000000000E+00 -0.00000000000E+00 -0.16001718547E+04  0.16001718547E+04  0.00000000000E+00 0. -1.
         25    1    1    2    0    0 -0.18862897845E+03 -0.94012885806E+02 -0.82072495160E+02  0.25841866935E+03  0.12500000000E+03 0.  0.
          2    1    1    2  501    0  0.18862897845E+03  0.94012885806E+02 -0.14221602577E+04  0.14376922872E+04  0.00000000000E+00 0. -1.
<mgrwt>
<rscale>  3 0.24503941E+03</rscale>
<asrwt>0</asrwt>
<pdfrwt beam="1">  1       21 0.14759863E-01 0.24503941E+03</pdfrwt>
<pdfrwt beam="2">  1        2 0.24618027E+00 0.24503941E+03</pdfrwt>
<totfact> 0.61485537E+03</totfact>
</mgrwt>
</event>
<event>
 4    0  0.1002184E-001  0.2443235E+03  0.7546771E-02  0.1116946E+00
         21   -1    0    0  501  502  0.00000000000E+00  0.00000000000E+00  0.90706246553E+03  0.90706246553E+03  0.00000000000E+00 0.  1.
         -4   -1    0    0    0  501 -0.00000000000E+00 -0.00000000000E+00 -0.30292909980E+03  0.30292909980E+03  0.00000000000E+00 0. -1.
         25    1    1    2    0    0  0.20260845921E+03 -0.54943295847E+02  0.85132349977E+03  0.88568936697E+03  0.12500000000E+03 0.  0.
         -4    1    1    2    0  502 -0.20260845921E+03  0.54943295847E+02 -0.24719013404E+03  0.32430219837E+03  0.00000000000E+00 0. -1.
<mgrwt>
<rscale>  3 0.24432346E+03</rscale>
<asrwt>0</asrwt>
<pdfrwt beam="1">  1       21 0.13954807E+00 0.24432346E+03</pdfrwt>
<pdfrwt beam="2">  1       -4 0.46604477E-01 0.24432346E+03</pdfrwt>
<totfact> 0.66693380E+01</totfact>
</mgrwt>
</event>
<event>
 4    0  0.1002184E-001  0.2730723E+03  0.7546771E-02  0.1099534E+00
          2   -1    0    0  502    0 -0.00000000000E+00  0.00000000000E+00  0.19016231901E+04  0.19016231901E+04  0.00000000000E+00 0.  1.
         21   -1    0    0  501  502  0.00000000000E+00 -0.00000000000E+00 -0.35762795108E+02  0.35762795108E+02  0.00000000000E+00 0. -1.
         25    1    1    2    0    0  0.21955979177E+03  0.10361945282E+03  0.11292127262E+04  0.11617615393E+04  0.12500000000E+03 0.  0.
          2    1    1    2  501    0 -0.21955979177E+03 -0.10361945282E+03  0.73664766873E+03  0.77562444585E+03  0.00000000000E+00 0.  1.
<mgrwt>
<rscale>  3 0.27307232E+03</rscale>
<asrwt>0</asrwt>
<pdfrwt beam="1">  1       21 0.55019700E-02 0.27307232E+03</pdfrwt>
<pdfrwt beam="2">  1        2 0.29255734E+00 0.27307232E+03</pdfrwt>
<totfact> 0.24232309E+04</totfact>
</mgrwt>
</event>
<event>
 4    0  0.1191291E-001  0.3382714E+03  0.7546771E-02  0.1067535E+00
          2   -1    0    0  502    0 -0.00000000000E+00  0.00000000000E+00  0.23554232847E+03  0.23554232847E+03  0.00000000000E+00 0. -1.
         21   -1    0    0  501  502  0.00000000000E+00 -0.00000000000E+00 -0.51107181144E+03  0.51107181144E+03  0.00000000000E+00 0. -1.
         25    1    1    2    0    0 -0.31105254323E+03  0.45264339911E+02 -0.26904520881E+03  0.43221854368E+03  0.12500000000E+03 0.  0.
          2    1    1    2  501    0  0.31105254323E+03 -0.45264339911E+02 -0.64842741583E+01  0.31439559623E+03  0.00000000000E+00 0. -1.
<mgrwt>
<rscale>  3 0.33827141E+03</rscale>
<asrwt>0</asrwt>
<pdfrwt beam="1">  1       21 0.78626432E-01 0.33827141E+03</pdfrwt>
<pdfrwt beam="2">  1        2 0.36237282E-01 0.33827141E+03</pdfrwt>
<totfact> 0.24046710E+03</totfact>
</mgrwt>
</event>
<event>
 4    0  0.1002184E-001  0.2374113E+03  0.7546771E-02  0.1121529E+00
         21   -1    0    0  501  502  0.00000000000E+00  0.00000000000E+00  0.47457374248E+03  0.47457374248E+03  0.00000000000E+00 0.  1.
          2   -1    0    0  502    0 -0.00000000000E+00 -0.00000000000E+00 -0.29168858925E+03  0.29168858925E+03  0.00000000000E+00 0.  1.
         25    1    1    2    0    0  0.19225246082E+03 -0.61466517519E+02  0.40292743184E+03  0.46766938834E+03  0.12500000000E+03 0.  0.
          2    1    1    2  501    0 -0.19225246082E+03  0.61466517519E+02 -0.22004227860E+03  0.29859294338E+03  0.00000000000E+00 0.  1.
<mgrwt>
<rscale>  3 0.23741133E+03</rscale>
<asrwt>0</asrwt>
<pdfrwt beam="1">  1       21 0.73011345E-01 0.23741133E+03</pdfrwt>
<pdfrwt beam="2">  1        2 0.44875168E-01 0.23741133E+03</pdfrwt>
<totfact> 0.23190467E+03</totfact>
</mgrwt>
</event>
<event>
 4    0  0.1002184E-001  0.2388244E+03  0.7546771E-02  0.1120578E+00
          2   -1    0    0  502    0 -0.00000000000E+00  0.00000000000E+00  0.26962039734E+04  0.26962039734E+04  0.00000000000E+00 0. -1.
         21   -1    0    0  501  502  0.00000000000E+00 -0.00000000000E+00 -0.17773215074E+03  0.17773215074E+03  0.00000000000E+00 0. -1.
         25    1    1    2    0    0  0.19980250612E+03 -0.38613896522E+02 -0.91714316614E+02  0.25582922102E+03  0.12500000000E+03 0.  0.
          2    1    1    2  501    0 -0.19980250612E+03  0.38613896522E+02  0.26101861392E+04  0.26181069031E+04  0.00000000000E+00 0. -1.
<mgrwt>
<rscale>  3 0.23882436E+03</rscale>
<asrwt>0</asrwt>
<pdfrwt beam="1">  1       21 0.27343410E-01 0.23882436E+03</pdfrwt>
<pdfrwt beam="2">  1        2 0.41480058E+00 0.23882436E+03</pdfrwt>
<totfact> 0.50368790E+02</totfact>
</mgrwt>
</event>
<event>
 4    0  0.1314842E-001  0.2457466E+03  0.7546771E-02  0.1116023E+00
          2   -1    0    0  502    0 -0.00000000000E+00  0.00000000000E+00  0.37743224695E+03  0.37743224695E+03  0.00000000000E+00 0. -1.
         21   -1    0    0  501  502  0.00000000000E+00 -0.00000000000E+00 -0.15352137329E+03  0.15352137329E+03  0.00000000000E+00 0. -1.
         25    1    1    2    0    0 -0.14434022624E+03  0.15470065310E+03  0.36763194007E+02  0.24848123755E+03  0.12500000000E+03 0.  0.
          2    1    1    2  501    0  0.14434022624E+03 -0.15470065310E+03  0.18714767965E+03  0.28247238269E+03  0.00000000000E+00 0. -1.
<mgrwt>
<rscale>  3 0.24574660E+03</rscale>
<asrwt>0</asrwt>
<pdfrwt beam="1">  1       21 0.23618673E-01 0.24574660E+03</pdfrwt>
<pdfrwt beam="2">  1        2 0.58066499E-01 0.24574660E+03</pdfrwt>
<totfact> 0.17740865E+04</totfact>
</mgrwt>
</event>
<event>
 4    0  0.1002184E-001  0.2541562E+03  0.7546771E-02  0.1110706E+00
         21   -1    0    0  501  502  0.00000000000E+00  0.00000000000E+00  0.30797662580E+03  0.30797662580E+03  0.00000000000E+00 0.  1.
          2   -1    0    0  502    0 -0.00000000000E+00 -0.00000000000E+00 -0.28819152523E+04  0.28819152523E+04  0.00000000000E+00 0.  1.
         25    1    1    2    0    0  0.11631251009E+03  0.18825989440E+03  0.25046601373E+03  0.35683134935E+03  0.12500000000E+03 0.  0.
          2    1    1    2  501    0 -0.11631251009E+03 -0.18825989440E+03 -0.28244046402E+04  0.28330605288E+04  0.00000000000E+00 0.  1.
<mgrwt>
<rscale>  3 0.25415623E+03</rscale>
<asrwt>0</asrwt>
<pdfrwt beam="1">  1       21 0.47381020E-01 0.25415623E+03</pdfrwt>
<pdfrwt beam="2">  1        2 0.44337158E+00 0.25415623E+03</pdfrwt>
<totfact> 0.12955668E+02</totfact>
</mgrwt>
</event>
<event>
 4    0  0.1037143E-001  0.2387216E+03  0.7546771E-02  0.1120647E+00
          2   -1    0    0  502    0 -0.00000000000E+00  0.00000000000E+00  0.70090775602E+03  0.70090775602E+03  0.00000000000E+00 0. -1.
         21   -1    0    0  501  502  0.00000000000E+00 -0.00000000000E+00 -0.12153061586E+03  0.12153061586E+03  0.00000000000E+00 0.  1.
         25    1    1    2    0    0 -0.18982669892E+01  0.20337007239E+03  0.34953345623E+02  0.24126691885E+03  0.12500000000E+03 0.  0.
          2    1    1    2  501    0  0.18982669892E+01 -0.20337007239E+03  0.54442379453E+03  0.58117145303E+03  0.00000000000E+00 0. -1.
<mgrwt>
<rscale>  3 0.23872157E+03</rscale>
<asrwt>0</asrwt>
<pdfrwt beam="1">  1       21 0.18697018E-01 0.23872157E+03</pdfrwt>
<pdfrwt beam="2">  1        2 0.10783196E+00 0.23872157E+03</pdfrwt>
<totfact> 0.13679820E+04</totfact>
</mgrwt>
</event>
<event>
 4    0  0.1295650E-001  0.3478112E+03  0.7546771E-02  0.1063517E+00
         21   -1    0    0  501  502  0.00000000000E+00  0.00000000000E+00  0.18093890413E+03  0.18093890413E+03  0.00000000000E+00 0.  1.
          1   -1    0    0  502    0 -0.00000000000E+00 -0.00000000000E+00 -0.22947659383E+04  0.22947659383E+04  0.00000000000E+00 0. -1.
         25    1    1    2    0    0  0.31588190833E+03 -0.74607243446E+02 -0.11009284734E+02  0.34798538063E+03  0.12500000000E+03 0.  0.
          1    1    1    2  501    0 -0.31588190833E+03  0.74607243446E+02 -0.21028177495E+04  0.21277194618E+04  0.00000000000E+00 0. -1.
<mgrwt>
<rscale>  3 0.34781119E+03</rscale>
<asrwt>0</asrwt>
<pdfrwt beam="1">  1       21 0.27836756E-01 0.34781119E+03</pdfrwt>
<pdfrwt beam="2">  1        1 0.35304090E+00 0.34781119E+03</pdfrwt>
<totfact> 0.27941005E+02</totfact>
</mgrwt>
</event>
<event>
 4    0  0.1254087E-001  0.2538864E+03  0.7546771E-02  0.1110873E+00
          2   -1    0    0  502    0 -0.00000000000E+00  0.00000000000E+00  0.21121740604E+04  0.21121740604E+04  0.00000000000E+00 0.  1.
         21   -1    0    0  501  502  0.00000000000E+00 -0.00000000000E+00 -0.27968060966E+03  0.27968060966E+03  0.00000000000E+00 0.  1.
         25    1    1    2    0    0  0.13078446238E+03 -0.17812565195E+03 -0.21486561762E+03  0.33260420490E+03  0.12500000000E+03 0.  0.
          2    1    1    2  501    0 -0.13078446238E+03  0.17812565195E+03  0.20473590684E+04  0.20592504652E+04  0.00000000000E+00 0.  1.
<mgrwt>
<rscale>  3 0.25388644E+03</rscale>
<asrwt>0</asrwt>
<pdfrwt beam="1">  1       21 0.43027788E-01 0.25388644E+03</pdfrwt>
<pdfrwt beam="2">  1        2 0.32494984E+00 0.25388644E+03</pdfrwt>
<totfact> 0.41843912E+02</totfact>
</mgrwt>
</event>
<event>
 4    0  0.1163922E-001  0.2422550E+03  0.7546771E-02  0.1118300E+00
         21   -1    0    0  501  502  0.00000000000E+00  0.00000000000E+00  0.19464117689E+03  0.19464117689E+03  0.00000000000E+00 0.  1.
          1   -1    0    0  502    0 -0.00000000000E+00 -0.00000000000E+00 -0.73663725327E+03  0.73663725327E+03  0.00000000000E+00 0.  1.
         25    1    1    2    0    0  0.18995634046E+03 -0.83540820981E+02  0.95847961322E+02  0.26052698851E+03  0.12500000000E+03 0.  0.
          1    1    1    2  501    0 -0.18995634046E+03  0.83540820981E+02 -0.63784403770E+03  0.67075144165E+03  0.00000000000E+00 0.  1.
<mgrwt>
<rscale>  3 0.24225499E+03</rscale>
<asrwt>0</asrwt>
<pdfrwt beam="1">  1       21 0.29944796E-01 0.24225499E+03</pdfrwt>
<pdfrwt beam="2">  1        1 0.11332881E+00 0.24225499E+03</pdfrwt>
<totfact> 0.30592261E+03</totfact>
</mgrwt>
</event>
<event>
 4    0  0.1536003E-001  0.2486741E+03  0.7546771E-02  0.1114146E+00
         21   -1    0    0  501  502  0.00000000000E+00  0.00000000000E+00  0.41557528324E+03  0.41557528324E+03  0.00000000000E+00 0.  1.
         -3   -1    0    0    0  501 -0.00000000000E+00 -0.00000000000E+00 -0.13004958166E+03  0.13004958166E+03  0.00000000000E+00 0.  1.
         25    1    1    2    0    0 -0.17375586275E+03  0.12658083901E+03  0.17345495794E+03  0.30319206962E+03  0.12500000000E+03 0.  0.
         -3    1    1    2    0  502  0.17375586275E+03 -0.12658083901E+03  0.11207074364E+03  0.24243279528E+03  0.00000000000E+00 0.  1.
<mgrwt>
<rscale>  3 0.24867410E+03</rscale>
<asrwt>0</asrwt>
<pdfrwt beam="1">  1       21 0.63934658E-01 0.24867410E+03</pdfrwt>
<pdfrwt beam="2">  1       -3 0.20007628E-01 0.24867410E+03</pdfrwt>
<totfact> 0.24906165E+03</totfact>
</mgrwt>
</event>
<event>
 4    0  0.1517454E-001  0.2901814E+03  0.7546771E-02  0.1090254E+00
         21   -1    0    0  501  502  0.00000000000E+00  0.00000000000E+00  0.70759360688E+02  0.70759360688E+02  0.00000000000E+00 0.  1.
          2   -1    0    0  502    0 -0.00000000000E+00 -0.00000000000E+00 -0.12626247198E+04  0.12626247198E+04  0.00000000000E+00 0.  1.
         25    1    1    2    0    0  0.23496211573E+03 -0.11564184628E+03 -0.36649891740E+03  0.46746838277E+03  0.12500000000E+03 0.  0.
          2    1    1    2  501    0 -0.23496211573E+03  0.11564184628E+03 -0.82536644170E+03  0.86591569770E+03  0.00000000000E+00 0.  1.
<mgrwt>
<rscale>  3 0.29018138E+03</rscale>
<asrwt>0</asrwt>
<pdfrwt beam="1">  1       21 0.10886055E-01 0.29018138E+03</pdfrwt>
<pdfrwt beam="2">  1        2 0.19424996E+00 0.29018138E+03</pdfrwt>
<totfact> 0.16063638E+04</totfact>
</mgrwt>
</event>
<event>
 4    0  0.1054492E-001  0.2466595E+03  0.7546771E-02  0.1115434E+00
          2   -1    0    0  502    0 -0.00000000000E+00  0.00000000000E+00  0.20065766902E+03  0.20065766902E+03  0.00000000000E+00 0.  1.
         21   -1    0    0  501  502  0.00000000000E+00 -0.00000000000E+00 -0.33068720098E+03  0.33068720098E+03  0.00000000000E+00 0.  1.
         25    1    1    2    0    0 -0.18140464774E+03  0.11094256836E+03 -0.18892563858E+03  0.31069888415E+03  0.12500000000E+03 0.  0.
          2    1    1    2  501    0  0.18140464774E+03 -0.11094256836E+03  0.58896106620E+02  0.22064598585E+03  0.00000000000E+00 0.  1.
<mgrwt>
<rscale>  3 0.24665948E+03</rscale>
<asrwt>0</asrwt>
<pdfrwt beam="1">  1       21 0.50874954E-01 0.24665948E+03</pdfrwt>
<pdfrwt beam="2">  1        2 0.30870411E-01 0.24665948E+03</pdfrwt>
<totfact> 0.75962946E+03</totfact>
</mgrwt>
</event>
<event>
 4    0  0.1293621E-001  0.2687653E+03  0.7546771E-02  0.1101988E+00
          1   -1    0    0  502    0 -0.00000000000E+00  0.00000000000E+00  0.59506929691E+03  0.59506929691E+03  0.00000000000E+00 0.  1.
         21   -1    0    0  501  502  0.00000000000E+00 -0.00000000000E+00 -0.33199637731E+03  0.33199637731E+03  0.00000000000E+00 0. -1.
         25    1    1    2    0    0  0.14476053944E+03  0.18882319093E+03 -0.24649702295E+03  0.36468560917E+03  0.12500000000E+03 0.  0.
          1    1    1    2  501    0 -0.14476053944E+03 -0.18882319093E+03  0.50956994255E+03  0.56238006505E+03  0.00000000000E+00 0.  1.
<mgrwt>
<rscale>  3 0.26876535E+03</rscale>
<asrwt>0</asrwt>
<pdfrwt beam="1">  1       21 0.51076366E-01 0.26876535E+03</pdfrwt>
<pdfrwt beam="2">  1        1 0.91549123E-01 0.26876535E+03</pdfrwt>
<totfact> 0.13930610E+03</totfact>
</mgrwt>
</event>
<event>
 4    0  0.1002184E-001  0.2665227E+03  0.7546771E-02  0.1103286E+00
         21   -1    0    0  501  502  0.00000000000E+00  0.00000000000E+00  0.11944095743E+03  0.11944095743E+03  0.00000000000E+00 0. -1.
          1   -1    0    0  502    0 -0.00000000000E+00 -0.00000000000E+00 -0.35939399845E+04  0.35939399845E+04  0.00000000000E+00 0.  1.
         25    1    1    2    0    0  0.22726992835E+03 -0.61300305792E+02 -0.38454103650E+02  0.26928250205E+03  0.12500000000E+03 0.  0.
          1    1    1    2  501    0 -0.22726992835E+03  0.61300305792E+02 -0.34360449234E+04  0.34440984399E+04  0.00000000000E+00 0.  1.
<mgrwt>
<rscale>  3 0.26652270E+03</rscale>
<asrwt>0</asrwt>
<pdfrwt beam="1">  1       21 0.18375534E-01 0.26652270E+03</pdfrwt>
<pdfrwt beam="2">  1        1 0.55291380E+00 0.26652270E+03</pdfrwt>
<totfact> 0.79012016E+01</totfact>
</mgrwt>
</event>
<event>
 4    0  0.1002184E-001  0.2625203E+03  0.7546771E-02  0.1105638E+00
         21   -1    0    0  501  502  0.00000000000E+00  0.00000000000E+00  0.76966308590E+02  0.76966308590E+02  0.00000000000E+00 0. -1.
          4   -1    0    0  502    0 -0.00000000000E+00 -0.00000000000E+00 -0.79642487933E+03  0.79642487933E+03  0.00000000000E+00 0.  1.
         25    1    1    2    0    0 -0.18006056216E+03 -0.14446495780E+03 -0.41975162654E+03  0.49508419290E+03  0.12500000000E+03 0.  0.
          4    1    1    2  501    0  0.18006056216E+03  0.14446495780E+03 -0.29970694420E+03  0.37830699502E+03  0.00000000000E+00 0.  1.
<mgrwt>
<rscale>  3 0.26252034E+03</rscale>
<asrwt>0</asrwt>
<pdfrwt beam="1">  1       21 0.11840971E-01 0.26252034E+03</pdfrwt>
<pdfrwt beam="2">  1        4 0.12252690E+00 0.26252034E+03</pdfrwt>
<totfact> 0.13358474E+03</totfact>
</mgrwt>
</event>
<event>
 4    0  0.1002184E-001  0.3697633E+03  0.7546771E-02  0.1054784E+00
         21   -1    0    0  501  502  0.00000000000E+00  0.00000000000E+00  0.63125666127E+02  0.63125666127E+02  0.00000000000E+00 0.  1.
          2   -1    0    0  502    0 -0.00000000000E+00 -0.00000000000E+00 -0.25493813778E+04  0.25493813778E+04  0.00000000000E+00 0. -1.
         25    1    1    2    0    0  0.31091646267E+03 -0.15630362151E+03 -0.68978538440E+03  0.78264215667E+03  0.12500000000E+03 0.  0.
          2    1    1    2  501    0 -0.31091646267E+03  0.15630362151E+03 -0.17964703273E+04  0.18298648872E+04  0.00000000000E+00 0. -1.
<mgrwt>
<rscale>  3 0.36976326E+03</rscale>
<asrwt>0</asrwt>
<pdfrwt beam="1">  1       21 0.97116431E-02 0.36976326E+03</pdfrwt>
<pdfrwt beam="2">  1        2 0.39221243E+00 0.36976326E+03</pdfrwt>
<totfact> 0.39069898E+03</totfact>
</mgrwt>
</event>
<event>
 4    0  0.1075086E-001  0.2988256E+03  0.7546771E-02  0.1085829E+00
         -4   -1    0    0    0  501 -0.00000000000E+00  0.00000000000E+00  0.51815008915E+03  0.51815008915E+03  0.00000000000E+00 0.  1.
         21   -1    0    0  501  502  0.00000000000E+00 -0.00000000000E+00 -0.40242644025E+03  0.40242644025E+03  0.00000000000E+00 0. -1.
         25    1    1    2    0    0  0.14246728086E+03  0.23102989260E+03 -0.30042461232E+03  0.42373539513E+03  0.12500000000E+03 0.  0.
         -4    1    1    2    0  502 -0.14246728086E+03 -0.23102989260E+03  0.41614826122E+03  0.49684113428E+03  0.00000000000E+00 0.  1.
<mgrwt>
<rscale>  3 0.29882560E+03</rscale>
<asrwt>0</asrwt>
<pdfrwt beam="1">  1       21 0.61911760E-01 0.29882560E+03</pdfrwt>
<pdfrwt beam="2">  1       -4 0.79715398E-01 0.29882560E+03</pdfrwt>
<totfact> 0.14300380E+02</totfact>
</mgrwt>
</event>
<event>
 4    0  0.1570848E-001  0.2854220E+03  0.7546771E-02  0.1092764E+00
          2   -1    0    0  502    0 -0.00000000000E+00  0.00000000000E+00  0.86665762973E+03  0.86665762973E+03  0.00000000000E+00 0.  1.
         21   -1    0    0  501  502  0.00000000000E+00 -0.00000000000E+00 -0.11827479444E+03  0.11827479444E+03  0.00000000000E+00 0.  1.
         25    1    1    2    0    0 -0.25613241270E+03  0.15392582706E+02  0.12651183673E+03  0.31220344211E+03  0.12500000000E+03 0.  0.
          2    1    1    2  501    0  0.25613241270E+03 -0.15392582706E+02  0.62187099856E+03  0.67272898205E+03  0.00000000000E+00 0.  1.
<mgrwt>
<rscale>  3 0.28542205E+03</rscale>
<asrwt>0</asrwt>
<pdfrwt beam="1">  1       21 0.18196123E-01 0.28542205E+03</pdfrwt>
<pdfrwt beam="2">  1        2 0.13333194E+00 0.28542205E+03</pdfrwt>
<totfact> 0.10895061E+04</totfact>
</mgrwt>
</event>
<event>
 4    0  0.1550592E-001  0.2878127E+03  0.7546771E-02  0.1091497E+00
          1   -1    0    0  502    0 -0.00000000000E+00  0.00000000000E+00  0.10080575734E+04  0.10080575734E+04  0.00000000000E+00 0. -1.
         21   -1    0    0  501  502  0.00000000000E+00 -0.00000000000E+00 -0.48774361780E+03  0.48774361780E+03  0.00000000000E+00 0. -1.
         25    1    1    2    0    0 -0.13737044549E+03  0.21986477615E+03 -0.42628140458E+03  0.51434618204E+03  0.12500000000E+03 0.  0.
          1    1    1    2  501    0  0.13737044549E+03 -0.21986477615E+03  0.94659536015E+03  0.98145500913E+03  0.00000000000E+00 0. -1.
<mgrwt>
<rscale>  3 0.28781272E+03</rscale>
<asrwt>0</asrwt>
<pdfrwt beam="1">  1       21 0.75037480E-01 0.28781272E+03</pdfrwt>
<pdfrwt beam="2">  1        1 0.15508578E+00 0.28781272E+03</pdfrwt>
<totfact> 0.26547245E+02</totfact>
</mgrwt>
</event>
<event>
 4    0  0.1002184E-001  0.4541214E+03  0.7546771E-02  0.1026500E+00
         21   -1    0    0  501  502  0.00000000000E+00  0.00000000000E+00  0.32644228329E+03  0.32644228329E+03  0.00000000000E+00 0. -1.
          2   -1    0    0  502    0 -0.00000000000E+00 -0.00000000000E+00 -0.19919312502E+04  0.19919312502E+04  0.00000000000E+00 0. -1.
         25    1    1    2    0    0  0.43566784434E+03  0.28192203151E+02  0.12855996405E+03  0.47196815069E+03  0.12500000000E+03 0.  0.
          2    1    1    2  501    0 -0.43566784434E+03 -0.28192203151E+02 -0.17940489310E+04  0.18464053828E+04  0.00000000000E+00 0. -1.
<mgrwt>
<rscale>  3 0.45412143E+03</rscale>
<asrwt>0</asrwt>
<pdfrwt beam="1">  1       21 0.50221890E-01 0.45412143E+03</pdfrwt>
<pdfrwt beam="2">  1        2 0.30645096E+00 0.45412143E+03</pdfrwt>
<totfact> 0.32001255E+02</totfact>
</mgrwt>
</event>
<event>
 4    0  0.1327933E-001  0.3062331E+03  0.7546771E-02  0.1082166E+00
         21   -1    0    0  501  502  0.00000000000E+00  0.00000000000E+00  0.37531034466E+03  0.37531034466E+03  0.00000000000E+00 0. -1.
          1   -1    0    0  502    0 -0.00000000000E+00 -0.00000000000E+00 -0.31558457728E+03  0.31558457728E+03  0.00000000000E+00 0. -1.
         25    1    1    2    0    0 -0.11008960898E+03 -0.25697080787E+03  0.21209417525E+03  0.37250860028E+03  0.12500000000E+03 0.  0.
          1    1    1    2  501    0  0.11008960898E+03  0.25697080787E+03 -0.15236840787E+03  0.31838632166E+03  0.00000000000E+00 0. -1.
<mgrwt>
<rscale>  3 0.30623311E+03</rscale>
<asrwt>0</asrwt>
<pdfrwt beam="1">  1       21 0.57740053E-01 0.30623311E+03</pdfrwt>
<pdfrwt beam="2">  1        1 0.48551473E-01 0.30623311E+03</pdfrwt>
<totfact> 0.24395852E+03</totfact>
</mgrwt>
</event>
<event>
 4    0  0.1002184E-001  0.2806460E+03  0.7546771E-02  0.1095337E+00
         21   -1    0    0  501  502  0.00000000000E+00  0.00000000000E+00  0.57457826622E+02  0.57457826622E+02  0.00000000000E+00 0. -1.
          2   -1    0    0  502    0 -0.00000000000E+00 -0.00000000000E+00 -0.14979437750E+04  0.14979437750E+04  0.00000000000E+00 0.  1.
         25    1    1    2    0    0 -0.11768925855E+03 -0.22200544386E+03 -0.42507629204E+03  0.50936434184E+03  0.12500000000E+03 0.  0.
          2    1    1    2  501    0  0.11768925855E+03  0.22200544386E+03 -0.10154096564E+04  0.10460372598E+04  0.00000000000E+00 0.  1.
<mgrwt>
<rscale>  3 0.28064600E+03</rscale>
<asrwt>0</asrwt>
<pdfrwt beam="1">  1       21 0.88396665E-02 0.28064600E+03</pdfrwt>
<pdfrwt beam="2">  1        2 0.23045286E+00 0.28064600E+03</pdfrwt>
<totfact> 0.17327104E+04</totfact>
</mgrwt>
</event>
<event>
 4    0  0.1206467E-001  0.2880060E+03  0.7546771E-02  0.1091395E+00
         21   -1    0    0  501  502  0.00000000000E+00  0.00000000000E+00  0.10657484467E+04  0.10657484467E+04  0.00000000000E+00 0. -1.
         -2   -1    0    0    0  501 -0.00000000000E+00 -0.00000000000E+00 -0.11666114525E+03  0.11666114525E+03  0.00000000000E+00 0. -1.
         25    1    1    2    0    0  0.15545656894E+03  0.20773946181E+03  0.86180654486E+03  0.90865722337E+03  0.12500000000E+03 0.  0.
         -2    1    1    2    0  502 -0.15545656894E+03 -0.20773946181E+03  0.87280756572E+02  0.27375236855E+03  0.00000000000E+00 0. -1.
<mgrwt>
<rscale>  3 0.28800595E+03</rscale>
<asrwt>0</asrwt>
<pdfrwt beam="1">  1       21 0.16396129E+00 0.28800595E+03</pdfrwt>
<pdfrwt beam="2">  1       -2 0.17947869E-01 0.28800595E+03</pdfrwt>
<totfact> 0.45146685E+02</totfact>
</mgrwt>
</event>
<event>
 4    0  0.1265796E-001  0.2838679E+03  0.7546771E-02  0.1093595E+00
         21   -1    0    0  501  502  0.00000000000E+00  0.00000000000E+00  0.34792836108E+03  0.34792836108E+03  0.00000000000E+00 0. -1.
          1   -1    0    0  502    0 -0.00000000000E+00 -0.00000000000E+00 -0.24175540744E+03  0.24175540744E+03  0.00000000000E+00 0. -1.
         25    1    1    2    0    0  0.25474756173E+03 -0.77242455580E+01  0.16469701729E+03  0.32818606260E+03  0.12500000000E+03 0.  0.
          1    1    1    2  501    0 -0.25474756173E+03  0.77242455580E+01 -0.58524063649E+02  0.26149770592E+03  0.00000000000E+00 0. -1.
<mgrwt>
<rscale>  3 0.28386790E+03</rscale>
<asrwt>0</asrwt>
<pdfrwt beam="1">  1       21 0.53527440E-01 0.28386790E+03</pdfrwt>
<pdfrwt beam="2">  1        1 0.37193140E-01 0.28386790E+03</pdfrwt>
<totfact> 0.40419369E+03</totfact>
</mgrwt>
</event>
<event>
 4    0  0.1002184E-001  0.3507342E+03  0.7546771E-02  0.1062314E+00
          4   -1    0    0  502    0 -0.00000000000E+00  0.00000000000E+00  0.13802918666E+03  0.13802918666E+03  0.00000000000E+00 0.  1.
         21   -1    0    0  501  502  0.00000000000E+00 -0.00000000000E+00 -0.10094240404E+04  0.10094240404E+04  0.00000000000E+00 0. -1.
         25    1    1    2    0    0 -0.23250243586E+03 -0.23093747789E+03 -0.68720373187E+03  0.77153319467E+03  0.12500000000E+03 0.  0.
          4    1    1    2  501    0  0.23250243586E+03  0.23093747789E+03 -0.18419112186E+03  0.37592003238E+03  0.00000000000E+00 0.  1.
<mgrwt>
<rscale>  3 0.35073423E+03</rscale>
<asrwt>0</asrwt>
<pdfrwt beam="1">  1       21 0.15529601E+00 0.35073423E+03</pdfrwt>
<pdfrwt beam="2">  1        4 0.21235259E-01 0.35073423E+03</pdfrwt>
<totfact> 0.22356316E+02</totfact>
</mgrwt>
</event>
<event>
 4    0  0.1002184E-001  0.2635641E+03  0.7546771E-02  0.1105021E+00
         21   -1    0    0  501  502  0.00000000000E+00  0.00000000000E+00  0.21600259192E+04  0.21600259192E+04  0.00000000000E+00 0. -1.
          1   -1    0    0  502    0 -0.00000000000E+00 -0.00000000000E+00 -0.30635605622E+02  0.30635605622E+02  0.00000000000E+00 0.  1.
         25    1    1    2    0    0 -0.11035781807E+03  0.20411320435E+03  0.14210275720E+04  0.14452630932E+04  0.12500000000E+03 0.  0.
          1    1    1    2  501    0  0.11035781807E+03 -0.20411320435E+03  0.70836274159E+03  0.74539843163E+03  0.00000000000E+00 0.  1.
<mgrwt>
<rscale>  3 0.26356413E+03</rscale>
<asrwt>0</asrwt>
<pdfrwt beam="1">  1       21 0.33231156E+00 0.26356413E+03</pdfrwt>
<pdfrwt beam="2">  1        1 0.47131718E-02 0.26356413E+03</pdfrwt>
<totfact> 0.39699260E+02</totfact>
</mgrwt>
</event>
<event>
 4    0  0.1470975E-001  0.2439296E+03  0.7546771E-02  0.1117202E+00
          2   -1    0    0  502    0 -0.00000000000E+00  0.00000000000E+00  0.17648987220E+04  0.17648987220E+04  0.00000000000E+00 0.  1.
         21   -1    0    0  501  502  0.00000000000E+00 -0.00000000000E+00 -0.33912263463E+02  0.33912263463E+02  0.00000000000E+00 0.  1.
         25    1    1    2    0    0  0.19931742974E+03 -0.64414421604E+02  0.58468593330E+03  0.63352923856E+03  0.12500000000E+03 0.  0.
          2    1    1    2  501    0 -0.19931742974E+03  0.64414421604E+02  0.11463005253E+04  0.11652817469E+04  0.00000000000E+00 0.  1.
<mgrwt>
<rscale>  3 0.24392961E+03</rscale>
<asrwt>0</asrwt>
<pdfrwt beam="1">  1       21 0.52172727E-02 0.24392961E+03</pdfrwt>
<pdfrwt beam="2">  1        2 0.27152281E+00 0.24392961E+03</pdfrwt>
<totfact> 0.31519569E+04</totfact>
</mgrwt>
</event>
<event>
 4    0  0.1234727E-001  0.4797092E+03  0.7546771E-02  0.1019215E+00
         21   -1    0    0  501  502  0.00000000000E+00  0.00000000000E+00  0.22521034913E+03  0.22521034913E+03  0.00000000000E+00 0.  1.
          2   -1    0    0  502    0 -0.00000000000E+00 -0.00000000000E+00 -0.10051309442E+04  0.10051309442E+04  0.00000000000E+00 0.  1.
         25    1    1    2    0    0  0.53213347850E+02 -0.46006981687E+03 -0.31364776008E+03  0.57314554363E+03  0.12500000000E+03 0.  0.
          2    1    1    2  501    0 -0.53213347850E+02  0.46006981687E+03 -0.46627283500E+03  0.65719574972E+03  0.00000000000E+00 0.  1.
<mgrwt>
<rscale>  3 0.47970918E+03</rscale>
<asrwt>0</asrwt>
<pdfrwt beam="1">  1       21 0.34647746E-01 0.47970918E+03</pdfrwt>
<pdfrwt beam="2">  1        2 0.15463553E+00 0.47970918E+03</pdfrwt>
<totfact> 0.24424465E+03</totfact>
</mgrwt>
</event>
<event>
 4    0  0.1129486E-001  0.2619375E+03  0.7546771E-02  0.1105985E+00
         21   -1    0    0  501  502  0.00000000000E+00  0.00000000000E+00  0.70184962886E+03  0.70184962886E+03  0.00000000000E+00 0. -1.
         -3   -1    0    0    0  501 -0.00000000000E+00 -0.00000000000E+00 -0.43669838434E+03  0.43669838434E+03  0.00000000000E+00 0.  1.
         25    1    1    2    0    0  0.22809651617E+03 -0.30955152533E+02  0.64401054585E+03  0.69524155898E+03  0.12500000000E+03 0.  0.
         -3    1    1    2    0  502 -0.22809651617E+03  0.30955152533E+02 -0.37885930133E+03  0.44330645422E+03  0.00000000000E+00 0.  1.
<mgrwt>
<rscale>  3 0.26193748E+03</rscale>
<asrwt>0</asrwt>
<pdfrwt beam="1">  1       21 0.10797687E+00 0.26193748E+03</pdfrwt>
<pdfrwt beam="2">  1       -3 0.67184367E-01 0.26193748E+03</pdfrwt>
<totfact> 0.71251288E+01</totfact>
</mgrwt>
</event>
<event>
 4    0  0.1002184E-001  0.3100113E+03  0.7546771E-02  0.1080340E+00
         -2   -1    0    0    0  501 -0.00000000000E+00  0.00000000000E+00  0.36275076993E+03  0.36275076993E+03  0.00000000000E+00 0. -1.
         21   -1    0    0  501  502  0.00000000000E+00 -0.00000000000E+00 -0.45937350960E+03  0.45937350960E+03  0.00000000000E+00 0.  1.
         25    1    1    2    0    0  0.22338020321E+03 -0.17488081383E+03 -0.33146112575E+03  0.45384302585E+03  0.12500000000E+03 0.  0.
         -2    1    1    2    0  502 -0.22338020321E+03  0.17488081383E+03  0.23483838608E+03  0.36828125367E+03  0.00000000000E+00 0. -1.
<mgrwt>
<rscale>  3 0.31001131E+03</rscale>
<asrwt>0</asrwt>
<pdfrwt beam="1">  1       21 0.70672847E-01 0.31001131E+03</pdfrwt>
<pdfrwt beam="2">  1       -2 0.55807811E-01 0.31001131E+03</pdfrwt>
<totfact> 0.43362044E+02</totfact>
</mgrwt>
</event>
<event>
 4    0  0.1401851E-001  0.3190462E+03  0.7546771E-02  0.1076089E+00
         21   -1    0    0  501  502  0.00000000000E+00  0.00000000000E+00  0.14695166458E+03  0.14695166458E+03  0.00000000000E+00 0.  1.
          1   -1    0    0  502    0 -0.00000000000E+00 -0.00000000000E+00 -0.76053035564E+03  0.76053035564E+03  0.00000000000E+00 0.  1.
         25    1    1    2    0    0  0.25451820558E+03 -0.14623939154E+03 -0.13582321042E+03  0.34675412196E+03  0.12500000000E+03 0.  0.
          1    1    1    2  501    0 -0.25451820558E+03  0.14623939154E+03 -0.47775548064E+03  0.56072789826E+03  0.00000000000E+00 0.  1.
<mgrwt>
<rscale>  3 0.31904620E+03</rscale>
<asrwt>0</asrwt>
<pdfrwt beam="1">  1       21 0.22607949E-01 0.31904620E+03</pdfrwt>
<pdfrwt beam="2">  1        1 0.11700467E+00 0.31904620E+03</pdfrwt>
<totfact> 0.49176726E+03</totfact>
</mgrwt>
</event>
<event>
 4    0  0.1316492E-001  0.2600427E+03  0.7546771E-02  0.1107118E+00
         21   -1    0    0  501  502  0.00000000000E+00  0.00000000000E+00  0.14175615085E+03  0.14175615085E+03  0.00000000000E+00 0. -1.
          1   -1    0    0  502    0 -0.00000000000E+00 -0.00000000000E+00 -0.71934443391E+03  0.71934443391E+03  0.00000000000E+00 0. -1.
         25    1    1    2    0    0  0.22406013647E+03  0.42358868728E+02 -0.22516569430E+02  0.26101573595E+03  0.12500000000E+03 0.  0.
          1    1    1    2  501    0 -0.22406013647E+03 -0.42358868728E+02 -0.55507171363E+03  0.60008484882E+03  0.00000000000E+00 0. -1.
<mgrwt>
<rscale>  3 0.26004272E+03</rscale>
<asrwt>0</asrwt>
<pdfrwt beam="1">  1       21 0.21808639E-01 0.26004272E+03</pdfrwt>
<pdfrwt beam="2">  1        1 0.11066837E+00 0.26004272E+03</pdfrwt>
<totfact> 0.58062263E+03</totfact>
</mgrwt>
</event>
<event>
 4    0  0.1002184E-001  0.3347346E+03  0.7546771E-02  0.1069061E+00
         21   -1    0    0  501  502  0.00000000000E+00  0.00000000000E+00  0.54990795378E+03  0.54990795378E+03  0.00000000000E+00 0.  1.
          2   -1    0    0  502    0 -0.00000000000E+00 -0.00000000000E+00 -0.28443010466E+03  0.28443010466E+03  0.00000000000E+00 0. -1.
         25    1    1    2    0    0  0.14660375696E+03  0.27373266619E+03  0.37722151447E+03  0.50432460289E+03  0.12500000000E+03 0.  0.
          2    1    1    2  501    0 -0.14660375696E+03 -0.27373266619E+03 -0.11174366535E+03  0.33001345555E+03  0.00000000000E+00 0. -1.
<mgrwt>
<rscale>  3 0.33473457E+03</rscale>
<asrwt>0</asrwt>
<pdfrwt beam="1">  1       21 0.84601224E-01 0.33473457E+03</pdfrwt>
<pdfrwt beam="2">  1        2 0.43758478E-01 0.33473457E+03</pdfrwt>
<totfact> 0.16546808E+03</totfact>
</mgrwt>
</event>
<event>
 4    0  0.1375536E-001  0.2365870E+03  0.7546771E-02  0.1122088E+00
         21   -1    0    0  501  502  0.00000000000E+00  0.00000000000E+00  0.89619082611E+02  0.89619082611E+02  0.00000000000E+00 0. -1.
          2   -1    0    0  502    0 -0.00000000000E+00 -0.00000000000E+00 -0.71531743987E+03  0.71531743987E+03  0.00000000000E+00 0. -1.
         25    1    1    2    0    0 -0.19455816391E+03 -0.49955247062E+02 -0.12969692778E+03  0.26980492755E+03  0.12500000000E+03 0.  0.
          2    1    1    2  501    0  0.19455816391E+03  0.49955247062E+02 -0.49600142947E+03  0.53513159493E+03  0.00000000000E+00 0. -1.
<mgrwt>
<rscale>  3 0.23658699E+03</rscale>
<asrwt>0</asrwt>
<pdfrwt beam="1">  1       21 0.13787552E-01 0.23658699E+03</pdfrwt>
<pdfrwt beam="2">  1        2 0.11004883E+00 0.23658699E+03</pdfrwt>
<totfact> 0.23384480E+04</totfact>
</mgrwt>
</event>
<event>
 4    0  0.1002184E-001  0.3019984E+03  0.7546771E-02  0.1084246E+00
          2   -1    0    0  502    0 -0.00000000000E+00  0.00000000000E+00  0.63442706553E+02  0.63442706553E+02  0.00000000000E+00 0. -1.
         21   -1    0    0  501  502  0.00000000000E+00 -0.00000000000E+00 -0.16347819256E+04  0.16347819256E+04  0.00000000000E+00 0.  1.
         25    1    1    2    0    0 -0.26658347690E+03 -0.67166076244E+02 -0.11925025478E+04  0.12301485108E+04  0.12500000000E+03 0.  0.
          2    1    1    2  501    0  0.26658347690E+03  0.67166076244E+02 -0.37883667121E+03  0.46807612138E+03  0.00000000000E+00 0. -1.
<mgrwt>
<rscale>  3 0.30199840E+03</rscale>
<asrwt>0</asrwt>
<pdfrwt beam="1">  1       21 0.25150490E+00 0.30199840E+03</pdfrwt>
<pdfrwt beam="2">  1        2 0.97604170E-02 0.30199840E+03</pdfrwt>
<totfact> 0.48429962E+02</totfact>
</mgrwt>
</event>
<event>
 4    0  0.1461676E-001  0.4130255E+03  0.7546771E-02  0.1039360E+00
         21   -1    0    0  501  502  0.00000000000E+00  0.00000000000E+00  0.45559117325E+03  0.45559117325E+03  0.00000000000E+00 0. -1.
          2   -1    0    0  502    0 -0.00000000000E+00 -0.00000000000E+00 -0.12292512209E+04  0.12292512209E+04  0.00000000000E+00 0. -1.
         25    1    1    2    0    0 -0.13214726602E+03  0.37081288750E+03  0.32000508909E+03  0.52248765966E+03  0.12500000000E+03 0.  0.
          2    1    1    2  501    0  0.13214726602E+03 -0.37081288750E+03 -0.10936651367E+04  0.11623547345E+04  0.00000000000E+00 0. -1.
<mgrwt>
<rscale>  3 0.41302554E+03</rscale>
<asrwt>0</asrwt>
<pdfrwt beam="1">  1       21 0.70090950E-01 0.41302554E+03</pdfrwt>
<pdfrwt beam="2">  1        2 0.18911557E+00 0.41302554E+03</pdfrwt>
<totfact> 0.40779432E+02</totfact>
</mgrwt>
</event>
<event>
 4    0  0.1054007E-001  0.2912635E+03  0.7546771E-02  0.1089691E+00
         21   -1    0    0  501  502  0.00000000000E+00  0.00000000000E+00  0.15974543923E+04  0.15974543923E+04  0.00000000000E+00 0. -1.
         -1   -1    0    0    0  501 -0.00000000000E+00 -0.00000000000E+00 -0.65599666073E+02  0.65599666073E+02  0.00000000000E+00 0. -1.
         25    1    1    2    0    0  0.85132596222E+01  0.26293910931E+03  0.12236575997E+04  0.12578443354E+04  0.12500000000E+03 0.  0.
         -1    1    1    2    0  502 -0.85132596222E+01 -0.26293910931E+03  0.30819712653E+03  0.40520972297E+03  0.00000000000E+00 0. -1.
<mgrwt>
<rscale>  3 0.29126354E+03</rscale>
<asrwt>0</asrwt>
<pdfrwt beam="1">  1       21 0.24576218E+00 0.29126354E+03</pdfrwt>
<pdfrwt beam="2">  1       -1 0.10092258E-01 0.29126354E+03</pdfrwt>
<totfact> 0.35468532E+02</totfact>
</mgrwt>
</event>
<event>
 4    0  0.1247045E-001  0.2394373E+03  0.7546771E-02  0.1120168E+00
          4   -1    0    0  502    0 -0.00000000000E+00  0.00000000000E+00  0.14240360707E+03  0.14240360707E+03  0.00000000000E+00 0. -1.
         21   -1    0    0  501  502  0.00000000000E+00 -0.00000000000E+00 -0.34600592640E+03  0.34600592640E+03  0.00000000000E+00 0. -1.
         25    1    1    2    0    0  0.20272407512E+03 -0.24661033244E+02 -0.11870433622E+03  0.26724695813E+03  0.12500000000E+03 0.  0.
          4    1    1    2  501    0 -0.20272407512E+03  0.24661033244E+02 -0.84897983116E+02  0.22116257534E+03  0.00000000000E+00 0. -1.
<mgrwt>
<rscale>  3 0.23943729E+03</rscale>
<asrwt>0</asrwt>
<pdfrwt beam="1">  1       21 0.53231681E-01 0.23943729E+03</pdfrwt>
<pdfrwt beam="2">  1        4 0.21908247E-01 0.23943729E+03</pdfrwt>
<totfact> 0.26950586E+03</totfact>
</mgrwt>
</event>
<event>
 4    0  0.1452337E-001  0.2692750E+03  0.7546771E-02  0.1101695E+00
          2   -1    0    0  502    0 -0.00000000000E+00  0.00000000000E+00  0.23438003255E+04  0.23438003255E+04  0.00000000000E+00 0.  1.
         21   -1    0    0  501  502  0.00000000000E+00 -0.00000000000E+00 -0.15555595281E+03  0.15555595281E+03  0.00000000000E+00 0. -1.
         25    1    1    2    0    0  0.21029997777E+03  0.11250754828E+03 -0.27624946155E+02  0.27068832025E+03  0.12500000000E+03 0.  0.
          2    1    1    2  501    0 -0.21029997777E+03 -0.11250754828E+03  0.22158693189E+04  0.22286679581E+04  0.00000000000E+00 0.  1.
<mgrwt>
<rscale>  3 0.26927501E+03</rscale>
<asrwt>0</asrwt>
<pdfrwt beam="1">  1       21 0.23931687E-01 0.26927501E+03</pdfrwt>
<pdfrwt beam="2">  1        2 0.36058464E+00 0.26927501E+03</pdfrwt>
<totfact> 0.99756918E+02</totfact>
</mgrwt>
</event>
<event>
 4    0  0.1002184E-001  0.4327369E+03  0.7546771E-02  0.1032999E+00
         21   -1    0    0  501  502  0.00000000000E+00  0.00000000000E+00  0.10117884157E+04  0.10117884157E+04  0.00000000000E+00 0. -1.
          1   -1    0    0  502    0 -0.00000000000E+00 -0.00000000000E+00 -0.19279846905E+03  0.19279846905E+03  0.00000000000E+00 0. -1.
         25    1    1    2    0    0 -0.39248103072E+03 -0.13264570134E+03  0.58856724424E+03  0.73052901555E+03  0.12500000000E+03 0.  0.
          1    1    1    2  501    0  0.39248103072E+03  0.13264570134E+03  0.23042270237E+03  0.47405786918E+03  0.00000000000E+00 0. -1.
<mgrwt>
<rscale>  3 0.43273692E+03</rscale>
<asrwt>0</asrwt>
<pdfrwt beam="1">  1       21 0.15565975E+00 0.43273692E+03</pdfrwt>
<pdfrwt beam="2">  1        1 0.29661304E-01 0.43273692E+03</pdfrwt>
<totfact> 0.40642806E+02</totfact>
</mgrwt>
</event>
<event>
 4    0  0.1002184E-001  0.2770989E+03  0.7546771E-02  0.1097284E+00
          1   -1    0    0  502    0 -0.00000000000E+00  0.00000000000E+00  0.90470927422E+03  0.90470927422E+03  0.00000000000E+00 0.  1.
         21   -1    0    0  501  502  0.00000000000E+00 -0.00000000000E+00 -0.86252139571E+02  0.86252139571E+02  0.00000000000E+00 0. -1.
         25    1    1    2    0    0  0.23632289101E+03  0.72871589720E+02  0.25905429011E+03  0.37933217979E+03  0.12500000000E+03 0.  0.
          1    1    1    2  501    0 -0.23632289101E+03 -0.72871589720E+02  0.55940284454E+03  0.61162923400E+03  0.00000000000E+00 0.  1.
<mgrwt>
<rscale>  3 0.27709886E+03</rscale>
<asrwt>0</asrwt>
<pdfrwt beam="1">  1       21 0.13269561E-01 0.27709886E+03</pdfrwt>
<pdfrwt beam="2">  1        1 0.13918604E+00 0.27709886E+03</pdfrwt>
<totfact> 0.10183849E+04</totfact>
</mgrwt>
</event>
<event>
 4    0  0.1002184E-001  0.5836238E+03  0.7546771E-02  0.9939976E-01
         21   -1    0    0  501  502  0.00000000000E+00  0.00000000000E+00  0.27311794453E+03  0.27311794453E+03  0.00000000000E+00 0. -1.
          2   -1    0    0  502    0 -0.00000000000E+00 -0.00000000000E+00 -0.19409259927E+04  0.19409259927E+04  0.00000000000E+00 0. -1.
         25    1    1    2    0    0  0.40367914529E+03 -0.40253556117E+03 -0.16463646088E+03  0.60640077061E+03  0.12500000000E+03 0.  0.
          2    1    1    2  501    0 -0.40367914529E+03  0.40253556117E+03 -0.15031715873E+04  0.16076431667E+04  0.00000000000E+00 0. -1.
<mgrwt>
<rscale>  3 0.58362379E+03</rscale>
<asrwt>0</asrwt>
<pdfrwt beam="1">  1       21 0.42018145E-01 0.58362379E+03</pdfrwt>
<pdfrwt beam="2">  1        2 0.29860400E+00 0.58362379E+03</pdfrwt>
<totfact> 0.47806767E+02</totfact>
</mgrwt>
</event>
<event>
 4    0  0.1002184E-001  0.2481916E+03  0.7546771E-02  0.1114453E+00
         21   -1    0    0  501  502  0.00000000000E+00  0.00000000000E+00  0.14409566224E+04  0.14409566224E+04  0.00000000000E+00 0. -1.
          3   -1    0    0  502    0 -0.00000000000E+00 -0.00000000000E+00 -0.40592058594E+02  0.40592058594E+02  0.00000000000E+00 0. -1.
         25    1    1    2    0    0  0.19011246951E+03 -0.99153087780E+02  0.96278152390E+03  0.99425718436E+03  0.12500000000E+03 0.  0.
          3    1    1    2  501    0 -0.19011246951E+03  0.99153087780E+02  0.43758303987E+03  0.48729149660E+03  0.00000000000E+00 0. -1.
<mgrwt>
<rscale>  3 0.24819163E+03</rscale>
<asrwt>0</asrwt>
<pdfrwt beam="1">  1       21 0.22168559E+00 0.24819163E+03</pdfrwt>
<pdfrwt beam="2">  1        3 0.62449332E-02 0.24819163E+03</pdfrwt>
<totfact> 0.75571940E+02</totfact>
</mgrwt>
</event>
<event>
 4    0  0.1362465E-001  0.2828572E+03  0.7546771E-02  0.1094139E+00
         21   -1    0    0  501  502  0.00000000000E+00  0.00000000000E+00  0.23642155656E+03  0.23642155656E+03  0.00000000000E+00 0.  1.
          2   -1    0    0  502    0 -0.00000000000E+00 -0.00000000000E+00 -0.11316713815E+04  0.11316713815E+04  0.00000000000E+00 0.  1.
         25    1    1    2    0    0  0.25303734771E+03  0.18849733643E+02  0.13043926597E+03  0.31148453236E+03  0.12500000000E+03 0.  0.
          2    1    1    2  501    0 -0.25303734771E+03 -0.18849733643E+02 -0.10256890909E+04  0.10566084057E+04  0.00000000000E+00 0.  1.
<mgrwt>
<rscale>  3 0.28285723E+03</rscale>
<asrwt>0</asrwt>
<pdfrwt beam="1">  1       21 0.36372547E-01 0.28285723E+03</pdfrwt>
<pdfrwt beam="2">  1        2 0.17410329E+00 0.28285723E+03</pdfrwt>
<totfact> 0.19558882E+03</totfact>
</mgrwt>
</event>
<event>
 4    0  0.1002184E-001  0.2446761E+03  0.7546771E-02  0.1116716E+00
         21   -1    0    0  501  502  0.00000000000E+00  0.00000000000E+00  0.72117434729E+02  0.72117434729E+02  0.00000000000E+00 0. -1.
          4   -1    0    0  502    0 -0.00000000000E+00 -0.00000000000E+00 -0.90085817625E+03  0.90085817625E+03  0.00000000000E+00 0.  1.
         25    1    1    2    0    0 -0.18464816383E+03 -0.10072950276E+03 -0.22042662652E+03  0.32932396634E+03  0.12500000000E+03 0.  0.
          4    1    1    2  501    0  0.18464816383E+03  0.10072950276E+03 -0.60831411500E+03  0.64365164464E+03  0.00000000000E+00 0.  1.
<mgrwt>
<rscale>  3 0.24467607E+03</rscale>
<asrwt>0</asrwt>
<pdfrwt beam="1">  1       21 0.11094990E-01 0.24467607E+03</pdfrwt>
<pdfrwt beam="2">  1        4 0.13859356E+00 0.24467607E+03</pdfrwt>
<totfact> 0.11040588E+03</totfact>
</mgrwt>
</event>
<event>
 4    0  0.1541956E-001  0.2755133E+03  0.7546771E-02  0.1098165E+00
         21   -1    0    0  501  502  0.00000000000E+00  0.00000000000E+00  0.78474378226E+02  0.78474378226E+02  0.00000000000E+00 0.  1.
          2   -1    0    0  502    0 -0.00000000000E+00 -0.00000000000E+00 -0.13185151717E+04  0.13185151717E+04  0.00000000000E+00 0.  1.
         25    1    1    2    0    0  0.97884684252E+02  0.22516918131E+03 -0.23416174386E+03  0.36157889030E+03  0.12500000000E+03 0.  0.
          2    1    1    2  501    0 -0.97884684252E+02 -0.22516918131E+03 -0.10058790496E+04  0.10354106596E+04  0.00000000000E+00 0.  1.
<mgrwt>
<rscale>  3 0.27551329E+03</rscale>
<asrwt>0</asrwt>
<pdfrwt beam="1">  1       21 0.12072983E-01 0.27551329E+03</pdfrwt>
<pdfrwt beam="2">  1        2 0.20284845E+00 0.27551329E+03</pdfrwt>
<totfact> 0.12452480E+04</totfact>
</mgrwt>
</event>
<event>
 4    0  0.1336678E-001  0.2743577E+03  0.7546771E-02  0.1098811E+00
          2   -1    0    0  502    0 -0.00000000000E+00  0.00000000000E+00  0.21934477340E+03  0.21934477340E+03  0.00000000000E+00 0. -1.
         21   -1    0    0  501  502  0.00000000000E+00 -0.00000000000E+00 -0.31233248072E+03  0.31233248072E+03  0.00000000000E+00 0. -1.
         25    1    1    2    0    0 -0.22585649461E+03 -0.92930108826E+02 -0.85362075897E+02  0.28733055056E+03  0.12500000000E+03 0.  0.
          2    1    1    2  501    0  0.22585649461E+03  0.92930108826E+02 -0.76256314206E+01  0.24434670356E+03  0.00000000000E+00 0. -1.
<mgrwt>
<rscale>  3 0.27435773E+03</rscale>
<asrwt>0</asrwt>
<pdfrwt beam="1">  1       21 0.48051151E-01 0.27435773E+03</pdfrwt>
<pdfrwt beam="2">  1        2 0.33745350E-01 0.27435773E+03</pdfrwt>
<totfact> 0.77233787E+03</totfact>
</mgrwt>
</event>
<event>
 4    0  0.1002184E-001  0.6633232E+03  0.7546771E-02  0.9782095E-01
         21   -1    0    0  501  502  0.00000000000E+00  0.00000000000E+00  0.16917126025E+04  0.16917126025E+04  0.00000000000E+00 0.  1.
          1   -1    0    0  502    0 -0.00000000000E+00 -0.00000000000E+00 -0.43015107685E+03  0.43015107685E+03  0.00000000000E+00 0.  1.
         25    1    1    2    0    0  0.57940171361E+03 -0.29776898858E+03  0.13102697225E+04  0.14686062991E+04  0.12500000000E+03 0.  0.
          1    1    1    2  501    0 -0.57940171361E+03  0.29776898858E+03 -0.48708196848E+02  0.65325738016E+03  0.00000000000E+00 0.  1.
<mgrwt>
<rscale>  3 0.66332324E+03</rscale>
<asrwt>0</asrwt>
<pdfrwt beam="1">  1       21 0.26026347E+00 0.66332324E+03</pdfrwt>
<pdfrwt beam="2">  1        1 0.66177090E-01 0.66332324E+03</pdfrwt>
<totfact> 0.26597813E+01</totfact>
</mgrwt>
</event>
<event>
 4    0  0.1240227E-001  0.2465517E+03  0.7546771E-02  0.1115504E+00
         -3   -1    0    0    0  501 -0.00000000000E+00  0.00000000000E+00  0.11745032660E+03  0.11745032660E+03  0.00000000000E+00 0. -1.
         21   -1    0    0  501  502  0.00000000000E+00 -0.00000000000E+00 -0.66579711918E+03  0.66579711918E+03  0.00000000000E+00 0. -1.
         25    1    1    2    0    0 -0.19001435345E+03 -0.95169794933E+02 -0.51114491863E+03  0.56750054821E+03  0.12500000000E+03 0.  0.
         -3    1    1    2    0  502  0.19001435345E+03  0.95169794933E+02 -0.37201873945E+02  0.21574689756E+03  0.00000000000E+00 0. -1.
<mgrwt>
<rscale>  3 0.24655171E+03</rscale>
<asrwt>0</asrwt>
<pdfrwt beam="1">  1       21 0.10243032E+00 0.24655171E+03</pdfrwt>
<pdfrwt beam="2">  1       -3 0.18069281E-01 0.24655171E+03</pdfrwt>
<totfact> 0.10166810E+03</totfact>
</mgrwt>
</event>
<event>
 4    0  0.1002184E-001  0.3361500E+03  0.7546771E-02  0.1068448E+00
         -3   -1    0    0    0  501 -0.00000000000E+00  0.00000000000E+00  0.79776762532E+02  0.79776762532E+02  0.00000000000E+00 0. -1.
         21   -1    0    0  501  502  0.00000000000E+00 -0.00000000000E+00 -0.13278672102E+04  0.13278672102E+04  0.00000000000E+00 0. -1.
         25    1    1    2    0    0 -0.12796688787E+03  0.28459847600E+03 -0.71166577002E+03  0.78706097931E+03  0.12500000000E+03 0.  0.
         -3    1    1    2    0  502  0.12796688787E+03 -0.28459847600E+03 -0.53642467765E+03  0.62058299343E+03  0.00000000000E+00 0. -1.
<mgrwt>
<rscale>  3 0.33614999E+03</rscale>
<asrwt>0</asrwt>
<pdfrwt beam="1">  1       21 0.20428726E+00 0.33614999E+03</pdfrwt>
<pdfrwt beam="2">  1       -3 0.12273348E-01 0.33614999E+03</pdfrwt>
<totfact> 0.30822282E+02</totfact>
</mgrwt>
</event>
<event>
 4    0  0.1669480E-001  0.2624710E+03  0.7546771E-02  0.1105668E+00
         -3   -1    0    0    0  501 -0.00000000000E+00  0.00000000000E+00  0.40082313057E+03  0.40082313057E+03  0.00000000000E+00 0.  1.
         21   -1    0    0  501  502  0.00000000000E+00 -0.00000000000E+00 -0.25423231523E+03  0.25423231523E+03  0.00000000000E+00 0.  1.
         25    1    1    2    0    0  0.43217063679E+02  0.22671198948E+03 -0.13158095240E+03  0.29360617808E+03  0.12500000000E+03 0.  0.
         -3    1    1    2    0  502 -0.43217063679E+02 -0.22671198948E+03  0.27817176774E+03  0.36144926772E+03  0.00000000000E+00 0.  1.
<mgrwt>
<rscale>  3 0.26247103E+03</rscale>
<asrwt>0</asrwt>
<pdfrwt beam="1">  1       21 0.39112664E-01 0.26247103E+03</pdfrwt>
<pdfrwt beam="2">  1       -3 0.61665097E-01 0.26247103E+03</pdfrwt>
<totfact> 0.80227595E+02</totfact>
</mgrwt>
</event>
<event>
 4    0  0.1029109E-001  0.3078218E+03  0.7546771E-02  0.1081395E+00
         21   -1    0    0  501  502  0.00000000000E+00  0.00000000000E+00  0.53985280310E+03  0.53985280310E+03  0.00000000000E+00 0.  1.
          2   -1    0    0  502    0 -0.00000000000E+00 -0.00000000000E+00 -0.27520001322E+03  0.27520001322E+03  0.00000000000E+00 0. -1.
         25    1    1    2    0    0  0.26435469411E+03  0.96155490221E+02  0.39849132595E+03  0.50353710832E+03  0.12500000000E+03 0.  0.
          2    1    1    2  501    0 -0.26435469411E+03 -0.96155490221E+02 -0.13383853606E+03  0.31151570800E+03  0.00000000000E+00 0. -1.
<mgrwt>
<rscale>  3 0.30782184E+03</rscale>
<asrwt>0</asrwt>
<pdfrwt beam="1">  1       21 0.83054277E-01 0.30782184E+03</pdfrwt>
<pdfrwt beam="2">  1        2 0.42338464E-01 0.30782184E+03</pdfrwt>
<totfact> 0.18033669E+03</totfact>
</mgrwt>
</event>
<event>
 4    0  0.1195574E-001  0.5521056E+03  0.7546771E-02  0.1001008E+00
          2   -1    0    0  502    0 -0.00000000000E+00  0.00000000000E+00  0.17394030141E+04  0.17394030141E+04  0.00000000000E+00 0. -1.
         21   -1    0    0  501  502  0.00000000000E+00 -0.00000000000E+00 -0.17692503063E+03  0.17692503063E+03  0.00000000000E+00 0. -1.
         25    1    1    2    0    0 -0.50616027997E+03 -0.18165191228E+03  0.61178011967E+03  0.82407254600E+03  0.12500000000E+03 0.  0.
          2    1    1    2  501    0  0.50616027997E+03  0.18165191228E+03  0.95069786379E+03  0.10922554987E+04  0.00000000000E+00 0. -1.
<mgrwt>
<rscale>  3 0.55210565E+03</rscale>
<asrwt>0</asrwt>
<pdfrwt beam="1">  1       21 0.27219237E-01 0.55210565E+03</pdfrwt>
<pdfrwt beam="2">  1        2 0.26760045E+00 0.55210565E+03</pdfrwt>
<totfact> 0.14915311E+03</totfact>
</mgrwt>
</event>
<event>
 4    0  0.1494096E-001  0.3612999E+03  0.7546771E-02  0.1058070E+00
          1   -1    0    0  502    0 -0.00000000000E+00  0.00000000000E+00  0.15237043238E+04  0.15237043238E+04  0.00000000000E+00 0.  1.
         21   -1    0    0  501  502  0.00000000000E+00 -0.00000000000E+00 -0.48518522836E+03  0.48518522836E+03  0.00000000000E+00 0.  1.
         25    1    1    2    0    0 -0.32940955353E+03  0.80012476605E+02 -0.39530362380E+03  0.53553954603E+03  0.12500000000E+03 0.  0.
          1    1    1    2  501    0  0.32940955353E+03 -0.80012476605E+02  0.14338227193E+04  0.14733500062E+04  0.00000000000E+00 0.  1.
<mgrwt>
<rscale>  3 0.36129995E+03</rscale>
<asrwt>0</asrwt>
<pdfrwt beam="1">  1       21 0.74643882E-01 0.36129995E+03</pdfrwt>
<pdfrwt beam="2">  1        1 0.23441605E+00 0.36129995E+03</pdfrwt>
<totfact> 0.11303035E+02</totfact>
</mgrwt>
</event>
<event>
 4    0  0.1316458E-001  0.5265521E+03  0.7546771E-02  0.1007072E+00
         21   -1    0    0  501  502  0.00000000000E+00  0.00000000000E+00  0.33158179576E+03  0.33158179576E+03  0.00000000000E+00 0.  1.
          2   -1    0    0  502    0 -0.00000000000E+00 -0.00000000000E+00 -0.12371840311E+04  0.12371840311E+04  0.00000000000E+00 0.  1.
         25    1    1    2    0    0 -0.50482305143E+03 -0.82376003557E+02  0.24536039117E+01  0.52655782150E+03  0.12500000000E+03 0.  0.
          2    1    1    2  501    0  0.50482305143E+03  0.82376003557E+02 -0.90805583924E+03  0.10422080053E+04  0.00000000000E+00 0.  1.
<mgrwt>
<rscale>  3 0.52655210E+03</rscale>
<asrwt>0</asrwt>
<pdfrwt beam="1">  1       21 0.51012583E-01 0.52655210E+03</pdfrwt>
<pdfrwt beam="2">  1        2 0.19033601E+00 0.52655210E+03</pdfrwt>
<totfact> 0.78478071E+02</totfact>
</mgrwt>
</event>
<event>
 4    0  0.1002184E-001  0.3110508E+03  0.7546771E-02  0.1079843E+00
          2   -1    0    0  502    0 -0.00000000000E+00  0.00000000000E+00  0.96318666790E+03  0.96318666790E+03  0.00000000000E+00 0. -1.
         21   -1    0    0  501  502  0.00000000000E+00 -0.00000000000E+00 -0.11278311746E+03  0.11278311746E+03  0.00000000000E+00 0.  1.
         25    1    1    2    0    0  0.26323322492E+03 -0.10879275265E+03  0.21062735025E+03  0.37565472765E+03  0.12500000000E+03 0.  0.
          2    1    1    2  501    0 -0.26323322492E+03  0.10879275265E+03  0.63977620019E+03  0.70031505771E+03  0.00000000000E+00 0. -1.
<mgrwt>
<rscale>  3 0.31105079E+03</rscale>
<asrwt>0</asrwt>
<pdfrwt beam="1">  1       21 0.17351249E-01 0.31105079E+03</pdfrwt>
<pdfrwt beam="2">  1        2 0.14818256E+00 0.31105079E+03</pdfrwt>
<totfact> 0.10259909E+04</totfact>
</mgrwt>
</event>
<event>
 4    0  0.1388903E-001  0.2808254E+03  0.7546771E-02  0.1095239E+00
         21   -1    0    0  501  502  0.00000000000E+00  0.00000000000E+00  0.31349639545E+03  0.31349639545E+03  0.00000000000E+00 0. -1.
          2   -1    0    0  502    0 -0.00000000000E+00 -0.00000000000E+00 -0.61215492993E+03  0.61215492993E+03  0.00000000000E+00 0.  1.
         25    1    1    2    0    0  0.61138304908E+02 -0.24392625879E+03  0.21504111450E+03  0.35370269009E+03  0.12500000000E+03 0.  0.
          2    1    1    2  501    0 -0.61138304908E+02  0.24392625879E+03 -0.51369964898E+03  0.57194863529E+03  0.00000000000E+00 0.  1.
<mgrwt>
<rscale>  3 0.28082541E+03</rscale>
<asrwt>0</asrwt>
<pdfrwt beam="1">  1       21 0.48230215E-01 0.28082541E+03</pdfrwt>
<pdfrwt beam="2">  1        2 0.94177681E-01 0.28082541E+03</pdfrwt>
<totfact> 0.24634897E+03</totfact>
</mgrwt>
</event>
<event>
 4    0  0.1498438E-001  0.2473167E+03  0.7546771E-02  0.1115012E+00
         21   -1    0    0  501  502  0.00000000000E+00  0.00000000000E+00  0.12839218662E+03  0.12839218662E+03  0.00000000000E+00 0. -1.
          1   -1    0    0  502    0 -0.00000000000E+00 -0.00000000000E+00 -0.12057490399E+04  0.12057490399E+04  0.00000000000E+00 0. -1.
         25    1    1    2    0    0  0.18229528647E+03  0.11094587968E+03 -0.11985495459E+02  0.24760697039E+03  0.12500000000E+03 0.  0.
          1    1    1    2  501    0 -0.18229528647E+03 -0.11094587968E+03 -0.10653713578E+04  0.10865342561E+04  0.00000000000E+00 0. -1.
<mgrwt>
<rscale>  3 0.24731672E+03</rscale>
<asrwt>0</asrwt>
<pdfrwt beam="1">  1       21 0.19752644E-01 0.24731672E+03</pdfrwt>
<pdfrwt beam="2">  1        1 0.18549985E+00 0.24731672E+03</pdfrwt>
<totfact> 0.29582762E+03</totfact>
</mgrwt>
</event>
<event>
 4    0  0.1002184E-001  0.3325094E+03  0.7546771E-02  0.1070032E+00
          4   -1    0    0  502    0 -0.00000000000E+00  0.00000000000E+00  0.85383441555E+02  0.85383441555E+02  0.00000000000E+00 0. -1.
         21   -1    0    0  501  502  0.00000000000E+00 -0.00000000000E+00 -0.14061397766E+04  0.14061397766E+04  0.00000000000E+00 0. -1.
         25    1    1    2    0    0 -0.26686053508E+03 -0.15402254189E+03 -0.96608038811E+03  0.10217014265E+04  0.12500000000E+03 0.  0.
          4    1    1    2  501    0  0.26686053508E+03  0.15402254189E+03 -0.35467594694E+03  0.46982179168E+03  0.00000000000E+00 0. -1.
<mgrwt>
<rscale>  3 0.33250938E+03</rscale>
<asrwt>0</asrwt>
<pdfrwt beam="1">  1       21 0.21632917E+00 0.33250938E+03</pdfrwt>
<pdfrwt beam="2">  1        4 0.13135916E-01 0.33250938E+03</pdfrwt>
<totfact> 0.20195585E+02</totfact>
</mgrwt>
</event>
<event>
 4    0  0.1177827E-001  0.3240365E+03  0.7546771E-02  0.1073806E+00
         21   -1    0    0  501  502  0.00000000000E+00  0.00000000000E+00  0.22754773882E+03  0.22754773882E+03  0.00000000000E+00 0.  1.
          3   -1    0    0  502    0 -0.00000000000E+00 -0.00000000000E+00 -0.42641555977E+03  0.42641555977E+03  0.00000000000E+00 0.  1.
         25    1    1    2    0    0 -0.38694268066E+02  0.29644118506E+03 -0.10362611964E+03  0.34020287367E+03  0.12500000000E+03 0.  0.
          3    1    1    2  501    0  0.38694268066E+02 -0.29644118506E+03 -0.95241701304E+02  0.31376042492E+03  0.00000000000E+00 0.  1.
<mgrwt>
<rscale>  3 0.32403645E+03</rscale>
<asrwt>0</asrwt>
<pdfrwt beam="1">  1       21 0.35007344E-01 0.32403645E+03</pdfrwt>
<pdfrwt beam="2">  1        3 0.65602394E-01 0.32403645E+03</pdfrwt>
<totfact> 0.87560841E+02</totfact>
</mgrwt>
</event>
<event>
 4    0  0.1055292E-001  0.3174477E+03  0.7546771E-02  0.1076830E+00
          2   -1    0    0  502    0 -0.00000000000E+00  0.00000000000E+00  0.28849400299E+04  0.28849400299E+04  0.00000000000E+00 0.  1.
         21   -1    0    0  501  502  0.00000000000E+00 -0.00000000000E+00 -0.23682700692E+03  0.23682700692E+03  0.00000000000E+00 0.  1.
         25    1    1    2    0    0 -0.28719457555E+03 -0.51645843150E+02 -0.11921670630E+03  0.33909532642E+03  0.12500000000E+03 0.  0.
          2    1    1    2  501    0  0.28719457555E+03  0.51645843150E+02  0.27673297292E+04  0.27826717104E+04  0.00000000000E+00 0.  1.
<mgrwt>
<rscale>  3 0.31744766E+03</rscale>
<asrwt>0</asrwt>
<pdfrwt beam="1">  1       21 0.36434926E-01 0.31744766E+03</pdfrwt>
<pdfrwt beam="2">  1        2 0.44383690E+00 0.31744766E+03</pdfrwt>
<totfact> 0.21183353E+02</totfact>
</mgrwt>
</event>
<event>
 4    0  0.1397243E-001  0.2512468E+03  0.7546771E-02  0.1112519E+00
          2   -1    0    0  502    0 -0.00000000000E+00  0.00000000000E+00  0.19175847595E+04  0.19175847595E+04  0.00000000000E+00 0. -1.
         21   -1    0    0  501  502  0.00000000000E+00 -0.00000000000E+00 -0.49099695957E+02  0.49099695957E+02  0.00000000000E+00 0. -1.
         25    1    1    2    0    0 -0.12309970795E+02  0.21759694988E+03  0.34010463527E+03  0.42284291517E+03  0.12500000000E+03 0.  0.
          2    1    1    2  501    0  0.12309970795E+02 -0.21759694988E+03  0.15283804282E+04  0.15438415403E+04  0.00000000000E+00 0. -1.
<mgrwt>
<rscale>  3 0.25124683E+03</rscale>
<asrwt>0</asrwt>
<pdfrwt beam="1">  1       21 0.75538009E-02 0.25124683E+03</pdfrwt>
<pdfrwt beam="2">  1        2 0.29501298E+00 0.25124683E+03</pdfrwt>
<totfact> 0.13815308E+04</totfact>
</mgrwt>
</event>
<event>
 4    0  0.1024887E-001  0.2646546E+03  0.7546771E-02  0.1104378E+00
          2   -1    0    0  502    0 -0.00000000000E+00  0.00000000000E+00  0.12491745092E+04  0.12491745092E+04  0.00000000000E+00 0. -1.
         21   -1    0    0  501  502  0.00000000000E+00 -0.00000000000E+00 -0.68495165553E+02  0.68495165553E+02  0.00000000000E+00 0.  1.
         25    1    1    2    0    0 -0.23325867497E+03 -0.27300045423E+01  0.27193069736E+03  0.37945799048E+03  0.12500000000E+03 0.  0.
          2    1    1    2  501    0  0.23325867497E+03  0.27300045423E+01  0.90874864624E+03  0.93821168423E+03  0.00000000000E+00 0. -1.
<mgrwt>
<rscale>  3 0.26465461E+03</rscale>
<asrwt>0</asrwt>
<pdfrwt beam="1">  1       21 0.10537719E-01 0.26465461E+03</pdfrwt>
<pdfrwt beam="2">  1        2 0.19218068E+00 0.26465461E+03</pdfrwt>
<totfact> 0.17418241E+04</totfact>
</mgrwt>
</event>
<event>
 4    0  0.1002184E-001  0.2854754E+03  0.7546771E-02  0.1092735E+00
          1   -1    0    0  502    0 -0.00000000000E+00  0.00000000000E+00  0.43526257077E+02  0.43526257077E+02  0.00000000000E+00 0.  1.
         21   -1    0    0  501  502  0.00000000000E+00 -0.00000000000E+00 -0.17035723643E+04  0.17035723643E+04  0.00000000000E+00 0.  1.
         25    1    1    2    0    0 -0.23251188322E+03 -0.10867123077E+03 -0.79057629361E+03  0.84053976007E+03  0.12500000000E+03 0.  0.
          1    1    1    2  501    0  0.23251188322E+03  0.10867123077E+03 -0.86946981362E+03  0.90655886131E+03  0.00000000000E+00 0.  1.
<mgrwt>
<rscale>  3 0.28547541E+03</rscale>
<asrwt>0</asrwt>
<pdfrwt beam="1">  1       21 0.26208803E+00 0.28547541E+03</pdfrwt>
<pdfrwt beam="2">  1        1 0.66963479E-02 0.28547541E+03</pdfrwt>
<totfact> 0.62337739E+02</totfact>
</mgrwt>
</event>
<event>
 4    0  0.1002184E-001  0.3764539E+03  0.7546771E-02  0.1052252E+00
         21   -1    0    0  501  502  0.00000000000E+00  0.00000000000E+00  0.68946624758E+03  0.68946624758E+03  0.00000000000E+00 0. -1.
          2   -1    0    0  502    0 -0.00000000000E+00 -0.00000000000E+00 -0.20095327860E+03  0.20095327860E+03  0.00000000000E+00 0. -1.
         25    1    1    2    0    0 -0.32200533333E+03 -0.14968325827E+03  0.33362594644E+03  0.50301469624E+03  0.12500000000E+03 0.  0.
          2    1    1    2  501    0  0.32200533333E+03  0.14968325827E+03  0.15488702254E+03  0.38740482993E+03  0.00000000000E+00 0. -1.
<mgrwt>
<rscale>  3 0.37645387E+03</rscale>
<asrwt>0</asrwt>
<pdfrwt beam="1">  1       21 0.10607173E+00 0.37645387E+03</pdfrwt>
<pdfrwt beam="2">  1        2 0.30915889E-01 0.37645387E+03</pdfrwt>
<totfact> 0.13984634E+03</totfact>
</mgrwt>
</event>
<event>
 4    0  0.1262905E-001  0.4167515E+03  0.7546771E-02  0.1038129E+00
          1   -1    0    0  502    0 -0.00000000000E+00  0.00000000000E+00  0.65982412391E+03  0.65982412391E+03  0.00000000000E+00 0. -1.
         21   -1    0    0  501  502  0.00000000000E+00 -0.00000000000E+00 -0.50354785381E+03  0.50354785381E+03  0.00000000000E+00 0. -1.
         25    1    1    2    0    0  0.16140713504E+03 -0.36332431067E+03 -0.33263238886E+03  0.53322239646E+03  0.12500000000E+03 0.  0.
          1    1    1    2  501    0 -0.16140713504E+03  0.36332431067E+03  0.48890865896E+03  0.63014958127E+03  0.00000000000E+00 0. -1.
<mgrwt>
<rscale>  3 0.41675151E+03</rscale>
<asrwt>0</asrwt>
<pdfrwt beam="1">  1       21 0.77468900E-01 0.41675151E+03</pdfrwt>
<pdfrwt beam="2">  1        1 0.10151140E+00 0.41675151E+03</pdfrwt>
<totfact> 0.45920838E+02</totfact>
</mgrwt>
</event>
<event>
 4    0  0.1385192E-001  0.2700903E+03  0.7546771E-02  0.1101228E+00
         -1   -1    0    0    0  501 -0.00000000000E+00  0.00000000000E+00  0.88654348638E+03  0.88654348638E+03  0.00000000000E+00 0. -1.
         21   -1    0    0  501  502  0.00000000000E+00 -0.00000000000E+00 -0.34258184421E+03  0.34258184421E+03  0.00000000000E+00 0.  1.
         25    1    1    2    0    0  0.22587118290E+03 -0.79410093832E+02 -0.26926750148E+03  0.38138398186E+03  0.12500000000E+03 0.  0.
         -1    1    1    2    0  502 -0.22587118290E+03  0.79410093832E+02  0.81322914364E+03  0.84774134873E+03  0.00000000000E+00 0. -1.
<mgrwt>
<rscale>  3 0.27009027E+03</rscale>
<asrwt>0</asrwt>
<pdfrwt beam="1">  1       21 0.52704899E-01 0.27009027E+03</pdfrwt>
<pdfrwt beam="2">  1       -1 0.13639131E+00 0.27009027E+03</pdfrwt>
<totfact> 0.14930582E+02</totfact>
</mgrwt>
</event>
<event>
 4    0  0.1207972E-001  0.3497184E+03  0.7546771E-02  0.1062731E+00
          2   -1    0    0  502    0 -0.00000000000E+00  0.00000000000E+00  0.41381337406E+03  0.41381337406E+03  0.00000000000E+00 0.  1.
         21   -1    0    0  501  502  0.00000000000E+00 -0.00000000000E+00 -0.33203904644E+03  0.33203904644E+03  0.00000000000E+00 0.  1.
         25    1    1    2    0    0 -0.32653791998E+03 -0.71354407119E+01 -0.11060344429E+03  0.36679156150E+03  0.12500000000E+03 0.  0.
          2    1    1    2  501    0  0.32653791998E+03  0.71354407119E+01  0.19237777192E+03  0.37906085900E+03  0.00000000000E+00 0.  1.
<mgrwt>
<rscale>  3 0.34971835E+03</rscale>
<asrwt>0</asrwt>
<pdfrwt beam="1">  1       21 0.51082930E-01 0.34971835E+03</pdfrwt>
<pdfrwt beam="2">  1        2 0.63663596E-01 0.34971835E+03</pdfrwt>
<totfact> 0.33443285E+03</totfact>
</mgrwt>
</event>
<event>
 4    0  0.1373160E-001  0.3218352E+03  0.7546771E-02  0.1074808E+00
          1   -1    0    0  502    0 -0.00000000000E+00  0.00000000000E+00  0.66305312469E+03  0.66305312469E+03  0.00000000000E+00 0. -1.
         21   -1    0    0  501  502  0.00000000000E+00 -0.00000000000E+00 -0.14570430714E+03  0.14570430714E+03  0.00000000000E+00 0. -1.
         25    1    1    2    0    0  0.26800805852E+03  0.12698256323E+03  0.31032098033E+03  0.44707605800E+03  0.12500000000E+03 0.  0.
          1    1    1    2  501    0 -0.26800805852E+03 -0.12698256323E+03  0.20702783721E+03  0.36168137384E+03  0.00000000000E+00 0. -1.
<mgrwt>
<rscale>  3 0.32183519E+03</rscale>
<asrwt>0</asrwt>
<pdfrwt beam="1">  1       21 0.22416048E-01 0.32183519E+03</pdfrwt>
<pdfrwt beam="2">  1        1 0.10200817E+00 0.32183519E+03</pdfrwt>
<totfact> 0.61212706E+03</totfact>
</mgrwt>
</event>
<event>
 4    0  0.1002184E-001  0.2792982E+03  0.7546771E-02  0.1096073E+00
          1   -1    0    0  502    0 -0.00000000000E+00  0.00000000000E+00  0.31401749000E+03  0.31401749000E+03  0.00000000000E+00 0.  1.
         21   -1    0    0  501  502  0.00000000000E+00 -0.00000000000E+00 -0.24599086574E+03  0.24599086574E+03  0.00000000000E+00 0. -1.
         25    1    1    2    0    0 -0.14594061401E+03  0.20269150258E+03 -0.50036788719E+02  0.28374493522E+03  0.12500000000E+03 0.  0.
          1    1    1    2  501    0  0.14594061401E+03 -0.20269150258E+03  0.11806341298E+03  0.27626342052E+03  0.00000000000E+00 0.  1.
<mgrwt>
<rscale>  3 0.27929824E+03</rscale>
<asrwt>0</asrwt>
<pdfrwt beam="1">  1       21 0.37844749E-01 0.27929824E+03</pdfrwt>
<pdfrwt beam="2">  1        1 0.48310383E-01 0.27929824E+03</pdfrwt>
<totfact> 0.59660336E+03</totfact>
</mgrwt>
</event>
<event>
 4    0  0.1815084E-001  0.2854456E+03  0.7546771E-02  0.1092751E+00
         -1   -1    0    0    0  501 -0.00000000000E+00  0.00000000000E+00  0.70523351575E+03  0.70523351575E+03  0.00000000000E+00 0. -1.
         21   -1    0    0  501  502  0.00000000000E+00 -0.00000000000E+00 -0.16739223316E+03  0.16739223316E+03  0.00000000000E+00 0. -1.
         25    1    1    2    0    0  0.17270905619E+03 -0.18980461398E+03  0.98972834304E+01  0.28561716650E+03  0.12500000000E+03 0.  0.
         -1    1    1    2    0  502 -0.17270905619E+03  0.18980461398E+03  0.52794399916E+03  0.58700858241E+03  0.00000000000E+00 0. -1.
<mgrwt>
<rscale>  3 0.28544563E+03</rscale>
<asrwt>0</asrwt>
<pdfrwt beam="1">  1       21 0.25752652E-01 0.28544563E+03</pdfrwt>
<pdfrwt beam="2">  1       -1 0.10849746E+00 0.28544563E+03</pdfrwt>
<totfact> 0.10928343E+03</totfact>
</mgrwt>
</event>
<event>
 4    0  0.1184004E-001  0.2505920E+03  0.7546771E-02  0.1112931E+00
          3   -1    0    0  502    0 -0.00000000000E+00  0.00000000000E+00  0.27221393100E+03  0.27221393100E+03  0.00000000000E+00 0. -1.
         21   -1    0    0  501  502  0.00000000000E+00 -0.00000000000E+00 -0.35939910886E+03  0.35939910886E+03  0.00000000000E+00 0. -1.
         25    1    1    2    0    0  0.84072288010E+02  0.20025788707E+03 -0.25471526958E+03  0.35731812087E+03  0.12500000000E+03 0.  0.
          3    1    1    2  501    0 -0.84072288010E+02 -0.20025788707E+03  0.16753009172E+03  0.27429491898E+03  0.00000000000E+00 0. -1.
<mgrwt>
<rscale>  3 0.25059204E+03</rscale>
<asrwt>0</asrwt>
<pdfrwt beam="1">  1       21 0.55292170E-01 0.25059204E+03</pdfrwt>
<pdfrwt beam="2">  1        3 0.41879066E-01 0.25059204E+03</pdfrwt>
<totfact> 0.85785939E+02</totfact>
</mgrwt>
</event>
<event>
 4    0  0.1002184E-001  0.2412666E+03  0.7546771E-02  0.1118952E+00
         21   -1    0    0  501  502  0.00000000000E+00  0.00000000000E+00  0.76502485313E+02  0.76502485313E+02  0.00000000000E+00 0. -1.
          2   -1    0    0  502    0 -0.00000000000E+00 -0.00000000000E+00 -0.66346908607E+03  0.66346908607E+03  0.00000000000E+00 0.  1.
         25    1    1    2    0    0 -0.74450535251E+02 -0.19246215336E+03 -0.35827867579E+03  0.43194116752E+03  0.12500000000E+03 0.  0.
          2    1    1    2  501    0  0.74450535251E+02  0.19246215336E+03 -0.22868792496E+03  0.30803040386E+03  0.00000000000E+00 0.  1.
<mgrwt>
<rscale>  3 0.24126658E+03</rscale>
<asrwt>0</asrwt>
<pdfrwt beam="1">  1       21 0.11769613E-01 0.24126658E+03</pdfrwt>
<pdfrwt beam="2">  1        2 0.10207217E+00 0.24126658E+03</pdfrwt>
<totfact> 0.34062474E+04</totfact>
</mgrwt>
</event>
<event>
 4    0  0.1378844E-001  0.3008697E+03  0.7546771E-02  0.1084807E+00
          2   -1    0    0  502    0 -0.00000000000E+00  0.00000000000E+00  0.38655767031E+03  0.38655767031E+03  0.00000000000E+00 0.  1.
         21   -1    0    0  501  502  0.00000000000E+00 -0.00000000000E+00 -0.25373583442E+03  0.25373583442E+03  0.00000000000E+00 0.  1.
         25    1    1    2    0    0 -0.14672656087E+03 -0.23101711377E+03 -0.58330587175E+02  0.30647193659E+03  0.12500000000E+03 0.  0.
          2    1    1    2  501    0  0.14672656087E+03  0.23101711377E+03  0.19115242306E+03  0.33382156815E+03  0.00000000000E+00 0.  1.
<mgrwt>
<rscale>  3 0.30086972E+03</rscale>
<asrwt>0</asrwt>
<pdfrwt beam="1">  1       21 0.39036282E-01 0.30086972E+03</pdfrwt>
<pdfrwt beam="2">  1        2 0.59470411E-01 0.30086972E+03</pdfrwt>
<totfact> 0.63669350E+03</totfact>
</mgrwt>
</event>
<event>
 4    0  0.1131695E-001  0.4508939E+03  0.7546771E-02  0.1027456E+00
          1   -1    0    0  502    0 -0.00000000000E+00  0.00000000000E+00  0.44530098800E+03  0.44530098800E+03  0.00000000000E+00 0. -1.
         21   -1    0    0  501  502  0.00000000000E+00 -0.00000000000E+00 -0.56887843142E+03  0.56887843142E+03  0.00000000000E+00 0. -1.
         25    1    1    2    0    0  0.28190145736E+03  0.32895574363E+03 -0.30515027414E+03  0.54444651044E+03  0.12500000000E+03 0.  0.
          1    1    1    2  501    0 -0.28190145736E+03 -0.32895574363E+03  0.18157283072E+03  0.46973290898E+03  0.00000000000E+00 0. -1.
<mgrwt>
<rscale>  3 0.45089390E+03</rscale>
<asrwt>0</asrwt>
<pdfrwt beam="1">  1       21 0.87519758E-01 0.45089390E+03</pdfrwt>
<pdfrwt beam="2">  1        1 0.68507844E-01 0.45089390E+03</pdfrwt>
<totfact> 0.59043099E+02</totfact>
</mgrwt>
</event>
<event>
 4    0  0.1416780E-001  0.4631688E+03  0.7546771E-02  0.1023866E+00
          1   -1    0    0  502    0 -0.00000000000E+00  0.00000000000E+00  0.14706644988E+04  0.14706644988E+04  0.00000000000E+00 0.  1.
         21   -1    0    0  501  502  0.00000000000E+00 -0.00000000000E+00 -0.29718787179E+03  0.29718787179E+03  0.00000000000E+00 0.  1.
         25    1    1    2    0    0 -0.44348011668E+03 -0.47177589790E+02 -0.49775938187E+02  0.46583578962E+03  0.12500000000E+03 0.  0.
          1    1    1    2  501    0  0.44348011668E+03  0.47177589790E+02  0.12232525652E+04  0.13020165810E+04  0.00000000000E+00 0.  1.
<mgrwt>
<rscale>  3 0.46316880E+03</rscale>
<asrwt>0</asrwt>
<pdfrwt beam="1">  1       21 0.45721212E-01 0.46316880E+03</pdfrwt>
<pdfrwt beam="2">  1        1 0.22625607E+00 0.46316880E+03</pdfrwt>
<totfact> 0.34367164E+02</totfact>
</mgrwt>
</event>
<event>
 4    0  0.1002184E-001  0.2501008E+03  0.7546771E-02  0.1113241E+00
         21   -1    0    0  501  502  0.00000000000E+00  0.00000000000E+00  0.27965043800E+02  0.27965043800E+02  0.00000000000E+00 0. -1.
          1   -1    0    0  502    0 -0.00000000000E+00 -0.00000000000E+00 -0.27761330138E+04  0.27761330138E+04  0.00000000000E+00 0.  1.
         25    1    1    2    0    0 -0.21007603455E+03  0.52853277721E+02 -0.67854429955E+03  0.72316856659E+03  0.12500000000E+03 0.  0.
          1    1    1    2  501    0  0.21007603455E+03 -0.52853277721E+02 -0.20696236705E+04  0.20809294910E+04  0.00000000000E+00 0.  1.
<mgrwt>
<rscale>  3 0.25010080E+03</rscale>
<asrwt>0</asrwt>
<pdfrwt beam="1">  1       21 0.43023126E-02 0.25010080E+03</pdfrwt>
<pdfrwt beam="2">  1        1 0.42709757E+00 0.25010080E+03</pdfrwt>
<totfact> 0.40370343E+03</totfact>
</mgrwt>
</event>
<event>
 4    0  0.1248697E-001  0.3736228E+03  0.7546771E-02  0.1053316E+00
         21   -1    0    0  501  502  0.00000000000E+00  0.00000000000E+00  0.91893787059E+02  0.91893787059E+02  0.00000000000E+00 0.  1.
          1   -1    0    0  502    0 -0.00000000000E+00 -0.00000000000E+00 -0.24700710346E+04  0.24700710346E+04  0.00000000000E+00 0.  1.
         25    1    1    2    0    0 -0.25946413208E+03 -0.23800703704E+03 -0.37965683023E+03  0.53266621280E+03  0.12500000000E+03 0.  0.
          1    1    1    2  501    0  0.25946413208E+03  0.23800703704E+03 -0.19985204173E+04  0.20292986089E+04  0.00000000000E+00 0.  1.
<mgrwt>
<rscale>  3 0.37362279E+03</rscale>
<asrwt>0</asrwt>
<pdfrwt beam="1">  1       21 0.14137508E-01 0.37362279E+03</pdfrwt>
<pdfrwt beam="2">  1        1 0.38001087E+00 0.37362279E+03</pdfrwt>
<totfact> 0.76320421E+02</totfact>
</mgrwt>
</event>
<event>
 4    0  0.1562065E-001  0.2663820E+03  0.7546771E-02  0.1103368E+00
         21   -1    0    0  501  502  0.00000000000E+00  0.00000000000E+00  0.31266400134E+02  0.31266400134E+02  0.00000000000E+00 0. -1.
          2   -1    0    0  502    0 -0.00000000000E+00 -0.00000000000E+00 -0.20721491246E+04  0.20721491246E+04  0.00000000000E+00 0. -1.
         25    1    1    2    0    0 -0.18272221325E+03 -0.14814506547E+03 -0.12609901613E+04  0.12888194422E+04  0.12500000000E+03 0.  0.
          2    1    1    2  501    0  0.18272221325E+03  0.14814506547E+03 -0.77989256312E+03  0.81459608252E+03  0.00000000000E+00 0. -1.
<mgrwt>
<rscale>  3 0.26638200E+03</rscale>
<asrwt>0</asrwt>
<pdfrwt beam="1">  1       21 0.48102172E-02 0.26638200E+03</pdfrwt>
<pdfrwt beam="2">  1        2 0.31879205E+00 0.26638200E+03</pdfrwt>
<totfact> 0.24840271E+04</totfact>
</mgrwt>
</event>
<event>
 4    0  0.1406529E-001  0.2430189E+03  0.7546771E-02  0.1117798E+00
         21   -1    0    0  501  502  0.00000000000E+00  0.00000000000E+00  0.35399221761E+02  0.35399221761E+02  0.00000000000E+00 0.  1.
          2   -1    0    0  502    0 -0.00000000000E+00 -0.00000000000E+00 -0.17363553141E+04  0.17363553141E+04  0.00000000000E+00 0.  1.
         25    1    1    2    0    0 -0.13452340615E+03 -0.15917485639E+03 -0.53893829966E+03  0.59119596797E+03  0.12500000000E+03 0.  0.
          2    1    1    2  501    0  0.13452340615E+03  0.15917485639E+03 -0.11620177926E+04  0.11805585679E+04  0.00000000000E+00 0.  1.
<mgrwt>
<rscale>  3 0.24301889E+03</rscale>
<asrwt>0</asrwt>
<pdfrwt beam="1">  1       21 0.54460355E-02 0.24301889E+03</pdfrwt>
<pdfrwt beam="2">  1        2 0.26713152E+00 0.24301889E+03</pdfrwt>
<totfact> 0.30322595E+04</totfact>
</mgrwt>
</event>
<event>
 4    0  0.1002184E-001  0.6546085E+03  0.7546771E-02  0.9798170E-01
         21   -1    0    0  501  502  0.00000000000E+00  0.00000000000E+00  0.19359795304E+03  0.19359795304E+03  0.00000000000E+00 0.  1.
          1   -1    0    0  502    0 -0.00000000000E+00 -0.00000000000E+00 -0.26583180032E+04  0.26583180032E+04  0.00000000000E+00 0.  1.
         25    1    1    2    0    0 -0.64068058514E+03  0.49149975639E+02 -0.63237560404E+03  0.91017099320E+03  0.12500000000E+03 0.  0.
          1    1    1    2  501    0  0.64068058514E+03 -0.49149975639E+02 -0.18323444461E+04  0.19417449631E+04  0.00000000000E+00 0.  1.
<mgrwt>
<rscale>  3 0.65460853E+03</rscale>
<asrwt>0</asrwt>
<pdfrwt beam="1">  1       21 0.29784303E-01 0.65460853E+03</pdfrwt>
<pdfrwt beam="2">  1        1 0.40897196E+00 0.65460853E+03</pdfrwt>
<totfact> 0.12544764E+02</totfact>
</mgrwt>
</event>
<event>
 4    0  0.1160451E-001  0.2614095E+03  0.7546771E-02  0.1106299E+00
          2   -1    0    0  502    0 -0.00000000000E+00  0.00000000000E+00  0.21668367236E+03  0.21668367236E+03  0.00000000000E+00 0.  1.
         21   -1    0    0  501  502  0.00000000000E+00 -0.00000000000E+00 -0.36374924969E+03  0.36374924969E+03  0.00000000000E+00 0.  1.
         25    1    1    2    0    0  0.22441373392E+03 -0.48460144088E+02 -0.21774069224E+03  0.34021451850E+03  0.12500000000E+03 0.  0.
          2    1    1    2  501    0 -0.22441373392E+03  0.48460144088E+02  0.70675114921E+02  0.24021840355E+03  0.00000000000E+00 0.  1.
<mgrwt>
<rscale>  3 0.26140947E+03</rscale>
<asrwt>0</asrwt>
<pdfrwt beam="1">  1       21 0.55961423E-01 0.26140947E+03</pdfrwt>
<pdfrwt beam="2">  1        2 0.33335950E-01 0.26140947E+03</pdfrwt>
<totfact> 0.56866898E+03</totfact>
</mgrwt>
</event>
<event>
 4    0  0.1198289E-001  0.5277891E+03  0.7546771E-02  0.1006770E+00
         21   -1    0    0  501  502  0.00000000000E+00  0.00000000000E+00  0.40727048018E+03  0.40727048018E+03  0.00000000000E+00 0. -1.
          2   -1    0    0  502    0 -0.00000000000E+00 -0.00000000000E+00 -0.14890039212E+04  0.14890039212E+04  0.00000000000E+00 0. -1.
         25    1    1    2    0    0 -0.45707301139E+03  0.23242325946E+03  0.16108897292E+03  0.55182512309E+03  0.12500000000E+03 0.  0.
          2    1    1    2  501    0  0.45707301139E+03 -0.23242325946E+03 -0.12428224140E+04  0.13444492783E+04  0.00000000000E+00 0. -1.
<mgrwt>
<rscale>  3 0.52778908E+03</rscale>
<asrwt>0</asrwt>
<pdfrwt beam="1">  1       21 0.62656998E-01 0.52778908E+03</pdfrwt>
<pdfrwt beam="2">  1        2 0.22907752E+00 0.52778908E+03</pdfrwt>
<totfact> 0.36176967E+02</totfact>
</mgrwt>
</event>
<event>
 4    0  0.1578877E-001  0.3089469E+03  0.7546771E-02  0.1080852E+00
         -1   -1    0    0    0  501 -0.00000000000E+00  0.00000000000E+00  0.49596741887E+03  0.49596741887E+03  0.00000000000E+00 0.  1.
         21   -1    0    0  501  502  0.00000000000E+00 -0.00000000000E+00 -0.10696798369E+04  0.10696798369E+04  0.00000000000E+00 0.  1.
         25    1    1    2    0    0 -0.42034785659E+01  0.28249866638E+03 -0.10042429501E+04  0.10506912337E+04  0.12500000000E+03 0.  0.
         -1    1    1    2    0  502  0.42034785659E+01 -0.28249866638E+03  0.43053053201E+03  0.51495602213E+03  0.00000000000E+00 0.  1.
<mgrwt>
<rscale>  3 0.30894687E+03</rscale>
<asrwt>0</asrwt>
<pdfrwt beam="1">  1       21 0.16456613E+00 0.30894687E+03</pdfrwt>
<pdfrwt beam="2">  1       -1 0.76302680E-01 0.30894687E+03</pdfrwt>
<totfact> 0.36024056E+01</totfact>
</mgrwt>
</event>
<event>
 4    0  0.1274513E-001  0.3230645E+03  0.7546771E-02  0.1074248E+00
         21   -1    0    0  501  502  0.00000000000E+00  0.00000000000E+00  0.12750675782E+03  0.12750675782E+03  0.00000000000E+00 0. -1.
          2   -1    0    0  502    0 -0.00000000000E+00 -0.00000000000E+00 -0.17203760346E+04  0.17203760346E+04  0.00000000000E+00 0.  1.
         25    1    1    2    0    0 -0.25708744875E+03 -0.15050488650E+03 -0.11911945298E+03  0.34432560352E+03  0.12500000000E+03 0.  0.
          2    1    1    2  501    0  0.25708744875E+03  0.15050488650E+03 -0.14737498238E+04  0.15035571889E+04  0.00000000000E+00 0.  1.
<mgrwt>
<rscale>  3 0.32306451E+03</rscale>
<asrwt>0</asrwt>
<pdfrwt beam="1">  1       21 0.19616426E-01 0.32306451E+03</pdfrwt>
<pdfrwt beam="2">  1        2 0.26467322E+00 0.32306451E+03</pdfrwt>
<totfact> 0.30487996E+03</totfact>
</mgrwt>
</event>
<event>
 4    0  0.1244484E-001  0.2865284E+03  0.7546771E-02  0.1092176E+00
          1   -1    0    0  502    0 -0.00000000000E+00  0.00000000000E+00  0.29319634961E+03  0.29319634961E+03  0.00000000000E+00 0. -1.
         21   -1    0    0  501  502  0.00000000000E+00 -0.00000000000E+00 -0.28881343111E+03  0.28881343111E+03  0.00000000000E+00 0. -1.
         25    1    1    2    0    0  0.16947038128E+03  0.19430218869E+03 -0.10053637587E+03  0.30365459577E+03  0.12500000000E+03 0.  0.
          1    1    1    2  501    0 -0.16947038128E+03 -0.19430218869E+03  0.10491929437E+03  0.27835518495E+03  0.00000000000E+00 0. -1.
<mgrwt>
<rscale>  3 0.28652845E+03</rscale>
<asrwt>0</asrwt>
<pdfrwt beam="1">  1       21 0.44432836E-01 0.28652845E+03</pdfrwt>
<pdfrwt beam="2">  1        1 0.45107130E-01 0.28652845E+03</pdfrwt>
<totfact> 0.46788270E+03</totfact>
</mgrwt>
</event>
<event>
 4    0  0.1321747E-001  0.2591532E+03  0.7546771E-02  0.1107653E+00
         21   -1    0    0  501  502  0.00000000000E+00  0.00000000000E+00  0.16935744852E+03  0.16935744852E+03  0.00000000000E+00 0. -1.
          2   -1    0    0  502    0 -0.00000000000E+00 -0.00000000000E+00 -0.79603482500E+03  0.79603482500E+03  0.00000000000E+00 0.  1.
         25    1    1    2    0    0  0.17657624618E+03 -0.14267518684E+03  0.38999095658E+02  0.26207119094E+03  0.12500000000E+03 0.  0.
          2    1    1    2  501    0 -0.17657624618E+03  0.14267518684E+03 -0.66567647213E+03  0.70332108258E+03  0.00000000000E+00 0.  1.
<mgrwt>
<rscale>  3 0.25915320E+03</rscale>
<asrwt>0</asrwt>
<pdfrwt beam="1">  1       21 0.26054991E-01 0.25915320E+03</pdfrwt>
<pdfrwt beam="2">  1        2 0.12246690E+00 0.25915320E+03</pdfrwt>
<totfact> 0.61918969E+03</totfact>
</mgrwt>
</event>
<event>
 4    0  0.1395317E-001  0.3489711E+03  0.7546771E-02  0.1063038E+00
          2   -1    0    0  502    0 -0.00000000000E+00  0.00000000000E+00  0.63343708281E+03  0.63343708281E+03  0.00000000000E+00 0. -1.
         21   -1    0    0  501  502  0.00000000000E+00 -0.00000000000E+00 -0.57939274980E+03  0.57939274980E+03  0.00000000000E+00 0. -1.
         25    1    1    2    0    0  0.32195601810E+03  0.50001283437E+02 -0.47626311145E+03  0.59042980723E+03  0.12500000000E+03 0.  0.
          2    1    1    2  501    0 -0.32195601810E+03 -0.50001283437E+02  0.53030744446E+03  0.62240002538E+03  0.00000000000E+00 0. -1.
<mgrwt>
<rscale>  3 0.34897107E+03</rscale>
<asrwt>0</asrwt>
<pdfrwt beam="1">  1       21 0.89137346E-01 0.34897107E+03</pdfrwt>
<pdfrwt beam="2">  1        2 0.97451859E-01 0.34897107E+03</pdfrwt>
<totfact> 0.59497286E+02</totfact>
</mgrwt>
</event>
<event>
 4    0  0.1002184E-001  0.2790720E+03  0.7546771E-02  0.1096197E+00
         21   -1    0    0  501  502  0.00000000000E+00  0.00000000000E+00  0.36412878717E+02  0.36412878717E+02  0.00000000000E+00 0.  1.
          2   -1    0    0  502    0 -0.00000000000E+00 -0.00000000000E+00 -0.25601493659E+04  0.25601493659E+04  0.00000000000E+00 0. -1.
         25    1    1    2    0    0  0.18900262905E+03 -0.16289317529E+03 -0.66543867136E+03  0.72158839076E+03  0.12500000000E+03 0.  0.
          2    1    1    2  501    0 -0.18900262905E+03  0.16289317529E+03 -0.18582978158E+04  0.18749738538E+04  0.00000000000E+00 0. -1.
<mgrwt>
<rscale>  3 0.27907200E+03</rscale>
<asrwt>0</asrwt>
<pdfrwt beam="1">  1       21 0.56019807E-02 0.27907200E+03</pdfrwt>
<pdfrwt beam="2">  1        2 0.39386918E+00 0.27907200E+03</pdfrwt>
<totfact> 0.10410400E+04</totfact>
</mgrwt>
</event>
<event>
 4    0  0.1051408E-001  0.2775475E+03  0.7546771E-02  0.1097036E+00
          2   -1    0    0  502    0 -0.00000000000E+00  0.00000000000E+00  0.19706791520E+04  0.19706791520E+04  0.00000000000E+00 0.  1.
         21   -1    0    0  501  502  0.00000000000E+00 -0.00000000000E+00 -0.54770372933E+02  0.54770372933E+02  0.00000000000E+00 0. -1.
         25    1    1    2    0    0  0.24540803334E+03  0.34387419222E+02  0.38499208360E+03  0.47460668122E+03  0.12500000000E+03 0.  0.
          2    1    1    2  501    0 -0.24540803334E+03 -0.34387419222E+02  0.15309166955E+04  0.15508428437E+04  0.00000000000E+00 0.  1.
<mgrwt>
<rscale>  3 0.27754747E+03</rscale>
<asrwt>0</asrwt>
<pdfrwt beam="1">  1       21 0.84262127E-02 0.27754747E+03</pdfrwt>
<pdfrwt beam="2">  1        2 0.30318135E+00 0.27754747E+03</pdfrwt>
<totfact> 0.10611708E+04</totfact>
</mgrwt>
</event>
<event>
 4    0  0.1082381E-001  0.2511623E+03  0.7546771E-02  0.1112572E+00
          2   -1    0    0  502    0 -0.00000000000E+00  0.00000000000E+00  0.91519142928E+03  0.91519142928E+03  0.00000000000E+00 0.  1.
         21   -1    0    0  501  502  0.00000000000E+00 -0.00000000000E+00 -0.93451264958E+02  0.93451264958E+02  0.00000000000E+00 0. -1.
         25    1    1    2    0    0  0.18732888140E+03  0.11119976874E+03  0.12879297157E+03  0.28225897311E+03  0.12500000000E+03 0.  0.
          2    1    1    2  501    0 -0.18732888140E+03 -0.11119976874E+03  0.69294719275E+03  0.72638372113E+03  0.00000000000E+00 0.  1.
<mgrwt>
<rscale>  3 0.25116229E+03</rscale>
<asrwt>0</asrwt>
<pdfrwt beam="1">  1       21 0.14377118E-01 0.25116229E+03</pdfrwt>
<pdfrwt beam="2">  1        2 0.14079868E+00 0.25116229E+03</pdfrwt>
<totfact> 0.15757980E+04</totfact>
</mgrwt>
</event>
<event>
 4    0  0.1310199E-001  0.2803868E+03  0.7546771E-02  0.1095478E+00
         21   -1    0    0  501  502  0.00000000000E+00  0.00000000000E+00  0.33667636439E+03  0.33667636439E+03  0.00000000000E+00 0.  1.
          1   -1    0    0  502    0 -0.00000000000E+00 -0.00000000000E+00 -0.23076591457E+03  0.23076591457E+03  0.00000000000E+00 0.  1.
         25    1    1    2    0    0  0.20502744527E+03  0.14476009460E+03 -0.30063893945E+02  0.28199392905E+03  0.12500000000E+03 0.  0.
          1    1    1    2  501    0 -0.20502744527E+03 -0.14476009460E+03  0.13597434377E+03  0.28544834991E+03  0.00000000000E+00 0.  1.
<mgrwt>
<rscale>  3 0.28038677E+03</rscale>
<asrwt>0</asrwt>
<pdfrwt beam="1">  1       21 0.51796364E-01 0.28038677E+03</pdfrwt>
<pdfrwt beam="2">  1        1 0.35502448E-01 0.28038677E+03</pdfrwt>
<totfact> 0.45999292E+03</totfact>
</mgrwt>
</event>
<event>
 4    0  0.1532854E-001  0.3838754E+03  0.7546771E-02  0.1049511E+00
          2   -1    0    0  502    0 -0.00000000000E+00  0.00000000000E+00  0.84364602029E+03  0.84364602029E+03  0.00000000000E+00 0.  1.
         21   -1    0    0  501  502  0.00000000000E+00 -0.00000000000E+00 -0.39336255911E+03  0.39336255911E+03  0.00000000000E+00 0.  1.
         25    1    1    2    0    0  0.31384304081E+03  0.18231249773E+03 -0.24309874381E+03  0.45437572595E+03  0.12500000000E+03 0.  0.
          2    1    1    2  501    0 -0.31384304081E+03 -0.18231249773E+03  0.69338220499E+03  0.78263285345E+03  0.00000000000E+00 0.  1.
<mgrwt>
<rscale>  3 0.38387537E+03</rscale>
<asrwt>0</asrwt>
<pdfrwt beam="1">  1       21 0.60517317E-01 0.38387537E+03</pdfrwt>
<pdfrwt beam="2">  1        2 0.12979169E+00 0.38387537E+03</pdfrwt>
<totfact> 0.98702493E+02</totfact>
</mgrwt>
</event>
<event>
 4    0  0.1631871E-001  0.2866705E+03  0.7546771E-02  0.1092100E+00
          2   -1    0    0  502    0 -0.00000000000E+00  0.00000000000E+00  0.10057580693E+04  0.10057580693E+04  0.00000000000E+00 0. -1.
         21   -1    0    0  501  502  0.00000000000E+00 -0.00000000000E+00 -0.87223226844E+02  0.87223226844E+02  0.00000000000E+00 0. -1.
         25    1    1    2    0    0 -0.24985110877E+03  0.64260399933E+02  0.26508314552E+03  0.39044724303E+03  0.12500000000E+03 0.  0.
          2    1    1    2  501    0  0.24985110877E+03 -0.64260399933E+02  0.65345169690E+03  0.70253405308E+03  0.00000000000E+00 0. -1.
<mgrwt>
<rscale>  3 0.28667050E+03</rscale>
<asrwt>0</asrwt>
<pdfrwt beam="1">  1       21 0.13418959E-01 0.28667050E+03</pdfrwt>
<pdfrwt beam="2">  1        2 0.15473200E+00 0.28667050E+03</pdfrwt>
<totfact> 0.15570773E+04</totfact>
</mgrwt>
</event>
<event>
 4    0  0.1002184E-001  0.2405071E+03  0.7546771E-02  0.1119455E+00
          1   -1    0    0  502    0 -0.00000000000E+00  0.00000000000E+00  0.10207493996E+03  0.10207493996E+03  0.00000000000E+00 0.  1.
         21   -1    0    0  501  502  0.00000000000E+00 -0.00000000000E+00 -0.99974602101E+03  0.99974602101E+03  0.00000000000E+00 0.  1.
         25    1    1    2    0    0  0.18431812538E+03 -0.90804804659E+02 -0.85990712568E+03  0.89290758127E+03  0.12500000000E+03 0.  0.
          1    1    1    2  501    0 -0.18431812538E+03  0.90804804659E+02 -0.37763955378E+02  0.20891337970E+03  0.00000000000E+00 0.  1.
<mgrwt>
<rscale>  3 0.24050714E+03</rscale>
<asrwt>0</asrwt>
<pdfrwt beam="1">  1       21 0.15380707E+00 0.24050714E+03</pdfrwt>
<pdfrwt beam="2">  1        1 0.15703838E-01 0.24050714E+03</pdfrwt>
<totfact> 0.10259948E+03</totfact>
</mgrwt>
</event>
<event>
 4    0  0.1492287E-001  0.2986054E+03  0.7546771E-02  0.1085940E+00
          2   -1    0    0  502    0 -0.00000000000E+00  0.00000000000E+00  0.17506005550E+04  0.17506005550E+04  0.00000000000E+00 0. -1.
         21   -1    0    0  501  502  0.00000000000E+00 -0.00000000000E+00 -0.56730486359E+02  0.56730486359E+02  0.00000000000E+00 0. -1.
         25    1    1    2    0    0  0.18580894891E+03  0.19752268189E+03  0.49431992221E+03  0.57750961970E+03  0.12500000000E+03 0.  0.
          2    1    1    2  501    0 -0.18580894891E+03 -0.19752268189E+03  0.11995501464E+04  0.12298214217E+04  0.00000000000E+00 0. -1.
<mgrwt>
<rscale>  3 0.29860538E+03</rscale>
<asrwt>0</asrwt>
<pdfrwt beam="1">  1       21 0.87277685E-02 0.29860538E+03</pdfrwt>
<pdfrwt beam="2">  1        2 0.26932312E+00 0.29860538E+03</pdfrwt>
<totfact> 0.12950476E+04</totfact>
</mgrwt>
</event>
<event>
 4    0  0.1002184E-001  0.2527696E+03  0.7546771E-02  0.1111567E+00
         -4   -1    0    0    0  501 -0.00000000000E+00  0.00000000000E+00  0.46701496569E+03  0.46701496569E+03  0.00000000000E+00 0.  1.
         21   -1    0    0  501  502  0.00000000000E+00 -0.00000000000E+00 -0.16572294349E+03  0.16572294349E+03  0.00000000000E+00 0. -1.
         25    1    1    2    0    0  0.11664302127E+03 -0.18617702446E+03 -0.85445910458E+01  0.25291399503E+03  0.12500000000E+03 0.  0.
         -4    1    1    2    0  502 -0.11664302127E+03  0.18617702446E+03  0.30983661325E+03  0.37982391415E+03  0.00000000000E+00 0.  1.
<mgrwt>
<rscale>  3 0.25276962E+03</rscale>
<asrwt>0</asrwt>
<pdfrwt beam="1">  1       21 0.25495838E-01 0.25276962E+03</pdfrwt>
<pdfrwt beam="2">  1       -4 0.71848456E-01 0.25276962E+03</pdfrwt>
<totfact> 0.11063463E+03</totfact>
</mgrwt>
</event>
