<event>
 5    0  0.3275920E+000  0.2986301E+03  0.7546771E-02  0.1085927E+00
          1   -1    0    0  503    0 -0.00000000000E+00  0.00000000000E+00  0.32277651119E+03  0.32277651119E+03  0.00000000000E+00 0. -1.
         21   -1    0    0  501  502  0.00000000000E+00 -0.00000000000E+00 -0.15884832806E+04  0.15884832806E+04  0.00000000000E+00 0.  1.
         25    1    1    2    0    0 -0.60248508650E+02  0.26332237357E+03 -0.14596196372E+04  0.14896586994E+04  0.12500000000E+03 0.  0.
         21    1    1    2  503  502 -0.22533243074E+02  0.92144999437E+01  0.12660540589E+03  0.12892471777E+03  0.00000000000E+00 0.  1.
          1    1    1    2  501    0  0.82781751724E+02 -0.27253687352E+03  0.67307461929E+02  0.29267637465E+03  0.00000000000E+00 0. -1.
<mgrwt>
<rscale>  4 0.29863011E+03</rscale>
<asrwt>0</asrwt>
<pdfrwt beam="1">  1       21 0.24438204E+00 0.29863011E+03</pdfrwt>
<pdfrwt beam="2">  1        1 0.49657925E-01 0.29863011E+03</pdfrwt>
<totfact> 0.57166013E+01</totfact>
</mgrwt>
</event>
<event>
 5    0  0.3275920E+000  0.2626616E+03  0.7546771E-02  0.1105555E+00
          2   -1    0    0  503    0 -0.00000000000E+00  0.00000000000E+00  0.10684233608E+04  0.10684233608E+04  0.00000000000E+00 0. -1.
         21   -1    0    0  501  502  0.00000000000E+00 -0.00000000000E+00 -0.59313898808E+03  0.59313898808E+03  0.00000000000E+00 0.  1.
         25    1    1    2    0    0  0.17903574918E+03 -0.14521397588E+03 -0.54569267521E+03  0.60543075083E+03  0.12500000000E+03 0.  0.
         21    1    1    2  503  502  0.20327603153E+01 -0.22976086515E+02  0.83219054019E+02  0.86356491463E+02  0.00000000000E+00 0. -1.
          2    1    1    2  501    0 -0.18106850950E+03  0.16819006239E+03  0.93775799391E+03  0.96977510659E+03  0.00000000000E+00 0. -1.
<mgrwt>
<rscale>  4 0.26266161E+03</rscale>
<asrwt>0</asrwt>
<pdfrwt beam="1">  1       21 0.91252152E-01 0.26266161E+03</pdfrwt>
<pdfrwt beam="2">  1        2 0.16437282E+00 0.26266161E+03</pdfrwt>
<totfact> 0.29509235E+02</totfact>
</mgrwt>
</event>
<event>
 5    0  0.3275920E+000  0.3292261E+03  0.7546771E-02  0.1071480E+00
          2   -1    0    0  503    0 -0.00000000000E+00  0.00000000000E+00  0.26116152964E+04  0.26116152964E+04  0.00000000000E+00 0.  1.
         21   -1    0    0  501  502  0.00000000000E+00 -0.00000000000E+00 -0.14026592837E+03  0.14026592837E+03  0.00000000000E+00 0.  1.
         25    1    1    2    0    0 -0.26498735811E+03  0.15671639577E+03  0.91728038977E+02  0.34469894371E+03  0.12500000000E+03 0.  0.
         21    1    1    2  503  502  0.22825980359E+03 -0.16764597233E+03  0.14864373025E+04  0.15131766467E+04  0.00000000000E+00 0.  1.
          2    1    1    2  501    0  0.36727554516E+02  0.10929576562E+02  0.89318402662E+03  0.89400563439E+03  0.00000000000E+00 0.  1.
<mgrwt>
<rscale>  4 0.32922611E+03</rscale>
<asrwt>0</asrwt>
<pdfrwt beam="1">  1       21 0.21579375E-01 0.32922611E+03</pdfrwt>
<pdfrwt beam="2">  1        2 0.40178693E+00 0.32922611E+03</pdfrwt>
<totfact> 0.84138940E+02</totfact>
</mgrwt>
</event>
<event>
 5    0  0.3275920E+000  0.2713047E+03  0.7546771E-02  0.1100535E+00
         21   -1    0    0  501  502  0.00000000000E+00  0.00000000000E+00  0.19579324998E+03  0.19579324998E+03  0.00000000000E+00 0. -1.
          2   -1    0    0  503    0 -0.00000000000E+00 -0.00000000000E+00 -0.39795622309E+03  0.39795622309E+03  0.00000000000E+00 0. -1.
         25    1    1    2    0    0 -0.17233207752E+03  0.16524427809E+03 -0.81948096563E+02  0.28168157007E+03  0.12500000000E+03 0.  0.
         21    1    1    2  503  502  0.28311060450E+02  0.32625408471E+02 -0.20210183502E+02  0.47690512043E+02  0.00000000000E+00 0.  1.
          2    1    1    2  501    0  0.14402101707E+03 -0.19786968656E+03 -0.10000469304E+03  0.26437739096E+03  0.00000000000E+00 0. -1.
<mgrwt>
<rscale>  4 0.27130475E+03</rscale>
<asrwt>0</asrwt>
<pdfrwt beam="1">  1       21 0.30122039E-01 0.27130475E+03</pdfrwt>
<pdfrwt beam="2">  1        2 0.61224034E-01 0.27130475E+03</pdfrwt>
<totfact> 0.10413283E+04</totfact>
</mgrwt>
</event>
<event>
 5    0  0.3275920E+000  0.2590986E+03  0.7546771E-02  0.1107686E+00
          2   -1    0    0  503    0 -0.00000000000E+00  0.00000000000E+00  0.66859460831E+03  0.66859460831E+03  0.00000000000E+00 0.  1.
         21   -1    0    0  501  502  0.00000000000E+00 -0.00000000000E+00 -0.28847198303E+03  0.28847198303E+03  0.00000000000E+00 0. -1.
         25    1    1    2    0    0  0.18430991136E+03 -0.12001391010E+03 -0.15572069791E+03  0.29706466939E+03  0.12500000000E+03 0.  0.
         21    1    1    2  503  502  0.25043916989E+02 -0.71566903859E+02  0.33178886271E+02  0.82763868931E+02  0.00000000000E+00 0.  1.
          2    1    1    2  501    0 -0.20935382835E+03  0.19158081396E+03  0.50266443692E+03  0.57723805302E+03  0.00000000000E+00 0.  1.
<mgrwt>
<rscale>  4 0.25909860E+03</rscale>
<asrwt>0</asrwt>
<pdfrwt beam="1">  1       21 0.44380305E-01 0.25909860E+03</pdfrwt>
<pdfrwt beam="2">  1        2 0.10286071E+00 0.25909860E+03</pdfrwt>
<totfact> 0.26558049E+03</totfact>
</mgrwt>
</event>
<event>
 5    0  0.3275920E+000  0.3309826E+03  0.7546771E-02  0.1070703E+00
          2   -1    0    0  503    0 -0.00000000000E+00  0.00000000000E+00  0.10482980001E+04  0.10482980001E+04  0.00000000000E+00 0. -1.
         21   -1    0    0  501  502  0.00000000000E+00 -0.00000000000E+00 -0.26132362659E+03  0.26132362659E+03  0.00000000000E+00 0.  1.
         25    1    1    2    0    0  0.10312503672E+03  0.28928311736E+03 -0.10662129756E+03  0.34829957836E+03  0.12500000000E+03 0.  0.
         21    1    1    2  503  502  0.43226493279E+02 -0.21250750835E+02  0.99998424706E+02  0.11099463535E+03  0.00000000000E+00 0.  1.
          2    1    1    2  501    0 -0.14635153000E+03 -0.26803236653E+03  0.79359724633E+03  0.85032741296E+03  0.00000000000E+00 0. -1.
<mgrwt>
<rscale>  4 0.33098256E+03</rscale>
<asrwt>0</asrwt>
<pdfrwt beam="1">  1       21 0.40203635E-01 0.33098256E+03</pdfrwt>
<pdfrwt beam="2">  1        2 0.16127661E+00 0.33098256E+03</pdfrwt>
<totfact> 0.17603209E+03</totfact>
</mgrwt>
</event>
<event>
 5    0  0.3275920E+000  0.7108120E+03  0.7546771E-02  0.1003445E+00
          2   -1    0    0  503    0 -0.00000000000E+00  0.00000000000E+00  0.27569249783E+04  0.27569249783E+04  0.00000000000E+00 0.  1.
         21   -1    0    0  501  502  0.00000000000E+00 -0.00000000000E+00 -0.67786963838E+03  0.67786963838E+03  0.00000000000E+00 0.  1.
         25    1    1    2    0    0  0.20415453477E+03 -0.11732385983E+02 -0.44101833303E+03  0.50193514822E+03  0.12500000000E+03 0.  0.
         21    1    1    2  503  502  0.33929789673E+03 -0.52464714568E+03  0.59879990485E+03  0.86541262774E+03  0.00000000000E+00 0.  1.
          2    1    1    2  501    0 -0.54345243150E+03  0.53637953166E+03  0.19212737681E+04  0.20674468407E+04  0.00000000000E+00 0.  1.
<mgrwt>
<rscale>  4 0.54165095E+03</rscale>
<asrwt>0</asrwt>
<pdfrwt beam="1">  1       21 0.10428764E+00 0.71081203E+03</pdfrwt>
<pdfrwt beam="2">  1        2 0.42414230E+00 0.71081203E+03</pdfrwt>
<totfact> 0.20742029E+01</totfact>
</mgrwt>
</event>
<event>
 5    0  0.3275920E+000  0.2372160E+03  0.7546771E-02  0.1121661E+00
          4   -1    0    0  503    0 -0.00000000000E+00  0.00000000000E+00  0.15363654183E+04  0.15363654183E+04  0.00000000000E+00 0. -1.
         21   -1    0    0  501  502  0.00000000000E+00 -0.00000000000E+00 -0.73878093011E+02  0.73878093011E+02  0.00000000000E+00 0.  1.
         25    1    1    2    0    0  0.68819403102E+02 -0.19191669990E+03  0.16149949736E+03  0.28857445762E+03  0.12500000000E+03 0.  0.
         21    1    1    2  503  502 -0.35051862337E+02  0.30831745797E+01  0.11484512409E+03  0.12011470163E+03  0.00000000000E+00 0.  1.
          4    1    1    2  501    0 -0.33767540765E+02  0.18883352532E+03  0.11861427038E+04  0.12015543520E+04  0.00000000000E+00 0. -1.
<mgrwt>
<rscale>  4 0.23721596E+03</rscale>
<asrwt>0</asrwt>
<pdfrwt beam="1">  1       21 0.11365862E-01 0.23721596E+03</pdfrwt>
<pdfrwt beam="2">  1        4 0.23636389E+00 0.23721596E+03</pdfrwt>
<totfact> 0.23519705E+02</totfact>
</mgrwt>
</event>
<event>
 5    0  0.3275920E+000  0.2478064E+03  0.7546771E-02  0.1114699E+00
          1   -1    0    0  503    0 -0.00000000000E+00  0.00000000000E+00  0.15872432336E+04  0.15872432336E+04  0.00000000000E+00 0. -1.
         21   -1    0    0  501  502  0.00000000000E+00 -0.00000000000E+00 -0.27896811415E+03  0.27896811415E+03  0.00000000000E+00 0.  1.
         25    1    1    2    0    0 -0.13396203994E+03 -0.17083696336E+03 -0.20754768645E+03  0.32531851830E+03  0.12500000000E+03 0.  0.
         21    1    1    2  503  502  0.91166516192E+02  0.16430567901E+02  0.28480975434E+03  0.29949606575E+03  0.00000000000E+00 0. -1.
          1    1    1    2  501    0  0.42795523744E+02  0.15440639546E+03  0.12310130515E+04  0.12413967637E+04  0.00000000000E+00 0. -1.
<mgrwt>
<rscale>  4 0.24780636E+03</rscale>
<asrwt>0</asrwt>
<pdfrwt beam="1">  1       21 0.42918172E-01 0.24780636E+03</pdfrwt>
<pdfrwt beam="2">  1        1 0.24419126E+00 0.24780636E+03</pdfrwt>
<totfact> 0.35852884E+02</totfact>
</mgrwt>
</event>
<event>
 5    0  0.3275920E+000  0.2453297E+03  0.7546771E-02  0.1116292E+00
          2   -1    0    0  503    0 -0.00000000000E+00  0.00000000000E+00  0.51204616143E+03  0.51204616143E+03  0.00000000000E+00 0.  1.
         21   -1    0    0  501  502  0.00000000000E+00 -0.00000000000E+00 -0.26559399236E+03  0.26559399236E+03  0.00000000000E+00 0.  1.
         25    1    1    2    0    0 -0.19351679419E+03 -0.84123514394E+02 -0.15402373363E+03  0.28960978200E+03  0.12500000000E+03 0.  0.
         21    1    1    2  503  502 -0.97129895748E+01  0.22002261249E+02  0.18077307559E+03  0.18236596866E+03  0.00000000000E+00 0.  1.
          2    1    1    2  501    0  0.20322978377E+03  0.62121253146E+02  0.21970282711E+03  0.30566440313E+03  0.00000000000E+00 0.  1.
<mgrwt>
<rscale>  4 0.24532965E+03</rscale>
<asrwt>0</asrwt>
<pdfrwt beam="1">  1       21 0.40860614E-01 0.24532965E+03</pdfrwt>
<pdfrwt beam="2">  1        2 0.78776332E-01 0.24532965E+03</pdfrwt>
<totfact> 0.43056829E+03</totfact>
</mgrwt>
</event>
<event>
 5    0  0.3275920E+000  0.4691781E+03  0.7546771E-02  0.1024031E+00
         21   -1    0    0  501  502  0.00000000000E+00  0.00000000000E+00  0.71244526506E+03  0.71244526506E+03  0.00000000000E+00 0. -1.
          2   -1    0    0  503    0 -0.00000000000E+00 -0.00000000000E+00 -0.12752688518E+04  0.12752688518E+04  0.00000000000E+00 0.  1.
         25    1    1    2    0    0  0.38022306103E+03  0.19082293754E+03  0.59291345399E+03  0.74037445496E+03  0.12500000000E+03 0.  0.
         21    1    1    2  503  502 -0.89901022485E+02 -0.15155368522E+03 -0.43464071088E+03  0.46900241034E+03  0.00000000000E+00 0.  1.
          2    1    1    2  501    0 -0.29032203854E+03 -0.39269252318E+02 -0.72109632982E+03  0.77833725153E+03  0.00000000000E+00 0.  1.
<mgrwt>
<rscale>  4 0.46259770E+03</rscale>
<asrwt>0</asrwt>
<pdfrwt beam="1">  1       21 0.10960696E+00 0.46917814E+03</pdfrwt>
<pdfrwt beam="2">  1        2 0.19619521E+00 0.46917814E+03</pdfrwt>
<totfact> 0.13112319E+02</totfact>
</mgrwt>
</event>
<event>
 5    0  0.3275920E+000  0.2432528E+03  0.7546771E-02  0.1117645E+00
         21   -1    0    0  501  502  0.00000000000E+00  0.00000000000E+00  0.53809738360E+02  0.53809738360E+02  0.00000000000E+00 0. -1.
          2   -1    0    0  503    0 -0.00000000000E+00 -0.00000000000E+00 -0.12979415784E+04  0.12979415784E+04  0.00000000000E+00 0. -1.
         25    1    1    2    0    0  0.10452701047E+03  0.18061287824E+03 -0.31176601378E+03  0.39543641088E+03  0.12500000000E+03 0.  0.
         21    1    1    2  503  502 -0.44349683535E+02 -0.68062395551E+02 -0.27834168216E+03  0.28995426561E+03  0.00000000000E+00 0. -1.
          2    1    1    2  501    0 -0.60177326938E+02 -0.11255048269E+03 -0.65402414413E+03  0.66636064030E+03  0.00000000000E+00 0. -1.
<mgrwt>
<rscale>  4 0.24325277E+03</rscale>
<asrwt>0</asrwt>
<pdfrwt beam="1">  1       21 0.82784214E-02 0.24325277E+03</pdfrwt>
<pdfrwt beam="2">  1        2 0.19968332E+00 0.24325277E+03</pdfrwt>
<totfact> 0.25189677E+04</totfact>
</mgrwt>
</event>
<event>
 5    0  0.3275920E+000  0.3116573E+03  0.7546771E-02  0.1079554E+00
          2   -1    0    0  503    0 -0.00000000000E+00  0.00000000000E+00  0.10620308038E+04  0.10620308038E+04  0.00000000000E+00 0.  1.
         21   -1    0    0  501  502  0.00000000000E+00 -0.00000000000E+00 -0.12643490245E+04  0.12643490245E+04  0.00000000000E+00 0. -1.
         25    1    1    2    0    0 -0.24186220280E+03 -0.15317865920E+03 -0.12043483813E+04  0.12442029779E+04  0.12500000000E+03 0.  0.
         21    1    1    2  503  502  0.19358966547E+02  0.46959281647E+02  0.55331008507E+00  0.50796159999E+02  0.00000000000E+00 0. -1.
          2    1    1    2  501    0  0.22250323625E+03  0.10621937755E+03  0.10014768505E+04  0.10313806904E+04  0.00000000000E+00 0.  1.
<mgrwt>
<rscale>  4 0.31165734E+03</rscale>
<asrwt>0</asrwt>
<pdfrwt beam="1">  1       21 0.19451523E+00 0.31165734E+03</pdfrwt>
<pdfrwt beam="2">  1        2 0.16338935E+00 0.31165734E+03</pdfrwt>
<totfact> 0.40183771E+01</totfact>
</mgrwt>
</event>
<event>
 5    0  0.3275920E+000  0.2526928E+03  0.7546771E-02  0.1111615E+00
         21   -1    0    0  501  502  0.00000000000E+00  0.00000000000E+00  0.94169899737E+02  0.94169899737E+02  0.00000000000E+00 0. -1.
          2   -1    0    0  503    0 -0.00000000000E+00 -0.00000000000E+00 -0.78327247336E+03  0.78327247336E+03  0.00000000000E+00 0.  1.
         25    1    1    2    0    0  0.21375206667E+03  0.50385786555E+02 -0.15565448134E+03  0.29678610320E+03  0.12500000000E+03 0.  0.
         21    1    1    2  503  502 -0.14162205954E+02 -0.20910053483E+02 -0.37194612632E+02  0.44958176375E+02  0.00000000000E+00 0. -1.
          2    1    1    2  501    0 -0.19958986071E+03 -0.29475733071E+02 -0.49625347965E+03  0.53569809352E+03  0.00000000000E+00 0.  1.
<mgrwt>
<rscale>  4 0.25269284E+03</rscale>
<asrwt>0</asrwt>
<pdfrwt beam="1">  1       21 0.14487677E-01 0.25269284E+03</pdfrwt>
<pdfrwt beam="2">  1        2 0.12050346E+00 0.25269284E+03</pdfrwt>
<totfact> 0.19036425E+04</totfact>
</mgrwt>
</event>
<event>
 5    0  0.3275920E+000  0.2586204E+03  0.7546771E-02  0.1107975E+00
         21   -1    0    0  501  502  0.00000000000E+00  0.00000000000E+00  0.16286857977E+03  0.16286857977E+03  0.00000000000E+00 0. -1.
          2   -1    0    0  503    0 -0.00000000000E+00 -0.00000000000E+00 -0.12116437841E+04  0.12116437841E+04  0.00000000000E+00 0. -1.
         25    1    1    2    0    0  0.13384559140E+03 -0.18606521526E+03  0.35159870399E+02  0.26343143919E+03  0.12500000000E+03 0.  0.
         21    1    1    2  503  502 -0.13918318256E+02  0.17981622410E+02 -0.28462501274E+03  0.28553188300E+03  0.00000000000E+00 0.  1.
          2    1    1    2  501    0 -0.11992727314E+03  0.16808359285E+03 -0.79931006201E+03  0.82554904170E+03  0.00000000000E+00 0. -1.
<mgrwt>
<rscale>  4 0.25862044E+03</rscale>
<asrwt>0</asrwt>
<pdfrwt beam="1">  1       21 0.25056704E-01 0.25862044E+03</pdfrwt>
<pdfrwt beam="2">  1        2 0.18640674E+00 0.25862044E+03</pdfrwt>
<totfact> 0.36936286E+03</totfact>
</mgrwt>
</event>
<event>
 5    0  0.3275920E+000  0.3605420E+03  0.7546771E-02  0.1058369E+00
          2   -1    0    0  503    0 -0.00000000000E+00  0.00000000000E+00  0.11380124903E+04  0.11380124903E+04  0.00000000000E+00 0. -1.
         21   -1    0    0  501  502  0.00000000000E+00 -0.00000000000E+00 -0.17416888971E+03  0.17416888971E+03  0.00000000000E+00 0.  1.
         25    1    1    2    0    0 -0.17730731679E+03  0.28316937897E+03  0.10314815932E+03  0.37133182539E+03  0.12500000000E+03 0.  0.
         21    1    1    2  503  502  0.28960994203E+01  0.24060863136E+02  0.33282820869E+02  0.41171090485E+02  0.00000000000E+00 0.  1.
          2    1    1    2  501    0  0.17441121737E+03 -0.30723024211E+03  0.82741262036E+03  0.89967846409E+03  0.00000000000E+00 0. -1.
<mgrwt>
<rscale>  4 0.36054197E+03</rscale>
<asrwt>0</asrwt>
<pdfrwt beam="1">  1       21 0.26795214E-01 0.36054197E+03</pdfrwt>
<pdfrwt beam="2">  1        2 0.17507884E+00 0.36054197E+03</pdfrwt>
<totfact> 0.34710690E+03</totfact>
</mgrwt>
</event>
