<event>
 5    0  0.2159162E+000  0.2645329E+03  0.7546771E-02  0.1104450E+00
         21   -1    0    0  502  501  0.00000000000E+00  0.00000000000E+00  0.20408138753E+04  0.20408138753E+04  0.00000000000E+00 0. -1.
         21   -1    0    0  503  502 -0.00000000000E+00 -0.00000000000E+00 -0.55760812066E+02  0.55760812066E+02  0.00000000000E+00 0.  1.
         25    1    1    2    0    0  0.22515564091E+03  0.60478243468E+02  0.17188663350E+04  0.17391029751E+04  0.12500000000E+03 0.  0.
         21    1    1    2  503  504 -0.18934754864E+03 -0.48975057694E+02  0.19084113962E+03  0.27326066498E+03  0.00000000000E+00 0.  1.
         21    1    1    2  504  501 -0.35808092272E+02 -0.11503185774E+02  0.75345588650E+02  0.84211047281E+02  0.00000000000E+00 0.  1.
<mgrwt>
<rscale>  4 0.26453295E+03</rscale>
<asrwt>0</asrwt>
<pdfrwt beam="1">  1       21 0.31397131E+00 0.26453295E+03</pdfrwt>
<pdfrwt beam="2">  1       21 0.85785881E-02 0.26453295E+03</pdfrwt>
<totfact> 0.27890996E+03</totfact>
</mgrwt>
</event>
<event>
 5    0  0.2159162E+000  0.3420694E+03  0.7546771E-02  0.1065918E+00
         21   -1    0    0  502  501  0.00000000000E+00  0.00000000000E+00  0.12165600160E+04  0.12165600160E+04  0.00000000000E+00 0. -1.
         21   -1    0    0  503  502 -0.00000000000E+00 -0.00000000000E+00 -0.13839983433E+03  0.13839983433E+03  0.00000000000E+00 0. -1.
         25    1    1    2    0    0  0.10720216610E+03  0.29757931568E+03  0.88395076540E+03  0.94712180272E+03  0.12500000000E+03 0.  0.
         21    1    1    2  503  504 -0.13937302148E+03 -0.29462957818E+03  0.18198996897E+03  0.37329850825E+03  0.00000000000E+00 0. -1.
         21    1    1    2  504  501  0.32170855381E+02 -0.29497374986E+01  0.12219447308E+02  0.34539539368E+02  0.00000000000E+00 0.  1.
<mgrwt>
<rscale>  4 0.34206943E+03</rscale>
<asrwt>0</asrwt>
<pdfrwt beam="1">  1       21 0.18716307E+00 0.34206943E+03</pdfrwt>
<pdfrwt beam="2">  1       21 0.21292283E-01 0.34206943E+03</pdfrwt>
<totfact> 0.30023983E+03</totfact>
</mgrwt>
</event>
<event>
 5    0  0.2159162E+000  0.4837909E+03  0.7546771E-02  0.1018098E+00
         21   -1    0    0  502  501  0.00000000000E+00  0.00000000000E+00  0.18028159172E+04  0.18028159172E+04  0.00000000000E+00 0.  1.
         21   -1    0    0  503  502 -0.00000000000E+00 -0.00000000000E+00 -0.53456920907E+03  0.53456920907E+03  0.00000000000E+00 0.  1.
         25    1    1    2    0    0  0.11685825410E+03 -0.30028158036E+03  0.14409390274E+04  0.14818080712E+04  0.12500000000E+03 0.  0.
         21    1    1    2  503  504 -0.22971505362E+03  0.42074407475E+03 -0.36472833271E+03  0.60234652732E+03  0.00000000000E+00 0.  1.
         21    1    1    2  504  501  0.11285679952E+03 -0.12046249439E+03  0.19203601342E+03  0.25323052778E+03  0.00000000000E+00 0.  1.
<mgrwt>
<rscale>  4 0.48379092E+03</rscale>
<asrwt>0</asrwt>
<pdfrwt beam="1">  1       21 0.27735629E+00 0.48379092E+03</pdfrwt>
<pdfrwt beam="2">  1       21 0.82241418E-01 0.48379092E+03</pdfrwt>
<totfact> 0.44608729E+01</totfact>
</mgrwt>
</event>
<event>
 5    0  0.6029079E+000  0.2456562E+03  0.7546771E-02  0.1116081E+00
         21   -1    0    0  502  501  0.00000000000E+00  0.00000000000E+00  0.70687174025E+02  0.70687174025E+02  0.00000000000E+00 0. -1.
         21   -1    0    0  503  502 -0.00000000000E+00 -0.00000000000E+00 -0.75082127094E+03  0.75082127094E+03  0.00000000000E+00 0. -1.
         25    1    1    2    0    0  0.20046042920E+03 -0.67361573099E+02 -0.39676158731E+03  0.46665482144E+03  0.12500000000E+03 0.  0.
         21    1    1    2  503  504 -0.24946932822E+02 -0.10604974277E+01 -0.27965603853E+02  0.37490653647E+02  0.00000000000E+00 0.  1.
         21    1    1    2  504  501 -0.17551349638E+03  0.68422070527E+02 -0.25540690575E+03  0.31736296988E+03  0.00000000000E+00 0. -1.
<mgrwt>
<rscale>  4 0.24565619E+03</rscale>
<asrwt>0</asrwt>
<pdfrwt beam="1">  1       21 0.10874950E-01 0.24565619E+03</pdfrwt>
<pdfrwt beam="2">  1       21 0.11551096E+00 0.24565619E+03</pdfrwt>
<totfact> 0.39481828E+04</totfact>
</mgrwt>
</event>
<event>
 5    0  0.2159162E+000  0.2255934E+03  0.7546771E-02  0.1129780E+00
         21   -1    0    0  502  501  0.00000000000E+00  0.00000000000E+00  0.45417484572E+02  0.45417484572E+02  0.00000000000E+00 0.  1.
         21   -1    0    0  503  502 -0.00000000000E+00 -0.00000000000E+00 -0.20435622579E+04  0.20435622579E+04  0.00000000000E+00 0.  1.
         25    1    1    2    0    0 -0.26570029586E+02 -0.21755796960E+03 -0.73970826300E+03  0.78155662045E+03  0.12500000000E+03 0.  0.
         21    1    1    2  503  504  0.93140842531E+02  0.49739433245E+02 -0.89913053069E+03  0.90530930570E+03  0.00000000000E+00 0.  1.
         21    1    1    2  504  501 -0.66570812945E+02  0.16781853636E+03 -0.35930597965E+03  0.40211381634E+03  0.00000000000E+00 0.  1.
<mgrwt>
<rscale>  4 0.22559342E+03</rscale>
<asrwt>0</asrwt>
<pdfrwt beam="1">  1       21 0.69873068E-02 0.22559342E+03</pdfrwt>
<pdfrwt beam="2">  1       21 0.31439413E+00 0.22559342E+03</pdfrwt>
<totfact> 0.41218962E+03</totfact>
</mgrwt>
</event>
<event>
 5    0  0.2159162E+000  0.2768266E+03  0.7546771E-02  0.1097435E+00
         21   -1    0    0  502  501  0.00000000000E+00  0.00000000000E+00  0.11249731673E+04  0.11249731673E+04  0.00000000000E+00 0. -1.
         21   -1    0    0  503  502 -0.00000000000E+00 -0.00000000000E+00 -0.13686898404E+03  0.13686898404E+03  0.00000000000E+00 0.  1.
         25    1    1    2    0    0  0.67593894599E+02 -0.24776833472E+03  0.80406380316E+03  0.85328874470E+03  0.12500000000E+03 0.  0.
         21    1    1    2  503  504 -0.91522809979E+02  0.21130178824E+03  0.24328735187E+03  0.33498299366E+03  0.00000000000E+00 0.  1.
         21    1    1    2  504  501  0.23928915381E+02  0.36466546478E+02 -0.59246971761E+02  0.73570412981E+02  0.00000000000E+00 0.  1.
<mgrwt>
<rscale>  4 0.27682663E+03</rscale>
<asrwt>0</asrwt>
<pdfrwt beam="1">  1       21 0.17307279E+00 0.27682663E+03</pdfrwt>
<pdfrwt beam="2">  1       21 0.21056768E-01 0.27682663E+03</pdfrwt>
<totfact> 0.39909348E+03</totfact>
</mgrwt>
</event>
<event>
 5    0  0.2159162E+000  0.3336117E+03  0.7546771E-02  0.1069550E+00
         21   -1    0    0  502  501  0.00000000000E+00  0.00000000000E+00  0.29405497013E+03  0.29405497013E+03  0.00000000000E+00 0.  1.
         21   -1    0    0  503  502 -0.00000000000E+00 -0.00000000000E+00 -0.47952522190E+03  0.47952522190E+03  0.00000000000E+00 0.  1.
         25    1    1    2    0    0 -0.32814155831E+03  0.17820789428E+02 -0.19017122928E+03  0.39973060837E+03  0.12500000000E+03 0.  0.
         21    1    1    2  503  504  0.28790152336E+03  0.16398756558E+02 -0.55605426199E+02  0.29368038715E+03  0.00000000000E+00 0.  1.
         21    1    1    2  504  501  0.40240034947E+02 -0.34219545986E+02  0.60306403706E+02  0.80169196503E+02  0.00000000000E+00 0.  1.
<mgrwt>
<rscale>  4 0.33361166E+03</rscale>
<asrwt>0</asrwt>
<pdfrwt beam="1">  1       21 0.45239227E-01 0.33361166E+03</pdfrwt>
<pdfrwt beam="2">  1       21 0.73773110E-01 0.33361166E+03</pdfrwt>
<totfact> 0.71422931E+03</totfact>
</mgrwt>
</event>
<event>
 5    0  0.2159162E+000  0.3017945E+03  0.7546771E-02  0.1084347E+00
         21   -1    0    0  502  501  0.00000000000E+00  0.00000000000E+00  0.41205237807E+03  0.41205237807E+03  0.00000000000E+00 0.  1.
         21   -1    0    0  503  502 -0.00000000000E+00 -0.00000000000E+00 -0.50488176695E+03  0.50488176695E+03  0.00000000000E+00 0. -1.
         25    1    1    2    0    0 -0.15565136060E+03  0.22633512894E+03  0.30208281644E+03  0.42700581335E+03  0.12500000000E+03 0.  0.
         21    1    1    2  503  504 -0.14253608827E+01 -0.52784170642E+02 -0.10307839572E+03  0.11581604374E+03  0.00000000000E+00 0. -1.
         21    1    1    2  504  501  0.15707672148E+03 -0.17355095829E+03 -0.29183380959E+03  0.37411228793E+03  0.00000000000E+00 0. -1.
<mgrwt>
<rscale>  4 0.30179453E+03</rscale>
<asrwt>0</asrwt>
<pdfrwt beam="1">  1       21 0.63392674E-01 0.30179453E+03</pdfrwt>
<pdfrwt beam="2">  1       21 0.77674118E-01 0.30179453E+03</pdfrwt>
<totfact> 0.31409553E+03</totfact>
</mgrwt>
</event>
<event>
 5    0  0.2159162E+000  0.4722187E+03  0.7546771E-02  0.1021296E+00
         21   -1    0    0  502  501  0.00000000000E+00  0.00000000000E+00  0.70322879287E+03  0.70322879287E+03  0.00000000000E+00 0.  1.
         21   -1    0    0  503  502 -0.00000000000E+00 -0.00000000000E+00 -0.15956862516E+04  0.15956862516E+04  0.00000000000E+00 0.  1.
         25    1    1    2    0    0  0.38415499337E+03 -0.27910320486E+03  0.51938528772E+03  0.71474452428E+03  0.12500000000E+03 0.  0.
         21    1    1    2  503  504  0.14242318269E+02  0.30543386171E+03 -0.76733925166E+03  0.82601586828E+03  0.00000000000E+00 0.  1.
         21    1    1    2  504  501 -0.39839731164E+03 -0.26330656847E+02 -0.64450349479E+03  0.75815465190E+03  0.00000000000E+00 0.  1.
<mgrwt>
<rscale>  4 0.47221866E+03</rscale>
<asrwt>0</asrwt>
<pdfrwt beam="1">  1       21 0.10818905E+00 0.47221866E+03</pdfrwt>
<pdfrwt beam="2">  1       21 0.24549019E+00 0.47221866E+03</pdfrwt>
<totfact> 0.36418317E+01</totfact>
</mgrwt>
</event>
