<event>
 5    0  0.1911311E+001  0.3674865E+03  0.7546771E-02  0.1055658E+00
         21   -1    0    0  504  501  0.00000000000E+00  0.00000000000E+00  0.32844276639E+03  0.32844276639E+03  0.00000000000E+00 0. -1.
         21   -1    0    0  503  502 -0.00000000000E+00 -0.00000000000E+00 -0.70583258121E+03  0.70583258121E+03  0.00000000000E+00 0. -1.
         25    1    1    2    0    0  0.26065659040E+03  0.27562829974E+03 -0.31648242017E+03  0.50960665224E+03  0.12500000000E+03 0.  0.
         21    1    1    2  503  501 -0.43668220554E+02 -0.19588407057E+02 -0.16617334543E+03  0.17292830858E+03  0.00000000000E+00 0.  1.
         21    1    1    2  504  502 -0.21698836984E+03 -0.25603989269E+03  0.10526595077E+03  0.35174038677E+03  0.00000000000E+00 0. -1.
<mgrwt>
<rscale>  4 0.36748652E+03</rscale>
<asrwt>0</asrwt>
<pdfrwt beam="1">  1       21 0.50529656E-01 0.36748652E+03</pdfrwt>
<pdfrwt beam="2">  1       21 0.10858963E+00 0.36748652E+03</pdfrwt>
<totfact> 0.22439216E+03</totfact>
</mgrwt>
</event>
<event>
 5    0  0.1911311E+001  0.3387545E+03  0.7546771E-02  0.1067328E+00
         21   -1    0    0  502  501  0.00000000000E+00  0.00000000000E+00  0.63679033487E+03  0.63679033487E+03  0.00000000000E+00 0.  1.
         21   -1    0    0  504  502 -0.00000000000E+00 -0.00000000000E+00 -0.28736558284E+03  0.28736558284E+03  0.00000000000E+00 0.  1.
         25    1    1    2    0    0 -0.17179594268E+01  0.28136254734E+03  0.13619128741E+03  0.33666140438E+03  0.12500000000E+03 0.  0.
         21    1    1    2  503  501  0.93961430375E+02  0.49653807755E+02  0.21942891319E+03  0.24380996487E+03  0.00000000000E+00 0.  1.
         21    1    1    2  504  503 -0.92243470949E+02 -0.33101635509E+03 -0.61954485693E+01  0.34368454847E+03  0.00000000000E+00 0.  1.
<mgrwt>
<rscale>  4 0.33875446E+03</rscale>
<asrwt>0</asrwt>
<pdfrwt beam="1">  1       21 0.97967743E-01 0.33875446E+03</pdfrwt>
<pdfrwt beam="2">  1       21 0.44210090E-01 0.33875446E+03</pdfrwt>
<totfact> 0.38667462E+03</totfact>
</mgrwt>
</event>
<event>
 5    0  0.1911311E+001  0.3444263E+03  0.7546771E-02  0.1064926E+00
         21   -1    0    0  502  501  0.00000000000E+00  0.00000000000E+00  0.22723411047E+04  0.22723411047E+04  0.00000000000E+00 0. -1.
         21   -1    0    0  504  502 -0.00000000000E+00 -0.00000000000E+00 -0.94518173728E+02  0.94518173728E+02  0.00000000000E+00 0. -1.
         25    1    1    2    0    0 -0.21220050404E+03  0.25218194117E+03  0.14752282640E+04  0.15167558196E+04  0.12500000000E+03 0.  0.
         21    1    1    2  503  501  0.16475959513E+03 -0.26222702746E+03  0.73100593329E+03  0.79390075741E+03  0.00000000000E+00 0. -1.
         21    1    1    2  504  503  0.47440908907E+02  0.10045086295E+02 -0.28411266298E+02  0.56202701441E+02  0.00000000000E+00 0. -1.
<mgrwt>
<rscale>  4 0.34442632E+03</rscale>
<asrwt>0</asrwt>
<pdfrwt beam="1">  1       21 0.34959090E+00 0.34442632E+03</pdfrwt>
<pdfrwt beam="2">  1       21 0.14541259E-01 0.34442632E+03</pdfrwt>
<totfact> 0.61790568E+02</totfact>
</mgrwt>
</event>
<event>
 5    0  0.1911311E+001  0.3210643E+03  0.7546771E-02  0.1075161E+00
         21   -1    0    0  502  501  0.00000000000E+00  0.00000000000E+00  0.86384255666E+02  0.86384255666E+02  0.00000000000E+00 0. -1.
         21   -1    0    0  504  502 -0.00000000000E+00 -0.00000000000E+00 -0.25564840938E+04  0.25564840938E+04  0.00000000000E+00 0. -1.
         25    1    1    2    0    0 -0.19029702260E+03  0.28821663488E+03 -0.18749493961E+04  0.19105868270E+04  0.12500000000E+03 0.  0.
         21    1    1    2  503  501  0.49981425521E+02 -0.10284630049E+03 -0.25699959369E+02  0.11720064988E+03  0.00000000000E+00 0. -1.
         21    1    1    2  504  503  0.14031559708E+03 -0.18537033439E+03 -0.56945048265E+03  0.61508087261E+03  0.00000000000E+00 0. -1.
<mgrwt>
<rscale>  4 0.32106428E+03</rscale>
<asrwt>0</asrwt>
<pdfrwt beam="1">  1       21 0.13289890E-01 0.32106428E+03</pdfrwt>
<pdfrwt beam="2">  1       21 0.39330511E+00 0.32106428E+03</pdfrwt>
<totfact> 0.39956894E+02</totfact>
</mgrwt>
</event>
