<event>
 5    0  0.1911311E+001  0.2826350E+03  0.7546771E-02  0.1094258E+00
         21   -1    0    0  502  501  0.00000000000E+00  0.00000000000E+00  0.26268562397E+03  0.26268562397E+03  0.00000000000E+00 0.  1.
         21   -1    0    0  504  502 -0.00000000000E+00 -0.00000000000E+00 -0.38476552534E+03  0.38476552534E+03  0.00000000000E+00 0.  1.
         25    1    1    2    0    0 -0.97492918856E+02 -0.25391094182E+03 -0.43644616572E+02  0.30249874075E+03  0.12500000000E+03 0.  0.
         21    1    1    2  503  501  0.95806239359E+02  0.22183576829E+03  0.18974322421E+02  0.24238392790E+03  0.00000000000E+00 0.  1.
         21    1    1    2  504  503  0.16866794970E+01  0.32075173523E+02 -0.97409607223E+02  0.10256848065E+03  0.00000000000E+00 0.  1.
<mgrwt>
<rscale>  4 0.28263503E+03</rscale>
<asrwt>0</asrwt>
<pdfrwt beam="1">  1       21 0.40413173E-01 0.28263503E+03</pdfrwt>
<pdfrwt beam="2">  1       21 0.59194696E-01 0.28263503E+03</pdfrwt>
<totfact> 0.14990058E+04</totfact>
</mgrwt>
</event>
<event>
 5    0  0.1911311E+001  0.3627433E+03  0.7546771E-02  0.1057503E+00
         21   -1    0    0  504  501  0.00000000000E+00  0.00000000000E+00  0.14398644317E+04  0.14398644317E+04  0.00000000000E+00 0.  1.
         21   -1    0    0  503  502 -0.00000000000E+00 -0.00000000000E+00 -0.28094729888E+03  0.28094729888E+03  0.00000000000E+00 0.  1.
         25    1    1    2    0    0  0.30207204531E+03  0.13318294719E+03 -0.86571315556E+02  0.36346225479E+03  0.12500000000E+03 0.  0.
         21    1    1    2  503  501  0.18048640895E+02 -0.13916801033E+02 -0.29562579619E+02  0.37327964087E+02  0.00000000000E+00 0.  1.
         21    1    1    2  504  502 -0.32012068620E+03 -0.11926614615E+03  0.12750510280E+04  0.13200215117E+04  0.00000000000E+00 0.  1.
<mgrwt>
<rscale>  4 0.36274335E+03</rscale>
<asrwt>0</asrwt>
<pdfrwt beam="1">  1       21 0.22151760E+00 0.36274335E+03</pdfrwt>
<pdfrwt beam="2">  1       21 0.43222662E-01 0.36274335E+03</pdfrwt>
<totfact> 0.43449430E+02</totfact>
</mgrwt>
</event>
<event>
 5    0  0.1911311E+001  0.2311671E+03  0.7546771E-02  0.1125821E+00
         21   -1    0    0  502  501  0.00000000000E+00  0.00000000000E+00  0.13225784373E+04  0.13225784373E+04  0.00000000000E+00 0. -1.
         21   -1    0    0  504  502 -0.00000000000E+00 -0.00000000000E+00 -0.10802364083E+04  0.10802364083E+04  0.00000000000E+00 0. -1.
         25    1    1    2    0    0 -0.11261606709E+03  0.19205676436E+03  0.17540944057E+03  0.30977677632E+03  0.12500000000E+03 0.  0.
         21    1    1    2  503  501  0.20162050421E+02 -0.22200554112E+02  0.10705441773E+04  0.10709641490E+04  0.00000000000E+00 0. -1.
         21    1    1    2  504  503  0.92454016664E+02 -0.16985621025E+03 -0.10036115888E+04  0.10220739203E+04  0.00000000000E+00 0. -1.
<mgrwt>
<rscale>  4 0.23116706E+03</rscale>
<asrwt>0</asrwt>
<pdfrwt beam="1">  1       21 0.20347361E+00 0.23116706E+03</pdfrwt>
<pdfrwt beam="2">  1       21 0.16619022E+00 0.23116706E+03</pdfrwt>
<totfact> 0.27283791E+01</totfact>
</mgrwt>
</event>
<event>
 5    0  0.1911311E+001  0.1816755E+03  0.7546771E-02  0.1166191E+00
         21   -1    0    0  503  501  0.00000000000E+00  0.00000000000E+00  0.64062177348E+03  0.64062177348E+03  0.00000000000E+00 0.  1.
         21   -1    0    0  504  502 -0.00000000000E+00 -0.00000000000E+00 -0.22549118604E+03  0.22549118604E+03  0.00000000000E+00 0. -1.
         25    1    1    2    0    0 -0.90017865582E+02  0.19504282302E+03  0.45600597732E+03  0.51933743394E+03  0.12500000000E+03 0.  0.
         21    1    1    2  503  502  0.91708419834E+02 -0.89874150891E+02 -0.14848113797E+03  0.19630192460E+03  0.00000000000E+00 0. -1.
         21    1    1    2  504  501 -0.16905542526E+01 -0.10516867213E+03  0.10760574809E+03  0.15047360099E+03  0.00000000000E+00 0.  1.
<mgrwt>
<rscale>  4 0.18167555E+03</rscale>
<asrwt>0</asrwt>
<pdfrwt beam="1">  1       21 0.98557196E-01 0.18167555E+03</pdfrwt>
<pdfrwt beam="2">  1       21 0.34690952E-01 0.18167555E+03</pdfrwt>
<totfact> 0.68619957E+03</totfact>
</mgrwt>
</event>
<event>
 5    0  0.1911311E+001  0.2166571E+03  0.7546771E-02  0.1136400E+00
         21   -1    0    0  503  501  0.00000000000E+00  0.00000000000E+00  0.13179105812E+03  0.13179105812E+03  0.00000000000E+00 0.  1.
         21   -1    0    0  504  502 -0.00000000000E+00 -0.00000000000E+00 -0.60481574913E+03  0.60481574913E+03  0.00000000000E+00 0.  1.
         25    1    1    2    0    0  0.80189320811E+02  0.19154731488E+03 -0.43166225771E+03  0.49505353825E+03  0.12500000000E+03 0.  0.
         21    1    1    2  503  502 -0.63006756530E+01 -0.36412249258E+02 -0.58154622950E+02  0.68902181244E+02  0.00000000000E+00 0.  1.
         21    1    1    2  504  501 -0.73888645158E+02 -0.15513506562E+03  0.16792189647E+02  0.17265108775E+03  0.00000000000E+00 0.  1.
<mgrwt>
<rscale>  4 0.21665711E+03</rscale>
<asrwt>0</asrwt>
<pdfrwt beam="1">  1       21 0.20275547E-01 0.21665711E+03</pdfrwt>
<pdfrwt beam="2">  1       21 0.93048577E-01 0.21665711E+03</pdfrwt>
<totfact> 0.21569185E+04</totfact>
</mgrwt>
</event>
