<event>
 5    0  0.1041609E-002  0.6551317E+03  0.7546771E-02  0.9797197E-01
         21   -1    0    0  501  502  0.00000000000E+00  0.00000000000E+00  0.20099766647E+03  0.20099766647E+03  0.00000000000E+00 0. -1.
         -3   -1    0    0    0  501 -0.00000000000E+00 -0.00000000000E+00 -0.25361499491E+04  0.25361499491E+04  0.00000000000E+00 0. -1.
         25    1    1    2    0    0  0.27514121013E+03  0.38245838514E+03 -0.45195260936E+03  0.66472796163E+03  0.12500000000E+03 0.  0.
         21    1    1    2  503  502  0.23912883206E+02  0.18208480884E+03 -0.19735411186E+03  0.26958365874E+03  0.00000000000E+00 0. -1.
         -3    1    1    2    0  503 -0.29905409333E+03 -0.56454319397E+03 -0.16858455614E+04  0.18028359951E+04  0.00000000000E+00 0. -1.
<mgrwt>
<rscale>  4 0.65513173E+03</rscale>
<asrwt>0</asrwt>
<pdfrwt beam="1">  1       21 0.30922717E-01 0.65513173E+03</pdfrwt>
<pdfrwt beam="2">  1       -3 0.39017693E+00 0.65513173E+03</pdfrwt>
<totfact> 0.60913875E+00</totfact>
</mgrwt>
</event>
<event>
 5    0  0.1041609E-002  0.2725296E+03  0.7546771E-02  0.1099841E+00
          2   -1    0    0  502    0 -0.00000000000E+00  0.00000000000E+00  0.15174048869E+04  0.15174048869E+04  0.00000000000E+00 0.  1.
         21   -1    0    0  503  502  0.00000000000E+00 -0.00000000000E+00 -0.14225624008E+03  0.14225624008E+03  0.00000000000E+00 0.  1.
         25    1    1    2    0    0 -0.24818278033E+03  0.64034778459E+01  0.34551435993E+03  0.44344207051E+03  0.12500000000E+03 0.  0.
         21    1    1    2  503  501  0.10312199327E+03  0.42556974671E+02 -0.52509720834E+02  0.12329846865E+03  0.00000000000E+00 0.  1.
          2    1    1    2  501    0  0.14506078706E+03 -0.48960452516E+02  0.10821440077E+04  0.10929205878E+04  0.00000000000E+00 0.  1.
<mgrwt>
<rscale>  4 0.27252959E+03</rscale>
<asrwt>0</asrwt>
<pdfrwt beam="1">  1       21 0.21885576E-01 0.27252959E+03</pdfrwt>
<pdfrwt beam="2">  1        2 0.23344689E+00 0.27252959E+03</pdfrwt>
<totfact> 0.32344514E+03</totfact>
</mgrwt>
</event>
<event>
 5    0  0.1041609E-002  0.4168905E+03  0.7546771E-02  0.1038083E+00
         21   -1    0    0  503  502  0.00000000000E+00  0.00000000000E+00  0.77206019410E+03  0.77206019410E+03  0.00000000000E+00 0. -1.
          1   -1    0    0  502    0 -0.00000000000E+00 -0.00000000000E+00 -0.22772964676E+03  0.22772964676E+03  0.00000000000E+00 0. -1.
         25    1    1    2    0    0  0.29242400468E+03  0.20720070930E+02  0.28561570248E+03  0.42795145678E+03  0.12500000000E+03 0.  0.
         21    1    1    2  503  501  0.58012133285E+02  0.11406174014E+03  0.27481679352E+02  0.13088441799E+03  0.00000000000E+00 0.  1.
          1    1    1    2  501    0 -0.35043613797E+03 -0.13478181107E+03  0.23123316551E+03  0.44095396610E+03  0.00000000000E+00 0. -1.
<mgrwt>
<rscale>  4 0.41689053E+03</rscale>
<asrwt>0</asrwt>
<pdfrwt beam="1">  1       21 0.11877849E+00 0.41689053E+03</pdfrwt>
<pdfrwt beam="2">  1        1 0.35035331E-01 0.41689053E+03</pdfrwt>
<totfact> 0.67197611E+02</totfact>
</mgrwt>
</event>
<event>
 5    0  0.1041609E-002  0.2808639E+03  0.7546771E-02  0.1095218E+00
          2   -1    0    0  502    0 -0.00000000000E+00  0.00000000000E+00  0.90133144890E+03  0.90133144890E+03  0.00000000000E+00 0.  1.
         21   -1    0    0  503  502  0.00000000000E+00 -0.00000000000E+00 -0.10055202273E+03  0.10055202273E+03  0.00000000000E+00 0.  1.
         25    1    1    2    0    0 -0.23695744847E+03 -0.70695756401E+02  0.43850852243E+03  0.51871133263E+03  0.12500000000E+03 0.  0.
         21    1    1    2  503  501  0.73820504735E+02 -0.43328251727E+02  0.21054133119E+02  0.88148062024E+02  0.00000000000E+00 0. -1.
          2    1    1    2  501    0  0.16313694374E+03  0.11402400813E+03  0.34121677062E+03  0.39502407698E+03  0.00000000000E+00 0.  1.
<mgrwt>
<rscale>  4 0.28086385E+03</rscale>
<asrwt>0</asrwt>
<pdfrwt beam="1">  1       21 0.15469543E-01 0.28086385E+03</pdfrwt>
<pdfrwt beam="2">  1        2 0.13866637E+00 0.28086385E+03</pdfrwt>
<totfact> 0.13982622E+04</totfact>
</mgrwt>
</event>
<event>
 5    0  0.1041609E-002  0.6195303E+03  0.7546771E-02  0.9865695E-01
          2   -1    0    0  502    0 -0.00000000000E+00  0.00000000000E+00  0.89174835199E+03  0.89174835199E+03  0.00000000000E+00 0. -1.
         21   -1    0    0  503  502  0.00000000000E+00 -0.00000000000E+00 -0.14727304055E+03  0.14727304055E+03  0.00000000000E+00 0. -1.
         25    1    1    2    0    0  0.72661318688E+02 -0.24459577317E+03  0.42965563057E+03  0.51510748428E+03  0.12500000000E+03 0.  0.
         21    1    1    2  503  501 -0.79366371995E+02  0.31630437088E+03  0.31278324257E+03  0.45186373264E+03  0.00000000000E+00 0. -1.
          2    1    1    2  501    0  0.67050533068E+01 -0.71708597716E+02  0.20364382983E+01  0.72050175622E+02  0.00000000000E+00 0. -1.
<mgrwt>
<rscale>  4 0.61953035E+03</rscale>
<asrwt>0</asrwt>
<pdfrwt beam="1">  1       21 0.22657391E-01 0.61953035E+03</pdfrwt>
<pdfrwt beam="2">  1        2 0.13719205E+00 0.61953035E+03</pdfrwt>
<totfact> 0.65681735E+03</totfact>
</mgrwt>
</event>
<event>
 5    0  0.1041609E-002  0.6654077E+03  0.7546771E-02  0.9778290E-01
          1   -1    0    0  502    0 -0.00000000000E+00  0.00000000000E+00  0.16309410052E+04  0.16309410052E+04  0.00000000000E+00 0.  1.
         21   -1    0    0  503  502  0.00000000000E+00 -0.00000000000E+00 -0.30263971631E+03  0.30263971631E+03  0.00000000000E+00 0.  1.
         25    1    1    2    0    0 -0.67881867672E+02  0.32733569026E+03  0.40531222485E+02  0.35919964097E+03  0.12500000000E+03 0.  0.
         21    1    1    2  503  501 -0.33555995908E+02  0.28325228970E+03  0.36454968987E+03  0.46287616148E+03  0.00000000000E+00 0. -1.
          1    1    1    2  501    0  0.10143786358E+03 -0.61058797996E+03  0.92322037652E+03  0.11115049190E+04  0.00000000000E+00 0.  1.
<mgrwt>
<rscale>  4 0.66540767E+03</rscale>
<asrwt>0</asrwt>
<pdfrwt beam="1">  1       21 0.46559957E-01 0.66540767E+03</pdfrwt>
<pdfrwt beam="2">  1        1 0.25091400E+00 0.66540767E+03</pdfrwt>
<totfact> 0.24482940E+02</totfact>
</mgrwt>
</event>
<event>
 5    0  0.1041609E-002  0.3092642E+03  0.7546771E-02  0.1080699E+00
          2   -1    0    0  502    0 -0.00000000000E+00  0.00000000000E+00  0.10811426513E+04  0.10811426513E+04  0.00000000000E+00 0. -1.
         21   -1    0    0  503  502  0.00000000000E+00 -0.00000000000E+00 -0.15302327505E+03  0.15302327505E+03  0.00000000000E+00 0. -1.
         25    1    1    2    0    0  0.24102462844E+03 -0.69726968029E+02  0.66218133354E+03  0.71907151248E+03  0.12500000000E+03 0.  0.
         21    1    1    2  503  501 -0.66973429650E+02 -0.96088529168E+02  0.24771823424E+03  0.27401235244E+03  0.00000000000E+00 0.  1.
          2    1    1    2  501    0 -0.17405119879E+03  0.16581549720E+03  0.18219808444E+02  0.24108206140E+03  0.00000000000E+00 0. -1.
<mgrwt>
<rscale>  4 0.30926419E+03</rscale>
<asrwt>0</asrwt>
<pdfrwt beam="1">  1       21 0.23542043E-01 0.30926419E+03</pdfrwt>
<pdfrwt beam="2">  1        2 0.16632963E+00 0.30926419E+03</pdfrwt>
<totfact> 0.48819850E+03</totfact>
</mgrwt>
</event>
<event>
 5    0  0.1041609E-002  0.2663264E+03  0.7546771E-02  0.1103401E+00
         21   -1    0    0  503  502  0.00000000000E+00  0.00000000000E+00  0.21691190910E+02  0.21691190910E+02  0.00000000000E+00 0.  1.
          2   -1    0    0  502    0 -0.00000000000E+00 -0.00000000000E+00 -0.34809042000E+04  0.34809042000E+04  0.00000000000E+00 0.  1.
         25    1    1    2    0    0  0.22982697529E+03  0.16843194791E+02 -0.13947721449E+04  0.14191964162E+04  0.12500000000E+03 0.  0.
         21    1    1    2  503  501 -0.30410063183E+02  0.41981950891E+02 -0.82616220612E+03  0.82778695747E+03  0.00000000000E+00 0. -1.
          2    1    1    2  501    0 -0.19941691211E+03 -0.58825145682E+02 -0.12382786581E+04  0.12556120171E+04  0.00000000000E+00 0.  1.
<mgrwt>
<rscale>  4 0.26632638E+03</rscale>
<asrwt>0</asrwt>
<pdfrwt beam="1">  1       21 0.33371055E-02 0.26632638E+03</pdfrwt>
<pdfrwt beam="2">  1        2 0.53552386E+00 0.26632638E+03</pdfrwt>
<totfact> 0.70783155E+03</totfact>
</mgrwt>
</event>
<event>
 5    0  0.1041609E-002  0.4098266E+03  0.7546771E-02  0.1040429E+00
          2   -1    0    0  502    0 -0.00000000000E+00  0.00000000000E+00  0.83725159033E+03  0.83725159033E+03  0.00000000000E+00 0. -1.
         21   -1    0    0  503  502  0.00000000000E+00 -0.00000000000E+00 -0.34181267962E+03  0.34181267962E+03  0.00000000000E+00 0. -1.
         25    1    1    2    0    0 -0.19674071534E+03 -0.40788600567E+02  0.20091885504E+03  0.31042552298E+03  0.12500000000E+03 0.  0.
         21    1    1    2  503  501 -0.17120370446E+03 -0.24886884340E+02  0.43594419099E+03  0.46901748698E+03  0.00000000000E+00 0. -1.
          2    1    1    2  501    0  0.36794441980E+03  0.65675484906E+02 -0.14142413532E+03  0.39962125998E+03  0.00000000000E+00 0. -1.
<mgrwt>
<rscale>  4 0.40982663E+03</rscale>
<asrwt>0</asrwt>
<pdfrwt beam="1">  1       21 0.52586566E-01 0.40982663E+03</pdfrwt>
<pdfrwt beam="2">  1        2 0.12880794E+00 0.40982663E+03</pdfrwt>
<totfact> 0.13413892E+03</totfact>
</mgrwt>
</event>
<event>
 5    0  0.1041609E-002  0.5356948E+03  0.7546771E-02  0.1004860E+00
         21   -1    0    0  501  502  0.00000000000E+00  0.00000000000E+00  0.70325029774E+03  0.70325029774E+03  0.00000000000E+00 0.  1.
         -1   -1    0    0    0  501 -0.00000000000E+00 -0.00000000000E+00 -0.63309691057E+03  0.63309691057E+03  0.00000000000E+00 0.  1.
         25    1    1    2    0    0  0.29191944037E+03 -0.38378405957E+03  0.20309901807E+03  0.53794179535E+03  0.12500000000E+03 0.  0.
         21    1    1    2  503  502 -0.23254531231E+03  0.22639402668E+00  0.18461776824E+03  0.29691933902E+03  0.00000000000E+00 0.  1.
         -1    1    1    2    0  503 -0.59374128060E+02  0.38355766554E+03 -0.31756339915E+03  0.50148607394E+03  0.00000000000E+00 0.  1.
<mgrwt>
<rscale>  4 0.53569479E+03</rscale>
<asrwt>0</asrwt>
<pdfrwt beam="1">  1       21 0.10819235E+00 0.53569479E+03</pdfrwt>
<pdfrwt beam="2">  1       -1 0.97399525E-01 0.53569479E+03</pdfrwt>
<totfact> 0.58563736E+01</totfact>
</mgrwt>
</event>
<event>
 5    0  0.1041609E-002  0.2379924E+03  0.7546771E-02  0.1121138E+00
          4   -1    0    0  502    0 -0.00000000000E+00  0.00000000000E+00  0.53961373022E+03  0.53961373022E+03  0.00000000000E+00 0. -1.
         21   -1    0    0  503  502  0.00000000000E+00 -0.00000000000E+00 -0.18877407906E+03  0.18877407906E+03  0.00000000000E+00 0. -1.
         25    1    1    2    0    0  0.92148609056E+02 -0.18307512449E+03  0.81388696438E+02  0.25348961964E+03  0.12500000000E+03 0.  0.
         21    1    1    2  503  501 -0.20264378350E+03  0.15240946426E+03  0.10506160133E+03  0.27446509406E+03  0.00000000000E+00 0. -1.
          4    1    1    2  501    0  0.11049517444E+03  0.30665660234E+02  0.16438935339E+03  0.20043309557E+03  0.00000000000E+00 0. -1.
<mgrwt>
<rscale>  4 0.23799239E+03</rscale>
<asrwt>0</asrwt>
<pdfrwt beam="1">  1       21 0.29042166E-01 0.23799239E+03</pdfrwt>
<pdfrwt beam="2">  1        4 0.83017496E-01 0.23799239E+03</pdfrwt>
<totfact> 0.62343547E+02</totfact>
</mgrwt>
</event>
<event>
 5    0  0.1041609E-002  0.5749917E+03  0.7546771E-02  0.9958693E-01
         21   -1    0    0  503  502  0.00000000000E+00  0.00000000000E+00  0.10522386289E+04  0.10522386289E+04  0.00000000000E+00 0.  1.
          2   -1    0    0  502    0 -0.00000000000E+00 -0.00000000000E+00 -0.35056083246E+03  0.35056083246E+03  0.00000000000E+00 0.  1.
         25    1    1    2    0    0  0.38779866498E+03  0.19193993121E+03  0.18127745376E+03  0.48550515651E+03  0.12500000000E+03 0.  0.
         21    1    1    2  503  501  0.12778031501E+03 -0.10953699479E+03 -0.15598628340E+02  0.16902508493E+03  0.00000000000E+00 0.  1.
          2    1    1    2  501    0 -0.51557897999E+03 -0.82402936418E+02  0.53599897099E+03  0.74826921989E+03  0.00000000000E+00 0.  1.
<mgrwt>
<rscale>  4 0.57499170E+03</rscale>
<asrwt>0</asrwt>
<pdfrwt beam="1">  1       21 0.16188286E+00 0.57499170E+03</pdfrwt>
<pdfrwt beam="2">  1        2 0.53932436E-01 0.57499170E+03</pdfrwt>
<totfact> 0.23840250E+02</totfact>
</mgrwt>
</event>
<event>
 5    0  0.1041609E-002  0.2728855E+03  0.7546771E-02  0.1099639E+00
         21   -1    0    0  503  502  0.00000000000E+00  0.00000000000E+00  0.84675040716E+02  0.84675040716E+02  0.00000000000E+00 0. -1.
          1   -1    0    0  502    0 -0.00000000000E+00 -0.00000000000E+00 -0.12320443644E+04  0.12320443644E+04  0.00000000000E+00 0. -1.
         25    1    1    2    0    0 -0.11690867892E+02  0.22452561665E+03 -0.19283822231E+03  0.32149651461E+03  0.12500000000E+03 0.  0.
         21    1    1    2  503  501 -0.74583751830E+02 -0.61188125291E+02 -0.30047365354E+03  0.31558063816E+03  0.00000000000E+00 0. -1.
          1    1    1    2  501    0  0.86274619721E+02 -0.16333749136E+03 -0.65405744788E+03  0.67964225238E+03  0.00000000000E+00 0. -1.
<mgrwt>
<rscale>  4 0.27288554E+03</rscale>
<asrwt>0</asrwt>
<pdfrwt beam="1">  1       21 0.13026930E-01 0.27288554E+03</pdfrwt>
<pdfrwt beam="2">  1        1 0.18954528E+00 0.27288554E+03</pdfrwt>
<totfact> 0.60608224E+03</totfact>
</mgrwt>
</event>
<event>
 5    0  0.1041609E-002  0.5497067E+03  0.7546771E-02  0.1001562E+00
          1   -1    0    0  502    0 -0.00000000000E+00  0.00000000000E+00  0.68287798025E+03  0.68287798025E+03  0.00000000000E+00 0.  1.
         21   -1    0    0  503  502  0.00000000000E+00 -0.00000000000E+00 -0.10531256349E+04  0.10531256349E+04  0.00000000000E+00 0.  1.
         25    1    1    2    0    0  0.31222167976E+03  0.13863195176E+03  0.39705309213E+03  0.53849545340E+03  0.12500000000E+03 0.  0.
         21    1    1    2  503  501  0.62606482935E+02 -0.30275349782E+03  0.20438863862E+02  0.30983382531E+03  0.00000000000E+00 0. -1.
          1    1    1    2  501    0 -0.37482816270E+03  0.16412154606E+03 -0.78773961067E+03  0.88767433648E+03  0.00000000000E+00 0.  1.
<mgrwt>
<rscale>  4 0.54970674E+03</rscale>
<asrwt>0</asrwt>
<pdfrwt beam="1">  1       21 0.16201933E+00 0.54970674E+03</pdfrwt>
<pdfrwt beam="2">  1        1 0.10505815E+00 0.54970674E+03</pdfrwt>
<totfact> 0.65507672E+01</totfact>
</mgrwt>
</event>
<event>
 5    0  0.1041609E-002  0.4371612E+03  0.7546771E-02  0.1031621E+00
          1   -1    0    0  502    0 -0.00000000000E+00  0.00000000000E+00  0.49251399969E+03  0.49251399969E+03  0.00000000000E+00 0.  1.
         21   -1    0    0  503  502  0.00000000000E+00 -0.00000000000E+00 -0.18219936604E+03  0.18219936604E+03  0.00000000000E+00 0.  1.
         25    1    1    2    0    0  0.19659559922E+03 -0.14372595858E+03  0.13680273624E+03  0.30601792341E+03  0.12500000000E+03 0.  0.
         21    1    1    2  503  501 -0.44638393007E+02  0.15117051675E+03  0.14445824795E+03  0.21380668059E+03  0.00000000000E+00 0.  1.
          1    1    1    2  501    0 -0.15195720621E+03 -0.74445581655E+01  0.29053649462E+02  0.15488876174E+03  0.00000000000E+00 0.  1.
<mgrwt>
<rscale>  4 0.43716116E+03</rscale>
<asrwt>0</asrwt>
<pdfrwt beam="1">  1       21 0.28030672E-01 0.43716116E+03</pdfrwt>
<pdfrwt beam="2">  1        1 0.75771384E-01 0.43716116E+03</pdfrwt>
<totfact> 0.58900374E+03</totfact>
</mgrwt>
</event>
<event>
 5    0  0.1041609E-002  0.3937750E+03  0.7546771E-02  0.1045957E+00
         21   -1    0    0  503  502  0.00000000000E+00  0.00000000000E+00  0.18881147738E+03  0.18881147738E+03  0.00000000000E+00 0. -1.
          1   -1    0    0  502    0 -0.00000000000E+00 -0.00000000000E+00 -0.96150100495E+03  0.96150100495E+03  0.00000000000E+00 0. -1.
         25    1    1    2    0    0 -0.29457252776E+03  0.31495750777E+02 -0.28930424898E+03  0.43253543774E+03  0.12500000000E+03 0.  0.
         21    1    1    2  503  501 -0.21752711270E+02 -0.10529356850E+03  0.28772940741E+02  0.11130048577E+03  0.00000000000E+00 0. -1.
          1    1    1    2  501    0  0.31632523903E+03  0.73797817719E+02 -0.51215821933E+03  0.60647655881E+03  0.00000000000E+00 0. -1.
<mgrwt>
<rscale>  4 0.39377498E+03</rscale>
<asrwt>0</asrwt>
<pdfrwt beam="1">  1       21 0.29047920E-01 0.39377498E+03</pdfrwt>
<pdfrwt beam="2">  1        1 0.14792323E+00 0.39377498E+03</pdfrwt>
<totfact> 0.20361977E+03</totfact>
</mgrwt>
</event>
<event>
 5    0  0.1041609E-002  0.1924091E+03  0.7546771E-02  0.1156306E+00
         21   -1    0    0  503  502  0.00000000000E+00  0.00000000000E+00  0.29395270733E+03  0.29395270733E+03  0.00000000000E+00 0.  1.
          2   -1    0    0  502    0 -0.00000000000E+00 -0.00000000000E+00 -0.23904033321E+03  0.23904033321E+03  0.00000000000E+00 0.  1.
         25    1    1    2    0    0 -0.22140736683E+03  0.64653759849E+02  0.48803257188E+02  0.26684843763E+03  0.12500000000E+03 0.  0.
         21    1    1    2  503  501  0.13275670018E+03 -0.73104732469E+02  0.58926711831E+02  0.16260689014E+03  0.00000000000E+00 0.  1.
          2    1    1    2  501    0  0.88650666652E+02  0.84509726198E+01 -0.52817594903E+02  0.10353771278E+03  0.00000000000E+00 0.  1.
<mgrwt>
<rscale>  4 0.19240908E+03</rscale>
<asrwt>0</asrwt>
<pdfrwt beam="1">  1       21 0.45223493E-01 0.19240908E+03</pdfrwt>
<pdfrwt beam="2">  1        2 0.36775436E-01 0.19240908E+03</pdfrwt>
<totfact> 0.81195535E+03</totfact>
</mgrwt>
</event>
<event>
 5    0  0.1041609E-002  0.2572426E+03  0.7546771E-02  0.1108811E+00
          1   -1    0    0  502    0 -0.00000000000E+00  0.00000000000E+00  0.77655039414E+03  0.77655039414E+03  0.00000000000E+00 0.  1.
         21   -1    0    0  503  502  0.00000000000E+00 -0.00000000000E+00 -0.13518420791E+03  0.13518420791E+03  0.00000000000E+00 0.  1.
         25    1    1    2    0    0  0.16610511204E+03 -0.20180508694E+03  0.15574677458E+03  0.32893503789E+03  0.12500000000E+03 0.  0.
         21    1    1    2  503  501 -0.10126877269E+03  0.51002967340E+02  0.63658968044E+02  0.13003511530E+03  0.00000000000E+00 0.  1.
          1    1    1    2  501    0 -0.64836339350E+02  0.15080211960E+03  0.42196044360E+03  0.45276444885E+03  0.00000000000E+00 0.  1.
<mgrwt>
<rscale>  4 0.25724257E+03</rscale>
<asrwt>0</asrwt>
<pdfrwt beam="1">  1       21 0.20797571E-01 0.25724257E+03</pdfrwt>
<pdfrwt beam="2">  1        1 0.11946929E+00 0.25724257E+03</pdfrwt>
<totfact> 0.56675271E+03</totfact>
</mgrwt>
</event>
<event>
 5    0  0.1041609E-002  0.1493727E+04  0.7546771E-02  0.8888635E-01
         21   -1    0    0  503  502  0.00000000000E+00  0.00000000000E+00  0.87068339356E+03  0.87068339356E+03  0.00000000000E+00 0. -1.
          2   -1    0    0  502    0 -0.00000000000E+00 -0.00000000000E+00 -0.34250102460E+04  0.34250102460E+04  0.00000000000E+00 0. -1.
         25    1    1    2    0    0 -0.39594802944E+03 -0.31133859732E+03 -0.12908776497E+04  0.13912931649E+04  0.12500000000E+03 0.  0.
         21    1    1    2  503  501 -0.33747218293E+03 -0.91029213982E+03 -0.11047457856E+04  0.14707081644E+04  0.00000000000E+00 0. -1.
          2    1    1    2  501    0  0.73342021237E+03  0.12216307371E+04 -0.15870341713E+03  0.14336923102E+04  0.00000000000E+00 0. -1.
<mgrwt>
<rscale>  4 0.14937270E+04</rscale>
<asrwt>0</asrwt>
<pdfrwt beam="1">  1       21 0.13395129E+00 0.14937270E+04</pdfrwt>
<pdfrwt beam="2">  1        2 0.52692465E+00 0.14937270E+04</pdfrwt>
<totfact> 0.34589513E+00</totfact>
</mgrwt>
</event>
<event>
 5    0  0.1041609E-002  0.2025098E+03  0.7546771E-02  0.1147639E+00
         21   -1    0    0  501  502  0.00000000000E+00  0.00000000000E+00  0.65397426046E+02  0.65397426046E+02  0.00000000000E+00 0.  1.
         -3   -1    0    0    0  501 -0.00000000000E+00 -0.00000000000E+00 -0.10135895089E+04  0.10135895089E+04  0.00000000000E+00 0.  1.
         25    1    1    2    0    0 -0.18132965202E+03  0.90419211161E+02 -0.62942203150E+03  0.67294366049E+03  0.12500000000E+03 0.  0.
         21    1    1    2  503  502  0.10402044970E+03  0.98093397000E+00 -0.24310017733E+03  0.26442184555E+03  0.00000000000E+00 0. -1.
         -3    1    1    2    0  503  0.77309202323E+02 -0.91400145131E+02 -0.75669874039E+02  0.14162142893E+03  0.00000000000E+00 0.  1.
<mgrwt>
<rscale>  4 0.20250979E+03</rscale>
<asrwt>0</asrwt>
<pdfrwt beam="1">  1       21 0.10061142E-01 0.20250979E+03</pdfrwt>
<pdfrwt beam="2">  1       -3 0.15593685E+00 0.20250979E+03</pdfrwt>
<totfact> 0.12324206E+03</totfact>
</mgrwt>
</event>
<event>
 5    0  0.1041609E-002  0.3677326E+03  0.7546771E-02  0.1055563E+00
          2   -1    0    0  502    0 -0.00000000000E+00  0.00000000000E+00  0.32075982303E+03  0.32075982303E+03  0.00000000000E+00 0.  1.
         21   -1    0    0  503  502  0.00000000000E+00 -0.00000000000E+00 -0.52645386578E+03  0.52645386578E+03  0.00000000000E+00 0.  1.
         25    1    1    2    0    0  0.32243457347E+03  0.17091759329E+03 -0.20345493809E+03  0.43611442271E+03  0.12500000000E+03 0.  0.
         21    1    1    2  503  501 -0.88596361245E+02 -0.11628480744E+02 -0.77544979678E+02  0.11831213236E+03  0.00000000000E+00 0. -1.
          2    1    1    2  501    0 -0.23383821222E+03 -0.15928911254E+03  0.75305875021E+02  0.29278713374E+03  0.00000000000E+00 0.  1.
<mgrwt>
<rscale>  4 0.36773259E+03</rscale>
<asrwt>0</asrwt>
<pdfrwt beam="1">  1       21 0.80992902E-01 0.36773259E+03</pdfrwt>
<pdfrwt beam="2">  1        2 0.49347665E-01 0.36773259E+03</pdfrwt>
<totfact> 0.15918001E+03</totfact>
</mgrwt>
</event>
<event>
 5    0  0.1041609E-002  0.3152721E+03  0.7546771E-02  0.1077846E+00
         -3   -1    0    0    0  501 -0.00000000000E+00  0.00000000000E+00  0.87106898565E+03  0.87106898565E+03  0.00000000000E+00 0.  1.
         21   -1    0    0  501  502  0.00000000000E+00 -0.00000000000E+00 -0.11894518072E+03  0.11894518072E+03  0.00000000000E+00 0.  1.
         25    1    1    2    0    0 -0.15279488348E+03  0.16714902521E+03  0.30596556433E+03  0.40065571205E+03  0.12500000000E+03 0.  0.
         21    1    1    2  503  502  0.30538442170E+02  0.82333653194E+02  0.38158065444E+02  0.95746879098E+02  0.00000000000E+00 0.  1.
         -3    1    1    2    0  503  0.12225644131E+03 -0.24948267841E+03  0.40800017515E+03  0.49361157522E+03  0.00000000000E+00 0.  1.
<mgrwt>
<rscale>  4 0.31527213E+03</rscale>
<asrwt>0</asrwt>
<pdfrwt beam="1">  1       21 0.18299259E-01 0.31527213E+03</pdfrwt>
<pdfrwt beam="2">  1       -3 0.13401061E+00 0.31527213E+03</pdfrwt>
<totfact> 0.60071132E+02</totfact>
</mgrwt>
</event>
<event>
 5    0  0.1041609E-002  0.3696620E+03  0.7546771E-02  0.1054822E+00
         21   -1    0    0  503  502  0.00000000000E+00  0.00000000000E+00  0.40438530488E+03  0.40438530488E+03  0.00000000000E+00 0. -1.
          4   -1    0    0  502    0 -0.00000000000E+00 -0.00000000000E+00 -0.78693354318E+03  0.78693354318E+03  0.00000000000E+00 0. -1.
         25    1    1    2    0    0  0.29842378820E+03  0.25571030211E+02 -0.29638151310E+03  0.43951977914E+03  0.12500000000E+03 0.  0.
         21    1    1    2  503  501 -0.82795915198E+02 -0.16765004324E+03 -0.34106490361E+03  0.38895625595E+03  0.00000000000E+00 0. -1.
          4    1    1    2  501    0 -0.21562787300E+03  0.14207901303E+03  0.25489817841E+03  0.36284281296E+03  0.00000000000E+00 0. -1.
<mgrwt>
<rscale>  4 0.36966199E+03</rscale>
<asrwt>0</asrwt>
<pdfrwt beam="1">  1       21 0.62213124E-01 0.36966199E+03</pdfrwt>
<pdfrwt beam="2">  1        4 0.12106670E+00 0.36966199E+03</pdfrwt>
<totfact> 0.52293223E+01</totfact>
</mgrwt>
</event>
