<event>
 5    0  0.3372079E-003  0.5638229E+03  0.7546771E-02  0.9983442E-01
         21   -1    0    0  501  502  0.00000000000E+00  0.00000000000E+00  0.87629452636E+03  0.87629452636E+03  0.00000000000E+00 0.  1.
         21   -1    0    0  502  503 -0.00000000000E+00 -0.00000000000E+00 -0.90693315260E+02  0.90693315260E+02  0.00000000000E+00 0.  1.
         25    1    1    2    0    0  0.11605029491E+03  0.16793110006E+03  0.66126172575E+03  0.70325002329E+03  0.12500000000E+03 0.  0.
          1    1    1    2  501    0 -0.50334261167E+02 -0.15805522675E+03  0.94328091859E+02  0.19082133388E+03  0.00000000000E+00 0.  1.
         -1    1    1    2    0  503 -0.65716033742E+02 -0.98758733082E+01  0.30011393491E+02  0.72916484444E+02  0.00000000000E+00 0. -1.
<mgrwt>
<rscale>  4 0.56382286E+03</rscale>
<asrwt>0</asrwt>
<pdfrwt beam="1">  1       21 0.13481454E+00 0.56382286E+03</pdfrwt>
<pdfrwt beam="2">  1       21 0.13952818E-01 0.56382286E+03</pdfrwt>
<totfact> 0.15282416E+04</totfact>
</mgrwt>
</event>
<event>
 5    0  0.3372079E-003  0.4860790E+03  0.7546771E-02  0.1017478E+00
         21   -1    0    0  501  502  0.00000000000E+00  0.00000000000E+00  0.66485692934E+03  0.66485692934E+03  0.00000000000E+00 0. -1.
         21   -1    0    0  502  503 -0.00000000000E+00 -0.00000000000E+00 -0.88843467189E+02  0.88843467189E+02  0.00000000000E+00 0. -1.
         25    1    1    2    0    0  0.14231909420E+03  0.16031336733E+03  0.31370768299E+03  0.39999076325E+03  0.12500000000E+03 0.  0.
          3    1    1    2  501    0 -0.37437952003E+02 -0.97838991533E+02  0.17377760003E+03  0.20291062758E+03  0.00000000000E+00 0.  1.
         -3    1    1    2    0  503 -0.10488114219E+03 -0.62474375799E+02  0.88528179138E+02  0.15079900570E+03  0.00000000000E+00 0. -1.
<mgrwt>
<rscale>  4 0.48607898E+03</rscale>
<asrwt>0</asrwt>
<pdfrwt beam="1">  1       21 0.10228568E+00 0.48607898E+03</pdfrwt>
<pdfrwt beam="2">  1       21 0.13668226E-01 0.48607898E+03</pdfrwt>
<totfact> 0.32575612E+04</totfact>
</mgrwt>
</event>
<event>
 5    0  0.3372079E-003  0.6415393E+03  0.7546771E-02  0.9822786E-01
         21   -1    0    0  501  502  0.00000000000E+00  0.00000000000E+00  0.13645908626E+04  0.13645908626E+04  0.00000000000E+00 0. -1.
         21   -1    0    0  502  503 -0.00000000000E+00 -0.00000000000E+00 -0.75402212887E+02  0.75402212887E+02  0.00000000000E+00 0. -1.
         25    1    1    2    0    0  0.34344787730E+02  0.20399798177E+03  0.25324542618E+03  0.35007568737E+03  0.12500000000E+03 0.  0.
          2    1    1    2  501    0  0.39811601574E+02 -0.10107770074E+03  0.88976334372E+03  0.89637072299E+03  0.00000000000E+00 0. -1.
         -2    1    1    2    0  503 -0.74156389304E+02 -0.10292028102E+03  0.14617987983E+03  0.19354666514E+03  0.00000000000E+00 0.  1.
<mgrwt>
<rscale>  4 0.64153931E+03</rscale>
<asrwt>0</asrwt>
<pdfrwt beam="1">  1       21 0.20993704E+00 0.64153931E+03</pdfrwt>
<pdfrwt beam="2">  1       21 0.11600341E-01 0.64153931E+03</pdfrwt>
<totfact> 0.58678128E+03</totfact>
</mgrwt>
</event>
<event>
 5    0  0.3372079E-003  0.4879284E+03  0.7546771E-02  0.1016979E+00
         21   -1    0    0  501  502  0.00000000000E+00  0.00000000000E+00  0.14715527634E+03  0.14715527634E+03  0.00000000000E+00 0. -1.
         21   -1    0    0  502  503 -0.00000000000E+00 -0.00000000000E+00 -0.40446076640E+03  0.40446076640E+03  0.00000000000E+00 0. -1.
         25    1    1    2    0    0  0.19949097155E+03 -0.61476177877E+02 -0.89708592800E+02  0.25932334989E+03  0.12500000000E+03 0.  0.
          3    1    1    2  501    0 -0.19963063578E+02 -0.18138113606E+02  0.87412830599E+01  0.28353573004E+02  0.00000000000E+00 0.  1.
         -3    1    1    2    0  503 -0.17952790797E+03  0.79614291483E+02 -0.17633818031E+03  0.26393911985E+03  0.00000000000E+00 0. -1.
<mgrwt>
<rscale>  4 0.48792842E+03</rscale>
<asrwt>0</asrwt>
<pdfrwt beam="1">  1       21 0.22639274E-01 0.48792842E+03</pdfrwt>
<pdfrwt beam="2">  1       21 0.62224732E-01 0.48792842E+03</pdfrwt>
<totfact> 0.39821270E+04</totfact>
</mgrwt>
</event>
<event>
 5    0  0.3372079E-003  0.5232270E+03  0.7546771E-02  0.1007888E+00
         21   -1    0    0  503  502  0.00000000000E+00  0.00000000000E+00  0.46307845327E+03  0.46307845327E+03  0.00000000000E+00 0. -1.
         21   -1    0    0  501  503 -0.00000000000E+00 -0.00000000000E+00 -0.14779701283E+03  0.14779701283E+03  0.00000000000E+00 0. -1.
         25    1    1    2    0    0  0.91175978737E+02 -0.21415821543E+03  0.19752210344E+03  0.32987388755E+03  0.12500000000E+03 0.  0.
          2    1    1    2  501    0  0.38254303922E+01  0.12347819502E+03  0.63504584755E+02  0.13890403467E+03  0.00000000000E+00 0. -1.
         -2    1    1    2    0  502 -0.95001409129E+02  0.90680020414E+02  0.54254752239E+02  0.14209754389E+03  0.00000000000E+00 0.  1.
<mgrwt>
<rscale>  4 0.52322696E+03</rscale>
<asrwt>0</asrwt>
<pdfrwt beam="1">  1       21 0.71242838E-01 0.52322696E+03</pdfrwt>
<pdfrwt beam="2">  1       21 0.22738002E-01 0.52322696E+03</pdfrwt>
<totfact> 0.28954741E+04</totfact>
</mgrwt>
</event>
<event>
 5    0  0.3372079E-003  0.4628063E+03  0.7546771E-02  0.1023970E+00
         21   -1    0    0  501  502  0.00000000000E+00  0.00000000000E+00  0.21697947206E+03  0.21697947206E+03  0.00000000000E+00 0.  1.
         21   -1    0    0  502  503 -0.00000000000E+00 -0.00000000000E+00 -0.24678565372E+03  0.24678565372E+03  0.00000000000E+00 0.  1.
         25    1    1    2    0    0  0.18110492068E+03 -0.92517496637E+02  0.10745891923E+02  0.23895387352E+03  0.12500000000E+03 0.  0.
          2    1    1    2  501    0 -0.32268461340E+02  0.60372004470E+02 -0.18863783111E+02  0.71006160537E+02  0.00000000000E+00 0. -1.
         -2    1    1    2    0  503 -0.14883645934E+03  0.32145492167E+02 -0.21688290470E+02  0.15380509172E+03  0.00000000000E+00 0.  1.
<mgrwt>
<rscale>  4 0.46280631E+03</rscale>
<asrwt>0</asrwt>
<pdfrwt beam="1">  1       21 0.33381457E-01 0.46280631E+03</pdfrwt>
<pdfrwt beam="2">  1       21 0.37967023E-01 0.46280631E+03</pdfrwt>
<totfact> 0.53181964E+04</totfact>
</mgrwt>
</event>
<event>
 5    0  0.3372079E-003  0.4489457E+03  0.7546771E-02  0.1028037E+00
         21   -1    0    0  503  502  0.00000000000E+00  0.00000000000E+00  0.15991992746E+03  0.15991992746E+03  0.00000000000E+00 0. -1.
         21   -1    0    0  501  503 -0.00000000000E+00 -0.00000000000E+00 -0.31508304184E+03  0.31508304184E+03  0.00000000000E+00 0. -1.
         25    1    1    2    0    0  0.20103764554E+03  0.12736135918E+01 -0.48929732235E+02  0.24173720383E+03  0.12500000000E+03 0.  0.
          2    1    1    2  501    0 -0.16705194747E+03  0.12309250038E+02 -0.10273315792E+03  0.19649929396E+03  0.00000000000E+00 0. -1.
         -2    1    1    2    0  502 -0.33985698068E+02 -0.13582863629E+02 -0.35002242293E+01  0.36766471509E+02  0.00000000000E+00 0.  1.
<mgrwt>
<rscale>  4 0.44894569E+03</rscale>
<asrwt>0</asrwt>
<pdfrwt beam="1">  1       21 0.24603066E-01 0.44894569E+03</pdfrwt>
<pdfrwt beam="2">  1       21 0.48474314E-01 0.44894569E+03</pdfrwt>
<totfact> 0.58636216E+04</totfact>
</mgrwt>
</event>
<event>
 5    0  0.3372079E-003  0.5893837E+03  0.7546771E-02  0.9927680E-01
         21   -1    0    0  501  502  0.00000000000E+00  0.00000000000E+00  0.57172985550E+02  0.57172985550E+02  0.00000000000E+00 0. -1.
         21   -1    0    0  502  503 -0.00000000000E+00 -0.00000000000E+00 -0.15189568191E+04  0.15189568191E+04  0.00000000000E+00 0. -1.
         25    1    1    2    0    0 -0.77396925550E+02 -0.23496236333E+03 -0.92499360641E+03  0.96562713724E+03  0.12500000000E+03 0.  0.
          3    1    1    2  501    0  0.41003460789E+02  0.22987300363E+03 -0.35413006317E+03  0.42418272388E+03  0.00000000000E+00 0. -1.
         -3    1    1    2    0  503  0.36393464762E+02  0.50893597004E+01 -0.18266016397E+03  0.18631994354E+03  0.00000000000E+00 0.  1.
<mgrwt>
<rscale>  4 0.58938373E+03</rscale>
<asrwt>0</asrwt>
<pdfrwt beam="1">  1       21 0.87958440E-02 0.58938373E+03</pdfrwt>
<pdfrwt beam="2">  1       21 0.23368566E+00 0.58938373E+03</pdfrwt>
<totfact> 0.69004646E+03</totfact>
</mgrwt>
</event>
<event>
 5    0  0.3372079E-003  0.6279647E+03  0.7546771E-02  0.9849029E-01
         21   -1    0    0  501  502  0.00000000000E+00  0.00000000000E+00  0.12099391061E+04  0.12099391061E+04  0.00000000000E+00 0.  1.
         21   -1    0    0  502  503 -0.00000000000E+00 -0.00000000000E+00 -0.81479240934E+02  0.81479240934E+02  0.00000000000E+00 0.  1.
         25    1    1    2    0    0  0.14363342171E+03 -0.23770494621E+03  0.39347255120E+03  0.49757396419E+03  0.12500000000E+03 0.  0.
          3    1    1    2  501    0 -0.12691478131E+03  0.11944530528E+03  0.51254502034E+03  0.54136581028E+03  0.00000000000E+00 0.  1.
         -3    1    1    2    0  503 -0.16718640406E+02  0.11825964094E+03  0.22244229363E+03  0.25247857257E+03  0.00000000000E+00 0. -1.
<mgrwt>
<rscale>  4 0.62796471E+03</rscale>
<asrwt>0</asrwt>
<pdfrwt beam="1">  1       21 0.18614446E+00 0.62796471E+03</pdfrwt>
<pdfrwt beam="2">  1       21 0.12535269E-01 0.62796471E+03</pdfrwt>
<totfact> 0.74125709E+03</totfact>
</mgrwt>
</event>
<event>
 5    0  0.3372079E-003  0.7988801E+03  0.7546771E-02  0.9561640E-01
         21   -1    0    0  503  502  0.00000000000E+00  0.00000000000E+00  0.22485492571E+03  0.22485492571E+03  0.00000000000E+00 0.  1.
         21   -1    0    0  501  503 -0.00000000000E+00 -0.00000000000E+00 -0.70957909850E+03  0.70957909850E+03  0.00000000000E+00 0.  1.
         25    1    1    2    0    0  0.23758448688E+03  0.20893351123E+03 -0.10038329646E+03  0.35468494009E+03  0.12500000000E+03 0.  0.
          4    1    1    2  501    0 -0.15385671859E+03 -0.15501154278E+02 -0.32636420360E+03  0.36114508031E+03  0.00000000000E+00 0. -1.
         -4    1    1    2    0  502 -0.83727768285E+02 -0.19343235695E+03 -0.57976672728E+02  0.21860400380E+03  0.00000000000E+00 0.  1.
<mgrwt>
<rscale>  4 0.79888010E+03</rscale>
<asrwt>0</asrwt>
<pdfrwt beam="1">  1       21 0.34593066E-01 0.79888010E+03</pdfrwt>
<pdfrwt beam="2">  1       21 0.10916602E+00 0.79888010E+03</pdfrwt>
<totfact> 0.43061509E+03</totfact>
</mgrwt>
</event>
<event>
 5    0  0.3372079E-003  0.5191944E+03  0.7546771E-02  0.1008887E+00
         21   -1    0    0  501  502  0.00000000000E+00  0.00000000000E+00  0.26608958504E+03  0.26608958504E+03  0.00000000000E+00 0. -1.
         21   -1    0    0  502  503 -0.00000000000E+00 -0.00000000000E+00 -0.25326322514E+03  0.25326322514E+03  0.00000000000E+00 0. -1.
         25    1    1    2    0    0  0.90120659858E+02 -0.20147184122E+03 -0.67065472329E+02  0.26236503905E+03  0.12500000000E+03 0.  0.
          4    1    1    2  501    0  0.23846438731E+02  0.40895540281E+02  0.14867948298E+02  0.49620094132E+02  0.00000000000E+00 0.  1.
         -4    1    1    2    0  503 -0.11396709859E+03  0.16057630093E+03  0.65023883936E+02  0.20736767700E+03  0.00000000000E+00 0. -1.
<mgrwt>
<rscale>  4 0.51919440E+03</rscale>
<asrwt>0</asrwt>
<pdfrwt beam="1">  1       21 0.40936860E-01 0.51919440E+03</pdfrwt>
<pdfrwt beam="2">  1       21 0.38963573E-01 0.51919440E+03</pdfrwt>
<totfact> 0.32862707E+04</totfact>
</mgrwt>
</event>
<event>
 5    0  0.3372079E-003  0.5448940E+03  0.7546771E-02  0.1002683E+00
         21   -1    0    0  501  502  0.00000000000E+00  0.00000000000E+00  0.77034014443E+02  0.77034014443E+02  0.00000000000E+00 0. -1.
         21   -1    0    0  502  503 -0.00000000000E+00 -0.00000000000E+00 -0.96356604678E+03  0.96356604678E+03  0.00000000000E+00 0. -1.
         25    1    1    2    0    0 -0.24332328003E+03  0.54809254014E+02 -0.55909515422E+03  0.62483811055E+03  0.12500000000E+03 0.  0.
          1    1    1    2  501    0  0.46370707504E+02 -0.61949524557E+01 -0.29463673067E+02  0.55287683809E+02  0.00000000000E+00 0.  1.
         -1    1    1    2    0  503  0.19695257253E+03 -0.48614301559E+02 -0.29797320506E+03  0.36047426686E+03  0.00000000000E+00 0. -1.
<mgrwt>
<rscale>  4 0.54489397E+03</rscale>
<asrwt>0</asrwt>
<pdfrwt beam="1">  1       21 0.11851386E-01 0.54489397E+03</pdfrwt>
<pdfrwt beam="2">  1       21 0.14824094E+00 0.54489397E+03</pdfrwt>
<totfact> 0.16065436E+04</totfact>
</mgrwt>
</event>
<event>
 5    0  0.3372079E-003  0.6252057E+03  0.7546771E-02  0.9854450E-01
         21   -1    0    0  501  502  0.00000000000E+00  0.00000000000E+00  0.84955578145E+02  0.84955578145E+02  0.00000000000E+00 0.  1.
         21   -1    0    0  502  503 -0.00000000000E+00 -0.00000000000E+00 -0.11502544042E+04  0.11502544042E+04  0.00000000000E+00 0.  1.
         25    1    1    2    0    0  0.15027171682E+03 -0.21308950493E+03 -0.29081265582E+03  0.41010453152E+03  0.12500000000E+03 0.  0.
          4    1    1    2  501    0 -0.10031797799E+02  0.37201142715E+02 -0.27002951976E+03  0.27276455695E+03  0.00000000000E+00 0.  1.
         -4    1    1    2    0  503 -0.14023991902E+03  0.17588836221E+03 -0.50445665051E+03  0.55234089392E+03  0.00000000000E+00 0. -1.
<mgrwt>
<rscale>  4 0.62520566E+03</rscale>
<asrwt>0</asrwt>
<pdfrwt beam="1">  1       21 0.13070090E-01 0.62520566E+03</pdfrwt>
<pdfrwt beam="2">  1       21 0.17696221E+00 0.62520566E+03</pdfrwt>
<totfact> 0.79810526E+03</totfact>
</mgrwt>
</event>
<event>
 5    0  0.3718915E-003  0.5180632E+03  0.7546771E-02  0.1009169E+00
         21   -1    0    0  501  502  0.00000000000E+00  0.00000000000E+00  0.25790612076E+03  0.25790612076E+03  0.00000000000E+00 0. -1.
         21   -1    0    0  502  503 -0.00000000000E+00 -0.00000000000E+00 -0.26016202803E+03  0.26016202803E+03  0.00000000000E+00 0. -1.
         25    1    1    2    0    0 -0.75606512307E+00 -0.21421866604E+03  0.34891640861E+02  0.25046483808E+03  0.12500000000E+03 0.  0.
          4    1    1    2  501    0  0.23600423203E+02  0.18107322861E+02 -0.61845249580E+02  0.68627181293E+02  0.00000000000E+00 0.  1.
         -4    1    1    2    0  503 -0.22844358080E+02  0.19611134317E+03  0.24697701449E+02  0.19897612941E+03  0.00000000000E+00 0. -1.
<mgrwt>
<rscale>  4 0.51806324E+03</rscale>
<asrwt>0</asrwt>
<pdfrwt beam="1">  1       21 0.39677865E-01 0.51806324E+03</pdfrwt>
<pdfrwt beam="2">  1       21 0.40024927E-01 0.51806324E+03</pdfrwt>
<totfact> 0.33174205E+04</totfact>
</mgrwt>
</event>
<event>
 5    0  0.3372079E-003  0.5383015E+03  0.7546771E-02  0.1004239E+00
         21   -1    0    0  501  502  0.00000000000E+00  0.00000000000E+00  0.37565711143E+03  0.37565711143E+03  0.00000000000E+00 0. -1.
         21   -1    0    0  502  503 -0.00000000000E+00 -0.00000000000E+00 -0.19284108299E+03  0.19284108299E+03  0.00000000000E+00 0. -1.
         25    1    1    2    0    0 -0.72707526956E+02 -0.23125649411E+03  0.15411703247E+03  0.31327784831E+03  0.12500000000E+03 0.  0.
          3    1    1    2  501    0  0.60827630911E+02  0.10599164982E+03 -0.12444219331E+02  0.12283765347E+03  0.00000000000E+00 0. -1.
         -3    1    1    2    0  503  0.11879896045E+02  0.12526484429E+03  0.41143215306E+02  0.13238269264E+03  0.00000000000E+00 0.  1.
<mgrwt>
<rscale>  4 0.53830149E+03</rscale>
<asrwt>0</asrwt>
<pdfrwt beam="1">  1       21 0.57793402E-01 0.53830149E+03</pdfrwt>
<pdfrwt beam="2">  1       21 0.29667859E-01 0.53830149E+03</pdfrwt>
<totfact> 0.27291936E+04</totfact>
</mgrwt>
</event>
<event>
 5    0  0.3372079E-003  0.6479501E+03  0.7546771E-02  0.9810633E-01
         21   -1    0    0  501  502  0.00000000000E+00  0.00000000000E+00  0.10097344416E+04  0.10097344416E+04  0.00000000000E+00 0.  1.
         21   -1    0    0  502  503 -0.00000000000E+00 -0.00000000000E+00 -0.10394794749E+03  0.10394794749E+03  0.00000000000E+00 0.  1.
         25    1    1    2    0    0 -0.23497969150E+03 -0.54783932396E+02  0.14231027061E+03  0.30674736802E+03  0.12500000000E+03 0.  0.
          3    1    1    2  501    0  0.18387164085E+03  0.72982728878E+02  0.49567159196E+03  0.53369053402E+03  0.00000000000E+00 0.  1.
         -3    1    1    2    0  503  0.51108050651E+02 -0.18198796482E+02  0.26780463155E+03  0.27324448707E+03  0.00000000000E+00 0. -1.
<mgrwt>
<rscale>  4 0.64795007E+03</rscale>
<asrwt>0</asrwt>
<pdfrwt beam="1">  1       21 0.15534375E+00 0.64795007E+03</pdfrwt>
<pdfrwt beam="2">  1       21 0.15991993E-01 0.64795007E+03</pdfrwt>
<totfact> 0.79127604E+03</totfact>
</mgrwt>
</event>
<event>
 5    0  0.3372079E-003  0.5050669E+03  0.7546771E-02  0.1012465E+00
         21   -1    0    0  501  502  0.00000000000E+00  0.00000000000E+00  0.82341748487E+03  0.82341748487E+03  0.00000000000E+00 0. -1.
         21   -1    0    0  502  503 -0.00000000000E+00 -0.00000000000E+00 -0.77449329768E+02  0.77449329768E+02  0.00000000000E+00 0. -1.
         25    1    1    2    0    0 -0.19677860659E+03  0.11558302904E+03  0.42281625264E+03  0.49646736057E+03  0.12500000000E+03 0.  0.
          4    1    1    2  501    0  0.61311188910E+02 -0.73257307214E+02  0.17409539359E+03  0.19858222734E+03  0.00000000000E+00 0.  1.
         -4    1    1    2    0  503  0.13546741768E+03 -0.42325721828E+02  0.14905650888E+03  0.20581722673E+03  0.00000000000E+00 0. -1.
<mgrwt>
<rscale>  4 0.50506686E+03</rscale>
<asrwt>0</asrwt>
<pdfrwt beam="1">  1       21 0.12667961E+00 0.50506686E+03</pdfrwt>
<pdfrwt beam="2">  1       21 0.11915282E-01 0.50506686E+03</pdfrwt>
<totfact> 0.24370428E+04</totfact>
</mgrwt>
</event>
<event>
 5    0  0.3372079E-003  0.6434343E+03  0.7546771E-02  0.9819178E-01
         21   -1    0    0  503  502  0.00000000000E+00  0.00000000000E+00  0.85537949185E+02  0.85537949185E+02  0.00000000000E+00 0. -1.
         21   -1    0    0  501  503 -0.00000000000E+00 -0.00000000000E+00 -0.12100118177E+04  0.12100118177E+04  0.00000000000E+00 0. -1.
         25    1    1    2    0    0 -0.12538655468E+03 -0.23888600253E+03 -0.42890930051E+03  0.52189701893E+03  0.12500000000E+03 0.  0.
          4    1    1    2  501    0 -0.30436444871E+02 -0.10859915757E+02 -0.23531663154E+02  0.39975669068E+02  0.00000000000E+00 0. -1.
         -4    1    1    2    0  502  0.15582299955E+03  0.24974591828E+03 -0.67203290482E+03  0.73367707887E+03  0.00000000000E+00 0.  1.
<mgrwt>
<rscale>  4 0.64343431E+03</rscale>
<asrwt>0</asrwt>
<pdfrwt beam="1">  1       21 0.13159685E-01 0.64343431E+03</pdfrwt>
<pdfrwt beam="2">  1       21 0.18615566E+00 0.64343431E+03</pdfrwt>
<totfact> 0.67498300E+03</totfact>
</mgrwt>
</event>
<event>
 5    0  0.3372079E-003  0.6068715E+03  0.7546771E-02  0.9891252E-01
         21   -1    0    0  503  502  0.00000000000E+00  0.00000000000E+00  0.12034886261E+04  0.12034886261E+04  0.00000000000E+00 0. -1.
         21   -1    0    0  501  503 -0.00000000000E+00 -0.00000000000E+00 -0.76505291066E+02  0.76505291066E+02  0.00000000000E+00 0. -1.
         25    1    1    2    0    0 -0.24767471866E+03  0.11740904422E+03  0.55541043424E+03  0.63184919117E+03  0.12500000000E+03 0.  0.
          2    1    1    2  501    0  0.96621585193E+02 -0.45584952021E+01  0.94786776916E+02  0.13542910943E+03  0.00000000000E+00 0.  1.
         -2    1    1    2    0  502  0.15105313346E+03 -0.11285054901E+03  0.47678612389E+03  0.51271561657E+03  0.00000000000E+00 0. -1.
<mgrwt>
<rscale>  4 0.60687148E+03</rscale>
<asrwt>0</asrwt>
<pdfrwt beam="1">  1       21 0.18515208E+00 0.60687148E+03</pdfrwt>
<pdfrwt beam="2">  1       21 0.11770046E-01 0.60687148E+03</pdfrwt>
<totfact> 0.84999331E+03</totfact>
</mgrwt>
</event>
<event>
 5    0  0.3372079E-003  0.6815841E+03  0.7546771E-02  0.9749255E-01
         21   -1    0    0  501  502  0.00000000000E+00  0.00000000000E+00  0.43088442141E+03  0.43088442141E+03  0.00000000000E+00 0. -1.
         21   -1    0    0  502  503 -0.00000000000E+00 -0.00000000000E+00 -0.26953683945E+03  0.26953683945E+03  0.00000000000E+00 0. -1.
         25    1    1    2    0    0  0.27917111069E+03  0.18233096260E+02 -0.11945961971E+02  0.30665397576E+03  0.12500000000E+03 0.  0.
          2    1    1    2  501    0 -0.13102563222E+03 -0.11219494558E+03  0.12101348888E+03  0.21071233140E+03  0.00000000000E+00 0.  1.
         -2    1    1    2    0  503 -0.14814547846E+03  0.93961849324E+02  0.52280055062E+02  0.18305495370E+03  0.00000000000E+00 0. -1.
<mgrwt>
<rscale>  4 0.68158411E+03</rscale>
<asrwt>0</asrwt>
<pdfrwt beam="1">  1       21 0.66289911E-01 0.68158411E+03</pdfrwt>
<pdfrwt beam="2">  1       21 0.41467206E-01 0.68158411E+03</pdfrwt>
<totfact> 0.98925709E+03</totfact>
</mgrwt>
</event>
<event>
 5    0  0.3372079E-003  0.5559343E+03  0.7546771E-02  0.1000130E+00
         21   -1    0    0  503  502  0.00000000000E+00  0.00000000000E+00  0.32748561887E+03  0.32748561887E+03  0.00000000000E+00 0.  1.
         21   -1    0    0  501  503 -0.00000000000E+00 -0.00000000000E+00 -0.23593625540E+03  0.23593625540E+03  0.00000000000E+00 0.  1.
         25    1    1    2    0    0 -0.20127495665E+03  0.64258357752E+02 -0.92953527799E+02  0.26249972009E+03  0.12500000000E+03 0.  0.
          1    1    1    2  501    0  0.18282445548E+03 -0.91078614984E+02  0.14950140879E+03  0.25312203945E+03  0.00000000000E+00 0.  1.
         -1    1    1    2    0  502  0.18450501175E+02  0.26820257232E+02  0.35001482480E+02  0.47800114721E+02  0.00000000000E+00 0. -1.
<mgrwt>
<rscale>  4 0.55593428E+03</rscale>
<asrwt>0</asrwt>
<pdfrwt beam="1">  1       21 0.50382403E-01 0.55593428E+03</pdfrwt>
<pdfrwt beam="2">  1       21 0.36297885E-01 0.55593428E+03</pdfrwt>
<totfact> 0.24361157E+04</totfact>
</mgrwt>
</event>
<event>
 5    0  0.3372079E-003  0.1549115E+04  0.7546771E-02  0.8852433E-01
         21   -1    0    0  501  502  0.00000000000E+00  0.00000000000E+00  0.10484773549E+04  0.10484773549E+04  0.00000000000E+00 0.  1.
         21   -1    0    0  502  503 -0.00000000000E+00 -0.00000000000E+00 -0.57220084927E+03  0.57220084927E+03  0.00000000000E+00 0.  1.
         25    1    1    2    0    0 -0.29319307605E+03  0.70740026252E+03  0.26711599900E+03  0.82058105521E+03  0.12500000000E+03 0.  0.
          2    1    1    2  501    0  0.30145063532E+03 -0.68502649637E+03  0.20316271626E+03  0.77550556126E+03  0.00000000000E+00 0.  1.
         -2    1    1    2    0  503 -0.82575592708E+01 -0.22373766144E+02  0.59977903698E+01  0.24591587706E+02  0.00000000000E+00 0. -1.
<mgrwt>
<rscale>  4 0.15491154E+04</rscale>
<asrwt>0</asrwt>
<pdfrwt beam="1">  1       21 0.16130421E+00 0.15491154E+04</pdfrwt>
<pdfrwt beam="2">  1       21 0.88030900E-01 0.15491154E+04</pdfrwt>
<totfact> 0.16957638E+02</totfact>
</mgrwt>
</event>
<event>
 5    0  0.3372079E-003  0.6043401E+03  0.7546771E-02  0.9896442E-01
         21   -1    0    0  501  502  0.00000000000E+00  0.00000000000E+00  0.95602463586E+02  0.95602463586E+02  0.00000000000E+00 0.  1.
         21   -1    0    0  502  503 -0.00000000000E+00 -0.00000000000E+00 -0.95506688317E+03  0.95506688317E+03  0.00000000000E+00 0.  1.
         25    1    1    2    0    0  0.16933003180E+03 -0.14409502788E+03 -0.43410003577E+03  0.50349168591E+03  0.12500000000E+03 0.  0.
          1    1    1    2  501    0 -0.16322002914E+03  0.16830107520E+02 -0.87221197285E+02  0.18582671414E+03  0.00000000000E+00 0.  1.
         -1    1    1    2    0  503 -0.61100026659E+01  0.12726492036E+03 -0.33814318653E+03  0.36135094670E+03  0.00000000000E+00 0. -1.
<mgrwt>
<rscale>  4 0.60434013E+03</rscale>
<asrwt>0</asrwt>
<pdfrwt beam="1">  1       21 0.14708071E-01 0.60434013E+03</pdfrwt>
<pdfrwt beam="2">  1       21 0.14693337E+00 0.60434013E+03</pdfrwt>
<totfact> 0.10893028E+04</totfact>
</mgrwt>
</event>
<event>
 5    0  0.3372079E-003  0.5198059E+03  0.7546771E-02  0.1008735E+00
         21   -1    0    0  501  502  0.00000000000E+00  0.00000000000E+00  0.58065680015E+03  0.58065680015E+03  0.00000000000E+00 0.  1.
         21   -1    0    0  502  503 -0.00000000000E+00 -0.00000000000E+00 -0.11633298980E+03  0.11633298980E+03  0.00000000000E+00 0.  1.
         25    1    1    2    0    0  0.63960046831E+02 -0.21297587409E+03  0.37128499645E+03  0.45047437122E+03  0.12500000000E+03 0.  0.
          4    1    1    2  501    0 -0.72710895771E+02  0.18782939735E+03  0.85782854892E+02  0.21891883215E+03  0.00000000000E+00 0.  1.
         -4    1    1    2    0  503  0.87508489393E+01  0.25146476739E+02  0.72559590091E+01  0.27596586577E+02  0.00000000000E+00 0. -1.
<mgrwt>
<rscale>  4 0.51980589E+03</rscale>
<asrwt>0</asrwt>
<pdfrwt beam="1">  1       21 0.89331814E-01 0.51980589E+03</pdfrwt>
<pdfrwt beam="2">  1       21 0.17897383E-01 0.51980589E+03</pdfrwt>
<totfact> 0.27094529E+04</totfact>
</mgrwt>
</event>
<event>
 5    0  0.3372079E-003  0.8909137E+03  0.7546771E-02  0.9437012E-01
         21   -1    0    0  503  502  0.00000000000E+00  0.00000000000E+00  0.16225837457E+03  0.16225837457E+03  0.00000000000E+00 0.  1.
         21   -1    0    0  501  503 -0.00000000000E+00 -0.00000000000E+00 -0.12229372184E+04  0.12229372184E+04  0.00000000000E+00 0.  1.
         25    1    1    2    0    0 -0.23135650572E+03  0.20050376429E+03 -0.15774388816E+03  0.36638194072E+03  0.12500000000E+03 0.  0.
          4    1    1    2  501    0  0.11557123788E+03 -0.29509242072E+03 -0.68209694138E+03  0.75212531218E+03  0.00000000000E+00 0.  1.
         -4    1    1    2    0  502  0.11578526784E+03  0.94588656429E+02 -0.22083801434E+03  0.26668834011E+03  0.00000000000E+00 0. -1.
<mgrwt>
<rscale>  4 0.89091370E+03</rscale>
<asrwt>0</asrwt>
<pdfrwt beam="1">  1       21 0.24962828E-01 0.89091370E+03</pdfrwt>
<pdfrwt beam="2">  1       21 0.18814418E+00 0.89091370E+03</pdfrwt>
<totfact> 0.18246848E+03</totfact>
</mgrwt>
</event>
<event>
 5    0  0.3372079E-003  0.6869941E+03  0.7546771E-02  0.9739736E-01
         21   -1    0    0  501  502  0.00000000000E+00  0.00000000000E+00  0.97822987545E+03  0.97822987545E+03  0.00000000000E+00 0. -1.
         21   -1    0    0  502  503 -0.00000000000E+00 -0.00000000000E+00 -0.12061603952E+03  0.12061603952E+03  0.00000000000E+00 0. -1.
         25    1    1    2    0    0  0.16665708740E+03  0.21135037031E+03  0.36669784485E+03  0.47173708062E+03  0.12500000000E+03 0.  0.
          4    1    1    2  501    0 -0.19266784798E+03 -0.19518282331E+03  0.51806532232E+03  0.58618163767E+03  0.00000000000E+00 0. -1.
         -4    1    1    2    0  503  0.26010760573E+02 -0.16167547007E+02 -0.27149331228E+02  0.40927196678E+02  0.00000000000E+00 0.  1.
<mgrwt>
<rscale>  4 0.68699407E+03</rscale>
<asrwt>0</asrwt>
<pdfrwt beam="1">  1       21 0.15049690E+00 0.68699407E+03</pdfrwt>
<pdfrwt beam="2">  1       21 0.18556314E-01 0.68699407E+03</pdfrwt>
<totfact> 0.64637001E+03</totfact>
</mgrwt>
</event>
<event>
 5    0  0.3372079E-003  0.5182019E+03  0.7546771E-02  0.1009134E+00
         21   -1    0    0  501  502  0.00000000000E+00  0.00000000000E+00  0.72728213416E+03  0.72728213416E+03  0.00000000000E+00 0. -1.
         21   -1    0    0  502  503 -0.00000000000E+00 -0.00000000000E+00 -0.92307096905E+02  0.92307096905E+02  0.00000000000E+00 0. -1.
         25    1    1    2    0    0 -0.18235822244E+02 -0.24142424514E+03  0.36245054242E+03  0.45344636624E+03  0.12500000000E+03 0.  0.
          4    1    1    2  501    0  0.78893217402E+01  0.22364732213E+03  0.25319125353E+03  0.33791445213E+03  0.00000000000E+00 0. -1.
         -4    1    1    2    0  503  0.10346500504E+02  0.17776923005E+02  0.19333241310E+02  0.28228412704E+02  0.00000000000E+00 0.  1.
<mgrwt>
<rscale>  4 0.51820190E+03</rscale>
<asrwt>0</asrwt>
<pdfrwt beam="1">  1       21 0.11188955E+00 0.51820190E+03</pdfrwt>
<pdfrwt beam="2">  1       21 0.14201092E-01 0.51820190E+03</pdfrwt>
<totfact> 0.24126054E+04</totfact>
</mgrwt>
</event>
<event>
 5    0  0.3372079E-003  0.6393504E+03  0.7546771E-02  0.9826970E-01
         21   -1    0    0  501  502  0.00000000000E+00  0.00000000000E+00  0.19741376304E+03  0.19741376304E+03  0.00000000000E+00 0. -1.
         21   -1    0    0  502  503 -0.00000000000E+00 -0.00000000000E+00 -0.51765505557E+03  0.51765505557E+03  0.00000000000E+00 0. -1.
         25    1    1    2    0    0 -0.13359961553E+02  0.29954334122E+03 -0.17686522378E+03  0.36987972265E+03  0.12500000000E+03 0.  0.
          4    1    1    2  501    0 -0.97315142361E+01 -0.27912922156E+03 -0.14426121101E+03  0.31435508856E+03  0.00000000000E+00 0. -1.
         -4    1    1    2    0  503  0.23091475789E+02 -0.20414119662E+02  0.88514225761E+00  0.30834007403E+02  0.00000000000E+00 0.  1.
<mgrwt>
<rscale>  4 0.63935040E+03</rscale>
<asrwt>0</asrwt>
<pdfrwt beam="1">  1       21 0.30371348E-01 0.63935040E+03</pdfrwt>
<pdfrwt beam="2">  1       21 0.79639240E-01 0.63935040E+03</pdfrwt>
<totfact> 0.12388700E+04</totfact>
</mgrwt>
</event>
<event>
 5    0  0.3372079E-003  0.5775415E+03  0.7546771E-02  0.9953128E-01
         21   -1    0    0  503  502  0.00000000000E+00  0.00000000000E+00  0.12021557577E+03  0.12021557577E+03  0.00000000000E+00 0.  1.
         21   -1    0    0  501  503 -0.00000000000E+00 -0.00000000000E+00 -0.69365845150E+03  0.69365845150E+03  0.00000000000E+00 0.  1.
         25    1    1    2    0    0  0.12201267911E+03 -0.22849709247E+03 -0.31243697523E+03  0.42466443061E+03  0.12500000000E+03 0.  0.
          1    1    1    2  501    0 -0.48067836226E+02 -0.25482272919E+00 -0.37645253915E+02  0.61055277875E+02  0.00000000000E+00 0. -1.
         -1    1    1    2    0  502 -0.73944842886E+02  0.22875191520E+03 -0.22336064658E+03  0.32815431879E+03  0.00000000000E+00 0.  1.
<mgrwt>
<rscale>  4 0.57754151E+03</rscale>
<asrwt>0</asrwt>
<pdfrwt beam="1">  1       21 0.18494704E-01 0.57754151E+03</pdfrwt>
<pdfrwt beam="2">  1       21 0.10671669E+00 0.57754151E+03</pdfrwt>
<totfact> 0.16327683E+04</totfact>
</mgrwt>
</event>
<event>
 5    0  0.3372079E-003  0.5988152E+03  0.7546771E-02  0.9907867E-01
         21   -1    0    0  501  502  0.00000000000E+00  0.00000000000E+00  0.70063919637E+02  0.70063919637E+02  0.00000000000E+00 0.  1.
         21   -1    0    0  502  503 -0.00000000000E+00 -0.00000000000E+00 -0.12794732738E+04  0.12794732738E+04  0.00000000000E+00 0.  1.
         25    1    1    2    0    0 -0.15174565080E+03 -0.17654264690E+03 -0.44138557455E+03  0.51443199175E+03  0.12500000000E+03 0.  0.
          1    1    1    2  501    0  0.19306253153E+03  0.16108038814E+03 -0.46263465622E+03  0.52654615909E+03  0.00000000000E+00 0.  1.
         -1    1    1    2    0  503 -0.41316880726E+02  0.15462258763E+02 -0.30538912337E+03  0.30855904257E+03  0.00000000000E+00 0. -1.
<mgrwt>
<rscale>  4 0.59881521E+03</rscale>
<asrwt>0</asrwt>
<pdfrwt beam="1">  1       21 0.10779065E-01 0.59881521E+03</pdfrwt>
<pdfrwt beam="2">  1       21 0.19684203E+00 0.59881521E+03</pdfrwt>
<totfact> 0.83038953E+03</totfact>
</mgrwt>
</event>
<event>
 5    0  0.3372079E-003  0.6247317E+03  0.7546771E-02  0.9855384E-01
         21   -1    0    0  501  502  0.00000000000E+00  0.00000000000E+00  0.27276251985E+03  0.27276251985E+03  0.00000000000E+00 0. -1.
         21   -1    0    0  502  503 -0.00000000000E+00 -0.00000000000E+00 -0.35771932087E+03  0.35771932087E+03  0.00000000000E+00 0. -1.
         25    1    1    2    0    0  0.22403708474E+02  0.23880981005E+03  0.82769165081E+02  0.28285647636E+03  0.12500000000E+03 0.  0.
          4    1    1    2  501    0 -0.82634882830E+02 -0.12461686979E+03 -0.15894483268E+03  0.21822316085E+03  0.00000000000E+00 0.  1.
         -4    1    1    2    0  503  0.60231174356E+02 -0.11419294026E+03 -0.87811334282E+01  0.12940220351E+03  0.00000000000E+00 0. -1.
<mgrwt>
<rscale>  4 0.62473170E+03</rscale>
<asrwt>0</asrwt>
<pdfrwt beam="1">  1       21 0.41963465E-01 0.62473170E+03</pdfrwt>
<pdfrwt beam="2">  1       21 0.55033742E-01 0.62473170E+03</pdfrwt>
<totfact> 0.14724215E+04</totfact>
</mgrwt>
</event>
<event>
 5    0  0.3372079E-003  0.6786365E+03  0.7546771E-02  0.9754481E-01
         21   -1    0    0  503  502  0.00000000000E+00  0.00000000000E+00  0.43479100478E+03  0.43479100478E+03  0.00000000000E+00 0.  1.
         21   -1    0    0  501  503 -0.00000000000E+00 -0.00000000000E+00 -0.26480972040E+03  0.26480972040E+03  0.00000000000E+00 0.  1.
         25    1    1    2    0    0  0.14667106238E+03 -0.23765710682E+03  0.13242401627E+03  0.33339829191E+03  0.12500000000E+03 0.  0.
          2    1    1    2  501    0 -0.77676400889E+02 -0.13943128037E+02 -0.47121177264E+02  0.91915392734E+02  0.00000000000E+00 0. -1.
         -2    1    1    2    0  502 -0.68994661490E+02  0.25160023486E+03  0.84678445380E+02  0.27428704054E+03  0.00000000000E+00 0.  1.
<mgrwt>
<rscale>  4 0.67863653E+03</rscale>
<asrwt>0</asrwt>
<pdfrwt beam="1">  1       21 0.66890924E-01 0.67863653E+03</pdfrwt>
<pdfrwt beam="2">  1       21 0.40739957E-01 0.67863653E+03</pdfrwt>
<totfact> 0.10063666E+04</totfact>
</mgrwt>
</event>
<event>
 5    0  0.3372079E-003  0.5041494E+03  0.7546771E-02  0.1012701E+00
         21   -1    0    0  503  502  0.00000000000E+00  0.00000000000E+00  0.90160045927E+03  0.90160045927E+03  0.00000000000E+00 0.  1.
         21   -1    0    0  501  503 -0.00000000000E+00 -0.00000000000E+00 -0.70476518721E+02  0.70476518721E+02  0.00000000000E+00 0.  1.
         25    1    1    2    0    0 -0.29296050728E+02 -0.21005595245E+03  0.28850136895E+03  0.37926218060E+03  0.12500000000E+03 0.  0.
          3    1    1    2  501    0 -0.35517379746E+02  0.27761967689E+02  0.11161792596E+03  0.12037762463E+03  0.00000000000E+00 0. -1.
         -3    1    1    2    0  502  0.64813430473E+02  0.18229398476E+03  0.43100464563E+03  0.47243717276E+03  0.00000000000E+00 0.  1.
<mgrwt>
<rscale>  4 0.50414943E+03</rscale>
<asrwt>0</asrwt>
<pdfrwt beam="1">  1       21 0.13870775E+00 0.50414943E+03</pdfrwt>
<pdfrwt beam="2">  1       21 0.10842542E-01 0.50414943E+03</pdfrwt>
<totfact> 0.22820838E+04</totfact>
</mgrwt>
</event>
<event>
 5    0  0.3372079E-003  0.7557633E+03  0.7546771E-02  0.9626352E-01
         21   -1    0    0  501  502  0.00000000000E+00  0.00000000000E+00  0.73807482717E+03  0.73807482717E+03  0.00000000000E+00 0. -1.
         21   -1    0    0  502  503 -0.00000000000E+00 -0.00000000000E+00 -0.19346890291E+03  0.19346890291E+03  0.00000000000E+00 0. -1.
         25    1    1    2    0    0  0.19066177816E+03 -0.21122258002E+03  0.30819521353E+02  0.31231672202E+03  0.12500000000E+03 0.  0.
          3    1    1    2  501    0  0.89352381840E+01  0.73185957277E+02  0.25065095017E+03  0.26126982536E+03  0.00000000000E+00 0.  1.
         -3    1    1    2    0  503 -0.19959701634E+03  0.13803662274E+03  0.26313545274E+03  0.35795718269E+03  0.00000000000E+00 0. -1.
<mgrwt>
<rscale>  4 0.75576326E+03</rscale>
<asrwt>0</asrwt>
<pdfrwt beam="1">  1       21 0.11354997E+00 0.75576326E+03</pdfrwt>
<pdfrwt beam="2">  1       21 0.29764447E-01 0.75576326E+03</pdfrwt>
<totfact> 0.53293888E+03</totfact>
</mgrwt>
</event>
<event>
 5    0  0.3372079E-003  0.5990221E+03  0.7546771E-02  0.9907437E-01
         21   -1    0    0  503  502  0.00000000000E+00  0.00000000000E+00  0.14817735546E+04  0.14817735546E+04  0.00000000000E+00 0.  1.
         21   -1    0    0  501  503 -0.00000000000E+00 -0.00000000000E+00 -0.60540193988E+02  0.60540193988E+02  0.00000000000E+00 0.  1.
         25    1    1    2    0    0  0.89433503948E+02  0.24559384618E+03  0.95472555922E+03  0.99771768670E+03  0.12500000000E+03 0.  0.
          2    1    1    2  501    0  0.14273002374E+02 -0.10552648400E+03  0.18751120698E+03  0.21563861010E+03  0.00000000000E+00 0. -1.
         -2    1    1    2    0  502 -0.10370650632E+03 -0.14006736218E+03  0.27899659444E+03  0.32895745183E+03  0.00000000000E+00 0.  1.
<mgrwt>
<rscale>  4 0.59902206E+03</rscale>
<asrwt>0</asrwt>
<pdfrwt beam="1">  1       21 0.22796513E+00 0.59902206E+03</pdfrwt>
<pdfrwt beam="2">  1       21 0.93138772E-02 0.59902206E+03</pdfrwt>
<totfact> 0.67515439E+03</totfact>
</mgrwt>
</event>
<event>
 5    0  0.3372079E-003  0.7858692E+03  0.7546771E-02  0.9580699E-01
         21   -1    0    0  501  502  0.00000000000E+00  0.00000000000E+00  0.77401229563E+03  0.77401229563E+03  0.00000000000E+00 0. -1.
         21   -1    0    0  502  503 -0.00000000000E+00 -0.00000000000E+00 -0.19947694117E+03  0.19947694117E+03  0.00000000000E+00 0. -1.
         25    1    1    2    0    0  0.26774935129E+03  0.79928808367E+02  0.58645444567E+03  0.66153771349E+03  0.12500000000E+03 0.  0.
          3    1    1    2  501    0 -0.51737820527E+02 -0.20861121935E+02 -0.61033956128E+02  0.82686953517E+02  0.00000000000E+00 0.  1.
         -3    1    1    2    0  503 -0.21601153077E+03 -0.59067686432E+02  0.49114864923E+02  0.22926456979E+03  0.00000000000E+00 0. -1.
<mgrwt>
<rscale>  4 0.78586921E+03</rscale>
<asrwt>0</asrwt>
<pdfrwt beam="1">  1       21 0.11907881E+00 0.78586921E+03</pdfrwt>
<pdfrwt beam="2">  1       21 0.30688761E-01 0.78586921E+03</pdfrwt>
<totfact> 0.44148766E+03</totfact>
</mgrwt>
</event>
<event>
 5    0  0.3372079E-003  0.6750394E+03  0.7546771E-02  0.9760897E-01
         21   -1    0    0  503  502  0.00000000000E+00  0.00000000000E+00  0.89995115534E+02  0.89995115534E+02  0.00000000000E+00 0.  1.
         21   -1    0    0  501  503 -0.00000000000E+00 -0.00000000000E+00 -0.12658415660E+04  0.12658415660E+04  0.00000000000E+00 0.  1.
         25    1    1    2    0    0 -0.19902020084E+03 -0.15212357773E+03 -0.10185758270E+04  0.10563485876E+04  0.12500000000E+03 0.  0.
          1    1    1    2  501    0  0.41122480342E+02  0.14218139160E+02 -0.14561166326E+02  0.45882910058E+02  0.00000000000E+00 0. -1.
         -1    1    1    2    0  502  0.15789772050E+03  0.13790543857E+03 -0.14270945720E+03  0.25360518390E+03  0.00000000000E+00 0.  1.
<mgrwt>
<rscale>  4 0.67503943E+03</rscale>
<asrwt>0</asrwt>
<pdfrwt beam="1">  1       21 0.13845402E-01 0.67503943E+03</pdfrwt>
<pdfrwt beam="2">  1       21 0.19474486E+00 0.67503943E+03</pdfrwt>
<totfact> 0.53144131E+03</totfact>
</mgrwt>
</event>
<event>
 5    0  0.3372079E-003  0.5316013E+03  0.7546771E-02  0.1005845E+00
         21   -1    0    0  503  502  0.00000000000E+00  0.00000000000E+00  0.49823360292E+03  0.49823360292E+03  0.00000000000E+00 0. -1.
         21   -1    0    0  501  503 -0.00000000000E+00 -0.00000000000E+00 -0.14180090828E+03  0.14180090828E+03  0.00000000000E+00 0. -1.
         25    1    1    2    0    0 -0.13175426815E+03 -0.19497897583E+03  0.20822068974E+03  0.33816688754E+03  0.12500000000E+03 0.  0.
          1    1    1    2  501    0 -0.75870882413E+01  0.80000061298E+02  0.29034508445E+02  0.85443410491E+02  0.00000000000E+00 0.  1.
         -1    1    1    2    0  502  0.13934135639E+03  0.11497891453E+03  0.11917749646E+03  0.21642421318E+03  0.00000000000E+00 0. -1.
<mgrwt>
<rscale>  4 0.53160127E+03</rscale>
<asrwt>0</asrwt>
<pdfrwt beam="1">  1       21 0.76651323E-01 0.53160127E+03</pdfrwt>
<pdfrwt beam="2">  1       21 0.21815525E-01 0.53160127E+03</pdfrwt>
<totfact> 0.26491516E+04</totfact>
</mgrwt>
</event>
<event>
 5    0  0.3372079E-003  0.4780833E+03  0.7546771E-02  0.1019663E+00
         21   -1    0    0  503  502  0.00000000000E+00  0.00000000000E+00  0.19688008961E+03  0.19688008961E+03  0.00000000000E+00 0. -1.
         21   -1    0    0  501  503 -0.00000000000E+00 -0.00000000000E+00 -0.29023200621E+03  0.29023200621E+03  0.00000000000E+00 0. -1.
         25    1    1    2    0    0 -0.47201065775E+01 -0.20892650872E+03 -0.45599390078E+02  0.24774355658E+03  0.12500000000E+03 0.  0.
          4    1    1    2  501    0 -0.44271068867E+02  0.77175816363E+02  0.52896975720E+01  0.89129204363E+02  0.00000000000E+00 0. -1.
         -4    1    1    2    0  502  0.48991175445E+02  0.13175069236E+03 -0.53042224091E+02  0.15023933488E+03  0.00000000000E+00 0.  1.
<mgrwt>
<rscale>  4 0.47808327E+03</rscale>
<asrwt>0</asrwt>
<pdfrwt beam="1">  1       21 0.30289245E-01 0.47808327E+03</pdfrwt>
<pdfrwt beam="2">  1       21 0.44651078E-01 0.47808327E+03</pdfrwt>
<totfact> 0.46035734E+04</totfact>
</mgrwt>
</event>
<event>
 5    0  0.3372079E-003  0.5133663E+03  0.7546771E-02  0.1010348E+00
         21   -1    0    0  503  502  0.00000000000E+00  0.00000000000E+00  0.27482119464E+03  0.27482119464E+03  0.00000000000E+00 0. -1.
         21   -1    0    0  501  503 -0.00000000000E+00 -0.00000000000E+00 -0.23974220200E+03  0.23974220200E+03  0.00000000000E+00 0. -1.
         25    1    1    2    0    0  0.17259652048E+03 -0.10193742172E+03 -0.48220990033E+02  0.24110383802E+03  0.12500000000E+03 0.  0.
          1    1    1    2  501    0 -0.12355344744E+03  0.13993191467E+01 -0.15095866730E+02  0.12448010950E+03  0.00000000000E+00 0. -1.
         -1    1    1    2    0  502 -0.49043073034E+02  0.10053810257E+03  0.98395849406E+02  0.14897944913E+03  0.00000000000E+00 0.  1.
<mgrwt>
<rscale>  4 0.51336630E+03</rscale>
<asrwt>0</asrwt>
<pdfrwt beam="1">  1       21 0.42280184E-01 0.51336630E+03</pdfrwt>
<pdfrwt beam="2">  1       21 0.36883416E-01 0.51336630E+03</pdfrwt>
<totfact> 0.34429351E+04</totfact>
</mgrwt>
</event>
<event>
 5    0  0.3372079E-003  0.9450768E+03  0.7546771E-02  0.9370924E-01
         21   -1    0    0  503  502  0.00000000000E+00  0.00000000000E+00  0.35286883605E+03  0.35286883605E+03  0.00000000000E+00 0. -1.
         21   -1    0    0  501  503 -0.00000000000E+00 -0.00000000000E+00 -0.63279195861E+03  0.63279195861E+03  0.00000000000E+00 0. -1.
         25    1    1    2    0    0  0.17260002092E+03  0.38987515700E+03 -0.39104751958E+02  0.44603540991E+03  0.12500000000E+03 0.  0.
          3    1    1    2  501    0 -0.98977313592E+01 -0.27475190078E+03 -0.88662835043E+02  0.28887310430E+03  0.00000000000E+00 0.  1.
         -3    1    1    2    0  502 -0.16270228956E+03 -0.11512325622E+03 -0.15215553555E+03  0.25075228045E+03  0.00000000000E+00 0. -1.
<mgrwt>
<rscale>  4 0.94507685E+03</rscale>
<asrwt>0</asrwt>
<pdfrwt beam="1">  1       21 0.54287513E-01 0.94507685E+03</pdfrwt>
<pdfrwt beam="2">  1       21 0.97352609E-01 0.94507685E+03</pdfrwt>
<totfact> 0.21542108E+03</totfact>
</mgrwt>
</event>
<event>
 5    0  0.3372079E-003  0.4556432E+03  0.7546771E-02  0.1026052E+00
         21   -1    0    0  503  502  0.00000000000E+00  0.00000000000E+00  0.98889678592E+02  0.98889678592E+02  0.00000000000E+00 0.  1.
         21   -1    0    0  501  503 -0.00000000000E+00 -0.00000000000E+00 -0.52485439704E+03  0.52485439704E+03  0.00000000000E+00 0.  1.
         25    1    1    2    0    0  0.19608704641E+02  0.20559563724E+03 -0.23409511698E+03  0.33627309013E+03  0.12500000000E+03 0.  0.
          1    1    1    2  501    0  0.18814494693E+02 -0.91119678167E+02 -0.76307688259E+02  0.12033139344E+03  0.00000000000E+00 0.  1.
         -1    1    1    2    0  502 -0.38423199334E+02 -0.11447595907E+03 -0.11556191320E+03  0.16713959206E+03  0.00000000000E+00 0. -1.
<mgrwt>
<rscale>  4 0.45564321E+03</rscale>
<asrwt>0</asrwt>
<pdfrwt beam="1">  1       21 0.15213796E-01 0.45564321E+03</pdfrwt>
<pdfrwt beam="2">  1       21 0.80746832E-01 0.45564321E+03</pdfrwt>
<totfact> 0.47205805E+04</totfact>
</mgrwt>
</event>
<event>
 5    0  0.3372079E-003  0.6782049E+03  0.7546771E-02  0.9755248E-01
         21   -1    0    0  501  502  0.00000000000E+00  0.00000000000E+00  0.64156637112E+03  0.64156637112E+03  0.00000000000E+00 0. -1.
         21   -1    0    0  502  503 -0.00000000000E+00 -0.00000000000E+00 -0.17923392239E+03  0.17923392239E+03  0.00000000000E+00 0. -1.
         25    1    1    2    0    0  0.21349589426E+03 -0.13060185950E+03  0.58925558469E+01  0.27981612674E+03  0.12500000000E+03 0.  0.
          1    1    1    2  501    0 -0.49068988748E+02  0.64303066044E+02  0.27766265397E+03  0.28920442488E+03  0.00000000000E+00 0. -1.
         -1    1    1    2    0  503 -0.16442690551E+03  0.66298793454E+02  0.17877723892E+03  0.25177974189E+03  0.00000000000E+00 0.  1.
<mgrwt>
<rscale>  4 0.67820486E+03</rscale>
<asrwt>0</asrwt>
<pdfrwt beam="1">  1       21 0.98702518E-01 0.67820486E+03</pdfrwt>
<pdfrwt beam="2">  1       21 0.27574450E-01 0.67820486E+03</pdfrwt>
<totfact> 0.89371814E+03</totfact>
</mgrwt>
</event>
<event>
 5    0  0.3372079E-003  0.6391582E+03  0.7546771E-02  0.9827338E-01
         21   -1    0    0  501  502  0.00000000000E+00  0.00000000000E+00  0.17321526870E+04  0.17321526870E+04  0.00000000000E+00 0. -1.
         21   -1    0    0  502  503 -0.00000000000E+00 -0.00000000000E+00 -0.58961780480E+02  0.58961780480E+02  0.00000000000E+00 0. -1.
         25    1    1    2    0    0  0.18461099801E+03 -0.14296801377E+03  0.14121477432E+04  0.14367697527E+04  0.12500000000E+03 0.  0.
          4    1    1    2  501    0 -0.75792193380E+02  0.36335645091E+02  0.12152287894E+03  0.14775840344E+03  0.00000000000E+00 0. -1.
         -4    1    1    2    0  503 -0.10881880463E+03  0.10663236868E+03  0.13952028437E+03  0.20658631137E+03  0.00000000000E+00 0.  1.
<mgrwt>
<rscale>  4 0.63915822E+03</rscale>
<asrwt>0</asrwt>
<pdfrwt beam="1">  1       21 0.26648499E+00 0.63915822E+03</pdfrwt>
<pdfrwt beam="2">  1       21 0.90710445E-02 0.63915822E+03</pdfrwt>
<totfact> 0.40171020E+03</totfact>
</mgrwt>
</event>
<event>
 5    0  0.3372079E-003  0.6110461E+03  0.7546771E-02  0.9882750E-01
         21   -1    0    0  503  502  0.00000000000E+00  0.00000000000E+00  0.62723743801E+03  0.62723743801E+03  0.00000000000E+00 0.  1.
         21   -1    0    0  501  503 -0.00000000000E+00 -0.00000000000E+00 -0.14881817634E+03  0.14881817634E+03  0.00000000000E+00 0.  1.
         25    1    1    2    0    0  0.16863414937E+03 -0.22216819034E+03  0.14019045116E+03  0.33626558510E+03  0.12500000000E+03 0.  0.
          4    1    1    2  501    0 -0.15966169142E+03  0.20052299555E+03  0.29652484782E+03  0.39195447800E+03  0.00000000000E+00 0.  1.
         -4    1    1    2    0  502 -0.89724579466E+01  0.21645194787E+02  0.41703962684E+02  0.47835551241E+02  0.00000000000E+00 0. -1.
<mgrwt>
<rscale>  4 0.61104609E+03</rscale>
<asrwt>0</asrwt>
<pdfrwt beam="1">  1       21 0.96498066E-01 0.61104609E+03</pdfrwt>
<pdfrwt beam="2">  1       21 0.22895104E-01 0.61104609E+03</pdfrwt>
<totfact> 0.13783286E+04</totfact>
</mgrwt>
</event>
<event>
 5    0  0.3372079E-003  0.5104006E+03  0.7546771E-02  0.1011099E+00
         21   -1    0    0  503  502  0.00000000000E+00  0.00000000000E+00  0.10931124747E+03  0.10931124747E+03  0.00000000000E+00 0. -1.
         21   -1    0    0  501  503 -0.00000000000E+00 -0.00000000000E+00 -0.59579579767E+03  0.59579579767E+03  0.00000000000E+00 0. -1.
         25    1    1    2    0    0 -0.19904369271E+03 -0.28958058645E+02 -0.27178467370E+03  0.36048421550E+03  0.12500000000E+03 0.  0.
          2    1    1    2  501    0 -0.54486020896E+01 -0.48192582077E+02 -0.22055351735E+02  0.53278989969E+02  0.00000000000E+00 0.  1.
         -2    1    1    2    0  502  0.20449229480E+03  0.77150640722E+02 -0.19264452476E+03  0.29134383967E+03  0.00000000000E+00 0. -1.
<mgrwt>
<rscale>  4 0.51040056E+03</rscale>
<asrwt>0</asrwt>
<pdfrwt beam="1">  1       21 0.16817116E-01 0.51040056E+03</pdfrwt>
<pdfrwt beam="2">  1       21 0.91660889E-01 0.51040056E+03</pdfrwt>
<totfact> 0.28713215E+04</totfact>
</mgrwt>
</event>
<event>
 5    0  0.3372079E-003  0.5361288E+03  0.7546771E-02  0.1004757E+00
         21   -1    0    0  501  502  0.00000000000E+00  0.00000000000E+00  0.30176605280E+03  0.30176605280E+03  0.00000000000E+00 0.  1.
         21   -1    0    0  502  503 -0.00000000000E+00 -0.00000000000E+00 -0.23812657966E+03  0.23812657966E+03  0.00000000000E+00 0.  1.
         25    1    1    2    0    0  0.18006819821E+03  0.16972947469E+03  0.25328947666E+02  0.27838679239E+03  0.12500000000E+03 0.  0.
          2    1    1    2  501    0 -0.50057807044E+02 -0.18514554732E+02  0.31488210267E+02  0.61968380395E+02  0.00000000000E+00 0. -1.
         -2    1    1    2    0  503 -0.13001039116E+03 -0.15121491996E+03  0.68223152083E+01  0.19953745968E+03  0.00000000000E+00 0.  1.
<mgrwt>
<rscale>  4 0.53612878E+03</rscale>
<asrwt>0</asrwt>
<pdfrwt beam="1">  1       21 0.46425547E-01 0.53612878E+03</pdfrwt>
<pdfrwt beam="2">  1       21 0.36634858E-01 0.53612878E+03</pdfrwt>
<totfact> 0.28558842E+04</totfact>
</mgrwt>
</event>
<event>
 5    0  0.3372079E-003  0.5120719E+03  0.7546771E-02  0.1010675E+00
         21   -1    0    0  501  502  0.00000000000E+00  0.00000000000E+00  0.74060147069E+02  0.74060147069E+02  0.00000000000E+00 0.  1.
         21   -1    0    0  502  503 -0.00000000000E+00 -0.00000000000E+00 -0.88515094968E+03  0.88515094968E+03  0.00000000000E+00 0.  1.
         25    1    1    2    0    0  0.18280475511E+03 -0.10030393417E+03 -0.29360374123E+03  0.38119104733E+03  0.12500000000E+03 0.  0.
          3    1    1    2  501    0 -0.17651504957E+03  0.53868025766E+02 -0.27592411541E+03  0.33195397933E+03  0.00000000000E+00 0.  1.
         -3    1    1    2    0  503 -0.62897055324E+01  0.46435908403E+02 -0.24156294597E+03  0.24606607009E+03  0.00000000000E+00 0. -1.
<mgrwt>
<rscale>  4 0.51207191E+03</rscale>
<asrwt>0</asrwt>
<pdfrwt beam="1">  1       21 0.11393868E-01 0.51207191E+03</pdfrwt>
<pdfrwt beam="2">  1       21 0.13617708E+00 0.51207191E+03</pdfrwt>
<totfact> 0.21856876E+04</totfact>
</mgrwt>
</event>
<event>
 5    0  0.3372079E-003  0.6893720E+03  0.7546771E-02  0.9735582E-01
         21   -1    0    0  501  502  0.00000000000E+00  0.00000000000E+00  0.44561236283E+03  0.44561236283E+03  0.00000000000E+00 0.  1.
         21   -1    0    0  502  503 -0.00000000000E+00 -0.00000000000E+00 -0.26661833861E+03  0.26661833861E+03  0.00000000000E+00 0.  1.
         25    1    1    2    0    0  0.12045545510E+03 -0.22873785417E+03  0.25825995963E+03  0.38620425858E+03  0.12500000000E+03 0.  0.
          3    1    1    2  501    0 -0.12664957161E+03  0.10155054895E+03  0.21352717416E+02  0.16373321753E+03  0.00000000000E+00 0.  1.
         -3    1    1    2    0  503  0.61941165163E+01  0.12718730522E+03 -0.10061865283E+03  0.16229322533E+03  0.00000000000E+00 0. -1.
<mgrwt>
<rscale>  4 0.68937197E+03</rscale>
<asrwt>0</asrwt>
<pdfrwt beam="1">  1       21 0.68555748E-01 0.68937197E+03</pdfrwt>
<pdfrwt beam="2">  1       21 0.41018206E-01 0.68937197E+03</pdfrwt>
<totfact> 0.93666142E+03</totfact>
</mgrwt>
</event>
<event>
 5    0  0.3372079E-003  0.6335631E+03  0.7546771E-02  0.9838120E-01
         21   -1    0    0  503  502  0.00000000000E+00  0.00000000000E+00  0.18443150872E+03  0.18443150872E+03  0.00000000000E+00 0. -1.
         21   -1    0    0  501  503 -0.00000000000E+00 -0.00000000000E+00 -0.54410736059E+03  0.54410736059E+03  0.00000000000E+00 0. -1.
         25    1    1    2    0    0  0.16492975947E+03 -0.21604857812E+03 -0.12653479918E+03  0.32483052361E+03  0.12500000000E+03 0.  0.
          1    1    1    2  501    0 -0.17682314196E+03  0.10232927050E+03 -0.19696283450E+03  0.28378171420E+03  0.00000000000E+00 0. -1.
         -1    1    1    2    0  502  0.11893382497E+02  0.11371930762E+03 -0.36178218178E+02  0.11992663150E+03  0.00000000000E+00 0.  1.
<mgrwt>
<rscale>  4 0.63356307E+03</rscale>
<asrwt>0</asrwt>
<pdfrwt beam="1">  1       21 0.28374079E-01 0.63356307E+03</pdfrwt>
<pdfrwt beam="2">  1       21 0.83708824E-01 0.63356307E+03</pdfrwt>
<totfact> 0.12643462E+04</totfact>
</mgrwt>
</event>
<event>
 5    0  0.3372079E-003  0.5568804E+03  0.7546771E-02  0.9999138E-01
         21   -1    0    0  503  502  0.00000000000E+00  0.00000000000E+00  0.96829629171E+02  0.96829629171E+02  0.00000000000E+00 0. -1.
         21   -1    0    0  501  503 -0.00000000000E+00 -0.00000000000E+00 -0.80067368736E+03  0.80067368736E+03  0.00000000000E+00 0. -1.
         25    1    1    2    0    0 -0.57695570935E+02 -0.22237121950E+03 -0.36105520832E+03  0.44582911707E+03  0.12500000000E+03 0.  0.
          4    1    1    2  501    0 -0.28719413309E+02  0.19446591639E+03 -0.27645219537E+03  0.33921617541E+03  0.00000000000E+00 0. -1.
         -4    1    1    2    0  502  0.86414984244E+02  0.27905303115E+02 -0.66336654502E+02  0.11245802406E+03  0.00000000000E+00 0.  1.
<mgrwt>
<rscale>  4 0.55688037E+03</rscale>
<asrwt>0</asrwt>
<pdfrwt beam="1">  1       21 0.14896866E-01 0.55688037E+03</pdfrwt>
<pdfrwt beam="2">  1       21 0.12318057E+00 0.55688037E+03</pdfrwt>
<totfact> 0.17149288E+04</totfact>
</mgrwt>
</event>
<event>
 5    0  0.3372079E-003  0.5105400E+03  0.7546771E-02  0.1011064E+00
         21   -1    0    0  501  502  0.00000000000E+00  0.00000000000E+00  0.20448048851E+03  0.20448048851E+03  0.00000000000E+00 0.  1.
         21   -1    0    0  502  503 -0.00000000000E+00 -0.00000000000E+00 -0.31867473383E+03  0.31867473383E+03  0.00000000000E+00 0.  1.
         25    1    1    2    0    0  0.59555807618E+02 -0.19375304978E+03 -0.10124218718E+02  0.23835821430E+03  0.12500000000E+03 0.  0.
          3    1    1    2  501    0  0.15657290838E+02  0.18807261344E+02  0.39393306481E+02  0.46375601680E+02  0.00000000000E+00 0. -1.
         -3    1    1    2    0  503 -0.75213098457E+02  0.17494578843E+03 -0.14346333308E+03  0.23842140636E+03  0.00000000000E+00 0.  1.
<mgrwt>
<rscale>  4 0.51053997E+03</rscale>
<asrwt>0</asrwt>
<pdfrwt beam="1">  1       21 0.31458537E-01 0.51053997E+03</pdfrwt>
<pdfrwt beam="2">  1       21 0.49026882E-01 0.51053997E+03</pdfrwt>
<totfact> 0.34803880E+04</totfact>
</mgrwt>
</event>
<event>
 5    0  0.3372079E-003  0.5134471E+03  0.7546771E-02  0.1010327E+00
         21   -1    0    0  503  502  0.00000000000E+00  0.00000000000E+00  0.16549422885E+04  0.16549422885E+04  0.00000000000E+00 0.  1.
         21   -1    0    0  501  503 -0.00000000000E+00 -0.00000000000E+00 -0.39824339413E+02  0.39824339413E+02  0.00000000000E+00 0.  1.
         25    1    1    2    0    0  0.15617796413E+03  0.17231042354E+03  0.85090800872E+03  0.89092753793E+03  0.12500000000E+03 0.  0.
          1    1    1    2  501    0 -0.12090748272E+03 -0.17557528938E+03  0.67462743536E+03  0.70750793504E+03  0.00000000000E+00 0.  1.
         -1    1    1    2    0  502 -0.35270481411E+02  0.32648658321E+01  0.89582505032E+02  0.96331154958E+02  0.00000000000E+00 0. -1.
<mgrwt>
<rscale>  4 0.51344711E+03</rscale>
<asrwt>0</asrwt>
<pdfrwt beam="1">  1       21 0.25460645E+00 0.51344711E+03</pdfrwt>
<pdfrwt beam="2">  1       21 0.61268227E-02 0.51344711E+03</pdfrwt>
<totfact> 0.99306789E+03</totfact>
</mgrwt>
</event>
<event>
 5    0  0.3372079E-003  0.6200940E+03  0.7546771E-02  0.9864573E-01
         21   -1    0    0  501  502  0.00000000000E+00  0.00000000000E+00  0.20414791799E+03  0.20414791799E+03  0.00000000000E+00 0. -1.
         21   -1    0    0  502  503 -0.00000000000E+00 -0.00000000000E+00 -0.47087984055E+03  0.47087984055E+03  0.00000000000E+00 0. -1.
         25    1    1    2    0    0 -0.54244890375E+02  0.27426157782E+03 -0.44650477863E+02  0.30948438793E+03  0.12500000000E+03 0.  0.
          2    1    1    2  501    0  0.17618228457E+02 -0.23828622180E+03 -0.17966996165E+03  0.29895153552E+03  0.00000000000E+00 0. -1.
         -2    1    1    2    0  503  0.36626661918E+02 -0.35975356027E+02 -0.42411483055E+02  0.66591835081E+02  0.00000000000E+00 0.  1.
<mgrwt>
<rscale>  4 0.62009399E+03</rscale>
<asrwt>0</asrwt>
<pdfrwt beam="1">  1       21 0.31407372E-01 0.62009399E+03</pdfrwt>
<pdfrwt beam="2">  1       21 0.72443051E-01 0.62009399E+03</pdfrwt>
<totfact> 0.14461678E+04</totfact>
</mgrwt>
</event>
<event>
 5    0  0.3372079E-003  0.6567395E+03  0.7546771E-02  0.9794214E-01
         21   -1    0    0  503  502  0.00000000000E+00  0.00000000000E+00  0.10723537833E+03  0.10723537833E+03  0.00000000000E+00 0. -1.
         21   -1    0    0  501  503 -0.00000000000E+00 -0.00000000000E+00 -0.10055142374E+04  0.10055142374E+04  0.00000000000E+00 0. -1.
         25    1    1    2    0    0  0.25225210713E+03 -0.48595121770E+02 -0.48091079210E+03  0.55936821627E+03  0.12500000000E+03 0.  0.
          4    1    1    2  501    0 -0.49187201272E+02 -0.19649992468E+02 -0.30862296420E+03  0.31313517369E+03  0.00000000000E+00 0.  1.
         -4    1    1    2    0  502 -0.20306490586E+03  0.68245114239E+02 -0.10874510272E+03  0.24024622573E+03  0.00000000000E+00 0. -1.
<mgrwt>
<rscale>  4 0.65673952E+03</rscale>
<asrwt>0</asrwt>
<pdfrwt beam="1">  1       21 0.16497751E-01 0.65673952E+03</pdfrwt>
<pdfrwt beam="2">  1       21 0.15469450E+00 0.65673952E+03</pdfrwt>
<totfact> 0.75351092E+03</totfact>
</mgrwt>
</event>
<event>
 5    0  0.3372079E-003  0.6009846E+03  0.7546771E-02  0.9903365E-01
         21   -1    0    0  503  502  0.00000000000E+00  0.00000000000E+00  0.92987780850E+02  0.92987780850E+02  0.00000000000E+00 0. -1.
         21   -1    0    0  501  503 -0.00000000000E+00 -0.00000000000E+00 -0.97104827450E+03  0.97104827450E+03  0.00000000000E+00 0. -1.
         25    1    1    2    0    0  0.88687635781E+02  0.21316621834E+03 -0.25269014575E+03  0.36439352786E+03  0.12500000000E+03 0.  0.
          2    1    1    2  501    0  0.22931412874E+02 -0.10861189676E+03 -0.46488171996E+03  0.47795126046E+03  0.00000000000E+00 0.  1.
         -2    1    1    2    0  502 -0.11161904865E+03 -0.10455432159E+03 -0.16048862793E+03  0.22169126704E+03  0.00000000000E+00 0. -1.
<mgrwt>
<rscale>  4 0.60098461E+03</rscale>
<asrwt>0</asrwt>
<pdfrwt beam="1">  1       21 0.14305812E-01 0.60098461E+03</pdfrwt>
<pdfrwt beam="2">  1       21 0.14939204E+00 0.60098461E+03</pdfrwt>
<totfact> 0.10970049E+04</totfact>
</mgrwt>
</event>
<event>
 5    0  0.3372079E-003  0.6003037E+03  0.7546771E-02  0.9904776E-01
         21   -1    0    0  501  502  0.00000000000E+00  0.00000000000E+00  0.43139713288E+03  0.43139713288E+03  0.00000000000E+00 0.  1.
         21   -1    0    0  502  503 -0.00000000000E+00 -0.00000000000E+00 -0.20883574781E+03  0.20883574781E+03  0.00000000000E+00 0.  1.
         25    1    1    2    0    0 -0.58097485820E+02 -0.21365305857E+03  0.29631645480E+03  0.39045023842E+03  0.12500000000E+03 0.  0.
          1    1    1    2  501    0 -0.18079338266E+02  0.12965203250E+02 -0.16262480791E+02  0.27557707614E+02  0.00000000000E+00 0. -1.
         -1    1    1    2    0  503  0.76176824086E+02  0.20068785532E+03 -0.57492588929E+02  0.22222493466E+03  0.00000000000E+00 0.  1.
<mgrwt>
<rscale>  4 0.60030373E+03</rscale>
<asrwt>0</asrwt>
<pdfrwt beam="1">  1       21 0.66368789E-01 0.60030373E+03</pdfrwt>
<pdfrwt beam="2">  1       21 0.32128577E-01 0.60030373E+03</pdfrwt>
<totfact> 0.16910583E+04</totfact>
</mgrwt>
</event>
<event>
 5    0  0.3372079E-003  0.6414770E+03  0.7546771E-02  0.9822905E-01
         21   -1    0    0  501  502  0.00000000000E+00  0.00000000000E+00  0.11217660752E+03  0.11217660752E+03  0.00000000000E+00 0.  1.
         21   -1    0    0  502  503 -0.00000000000E+00 -0.00000000000E+00 -0.91706452720E+03  0.91706452720E+03  0.00000000000E+00 0.  1.
         25    1    1    2    0    0  0.16734727683E+03  0.12682742628E+03 -0.12403207749E+03  0.27404244811E+03  0.12500000000E+03 0.  0.
          4    1    1    2  501    0 -0.15513702317E+03  0.99958876901E+01 -0.19005463918E+03  0.24553651379E+03  0.00000000000E+00 0.  1.
         -4    1    1    2    0  503 -0.12210253653E+02 -0.13682331397E+03 -0.49080120300E+03  0.50966217282E+03  0.00000000000E+00 0. -1.
<mgrwt>
<rscale>  4 0.64147701E+03</rscale>
<asrwt>0</asrwt>
<pdfrwt beam="1">  1       21 0.17257939E-01 0.64147701E+03</pdfrwt>
<pdfrwt beam="2">  1       21 0.14108685E+00 0.64147701E+03</pdfrwt>
<totfact> 0.89343063E+03</totfact>
</mgrwt>
</event>
<event>
 5    0  0.3372079E-003  0.4913602E+03  0.7546771E-02  0.1016059E+00
         21   -1    0    0  501  502  0.00000000000E+00  0.00000000000E+00  0.76528209782E+02  0.76528209782E+02  0.00000000000E+00 0.  1.
         21   -1    0    0  502  503 -0.00000000000E+00 -0.00000000000E+00 -0.78871198014E+03  0.78871198014E+03  0.00000000000E+00 0.  1.
         25    1    1    2    0    0  0.21825962336E+03 -0.47045344847E+02 -0.45410635763E+03  0.52123709739E+03  0.12500000000E+03 0.  0.
          1    1    1    2  501    0 -0.14784080060E+03  0.18370615766E+02 -0.14617640756E+03  0.20871493472E+03  0.00000000000E+00 0.  1.
         -1    1    1    2    0  503 -0.70418822754E+02  0.28674729081E+02 -0.11190100517E+03  0.13528815781E+03  0.00000000000E+00 0. -1.
<mgrwt>
<rscale>  4 0.49136022E+03</rscale>
<asrwt>0</asrwt>
<pdfrwt beam="1">  1       21 0.11773571E-01 0.49136022E+03</pdfrwt>
<pdfrwt beam="2">  1       21 0.12134031E+00 0.49136022E+03</pdfrwt>
<totfact> 0.27919891E+04</totfact>
</mgrwt>
</event>
<event>
 5    0  0.3372079E-003  0.5356866E+03  0.7546771E-02  0.1004862E+00
         21   -1    0    0  503  502  0.00000000000E+00  0.00000000000E+00  0.14856297206E+03  0.14856297206E+03  0.00000000000E+00 0. -1.
         21   -1    0    0  501  503 -0.00000000000E+00 -0.00000000000E+00 -0.48289304396E+03  0.48289304396E+03  0.00000000000E+00 0. -1.
         25    1    1    2    0    0  0.15234068139E+03 -0.19190050216E+03 -0.14377696633E+03  0.31037123253E+03  0.12500000000E+03 0.  0.
          2    1    1    2  501    0 -0.10937950503E+03  0.74283511892E+02 -0.11189009712E+03  0.17320886263E+03  0.00000000000E+00 0. -1.
         -2    1    1    2    0  502 -0.42961176362E+02  0.11761699027E+03 -0.78663008449E+02  0.14787592087E+03  0.00000000000E+00 0.  1.
<mgrwt>
<rscale>  4 0.53568657E+03</rscale>
<asrwt>0</asrwt>
<pdfrwt beam="1">  1       21 0.22855841E-01 0.53568657E+03</pdfrwt>
<pdfrwt beam="2">  1       21 0.74291239E-01 0.53568657E+03</pdfrwt>
<totfact> 0.25990946E+04</totfact>
</mgrwt>
</event>
<event>
 5    0  0.3372079E-003  0.6761954E+03  0.7546771E-02  0.9758830E-01
         21   -1    0    0  501  502  0.00000000000E+00  0.00000000000E+00  0.14886529421E+04  0.14886529421E+04  0.00000000000E+00 0.  1.
         21   -1    0    0  502  503 -0.00000000000E+00 -0.00000000000E+00 -0.76787574426E+02  0.76787574426E+02  0.00000000000E+00 0.  1.
         25    1    1    2    0    0  0.24200203557E+03  0.51364769819E+02  0.72297165510E+03  0.77428440438E+03  0.12500000000E+03 0.  0.
          4    1    1    2  501    0 -0.13194669603E+03 -0.13566028029E+03  0.17109705770E+03  0.25512319650E+03  0.00000000000E+00 0.  1.
         -4    1    1    2    0  503 -0.11005533954E+03  0.84295510467E+02  0.51779665486E+03  0.53603291562E+03  0.00000000000E+00 0. -1.
<mgrwt>
<rscale>  4 0.67619538E+03</rscale>
<asrwt>0</asrwt>
<pdfrwt beam="1">  1       21 0.22902351E+00 0.67619538E+03</pdfrwt>
<pdfrwt beam="2">  1       21 0.11813474E-01 0.67619538E+03</pdfrwt>
<totfact> 0.42242710E+03</totfact>
</mgrwt>
</event>
<event>
 5    0  0.3372079E-003  0.1008215E+04  0.7546771E-02  0.9299580E-01
         21   -1    0    0  501  502  0.00000000000E+00  0.00000000000E+00  0.40128048124E+03  0.40128048124E+03  0.00000000000E+00 0. -1.
         21   -1    0    0  502  503 -0.00000000000E+00 -0.00000000000E+00 -0.63328375047E+03  0.63328375047E+03  0.00000000000E+00 0. -1.
         25    1    1    2    0    0  0.23455772865E+03  0.38154278188E+03 -0.11942094909E+03  0.48008185298E+03  0.12500000000E+03 0.  0.
          3    1    1    2  501    0 -0.17235528429E+03 -0.29018844089E+03 -0.21796179500E+03  0.40177483661E+03  0.00000000000E+00 0. -1.
         -3    1    1    2    0  503 -0.62202444368E+02 -0.91354340988E+02  0.10537947486E+03  0.15270754213E+03  0.00000000000E+00 0.  1.
<mgrwt>
<rscale>  4 0.10082151E+04</rscale>
<asrwt>0</asrwt>
<pdfrwt beam="1">  1       21 0.61735459E-01 0.10082151E+04</pdfrwt>
<pdfrwt beam="2">  1       21 0.97428269E-01 0.10082151E+04</pdfrwt>
<totfact> 0.16007641E+03</totfact>
</mgrwt>
</event>
<event>
 5    0  0.3372079E-003  0.5436142E+03  0.7546771E-02  0.1002983E+00
         21   -1    0    0  501  502  0.00000000000E+00  0.00000000000E+00  0.45900709058E+03  0.45900709058E+03  0.00000000000E+00 0.  1.
         21   -1    0    0  502  503 -0.00000000000E+00 -0.00000000000E+00 -0.16095416242E+03  0.16095416242E+03  0.00000000000E+00 0.  1.
         25    1    1    2    0    0 -0.24093937944E+03 -0.36213248335E+02  0.11533277075E+03  0.29713604953E+03  0.12500000000E+03 0.  0.
          4    1    1    2  501    0  0.42183989372E+02  0.40629207949E+02  0.79723532062E+02  0.98924532157E+02  0.00000000000E+00 0. -1.
         -4    1    1    2    0  503  0.19875539007E+03 -0.44159596147E+01  0.10299662535E+03  0.22390067131E+03  0.00000000000E+00 0.  1.
<mgrwt>
<rscale>  4 0.54361421E+03</rscale>
<asrwt>0</asrwt>
<pdfrwt beam="1">  1       21 0.70616475E-01 0.54361421E+03</pdfrwt>
<pdfrwt beam="2">  1       21 0.24762179E-01 0.54361421E+03</pdfrwt>
<totfact> 0.24925245E+04</totfact>
</mgrwt>
</event>
<event>
 5    0  0.3372079E-003  0.5936419E+03  0.7546771E-02  0.9918686E-01
         21   -1    0    0  503  502  0.00000000000E+00  0.00000000000E+00  0.15175609295E+03  0.15175609295E+03  0.00000000000E+00 0. -1.
         21   -1    0    0  501  503 -0.00000000000E+00 -0.00000000000E+00 -0.58055437191E+03  0.58055437191E+03  0.00000000000E+00 0. -1.
         25    1    1    2    0    0  0.63366397483E+02  0.22274854455E+03 -0.51424078744E+02  0.26814483084E+03  0.12500000000E+03 0.  0.
          1    1    1    2  501    0 -0.39688490772E+02 -0.20735014515E+03 -0.38110852490E+03  0.43567529967E+03  0.00000000000E+00 0. -1.
         -1    1    1    2    0  502 -0.23677906711E+02 -0.15398399400E+02  0.37343246887E+01  0.28490334347E+02  0.00000000000E+00 0.  1.
<mgrwt>
<rscale>  4 0.59364186E+03</rscale>
<asrwt>0</asrwt>
<pdfrwt beam="1">  1       21 0.23347092E-01 0.59364186E+03</pdfrwt>
<pdfrwt beam="2">  1       21 0.89316055E-01 0.59364186E+03</pdfrwt>
<totfact> 0.16036495E+04</totfact>
</mgrwt>
</event>
<event>
 5    0  0.3372079E-003  0.6492951E+03  0.7546771E-02  0.9808103E-01
         21   -1    0    0  501  502  0.00000000000E+00  0.00000000000E+00  0.27367744017E+03  0.27367744017E+03  0.00000000000E+00 0. -1.
         21   -1    0    0  502  503 -0.00000000000E+00 -0.00000000000E+00 -0.38511044545E+03  0.38511044545E+03  0.00000000000E+00 0. -1.
         25    1    1    2    0    0 -0.12156144267E+03 -0.26684645496E+03  0.34542617547E+02  0.32062814489E+03  0.12500000000E+03 0.  0.
          1    1    1    2  501    0 -0.68901267274E+01  0.46467858493E+02 -0.64619235334E+01  0.47418268368E+02  0.00000000000E+00 0.  1.
         -1    1    1    2    0  503  0.12845156940E+03  0.22037859647E+03 -0.13951369929E+03  0.29074147236E+03  0.00000000000E+00 0. -1.
<mgrwt>
<rscale>  4 0.64929513E+03</rscale>
<asrwt>0</asrwt>
<pdfrwt beam="1">  1       21 0.42104221E-01 0.64929513E+03</pdfrwt>
<pdfrwt beam="2">  1       21 0.59247761E-01 0.64929513E+03</pdfrwt>
<totfact> 0.12381989E+04</totfact>
</mgrwt>
</event>
<event>
 5    0  0.3372079E-003  0.8543760E+03  0.7546771E-02  0.9484482E-01
         21   -1    0    0  503  502  0.00000000000E+00  0.00000000000E+00  0.88464531022E+03  0.88464531022E+03  0.00000000000E+00 0. -1.
         21   -1    0    0  501  503 -0.00000000000E+00 -0.00000000000E+00 -0.20628559174E+03  0.20628559174E+03  0.00000000000E+00 0. -1.
         25    1    1    2    0    0 -0.24050250623E+03  0.25012681846E+03  0.43460059891E+03  0.57000663275E+03  0.12500000000E+03 0.  0.
          3    1    1    2  501    0 -0.45798495841E+02 -0.13865651331E+03  0.37138865053E+02  0.15067324316E+03  0.00000000000E+00 0.  1.
         -3    1    1    2    0  502  0.28630100207E+03 -0.11147030514E+03  0.20662025452E+03  0.37025102605E+03  0.00000000000E+00 0. -1.
<mgrwt>
<rscale>  4 0.85437599E+03</rscale>
<asrwt>0</asrwt>
<pdfrwt beam="1">  1       21 0.13609928E+00 0.85437599E+03</pdfrwt>
<pdfrwt beam="2">  1       21 0.31736245E-01 0.85437599E+03</pdfrwt>
<totfact> 0.28666930E+03</totfact>
</mgrwt>
</event>
<event>
 5    0  0.3372079E-003  0.7440392E+03  0.7546771E-02  0.9644749E-01
         21   -1    0    0  503  502  0.00000000000E+00  0.00000000000E+00  0.20942779992E+04  0.20942779992E+04  0.00000000000E+00 0.  1.
         21   -1    0    0  501  503 -0.00000000000E+00 -0.00000000000E+00 -0.66084142306E+02  0.66084142306E+02  0.00000000000E+00 0.  1.
         25    1    1    2    0    0 -0.13473977962E+03 -0.21324930656E+03  0.17380739468E+04  0.17607260206E+04  0.12500000000E+03 0.  0.
          1    1    1    2  501    0  0.36610206271E+02  0.27068551292E+02  0.58001043782E+01  0.45898310241E+02  0.00000000000E+00 0. -1.
         -1    1    1    2    0  502  0.98129573352E+02  0.18618075527E+03  0.28431980575E+03  0.35373781073E+03  0.00000000000E+00 0.  1.
<mgrwt>
<rscale>  4 0.74403915E+03</rscale>
<asrwt>0</asrwt>
<pdfrwt beam="1">  1       21 0.32219656E+00 0.74403915E+03</pdfrwt>
<pdfrwt beam="2">  1       21 0.10166793E-01 0.74403915E+03</pdfrwt>
<totfact> 0.14395560E+03</totfact>
</mgrwt>
</event>
