<event>
 5    0  0.1283376E+001  0.3087034E+03  0.7546771E-02  0.1080969E+00
         21   -1    0    0  503  501  0.00000000000E+00  0.00000000000E+00  0.48171018446E+03  0.48171018446E+03  0.00000000000E+00 0.  1.
         21   -1    0    0  504  502 -0.00000000000E+00 -0.00000000000E+00 -0.48635101127E+03  0.48635101127E+03  0.00000000000E+00 0.  1.
         25    1    1    2    0    0  0.20024239283E+03  0.22576363560E+03  0.24781736646E+03  0.41000570991E+03  0.12500000000E+03 0.  0.
         21    1    1    2  503  502 -0.28379496301E+02 -0.35831859252E+02 -0.29489602056E+03  0.29841746077E+03  0.00000000000E+00 0.  1.
         21    1    1    2  504  501 -0.17186289652E+03 -0.18993177635E+03  0.42437827294E+02  0.25963802506E+03  0.00000000000E+00 0.  1.
<mgrwt>
<rscale>  4 0.30870336E+03</rscale>
<asrwt>0</asrwt>
<pdfrwt beam="1">  1       21 0.74109260E-01 0.30870336E+03</pdfrwt>
<pdfrwt beam="2">  1       21 0.74823232E-01 0.30870336E+03</pdfrwt>
<totfact> 0.24068472E+03</totfact>
</mgrwt>
</event>
<event>
 5    0  0.1283376E+001  0.2946155E+03  0.7546771E-02  0.1087964E+00
         21   -1    0    0  503  501  0.00000000000E+00  0.00000000000E+00  0.58475730105E+03  0.58475730105E+03  0.00000000000E+00 0. -1.
         21   -1    0    0  504  502 -0.00000000000E+00 -0.00000000000E+00 -0.35124368800E+03  0.35124368800E+03  0.00000000000E+00 0. -1.
         25    1    1    2    0    0  0.17803505761E+03  0.18152717393E+03  0.36770697767E+03  0.46420040720E+03  0.12500000000E+03 0.  0.
         21    1    1    2  503  502  0.79086066941E+02 -0.69583045083E+01 -0.14002250489E+03  0.16096374083E+03  0.00000000000E+00 0. -1.
         21    1    1    2  504  501 -0.25712112455E+03 -0.17456886942E+03  0.58291402769E+01  0.31083684102E+03  0.00000000000E+00 0. -1.
<mgrwt>
<rscale>  4 0.29461552E+03</rscale>
<asrwt>0</asrwt>
<pdfrwt beam="1">  1       21 0.89962662E-01 0.29461552E+03</pdfrwt>
<pdfrwt beam="2">  1       21 0.54037491E-01 0.29461552E+03</pdfrwt>
<totfact> 0.31730157E+03</totfact>
</mgrwt>
</event>
<event>
 5    0  0.1283376E+001  0.2701089E+03  0.7546771E-02  0.1101217E+00
         21   -1    0    0  502  501  0.00000000000E+00  0.00000000000E+00  0.10787825174E+03  0.10787825174E+03  0.00000000000E+00 0. -1.
         21   -1    0    0  503  502 -0.00000000000E+00 -0.00000000000E+00 -0.15672150968E+04  0.15672150968E+04  0.00000000000E+00 0. -1.
         25    1    1    2    0    0  0.23357426801E+03  0.69779874331E+02 -0.10196664187E+03  0.29231552403E+03  0.12500000000E+03 0.  0.
         21    1    1    2  503  504 -0.20757757233E+03 -0.43006632851E+02 -0.12729050803E+04  0.12904361133E+04  0.00000000000E+00 0. -1.
         21    1    1    2  504  501 -0.25996695680E+02 -0.26773241480E+02 -0.84465122842E+02  0.92341711173E+02  0.00000000000E+00 0. -1.
<mgrwt>
<rscale>  4 0.27010895E+03</rscale>
<asrwt>0</asrwt>
<pdfrwt beam="1">  1       21 0.16596655E-01 0.27010895E+03</pdfrwt>
<pdfrwt beam="2">  1       21 0.24111001E+00 0.27010895E+03</pdfrwt>
<totfact> 0.22740760E+03</totfact>
</mgrwt>
</event>
<event>
 5    0  0.1283376E+001  0.2427809E+03  0.7546771E-02  0.1117954E+00
         21   -1    0    0  503  501  0.00000000000E+00  0.00000000000E+00  0.59332781754E+03  0.59332781754E+03  0.00000000000E+00 0. -1.
         21   -1    0    0  504  502 -0.00000000000E+00 -0.00000000000E+00 -0.64921089906E+03  0.64921089906E+03  0.00000000000E+00 0.  1.
         25    1    1    2    0    0 -0.20771925119E+03 -0.52449008781E+02  0.37164311539E+03  0.44681292624E+03  0.12500000000E+03 0.  0.
         21    1    1    2  503  502  0.10259094091E+02  0.21773078730E+02 -0.55706409813E+03  0.55758382813E+03  0.00000000000E+00 0.  1.
         21    1    1    2  504  501  0.19746015710E+03  0.30675930051E+02  0.12953790122E+03  0.23814196223E+03  0.00000000000E+00 0. -1.
<mgrwt>
<rscale>  4 0.24278093E+03</rscale>
<asrwt>0</asrwt>
<pdfrwt beam="1">  1       21 0.91281202E-01 0.24278093E+03</pdfrwt>
<pdfrwt beam="2">  1       21 0.99878600E-01 0.24278093E+03</pdfrwt>
<totfact> 0.79844625E+02</totfact>
</mgrwt>
</event>
<event>
 5    0  0.1283376E+001  0.2591704E+03  0.7546771E-02  0.1107643E+00
         21   -1    0    0  503  501  0.00000000000E+00  0.00000000000E+00  0.48551386369E+03  0.48551386369E+03  0.00000000000E+00 0.  1.
         21   -1    0    0  504  502 -0.00000000000E+00 -0.00000000000E+00 -0.85578910710E+03  0.85578910710E+03  0.00000000000E+00 0.  1.
         25    1    1    2    0    0  0.47027247318E+02  0.19953803777E+03  0.31645935483E+02  0.24218475538E+03  0.12500000000E+03 0.  0.
         21    1    1    2  503  502 -0.14190911146E+02 -0.23586848649E+03  0.30761466475E+03  0.38789445323E+03  0.00000000000E+00 0.  1.
         21    1    1    2  504  501 -0.32836336172E+02  0.36330448726E+02 -0.70953584364E+03  0.71122376218E+03  0.00000000000E+00 0.  1.
<mgrwt>
<rscale>  4 0.25917043E+03</rscale>
<asrwt>0</asrwt>
<pdfrwt beam="1">  1       21 0.74694441E-01 0.25917043E+03</pdfrwt>
<pdfrwt beam="2">  1       21 0.13165986E+00 0.25917043E+03</pdfrwt>
<totfact> 0.63053611E+02</totfact>
</mgrwt>
</event>
<event>
 5    0  0.1283376E+001  0.2837683E+03  0.7546771E-02  0.1093648E+00
         21   -1    0    0  503  501  0.00000000000E+00  0.00000000000E+00  0.42067253967E+03  0.42067253967E+03  0.00000000000E+00 0.  1.
         21   -1    0    0  504  502 -0.00000000000E+00 -0.00000000000E+00 -0.35468280931E+03  0.35468280931E+03  0.00000000000E+00 0.  1.
         25    1    1    2    0    0  0.26883353608E+03 -0.11169233458E+03  0.24420057764E+03  0.40000696225E+03  0.12500000000E+03 0.  0.
         21    1    1    2  503  502 -0.24268568099E+03  0.53302888042E+02 -0.18671956904E+03  0.31080819663E+03  0.00000000000E+00 0.  1.
         21    1    1    2  504  501 -0.26147855090E+02  0.58389446536E+02  0.85087217591E+01  0.64540190104E+02  0.00000000000E+00 0.  1.
<mgrwt>
<rscale>  4 0.28376834E+03</rscale>
<asrwt>0</asrwt>
<pdfrwt beam="1">  1       21 0.64718852E-01 0.28376834E+03</pdfrwt>
<pdfrwt beam="2">  1       21 0.54566586E-01 0.28376834E+03</pdfrwt>
<totfact> 0.65922785E+03</totfact>
</mgrwt>
</event>
<event>
 5    0  0.1283376E+001  0.2915166E+03  0.7546771E-02  0.1089560E+00
         21   -1    0    0  504  501  0.00000000000E+00  0.00000000000E+00  0.29556617484E+03  0.29556617484E+03  0.00000000000E+00 0. -1.
         21   -1    0    0  501  502 -0.00000000000E+00 -0.00000000000E+00 -0.64507878181E+03  0.64507878181E+03  0.00000000000E+00 0. -1.
         25    1    1    2    0    0  0.12472993661E+03 -0.22766530687E+03  0.16583471650E+03  0.33243826831E+03  0.12500000000E+03 0.  0.
         21    1    1    2  503  502 -0.23681062217E+00 -0.27587043035E+02 -0.10911468419E+03  0.11254827999E+03  0.00000000000E+00 0.  1.
         21    1    1    2  504  503 -0.12449312599E+03  0.25525234990E+03 -0.40623263929E+03  0.49565840836E+03  0.00000000000E+00 0. -1.
<mgrwt>
<rscale>  4 0.29151661E+03</rscale>
<asrwt>0</asrwt>
<pdfrwt beam="1">  1       21 0.45471719E-01 0.29151661E+03</pdfrwt>
<pdfrwt beam="2">  1       21 0.99242890E-01 0.29151661E+03</pdfrwt>
<totfact> 0.36225789E+03</totfact>
</mgrwt>
</event>
<event>
 5    0  0.1283376E+001  0.2946905E+03  0.7546771E-02  0.1087925E+00
         21   -1    0    0  503  501  0.00000000000E+00  0.00000000000E+00  0.30920693378E+03  0.30920693378E+03  0.00000000000E+00 0.  1.
         21   -1    0    0  504  502 -0.00000000000E+00 -0.00000000000E+00 -0.66743552016E+03  0.66743552016E+03  0.00000000000E+00 0.  1.
         25    1    1    2    0    0 -0.10897081607E+03 -0.24104328223E+03  0.98839771382E+02  0.30882163634E+03  0.12500000000E+03 0.  0.
         21    1    1    2  503  502  0.21629898139E+02 -0.16097868917E+02 -0.38622235520E+03  0.38716237102E+03  0.00000000000E+00 0.  1.
         21    1    1    2  504  501  0.87340917933E+02  0.25714115115E+03 -0.70846002567E+02  0.28065844658E+03  0.00000000000E+00 0.  1.
<mgrwt>
<rscale>  4 0.29469051E+03</rscale>
<asrwt>0</asrwt>
<pdfrwt beam="1">  1       21 0.47570298E-01 0.29469051E+03</pdfrwt>
<pdfrwt beam="2">  1       21 0.10268239E+00 0.29469051E+03</pdfrwt>
<totfact> 0.30320869E+03</totfact>
</mgrwt>
</event>
<event>
 5    0  0.1283376E+001  0.2746872E+03  0.7546771E-02  0.1098627E+00
         21   -1    0    0  504  501  0.00000000000E+00  0.00000000000E+00  0.37615958654E+03  0.37615958654E+03  0.00000000000E+00 0. -1.
         21   -1    0    0  501  502 -0.00000000000E+00 -0.00000000000E+00 -0.22213207746E+03  0.22213207746E+03  0.00000000000E+00 0. -1.
         25    1    1    2    0    0  0.24363305652E+03  0.21701885812E+02  0.20934466023E+03  0.34536679754E+03  0.12500000000E+03 0.  0.
         21    1    1    2  503  502 -0.21498073765E+03 -0.29155152631E+02 -0.44950543390E+02  0.22155652064E+03  0.00000000000E+00 0. -1.
         21    1    1    2  504  503 -0.28652318874E+02  0.74532668190E+01 -0.10366607751E+02  0.31368345819E+02  0.00000000000E+00 0.  1.
<mgrwt>
<rscale>  4 0.27468716E+03</rscale>
<asrwt>0</asrwt>
<pdfrwt beam="1">  1       21 0.57870706E-01 0.27468716E+03</pdfrwt>
<pdfrwt beam="2">  1       21 0.34174166E-01 0.27468716E+03</pdfrwt>
<totfact> 0.22155844E+04</totfact>
</mgrwt>
</event>
<event>
 5    0  0.1283376E+001  0.3124070E+03  0.7546771E-02  0.1079198E+00
         21   -1    0    0  503  501  0.00000000000E+00  0.00000000000E+00  0.12326016903E+03  0.12326016903E+03  0.00000000000E+00 0.  1.
         21   -1    0    0  504  502 -0.00000000000E+00 -0.00000000000E+00 -0.14750095104E+04  0.14750095104E+04  0.00000000000E+00 0.  1.
         25    1    1    2    0    0  0.11867263377E+03 -0.26088336737E+03 -0.16265496039E+03  0.35245561637E+03  0.12500000000E+03 0.  0.
         21    1    1    2  503  502  0.67195579056E+02  0.34382880203E+02 -0.18392007699E+03  0.19880649641E+03  0.00000000000E+00 0.  1.
         21    1    1    2  504  501 -0.18586821283E+03  0.22650048716E+03 -0.10051743040E+04  0.10470075667E+04  0.00000000000E+00 0.  1.
<mgrwt>
<rscale>  4 0.31240703E+03</rscale>
<asrwt>0</asrwt>
<pdfrwt beam="1">  1       21 0.18963103E-01 0.31240703E+03</pdfrwt>
<pdfrwt beam="2">  1       21 0.22692453E+00 0.31240703E+03</pdfrwt>
<totfact> 0.21015233E+03</totfact>
</mgrwt>
</event>
<event>
 5    0  0.1283376E+001  0.3143878E+03  0.7546771E-02  0.1078262E+00
         21   -1    0    0  504  501  0.00000000000E+00  0.00000000000E+00  0.77955644658E+02  0.77955644658E+02  0.00000000000E+00 0. -1.
         21   -1    0    0  503  502 -0.00000000000E+00 -0.00000000000E+00 -0.13808373024E+04  0.13808373024E+04  0.00000000000E+00 0. -1.
         25    1    1    2    0    0  0.28448968067E+03  0.11288300899E+03 -0.60220037291E+03  0.68698416376E+03  0.12500000000E+03 0.  0.
         21    1    1    2  503  501 -0.25235070117E+03 -0.10552496566E+03 -0.51409200198E+03  0.58232892875E+03  0.00000000000E+00 0. -1.
         21    1    1    2  504  502 -0.32138979497E+02 -0.73580433273E+01 -0.18658928287E+03  0.18947985457E+03  0.00000000000E+00 0. -1.
<mgrwt>
<rscale>  4 0.31438780E+03</rscale>
<asrwt>0</asrwt>
<pdfrwt beam="1">  1       21 0.11993178E-01 0.31438780E+03</pdfrwt>
<pdfrwt beam="2">  1       21 0.21243648E+00 0.31438780E+03</pdfrwt>
<totfact> 0.60228445E+03</totfact>
</mgrwt>
</event>
<event>
 5    0  0.1283376E+001  0.2335564E+03  0.7546771E-02  0.1124161E+00
         21   -1    0    0  503  501  0.00000000000E+00  0.00000000000E+00  0.13174275507E+04  0.13174275507E+04  0.00000000000E+00 0. -1.
         21   -1    0    0  504  502 -0.00000000000E+00 -0.00000000000E+00 -0.14932779170E+03  0.14932779170E+03  0.00000000000E+00 0. -1.
         25    1    1    2    0    0  0.25360162491E+03  0.12250252315E+02  0.87738690371E+03  0.92189838467E+03  0.12500000000E+03 0.  0.
         21    1    1    2  503  502 -0.10285508936E+03 -0.70240729425E+02 -0.74773768463E+02  0.14527231645E+03  0.00000000000E+00 0. -1.
         21    1    1    2  504  501 -0.15074653555E+03  0.57990477110E+02  0.36548662379E+03  0.39958464133E+03  0.00000000000E+00 0. -1.
<mgrwt>
<rscale>  4 0.23355637E+03</rscale>
<asrwt>0</asrwt>
<pdfrwt beam="1">  1       21 0.20268115E+00 0.23355637E+03</pdfrwt>
<pdfrwt beam="2">  1       21 0.22973507E-01 0.23355637E+03</pdfrwt>
<totfact> 0.22074921E+03</totfact>
</mgrwt>
</event>
<event>
 5    0  0.1283376E+001  0.2796706E+03  0.7546771E-02  0.1095869E+00
         21   -1    0    0  503  501  0.00000000000E+00  0.00000000000E+00  0.50774404124E+03  0.50774404124E+03  0.00000000000E+00 0. -1.
         21   -1    0    0  504  502 -0.00000000000E+00 -0.00000000000E+00 -0.50905555702E+03  0.50905555702E+03  0.00000000000E+00 0. -1.
         25    1    1    2    0    0  0.51784435215E+02  0.23484946354E+03  0.22433550404E+03  0.35183421754E+03  0.12500000000E+03 0.  0.
         21    1    1    2  503  502  0.26781818209E+02  0.15804197115E+02 -0.36587945989E+03  0.36719860785E+03  0.00000000000E+00 0. -1.
         21    1    1    2  504  501 -0.78566253423E+02 -0.25065366066E+03  0.14023244007E+03  0.29776677287E+03  0.00000000000E+00 0. -1.
<mgrwt>
<rscale>  4 0.27967056E+03</rscale>
<asrwt>0</asrwt>
<pdfrwt beam="1">  1       21 0.78114468E-01 0.27967056E+03</pdfrwt>
<pdfrwt beam="2">  1       21 0.78316239E-01 0.27967056E+03</pdfrwt>
<totfact> 0.19596213E+03</totfact>
</mgrwt>
</event>
<event>
 5    0  0.1283376E+001  0.1803947E+03  0.7546771E-02  0.1167422E+00
         21   -1    0    0  504  501  0.00000000000E+00  0.00000000000E+00  0.15721623478E+04  0.15721623478E+04  0.00000000000E+00 0. -1.
         21   -1    0    0  503  502 -0.00000000000E+00 -0.00000000000E+00 -0.14138952656E+03  0.14138952656E+03  0.00000000000E+00 0.  1.
         25    1    1    2    0    0 -0.20969494588E+03  0.20345726312E+02  0.21251485421E+03  0.32430461324E+03  0.12500000000E+03 0.  0.
         21    1    1    2  503  501  0.12497712145E+03  0.14740266382E+02  0.12751443272E+04  0.12813389916E+04  0.00000000000E+00 0. -1.
         21    1    1    2  504  502  0.84717824428E+02 -0.35085992694E+02 -0.56886360126E+02  0.10790826951E+03  0.00000000000E+00 0.  1.
<mgrwt>
<rscale>  4 0.18039466E+03</rscale>
<asrwt>0</asrwt>
<pdfrwt beam="1">  1       21 0.24187112E+00 0.18039466E+03</pdfrwt>
<pdfrwt beam="2">  1       21 0.21752236E-01 0.18039466E+03</pdfrwt>
<totfact> 0.14862284E+03</totfact>
</mgrwt>
</event>
<event>
 5    0  0.1283376E+001  0.2567758E+03  0.7546771E-02  0.1109096E+00
         21   -1    0    0  504  501  0.00000000000E+00  0.00000000000E+00  0.26539977934E+03  0.26539977934E+03  0.00000000000E+00 0.  1.
         21   -1    0    0  501  502 -0.00000000000E+00 -0.00000000000E+00 -0.30195451564E+03  0.30195451564E+03  0.00000000000E+00 0.  1.
         25    1    1    2    0    0  0.35652498956E+02  0.20636806325E+03  0.10621109219E+03  0.26601630460E+03  0.12500000000E+03 0.  0.
         21    1    1    2  503  502 -0.18623962066E+02  0.22593181877E+02  0.29173777929E+01  0.29424733195E+02  0.00000000000E+00 0.  1.
         21    1    1    2  504  503 -0.17028536889E+02 -0.22896124513E+03 -0.14568320628E+03  0.27191325718E+03  0.00000000000E+00 0.  1.
<mgrwt>
<rscale>  4 0.25677580E+03</rscale>
<asrwt>0</asrwt>
<pdfrwt beam="1">  1       21 0.40830736E-01 0.25677580E+03</pdfrwt>
<pdfrwt beam="2">  1       21 0.46454541E-01 0.25677580E+03</pdfrwt>
<totfact> 0.24814782E+04</totfact>
</mgrwt>
</event>
<event>
 5    0  0.1283376E+001  0.3373333E+03  0.7546771E-02  0.1067937E+00
         21   -1    0    0  504  501  0.00000000000E+00  0.00000000000E+00  0.23576406778E+03  0.23576406778E+03  0.00000000000E+00 0.  1.
         21   -1    0    0  501  502 -0.00000000000E+00 -0.00000000000E+00 -0.53993320646E+03  0.53993320646E+03  0.00000000000E+00 0.  1.
         25    1    1    2    0    0 -0.20702715908E+03  0.23594477259E+03 -0.25728153012E+03  0.42467513001E+03  0.12500000000E+03 0.  0.
         21    1    1    2  503  502 -0.16707296142E+02 -0.16588365503E+02 -0.28763561099E+02  0.37170553689E+02  0.00000000000E+00 0.  1.
         21    1    1    2  504  503  0.22373445523E+03 -0.21935640709E+03 -0.18124047463E+02  0.31385159053E+03  0.00000000000E+00 0.  1.
<mgrwt>
<rscale>  4 0.33733334E+03</rscale>
<asrwt>0</asrwt>
<pdfrwt beam="1">  1       21 0.36271395E-01 0.33733334E+03</pdfrwt>
<pdfrwt beam="2">  1       21 0.83066647E-01 0.33733334E+03</pdfrwt>
<totfact> 0.85551584E+03</totfact>
</mgrwt>
</event>
<event>
 5    0  0.1283376E+001  0.2963220E+03  0.7546771E-02  0.1087094E+00
         21   -1    0    0  504  501  0.00000000000E+00  0.00000000000E+00  0.10854060485E+04  0.10854060485E+04  0.00000000000E+00 0. -1.
         21   -1    0    0  501  502 -0.00000000000E+00 -0.00000000000E+00 -0.12990802116E+03  0.12990802116E+03  0.00000000000E+00 0.  1.
         25    1    1    2    0    0  0.71511377633E+02  0.27155353985E+03  0.81558474849E+03  0.87158400864E+03  0.12500000000E+03 0.  0.
         21    1    1    2  503  502  0.13032137088E+02 -0.45161943627E+02 -0.22952639456E+02  0.52309286052E+02  0.00000000000E+00 0.  1.
         21    1    1    2  504  503 -0.84543514721E+02 -0.22639159623E+03  0.16286591826E+03  0.29142077492E+03  0.00000000000E+00 0.  1.
<mgrwt>
<rscale>  4 0.29632199E+03</rscale>
<asrwt>0</asrwt>
<pdfrwt beam="1">  1       21 0.16698554E+00 0.29632199E+03</pdfrwt>
<pdfrwt beam="2">  1       21 0.19985850E-01 0.29632199E+03</pdfrwt>
<totfact> 0.48120243E+03</totfact>
</mgrwt>
</event>
<event>
 5    0  0.1283376E+001  0.4668684E+03  0.7546771E-02  0.1022808E+00
         21   -1    0    0  504  501  0.00000000000E+00  0.00000000000E+00  0.47218992616E+03  0.47218992616E+03  0.00000000000E+00 0.  1.
         21   -1    0    0  501  502 -0.00000000000E+00 -0.00000000000E+00 -0.72939724822E+03  0.72939724822E+03  0.00000000000E+00 0.  1.
         25    1    1    2    0    0 -0.42421938309E+03  0.72040750657E+01 -0.99428611432E+02  0.45334868750E+03  0.12500000000E+03 0.  0.
         21    1    1    2  503  502 -0.19648844661E+02  0.21438004051E+03 -0.12972345038E+03  0.25134250027E+03  0.00000000000E+00 0.  1.
         21    1    1    2  504  503  0.44386822775E+03 -0.22158411558E+03 -0.28055260254E+02  0.49689598661E+03  0.00000000000E+00 0.  1.
<mgrwt>
<rscale>  4 0.46686844E+03</rscale>
<asrwt>0</asrwt>
<pdfrwt beam="1">  1       21 0.72644604E-01 0.46686844E+03</pdfrwt>
<pdfrwt beam="2">  1       21 0.11221496E+00 0.46686844E+03</pdfrwt>
<totfact> 0.89396884E+02</totfact>
</mgrwt>
</event>
<event>
 5    0  0.1283376E+001  0.2616517E+03  0.7546771E-02  0.1106155E+00
         21   -1    0    0  503  501  0.00000000000E+00  0.00000000000E+00  0.64960041304E+03  0.64960041304E+03  0.00000000000E+00 0.  1.
         21   -1    0    0  504  502 -0.00000000000E+00 -0.00000000000E+00 -0.36668088534E+03  0.36668088534E+03  0.00000000000E+00 0.  1.
         25    1    1    2    0    0 -0.11944281761E+03 -0.19699619633E+03  0.54781383412E+03  0.60728830460E+03  0.12500000000E+03 0.  0.
         21    1    1    2  503  502  0.66664393077E+02 -0.33319786046E+02 -0.76431416097E+02  0.10675256818E+03  0.00000000000E+00 0. -1.
         21    1    1    2  504  501  0.52778424537E+02  0.23031598238E+03 -0.18846289033E+03  0.30224042560E+03  0.00000000000E+00 0.  1.
<mgrwt>
<rscale>  4 0.26165166E+03</rscale>
<asrwt>0</asrwt>
<pdfrwt beam="1">  1       21 0.99938525E-01 0.26165166E+03</pdfrwt>
<pdfrwt beam="2">  1       21 0.56412444E-01 0.26165166E+03</pdfrwt>
<totfact> 0.23030240E+03</totfact>
</mgrwt>
</event>
<event>
 5    0  0.1283376E+001  0.4241897E+03  0.7546771E-02  0.1035711E+00
         21   -1    0    0  503  501  0.00000000000E+00  0.00000000000E+00  0.10204523730E+04  0.10204523730E+04  0.00000000000E+00 0. -1.
         21   -1    0    0  504  502 -0.00000000000E+00 -0.00000000000E+00 -0.45388206829E+03  0.45388206829E+03  0.00000000000E+00 0. -1.
         25    1    1    2    0    0 -0.14530616304E+03 -0.34519234086E+03  0.24314003223E+03  0.46369570677E+03  0.12500000000E+03 0.  0.
         21    1    1    2  503  502  0.19156093197E+03  0.37903953414E+03  0.59615219830E+03  0.73195901705E+03  0.00000000000E+00 0. -1.
         21    1    1    2  504  501 -0.46254768936E+02 -0.33847193282E+02 -0.27272192578E+03  0.27867971750E+03  0.00000000000E+00 0. -1.
<mgrwt>
<rscale>  4 0.42418967E+03</rscale>
<asrwt>0</asrwt>
<pdfrwt beam="1">  1       21 0.15699267E+00 0.42418967E+03</pdfrwt>
<pdfrwt beam="2">  1       21 0.69828011E-01 0.42418967E+03</pdfrwt>
<totfact> 0.41396859E+02</totfact>
</mgrwt>
</event>
<event>
 5    0  0.1283376E+001  0.2740735E+03  0.7546771E-02  0.1098971E+00
         21   -1    0    0  503  501  0.00000000000E+00  0.00000000000E+00  0.18477887014E+04  0.18477887014E+04  0.00000000000E+00 0. -1.
         21   -1    0    0  504  502 -0.00000000000E+00 -0.00000000000E+00 -0.15856768920E+03  0.15856768920E+03  0.00000000000E+00 0.  1.
         25    1    1    2    0    0 -0.29072680938E+03  0.86282229254E+02  0.87259045249E+03  0.93220480505E+03  0.12500000000E+03 0.  0.
         21    1    1    2  503  502  0.79974078920E+02 -0.29016770181E+02 -0.10032863962E+03  0.13154338516E+03  0.00000000000E+00 0.  1.
         21    1    1    2  504  501  0.21075273046E+03 -0.57265459072E+02  0.91695919931E+03  0.94260820036E+03  0.00000000000E+00 0. -1.
<mgrwt>
<rscale>  4 0.27407348E+03</rscale>
<asrwt>0</asrwt>
<pdfrwt beam="1">  1       21 0.28427517E+00 0.27407348E+03</pdfrwt>
<pdfrwt beam="2">  1       21 0.24395030E-01 0.27407348E+03</pdfrwt>
<totfact> 0.60771280E+02</totfact>
</mgrwt>
</event>
