<event>
 5    0  0.2213064E+000  0.2310647E+03  0.7546771E-02  0.1125893E+00
         21   -1    0    0  502  501  0.00000000000E+00  0.00000000000E+00  0.15156343637E+03  0.15156343637E+03  0.00000000000E+00 0.  1.
         21   -1    0    0  503  502 -0.00000000000E+00 -0.00000000000E+00 -0.11785131836E+04  0.11785131836E+04  0.00000000000E+00 0.  1.
         25    1    1    2    0    0 -0.12756891681E+03 -0.15895326334E+03  0.28907947873E+02  0.24083321597E+03  0.12500000000E+03 0.  0.
         21    1    1    2  503  504  0.41662814677E+01  0.10502488996E+03 -0.23530920194E+03  0.25771691045E+03  0.00000000000E+00 0.  1.
         21    1    1    2  504  501  0.12340263535E+03  0.53928373374E+02 -0.82054849316E+03  0.83152649356E+03  0.00000000000E+00 0.  1.
<mgrwt>
<rscale>  4 0.23106471E+03</rscale>
<asrwt>0</asrwt>
<pdfrwt beam="1">  1       21 0.23317452E-01 0.23106471E+03</pdfrwt>
<pdfrwt beam="2">  1       21 0.18130972E+00 0.23106471E+03</pdfrwt>
<totfact> 0.29787686E+03</totfact>
</mgrwt>
</event>
<event>
 5    0  0.2213064E+000  0.2706754E+03  0.7546771E-02  0.1100894E+00
         21   -1    0    0  502  501  0.00000000000E+00  0.00000000000E+00  0.52517946158E+03  0.52517946158E+03  0.00000000000E+00 0.  1.
         21   -1    0    0  503  502 -0.00000000000E+00 -0.00000000000E+00 -0.16832485868E+03  0.16832485868E+03  0.00000000000E+00 0.  1.
         25    1    1    2    0    0  0.17653689000E+03 -0.16271104840E+03  0.35569300848E+03  0.44697055282E+03  0.12500000000E+03 0.  0.
         21    1    1    2  503  504 -0.26574691081E+02  0.21953624363E+01 -0.29467366074E+01  0.26827543289E+02  0.00000000000E+00 0. -1.
         21    1    1    2  504  501 -0.14996219892E+03  0.16051568596E+03  0.41083310299E+01  0.21970622415E+03  0.00000000000E+00 0.  1.
<mgrwt>
<rscale>  4 0.27067538E+03</rscale>
<asrwt>0</asrwt>
<pdfrwt beam="1">  1       21 0.80796840E-01 0.27067538E+03</pdfrwt>
<pdfrwt beam="2">  1       21 0.25896132E-01 0.27067538E+03</pdfrwt>
<totfact> 0.18259107E+04</totfact>
</mgrwt>
</event>
<event>
 5    0  0.2213064E+000  0.2776548E+03  0.7546771E-02  0.1096977E+00
         21   -1    0    0  502  501  0.00000000000E+00  0.00000000000E+00  0.60234136219E+03  0.60234136219E+03  0.00000000000E+00 0. -1.
         21   -1    0    0  503  502 -0.00000000000E+00 -0.00000000000E+00 -0.43401152298E+03  0.43401152298E+03  0.00000000000E+00 0. -1.
         25    1    1    2    0    0  0.17150364327E+03 -0.19032610859E+03  0.51395453424E+03  0.58771744106E+03  0.12500000000E+03 0.  0.
         21    1    1    2  503  504 -0.10761469807E+03  0.13516744280E+03 -0.31419902760E+03  0.35856964426E+03  0.00000000000E+00 0. -1.
         21    1    1    2  504  501 -0.63888945194E+02  0.55158665782E+02 -0.31425667424E+02  0.90065799846E+02  0.00000000000E+00 0. -1.
<mgrwt>
<rscale>  4 0.27765480E+03</rscale>
<asrwt>0</asrwt>
<pdfrwt beam="1">  1       21 0.92667903E-01 0.27765480E+03</pdfrwt>
<pdfrwt beam="2">  1       21 0.66771003E-01 0.27765480E+03</pdfrwt>
<totfact> 0.18894091E+03</totfact>
</mgrwt>
</event>
<event>
 5    0  0.2213064E+000  0.3061228E+03  0.7546771E-02  0.1082219E+00
         21   -1    0    0  502  501  0.00000000000E+00  0.00000000000E+00  0.20966061578E+03  0.20966061578E+03  0.00000000000E+00 0. -1.
         21   -1    0    0  503  502 -0.00000000000E+00 -0.00000000000E+00 -0.49492252517E+03  0.49492252517E+03  0.00000000000E+00 0. -1.
         25    1    1    2    0    0  0.25713509487E+03 -0.10939701767E+03 -0.19607113889E+02  0.30675006667E+03  0.12500000000E+03 0.  0.
         21    1    1    2  503  504 -0.12681593945E+03  0.80811826867E+02 -0.19686108744E+03  0.24772388179E+03  0.00000000000E+00 0. -1.
         21    1    1    2  504  501 -0.13031915541E+03  0.28585190805E+02 -0.68793708064E+02  0.15010919249E+03  0.00000000000E+00 0. -1.
<mgrwt>
<rscale>  4 0.30612279E+03</rscale>
<asrwt>0</asrwt>
<pdfrwt beam="1">  1       21 0.32255479E-01 0.30612279E+03</pdfrwt>
<pdfrwt beam="2">  1       21 0.76141927E-01 0.30612279E+03</pdfrwt>
<totfact> 0.13382225E+04</totfact>
</mgrwt>
</event>
<event>
 5    0  0.2213064E+000  0.2499822E+03  0.7546771E-02  0.1113316E+00
         21   -1    0    0  502  501  0.00000000000E+00  0.00000000000E+00  0.13677939629E+03  0.13677939629E+03  0.00000000000E+00 0. -1.
         21   -1    0    0  503  502 -0.00000000000E+00 -0.00000000000E+00 -0.43469005285E+03  0.43469005285E+03  0.00000000000E+00 0. -1.
         25    1    1    2    0    0 -0.20972219671E+03  0.53690631444E+02 -0.94389181760E+02  0.26720853529E+03  0.12500000000E+03 0.  0.
         21    1    1    2  503  504  0.10085088487E+03 -0.37729161388E+01 -0.12665841552E+03  0.16194903549E+03  0.00000000000E+00 0. -1.
         21    1    1    2  504  501  0.10887131183E+03 -0.49917715305E+02 -0.76863059279E+02  0.14231187836E+03  0.00000000000E+00 0. -1.
<mgrwt>
<rscale>  4 0.24998217E+03</rscale>
<asrwt>0</asrwt>
<pdfrwt beam="1">  1       21 0.21042984E-01 0.24998217E+03</pdfrwt>
<pdfrwt beam="2">  1       21 0.66875392E-01 0.24998217E+03</pdfrwt>
<totfact> 0.41849824E+04</totfact>
</mgrwt>
</event>
<event>
 5    0  0.2213064E+000  0.3533095E+03  0.7546771E-02  0.1061265E+00
         21   -1    0    0  502  501  0.00000000000E+00  0.00000000000E+00  0.48108032939E+03  0.48108032939E+03  0.00000000000E+00 0.  1.
         21   -1    0    0  503  502 -0.00000000000E+00 -0.00000000000E+00 -0.37672481649E+03  0.37672481649E+03  0.00000000000E+00 0. -1.
         25    1    1    2    0    0 -0.13222926026E+03  0.32405262377E+03  0.25353227681E+03  0.44988698095E+03  0.12500000000E+03 0.  0.
         21    1    1    2  503  504  0.12920006639E+03 -0.29833238596E+03 -0.17678468552E+03  0.37006444668E+03  0.00000000000E+00 0. -1.
         21    1    1    2  504  501  0.30291938732E+01 -0.25720237819E+02  0.27607921613E+02  0.37853718243E+02  0.00000000000E+00 0.  1.
<mgrwt>
<rscale>  4 0.35330949E+03</rscale>
<asrwt>0</asrwt>
<pdfrwt beam="1">  1       21 0.74012358E-01 0.35330949E+03</pdfrwt>
<pdfrwt beam="2">  1       21 0.57957664E-01 0.35330949E+03</pdfrwt>
<totfact> 0.41550192E+03</totfact>
</mgrwt>
</event>
<event>
 5    0  0.2213064E+000  0.2477904E+03  0.7546771E-02  0.1114709E+00
         21   -1    0    0  502  501  0.00000000000E+00  0.00000000000E+00  0.40574265519E+03  0.40574265519E+03  0.00000000000E+00 0. -1.
         21   -1    0    0  503  502 -0.00000000000E+00 -0.00000000000E+00 -0.21451111366E+03  0.21451111366E+03  0.00000000000E+00 0. -1.
         25    1    1    2    0    0 -0.14209168966E+03 -0.16873044680E+03  0.26897273637E+03  0.36963677423E+03  0.12500000000E+03 0.  0.
         21    1    1    2  503  504 -0.31456380994E+01  0.33226350530E+02 -0.33148868161E+02  0.47039694610E+02  0.00000000000E+00 0. -1.
         21    1    1    2  504  501  0.14523732776E+03  0.13550409627E+03 -0.44592326687E+02  0.20357730001E+03  0.00000000000E+00 0. -1.
<mgrwt>
<rscale>  4 0.24779040E+03</rscale>
<asrwt>0</asrwt>
<pdfrwt beam="1">  1       21 0.62421947E-01 0.24779040E+03</pdfrwt>
<pdfrwt beam="2">  1       21 0.33001710E-01 0.24779040E+03</pdfrwt>
<totfact> 0.20408432E+04</totfact>
</mgrwt>
</event>
<event>
 5    0  0.2213064E+000  0.2415488E+03  0.7546771E-02  0.1118765E+00
         21   -1    0    0  502  501  0.00000000000E+00  0.00000000000E+00  0.22876460295E+03  0.22876460295E+03  0.00000000000E+00 0.  1.
         21   -1    0    0  503  502 -0.00000000000E+00 -0.00000000000E+00 -0.58758741425E+03  0.58758741425E+03  0.00000000000E+00 0.  1.
         25    1    1    2    0    0  0.12023086948E+03  0.16647370512E+03  0.11803084838E+03  0.26781567849E+03  0.12500000000E+03 0.  0.
         21    1    1    2  503  504  0.44172875740E+02 -0.22973995052E+02 -0.12441484967E+03  0.13400784387E+03  0.00000000000E+00 0.  1.
         21    1    1    2  504  501 -0.16440374522E+03 -0.14349971007E+03 -0.35243881001E+03  0.41452849484E+03  0.00000000000E+00 0.  1.
<mgrwt>
<rscale>  4 0.24154884E+03</rscale>
<asrwt>0</asrwt>
<pdfrwt beam="1">  1       21 0.35194554E-01 0.24154884E+03</pdfrwt>
<pdfrwt beam="2">  1       21 0.90398064E-01 0.24154884E+03</pdfrwt>
<totfact> 0.78322044E+03</totfact>
</mgrwt>
</event>
<event>
 5    0  0.2213064E+000  0.2866157E+03  0.7546771E-02  0.1092129E+00
         21   -1    0    0  502  501  0.00000000000E+00  0.00000000000E+00  0.21268323438E+03  0.21268323438E+03  0.00000000000E+00 0.  1.
         21   -1    0    0  503  502 -0.00000000000E+00 -0.00000000000E+00 -0.36055031586E+03  0.36055031586E+03  0.00000000000E+00 0.  1.
         25    1    1    2    0    0  0.38745886372E+01 -0.25789254910E+03 -0.11834988013E+03  0.31008913790E+03  0.12500000000E+03 0.  0.
         21    1    1    2  503  504 -0.14417419863E+02  0.38001340357E+02  0.23192703930E+01  0.40710476288E+02  0.00000000000E+00 0.  1.
         21    1    1    2  504  501  0.10542831226E+02  0.21989120874E+03 -0.31836471748E+02  0.22243393605E+03  0.00000000000E+00 0.  1.
<mgrwt>
<rscale>  4 0.28661573E+03</rscale>
<asrwt>0</asrwt>
<pdfrwt beam="1">  1       21 0.32720498E-01 0.28661573E+03</pdfrwt>
<pdfrwt beam="2">  1       21 0.55469279E-01 0.28661573E+03</pdfrwt>
<totfact> 0.26330379E+04</totfact>
</mgrwt>
</event>
<event>
 5    0  0.2213064E+000  0.2362700E+03  0.7546771E-02  0.1122303E+00
         21   -1    0    0  502  501  0.00000000000E+00  0.00000000000E+00  0.19588314871E+03  0.19588314871E+03  0.00000000000E+00 0. -1.
         21   -1    0    0  503  502 -0.00000000000E+00 -0.00000000000E+00 -0.29567559052E+03  0.29567559052E+03  0.00000000000E+00 0. -1.
         25    1    1    2    0    0  0.11536897263E+03 -0.16397714898E+03  0.40466783962E+02  0.23971037908E+03  0.12500000000E+03 0.  0.
         21    1    1    2  503  504 -0.11781112394E+02  0.64167583908E+02 -0.40397744293E+02  0.76734941049E+02  0.00000000000E+00 0. -1.
         21    1    1    2  504  501 -0.10358786023E+03  0.99809565076E+02 -0.99861481470E+02  0.17511341910E+03  0.00000000000E+00 0. -1.
<mgrwt>
<rscale>  4 0.23626998E+03</rscale>
<asrwt>0</asrwt>
<pdfrwt beam="1">  1       21 0.30135869E-01 0.23626998E+03</pdfrwt>
<pdfrwt beam="2">  1       21 0.45488552E-01 0.23626998E+03</pdfrwt>
<totfact> 0.47977468E+04</totfact>
</mgrwt>
</event>
<event>
 5    0  0.2213064E+000  0.2472496E+03  0.7546771E-02  0.1115055E+00
         21   -1    0    0  502  501  0.00000000000E+00  0.00000000000E+00  0.76575299370E+03  0.76575299370E+03  0.00000000000E+00 0.  1.
         21   -1    0    0  503  502 -0.00000000000E+00 -0.00000000000E+00 -0.23717666866E+03  0.23717666866E+03  0.00000000000E+00 0.  1.
         25    1    1    2    0    0  0.19931815057E+03  0.55618191341E+02  0.60988511244E+03  0.65605332004E+03  0.12500000000E+03 0.  0.
         21    1    1    2  503  504 -0.24965503638E+03 -0.28834898163E+02 -0.46761256276E+01  0.25135821986E+03  0.00000000000E+00 0.  1.
         21    1    1    2  504  501  0.50336885805E+02 -0.26783293178E+02 -0.76632661777E+02  0.95518122454E+02  0.00000000000E+00 0.  1.
<mgrwt>
<rscale>  4 0.24724964E+03</rscale>
<asrwt>0</asrwt>
<pdfrwt beam="1">  1       21 0.11780815E+00 0.24724964E+03</pdfrwt>
<pdfrwt beam="2">  1       21 0.36488719E-01 0.24724964E+03</pdfrwt>
<totfact> 0.38409514E+03</totfact>
</mgrwt>
</event>
<event>
 5    0  0.2213064E+000  0.2754492E+03  0.7546771E-02  0.1098201E+00
         21   -1    0    0  502  501  0.00000000000E+00  0.00000000000E+00  0.10587336321E+03  0.10587336321E+03  0.00000000000E+00 0. -1.
         21   -1    0    0  503  502 -0.00000000000E+00 -0.00000000000E+00 -0.70729419156E+03  0.70729419156E+03  0.00000000000E+00 0. -1.
         25    1    1    2    0    0 -0.19897346119E+03  0.14372472759E+03 -0.30702071251E+03  0.41247297304E+03  0.12500000000E+03 0.  0.
         21    1    1    2  503  504  0.64356091993E+02 -0.55820410330E+02 -0.28251547724E+02  0.89753967795E+02  0.00000000000E+00 0. -1.
         21    1    1    2  504  501  0.13461736919E+03 -0.87904317257E+02 -0.26614856812E+03  0.31094061393E+03  0.00000000000E+00 0. -1.
<mgrwt>
<rscale>  4 0.27544915E+03</rscale>
<asrwt>0</asrwt>
<pdfrwt beam="1">  1       21 0.16288210E-01 0.27544915E+03</pdfrwt>
<pdfrwt beam="2">  1       21 0.10881449E+00 0.27544915E+03</pdfrwt>
<totfact> 0.21647346E+04</totfact>
</mgrwt>
</event>
<event>
 5    0  0.2213064E+000  0.3000259E+03  0.7546771E-02  0.1085228E+00
         21   -1    0    0  502  501  0.00000000000E+00  0.00000000000E+00  0.14208957478E+03  0.14208957478E+03  0.00000000000E+00 0.  1.
         21   -1    0    0  503  502 -0.00000000000E+00 -0.00000000000E+00 -0.15445813715E+04  0.15445813715E+04  0.00000000000E+00 0. -1.
         25    1    1    2    0    0  0.21585787856E+03  0.16672108451E+03 -0.47224117005E+02  0.30371970793E+03  0.12500000000E+03 0.  0.
         21    1    1    2  503  504 -0.20046343836E+03 -0.14900067383E+03 -0.11821105150E+04  0.12082102717E+04  0.00000000000E+00 0. -1.
         21    1    1    2  504  501 -0.15394440194E+02 -0.17720410687E+02 -0.17315716471E+03  0.17474096668E+03  0.00000000000E+00 0.  1.
<mgrwt>
<rscale>  4 0.30002591E+03</rscale>
<asrwt>0</asrwt>
<pdfrwt beam="1">  1       21 0.21859936E-01 0.30002591E+03</pdfrwt>
<pdfrwt beam="2">  1       21 0.23762789E+00 0.30002591E+03</pdfrwt>
<totfact> 0.13918536E+03</totfact>
</mgrwt>
</event>
<event>
 5    0  0.2213064E+000  0.2609843E+03  0.7546771E-02  0.1106553E+00
         21   -1    0    0  502  501  0.00000000000E+00  0.00000000000E+00  0.10975989054E+03  0.10975989054E+03  0.00000000000E+00 0.  1.
         21   -1    0    0  503  502 -0.00000000000E+00 -0.00000000000E+00 -0.75462797657E+03  0.75462797657E+03  0.00000000000E+00 0.  1.
         25    1    1    2    0    0 -0.11116969419E+03 -0.21646977347E+03 -0.16104409000E+03  0.31745560738E+03  0.12500000000E+03 0.  0.
         21    1    1    2  503  504  0.11234441452E+03  0.19441415340E+03 -0.46998342907E+03  0.52086711752E+03  0.00000000000E+00 0.  1.
         21    1    1    2  504  501 -0.11747203242E+01  0.22055620075E+02 -0.13840566962E+02  0.26065142213E+02  0.00000000000E+00 0. -1.
<mgrwt>
<rscale>  4 0.26098430E+03</rscale>
<asrwt>0</asrwt>
<pdfrwt beam="1">  1       21 0.16886137E-01 0.26098430E+03</pdfrwt>
<pdfrwt beam="2">  1       21 0.11609661E+00 0.26098430E+03</pdfrwt>
<totfact> 0.17393779E+04</totfact>
</mgrwt>
</event>
<event>
 5    0  0.2213064E+000  0.2991785E+03  0.7546771E-02  0.1085652E+00
         21   -1    0    0  502  501  0.00000000000E+00  0.00000000000E+00  0.26119762753E+03  0.26119762753E+03  0.00000000000E+00 0.  1.
         21   -1    0    0  503  502 -0.00000000000E+00 -0.00000000000E+00 -0.35408208375E+03  0.35408208375E+03  0.00000000000E+00 0.  1.
         25    1    1    2    0    0 -0.43529129670E+02  0.26830580055E+03  0.47406525267E+02  0.30291115261E+03  0.12500000000E+03 0.  0.
         21    1    1    2  503  504  0.57674040057E+02 -0.24597104377E+03 -0.12610779607E+03  0.28236718205E+03  0.00000000000E+00 0.  1.
         21    1    1    2  504  501 -0.14144910387E+02 -0.22334756782E+02 -0.14183185410E+02  0.30001376614E+02  0.00000000000E+00 0. -1.
<mgrwt>
<rscale>  4 0.29917852E+03</rscale>
<asrwt>0</asrwt>
<pdfrwt beam="1">  1       21 0.40184250E-01 0.29917852E+03</pdfrwt>
<pdfrwt beam="2">  1       21 0.54474167E-01 0.29917852E+03</pdfrwt>
<totfact> 0.18003506E+04</totfact>
</mgrwt>
</event>
<event>
 5    0  0.2213064E+000  0.2690302E+03  0.7546771E-02  0.1101836E+00
         21   -1    0    0  502  501  0.00000000000E+00  0.00000000000E+00  0.12010853046E+03  0.12010853046E+03  0.00000000000E+00 0. -1.
         21   -1    0    0  503  502 -0.00000000000E+00 -0.00000000000E+00 -0.94545725080E+03  0.94545725080E+03  0.00000000000E+00 0.  1.
         25    1    1    2    0    0  0.24233737342E+03  0.16860122870E+03 -0.43553801058E+03  0.54080693000E+03  0.12500000000E+03 0.  0.
         21    1    1    2  503  504 -0.21234575389E+03 -0.44247124010E+02 -0.19482018663E+03  0.29155348102E+03  0.00000000000E+00 0.  1.
         21    1    1    2  504  501 -0.29991619534E+02 -0.12435410469E+03 -0.19499052313E+03  0.23320537023E+03  0.00000000000E+00 0.  1.
<mgrwt>
<rscale>  4 0.26903016E+03</rscale>
<asrwt>0</asrwt>
<pdfrwt beam="1">  1       21 0.18478235E-01 0.26903016E+03</pdfrwt>
<pdfrwt beam="2">  1       21 0.14545496E+00 0.26903016E+03</pdfrwt>
<totfact> 0.82328094E+03</totfact>
</mgrwt>
</event>
<event>
 5    0  0.2213064E+000  0.3815674E+03  0.7546771E-02  0.1050356E+00
         21   -1    0    0  502  501  0.00000000000E+00  0.00000000000E+00  0.48689692263E+03  0.48689692263E+03  0.00000000000E+00 0. -1.
         21   -1    0    0  503  502 -0.00000000000E+00 -0.00000000000E+00 -0.56049603859E+03  0.56049603859E+03  0.00000000000E+00 0. -1.
         25    1    1    2    0    0 -0.40158026941E+03 -0.64970593099E+02  0.23841009480E+03  0.48780350968E+03  0.12500000000E+03 0.  0.
         21    1    1    2  503  504  0.35146984014E+03  0.43191369544E+01 -0.32632589367E+03  0.47962307321E+03  0.00000000000E+00 0. -1.
         21    1    1    2  504  501  0.50110429271E+02  0.60651456145E+02  0.14316682909E+02  0.79966378333E+02  0.00000000000E+00 0. -1.
<mgrwt>
<rscale>  4 0.38156736E+03</rscale>
<asrwt>0</asrwt>
<pdfrwt beam="1">  1       21 0.74907219E-01 0.38156736E+03</pdfrwt>
<pdfrwt beam="2">  1       21 0.86230159E-01 0.38156736E+03</pdfrwt>
<totfact> 0.16346924E+03</totfact>
</mgrwt>
</event>
<event>
 5    0  0.2213064E+000  0.2398487E+03  0.7546771E-02  0.1119894E+00
         21   -1    0    0  502  501  0.00000000000E+00  0.00000000000E+00  0.10459417144E+04  0.10459417144E+04  0.00000000000E+00 0. -1.
         21   -1    0    0  503  502 -0.00000000000E+00 -0.00000000000E+00 -0.95304322047E+02  0.95304322047E+02  0.00000000000E+00 0.  1.
         25    1    1    2    0    0 -0.93443686009E+02  0.18212820294E+03  0.88052610680E+03  0.91260814675E+03  0.12500000000E+03 0.  0.
         21    1    1    2  503  504  0.80837424047E+02 -0.14941825825E+03  0.25320818776E+02  0.17176044041E+03  0.00000000000E+00 0.  1.
         21    1    1    2  504  501  0.12606261963E+02 -0.32709944692E+02  0.44790466743E+02  0.56877449253E+02  0.00000000000E+00 0.  1.
<mgrwt>
<rscale>  4 0.23984871E+03</rscale>
<asrwt>0</asrwt>
<pdfrwt beam="1">  1       21 0.16091410E+00 0.23984871E+03</pdfrwt>
<pdfrwt beam="2">  1       21 0.14662204E-01 0.23984871E+03</pdfrwt>
<totfact> 0.97973180E+03</totfact>
</mgrwt>
</event>
<event>
 5    0  0.2213064E+000  0.3502845E+03  0.7546771E-02  0.1062498E+00
         21   -1    0    0  502  501  0.00000000000E+00  0.00000000000E+00  0.60185792034E+03  0.60185792034E+03  0.00000000000E+00 0. -1.
         21   -1    0    0  503  502 -0.00000000000E+00 -0.00000000000E+00 -0.23784872385E+03  0.23784872385E+03  0.00000000000E+00 0. -1.
         25    1    1    2    0    0  0.41511516601E+02  0.33578039038E+03  0.29451097147E+03  0.46565372208E+03  0.12500000000E+03 0.  0.
         21    1    1    2  503  504  0.12171285736E+02 -0.27683472742E+02 -0.33176454111E+02  0.44890889576E+02  0.00000000000E+00 0. -1.
         21    1    1    2  504  501 -0.53682802337E+02 -0.30809691763E+03  0.10267467914E+03  0.32916203253E+03  0.00000000000E+00 0. -1.
<mgrwt>
<rscale>  4 0.35028454E+03</rscale>
<asrwt>0</asrwt>
<pdfrwt beam="1">  1       21 0.92593526E-01 0.35028454E+03</pdfrwt>
<pdfrwt beam="2">  1       21 0.36592112E-01 0.35028454E+03</pdfrwt>
<totfact> 0.64843104E+03</totfact>
</mgrwt>
</event>
<event>
 5    0  0.2213064E+000  0.2660476E+03  0.7546771E-02  0.1103563E+00
         21   -1    0    0  502  501  0.00000000000E+00  0.00000000000E+00  0.39082699310E+03  0.39082699310E+03  0.00000000000E+00 0. -1.
         21   -1    0    0  503  502 -0.00000000000E+00 -0.00000000000E+00 -0.43753973579E+03  0.43753973579E+03  0.00000000000E+00 0. -1.
         25    1    1    2    0    0  0.66250772424E+01 -0.28296899157E+03  0.21445857619E+03  0.37647419930E+03  0.12500000000E+03 0.  0.
         21    1    1    2  503  504 -0.76650572939E+02  0.64094930600E+02  0.52496458088E+01  0.10005513101E+03  0.00000000000E+00 0. -1.
         21    1    1    2  504  501  0.70025495697E+02  0.21887406097E+03 -0.26642096469E+03  0.35183739858E+03  0.00000000000E+00 0. -1.
<mgrwt>
<rscale>  4 0.26604758E+03</rscale>
<asrwt>0</asrwt>
<pdfrwt beam="1">  1       21 0.60127230E-01 0.26604758E+03</pdfrwt>
<pdfrwt beam="2">  1       21 0.67313805E-01 0.26604758E+03</pdfrwt>
<totfact> 0.49553558E+03</totfact>
</mgrwt>
</event>
<event>
 5    0  0.2213064E+000  0.3113941E+03  0.7546771E-02  0.1079680E+00
         21   -1    0    0  502  501  0.00000000000E+00  0.00000000000E+00  0.11493961390E+04  0.11493961390E+04  0.00000000000E+00 0.  1.
         21   -1    0    0  503  502 -0.00000000000E+00 -0.00000000000E+00 -0.14126077257E+03  0.14126077257E+03  0.00000000000E+00 0.  1.
         25    1    1    2    0    0 -0.24301683677E+03 -0.17255627914E+03  0.86043184414E+03  0.91913046453E+03  0.12500000000E+03 0.  0.
         21    1    1    2  503  504  0.34635513163E+01  0.78586528232E+02  0.89335981044E+01  0.79168477202E+02  0.00000000000E+00 0.  1.
         21    1    1    2  504  501  0.23955328545E+03  0.93969750908E+02  0.13876992416E+03  0.29235796981E+03  0.00000000000E+00 0.  1.
<mgrwt>
<rscale>  4 0.31139411E+03</rscale>
<asrwt>0</asrwt>
<pdfrwt beam="1">  1       21 0.17683017E+00 0.31139411E+03</pdfrwt>
<pdfrwt beam="2">  1       21 0.21732427E-01 0.31139411E+03</pdfrwt>
<totfact> 0.34633881E+03</totfact>
</mgrwt>
</event>
<event>
 5    0  0.2213064E+000  0.3343988E+03  0.7546771E-02  0.1069207E+00
         21   -1    0    0  502  501  0.00000000000E+00  0.00000000000E+00  0.66376558253E+03  0.66376558253E+03  0.00000000000E+00 0.  1.
         21   -1    0    0  503  502 -0.00000000000E+00 -0.00000000000E+00 -0.15883574191E+03  0.15883574191E+03  0.00000000000E+00 0.  1.
         25    1    1    2    0    0  0.20246679565E+02  0.30949579223E+03  0.27867703060E+03  0.43529698003E+03  0.12500000000E+03 0.  0.
         21    1    1    2  503  504 -0.34870723535E+02 -0.26922293614E+03  0.19722534731E+03  0.33555147791E+03  0.00000000000E+00 0.  1.
         21    1    1    2  504  501  0.14624043970E+02 -0.40272856093E+02  0.29027462701E+02  0.51752866498E+02  0.00000000000E+00 0.  1.
<mgrwt>
<rscale>  4 0.33439882E+03</rscale>
<asrwt>0</asrwt>
<pdfrwt beam="1">  1       21 0.10211778E+00 0.33439882E+03</pdfrwt>
<pdfrwt beam="2">  1       21 0.24436268E-01 0.33439882E+03</pdfrwt>
<totfact> 0.11460246E+04</totfact>
</mgrwt>
</event>
<event>
 5    0  0.2213064E+000  0.2709560E+03  0.7546771E-02  0.1100734E+00
         21   -1    0    0  502  501  0.00000000000E+00  0.00000000000E+00  0.66190861129E+03  0.66190861129E+03  0.00000000000E+00 0.  1.
         21   -1    0    0  503  502 -0.00000000000E+00 -0.00000000000E+00 -0.12894540052E+03  0.12894540052E+03  0.00000000000E+00 0.  1.
         25    1    1    2    0    0  0.18029755926E+03  0.15901240857E+03  0.46681926947E+03  0.53975678440E+03  0.12500000000E+03 0.  0.
         21    1    1    2  503  504 -0.15939332267E+03 -0.14512943491E+03  0.50097015134E+02  0.22131085629E+03  0.00000000000E+00 0.  1.
         21    1    1    2  504  501 -0.20904236599E+02 -0.13882973663E+02  0.16046926173E+02  0.29786371130E+02  0.00000000000E+00 0.  1.
<mgrwt>
<rscale>  4 0.27095600E+03</rscale>
<asrwt>0</asrwt>
<pdfrwt beam="1">  1       21 0.10183209E+00 0.27095600E+03</pdfrwt>
<pdfrwt beam="2">  1       21 0.19837754E-01 0.27095600E+03</pdfrwt>
<totfact> 0.17644463E+04</totfact>
</mgrwt>
</event>
<event>
 5    0  0.2213064E+000  0.2862694E+03  0.7546771E-02  0.1092313E+00
         21   -1    0    0  502  501  0.00000000000E+00  0.00000000000E+00  0.25519303297E+03  0.25519303297E+03  0.00000000000E+00 0.  1.
         21   -1    0    0  503  502 -0.00000000000E+00 -0.00000000000E+00 -0.46433819622E+03  0.46433819622E+03  0.00000000000E+00 0. -1.
         25    1    1    2    0    0  0.20163645119E+03  0.16982995166E+03  0.63636652297E+02  0.29862031821E+03  0.12500000000E+03 0.  0.
         21    1    1    2  503  504 -0.60565460659E+02  0.36295529187E+02 -0.54512885017E+02  0.89203111474E+02  0.00000000000E+00 0.  1.
         21    1    1    2  504  501 -0.14107099053E+03 -0.20612548085E+03 -0.21826893053E+03  0.33170779951E+03  0.00000000000E+00 0. -1.
<mgrwt>
<rscale>  4 0.28626935E+03</rscale>
<asrwt>0</asrwt>
<pdfrwt beam="1">  1       21 0.39260467E-01 0.28626935E+03</pdfrwt>
<pdfrwt beam="2">  1       21 0.71436645E-01 0.28626935E+03</pdfrwt>
<totfact> 0.10500228E+04</totfact>
</mgrwt>
</event>
<event>
 5    0  0.2213064E+000  0.2503996E+03  0.7546771E-02  0.1113053E+00
         21   -1    0    0  502  501  0.00000000000E+00  0.00000000000E+00  0.20100928753E+03  0.20100928753E+03  0.00000000000E+00 0. -1.
         21   -1    0    0  503  502 -0.00000000000E+00 -0.00000000000E+00 -0.27792013288E+03  0.27792013288E+03  0.00000000000E+00 0. -1.
         25    1    1    2    0    0  0.21641080162E+03  0.15534852937E+02 -0.33379581423E+02  0.25261465351E+03  0.12500000000E+03 0.  0.
         21    1    1    2  503  504 -0.13836843872E+03 -0.15485498328E+02 -0.50158383694E+02  0.14799151647E+03  0.00000000000E+00 0. -1.
         21    1    1    2  504  501 -0.78042362895E+02 -0.49354609248E-01  0.66271197703E+01  0.78323250434E+02  0.00000000000E+00 0. -1.
<mgrwt>
<rscale>  4 0.25039961E+03</rscale>
<asrwt>0</asrwt>
<pdfrwt beam="1">  1       21 0.30924506E-01 0.25039961E+03</pdfrwt>
<pdfrwt beam="2">  1       21 0.42756943E-01 0.25039961E+03</pdfrwt>
<totfact> 0.51513341E+04</totfact>
</mgrwt>
</event>
<event>
 5    0  0.2213064E+000  0.2877506E+03  0.7546771E-02  0.1091529E+00
         21   -1    0    0  502  501  0.00000000000E+00  0.00000000000E+00  0.13981157159E+04  0.13981157159E+04  0.00000000000E+00 0.  1.
         21   -1    0    0  503  502 -0.00000000000E+00 -0.00000000000E+00 -0.95594880235E+02  0.95594880235E+02  0.00000000000E+00 0. -1.
         25    1    1    2    0    0 -0.11871819332E+03  0.24131559511E+03  0.10975169557E+04  0.11368798063E+04  0.12500000000E+03 0.  0.
         21    1    1    2  503  504  0.67773278878E+02 -0.21801467095E+03  0.12842234658E+03  0.26194639371E+03  0.00000000000E+00 0. -1.
         21    1    1    2  504  501  0.50944914445E+02 -0.23300924161E+02  0.76581533348E+02  0.94884396106E+02  0.00000000000E+00 0. -1.
<mgrwt>
<rscale>  4 0.28775063E+03</rscale>
<asrwt>0</asrwt>
<pdfrwt beam="1">  1       21 0.21509471E+00 0.28775063E+03</pdfrwt>
<pdfrwt beam="2">  1       21 0.14706906E-01 0.28775063E+03</pdfrwt>
<totfact> 0.40604925E+03</totfact>
</mgrwt>
</event>
<event>
 5    0  0.2213064E+000  0.2534382E+03  0.7546771E-02  0.1111151E+00
         21   -1    0    0  502  501  0.00000000000E+00  0.00000000000E+00  0.72969214935E+02  0.72969214935E+02  0.00000000000E+00 0.  1.
         21   -1    0    0  503  502 -0.00000000000E+00 -0.00000000000E+00 -0.11922911919E+04  0.11922911919E+04  0.00000000000E+00 0.  1.
         25    1    1    2    0    0 -0.51433192628E+01 -0.23632020029E+03 -0.27134446456E+03  0.38095473385E+03  0.12500000000E+03 0.  0.
         21    1    1    2  503  504  0.25171597538E+02  0.21500664337E+03 -0.79320158737E+03  0.82221057171E+03  0.00000000000E+00 0.  1.
         21    1    1    2  504  501 -0.20028278275E+02  0.21313556918E+02 -0.54775925011E+02  0.62095101256E+02  0.00000000000E+00 0. -1.
<mgrwt>
<rscale>  4 0.25343819E+03</rscale>
<asrwt>0</asrwt>
<pdfrwt beam="1">  1       21 0.11226033E-01 0.25343819E+03</pdfrwt>
<pdfrwt beam="2">  1       21 0.18342942E+00 0.25343819E+03</pdfrwt>
<totfact> 0.10916367E+04</totfact>
</mgrwt>
</event>
<event>
 5    0  0.2213064E+000  0.2636725E+03  0.7546771E-02  0.1104957E+00
         21   -1    0    0  502  501  0.00000000000E+00  0.00000000000E+00  0.16630507394E+04  0.16630507394E+04  0.00000000000E+00 0.  1.
         21   -1    0    0  503  502 -0.00000000000E+00 -0.00000000000E+00 -0.91616363603E+02  0.91616363603E+02  0.00000000000E+00 0.  1.
         25    1    1    2    0    0 -0.19087615785E+03 -0.13215329685E+03  0.14783385395E+04  0.15016684184E+04  0.12500000000E+03 0.  0.
         21    1    1    2  503  504  0.16052795292E+02  0.18661855203E+02  0.21289547290E+02  0.32545382162E+02  0.00000000000E+00 0.  1.
         21    1    1    2  504  501  0.17482336256E+03  0.11349144164E+03  0.71806289056E+02  0.22045330247E+03  0.00000000000E+00 0.  1.
<mgrwt>
<rscale>  4 0.26367253E+03</rscale>
<asrwt>0</asrwt>
<pdfrwt beam="1">  1       21 0.25585394E+00 0.26367253E+03</pdfrwt>
<pdfrwt beam="2">  1       21 0.14094826E-01 0.26367253E+03</pdfrwt>
<totfact> 0.25182168E+03</totfact>
</mgrwt>
</event>
<event>
 5    0  0.2213064E+000  0.3211755E+03  0.7546771E-02  0.1075110E+00
         21   -1    0    0  502  501  0.00000000000E+00  0.00000000000E+00  0.82630791437E+03  0.82630791437E+03  0.00000000000E+00 0. -1.
         21   -1    0    0  503  502 -0.00000000000E+00 -0.00000000000E+00 -0.21192625218E+03  0.21192625218E+03  0.00000000000E+00 0. -1.
         25    1    1    2    0    0 -0.24755907397E+03  0.15414029273E+03  0.61646548254E+03  0.69332489939E+03  0.12500000000E+03 0.  0.
         21    1    1    2  503  504 -0.82686768657E+01  0.25511305923E+02 -0.17332764492E+02  0.31931527867E+02  0.00000000000E+00 0.  1.
         21    1    1    2  504  501  0.25582775083E+03 -0.17965159865E+03  0.15248944140E+02  0.31297773929E+03  0.00000000000E+00 0. -1.
<mgrwt>
<rscale>  4 0.32117552E+03</rscale>
<asrwt>0</asrwt>
<pdfrwt beam="1">  1       21 0.12712429E+00 0.32117552E+03</pdfrwt>
<pdfrwt beam="2">  1       21 0.32604039E-01 0.32117552E+03</pdfrwt>
<totfact> 0.38028420E+03</totfact>
</mgrwt>
</event>
<event>
 5    0  0.2213064E+000  0.3177916E+03  0.7546771E-02  0.1076670E+00
         21   -1    0    0  502  501  0.00000000000E+00  0.00000000000E+00  0.13326434129E+03  0.13326434129E+03  0.00000000000E+00 0.  1.
         21   -1    0    0  503  502 -0.00000000000E+00 -0.00000000000E+00 -0.71188433827E+03  0.71188433827E+03  0.00000000000E+00 0.  1.
         25    1    1    2    0    0  0.18205635722E+03  0.22852135710E+03 -0.34272089709E+03  0.46738543105E+03  0.12500000000E+03 0.  0.
         21    1    1    2  503  504 -0.19985334388E+02 -0.96318897468E+01 -0.23993314373E+02  0.32678219433E+02  0.00000000000E+00 0.  1.
         21    1    1    2  504  501 -0.16207102283E+03 -0.21888946735E+03 -0.21190578552E+03  0.34508502908E+03  0.00000000000E+00 0.  1.
<mgrwt>
<rscale>  4 0.31779164E+03</rscale>
<asrwt>0</asrwt>
<pdfrwt beam="1">  1       21 0.20502206E-01 0.31779164E+03</pdfrwt>
<pdfrwt beam="2">  1       21 0.10952067E+00 0.31779164E+03</pdfrwt>
<totfact> 0.13603757E+04</totfact>
</mgrwt>
</event>
<event>
 5    0  0.2213064E+000  0.2840757E+03  0.7546771E-02  0.1093483E+00
         21   -1    0    0  502  501  0.00000000000E+00  0.00000000000E+00  0.17801649898E+03  0.17801649898E+03  0.00000000000E+00 0.  1.
         21   -1    0    0  503  502 -0.00000000000E+00 -0.00000000000E+00 -0.65339637911E+03  0.65339637911E+03  0.00000000000E+00 0.  1.
         25    1    1    2    0    0  0.21309394027E+03  0.17744666432E+03 -0.41734186329E+03  0.51642577096E+03  0.12500000000E+03 0.  0.
         21    1    1    2  503  504 -0.18001768257E+03 -0.13168003361E+03 -0.10020357450E+03  0.24451329950E+03  0.00000000000E+00 0.  1.
         21    1    1    2  504  501 -0.33076257697E+02 -0.45766630709E+02  0.42165557649E+02  0.70473807627E+02  0.00000000000E+00 0.  1.
<mgrwt>
<rscale>  4 0.28407568E+03</rscale>
<asrwt>0</asrwt>
<pdfrwt beam="1">  1       21 0.27387154E-01 0.28407568E+03</pdfrwt>
<pdfrwt beam="2">  1       21 0.10052252E+00 0.28407568E+03</pdfrwt>
<totfact> 0.97624842E+03</totfact>
</mgrwt>
</event>
<event>
 5    0  0.2213064E+000  0.2922001E+03  0.7546771E-02  0.1089206E+00
         21   -1    0    0  502  501  0.00000000000E+00  0.00000000000E+00  0.44512636746E+03  0.44512636746E+03  0.00000000000E+00 0.  1.
         21   -1    0    0  503  502 -0.00000000000E+00 -0.00000000000E+00 -0.58920759537E+03  0.58920759537E+03  0.00000000000E+00 0.  1.
         25    1    1    2    0    0 -0.18093958693E+03  0.19239743680E+03  0.35983192064E+03  0.46352984684E+03  0.12500000000E+03 0.  0.
         21    1    1    2  503  504  0.30960963726E+02 -0.32656609849E+02 -0.12816851651E+03  0.13583889011E+03  0.00000000000E+00 0.  1.
         21    1    1    2  504  501  0.14997862320E+03 -0.15974082695E+03 -0.37574463204E+03  0.43496522588E+03  0.00000000000E+00 0.  1.
<mgrwt>
<rscale>  4 0.29220012E+03</rscale>
<asrwt>0</asrwt>
<pdfrwt beam="1">  1       21 0.68480980E-01 0.29220012E+03</pdfrwt>
<pdfrwt beam="2">  1       21 0.90647322E-01 0.29220012E+03</pdfrwt>
<totfact> 0.18646110E+03</totfact>
</mgrwt>
</event>
<event>
 5    0  0.2213064E+000  0.2537157E+03  0.7546771E-02  0.1110979E+00
         21   -1    0    0  502  501  0.00000000000E+00  0.00000000000E+00  0.15621987244E+04  0.15621987244E+04  0.00000000000E+00 0. -1.
         21   -1    0    0  503  502 -0.00000000000E+00 -0.00000000000E+00 -0.99215888133E+02  0.99215888133E+02  0.00000000000E+00 0. -1.
         25    1    1    2    0    0 -0.17103275179E+03 -0.14203521528E+03  0.13897707094E+04  0.14129804773E+04  0.12500000000E+03 0.  0.
         21    1    1    2  503  504  0.17627083635E+03  0.11674934953E+03  0.62447063680E+02  0.22045737485E+03  0.00000000000E+00 0. -1.
         21    1    1    2  504  501 -0.52380845572E+01  0.25285865757E+02  0.10765063228E+02  0.27976760413E+02  0.00000000000E+00 0. -1.
<mgrwt>
<rscale>  4 0.25371572E+03</rscale>
<asrwt>0</asrwt>
<pdfrwt beam="1">  1       21 0.24033825E+00 0.25371572E+03</pdfrwt>
<pdfrwt beam="2">  1       21 0.15263984E-01 0.25371572E+03</pdfrwt>
<totfact> 0.27181528E+03</totfact>
</mgrwt>
</event>
<event>
 5    0  0.2213064E+000  0.3267691E+03  0.7546771E-02  0.1072575E+00
         21   -1    0    0  502  501  0.00000000000E+00  0.00000000000E+00  0.22283595102E+03  0.22283595102E+03  0.00000000000E+00 0. -1.
         21   -1    0    0  503  502 -0.00000000000E+00 -0.00000000000E+00 -0.55397601123E+03  0.55397601123E+03  0.00000000000E+00 0.  1.
         25    1    1    2    0    0 -0.49432097578E+02  0.29784147261E+03 -0.12496540537E+02  0.32700801000E+03  0.12500000000E+03 0.  0.
         21    1    1    2  503  504 -0.19692725853E+02 -0.16706327031E+03 -0.14893098840E+03  0.22467393940E+03  0.00000000000E+00 0.  1.
         21    1    1    2  504  501  0.69124823431E+02 -0.13077820231E+03 -0.16971253127E+03  0.22513001285E+03  0.00000000000E+00 0.  1.
<mgrwt>
<rscale>  4 0.32676915E+03</rscale>
<asrwt>0</asrwt>
<pdfrwt beam="1">  1       21 0.34282455E-01 0.32676915E+03</pdfrwt>
<pdfrwt beam="2">  1       21 0.85227077E-01 0.32676915E+03</pdfrwt>
<totfact> 0.90701179E+03</totfact>
</mgrwt>
</event>
<event>
 5    0  0.2213064E+000  0.2456736E+03  0.7546771E-02  0.1116070E+00
         21   -1    0    0  502  501  0.00000000000E+00  0.00000000000E+00  0.10546616962E+04  0.10546616962E+04  0.00000000000E+00 0. -1.
         21   -1    0    0  503  502 -0.00000000000E+00 -0.00000000000E+00 -0.62140525925E+02  0.62140525925E+02  0.00000000000E+00 0. -1.
         25    1    1    2    0    0  0.20356953839E+03 -0.90244743607E+02  0.38702838757E+03  0.46368161867E+03  0.12500000000E+03 0.  0.
         21    1    1    2  503  504 -0.92814486051E+01  0.43996911646E+02  0.10251491519E+03  0.11194275930E+03  0.00000000000E+00 0. -1.
         21    1    1    2  504  501 -0.19428808979E+03  0.46247831960E+02  0.50297786749E+03  0.54117784413E+03  0.00000000000E+00 0. -1.
<mgrwt>
<rscale>  4 0.24567362E+03</rscale>
<asrwt>0</asrwt>
<pdfrwt beam="1">  1       21 0.16225563E+00 0.24567362E+03</pdfrwt>
<pdfrwt beam="2">  1       21 0.95600817E-02 0.24567362E+03</pdfrwt>
<totfact> 0.20589622E+04</totfact>
</mgrwt>
</event>
<event>
 5    0  0.2213064E+000  0.2489850E+03  0.7546771E-02  0.1113948E+00
         21   -1    0    0  502  501  0.00000000000E+00  0.00000000000E+00  0.31045490751E+03  0.31045490751E+03  0.00000000000E+00 0. -1.
         21   -1    0    0  503  502 -0.00000000000E+00 -0.00000000000E+00 -0.22777780365E+03  0.22777780365E+03  0.00000000000E+00 0. -1.
         25    1    1    2    0    0  0.14682408252E+03  0.16965751575E+03  0.12484346334E+03  0.28557288771E+03  0.12500000000E+03 0.  0.
         21    1    1    2  503  504 -0.15977516426E+03 -0.12731460078E+03 -0.28221686209E+02  0.20623669475E+03  0.00000000000E+00 0. -1.
         21    1    1    2  504  501  0.12951081749E+02 -0.42342914966E+02 -0.13944673265E+02  0.46423128705E+02  0.00000000000E+00 0. -1.
<mgrwt>
<rscale>  4 0.24898503E+03</rscale>
<asrwt>0</asrwt>
<pdfrwt beam="1">  1       21 0.47762294E-01 0.24898503E+03</pdfrwt>
<pdfrwt beam="2">  1       21 0.35042739E-01 0.24898503E+03</pdfrwt>
<totfact> 0.31996029E+04</totfact>
</mgrwt>
</event>
<event>
 5    0  0.2213064E+000  0.2391019E+03  0.7546771E-02  0.1120393E+00
         21   -1    0    0  502  501  0.00000000000E+00  0.00000000000E+00  0.99043774737E+03  0.99043774737E+03  0.00000000000E+00 0. -1.
         21   -1    0    0  503  502 -0.00000000000E+00 -0.00000000000E+00 -0.25112747206E+03  0.25112747206E+03  0.00000000000E+00 0.  1.
         25    1    1    2    0    0 -0.20517340180E+03 -0.18609586772E+02  0.92249157269E+03  0.95344540652E+03  0.12500000000E+03 0.  0.
         21    1    1    2  503  504  0.33843672581E+02 -0.41936268503E+01  0.28087096884E+01  0.34217970864E+02  0.00000000000E+00 0.  1.
         21    1    1    2  504  501  0.17132972922E+03  0.22803213622E+02 -0.18599000707E+03  0.25390184204E+03  0.00000000000E+00 0.  1.
<mgrwt>
<rscale>  4 0.23910195E+03</rscale>
<asrwt>0</asrwt>
<pdfrwt beam="1">  1       21 0.15237504E+00 0.23910195E+03</pdfrwt>
<pdfrwt beam="2">  1       21 0.38634996E-01 0.23910195E+03</pdfrwt>
<totfact> 0.17770942E+03</totfact>
</mgrwt>
</event>
<event>
 5    0  0.2213064E+000  0.2580775E+03  0.7546771E-02  0.1108304E+00
         21   -1    0    0  502  501  0.00000000000E+00  0.00000000000E+00  0.29453553235E+03  0.29453553235E+03  0.00000000000E+00 0.  1.
         21   -1    0    0  503  502 -0.00000000000E+00 -0.00000000000E+00 -0.10582383910E+04  0.10582383910E+04  0.00000000000E+00 0.  1.
         25    1    1    2    0    0  0.22914284930E+03 -0.32600548504E+02  0.21480390393E+03  0.33961000912E+03  0.12500000000E+03 0.  0.
         21    1    1    2  503  504 -0.58127388431E+02 -0.23499603147E+02 -0.46118520190E+03  0.46542756159E+03  0.00000000000E+00 0.  1.
         21    1    1    2  504  501 -0.17101546087E+03  0.56100151650E+02 -0.51732156071E+03  0.54773635268E+03  0.00000000000E+00 0.  1.
<mgrwt>
<rscale>  4 0.25807754E+03</rscale>
<asrwt>0</asrwt>
<pdfrwt beam="1">  1       21 0.45313160E-01 0.25807754E+03</pdfrwt>
<pdfrwt beam="2">  1       21 0.16280590E+00 0.25807754E+03</pdfrwt>
<totfact> 0.10559444E+03</totfact>
</mgrwt>
</event>
<event>
 5    0  0.2288975E+000  0.2899856E+03  0.7546771E-02  0.1090357E+00
         21   -1    0    0  502  501  0.00000000000E+00  0.00000000000E+00  0.11566204891E+04  0.11566204891E+04  0.00000000000E+00 0.  1.
         21   -1    0    0  503  502 -0.00000000000E+00 -0.00000000000E+00 -0.75342623161E+02  0.75342623161E+02  0.00000000000E+00 0.  1.
         25    1    1    2    0    0 -0.25370879949E+03 -0.64019655047E+02  0.34969163826E+03  0.45428615765E+03  0.12500000000E+03 0.  0.
         21    1    1    2  503  504  0.22057015277E+02  0.92208488168E+01  0.97273663445E+02  0.10016836614E+03  0.00000000000E+00 0. -1.
         21    1    1    2  504  501  0.23165178421E+03  0.54798806230E+02  0.63431256429E+03  0.67750858851E+03  0.00000000000E+00 0.  1.
<mgrwt>
<rscale>  4 0.28998564E+03</rscale>
<asrwt>0</asrwt>
<pdfrwt beam="1">  1       21 0.17794160E+00 0.28998564E+03</pdfrwt>
<pdfrwt beam="2">  1       21 0.11591174E-01 0.28998564E+03</pdfrwt>
<totfact> 0.11008576E+04</totfact>
</mgrwt>
</event>
<event>
 5    0  0.2213064E+000  0.3399446E+03  0.7546771E-02  0.1066820E+00
         21   -1    0    0  502  501  0.00000000000E+00  0.00000000000E+00  0.14982636821E+04  0.14982636821E+04  0.00000000000E+00 0.  1.
         21   -1    0    0  503  502 -0.00000000000E+00 -0.00000000000E+00 -0.72715151764E+02  0.72715151764E+02  0.00000000000E+00 0.  1.
         25    1    1    2    0    0 -0.26755553533E+03  0.16837872312E+03  0.80025275950E+03  0.86946353459E+03  0.12500000000E+03 0.  0.
         21    1    1    2  503  504  0.24862630907E+03 -0.15894900441E+03  0.56172742224E+03  0.63452149251E+03  0.00000000000E+00 0.  1.
         21    1    1    2  504  501  0.18929226268E+02 -0.94297187082E+01  0.63568348643E+02  0.66993806812E+02  0.00000000000E+00 0.  1.
<mgrwt>
<rscale>  4 0.33994464E+03</rscale>
<asrwt>0</asrwt>
<pdfrwt beam="1">  1       21 0.23050208E+00 0.33994464E+03</pdfrwt>
<pdfrwt beam="2">  1       21 0.11186948E-01 0.33994464E+03</pdfrwt>
<totfact> 0.51814160E+03</totfact>
</mgrwt>
</event>
<event>
 5    0  0.2213064E+000  0.2991142E+03  0.7546771E-02  0.1085684E+00
         21   -1    0    0  502  501  0.00000000000E+00  0.00000000000E+00  0.11490234201E+04  0.11490234201E+04  0.00000000000E+00 0. -1.
         21   -1    0    0  503  502 -0.00000000000E+00 -0.00000000000E+00 -0.75762409813E+02  0.75762409813E+02  0.00000000000E+00 0. -1.
         25    1    1    2    0    0 -0.99717108107E+02 -0.25278606247E+03  0.65971280402E+03  0.72435507785E+03  0.12500000000E+03 0.  0.
         21    1    1    2  503  504  0.34831998083E+02  0.37043099333E+02  0.42158862602E+02  0.66051714546E+02  0.00000000000E+00 0. -1.
         21    1    1    2  504  501  0.64885110023E+02  0.21574296314E+03  0.37138934371E+03  0.43437903755E+03  0.00000000000E+00 0. -1.
<mgrwt>
<rscale>  4 0.29911418E+03</rscale>
<asrwt>0</asrwt>
<pdfrwt beam="1">  1       21 0.17677282E+00 0.29911418E+03</pdfrwt>
<pdfrwt beam="2">  1       21 0.11655756E-01 0.29911418E+03</pdfrwt>
<totfact> 0.11053344E+04</totfact>
</mgrwt>
</event>
<event>
 5    0  0.2213064E+000  0.3102838E+03  0.7546771E-02  0.1080210E+00
         21   -1    0    0  502  501  0.00000000000E+00  0.00000000000E+00  0.30473712752E+03  0.30473712752E+03  0.00000000000E+00 0. -1.
         21   -1    0    0  503  502 -0.00000000000E+00 -0.00000000000E+00 -0.29728164004E+03  0.29728164004E+03  0.00000000000E+00 0. -1.
         25    1    1    2    0    0 -0.28077415778E+03 -0.42625126842E+02  0.44895716080E+02  0.31351499875E+03  0.12500000000E+03 0.  0.
         21    1    1    2  503  504  0.27874367612E+02  0.40424046072E+01  0.65642995567E+01  0.28920778576E+02  0.00000000000E+00 0. -1.
         21    1    1    2  504  501  0.25289979017E+03  0.38582722235E+02 -0.44004528153E+02  0.25958299024E+03  0.00000000000E+00 0. -1.
<mgrwt>
<rscale>  4 0.31028379E+03</rscale>
<asrwt>0</asrwt>
<pdfrwt beam="1">  1       21 0.46882635E-01 0.31028379E+03</pdfrwt>
<pdfrwt beam="2">  1       21 0.45735637E-01 0.31028379E+03</pdfrwt>
<totfact> 0.18844899E+04</totfact>
</mgrwt>
</event>
<event>
 5    0  0.2213064E+000  0.2494607E+03  0.7546771E-02  0.1113646E+00
         21   -1    0    0  502  501  0.00000000000E+00  0.00000000000E+00  0.63467101261E+02  0.63467101261E+02  0.00000000000E+00 0.  1.
         21   -1    0    0  503  502 -0.00000000000E+00 -0.00000000000E+00 -0.14116985629E+04  0.14116985629E+04  0.00000000000E+00 0.  1.
         25    1    1    2    0    0  0.18617259957E+03  0.10929497148E+03 -0.24228397812E+03  0.34775300671E+03  0.12500000000E+03 0.  0.
         21    1    1    2  503  504 -0.15667289694E+03 -0.10614442089E+03 -0.94853751674E+03  0.96723133499E+03  0.00000000000E+00 0.  1.
         21    1    1    2  504  501 -0.29499702631E+02 -0.31505505842E+01 -0.15740996678E+03  0.16018132246E+03  0.00000000000E+00 0.  1.
<mgrwt>
<rscale>  4 0.24946067E+03</rscale>
<asrwt>0</asrwt>
<pdfrwt beam="1">  1       21 0.97641706E-02 0.24946067E+03</pdfrwt>
<pdfrwt beam="2">  1       21 0.21718437E+00 0.24946067E+03</pdfrwt>
<totfact> 0.84647156E+03</totfact>
</mgrwt>
</event>
