<event>
 5    0  0.8532727E+000  0.2475616E+03  0.7546771E-02  0.1114856E+00
         21   -1    0    0  502  501  0.00000000000E+00  0.00000000000E+00  0.10628772545E+03  0.10628772545E+03  0.00000000000E+00 0. -1.
         21   -1    0    0  503  502 -0.00000000000E+00 -0.00000000000E+00 -0.12455139141E+04  0.12455139141E+04  0.00000000000E+00 0. -1.
         25    1    1    2    0    0 -0.93457460513E+02  0.19728145412E+03 -0.77098291705E+02  0.26310343146E+03  0.12500000000E+03 0.  0.
         21    1    1    2  503  504  0.67993607734E+02 -0.17383413016E+03 -0.10026864621E+04  0.10199125339E+04  0.00000000000E+00 0. -1.
         21    1    1    2  504  501  0.25463852779E+02 -0.23447323954E+02 -0.59441434789E+02  0.68785674154E+02  0.00000000000E+00 0.  1.
<mgrwt>
<rscale>  4 0.24756165E+03</rscale>
<asrwt>0</asrwt>
<pdfrwt beam="1">  1       21 0.16351957E-01 0.24756165E+03</pdfrwt>
<pdfrwt beam="2">  1       21 0.19161753E+00 0.24756165E+03</pdfrwt>
<totfact> 0.48744135E+03</totfact>
</mgrwt>
</event>
<event>
 5    0  0.1856407E+000  0.2742148E+03  0.7546771E-02  0.1098891E+00
         21   -1    0    0  502  501  0.00000000000E+00  0.00000000000E+00  0.37668844882E+03  0.37668844882E+03  0.00000000000E+00 0.  1.
         21   -1    0    0  503  502 -0.00000000000E+00 -0.00000000000E+00 -0.26960397899E+03  0.26960397899E+03  0.00000000000E+00 0.  1.
         25    1    1    2    0    0 -0.12621243546E+03 -0.23877827022E+03  0.28763018179E+02  0.29899323137E+03  0.12500000000E+03 0.  0.
         21    1    1    2  503  504  0.12309685710E+03  0.19636693847E+03  0.14120344070E+03  0.27138758707E+03  0.00000000000E+00 0.  1.
         21    1    1    2  504  501  0.31155783644E+01  0.42411331747E+02 -0.62881989046E+02  0.75911609359E+02  0.00000000000E+00 0. -1.
<mgrwt>
<rscale>  4 0.27421475E+03</rscale>
<asrwt>0</asrwt>
<pdfrwt beam="1">  1       21 0.57952069E-01 0.27421475E+03</pdfrwt>
<pdfrwt beam="2">  1       21 0.41477535E-01 0.27421475E+03</pdfrwt>
<totfact> 0.14937325E+04</totfact>
</mgrwt>
</event>
<event>
 5    0  0.3146182E+000  0.3539309E+03  0.7546771E-02  0.1061013E+00
         21   -1    0    0  502  501  0.00000000000E+00  0.00000000000E+00  0.98980650653E+03  0.98980650653E+03  0.00000000000E+00 0.  1.
         21   -1    0    0  503  502 -0.00000000000E+00 -0.00000000000E+00 -0.12262742994E+03  0.12262742994E+03  0.00000000000E+00 0.  1.
         25    1    1    2    0    0 -0.28003249408E+03 -0.17670290650E+03  0.50589977473E+03  0.61741533588E+03  0.12500000000E+03 0.  0.
         21    1    1    2  503  504  0.19682121591E+02  0.35829345596E+02  0.29713090669E+02  0.50537072267E+02  0.00000000000E+00 0.  1.
         21    1    1    2  504  501  0.26035037249E+03  0.14087356091E+03  0.33156621119E+03  0.44448152832E+03  0.00000000000E+00 0.  1.
<mgrwt>
<rscale>  4 0.35393095E+03</rscale>
<asrwt>0</asrwt>
<pdfrwt beam="1">  1       21 0.15227792E+00 0.35393095E+03</pdfrwt>
<pdfrwt beam="2">  1       21 0.18865759E-01 0.35393095E+03</pdfrwt>
<totfact> 0.67141141E+03</totfact>
</mgrwt>
</event>
<event>
 5    0  0.1856407E+000  0.3833669E+03  0.7546771E-02  0.1049696E+00
         21   -1    0    0  502  501  0.00000000000E+00  0.00000000000E+00  0.19824953690E+03  0.19824953690E+03  0.00000000000E+00 0.  1.
         21   -1    0    0  503  502 -0.00000000000E+00 -0.00000000000E+00 -0.11004497137E+04  0.11004497137E+04  0.00000000000E+00 0. -1.
         25    1    1    2    0    0  0.40168480311E+03  0.11597236609E+03 -0.28847457321E+03  0.52310883202E+03  0.12500000000E+03 0.  0.
         21    1    1    2  503  504 -0.85694227796E+02 -0.10668812605E+03 -0.30230627049E+03  0.33183570950E+03  0.00000000000E+00 0. -1.
         21    1    1    2  504  501 -0.31599057532E+03 -0.92842400356E+01 -0.31141933307E+03  0.44375470906E+03  0.00000000000E+00 0. -1.
<mgrwt>
<rscale>  4 0.38336688E+03</rscale>
<asrwt>0</asrwt>
<pdfrwt beam="1">  1       21 0.30499929E-01 0.38336688E+03</pdfrwt>
<pdfrwt beam="2">  1       21 0.16929996E+00 0.38336688E+03</pdfrwt>
<totfact> 0.19535336E+03</totfact>
</mgrwt>
</event>
<event>
 5    0  0.5085545E+000  0.2451231E+03  0.7546771E-02  0.1116426E+00
         21   -1    0    0  502  501  0.00000000000E+00  0.00000000000E+00  0.38020934124E+03  0.38020934124E+03  0.00000000000E+00 0. -1.
         21   -1    0    0  503  502 -0.00000000000E+00 -0.00000000000E+00 -0.22040442103E+03  0.22040442103E+03  0.00000000000E+00 0. -1.
         25    1    1    2    0    0  0.13653219783E+03  0.14828694615E+03  0.23674402906E+03  0.33511609143E+03  0.12500000000E+03 0.  0.
         21    1    1    2  503  504 -0.12021801474E+03 -0.17657706898E+03 -0.87980323395E+02  0.23102460834E+03  0.00000000000E+00 0. -1.
         21    1    1    2  504  501 -0.16314183092E+02  0.28290122830E+02  0.11041214549E+02  0.34473062503E+02  0.00000000000E+00 0.  1.
<mgrwt>
<rscale>  4 0.24512311E+03</rscale>
<asrwt>0</asrwt>
<pdfrwt beam="1">  1       21 0.58493745E-01 0.24512311E+03</pdfrwt>
<pdfrwt beam="2">  1       21 0.33908372E-01 0.24512311E+03</pdfrwt>
<totfact> 0.22287476E+04</totfact>
</mgrwt>
</event>
<event>
 5    0  0.1856407E+000  0.2609671E+03  0.7546771E-02  0.1106564E+00
         21   -1    0    0  502  501  0.00000000000E+00  0.00000000000E+00  0.15466170006E+03  0.15466170006E+03  0.00000000000E+00 0.  1.
         21   -1    0    0  503  502 -0.00000000000E+00 -0.00000000000E+00 -0.11342238661E+04  0.11342238661E+04  0.00000000000E+00 0. -1.
         25    1    1    2    0    0 -0.15943540724E+03 -0.17094726615E+03  0.11936746067E+02  0.26534902071E+03  0.12500000000E+03 0.  0.
         21    1    1    2  503  504 -0.33446114865E+01  0.48495600110E+02 -0.24309776812E+03  0.24791033565E+03  0.00000000000E+00 0. -1.
         21    1    1    2  504  501  0.16278001873E+03  0.12245166604E+03 -0.74840114396E+03  0.77562620978E+03  0.00000000000E+00 0. -1.
<mgrwt>
<rscale>  4 0.26096707E+03</rscale>
<asrwt>0</asrwt>
<pdfrwt beam="1">  1       21 0.23794109E-01 0.26096707E+03</pdfrwt>
<pdfrwt beam="2">  1       21 0.17449597E+00 0.26096707E+03</pdfrwt>
<totfact> 0.31239002E+03</totfact>
</mgrwt>
</event>
<event>
 5    0  0.1856407E+000  0.2500603E+03  0.7546771E-02  0.1113267E+00
         21   -1    0    0  502  501  0.00000000000E+00  0.00000000000E+00  0.36176313830E+03  0.36176313830E+03  0.00000000000E+00 0. -1.
         21   -1    0    0  503  502 -0.00000000000E+00 -0.00000000000E+00 -0.39678018913E+03  0.39678018913E+03  0.00000000000E+00 0. -1.
         25    1    1    2    0    0 -0.18994523072E+03 -0.10404791245E+03  0.27022686110E+03  0.36817484328E+03  0.12500000000E+03 0.  0.
         21    1    1    2  503  504  0.71403835693E+02  0.97097892715E+02 -0.18925864180E+03  0.22437767718E+03  0.00000000000E+00 0. -1.
         21    1    1    2  504  501  0.11854139503E+03  0.69500197352E+01 -0.11598527013E+03  0.16599080697E+03  0.00000000000E+00 0. -1.
<mgrwt>
<rscale>  4 0.25006031E+03</rscale>
<asrwt>0</asrwt>
<pdfrwt beam="1">  1       21 0.55655868E-01 0.25006031E+03</pdfrwt>
<pdfrwt beam="2">  1       21 0.61043106E-01 0.25006031E+03</pdfrwt>
<totfact> 0.73137163E+03</totfact>
</mgrwt>
</event>
<event>
 5    0  0.1856407E+000  0.3204628E+03  0.7546771E-02  0.1075436E+00
         21   -1    0    0  502  501  0.00000000000E+00  0.00000000000E+00  0.26981873817E+03  0.26981873817E+03  0.00000000000E+00 0.  1.
         21   -1    0    0  503  502 -0.00000000000E+00 -0.00000000000E+00 -0.61523737527E+03  0.61523737527E+03  0.00000000000E+00 0. -1.
         25    1    1    2    0    0 -0.29324768389E+03  0.66972789373E+02  0.95058706325E+02  0.33932391055E+03  0.12500000000E+03 0.  0.
         21    1    1    2  503  504  0.27613889279E+03 -0.25643956057E+02 -0.37384994706E+03  0.46548263503E+03  0.00000000000E+00 0. -1.
         21    1    1    2  504  501  0.17108791096E+02 -0.41328833317E+02 -0.66627396363E+02  0.80249567863E+02  0.00000000000E+00 0. -1.
<mgrwt>
<rscale>  4 0.32046282E+03</rscale>
<asrwt>0</asrwt>
<pdfrwt beam="1">  1       21 0.41510576E-01 0.32046282E+03</pdfrwt>
<pdfrwt beam="2">  1       21 0.94651903E-01 0.32046282E+03</pdfrwt>
<totfact> 0.48232245E+03</totfact>
</mgrwt>
</event>
<event>
 5    0  0.1856407E+000  0.2515055E+03  0.7546771E-02  0.1112357E+00
         21   -1    0    0  502  501  0.00000000000E+00  0.00000000000E+00  0.41110889749E+03  0.41110889749E+03  0.00000000000E+00 0. -1.
         21   -1    0    0  503  502 -0.00000000000E+00 -0.00000000000E+00 -0.16780474072E+03  0.16780474072E+03  0.00000000000E+00 0.  1.
         25    1    1    2    0    0 -0.12944253697E+03 -0.17571184926E+03  0.21813269966E+03  0.33292176109E+03  0.12500000000E+03 0.  0.
         21    1    1    2  503  504  0.10668355875E+03  0.63509095928E+02  0.40245189452E+02  0.13051613788E+03  0.00000000000E+00 0.  1.
         21    1    1    2  504  501  0.22758978220E+02  0.11220275333E+03 -0.15073732340E+02  0.11547573923E+03  0.00000000000E+00 0.  1.
<mgrwt>
<rscale>  4 0.25150552E+03</rscale>
<asrwt>0</asrwt>
<pdfrwt beam="1">  1       21 0.63247523E-01 0.25150552E+03</pdfrwt>
<pdfrwt beam="2">  1       21 0.25816114E-01 0.25150552E+03</pdfrwt>
<totfact> 0.31998540E+04</totfact>
</mgrwt>
</event>
<event>
 5    0  0.3650000E+000  0.2701014E+03  0.7546771E-02  0.1101222E+00
         21   -1    0    0  502  501  0.00000000000E+00  0.00000000000E+00  0.14096559697E+04  0.14096559697E+04  0.00000000000E+00 0.  1.
         21   -1    0    0  503  502 -0.00000000000E+00 -0.00000000000E+00 -0.55932520385E+02  0.55932520385E+02  0.00000000000E+00 0.  1.
         25    1    1    2    0    0  0.11859494272E+03  0.20800247680E+03  0.99537224108E+03  0.10313683576E+04  0.12500000000E+03 0.  0.
         21    1    1    2  503  504 -0.38971054079E+02 -0.39340655677E+02  0.11478798919E+03  0.12744690152E+03  0.00000000000E+00 0. -1.
         21    1    1    2  504  501 -0.79623888638E+02 -0.16866182113E+03  0.24356321903E+03  0.30677323092E+03  0.00000000000E+00 0.  1.
<mgrwt>
<rscale>  4 0.27010145E+03</rscale>
<asrwt>0</asrwt>
<pdfrwt beam="1">  1       21 0.21687012E+00 0.27010145E+03</pdfrwt>
<pdfrwt beam="2">  1       21 0.86050042E-02 0.27010145E+03</pdfrwt>
<totfact> 0.10485908E+04</totfact>
</mgrwt>
</event>
<event>
 5    0  0.1856407E+000  0.3474343E+03  0.7546771E-02  0.1063673E+00
         21   -1    0    0  502  501  0.00000000000E+00  0.00000000000E+00  0.19360400943E+04  0.19360400943E+04  0.00000000000E+00 0. -1.
         21   -1    0    0  503  502 -0.00000000000E+00 -0.00000000000E+00 -0.26456342333E+03  0.26456342333E+03  0.00000000000E+00 0.  1.
         25    1    1    2    0    0  0.54119541879E+02 -0.33641734562E+03  0.14194537961E+04  0.14651210307E+04  0.12500000000E+03 0.  0.
         21    1    1    2  503  504 -0.11859627844E+03  0.18436423566E+02  0.37097916241E+03  0.38991091023E+03  0.00000000000E+00 0.  1.
         21    1    1    2  504  501  0.64476736563E+02  0.31798092206E+03 -0.11895628748E+03  0.34557157679E+03  0.00000000000E+00 0.  1.
<mgrwt>
<rscale>  4 0.34743433E+03</rscale>
<asrwt>0</asrwt>
<pdfrwt beam="1">  1       21 0.29785231E+00 0.34743433E+03</pdfrwt>
<pdfrwt beam="2">  1       21 0.40702066E-01 0.34743433E+03</pdfrwt>
<totfact> 0.17151077E+02</totfact>
</mgrwt>
</event>
<event>
 5    0  0.1892877E+000  0.2945725E+03  0.7546771E-02  0.1087986E+00
         21   -1    0    0  502  501  0.00000000000E+00  0.00000000000E+00  0.69276237283E+03  0.69276237283E+03  0.00000000000E+00 0. -1.
         21   -1    0    0  503  502 -0.00000000000E+00 -0.00000000000E+00 -0.17431418213E+03  0.17431418213E+03  0.00000000000E+00 0. -1.
         25    1    1    2    0    0 -0.10961833675E+03 -0.24317021635E+03  0.50192470097E+03  0.58198053173E+03  0.12500000000E+03 0.  0.
         21    1    1    2  503  504  0.35093893699E+02  0.17142628713E+03  0.38909694946E+02  0.17925545363E+03  0.00000000000E+00 0. -1.
         21    1    1    2  504  501  0.74524443047E+02  0.71743929214E+02 -0.22386205216E+02  0.10584056961E+03  0.00000000000E+00 0. -1.
<mgrwt>
<rscale>  4 0.29457246E+03</rscale>
<asrwt>0</asrwt>
<pdfrwt beam="1">  1       21 0.10657882E+00 0.29457246E+03</pdfrwt>
<pdfrwt beam="2">  1       21 0.26817567E-01 0.29457246E+03</pdfrwt>
<totfact> 0.87803626E+03</totfact>
</mgrwt>
</event>
<event>
 5    0  0.1856407E+000  0.2802669E+03  0.7546771E-02  0.1095543E+00
         21   -1    0    0  502  501  0.00000000000E+00  0.00000000000E+00  0.40335911528E+03  0.40335911528E+03  0.00000000000E+00 0.  1.
         21   -1    0    0  503  502 -0.00000000000E+00 -0.00000000000E+00 -0.29434148891E+03  0.29434148891E+03  0.00000000000E+00 0.  1.
         25    1    1    2    0    0 -0.24302894449E+03  0.13252518057E+02  0.22424495249E+03  0.35376474642E+03  0.12500000000E+03 0.  0.
         21    1    1    2  503  504 -0.28417631780E+02 -0.28756130012E+02 -0.50059299489E+02  0.64346019882E+02  0.00000000000E+00 0.  1.
         21    1    1    2  504  501  0.27144657627E+03  0.15503611955E+02 -0.65168026630E+02  0.27958983788E+03  0.00000000000E+00 0.  1.
<mgrwt>
<rscale>  4 0.28026686E+03</rscale>
<asrwt>0</asrwt>
<pdfrwt beam="1">  1       21 0.62055248E-01 0.28026686E+03</pdfrwt>
<pdfrwt beam="2">  1       21 0.45283306E-01 0.28026686E+03</pdfrwt>
<totfact> 0.10716803E+04</totfact>
</mgrwt>
</event>
<event>
 5    0  0.1856407E+000  0.2439018E+03  0.7546771E-02  0.1117221E+00
         21   -1    0    0  502  501  0.00000000000E+00  0.00000000000E+00  0.51079909204E+03  0.51079909204E+03  0.00000000000E+00 0. -1.
         21   -1    0    0  503  502 -0.00000000000E+00 -0.00000000000E+00 -0.15610756210E+03  0.15610756210E+03  0.00000000000E+00 0. -1.
         25    1    1    2    0    0  0.20903132497E+03  0.13000237311E+02  0.37981205069E+03  0.45138154020E+03  0.12500000000E+03 0.  0.
         21    1    1    2  503  504 -0.70358306530E+02 -0.25421587334E+02 -0.10107805267E+02  0.75489841222E+02  0.00000000000E+00 0. -1.
         21    1    1    2  504  501 -0.13867301844E+03  0.12421350023E+02 -0.15012715480E+02  0.14003527272E+03  0.00000000000E+00 0. -1.
<mgrwt>
<rscale>  4 0.24390183E+03</rscale>
<asrwt>0</asrwt>
<pdfrwt beam="1">  1       21 0.78584475E-01 0.24390183E+03</pdfrwt>
<pdfrwt beam="2">  1       21 0.24016548E-01 0.24390183E+03</pdfrwt>
<totfact> 0.22766460E+04</totfact>
</mgrwt>
</event>
