<event>
 5    0  0.2947253E-001  0.4009960E+03  0.7546771E-02  0.1044478E+00
          2   -1    0    0  502    0 -0.00000000000E+00  0.00000000000E+00  0.52194119509E+03  0.52194119509E+03  0.00000000000E+00 0.  1.
         21   -1    0    0  503  502  0.00000000000E+00 -0.00000000000E+00 -0.55400344143E+03  0.55400344143E+03  0.00000000000E+00 0.  1.
         25    1    1    2    0    0 -0.18730051156E+03  0.31732955287E+03 -0.38085764069E+03  0.54447871329E+03  0.12500000000E+03 0.  0.
         21    1    1    2  503  501  0.12374425924E+03 -0.10870957338E+03  0.23067496824E+03  0.28344550448E+03  0.00000000000E+00 0.  1.
          2    1    1    2  501    0  0.63556252324E+02 -0.20861997949E+03  0.11812042612E+03  0.24802041875E+03  0.00000000000E+00 0.  1.
<mgrwt>
<rscale>  4 0.39799022E+03</rscale>
<asrwt>0</asrwt>
<pdfrwt beam="1">  1       21 0.85231298E-01 0.40099601E+03</pdfrwt>
<pdfrwt beam="2">  1        2 0.80298646E-01 0.40099601E+03</pdfrwt>
<totfact> 0.81565791E+02</totfact>
</mgrwt>
</event>
<event>
 5    0  0.2947253E-001  0.2670815E+03  0.7546771E-02  0.1102962E+00
         21   -1    0    0  503  502  0.00000000000E+00  0.00000000000E+00  0.35781391952E+03  0.35781391952E+03  0.00000000000E+00 0. -1.
          2   -1    0    0  502    0 -0.00000000000E+00 -0.00000000000E+00 -0.27611678284E+03  0.27611678284E+03  0.00000000000E+00 0. -1.
         25    1    1    2    0    0  0.16742941144E+03  0.16635787369E+03  0.22817150228E+03  0.35127593770E+03  0.12500000000E+03 0.  0.
         21    1    1    2  503  501 -0.72686888289E+02 -0.73491410219E+02 -0.34259392312E+02  0.10889479816E+03  0.00000000000E+00 0. -1.
          2    1    1    2  501    0 -0.94742523151E+02 -0.92866463467E+02 -0.11221497329E+03  0.17375996651E+03  0.00000000000E+00 0. -1.
<mgrwt>
<rscale>  4 0.26708154E+03</rscale>
<asrwt>0</asrwt>
<pdfrwt beam="1">  1       21 0.55048295E-01 0.26708154E+03</pdfrwt>
<pdfrwt beam="2">  1        2 0.42479505E-01 0.26708154E+03</pdfrwt>
<totfact> 0.45184548E+03</totfact>
</mgrwt>
</event>
<event>
 5    0  0.2947253E-001  0.3553775E+03  0.7546771E-02  0.1060429E+00
          2   -1    0    0  502    0 -0.00000000000E+00  0.00000000000E+00  0.96760617365E+03  0.96760617365E+03  0.00000000000E+00 0. -1.
         21   -1    0    0  503  502  0.00000000000E+00 -0.00000000000E+00 -0.16167946336E+03  0.16167946336E+03  0.00000000000E+00 0. -1.
         25    1    1    2    0    0  0.34343300753E+03 -0.91276674016E+02  0.25965073972E+03  0.45751630410E+03  0.12500000000E+03 0.  0.
         21    1    1    2  503  501 -0.31172300119E+02  0.10106761771E+02 -0.48726500351E+01  0.33130071635E+02  0.00000000000E+00 0.  1.
          2    1    1    2  501    0 -0.31226070741E+03  0.81169912245E+02  0.55114862061E+03  0.63863926128E+03  0.00000000000E+00 0. -1.
<mgrwt>
<rscale>  4 0.35537747E+03</rscale>
<asrwt>0</asrwt>
<pdfrwt beam="1">  1       21 0.24873764E-01 0.35537747E+03</pdfrwt>
<pdfrwt beam="2">  1        2 0.14886249E+00 0.35537747E+03</pdfrwt>
<totfact> 0.50976595E+03</totfact>
</mgrwt>
</event>
<event>
 5    0  0.2947253E-001  0.3175300E+03  0.7546771E-02  0.1076792E+00
         21   -1    0    0  503  502  0.00000000000E+00  0.00000000000E+00  0.21845101840E+03  0.21845101840E+03  0.00000000000E+00 0. -1.
          2   -1    0    0  502    0 -0.00000000000E+00 -0.00000000000E+00 -0.10696377772E+04  0.10696377772E+04  0.00000000000E+00 0. -1.
         25    1    1    2    0    0 -0.25423524302E+03  0.14340407491E+03  0.64265175913E+02  0.32396805449E+03  0.12500000000E+03 0.  0.
         21    1    1    2  503  501  0.45563154702E+02 -0.40256130120E+02 -0.10972725551E+03  0.12544571607E+03  0.00000000000E+00 0. -1.
          2    1    1    2  501    0  0.20867208832E+03 -0.10314794479E+03 -0.80572467918E+03  0.83867502503E+03  0.00000000000E+00 0. -1.
<mgrwt>
<rscale>  4 0.31752998E+03</rscale>
<asrwt>0</asrwt>
<pdfrwt beam="1">  1       21 0.33607849E-01 0.31752998E+03</pdfrwt>
<pdfrwt beam="2">  1        2 0.16455966E+00 0.31752998E+03</pdfrwt>
<totfact> 0.24654504E+03</totfact>
</mgrwt>
</event>
<event>
 5    0  0.2947253E-001  0.2797356E+03  0.7546771E-02  0.1095833E+00
         21   -1    0    0  503  502  0.00000000000E+00  0.00000000000E+00  0.48121416655E+03  0.48121416655E+03  0.00000000000E+00 0. -1.
          2   -1    0    0  502    0 -0.00000000000E+00 -0.00000000000E+00 -0.44593966118E+03  0.44593966118E+03  0.00000000000E+00 0. -1.
         25    1    1    2    0    0  0.37954514335E+03 -0.83363480632E+02  0.14164325933E+03  0.43207846355E+03  0.12500000000E+03 0.  0.
         21    1    1    2  503  501 -0.20936162119E+03 -0.68688570636E+02  0.40017351737E+02  0.22394596805E+03  0.00000000000E+00 0. -1.
          2    1    1    2  501    0 -0.17018352216E+03  0.15205205127E+03 -0.14638610570E+03  0.27112939614E+03  0.00000000000E+00 0. -1.
<mgrwt>
<rscale>  4 0.27973556E+03</rscale>
<asrwt>0</asrwt>
<pdfrwt beam="1">  1       21 0.74032949E-01 0.27973556E+03</pdfrwt>
<pdfrwt beam="2">  1        2 0.68606101E-01 0.27973556E+03</pdfrwt>
<totfact> 0.13957878E+03</totfact>
</mgrwt>
</event>
<event>
 5    0  0.2947253E-001  0.3242099E+03  0.7546771E-02  0.1073728E+00
          2   -1    0    0  502    0 -0.00000000000E+00  0.00000000000E+00  0.26164034549E+03  0.26164034549E+03  0.00000000000E+00 0. -1.
         21   -1    0    0  503  502  0.00000000000E+00 -0.00000000000E+00 -0.45256986486E+03  0.45256986486E+03  0.00000000000E+00 0. -1.
         25    1    1    2    0    0  0.28439170148E+03  0.11643383193E+03 -0.76534274115E+02  0.34046728507E+03  0.12500000000E+03 0.  0.
         21    1    1    2  503  501  0.30678044195E+01 -0.54262219299E+02 -0.47372646483E+02  0.72096931294E+02  0.00000000000E+00 0.  1.
          2    1    1    2  501    0 -0.28745950590E+03 -0.62171612627E+02 -0.67022598765E+02  0.30164599399E+03  0.00000000000E+00 0. -1.
<mgrwt>
<rscale>  4 0.32420993E+03</rscale>
<asrwt>0</asrwt>
<pdfrwt beam="1">  1       21 0.69626133E-01 0.32420993E+03</pdfrwt>
<pdfrwt beam="2">  1        2 0.40252361E-01 0.32420993E+03</pdfrwt>
<totfact> 0.28302853E+03</totfact>
</mgrwt>
</event>
<event>
 5    0  0.2947253E-001  0.3054660E+03  0.7546771E-02  0.1082540E+00
         21   -1    0    0  503  502  0.00000000000E+00  0.00000000000E+00  0.12198712720E+04  0.12198712720E+04  0.00000000000E+00 0.  1.
          1   -1    0    0  502    0 -0.00000000000E+00 -0.00000000000E+00 -0.77847109953E+02  0.77847109953E+02  0.00000000000E+00 0.  1.
         25    1    1    2    0    0 -0.17225964192E+03  0.21911428989E+03  0.76668799144E+03  0.82529990457E+03  0.12500000000E+03 0.  0.
         21    1    1    2  503  501  0.53978149759E+02 -0.76543638410E+02  0.18182796567E+03  0.20453356285E+03  0.00000000000E+00 0. -1.
          1    1    1    2  501    0  0.11828149216E+03 -0.14257065148E+03  0.19350820492E+03  0.26788491451E+03  0.00000000000E+00 0.  1.
<mgrwt>
<rscale>  4 0.30546597E+03</rscale>
<asrwt>0</asrwt>
<pdfrwt beam="1">  1       21 0.18767249E+00 0.30546597E+03</pdfrwt>
<pdfrwt beam="2">  1        1 0.11976479E-01 0.30546597E+03</pdfrwt>
<totfact> 0.81941168E+02</totfact>
</mgrwt>
</event>
<event>
 5    0  0.2947253E-001  0.3359312E+03  0.7546771E-02  0.1068769E+00
         21   -1    0    0  503  502  0.00000000000E+00  0.00000000000E+00  0.48377321716E+03  0.48377321716E+03  0.00000000000E+00 0. -1.
          2   -1    0    0  502    0 -0.00000000000E+00 -0.00000000000E+00 -0.33147570650E+03  0.33147570650E+03  0.00000000000E+00 0.  1.
         25    1    1    2    0    0  0.30946357179E+03 -0.73585011375E+01  0.29948808383E+03  0.44848630097E+03  0.12500000000E+03 0.  0.
         21    1    1    2  503  501 -0.19802416410E+03  0.26179660645E+02 -0.26634525180E+02  0.20151511638E+03  0.00000000000E+00 0.  1.
          2    1    1    2  501    0 -0.11143940769E+03 -0.18821159508E+02 -0.12055604799E+03  0.16524750630E+03  0.00000000000E+00 0.  1.
<mgrwt>
<rscale>  4 0.33540630E+03</rscale>
<asrwt>0</asrwt>
<pdfrwt beam="1">  1       21 0.74426649E-01 0.33593118E+03</pdfrwt>
<pdfrwt beam="2">  1        2 0.50996262E-01 0.33593118E+03</pdfrwt>
<totfact> 0.18775862E+03</totfact>
</mgrwt>
</event>
<event>
 5    0  0.2947253E-001  0.4529637E+03  0.7546771E-02  0.1026842E+00
         21   -1    0    0  503  502  0.00000000000E+00  0.00000000000E+00  0.39648790216E+03  0.39648790216E+03  0.00000000000E+00 0. -1.
          2   -1    0    0  502    0 -0.00000000000E+00 -0.00000000000E+00 -0.27932702136E+04  0.27932702136E+04  0.00000000000E+00 0. -1.
         25    1    1    2    0    0  0.40433966314E+03 -0.28939877435E+03  0.13863652057E+03  0.53111891194E+03  0.12500000000E+03 0.  0.
         21    1    1    2  503  501 -0.31855175337E+03  0.23377729393E+02 -0.43483116714E+03  0.53953672880E+03  0.00000000000E+00 0. -1.
          2    1    1    2  501    0 -0.85787909770E+02  0.26602104496E+03 -0.21005876648E+04  0.21191024750E+04  0.00000000000E+00 0. -1.
<mgrwt>
<rscale>  4 0.45296373E+03</rscale>
<asrwt>0</asrwt>
<pdfrwt beam="1">  1       21 0.60998141E-01 0.45296373E+03</pdfrwt>
<pdfrwt beam="2">  1        2 0.42973386E+00 0.45296373E+03</pdfrwt>
<totfact> 0.75683945E+01</totfact>
</mgrwt>
</event>
<event>
 5    0  0.2947253E-001  0.3008978E+03  0.7546771E-02  0.1084793E+00
          1   -1    0    0  502    0 -0.00000000000E+00  0.00000000000E+00  0.16207296235E+04  0.16207296235E+04  0.00000000000E+00 0. -1.
         21   -1    0    0  503  502  0.00000000000E+00 -0.00000000000E+00 -0.78272247750E+03  0.78272247750E+03  0.00000000000E+00 0.  1.
         25    1    1    2    0    0  0.80538352232E+02 -0.26158756670E+03 -0.74094175284E+03  0.79970879846E+03  0.12500000000E+03 0.  0.
         21    1    1    2  503  501 -0.69130970954E+02  0.20732108738E+03  0.10925206361E+04  0.11141644693E+04  0.00000000000E+00 0. -1.
          1    1    1    2  501    0 -0.11407381278E+02  0.54266479324E+02  0.48642826272E+03  0.48957883318E+03  0.00000000000E+00 0. -1.
<mgrwt>
<rscale>  4 0.30089779E+03</rscale>
<asrwt>0</asrwt>
<pdfrwt beam="1">  1       21 0.12041884E+00 0.30089779E+03</pdfrwt>
<pdfrwt beam="2">  1        1 0.24934302E+00 0.30089779E+03</pdfrwt>
<totfact> 0.32302788E+01</totfact>
</mgrwt>
</event>
<event>
 5    0  0.2947253E-001  0.2644920E+03  0.7546771E-02  0.1104474E+00
         -1   -1    0    0    0  501 -0.00000000000E+00  0.00000000000E+00  0.88638499926E+02  0.88638499926E+02  0.00000000000E+00 0.  1.
         21   -1    0    0  501  502  0.00000000000E+00 -0.00000000000E+00 -0.97672828831E+03  0.97672828831E+03  0.00000000000E+00 0. -1.
         25    1    1    2    0    0  0.14630767213E+03  0.18079283995E+03 -0.69419930900E+03  0.74271775697E+03  0.12500000000E+03 0.  0.
         21    1    1    2  501  501  0.18229344341E+02 -0.12858426859E+02 -0.22659284418E+02  0.31797661969E+02  0.00000000000E+00 0.  1.
         -1    1    1    2    0  502 -0.16453701647E+03 -0.16793441309E+03 -0.17123119496E+03  0.29085136929E+03  0.00000000000E+00 0.  1.
<mgrwt>
<rscale>  4 0.26449201E+03</rscale>
<asrwt>0</asrwt>
<pdfrwt beam="1">  1       21 0.15026589E+00 0.26449201E+03</pdfrwt>
<pdfrwt beam="2">  1       -1 0.13636692E-01 0.26449201E+03</pdfrwt>
<totfact> 0.96988230E+02</totfact>
</mgrwt>
</event>
<event>
 5    0  0.2947253E-001  0.3021069E+03  0.7546771E-02  0.1084192E+00
         21   -1    0    0  503  502  0.00000000000E+00  0.00000000000E+00  0.55225391914E+02  0.55225391914E+02  0.00000000000E+00 0.  1.
          2   -1    0    0  502    0 -0.00000000000E+00 -0.00000000000E+00 -0.30467488249E+04  0.30467488249E+04  0.00000000000E+00 0.  1.
         25    1    1    2    0    0  0.32129381353E+03  0.40011474181E+02 -0.12837680681E+04  0.13298556634E+04  0.12500000000E+03 0.  0.
         21    1    1    2  503  501 -0.79398549202E+02  0.43734434130E+02 -0.70132463915E+02  0.11460974147E+03  0.00000000000E+00 0. -1.
          2    1    1    2  501    0 -0.24189526433E+03 -0.83745908310E+02 -0.16376229010E+04  0.16575088120E+04  0.00000000000E+00 0.  1.
<mgrwt>
<rscale>  4 0.30210694E+03</rscale>
<asrwt>0</asrwt>
<pdfrwt beam="1">  1       21 0.84962163E-02 0.30210694E+03</pdfrwt>
<pdfrwt beam="2">  1        2 0.46873047E+00 0.30210694E+03</pdfrwt>
<totfact> 0.26234034E+03</totfact>
</mgrwt>
</event>
<event>
 5    0  0.2947253E-001  0.2340186E+03  0.7546771E-02  0.1123843E+00
         21   -1    0    0  503  502  0.00000000000E+00  0.00000000000E+00  0.23497025500E+03  0.23497025500E+03  0.00000000000E+00 0. -1.
          1   -1    0    0  502    0 -0.00000000000E+00 -0.00000000000E+00 -0.90882428351E+03  0.90882428351E+03  0.00000000000E+00 0.  1.
         25    1    1    2    0    0 -0.17885695733E+03 -0.98110610887E+02  0.13515943952E+03  0.27478824073E+03  0.12500000000E+03 0.  0.
         21    1    1    2  503  501  0.85138325523E+02  0.11896229979E+03 -0.73043330840E+03  0.74493850838E+03  0.00000000000E+00 0.  1.
          1    1    1    2  501    0  0.93718631809E+02 -0.20851688905E+02 -0.78580159624E+02  0.12406778939E+03  0.00000000000E+00 0.  1.
<mgrwt>
<rscale>  4 0.23401862E+03</rscale>
<asrwt>0</asrwt>
<pdfrwt beam="1">  1       21 0.36149270E-01 0.23401862E+03</pdfrwt>
<pdfrwt beam="2">  1        1 0.13981912E+00 0.23401862E+03</pdfrwt>
<totfact> 0.15244295E+03</totfact>
</mgrwt>
</event>
<event>
 5    0  0.2947253E-001  0.3674590E+03  0.7546771E-02  0.1055669E+00
         21   -1    0    0  503  502  0.00000000000E+00  0.00000000000E+00  0.13416783958E+03  0.13416783958E+03  0.00000000000E+00 0.  1.
          2   -1    0    0  502    0 -0.00000000000E+00 -0.00000000000E+00 -0.15178578653E+04  0.15178578653E+04  0.00000000000E+00 0.  1.
         25    1    1    2    0    0 -0.23046736555E+03 -0.25746045823E+03 -0.20138003782E+03  0.41902268885E+03  0.12500000000E+03 0.  0.
         21    1    1    2  503  501  0.21898940432E+02  0.28450779362E+02 -0.74442424855E+02  0.82647958575E+02  0.00000000000E+00 0.  1.
          2    1    1    2  501    0  0.20856842511E+03  0.22900967887E+03 -0.11078675630E+04  0.11503550575E+04  0.00000000000E+00 0.  1.
<mgrwt>
<rscale>  4 0.36745897E+03</rscale>
<asrwt>0</asrwt>
<pdfrwt beam="1">  1       21 0.20641207E-01 0.36745897E+03</pdfrwt>
<pdfrwt beam="2">  1        2 0.23351658E+00 0.36745897E+03</pdfrwt>
<totfact> 0.35074291E+03</totfact>
</mgrwt>
</event>
<event>
 5    0  0.2947253E-001  0.3262690E+03  0.7546771E-02  0.1073568E+00
         21   -1    0    0  503  502  0.00000000000E+00  0.00000000000E+00  0.18278274186E+03  0.18278274186E+03  0.00000000000E+00 0.  1.
          2   -1    0    0  502    0 -0.00000000000E+00 -0.00000000000E+00 -0.10206370326E+04  0.10206370326E+04  0.00000000000E+00 0.  1.
         25    1    1    2    0    0 -0.20561070896E+03 -0.21019403451E+03 -0.16834329900E+02  0.31994638683E+03  0.12500000000E+03 0.  0.
         21    1    1    2  503  501 -0.11252226990E+01  0.84057814184E+02 -0.20672737110E+03  0.22316627929E+03  0.00000000000E+00 0. -1.
          2    1    1    2  501    0  0.20673593166E+03  0.12613622033E+03 -0.61429258972E+03  0.66030710832E+03  0.00000000000E+00 0.  1.
<mgrwt>
<rscale>  4 0.32456422E+03</rscale>
<asrwt>0</asrwt>
<pdfrwt beam="1">  1       21 0.28120422E-01 0.32626898E+03</pdfrwt>
<pdfrwt beam="2">  1        2 0.15702108E+00 0.32626898E+03</pdfrwt>
<totfact> 0.37471721E+03</totfact>
</mgrwt>
</event>
<event>
 5    0  0.2947253E-001  0.5174104E+03  0.7546771E-02  0.1009332E+00
         21   -1    0    0  501  502  0.00000000000E+00  0.00000000000E+00  0.14156939871E+04  0.14156939871E+04  0.00000000000E+00 0.  1.
         -2   -1    0    0    0  501 -0.00000000000E+00 -0.00000000000E+00 -0.77279144258E+03  0.77279144258E+03  0.00000000000E+00 0.  1.
         25    1    1    2    0    0 -0.50467518549E+03 -0.57325703406E+02  0.12174817359E+04  0.13250924709E+04  0.12500000000E+03 0.  0.
         21    1    1    2  501  501  0.17465854008E+02 -0.63440037208E+02  0.34366002500E+02  0.74234200373E+02  0.00000000000E+00 0.  1.
         -2    1    1    2    0  502  0.48720933148E+03  0.12076574061E+03 -0.60894519390E+03  0.78915875840E+03  0.00000000000E+00 0.  1.
<mgrwt>
<rscale>  4 0.51741041E+03</rscale>
<asrwt>0</asrwt>
<pdfrwt beam="1">  1       21 0.21779907E+00 0.51741041E+03</pdfrwt>
<pdfrwt beam="2">  1       -2 0.11889099E+00 0.51741041E+03</pdfrwt>
<totfact> 0.39143578E+00</totfact>
</mgrwt>
</event>
<event>
 5    0  0.2947253E-001  0.2514136E+03  0.7546771E-02  0.1112415E+00
         21   -1    0    0  503  502  0.00000000000E+00  0.00000000000E+00  0.40138927479E+02  0.40138927479E+02  0.00000000000E+00 0. -1.
          1   -1    0    0  502    0 -0.00000000000E+00 -0.00000000000E+00 -0.15066892850E+04  0.15066892850E+04  0.00000000000E+00 0. -1.
         25    1    1    2    0    0  0.12013836517E+03 -0.18207304810E+03 -0.56739037130E+03  0.62059701504E+03  0.12500000000E+03 0.  0.
         21    1    1    2  503  501 -0.21944578830E+02  0.17883126210E+02 -0.75175925580E+02  0.80329263223E+02  0.00000000000E+00 0.  1.
          1    1    1    2  501    0 -0.98193786342E+02  0.16418992189E+03 -0.82398406067E+03  0.84590193425E+03  0.00000000000E+00 0. -1.
<mgrwt>
<rscale>  4 0.25141365E+03</rscale>
<asrwt>0</asrwt>
<pdfrwt beam="1">  1       21 0.61752190E-02 0.25141365E+03</pdfrwt>
<pdfrwt beam="2">  1        1 0.23179837E+00 0.25141365E+03</pdfrwt>
<totfact> 0.14860609E+04</totfact>
</mgrwt>
</event>
<event>
 5    0  0.2947253E-001  0.2591889E+03  0.7546771E-02  0.1107632E+00
         21   -1    0    0  503  502  0.00000000000E+00  0.00000000000E+00  0.64647334498E+03  0.64647334498E+03  0.00000000000E+00 0. -1.
          2   -1    0    0  502    0 -0.00000000000E+00 -0.00000000000E+00 -0.21894796571E+03  0.21894796571E+03  0.00000000000E+00 0. -1.
         25    1    1    2    0    0 -0.12098630200E+03  0.19070963621E+03  0.52415387359E+03  0.58426888828E+03  0.12500000000E+03 0.  0.
         21    1    1    2  503  501 -0.27431962908E+02 -0.81832871598E+01 -0.76095275609E+01  0.29620663183E+02  0.00000000000E+00 0.  1.
          2    1    1    2  501    0  0.14841826491E+03 -0.18252634905E+03 -0.89018966760E+02  0.25153175923E+03  0.00000000000E+00 0. -1.
<mgrwt>
<rscale>  4 0.25918894E+03</rscale>
<asrwt>0</asrwt>
<pdfrwt beam="1">  1       21 0.99457437E-01 0.25918894E+03</pdfrwt>
<pdfrwt beam="2">  1        2 0.33684303E-01 0.25918894E+03</pdfrwt>
<totfact> 0.15399394E+03</totfact>
</mgrwt>
</event>
<event>
 5    0  0.2947253E-001  0.2456063E+03  0.7546771E-02  0.1116113E+00
         21   -1    0    0  503  502  0.00000000000E+00  0.00000000000E+00  0.36726200316E+03  0.36726200316E+03  0.00000000000E+00 0. -1.
          1   -1    0    0  502    0 -0.00000000000E+00 -0.00000000000E+00 -0.14993108128E+03  0.14993108128E+03  0.00000000000E+00 0.  1.
         25    1    1    2    0    0  0.14109263703E+03  0.15744944515E+03  0.10835143697E+03  0.26844458254E+03  0.12500000000E+03 0.  0.
         21    1    1    2  503  501 -0.95674838353E+02 -0.11050205410E+03  0.35465829538E+02  0.15040679412E+03  0.00000000000E+00 0.  1.
          1    1    1    2  501    0 -0.45417798682E+02 -0.46947391049E+02  0.73513655365E+02  0.98341707777E+02  0.00000000000E+00 0.  1.
<mgrwt>
<rscale>  4 0.24560631E+03</rscale>
<asrwt>0</asrwt>
<pdfrwt beam="1">  1       21 0.56501846E-01 0.24560631E+03</pdfrwt>
<pdfrwt beam="2">  1        1 0.23066320E-01 0.24560631E+03</pdfrwt>
<totfact> 0.66632511E+03</totfact>
</mgrwt>
</event>
<event>
 5    0  0.2947253E-001  0.2534830E+03  0.7546771E-02  0.1111123E+00
         21   -1    0    0  503  502  0.00000000000E+00  0.00000000000E+00  0.48846735295E+03  0.48846735295E+03  0.00000000000E+00 0.  1.
          1   -1    0    0  502    0 -0.00000000000E+00 -0.00000000000E+00 -0.39916128428E+03  0.39916128428E+03  0.00000000000E+00 0.  1.
         25    1    1    2    0    0 -0.46739872640E+02 -0.21550877491E+03  0.41638805276E+03  0.48747580272E+03  0.12500000000E+03 0.  0.
         21    1    1    2  503  501  0.26499634231E+02  0.21861261381E+02 -0.66683778077E+02  0.75012476443E+02  0.00000000000E+00 0.  1.
          1    1    1    2  501    0  0.20240238410E+02  0.19364751353E+03 -0.26039820601E+03  0.32514035807E+03  0.00000000000E+00 0.  1.
<mgrwt>
<rscale>  4 0.25348303E+03</rscale>
<asrwt>0</asrwt>
<pdfrwt beam="1">  1       21 0.75148824E-01 0.25348303E+03</pdfrwt>
<pdfrwt beam="2">  1        1 0.61409428E-01 0.25348303E+03</pdfrwt>
<totfact> 0.10285660E+03</totfact>
</mgrwt>
</event>
<event>
 5    0  0.2947253E-001  0.2425871E+03  0.7546771E-02  0.1118081E+00
         21   -1    0    0  503  502  0.00000000000E+00  0.00000000000E+00  0.20026547042E+03  0.20026547042E+03  0.00000000000E+00 0. -1.
          1   -1    0    0  502    0 -0.00000000000E+00 -0.00000000000E+00 -0.38964001387E+03  0.38964001387E+03  0.00000000000E+00 0. -1.
         25    1    1    2    0    0  0.20301340171E+03 -0.44822359018E+02  0.62485495342E+02  0.25050533382E+03  0.12500000000E+03 0.  0.
         21    1    1    2  503  501 -0.11868588043E+03  0.40047467779E+01 -0.78528428706E+02  0.14236955547E+03  0.00000000000E+00 0. -1.
          1    1    1    2  501    0 -0.84327521282E+02  0.40817612241E+02 -0.17333161008E+03  0.19703059501E+03  0.00000000000E+00 0. -1.
<mgrwt>
<rscale>  4 0.24258707E+03</rscale>
<asrwt>0</asrwt>
<pdfrwt beam="1">  1       21 0.30810072E-01 0.24258707E+03</pdfrwt>
<pdfrwt beam="2">  1        1 0.59944618E-01 0.24258707E+03</pdfrwt>
<totfact> 0.68837237E+03</totfact>
</mgrwt>
</event>
<event>
 5    0  0.2947253E-001  0.3154176E+03  0.7546771E-02  0.1077778E+00
         21   -1    0    0  503  502  0.00000000000E+00  0.00000000000E+00  0.13617456808E+04  0.13617456808E+04  0.00000000000E+00 0. -1.
          1   -1    0    0  502    0 -0.00000000000E+00 -0.00000000000E+00 -0.10271433425E+03  0.10271433425E+03  0.00000000000E+00 0. -1.
         25    1    1    2    0    0 -0.88439401021E+01  0.28945648985E+03  0.10561447219E+04  0.11022386077E+04  0.12500000000E+03 0.  0.
         21    1    1    2  503  501  0.19271658434E+02 -0.20888471655E+03  0.18348037189E+03  0.27869206751E+03  0.00000000000E+00 0. -1.
          1    1    1    2  501    0 -0.10427718332E+02 -0.80571773307E+02  0.19406252789E+02  0.83529339820E+02  0.00000000000E+00 0. -1.
<mgrwt>
<rscale>  4 0.31541762E+03</rscale>
<asrwt>0</asrwt>
<pdfrwt beam="1">  1       21 0.20949932E+00 0.31541762E+03</pdfrwt>
<pdfrwt beam="2">  1        1 0.15802206E-01 0.31541762E+03</pdfrwt>
<totfact> 0.40518579E+02</totfact>
</mgrwt>
</event>
<event>
 5    0  0.2947253E-001  0.5293435E+03  0.7546771E-02  0.1006391E+00
         21   -1    0    0  503  502  0.00000000000E+00  0.00000000000E+00  0.32462707507E+03  0.32462707507E+03  0.00000000000E+00 0. -1.
          1   -1    0    0  502    0 -0.00000000000E+00 -0.00000000000E+00 -0.86275276487E+03  0.86275276487E+03  0.00000000000E+00 0.  1.
         25    1    1    2    0    0  0.40245454513E+03 -0.32032777349E+03 -0.20648870920E+03  0.56819198374E+03  0.12500000000E+03 0.  0.
         21    1    1    2  503  501 -0.49387356918E+02  0.39047339399E+02 -0.81881076798E+02  0.10328754269E+03  0.00000000000E+00 0.  1.
          1    1    1    2  501    0 -0.35306718821E+03  0.28128043409E+03 -0.24975590381E+03  0.51590031351E+03  0.00000000000E+00 0.  1.
<mgrwt>
<rscale>  4 0.52934350E+03</rscale>
<asrwt>0</asrwt>
<pdfrwt beam="1">  1       21 0.49942628E-01 0.52934350E+03</pdfrwt>
<pdfrwt beam="2">  1        1 0.13273119E+00 0.52934350E+03</pdfrwt>
<totfact> 0.77979494E+02</totfact>
</mgrwt>
</event>
<event>
 5    0  0.2947253E-001  0.2855689E+03  0.7546771E-02  0.1092686E+00
         21   -1    0    0  501  502  0.00000000000E+00  0.00000000000E+00  0.15921628436E+04  0.15921628436E+04  0.00000000000E+00 0.  1.
         -2   -1    0    0    0  501 -0.00000000000E+00 -0.00000000000E+00 -0.13065436548E+03  0.13065436548E+03  0.00000000000E+00 0. -1.
         25    1    1    2    0    0  0.26222266685E+03 -0.29274433584E+02  0.13762799749E+04  0.14069077044E+04  0.12500000000E+03 0.  0.
         21    1    1    2  501  501 -0.54642372426E+02  0.20692478427E+02  0.90917670888E+02  0.10807400431E+03  0.00000000000E+00 0. -1.
         -2    1    1    2    0  502 -0.20758029442E+03  0.85819551575E+01 -0.56891676457E+01  0.20783550037E+03  0.00000000000E+00 0. -1.
<mgrwt>
<rscale>  4 0.28556889E+03</rscale>
<asrwt>0</asrwt>
<pdfrwt beam="1">  1       21 0.24494812E+00 0.28556889E+03</pdfrwt>
<pdfrwt beam="2">  1       -2 0.20100673E-01 0.28556889E+03</pdfrwt>
<totfact> 0.11005469E+02</totfact>
</mgrwt>
</event>
<event>
 5    0  0.2947253E-001  0.2855373E+03  0.7546771E-02  0.1092702E+00
         21   -1    0    0  503  502  0.00000000000E+00  0.00000000000E+00  0.61514960852E+03  0.61514960852E+03  0.00000000000E+00 0. -1.
          2   -1    0    0  502    0 -0.00000000000E+00 -0.00000000000E+00 -0.19274184198E+03  0.19274184198E+03  0.00000000000E+00 0.  1.
         25    1    1    2    0    0  0.98211293594E+02 -0.27161341867E+03  0.53930108482E+02  0.31930042905E+03  0.12500000000E+03 0.  0.
         21    1    1    2  503  501  0.28466547174E+01  0.45435851218E+02  0.11555098154E+01  0.45539600590E+02  0.00000000000E+00 0. -1.
          2    1    1    2  501    0 -0.10105794831E+03  0.22617756746E+03  0.36732214824E+03  0.44305142086E+03  0.00000000000E+00 0.  1.
<mgrwt>
<rscale>  4 0.28553726E+03</rscale>
<asrwt>0</asrwt>
<pdfrwt beam="1">  1       21 0.94638400E-01 0.28553726E+03</pdfrwt>
<pdfrwt beam="2">  1        2 0.29652591E-01 0.28553726E+03</pdfrwt>
<totfact> 0.19765612E+03</totfact>
</mgrwt>
</event>
<event>
 5    0  0.2947253E-001  0.2798270E+03  0.7546771E-02  0.1095783E+00
         21   -1    0    0  503  502  0.00000000000E+00  0.00000000000E+00  0.70023825283E+03  0.70023825283E+03  0.00000000000E+00 0.  1.
          2   -1    0    0  502    0 -0.00000000000E+00 -0.00000000000E+00 -0.23490523183E+03  0.23490523183E+03  0.00000000000E+00 0. -1.
         25    1    1    2    0    0 -0.20684089625E+02  0.27933785395E+03  0.49098131276E+03  0.57891719416E+03  0.12500000000E+03 0.  0.
         21    1    1    2  503  501 -0.38258263710E+02 -0.40262160807E+02  0.72347722808E+02  0.91208164823E+02  0.00000000000E+00 0. -1.
          2    1    1    2  501    0  0.58942353335E+02 -0.23907569314E+03 -0.97996014569E+02  0.26501812568E+03  0.00000000000E+00 0. -1.
<mgrwt>
<rscale>  4 0.27982703E+03</rscale>
<asrwt>0</asrwt>
<pdfrwt beam="1">  1       21 0.10772896E+00 0.27982703E+03</pdfrwt>
<pdfrwt beam="2">  1        2 0.36139267E-01 0.27982703E+03</pdfrwt>
<totfact> 0.11667617E+03</totfact>
</mgrwt>
</event>
<event>
 5    0  0.2947253E-001  0.4481051E+03  0.7546771E-02  0.1028289E+00
         21   -1    0    0  503  502  0.00000000000E+00  0.00000000000E+00  0.10736513635E+03  0.10736513635E+03  0.00000000000E+00 0. -1.
          2   -1    0    0  502    0 -0.00000000000E+00 -0.00000000000E+00 -0.22533904179E+04  0.22533904179E+04  0.00000000000E+00 0.  1.
         25    1    1    2    0    0 -0.20919593625E+03 -0.37604557299E+03 -0.56784742113E+03  0.72335945864E+03  0.12500000000E+03 0.  0.
         21    1    1    2  503  501  0.77729861435E+01  0.40983650131E+02 -0.22685410558E+03  0.23065746056E+03  0.00000000000E+00 0. -1.
          2    1    1    2  501    0  0.20142295011E+03  0.33506192286E+03 -0.13513237548E+04  0.14067386350E+04  0.00000000000E+00 0.  1.
<mgrwt>
<rscale>  4 0.44810514E+03</rscale>
<asrwt>0</asrwt>
<pdfrwt beam="1">  1       21 0.16517713E-01 0.44810514E+03</pdfrwt>
<pdfrwt beam="2">  1        2 0.34667546E+00 0.44810514E+03</pdfrwt>
<totfact> 0.21054063E+03</totfact>
</mgrwt>
</event>
<event>
 5    0  0.2947253E-001  0.2358374E+03  0.7546771E-02  0.1122597E+00
         21   -1    0    0  503  502  0.00000000000E+00  0.00000000000E+00  0.11025176658E+03  0.11025176658E+03  0.00000000000E+00 0.  1.
          2   -1    0    0  502    0 -0.00000000000E+00 -0.00000000000E+00 -0.15943088278E+04  0.15943088278E+04  0.00000000000E+00 0. -1.
         25    1    1    2    0    0 -0.12162939371E+03 -0.16498355596E+03 -0.42865679425E+02  0.24387650486E+03  0.12500000000E+03 0.  0.
         21    1    1    2  503  501  0.13832943731E+03  0.10261193974E+03 -0.98474996090E+03  0.99969831894E+03  0.00000000000E+00 0. -1.
          2    1    1    2  501    0 -0.16700043602E+02  0.62371616214E+02 -0.45644142092E+03  0.46098577060E+03  0.00000000000E+00 0. -1.
<mgrwt>
<rscale>  4 0.23583742E+03</rscale>
<asrwt>0</asrwt>
<pdfrwt beam="1">  1       21 0.16961810E-01 0.23583742E+03</pdfrwt>
<pdfrwt beam="2">  1        2 0.24527829E+00 0.23583742E+03</pdfrwt>
<totfact> 0.48124044E+03</totfact>
</mgrwt>
</event>
<event>
 5    0  0.2947253E-001  0.3802117E+03  0.7546771E-02  0.1050856E+00
         21   -1    0    0  503  502  0.00000000000E+00  0.00000000000E+00  0.24007606813E+03  0.24007606813E+03  0.00000000000E+00 0. -1.
          1   -1    0    0  502    0 -0.00000000000E+00 -0.00000000000E+00 -0.78898699841E+03  0.78898699841E+03  0.00000000000E+00 0. -1.
         25    1    1    2    0    0 -0.21563874365E+03  0.28711641666E+03 -0.11235603339E+02  0.38037763244E+03  0.12500000000E+03 0.  0.
         21    1    1    2  503  501  0.96993085840E+01 -0.28053837923E+02 -0.67275233514E+02  0.73532655696E+02  0.00000000000E+00 0. -1.
          1    1    1    2  501    0  0.20593943507E+03 -0.25906257873E+03 -0.47040009342E+03  0.57515277841E+03  0.00000000000E+00 0. -1.
<mgrwt>
<rscale>  4 0.38021166E+03</rscale>
<asrwt>0</asrwt>
<pdfrwt beam="1">  1       21 0.36934780E-01 0.38021166E+03</pdfrwt>
<pdfrwt beam="2">  1        1 0.12138261E+00 0.38021166E+03</pdfrwt>
<totfact> 0.17430867E+03</totfact>
</mgrwt>
</event>
<event>
 5    0  0.2947253E-001  0.2645524E+03  0.7546771E-02  0.1104439E+00
         -1   -1    0    0    0  501 -0.00000000000E+00  0.00000000000E+00  0.17921677629E+03  0.17921677629E+03  0.00000000000E+00 0. -1.
         21   -1    0    0  501  502  0.00000000000E+00 -0.00000000000E+00 -0.38164621241E+03  0.38164621241E+03  0.00000000000E+00 0. -1.
         25    1    1    2    0    0 -0.16352094049E+03 -0.16620431472E+03 -0.18026695683E+03  0.32013145415E+03  0.12500000000E+03 0.  0.
         21    1    1    2  501  501  0.18932155944E+02  0.42781597983E+02 -0.19297386005E+02  0.50607121646E+02  0.00000000000E+00 0.  1.
         -1    1    1    2    0  502  0.14458878455E+03  0.12342271674E+03 -0.28650932857E+01  0.19012441291E+03  0.00000000000E+00 0. -1.
<mgrwt>
<rscale>  4 0.26455240E+03</rscale>
<asrwt>0</asrwt>
<pdfrwt beam="1">  1       21 0.58714802E-01 0.26455240E+03</pdfrwt>
<pdfrwt beam="2">  1       -1 0.27571812E-01 0.26455240E+03</pdfrwt>
<totfact> 0.28694970E+03</totfact>
</mgrwt>
</event>
<event>
 5    0  0.2947253E-001  0.2485771E+03  0.7546771E-02  0.1114207E+00
          2   -1    0    0  502    0 -0.00000000000E+00  0.00000000000E+00  0.20934767493E+03  0.20934767493E+03  0.00000000000E+00 0. -1.
         21   -1    0    0  503  502  0.00000000000E+00 -0.00000000000E+00 -0.73601430490E+03  0.73601430490E+03  0.00000000000E+00 0. -1.
         25    1    1    2    0    0 -0.21651326803E+02  0.21878249981E+03 -0.61411121177E+03  0.66414768132E+03  0.12500000000E+03 0.  0.
         21    1    1    2  503  501  0.65260285847E+02 -0.28080643959E+02  0.15034518967E+02  0.72618621816E+02  0.00000000000E+00 0. -1.
          2    1    1    2  501    0 -0.43608959044E+02 -0.19070185585E+03  0.72410062835E+02  0.20859567669E+03  0.00000000000E+00 0. -1.
<mgrwt>
<rscale>  4 0.24857708E+03</rscale>
<asrwt>0</asrwt>
<pdfrwt beam="1">  1       21 0.11323297E+00 0.24857708E+03</pdfrwt>
<pdfrwt beam="2">  1        2 0.32207335E-01 0.24857708E+03</pdfrwt>
<totfact> 0.11857353E+03</totfact>
</mgrwt>
</event>
<event>
 5    0  0.2947253E-001  0.3500288E+03  0.7546771E-02  0.1062603E+00
         21   -1    0    0  503  502  0.00000000000E+00  0.00000000000E+00  0.64771061743E+03  0.64771061743E+03  0.00000000000E+00 0.  1.
          2   -1    0    0  502    0 -0.00000000000E+00 -0.00000000000E+00 -0.30335534154E+03  0.30335534154E+03  0.00000000000E+00 0. -1.
         25    1    1    2    0    0  0.21634269822E+03 -0.24513463480E+03  0.47354687090E+03  0.58886907814E+03  0.12500000000E+03 0.  0.
         21    1    1    2  503  501 -0.14234659344E+03  0.15987358686E+03 -0.38741936818E+02  0.21753862670E+03  0.00000000000E+00 0. -1.
          2    1    1    2  501    0 -0.73996104781E+02  0.85261047945E+02 -0.90449658190E+02  0.14465825412E+03  0.00000000000E+00 0. -1.
<mgrwt>
<rscale>  4 0.35002879E+03</rscale>
<asrwt>0</asrwt>
<pdfrwt beam="1">  1       21 0.99647787E-01 0.35002879E+03</pdfrwt>
<pdfrwt beam="2">  1        2 0.46670053E-01 0.35002879E+03</pdfrwt>
<totfact> 0.10433575E+03</totfact>
</mgrwt>
</event>
<event>
 5    0  0.2947253E-001  0.2726912E+03  0.7546771E-02  0.1099749E+00
          1   -1    0    0  502    0 -0.00000000000E+00  0.00000000000E+00  0.74000964449E+02  0.74000964449E+02  0.00000000000E+00 0. -1.
         21   -1    0    0  503  502  0.00000000000E+00 -0.00000000000E+00 -0.28081393519E+04  0.28081393519E+04  0.00000000000E+00 0.  1.
         25    1    1    2    0    0 -0.15968802633E+03 -0.18230533917E+03 -0.25645300808E+04  0.25789872116E+04  0.12500000000E+03 0.  0.
         21    1    1    2  503  501 -0.16282630396E+01  0.26610156447E+02 -0.12891775816E+02  0.29613333996E+02  0.00000000000E+00 0. -1.
          1    1    1    2  501    0  0.16131628937E+03  0.15569518272E+03 -0.15671653087E+03  0.27353977076E+03  0.00000000000E+00 0. -1.
<mgrwt>
<rscale>  4 0.27269122E+03</rscale>
<asrwt>0</asrwt>
<pdfrwt beam="1">  1       21 0.43202143E+00 0.27269122E+03</pdfrwt>
<pdfrwt beam="2">  1        1 0.11384764E-01 0.27269122E+03</pdfrwt>
<totfact> 0.28340643E+01</totfact>
</mgrwt>
</event>
<event>
 5    0  0.2947253E-001  0.2633119E+03  0.7546771E-02  0.1105170E+00
         21   -1    0    0  503  502  0.00000000000E+00  0.00000000000E+00  0.14907827469E+03  0.14907827469E+03  0.00000000000E+00 0. -1.
          2   -1    0    0  502    0 -0.00000000000E+00 -0.00000000000E+00 -0.10572621572E+04  0.10572621572E+04  0.00000000000E+00 0. -1.
         25    1    1    2    0    0 -0.11278250171E+03 -0.25115186152E+03 -0.66446042336E+02  0.30957588210E+03  0.12500000000E+03 0.  0.
         21    1    1    2  503  501  0.97913542652E-01  0.55014711349E+02 -0.53603200178E+02  0.76811009115E+02  0.00000000000E+00 0. -1.
          2    1    1    2  501    0  0.11268458817E+03  0.19613715017E+03 -0.78813463996E+03  0.81995354063E+03  0.00000000000E+00 0. -1.
<mgrwt>
<rscale>  4 0.26331192E+03</rscale>
<asrwt>0</asrwt>
<pdfrwt beam="1">  1       21 0.22935118E-01 0.26331192E+03</pdfrwt>
<pdfrwt beam="2">  1        2 0.16265572E+00 0.26331192E+03</pdfrwt>
<totfact> 0.53723780E+03</totfact>
</mgrwt>
</event>
<event>
 5    0  0.2947253E-001  0.2825310E+03  0.7546771E-02  0.1094315E+00
         -2   -1    0    0    0  501 -0.00000000000E+00  0.00000000000E+00  0.32765248868E+03  0.32765248868E+03  0.00000000000E+00 0. -1.
         21   -1    0    0  501  502  0.00000000000E+00 -0.00000000000E+00 -0.22603457302E+03  0.22603457302E+03  0.00000000000E+00 0. -1.
         25    1    1    2    0    0 -0.25336866053E+03 -0.17513560555E+01  0.63444303390E+02  0.28956678853E+03  0.12500000000E+03 0.  0.
         21    1    1    2  501  501  0.17380664728E+03  0.10132328770E+02 -0.30358294567E+01  0.17412820273E+03  0.00000000000E+00 0. -1.
         -2    1    1    2    0  502  0.79562013247E+02 -0.83809727141E+01  0.41209441721E+02  0.89992070442E+02  0.00000000000E+00 0. -1.
<mgrwt>
<rscale>  4 0.28253096E+03</rscale>
<asrwt>0</asrwt>
<pdfrwt beam="1">  1       21 0.34774550E-01 0.28253096E+03</pdfrwt>
<pdfrwt beam="2">  1       -2 0.50408075E-01 0.28253096E+03</pdfrwt>
<totfact> 0.23954633E+03</totfact>
</mgrwt>
</event>
<event>
 5    0  0.2947253E-001  0.2580910E+03  0.7546771E-02  0.1108296E+00
          2   -1    0    0  502    0 -0.00000000000E+00  0.00000000000E+00  0.28601871995E+03  0.28601871995E+03  0.00000000000E+00 0.  1.
         21   -1    0    0  503  502  0.00000000000E+00 -0.00000000000E+00 -0.21331795841E+03  0.21331795841E+03  0.00000000000E+00 0.  1.
         25    1    1    2    0    0 -0.21874231987E+03  0.56015858763E+02  0.25291914712E+02  0.25932732190E+03  0.12500000000E+03 0.  0.
         21    1    1    2  503  501  0.20212801070E+03 -0.39340052395E+02  0.24866454481E+02  0.20741676159E+03  0.00000000000E+00 0.  1.
          2    1    1    2  501    0  0.16614309173E+02 -0.16675806368E+02  0.22542392352E+02  0.32592594868E+02  0.00000000000E+00 0.  1.
<mgrwt>
<rscale>  4 0.25809103E+03</rscale>
<asrwt>0</asrwt>
<pdfrwt beam="1">  1       21 0.32818147E-01 0.25809103E+03</pdfrwt>
<pdfrwt beam="2">  1        2 0.44002880E-01 0.25809103E+03</pdfrwt>
<totfact> 0.12608620E+04</totfact>
</mgrwt>
</event>
<event>
 5    0  0.2947253E-001  0.3118046E+03  0.7546771E-02  0.1079484E+00
         21   -1    0    0  503  502  0.00000000000E+00  0.00000000000E+00  0.22255924556E+04  0.22255924556E+04  0.00000000000E+00 0. -1.
          1   -1    0    0  502    0 -0.00000000000E+00 -0.00000000000E+00 -0.26087879988E+03  0.26087879988E+03  0.00000000000E+00 0. -1.
         25    1    1    2    0    0 -0.74032069677E+02  0.29030646759E+03  0.20741128058E+04  0.20993635997E+04  0.12500000000E+03 0.  0.
         21    1    1    2  503  501  0.12287453072E+03 -0.15600083316E+03  0.12914826508E+02  0.19900051002E+03  0.00000000000E+00 0. -1.
          1    1    1    2  501    0 -0.48842461042E+02 -0.13430563443E+03 -0.12231397656E+03  0.18810714580E+03  0.00000000000E+00 0. -1.
<mgrwt>
<rscale>  4 0.31180460E+03</rscale>
<asrwt>0</asrwt>
<pdfrwt beam="1">  1       21 0.34239883E+00 0.31180460E+03</pdfrwt>
<pdfrwt beam="2">  1        1 0.40135201E-01 0.31180460E+03</pdfrwt>
<totfact> 0.19378256E+01</totfact>
</mgrwt>
</event>
<event>
 5    0  0.2947253E-001  0.3278948E+03  0.7546771E-02  0.1072072E+00
         21   -1    0    0  503  502  0.00000000000E+00  0.00000000000E+00  0.20189457515E+03  0.20189457515E+03  0.00000000000E+00 0. -1.
          3   -1    0    0  502    0 -0.00000000000E+00 -0.00000000000E+00 -0.65146460949E+03  0.65146460949E+03  0.00000000000E+00 0.  1.
         25    1    1    2    0    0  0.29065030429E+03  0.86095154876E+02 -0.25658724282E+02  0.32889716510E+03  0.12500000000E+03 0.  0.
         21    1    1    2  503  501 -0.22837728109E+02 -0.10144924997E+02 -0.69113131404E+02  0.73492219049E+02  0.00000000000E+00 0.  1.
          3    1    1    2  501    0 -0.26781257618E+03 -0.75950229879E+02 -0.35479817866E+03  0.45096980050E+03  0.00000000000E+00 0.  1.
<mgrwt>
<rscale>  4 0.32789476E+03</rscale>
<asrwt>0</asrwt>
<pdfrwt beam="1">  1       21 0.31060704E-01 0.32789476E+03</pdfrwt>
<pdfrwt beam="2">  1        3 0.10022533E+00 0.32789476E+03</pdfrwt>
<totfact> 0.43464392E+02</totfact>
</mgrwt>
</event>
<event>
 5    0  0.2947253E-001  0.2431618E+03  0.7546771E-02  0.1117704E+00
         21   -1    0    0  503  502  0.00000000000E+00  0.00000000000E+00  0.34621953368E+03  0.34621953368E+03  0.00000000000E+00 0. -1.
          2   -1    0    0  502    0 -0.00000000000E+00 -0.00000000000E+00 -0.97075201284E+03  0.97075201284E+03  0.00000000000E+00 0. -1.
         25    1    1    2    0    0  0.18120093819E+03 -0.11060434333E+03  0.28200409980E+03  0.37445749167E+03  0.12500000000E+03 0.  0.
         21    1    1    2  503  501 -0.83087462615E+02 -0.27359452253E+02 -0.26791057737E+03  0.28182999048E+03  0.00000000000E+00 0. -1.
          2    1    1    2  501    0 -0.98113475579E+02  0.13796379558E+03 -0.63862600160E+03  0.66068406436E+03  0.00000000000E+00 0. -1.
<mgrwt>
<rscale>  4 0.24316180E+03</rscale>
<asrwt>0</asrwt>
<pdfrwt beam="1">  1       21 0.53264543E-01 0.24316180E+03</pdfrwt>
<pdfrwt beam="2">  1        2 0.14934646E+00 0.24316180E+03</pdfrwt>
<totfact> 0.11307191E+03</totfact>
</mgrwt>
</event>
<event>
 5    0  0.2947253E-001  0.2501960E+03  0.7546771E-02  0.1113181E+00
         21   -1    0    0  501  502  0.00000000000E+00  0.00000000000E+00  0.90614148878E+02  0.90614148878E+02  0.00000000000E+00 0. -1.
         -2   -1    0    0    0  501 -0.00000000000E+00 -0.00000000000E+00 -0.96530397967E+03  0.96530397967E+03  0.00000000000E+00 0. -1.
         25    1    1    2    0    0 -0.20148076518E+03  0.63420932428E+02 -0.16595557058E+03  0.29628190092E+03  0.12500000000E+03 0.  0.
         21    1    1    2  501  501 -0.16697514043E+02 -0.41860226564E+02 -0.61269528703E+02  0.76059454972E+02  0.00000000000E+00 0. -1.
         -2    1    1    2    0  502  0.21817827922E+03 -0.21560705864E+02 -0.64746473150E+03  0.68357677265E+03  0.00000000000E+00 0. -1.
<mgrwt>
<rscale>  4 0.25019599E+03</rscale>
<asrwt>0</asrwt>
<pdfrwt beam="1">  1       21 0.13940638E-01 0.25019599E+03</pdfrwt>
<pdfrwt beam="2">  1       -2 0.14850831E+00 0.25019599E+03</pdfrwt>
<totfact> 0.11888598E+03</totfact>
</mgrwt>
</event>
<event>
 5    0  0.2947253E-001  0.2469410E+03  0.7546771E-02  0.1115253E+00
         21   -1    0    0  503  502  0.00000000000E+00  0.00000000000E+00  0.25597525195E+03  0.25597525195E+03  0.00000000000E+00 0.  1.
          2   -1    0    0  502    0 -0.00000000000E+00 -0.00000000000E+00 -0.15756305272E+04  0.15756305272E+04  0.00000000000E+00 0.  1.
         25    1    1    2    0    0 -0.14075531182E+03  0.15982119159E+03  0.18540553674E+03  0.30879618544E+03  0.12500000000E+03 0.  0.
         21    1    1    2  503  501  0.76139352513E+02 -0.12989121702E+03 -0.79061167043E+03  0.80482031702E+03  0.00000000000E+00 0.  1.
          2    1    1    2  501    0  0.64615959307E+02 -0.29929974577E+02 -0.71444914161E+03  0.71798927674E+03  0.00000000000E+00 0.  1.
<mgrwt>
<rscale>  4 0.24694103E+03</rscale>
<asrwt>0</asrwt>
<pdfrwt beam="1">  1       21 0.39380808E-01 0.24694103E+03</pdfrwt>
<pdfrwt beam="2">  1        2 0.24240469E+00 0.24694103E+03</pdfrwt>
<totfact> 0.96348729E+02</totfact>
</mgrwt>
</event>
<event>
 5    0  0.2947253E-001  0.2530611E+03  0.7546771E-02  0.1111385E+00
         21   -1    0    0  503  502  0.00000000000E+00  0.00000000000E+00  0.12287140342E+03  0.12287140342E+03  0.00000000000E+00 0.  1.
          1   -1    0    0  502    0 -0.00000000000E+00 -0.00000000000E+00 -0.95522228238E+03  0.95522228238E+03  0.00000000000E+00 0.  1.
         25    1    1    2    0    0  0.56063122945E+02 -0.27158953807E+03 -0.17150987712E+03  0.34920565416E+03  0.12500000000E+03 0.  0.
         21    1    1    2  503  501 -0.54308456294E+02  0.62765934965E+02 -0.97262972163E+02  0.12786343016E+03  0.00000000000E+00 0.  1.
          1    1    1    2  501    0 -0.17546666509E+01  0.20882360311E+03 -0.56357802968E+03  0.60102460149E+03  0.00000000000E+00 0.  1.
<mgrwt>
<rscale>  4 0.25306111E+03</rscale>
<asrwt>0</asrwt>
<pdfrwt beam="1">  1       21 0.18903292E-01 0.25306111E+03</pdfrwt>
<pdfrwt beam="2">  1        1 0.14695728E+00 0.25306111E+03</pdfrwt>
<totfact> 0.48772794E+03</totfact>
</mgrwt>
</event>
<event>
 5    0  0.2947253E-001  0.3694348E+03  0.7546771E-02  0.1054909E+00
          1   -1    0    0  502    0 -0.00000000000E+00  0.00000000000E+00  0.41670098499E+03  0.41670098499E+03  0.00000000000E+00 0. -1.
         21   -1    0    0  503  502  0.00000000000E+00 -0.00000000000E+00 -0.54471888659E+03  0.54471888659E+03  0.00000000000E+00 0. -1.
         25    1    1    2    0    0 -0.20255889857E+02 -0.28550491862E+03 -0.25306225159E+03  0.40198117221E+03  0.12500000000E+03 0.  0.
         21    1    1    2  503  501 -0.13074029852E+03 -0.58227012628E+02 -0.41069041074E+02  0.14889619468E+03  0.00000000000E+00 0.  1.
          1    1    1    2  501    0  0.15099618838E+03  0.34373193125E+03  0.16611339106E+03  0.41054250469E+03  0.00000000000E+00 0. -1.
<mgrwt>
<rscale>  4 0.36943481E+03</rscale>
<asrwt>0</asrwt>
<pdfrwt beam="1">  1       21 0.83802905E-01 0.36943481E+03</pdfrwt>
<pdfrwt beam="2">  1        1 0.64107844E-01 0.36943481E+03</pdfrwt>
<totfact> 0.72899910E+02</totfact>
</mgrwt>
</event>
<event>
 5    0  0.2947253E-001  0.2873270E+03  0.7546771E-02  0.1091753E+00
         21   -1    0    0  501  502  0.00000000000E+00  0.00000000000E+00  0.40170188777E+03  0.40170188777E+03  0.00000000000E+00 0. -1.
         -2   -1    0    0    0  501 -0.00000000000E+00 -0.00000000000E+00 -0.25979062357E+03  0.25979062357E+03  0.00000000000E+00 0.  1.
         25    1    1    2    0    0 -0.20225203771E+03 -0.16132555841E+03  0.24643532923E+03  0.37853294975E+03  0.12500000000E+03 0.  0.
         21    1    1    2  501  501  0.41880840867E+02  0.20329400802E+02 -0.33762261066E+01  0.46676420937E+02  0.00000000000E+00 0.  1.
         -2    1    1    2    0  502  0.16037119685E+03  0.14099615760E+03 -0.10114783893E+03  0.23628314065E+03  0.00000000000E+00 0.  1.
<mgrwt>
<rscale>  4 0.28732703E+03</rscale>
<asrwt>0</asrwt>
<pdfrwt beam="1">  1       21 0.61800290E-01 0.28732703E+03</pdfrwt>
<pdfrwt beam="2">  1       -2 0.39967788E-01 0.28732703E+03</pdfrwt>
<totfact> 0.11379073E+03</totfact>
</mgrwt>
</event>
<event>
 5    0  0.2947253E-001  0.2786586E+03  0.7546771E-02  0.1096424E+00
         21   -1    0    0  503  502  0.00000000000E+00  0.00000000000E+00  0.10012094094E+03  0.10012094094E+03  0.00000000000E+00 0.  1.
          1   -1    0    0  502    0 -0.00000000000E+00 -0.00000000000E+00 -0.14884732750E+04  0.14884732750E+04  0.00000000000E+00 0.  1.
         25    1    1    2    0    0 -0.20814970150E+03  0.13674548052E+03 -0.13746385387E+03  0.31072002800E+03  0.12500000000E+03 0.  0.
         21    1    1    2  503  501  0.43870215507E+02 -0.23134125731E+02 -0.12635923245E+03  0.13574402089E+03  0.00000000000E+00 0.  1.
          1    1    1    2  501    0  0.16427948599E+03 -0.11361135479E+03 -0.11245292477E+04  0.11421301670E+04  0.00000000000E+00 0.  1.
<mgrwt>
<rscale>  4 0.27865862E+03</rscale>
<asrwt>0</asrwt>
<pdfrwt beam="1">  1       21 0.15403221E-01 0.27865862E+03</pdfrwt>
<pdfrwt beam="2">  1        1 0.22899590E+00 0.27865862E+03</pdfrwt>
<totfact> 0.29832559E+03</totfact>
</mgrwt>
</event>
<event>
 5    0  0.2947253E-001  0.2760472E+03  0.7546771E-02  0.1097868E+00
          1   -1    0    0  502    0 -0.00000000000E+00  0.00000000000E+00  0.11109452042E+04  0.11109452042E+04  0.00000000000E+00 0. -1.
         21   -1    0    0  503  502  0.00000000000E+00 -0.00000000000E+00 -0.71550990263E+02  0.71550990263E+02  0.00000000000E+00 0. -1.
         25    1    1    2    0    0 -0.10992973888E+03 -0.22021012854E+03  0.33936505172E+03  0.43745935414E+03  0.12500000000E+03 0.  0.
         21    1    1    2  503  501  0.22246176771E+02  0.89049415349E+02  0.18726339503E+03  0.20854800377E+03  0.00000000000E+00 0. -1.
          1    1    1    2  501    0  0.87683562107E+02  0.13116071319E+03  0.51276576714E+03  0.53648883651E+03  0.00000000000E+00 0. -1.
<mgrwt>
<rscale>  4 0.27604718E+03</rscale>
<asrwt>0</asrwt>
<pdfrwt beam="1">  1       21 0.11007845E-01 0.27604718E+03</pdfrwt>
<pdfrwt beam="2">  1        1 0.17091463E+00 0.27604718E+03</pdfrwt>
<totfact> 0.99941485E+03</totfact>
</mgrwt>
</event>
<event>
 5    0  0.2947253E-001  0.3983955E+03  0.7546771E-02  0.1044337E+00
         21   -1    0    0  503  502  0.00000000000E+00  0.00000000000E+00  0.22031264379E+03  0.22031264379E+03  0.00000000000E+00 0.  1.
          3   -1    0    0  502    0 -0.00000000000E+00 -0.00000000000E+00 -0.71260280787E+03  0.71260280787E+03  0.00000000000E+00 0.  1.
         25    1    1    2    0    0  0.21415560212E+03 -0.31181943513E+03 -0.22575247550E+03  0.45791174067E+03  0.12500000000E+03 0.  0.
         21    1    1    2  503  501 -0.71805250879E+02  0.17524687003E+03 -0.17369495703E+03  0.25697742626E+03  0.00000000000E+00 0.  1.
          3    1    1    2  501    0 -0.14235035124E+03  0.13657256510E+03 -0.92842731540E+02  0.21802628474E+03  0.00000000000E+00 0.  1.
<mgrwt>
<rscale>  4 0.39839551E+03</rscale>
<asrwt>0</asrwt>
<pdfrwt beam="1">  1       21 0.33894254E-01 0.39839551E+03</pdfrwt>
<pdfrwt beam="2">  1        3 0.10963120E+00 0.39839551E+03</pdfrwt>
<totfact> 0.29315481E+02</totfact>
</mgrwt>
</event>
<event>
 5    0  0.2947253E-001  0.2759854E+03  0.7546771E-02  0.1097902E+00
          1   -1    0    0  502    0 -0.00000000000E+00  0.00000000000E+00  0.23973243558E+03  0.23973243558E+03  0.00000000000E+00 0.  1.
         21   -1    0    0  503  502  0.00000000000E+00 -0.00000000000E+00 -0.43600908933E+03  0.43600908933E+03  0.00000000000E+00 0.  1.
         25    1    1    2    0    0  0.16200960842E+03  0.18902112742E+03 -0.28205754917E+03  0.39643102916E+03  0.12500000000E+03 0.  0.
         21    1    1    2  503  501  0.74855122194E+01 -0.22075187412E+02 -0.63955164185E+01  0.24171251989E+02  0.00000000000E+00 0.  1.
          1    1    1    2  501    0 -0.16949512064E+03 -0.16694594001E+03  0.92176411848E+02  0.25513924376E+03  0.00000000000E+00 0.  1.
<mgrwt>
<rscale>  4 0.27598536E+03</rscale>
<asrwt>0</asrwt>
<pdfrwt beam="1">  1       21 0.67078321E-01 0.27598536E+03</pdfrwt>
<pdfrwt beam="2">  1        1 0.36881914E-01 0.27598536E+03</pdfrwt>
<totfact> 0.25100072E+03</totfact>
</mgrwt>
</event>
<event>
 5    0  0.2947253E-001  0.3972881E+03  0.7546771E-02  0.1053253E+00
         21   -1    0    0  501  502  0.00000000000E+00  0.00000000000E+00  0.62471263001E+03  0.62471263001E+03  0.00000000000E+00 0. -1.
         -3   -1    0    0    0  501 -0.00000000000E+00 -0.00000000000E+00 -0.77541575222E+03  0.77541575222E+03  0.00000000000E+00 0. -1.
         25    1    1    2    0    0  0.19761355595E+03 -0.20552173194E+03  0.52843659145E+03  0.61331927328E+03  0.12500000000E+03 0.  0.
         21    1    1    2  501  501 -0.22331528103E+03  0.17213498939E+03 -0.68819316357E+03  0.74371365437E+03  0.00000000000E+00 0. -1.
         -3    1    1    2    0  502  0.25701725077E+02  0.33386742543E+02  0.90534499090E+01  0.43095454572E+02  0.00000000000E+00 0. -1.
<mgrwt>
<rscale>  4 0.37379045E+03</rscale>
<asrwt>0</asrwt>
<pdfrwt beam="1">  1       21 0.96109636E-01 0.39728809E+03</pdfrwt>
<pdfrwt beam="2">  1       -3 0.11929473E+00 0.39728809E+03</pdfrwt>
<totfact> 0.24689220E+01</totfact>
</mgrwt>
</event>
<event>
 5    0  0.2947253E-001  0.2338036E+03  0.7546771E-02  0.1123991E+00
          4   -1    0    0  502    0 -0.00000000000E+00  0.00000000000E+00  0.55315827908E+03  0.55315827908E+03  0.00000000000E+00 0.  1.
         21   -1    0    0  503  502  0.00000000000E+00 -0.00000000000E+00 -0.28565928662E+03  0.28565928662E+03  0.00000000000E+00 0. -1.
         25    1    1    2    0    0 -0.72622548859E+02 -0.19801523339E+03 -0.18950780609E+03  0.30987461308E+03  0.12500000000E+03 0.  0.
         21    1    1    2  503  501 -0.34926745596E+02  0.10949367601E+03  0.13008217418E+03  0.17358028311E+03  0.00000000000E+00 0. -1.
          4    1    1    2  501    0  0.10754929446E+03  0.88521557387E+02  0.32692462438E+03  0.35536266952E+03  0.00000000000E+00 0.  1.
<mgrwt>
<rscale>  4 0.23380359E+03</rscale>
<asrwt>0</asrwt>
<pdfrwt beam="1">  1       21 0.43947583E-01 0.23380359E+03</pdfrwt>
<pdfrwt beam="2">  1        4 0.85101274E-01 0.23380359E+03</pdfrwt>
<totfact> 0.25738792E+02</totfact>
</mgrwt>
</event>
<event>
 5    0  0.3050299E-001  0.3687396E+03  0.7546771E-02  0.1055176E+00
          2   -1    0    0  502    0 -0.00000000000E+00  0.00000000000E+00  0.49065776930E+03  0.49065776930E+03  0.00000000000E+00 0. -1.
         21   -1    0    0  503  502  0.00000000000E+00 -0.00000000000E+00 -0.32854689298E+03  0.32854689298E+03  0.00000000000E+00 0.  1.
         25    1    1    2    0    0 -0.34684633596E+03 -0.64453750437E+01 -0.98214932296E+02  0.38159546192E+03  0.12500000000E+03 0.  0.
         21    1    1    2  503  501  0.15717129957E+02  0.12608716415E+02  0.10213906362E+02  0.22590524272E+02  0.00000000000E+00 0. -1.
          2    1    1    2  501    0  0.33112920601E+03 -0.61633413711E+01  0.25011190226E+03  0.41501867608E+03  0.00000000000E+00 0. -1.
<mgrwt>
<rscale>  4 0.36873964E+03</rscale>
<asrwt>0</asrwt>
<pdfrwt beam="1">  1       21 0.50545676E-01 0.36873964E+03</pdfrwt>
<pdfrwt beam="2">  1        2 0.75485811E-01 0.36873964E+03</pdfrwt>
<totfact> 0.28153401E+03</totfact>
</mgrwt>
</event>
<event>
 5    0  0.2947253E-001  0.2106976E+03  0.7546771E-02  0.1141015E+00
         -1   -1    0    0    0  501 -0.00000000000E+00  0.00000000000E+00  0.89119370540E+03  0.89119370540E+03  0.00000000000E+00 0. -1.
         21   -1    0    0  501  502  0.00000000000E+00 -0.00000000000E+00 -0.80608253092E+02  0.80608253092E+02  0.00000000000E+00 0. -1.
         25    1    1    2    0    0 -0.29528005479E+02 -0.22700185882E+03  0.34262867088E+03  0.43060556560E+03  0.12500000000E+03 0.  0.
         21    1    1    2  501  501 -0.58288225840E+02  0.11545031421E+03  0.24052344493E+03  0.27308939907E+03  0.00000000000E+00 0. -1.
         -1    1    1    2    0  502  0.87816231320E+02  0.11155154461E+03  0.22743333650E+03  0.26810699383E+03  0.00000000000E+00 0. -1.
<mgrwt>
<rscale>  4 0.21069763E+03</rscale>
<asrwt>0</asrwt>
<pdfrwt beam="1">  1       21 0.12401270E-01 0.21069763E+03</pdfrwt>
<pdfrwt beam="2">  1       -1 0.13710672E+00 0.21069763E+03</pdfrwt>
<totfact> 0.24790826E+03</totfact>
</mgrwt>
</event>
<event>
 5    0  0.2947253E-001  0.2630485E+03  0.7546771E-02  0.1105325E+00
          2   -1    0    0  502    0 -0.00000000000E+00  0.00000000000E+00  0.15458352908E+04  0.15458352908E+04  0.00000000000E+00 0.  1.
         21   -1    0    0  503  502  0.00000000000E+00 -0.00000000000E+00 -0.26354059427E+03  0.26354059427E+03  0.00000000000E+00 0. -1.
         25    1    1    2    0    0  0.13291571987E+03 -0.18948073434E+03 -0.18599611080E+03  0.32216314269E+03  0.12500000000E+03 0.  0.
         21    1    1    2  503  501 -0.10215289420E+03  0.12148935031E+03  0.87914814726E+03  0.89336237937E+03  0.00000000000E+00 0.  1.
          2    1    1    2  501    0 -0.30762825669E+02  0.67991384035E+02  0.58914266006E+03  0.59385036301E+03  0.00000000000E+00 0.  1.
<mgrwt>
<rscale>  4 0.26304855E+03</rscale>
<asrwt>0</asrwt>
<pdfrwt beam="1">  1       21 0.40544708E-01 0.26304855E+03</pdfrwt>
<pdfrwt beam="2">  1        2 0.23782081E+00 0.26304855E+03</pdfrwt>
<totfact> 0.93405263E+02</totfact>
</mgrwt>
</event>
<event>
 5    0  0.2947253E-001  0.2409503E+03  0.7546771E-02  0.1119161E+00
          4   -1    0    0  502    0 -0.00000000000E+00  0.00000000000E+00  0.23374309011E+03  0.23374309011E+03  0.00000000000E+00 0.  1.
         21   -1    0    0  503  502  0.00000000000E+00 -0.00000000000E+00 -0.75949860925E+03  0.75949860925E+03  0.00000000000E+00 0.  1.
         25    1    1    2    0    0  0.27872558496E+02 -0.22270263852E+03 -0.65404926921E+03  0.70269395278E+03  0.12500000000E+03 0.  0.
         21    1    1    2  503  501  0.48872758787E+02  0.10118153143E+03  0.83528153165E+02  0.14001143248E+03  0.00000000000E+00 0.  1.
          4    1    1    2  501    0 -0.76745317283E+02  0.12152110709E+03  0.44765596908E+02  0.15053631409E+03  0.00000000000E+00 0.  1.
<mgrwt>
<rscale>  4 0.24095028E+03</rscale>
<asrwt>0</asrwt>
<pdfrwt beam="1">  1       21 0.11684594E+00 0.24095028E+03</pdfrwt>
<pdfrwt beam="2">  1        4 0.35960475E-01 0.24095028E+03</pdfrwt>
<totfact> 0.17575189E+02</totfact>
</mgrwt>
</event>
<event>
 5    0  0.2947253E-001  0.3727180E+03  0.7546771E-02  0.1053659E+00
          3   -1    0    0  502    0 -0.00000000000E+00  0.00000000000E+00  0.40266310511E+03  0.40266310511E+03  0.00000000000E+00 0.  1.
         21   -1    0    0  503  502  0.00000000000E+00 -0.00000000000E+00 -0.57592004471E+03  0.57592004471E+03  0.00000000000E+00 0.  1.
         25    1    1    2    0    0  0.25495535042E+03 -0.24143632358E+03 -0.40757333436E+03  0.55229951288E+03  0.12500000000E+03 0.  0.
         21    1    1    2  503  501 -0.29985033230E+02  0.32471801847E+02  0.81785574209E+01  0.44948959214E+02  0.00000000000E+00 0. -1.
          3    1    1    2  501    0 -0.22497031719E+03  0.20896452173E+03  0.22613783734E+03  0.38133467772E+03  0.00000000000E+00 0.  1.
<mgrwt>
<rscale>  4 0.37271803E+03</rscale>
<asrwt>0</asrwt>
<pdfrwt beam="1">  1       21 0.88603084E-01 0.37271803E+03</pdfrwt>
<pdfrwt beam="2">  1        3 0.61948170E-01 0.37271803E+03</pdfrwt>
<totfact> 0.13197214E+02</totfact>
</mgrwt>
</event>
<event>
 5    0  0.2947253E-001  0.3113919E+03  0.7546771E-02  0.1079681E+00
         -3   -1    0    0    0  501 -0.00000000000E+00  0.00000000000E+00  0.43560690986E+03  0.43560690986E+03  0.00000000000E+00 0.  1.
         21   -1    0    0  501  502  0.00000000000E+00 -0.00000000000E+00 -0.35583877737E+03  0.35583877737E+03  0.00000000000E+00 0.  1.
         25    1    1    2    0    0  0.65386220025E+00 -0.32883767553E+03 -0.24055093455E+01  0.35180311377E+03  0.12500000000E+03 0.  0.
         21    1    1    2  501  501  0.99145723226E+02  0.83585704272E+02  0.11437623900E+03  0.17291144681E+03  0.00000000000E+00 0.  1.
         -3    1    1    2    0  502 -0.99799585426E+02  0.24525197126E+03 -0.32202597156E+02  0.26673112665E+03  0.00000000000E+00 0.  1.
<mgrwt>
<rscale>  4 0.31139191E+03</rscale>
<asrwt>0</asrwt>
<pdfrwt beam="1">  1       21 0.54744427E-01 0.31139191E+03</pdfrwt>
<pdfrwt beam="2">  1       -3 0.67016448E-01 0.31139191E+03</pdfrwt>
<totfact> 0.33163158E+02</totfact>
</mgrwt>
</event>
<event>
 5    0  0.2947253E-001  0.3112426E+03  0.7546771E-02  0.1079752E+00
         21   -1    0    0  503  502  0.00000000000E+00  0.00000000000E+00  0.23416152589E+03  0.23416152589E+03  0.00000000000E+00 0. -1.
          2   -1    0    0  502    0 -0.00000000000E+00 -0.00000000000E+00 -0.57307771319E+03  0.57307771319E+03  0.00000000000E+00 0. -1.
         25    1    1    2    0    0 -0.27590388979E+03  0.71582018915E+02  0.55366026118E+02  0.31612867425E+03  0.12500000000E+03 0.  0.
         21    1    1    2  503  501  0.14413151913E+03 -0.46574325745E+02 -0.26257507145E+03  0.30313154038E+03  0.00000000000E+00 0.  1.
          2    1    1    2  501    0  0.13177237066E+03 -0.25007693170E+02 -0.13170714196E+03  0.18797902444E+03  0.00000000000E+00 0. -1.
<mgrwt>
<rscale>  4 0.31124258E+03</rscale>
<asrwt>0</asrwt>
<pdfrwt beam="1">  1       21 0.36024850E-01 0.31124258E+03</pdfrwt>
<pdfrwt beam="2">  1        2 0.88165801E-01 0.31124258E+03</pdfrwt>
<totfact> 0.48050300E+03</totfact>
</mgrwt>
</event>
<event>
 5    0  0.2947253E-001  0.3676610E+03  0.7546771E-02  0.1055591E+00
          2   -1    0    0  502    0 -0.00000000000E+00  0.00000000000E+00  0.47456929317E+03  0.47456929317E+03  0.00000000000E+00 0.  1.
         21   -1    0    0  503  502  0.00000000000E+00 -0.00000000000E+00 -0.77234060686E+03  0.77234060686E+03  0.00000000000E+00 0. -1.
         25    1    1    2    0    0 -0.22447020896E+02 -0.35130369288E+03 -0.62912325378E+03  0.73166879244E+03  0.12500000000E+03 0.  0.
         21    1    1    2  503  501  0.58186139592E+02  0.49019665009E+02  0.17585130413E+02  0.78088355149E+02  0.00000000000E+00 0.  1.
          2    1    1    2  501    0 -0.35739118696E+02  0.30228402787E+03  0.31376680968E+03  0.43715275244E+03  0.00000000000E+00 0.  1.
<mgrwt>
<rscale>  4 0.36766103E+03</rscale>
<asrwt>0</asrwt>
<pdfrwt beam="1">  1       21 0.11882163E+00 0.36766103E+03</pdfrwt>
<pdfrwt beam="2">  1        2 0.73010661E-01 0.36766103E+03</pdfrwt>
<totfact> 0.41077801E+02</totfact>
</mgrwt>
</event>
<event>
 5    0  0.2947253E-001  0.2554448E+03  0.7546771E-02  0.1109911E+00
         21   -1    0    0  503  502  0.00000000000E+00  0.00000000000E+00  0.16384737494E+03  0.16384737494E+03  0.00000000000E+00 0.  1.
          1   -1    0    0  502    0 -0.00000000000E+00 -0.00000000000E+00 -0.17498105268E+04  0.17498105268E+04  0.00000000000E+00 0.  1.
         25    1    1    2    0    0 -0.19590895532E+03 -0.10886840615E+03  0.38192770323E+02  0.25945391949E+03  0.12500000000E+03 0.  0.
         21    1    1    2  503  501  0.14595530096E+03  0.16860541169E+03 -0.96329164368E+03  0.98876768025E+03  0.00000000000E+00 0.  1.
          1    1    1    2  501    0  0.49953654362E+02 -0.59737005543E+02 -0.66086427850E+03  0.66543630199E+03  0.00000000000E+00 0.  1.
<mgrwt>
<rscale>  4 0.25544481E+03</rscale>
<asrwt>0</asrwt>
<pdfrwt beam="1">  1       21 0.25207289E-01 0.25544481E+03</pdfrwt>
<pdfrwt beam="2">  1        1 0.26920161E+00 0.25544481E+03</pdfrwt>
<totfact> 0.80382299E+02</totfact>
</mgrwt>
</event>
<event>
 5    0  0.2947253E-001  0.2748785E+03  0.7546771E-02  0.1098520E+00
          3   -1    0    0  502    0 -0.00000000000E+00  0.00000000000E+00  0.80258827735E+03  0.80258827735E+03  0.00000000000E+00 0. -1.
         21   -1    0    0  503  502  0.00000000000E+00 -0.00000000000E+00 -0.19879308003E+03  0.19879308003E+03  0.00000000000E+00 0. -1.
         25    1    1    2    0    0 -0.16488248660E+03  0.18096121933E+03 -0.67864324209E+02  0.28313206069E+03  0.12500000000E+03 0.  0.
         21    1    1    2  503  501  0.18065542273E+02 -0.51582973681E+02  0.99102568813E+02  0.11317458256E+03  0.00000000000E+00 0. -1.
          3    1    1    2  501    0  0.14681694432E+03 -0.12937824565E+03  0.57255695271E+03  0.60507471413E+03  0.00000000000E+00 0. -1.
<mgrwt>
<rscale>  4 0.27487851E+03</rscale>
<asrwt>0</asrwt>
<pdfrwt beam="1">  1       21 0.30583551E-01 0.27487851E+03</pdfrwt>
<pdfrwt beam="2">  1        3 0.12347512E+00 0.27487851E+03</pdfrwt>
<totfact> 0.27623197E+02</totfact>
</mgrwt>
</event>
<event>
 5    0  0.2947253E-001  0.2500334E+03  0.7546771E-02  0.1113284E+00
         -3   -1    0    0    0  501 -0.00000000000E+00  0.00000000000E+00  0.15891554240E+03  0.15891554240E+03  0.00000000000E+00 0. -1.
         21   -1    0    0  501  502  0.00000000000E+00 -0.00000000000E+00 -0.49719830472E+03  0.49719830472E+03  0.00000000000E+00 0. -1.
         25    1    1    2    0    0 -0.26086249801E+02 -0.23587218746E+03 -0.25622911762E+03  0.37093738281E+03  0.12500000000E+03 0.  0.
         21    1    1    2  501  501 -0.10545086695E+02  0.42677643892E+02  0.35127334855E+02  0.56271749534E+02  0.00000000000E+00 0.  1.
         -3    1    1    2    0  502  0.36631336495E+02  0.19319454357E+03 -0.11718097955E+03  0.22890471478E+03  0.00000000000E+00 0. -1.
<mgrwt>
<rscale>  4 0.25003340E+03</rscale>
<asrwt>0</asrwt>
<pdfrwt beam="1">  1       21 0.76492047E-01 0.25003340E+03</pdfrwt>
<pdfrwt beam="2">  1       -3 0.24448545E-01 0.25003340E+03</pdfrwt>
<totfact> 0.11650627E+03</totfact>
</mgrwt>
</event>
<event>
 5    0  0.2947253E-001  0.3402101E+03  0.7546771E-02  0.1067059E+00
          2   -1    0    0  502    0 -0.00000000000E+00  0.00000000000E+00  0.94040487758E+03  0.94040487758E+03  0.00000000000E+00 0.  1.
         21   -1    0    0  503  502  0.00000000000E+00 -0.00000000000E+00 -0.12960293538E+03  0.12960293538E+03  0.00000000000E+00 0.  1.
         25    1    1    2    0    0 -0.31285945831E+03  0.18923776438E+01  0.27300889184E+03  0.43363980072E+03  0.12500000000E+03 0.  0.
         21    1    1    2  503  501  0.15873940284E+03  0.64593780821E+02  0.24751709403E+03  0.30105691550E+03  0.00000000000E+00 0.  1.
          2    1    1    2  501    0  0.15412005547E+03 -0.66486158465E+02  0.29027595633E+03  0.33531109673E+03  0.00000000000E+00 0.  1.
<mgrwt>
<rscale>  4 0.33938250E+03</rscale>
<asrwt>0</asrwt>
<pdfrwt beam="1">  1       21 0.19938914E-01 0.34021006E+03</pdfrwt>
<pdfrwt beam="2">  1        2 0.14467767E+00 0.34021006E+03</pdfrwt>
<totfact> 0.81236604E+03</totfact>
</mgrwt>
</event>
<event>
 5    0  0.2947253E-001  0.2548282E+03  0.7546771E-02  0.1110291E+00
          2   -1    0    0  502    0 -0.00000000000E+00  0.00000000000E+00  0.74052743562E+03  0.74052743562E+03  0.00000000000E+00 0. -1.
         21   -1    0    0  503  502  0.00000000000E+00 -0.00000000000E+00 -0.11242782562E+03  0.11242782562E+03  0.00000000000E+00 0. -1.
         25    1    1    2    0    0 -0.18287172114E+03  0.17867215853E+03  0.24000324426E+03  0.37227995364E+03  0.12500000000E+03 0.  0.
         21    1    1    2  503  501  0.10800260035E+03 -0.16440831985E+03  0.21425532931E+03  0.29086079739E+03  0.00000000000E+00 0. -1.
          2    1    1    2  501    0  0.74869120787E+02 -0.14263838674E+02  0.17384103643E+03  0.18981451021E+03  0.00000000000E+00 0. -1.
<mgrwt>
<rscale>  4 0.25482817E+03</rscale>
<asrwt>0</asrwt>
<pdfrwt beam="1">  1       21 0.17296589E-01 0.25482817E+03</pdfrwt>
<pdfrwt beam="2">  1        2 0.11392729E+00 0.25482817E+03</pdfrwt>
<totfact> 0.14732490E+04</totfact>
</mgrwt>
</event>
<event>
 5    0  0.2947253E-001  0.4034280E+03  0.7546771E-02  0.1042913E+00
         21   -1    0    0  503  502  0.00000000000E+00  0.00000000000E+00  0.73683337553E+02  0.73683337553E+02  0.00000000000E+00 0. -1.
          1   -1    0    0  502    0 -0.00000000000E+00 -0.00000000000E+00 -0.25792663667E+04  0.25792663667E+04  0.00000000000E+00 0.  1.
         25    1    1    2    0    0 -0.63579980498E+02  0.37437777644E+03 -0.73193854023E+03  0.83400249405E+03  0.12500000000E+03 0.  0.
         21    1    1    2  503  501  0.55643254455E+02 -0.99328469274E+02 -0.32407031574E+03  0.34348782528E+03  0.00000000000E+00 0.  1.
          1    1    1    2  501    0  0.79367260426E+01 -0.27504930717E+03 -0.14495741732E+04  0.14754593849E+04  0.00000000000E+00 0.  1.
<mgrwt>
<rscale>  4 0.40251357E+03</rscale>
<asrwt>0</asrwt>
<pdfrwt beam="1">  1       21 0.11335901E-01 0.40342804E+03</pdfrwt>
<pdfrwt beam="2">  1        1 0.39681011E+00 0.40342804E+03</pdfrwt>
<totfact> 0.95429051E+02</totfact>
</mgrwt>
</event>
<event>
 5    0  0.2947253E-001  0.2830592E+03  0.7546771E-02  0.1094030E+00
          2   -1    0    0  502    0 -0.00000000000E+00  0.00000000000E+00  0.33235538114E+04  0.33235538114E+04  0.00000000000E+00 0.  1.
         21   -1    0    0  503  502  0.00000000000E+00 -0.00000000000E+00 -0.15551796952E+03  0.15551796952E+03  0.00000000000E+00 0.  1.
         25    1    1    2    0    0 -0.24600461854E+03  0.91306324799E+00  0.11715915071E+02  0.27619081935E+03  0.12500000000E+03 0.  0.
         21    1    1    2  503  501  0.31383979710E+03 -0.14358746716E+01  0.10605287103E+04  0.11059921452E+04  0.00000000000E+00 0.  1.
          2    1    1    2  501    0 -0.67835178558E+02  0.52281142365E+00  0.20957912166E+04  0.20968888164E+04  0.00000000000E+00 0.  1.
<mgrwt>
<rscale>  4 0.28305922E+03</rscale>
<asrwt>0</asrwt>
<pdfrwt beam="1">  1       21 0.23925844E-01 0.28305922E+03</pdfrwt>
<pdfrwt beam="2">  1        2 0.51131592E+00 0.28305922E+03</pdfrwt>
<totfact> 0.26776057E+02</totfact>
</mgrwt>
</event>
<event>
 5    0  0.2947253E-001  0.3211414E+03  0.7546771E-02  0.1075125E+00
          1   -1    0    0  502    0 -0.00000000000E+00  0.00000000000E+00  0.36353201319E+03  0.36353201319E+03  0.00000000000E+00 0.  1.
         21   -1    0    0  503  502  0.00000000000E+00 -0.00000000000E+00 -0.54568083863E+03  0.54568083863E+03  0.00000000000E+00 0.  1.
         25    1    1    2    0    0  0.13009165734E+03  0.26772347645E+03 -0.40407482628E+03  0.51720514729E+03  0.12500000000E+03 0.  0.
         21    1    1    2  503  501  0.23419772729E+02 -0.23353897257E+02  0.35088661886E+02  0.48219337042E+02  0.00000000000E+00 0.  1.
          1    1    1    2  501    0 -0.15351143007E+03 -0.24436957919E+03  0.18683733896E+03  0.34378836749E+03  0.00000000000E+00 0.  1.
<mgrwt>
<rscale>  4 0.32114138E+03</rscale>
<asrwt>0</asrwt>
<pdfrwt beam="1">  1       21 0.83950898E-01 0.32114138E+03</pdfrwt>
<pdfrwt beam="2">  1        1 0.55928002E-01 0.32114138E+03</pdfrwt>
<totfact> 0.87931813E+02</totfact>
</mgrwt>
</event>
<event>
 5    0  0.2947253E-001  0.2485499E+03  0.7546771E-02  0.1114225E+00
          2   -1    0    0  502    0 -0.00000000000E+00  0.00000000000E+00  0.14463680991E+04  0.14463680991E+04  0.00000000000E+00 0. -1.
         21   -1    0    0  503  502  0.00000000000E+00 -0.00000000000E+00 -0.22450421935E+03  0.22450421935E+03  0.00000000000E+00 0.  1.
         25    1    1    2    0    0 -0.17646989392E+03  0.17815342220E+03 -0.10422278877E+03  0.29894423393E+03  0.12500000000E+03 0.  0.
         21    1    1    2  503  501  0.32521986490E+02 -0.20741739139E+02  0.11646970264E+02  0.40293315377E+02  0.00000000000E+00 0.  1.
          2    1    1    2  501    0  0.14394790743E+03 -0.15741168306E+03  0.13144396983E+04  0.13316347692E+04  0.00000000000E+00 0. -1.
<mgrwt>
<rscale>  4 0.24854986E+03</rscale>
<asrwt>0</asrwt>
<pdfrwt beam="1">  1       21 0.34539112E-01 0.24854986E+03</pdfrwt>
<pdfrwt beam="2">  1        2 0.22251816E+00 0.24854986E+03</pdfrwt>
<totfact> 0.14690434E+03</totfact>
</mgrwt>
</event>
<event>
 5    0  0.2947253E-001  0.2562036E+03  0.7546771E-02  0.1109446E+00
          2   -1    0    0  502    0 -0.00000000000E+00  0.00000000000E+00  0.19349194825E+04  0.19349194825E+04  0.00000000000E+00 0.  1.
         21   -1    0    0  503  502  0.00000000000E+00 -0.00000000000E+00 -0.34168087206E+02  0.34168087206E+02  0.00000000000E+00 0.  1.
         25    1    1    2    0    0 -0.17600897633E+03  0.15513340349E+03  0.10634513112E+04  0.10961748145E+04  0.12500000000E+03 0.  0.
         21    1    1    2  503  501  0.12204889417E+02 -0.16876743975E+02  0.23706596848E+02  0.31556085736E+02  0.00000000000E+00 0.  1.
          2    1    1    2  501    0  0.16380408691E+03 -0.13825665952E+03  0.81359348730E+03  0.84135666953E+03  0.00000000000E+00 0.  1.
<mgrwt>
<rscale>  4 0.25620364E+03</rscale>
<asrwt>0</asrwt>
<pdfrwt beam="1">  1       21 0.52566303E-02 0.25620364E+03</pdfrwt>
<pdfrwt beam="2">  1        2 0.29767983E+00 0.25620364E+03</pdfrwt>
<totfact> 0.25272746E+04</totfact>
</mgrwt>
</event>
<event>
 5    0  0.2947253E-001  0.3665973E+03  0.7546771E-02  0.1056002E+00
         21   -1    0    0  503  502  0.00000000000E+00  0.00000000000E+00  0.14633786769E+04  0.14633786769E+04  0.00000000000E+00 0.  1.
          1   -1    0    0  502    0 -0.00000000000E+00 -0.00000000000E+00 -0.93234059126E+02  0.93234059126E+02  0.00000000000E+00 0.  1.
         25    1    1    2    0    0 -0.30386659471E+03  0.16258428241E+03  0.55381328677E+03  0.66415563904E+03  0.12500000000E+03 0.  0.
         21    1    1    2  503  501  0.71034089929E+02 -0.17936526065E+02  0.28898292691E+03  0.29812529739E+03  0.00000000000E+00 0. -1.
          1    1    1    2  501    0  0.23283250478E+03 -0.14464775635E+03  0.52734840408E+03  0.59433179957E+03  0.00000000000E+00 0.  1.
<mgrwt>
<rscale>  4 0.36659727E+03</rscale>
<asrwt>0</asrwt>
<pdfrwt beam="1">  1       21 0.22513516E+00 0.36659727E+03</pdfrwt>
<pdfrwt beam="2">  1        1 0.14343702E-01 0.36659727E+03</pdfrwt>
<totfact> 0.35850254E+02</totfact>
</mgrwt>
</event>
<event>
 5    0  0.2947253E-001  0.3506867E+03  0.7546771E-02  0.1063613E+00
         21   -1    0    0  503  502  0.00000000000E+00  0.00000000000E+00  0.52979043107E+03  0.52979043107E+03  0.00000000000E+00 0.  1.
          2   -1    0    0  502    0 -0.00000000000E+00 -0.00000000000E+00 -0.10829008956E+04  0.10829008956E+04  0.00000000000E+00 0.  1.
         25    1    1    2    0    0 -0.43924490781E+02 -0.31141162703E+03  0.44252576363E+03  0.55710018293E+03  0.12500000000E+03 0.  0.
         21    1    1    2  503  501  0.21505323228E+02  0.16738856947E+03 -0.76004288563E+03  0.77855417289E+03  0.00000000000E+00 0.  1.
          2    1    1    2  501    0  0.22419167553E+02  0.14402305755E+03 -0.23559334251E+03  0.27703697084E+03  0.00000000000E+00 0.  1.
<mgrwt>
<rscale>  4 0.34758028E+03</rscale>
<asrwt>0</asrwt>
<pdfrwt beam="1">  1       21 0.81506221E-01 0.35068670E+03</pdfrwt>
<pdfrwt beam="2">  1        2 0.16660014E+00 0.35068670E+03</pdfrwt>
<totfact> 0.36059483E+02</totfact>
</mgrwt>
</event>
<event>
 5    0  0.2947253E-001  0.2134075E+03  0.7546771E-02  0.1138896E+00
          2   -1    0    0  502    0 -0.00000000000E+00  0.00000000000E+00  0.20238872997E+03  0.20238872997E+03  0.00000000000E+00 0.  1.
         21   -1    0    0  503  502  0.00000000000E+00 -0.00000000000E+00 -0.45757487857E+03  0.45757487857E+03  0.00000000000E+00 0. -1.
         25    1    1    2    0    0 -0.11238082915E+03 -0.18091017716E+03 -0.31662642132E+03  0.40154107342E+03  0.12500000000E+03 0.  0.
         21    1    1    2  503  501  0.29447238023E+02  0.35093524129E+02 -0.41324952705E+02  0.61696409775E+02  0.00000000000E+00 0. -1.
          2    1    1    2  501    0  0.82933591129E+02  0.14581665303E+03  0.10276522543E+03  0.19672612535E+03  0.00000000000E+00 0.  1.
<mgrwt>
<rscale>  4 0.21340752E+03</rscale>
<asrwt>0</asrwt>
<pdfrwt beam="1">  1       21 0.70396134E-01 0.21340752E+03</pdfrwt>
<pdfrwt beam="2">  1        2 0.31136728E-01 0.21340752E+03</pdfrwt>
<totfact> 0.37680835E+03</totfact>
</mgrwt>
</event>
<event>
 5    0  0.2947253E-001  0.2464444E+03  0.7546771E-02  0.1115573E+00
          2   -1    0    0  502    0 -0.00000000000E+00  0.00000000000E+00  0.43739618299E+03  0.43739618299E+03  0.00000000000E+00 0.  1.
         21   -1    0    0  503  502  0.00000000000E+00 -0.00000000000E+00 -0.20563162449E+03  0.20563162449E+03  0.00000000000E+00 0.  1.
         25    1    1    2    0    0  0.23094410770E+03 -0.90114594014E+02  0.47846252475E+02  0.28172696855E+03  0.12500000000E+03 0.  0.
         21    1    1    2  503  501 -0.40147525014E+02  0.79957401017E+02  0.13854022715E+03  0.16491938722E+03  0.00000000000E+00 0.  1.
          2    1    1    2  501    0 -0.19079658268E+03  0.10157192997E+02  0.45378078870E+02  0.19638145171E+03  0.00000000000E+00 0.  1.
<mgrwt>
<rscale>  4 0.24644439E+03</rscale>
<asrwt>0</asrwt>
<pdfrwt beam="1">  1       21 0.31635635E-01 0.24644439E+03</pdfrwt>
<pdfrwt beam="2">  1        2 0.67291720E-01 0.24644439E+03</pdfrwt>
<totfact> 0.85655259E+03</totfact>
</mgrwt>
</event>
<event>
 5    0  0.2947253E-001  0.2456489E+03  0.7546771E-02  0.1116086E+00
         21   -1    0    0  503  502  0.00000000000E+00  0.00000000000E+00  0.25063264395E+03  0.25063264395E+03  0.00000000000E+00 0. -1.
          2   -1    0    0  502    0 -0.00000000000E+00 -0.00000000000E+00 -0.53510293999E+03  0.53510293999E+03  0.00000000000E+00 0. -1.
         25    1    1    2    0    0 -0.19280577721E+03 -0.71315585106E+02  0.13580078111E+03  0.27627311225E+03  0.12500000000E+03 0.  0.
         21    1    1    2  503  501  0.23528892450E+03  0.65290667082E+02 -0.34234779929E+03  0.42050655747E+03  0.00000000000E+00 0. -1.
          2    1    1    2  501    0 -0.42483147291E+02  0.60249180234E+01 -0.77923277859E+02  0.88955914212E+02  0.00000000000E+00 0. -1.
<mgrwt>
<rscale>  4 0.24564886E+03</rscale>
<asrwt>0</asrwt>
<pdfrwt beam="1">  1       21 0.38558869E-01 0.24564886E+03</pdfrwt>
<pdfrwt beam="2">  1        2 0.82323527E-01 0.24564886E+03</pdfrwt>
<totfact> 0.46077212E+03</totfact>
</mgrwt>
</event>
<event>
 5    0  0.2947253E-001  0.2660469E+03  0.7546771E-02  0.1103564E+00
         21   -1    0    0  503  502  0.00000000000E+00  0.00000000000E+00  0.45455859624E+03  0.45455859624E+03  0.00000000000E+00 0.  1.
          2   -1    0    0  502    0 -0.00000000000E+00 -0.00000000000E+00 -0.27676879292E+03  0.27676879292E+03  0.00000000000E+00 0.  1.
         25    1    1    2    0    0  0.93824226479E+02 -0.21529735873E+03  0.34859539750E+03  0.43851988474E+03  0.12500000000E+03 0.  0.
         21    1    1    2  503  501 -0.67578015892E+02  0.18227358634E+03 -0.12827615996E+03  0.23290603625E+03  0.00000000000E+00 0.  1.
          2    1    1    2  501    0 -0.26246210587E+02  0.33023772393E+02 -0.42529434222E+02  0.59901468166E+02  0.00000000000E+00 0.  1.
<mgrwt>
<rscale>  4 0.26604687E+03</rscale>
<asrwt>0</asrwt>
<pdfrwt beam="1">  1       21 0.69932092E-01 0.26604687E+03</pdfrwt>
<pdfrwt beam="2">  1        2 0.42579814E-01 0.26604687E+03</pdfrwt>
<totfact> 0.26772613E+03</totfact>
</mgrwt>
</event>
<event>
 5    0  0.2947253E-001  0.3523994E+03  0.7546771E-02  0.1061635E+00
         21   -1    0    0  503  502  0.00000000000E+00  0.00000000000E+00  0.25639100383E+03  0.25639100383E+03  0.00000000000E+00 0. -1.
          2   -1    0    0  502    0 -0.00000000000E+00 -0.00000000000E+00 -0.10650787690E+04  0.10650787690E+04  0.00000000000E+00 0. -1.
         25    1    1    2    0    0  0.85828776209E+02 -0.32360655496E+03  0.79479626434E+02  0.36610079521E+03  0.12500000000E+03 0.  0.
         21    1    1    2  503  501 -0.65211724943E+02  0.29615045685E+03 -0.68223376993E+03  0.74659264595E+03  0.00000000000E+00 0. -1.
          2    1    1    2  501    0 -0.20617051266E+02  0.27456098107E+02 -0.20593362169E+03  0.20877633168E+03  0.00000000000E+00 0. -1.
<mgrwt>
<rscale>  4 0.35239939E+03</rscale>
<asrwt>0</asrwt>
<pdfrwt beam="1">  1       21 0.39444769E-01 0.35239939E+03</pdfrwt>
<pdfrwt beam="2">  1        2 0.16385827E+00 0.35239939E+03</pdfrwt>
<totfact> 0.17765367E+03</totfact>
</mgrwt>
</event>
<event>
 5    0  0.2947253E-001  0.3874399E+03  0.7546771E-02  0.1050705E+00
         -4   -1    0    0    0  501 -0.00000000000E+00  0.00000000000E+00  0.43136886522E+03  0.43136886522E+03  0.00000000000E+00 0.  1.
         21   -1    0    0  501  502  0.00000000000E+00 -0.00000000000E+00 -0.34654392191E+03  0.34654392191E+03  0.00000000000E+00 0.  1.
         25    1    1    2    0    0 -0.31160906197E+03  0.13230842525E+03  0.13896878516E+03  0.38670796493E+03  0.12500000000E+03 0.  0.
         21    1    1    2  501  501  0.14267672360E+03 -0.15182091509E+03 -0.71492475748E+02  0.22026668337E+03  0.00000000000E+00 0. -1.
         -4    1    1    2    0  502  0.16893233837E+03  0.19512489835E+02  0.17348633892E+02  0.17093813882E+03  0.00000000000E+00 0.  1.
<mgrwt>
<rscale>  4 0.38062076E+03</rscale>
<asrwt>0</asrwt>
<pdfrwt beam="1">  1       21 0.53314450E-01 0.38743988E+03</pdfrwt>
<pdfrwt beam="2">  1       -4 0.66364441E-01 0.38743988E+03</pdfrwt>
<totfact> 0.29312766E+02</totfact>
</mgrwt>
</event>
<event>
 5    0  0.2947253E-001  0.2400996E+03  0.7546771E-02  0.1119727E+00
         -3   -1    0    0    0  501 -0.00000000000E+00  0.00000000000E+00  0.22956166130E+04  0.22956166130E+04  0.00000000000E+00 0. -1.
         21   -1    0    0  501  502  0.00000000000E+00 -0.00000000000E+00 -0.29386556659E+02  0.29386556659E+02  0.00000000000E+00 0.  1.
         25    1    1    2    0    0  0.14297047446E+03  0.14690897836E+03  0.62550164206E+03  0.67000008113E+03  0.12500000000E+03 0.  0.
         21    1    1    2  501  501 -0.17521498178E+02 -0.62036020282E+02  0.56455988768E+03  0.56822824419E+03  0.00000000000E+00 0. -1.
         -3    1    1    2    0  502 -0.12544897629E+03 -0.84872958075E+02  0.10761685266E+04  0.10867748443E+04  0.00000000000E+00 0. -1.
<mgrwt>
<rscale>  4 0.24009957E+03</rscale>
<asrwt>0</asrwt>
<pdfrwt beam="1">  1       21 0.45210105E-02 0.24009957E+03</pdfrwt>
<pdfrwt beam="2">  1       -3 0.35317165E+00 0.24009957E+03</pdfrwt>
<totfact> 0.36280525E+02</totfact>
</mgrwt>
</event>
<event>
 5    0  0.2947253E-001  0.4407448E+03  0.7546771E-02  0.1030519E+00
          2   -1    0    0  502    0 -0.00000000000E+00  0.00000000000E+00  0.17090656932E+04  0.17090656932E+04  0.00000000000E+00 0. -1.
         21   -1    0    0  503  502  0.00000000000E+00 -0.00000000000E+00 -0.28019101631E+03  0.28019101631E+03  0.00000000000E+00 0. -1.
         25    1    1    2    0    0  0.44682209337E+03  0.11599372580E+03  0.92765655289E+01  0.47834671758E+03  0.12500000000E+03 0.  0.
         21    1    1    2  503  501 -0.36572648367E+02 -0.37705635034E+02  0.31294377595E+02  0.61144186894E+02  0.00000000000E+00 0. -1.
          2    1    1    2  501    0 -0.41024944500E+03 -0.78288090765E+02  0.13883037338E+04  0.14497658051E+04  0.00000000000E+00 0. -1.
<mgrwt>
<rscale>  4 0.44074485E+03</rscale>
<asrwt>0</asrwt>
<pdfrwt beam="1">  1       21 0.43106311E-01 0.44074485E+03</pdfrwt>
<pdfrwt beam="2">  1        2 0.26293318E+00 0.44074485E+03</pdfrwt>
<totfact> 0.62846847E+02</totfact>
</mgrwt>
</event>
<event>
 5    0  0.2947253E-001  0.2646787E+03  0.7546771E-02  0.1104364E+00
          1   -1    0    0  502    0 -0.00000000000E+00  0.00000000000E+00  0.11054897016E+04  0.11054897016E+04  0.00000000000E+00 0. -1.
         21   -1    0    0  503  502  0.00000000000E+00 -0.00000000000E+00 -0.44533392568E+03  0.44533392568E+03  0.00000000000E+00 0.  1.
         25    1    1    2    0    0 -0.22310447275E+03 -0.68221737593E+02 -0.39100886077E+03  0.47216812730E+03  0.12500000000E+03 0.  0.
         21    1    1    2  503  501  0.74746194687E+02  0.17860232996E+02  0.49161967092E+03  0.49759007464E+03  0.00000000000E+00 0. -1.
          1    1    1    2  501    0  0.14835827806E+03  0.50361504597E+02  0.55954496581E+03  0.58106542539E+03  0.00000000000E+00 0. -1.
<mgrwt>
<rscale>  4 0.26467869E+03</rscale>
<asrwt>0</asrwt>
<pdfrwt beam="1">  1       21 0.68512912E-01 0.26467869E+03</pdfrwt>
<pdfrwt beam="2">  1        1 0.17007534E+00 0.26467869E+03</pdfrwt>
<totfact> 0.27929931E+02</totfact>
</mgrwt>
</event>
<event>
 5    0  0.2947253E-001  0.2787639E+03  0.7546771E-02  0.1096366E+00
         21   -1    0    0  503  502  0.00000000000E+00  0.00000000000E+00  0.91775020618E+03  0.91775020618E+03  0.00000000000E+00 0. -1.
          2   -1    0    0  502    0 -0.00000000000E+00 -0.00000000000E+00 -0.13883760009E+03  0.13883760009E+03  0.00000000000E+00 0.  1.
         25    1    1    2    0    0 -0.70709420541E+02  0.23892365663E+03  0.73461432095E+03  0.78572739318E+03  0.12500000000E+03 0.  0.
         21    1    1    2  503  501  0.53166308358E+02 -0.13727422551E+03  0.72255227892E+02  0.16398685097E+03  0.00000000000E+00 0. -1.
          2    1    1    2  501    0  0.17543112184E+02 -0.10164943112E+03 -0.27956942752E+02  0.10687356212E+03  0.00000000000E+00 0.  1.
<mgrwt>
<rscale>  4 0.27876394E+03</rscale>
<asrwt>0</asrwt>
<pdfrwt beam="1">  1       21 0.14119234E+00 0.27876394E+03</pdfrwt>
<pdfrwt beam="2">  1        2 0.21359631E-01 0.27876394E+03</pdfrwt>
<totfact> 0.10603836E+03</totfact>
</mgrwt>
</event>
<event>
 5    0  0.2947253E-001  0.3157380E+03  0.7546771E-02  0.1077628E+00
          1   -1    0    0  502    0 -0.00000000000E+00  0.00000000000E+00  0.20202418007E+04  0.20202418007E+04  0.00000000000E+00 0. -1.
         21   -1    0    0  503  502  0.00000000000E+00 -0.00000000000E+00 -0.33098038211E+03  0.33098038211E+03  0.00000000000E+00 0.  1.
         25    1    1    2    0    0 -0.27550753915E+03 -0.90338544905E+02 -0.24161961178E+03  0.39758080138E+03  0.12500000000E+03 0.  0.
         21    1    1    2  503  501  0.24943971459E+02 -0.12180379476E+01  0.85314092080E+02  0.88894204738E+02  0.00000000000E+00 0. -1.
          1    1    1    2  501    0  0.25056356769E+03  0.91556582853E+02  0.18455669383E+04  0.18647471767E+04  0.00000000000E+00 0. -1.
<mgrwt>
<rscale>  4 0.31573796E+03</rscale>
<asrwt>0</asrwt>
<pdfrwt beam="1">  1       21 0.50920060E-01 0.31573796E+03</pdfrwt>
<pdfrwt beam="2">  1        1 0.31080642E+00 0.31573796E+03</pdfrwt>
<totfact> 0.12599395E+02</totfact>
</mgrwt>
</event>
<event>
 5    0  0.2947253E-001  0.3486552E+03  0.7546771E-02  0.1063168E+00
          2   -1    0    0  502    0 -0.00000000000E+00  0.00000000000E+00  0.16233290042E+03  0.16233290042E+03  0.00000000000E+00 0.  1.
         21   -1    0    0  503  502  0.00000000000E+00 -0.00000000000E+00 -0.25436536456E+04  0.25436536456E+04  0.00000000000E+00 0. -1.
         25    1    1    2    0    0 -0.70591212102E+02 -0.32002055475E+03 -0.23098623676E+04  0.23363401790E+04  0.12500000000E+03 0.  0.
         21    1    1    2  503  501 -0.24626088980E+02  0.32429183132E+02 -0.52043988350E+02  0.66080805840E+02  0.00000000000E+00 0.  1.
          2    1    1    2  501    0  0.95217301082E+02  0.28759137161E+03 -0.19414389258E+02  0.30356556123E+03  0.00000000000E+00 0.  1.
<mgrwt>
<rscale>  4 0.34865520E+03</rscale>
<asrwt>0</asrwt>
<pdfrwt beam="1">  1       21 0.39133131E+00 0.34865520E+03</pdfrwt>
<pdfrwt beam="2">  1        2 0.24974294E-01 0.34865520E+03</pdfrwt>
<totfact> 0.22029001E+01</totfact>
</mgrwt>
</event>
<event>
 5    0  0.2947253E-001  0.2851463E+03  0.7546771E-02  0.1092911E+00
         -1   -1    0    0    0  501 -0.00000000000E+00  0.00000000000E+00  0.14186608373E+04  0.14186608373E+04  0.00000000000E+00 0. -1.
         21   -1    0    0  501  502  0.00000000000E+00 -0.00000000000E+00 -0.20566836020E+03  0.20566836020E+03  0.00000000000E+00 0.  1.
         25    1    1    2    0    0  0.22903460909E+03  0.10489927530E+03 -0.70375269959E+02  0.28989375423E+03  0.12500000000E+03 0.  0.
         21    1    1    2  501  501  0.28884076038E+02  0.54292373459E+02  0.18112005223E+03  0.19127578254E+03  0.00000000000E+00 0.  1.
         -1    1    1    2    0  502 -0.25791868513E+03 -0.15919164876E+03  0.11022476949E+04  0.11431596608E+04  0.00000000000E+00 0. -1.
<mgrwt>
<rscale>  4 0.28514629E+03</rscale>
<asrwt>0</asrwt>
<pdfrwt beam="1">  1       21 0.31641287E-01 0.28514629E+03</pdfrwt>
<pdfrwt beam="2">  1       -1 0.21825551E+00 0.28514629E+03</pdfrwt>
<totfact> 0.11032015E+02</totfact>
</mgrwt>
</event>
<event>
 5    0  0.2947253E-001  0.2411461E+03  0.7546771E-02  0.1119032E+00
         21   -1    0    0  503  502  0.00000000000E+00  0.00000000000E+00  0.23521066505E+02  0.23521066505E+02  0.00000000000E+00 0.  1.
          2   -1    0    0  502    0 -0.00000000000E+00 -0.00000000000E+00 -0.26431086183E+04  0.26431086183E+04  0.00000000000E+00 0. -1.
         25    1    1    2    0    0 -0.16559967081E+03  0.12289509321E+03 -0.81103701132E+03  0.84612793869E+03  0.12500000000E+03 0.  0.
         21    1    1    2  503  501  0.23403049078E+02 -0.17457763795E+02 -0.17919229398E+03  0.18155537570E+03  0.00000000000E+00 0.  1.
          2    1    1    2  501    0  0.14219662173E+03 -0.10543732942E+03 -0.16293582464E+04  0.16389463704E+04  0.00000000000E+00 0. -1.
<mgrwt>
<rscale>  4 0.24114613E+03</rscale>
<asrwt>0</asrwt>
<pdfrwt beam="1">  1       21 0.36186267E-02 0.24114613E+03</pdfrwt>
<pdfrwt beam="2">  1        2 0.40663198E+00 0.24114613E+03</pdfrwt>
<totfact> 0.19922552E+04</totfact>
</mgrwt>
</event>
<event>
 5    0  0.2947253E-001  0.2330309E+03  0.7546771E-02  0.1124524E+00
         21   -1    0    0  503  502  0.00000000000E+00  0.00000000000E+00  0.21717123679E+03  0.21717123679E+03  0.00000000000E+00 0.  1.
          2   -1    0    0  502    0 -0.00000000000E+00 -0.00000000000E+00 -0.10818282324E+04  0.10818282324E+04  0.00000000000E+00 0.  1.
         25    1    1    2    0    0  0.16775071146E+03  0.11591123113E+03  0.13057715991E+03  0.27249056752E+03  0.12500000000E+03 0.  0.
         21    1    1    2  503  501 -0.37036791271E+02 -0.94423897526E+02 -0.25349122406E+03  0.27303002949E+03  0.00000000000E+00 0.  1.
          2    1    1    2  501    0 -0.13071392019E+03 -0.21487333601E+02 -0.74174293144E+03  0.75347887216E+03  0.00000000000E+00 0.  1.
<mgrwt>
<rscale>  4 0.23303093E+03</rscale>
<asrwt>0</asrwt>
<pdfrwt beam="1">  1       21 0.33410959E-01 0.23303093E+03</pdfrwt>
<pdfrwt beam="2">  1        2 0.16643511E+00 0.23303093E+03</pdfrwt>
<totfact> 0.25277330E+03</totfact>
</mgrwt>
</event>
<event>
 5    0  0.2947253E-001  0.2789524E+03  0.7546771E-02  0.1096263E+00
          2   -1    0    0  502    0 -0.00000000000E+00  0.00000000000E+00  0.13360734262E+04  0.13360734262E+04  0.00000000000E+00 0. -1.
         21   -1    0    0  503  502  0.00000000000E+00 -0.00000000000E+00 -0.20375534936E+03  0.20375534936E+03  0.00000000000E+00 0. -1.
         25    1    1    2    0    0 -0.19746911713E+03  0.15230028404E+03 -0.88242905312E+02  0.29257689430E+03  0.12500000000E+03 0.  0.
         21    1    1    2  503  501  0.15134951845E+02 -0.38618903657E+02  0.17626951495E+03  0.18108403681E+03  0.00000000000E+00 0.  1.
          2    1    1    2  501    0  0.18233416529E+03 -0.11368138038E+03  0.10442914672E+04  0.10661678445E+04  0.00000000000E+00 0. -1.
<mgrwt>
<rscale>  4 0.27895238E+03</rscale>
<asrwt>0</asrwt>
<pdfrwt beam="1">  1       21 0.31346978E-01 0.27895238E+03</pdfrwt>
<pdfrwt beam="2">  1        2 0.20554975E+00 0.27895238E+03</pdfrwt>
<totfact> 0.20185864E+03</totfact>
</mgrwt>
</event>
<event>
 5    0  0.2947253E-001  0.2533193E+03  0.7546771E-02  0.1111225E+00
          1   -1    0    0  502    0 -0.00000000000E+00  0.00000000000E+00  0.12225428178E+04  0.12225428178E+04  0.00000000000E+00 0.  1.
         21   -1    0    0  503  502  0.00000000000E+00 -0.00000000000E+00 -0.49634480116E+02  0.49634480116E+02  0.00000000000E+00 0.  1.
         25    1    1    2    0    0  0.15103721138E+02 -0.21981253852E+03  0.63545863078E+03  0.68408942830E+03  0.12500000000E+03 0.  0.
         21    1    1    2  503  501 -0.26283800986E+01  0.17831544624E+03  0.49987477699E+03  0.53073354842E+03  0.00000000000E+00 0.  1.
          1    1    1    2  501    0 -0.12475341040E+02  0.41497092285E+02  0.37574929937E+02  0.57354321215E+02  0.00000000000E+00 0.  1.
<mgrwt>
<rscale>  4 0.25331931E+03</rscale>
<asrwt>0</asrwt>
<pdfrwt beam="1">  1       21 0.76360748E-02 0.25331931E+03</pdfrwt>
<pdfrwt beam="2">  1        1 0.18808349E+00 0.25331931E+03</pdfrwt>
<totfact> 0.15994874E+04</totfact>
</mgrwt>
</event>
<event>
 5    0  0.2947253E-001  0.2406764E+03  0.7546771E-02  0.1119343E+00
          2   -1    0    0  502    0 -0.00000000000E+00  0.00000000000E+00  0.14306985708E+04  0.14306985708E+04  0.00000000000E+00 0. -1.
         21   -1    0    0  503  502  0.00000000000E+00 -0.00000000000E+00 -0.37919013212E+02  0.37919013212E+02  0.00000000000E+00 0. -1.
         25    1    1    2    0    0 -0.13007870162E+02 -0.20525815523E+03  0.86633592882E+03  0.89914573710E+03  0.12500000000E+03 0.  0.
         21    1    1    2  503  501 -0.14416633728E+02  0.17525685195E+03  0.40929380850E+03  0.44547079047E+03  0.00000000000E+00 0. -1.
          2    1    1    2  501    0  0.27424503891E+02  0.30001303274E+02  0.11714982031E+03  0.12400105649E+03  0.00000000000E+00 0. -1.
<mgrwt>
<rscale>  4 0.24067637E+03</rscale>
<asrwt>0</asrwt>
<pdfrwt beam="1">  1       21 0.58336954E-02 0.24067637E+03</pdfrwt>
<pdfrwt beam="2">  1        2 0.22010743E+00 0.24067637E+03</pdfrwt>
<totfact> 0.39154443E+04</totfact>
</mgrwt>
</event>
<event>
 5    0  0.2947253E-001  0.2758393E+03  0.7546771E-02  0.1097983E+00
         21   -1    0    0  503  502  0.00000000000E+00  0.00000000000E+00  0.54099177774E+02  0.54099177774E+02  0.00000000000E+00 0. -1.
          2   -1    0    0  502    0 -0.00000000000E+00 -0.00000000000E+00 -0.22729041613E+04  0.22729041613E+04  0.00000000000E+00 0. -1.
         25    1    1    2    0    0 -0.24293368330E+03 -0.38020333577E+02 -0.37540121221E+03  0.46584696025E+03  0.12500000000E+03 0.  0.
         21    1    1    2  503  501  0.19871497667E+02  0.21729182929E+02 -0.13494110362E+03  0.13811638301E+03  0.00000000000E+00 0. -1.
          2    1    1    2  501    0  0.22306218563E+03  0.16291150649E+02 -0.17084626677E+04  0.17230399958E+04  0.00000000000E+00 0. -1.
<mgrwt>
<rscale>  4 0.27583930E+03</rscale>
<asrwt>0</asrwt>
<pdfrwt beam="1">  1       21 0.83229540E-02 0.27583930E+03</pdfrwt>
<pdfrwt beam="2">  1        2 0.34967741E+00 0.27583930E+03</pdfrwt>
<totfact> 0.75021578E+03</totfact>
</mgrwt>
</event>
<event>
 5    0  0.2947253E-001  0.3381388E+03  0.7546771E-02  0.1067591E+00
         -4   -1    0    0    0  501 -0.00000000000E+00  0.00000000000E+00  0.21268542184E+03  0.21268542184E+03  0.00000000000E+00 0.  1.
         21   -1    0    0  501  502  0.00000000000E+00 -0.00000000000E+00 -0.76337535667E+03  0.76337535667E+03  0.00000000000E+00 0.  1.
         25    1    1    2    0    0 -0.12419361471E+02  0.31125846665E+03 -0.52384142326E+03  0.62215023131E+03  0.12500000000E+03 0.  0.
         21    1    1    2  501  501  0.27152094149E+02  0.11683919493E+02 -0.39548731356E+01  0.29822662740E+02  0.00000000000E+00 0.  1.
         -4    1    1    2    0  502 -0.14732732679E+02 -0.32294238614E+03 -0.22893638435E+02  0.32408788447E+03  0.00000000000E+00 0.  1.
<mgrwt>
<rscale>  4 0.33813881E+03</rscale>
<asrwt>0</asrwt>
<pdfrwt beam="1">  1       21 0.11744236E+00 0.33813881E+03</pdfrwt>
<pdfrwt beam="2">  1       -4 0.32720834E-01 0.33813881E+03</pdfrwt>
<totfact> 0.20481728E+02</totfact>
</mgrwt>
</event>
<event>
 5    0  0.2947253E-001  0.6167582E+03  0.7546771E-02  0.9883501E-01
         21   -1    0    0  503  502  0.00000000000E+00  0.00000000000E+00  0.41472180516E+03  0.41472180516E+03  0.00000000000E+00 0.  1.
          2   -1    0    0  502    0 -0.00000000000E+00 -0.00000000000E+00 -0.21739233952E+04  0.21739233952E+04  0.00000000000E+00 0.  1.
         25    1    1    2    0    0 -0.12173245720E+03 -0.56652662036E+03  0.12521330305E+03  0.60586679556E+03  0.12500000000E+03 0.  0.
         21    1    1    2  503  501 -0.46946626534E+02  0.20385134298E+03 -0.50688797617E+03  0.54835643168E+03  0.00000000000E+00 0. -1.
          2    1    1    2  501    0  0.16867908373E+03  0.36267527737E+03 -0.13775269169E+04  0.14344219731E+04  0.00000000000E+00 0.  1.
<mgrwt>
<rscale>  4 0.61067599E+03</rscale>
<asrwt>0</asrwt>
<pdfrwt beam="1">  1       21 0.63803355E-01 0.61675823E+03</pdfrwt>
<pdfrwt beam="2">  1        2 0.33444975E+00 0.61675823E+03</pdfrwt>
<totfact> 0.14400370E+02</totfact>
</mgrwt>
</event>
<event>
 5    0  0.2947253E-001  0.4273474E+03  0.7546771E-02  0.1035344E+00
         21   -1    0    0  503  502  0.00000000000E+00  0.00000000000E+00  0.22935105090E+04  0.22935105090E+04  0.00000000000E+00 0.  1.
          2   -1    0    0  502    0 -0.00000000000E+00 -0.00000000000E+00 -0.22598188345E+04  0.22598188345E+04  0.00000000000E+00 0. -1.
         25    1    1    2    0    0  0.12656616433E+03  0.37975148022E+03  0.22537918989E+04  0.22924731414E+04  0.12500000000E+03 0.  0.
         21    1    1    2  503  501 -0.47996018156E+02 -0.10127288629E+03 -0.10303075588E+04  0.10363848131E+04  0.00000000000E+00 0. -1.
          2    1    1    2  501    0 -0.78570146172E+02 -0.27847859393E+03 -0.11897926656E+04  0.12244713889E+04  0.00000000000E+00 0. -1.
<mgrwt>
<rscale>  4 0.42533406E+03</rscale>
<asrwt>0</asrwt>
<pdfrwt beam="1">  1       21 0.35284777E+00 0.42734735E+03</pdfrwt>
<pdfrwt beam="2">  1        2 0.34766444E+00 0.42734735E+03</pdfrwt>
<totfact> 0.87208411E-01</totfact>
</mgrwt>
</event>
<event>
 5    0  0.2947253E-001  0.2815989E+03  0.7546771E-02  0.1094819E+00
          2   -1    0    0  502    0 -0.00000000000E+00  0.00000000000E+00  0.34571004026E+03  0.34571004026E+03  0.00000000000E+00 0.  1.
         21   -1    0    0  503  502  0.00000000000E+00 -0.00000000000E+00 -0.39150509296E+03  0.39150509296E+03  0.00000000000E+00 0. -1.
         25    1    1    2    0    0  0.18983544661E+03  0.16623907038E+03  0.22744630090E+03  0.36198031039E+03  0.12500000000E+03 0.  0.
         21    1    1    2  503  501 -0.27357528896E+02 -0.54274722853E+01 -0.38827066693E+02  0.47806202011E+02  0.00000000000E+00 0.  1.
          2    1    1    2  501    0 -0.16247791772E+03 -0.16081159810E+03 -0.23441428691E+03  0.32742862083E+03  0.00000000000E+00 0.  1.
<mgrwt>
<rscale>  4 0.28159887E+03</rscale>
<asrwt>0</asrwt>
<pdfrwt beam="1">  1       21 0.60231552E-01 0.28159887E+03</pdfrwt>
<pdfrwt beam="2">  1        2 0.53186161E-01 0.28159887E+03</pdfrwt>
<totfact> 0.29074035E+03</totfact>
</mgrwt>
</event>
<event>
 5    0  0.2947253E-001  0.2662439E+03  0.7546771E-02  0.1103449E+00
          2   -1    0    0  502    0 -0.00000000000E+00  0.00000000000E+00  0.14060478311E+04  0.14060478311E+04  0.00000000000E+00 0.  1.
         21   -1    0    0  503  502  0.00000000000E+00 -0.00000000000E+00 -0.16859468682E+03  0.16859468682E+03  0.00000000000E+00 0.  1.
         25    1    1    2    0    0 -0.14543561719E+03  0.20956565979E+03  0.41094664959E+02  0.28702448676E+03  0.12500000000E+03 0.  0.
         21    1    1    2  503  501 -0.82392017923E+02 -0.13958901261E+03  0.17381174757E+03  0.23766375544E+03  0.00000000000E+00 0.  1.
          2    1    1    2  501    0  0.22782763512E+03 -0.69976647177E+02  0.10225467318E+04  0.10499542757E+04  0.00000000000E+00 0.  1.
<mgrwt>
<rscale>  4 0.26624390E+03</rscale>
<asrwt>0</asrwt>
<pdfrwt beam="1">  1       21 0.25937645E-01 0.26624390E+03</pdfrwt>
<pdfrwt beam="2">  1        2 0.21631504E+00 0.26624390E+03</pdfrwt>
<totfact> 0.26890633E+03</totfact>
</mgrwt>
</event>
<event>
 5    0  0.2947253E-001  0.2167831E+03  0.7546771E-02  0.1136304E+00
          2   -1    0    0  502    0 -0.00000000000E+00  0.00000000000E+00  0.32354642863E+03  0.32354642863E+03  0.00000000000E+00 0. -1.
         21   -1    0    0  503  502  0.00000000000E+00 -0.00000000000E+00 -0.22302226043E+03  0.22302226043E+03  0.00000000000E+00 0.  1.
         25    1    1    2    0    0 -0.20728422927E+03 -0.84527899380E+02 -0.22238911581E+02  0.25735439896E+03  0.12500000000E+03 0.  0.
         21    1    1    2  503  501  0.76607423114E+02 -0.16869720268E+02 -0.73251188650E+01  0.78784148815E+02  0.00000000000E+00 0. -1.
          2    1    1    2  501    0  0.13067680615E+03  0.10139761965E+03  0.13008819864E+03  0.21043014129E+03  0.00000000000E+00 0. -1.
<mgrwt>
<rscale>  4 0.21678313E+03</rscale>
<asrwt>0</asrwt>
<pdfrwt beam="1">  1       21 0.34311117E-01 0.21678313E+03</pdfrwt>
<pdfrwt beam="2">  1        2 0.49776373E-01 0.21678313E+03</pdfrwt>
<totfact> 0.10182916E+04</totfact>
</mgrwt>
</event>
<event>
 5    0  0.2947253E-001  0.2387743E+03  0.7546771E-02  0.1120612E+00
          2   -1    0    0  502    0 -0.00000000000E+00  0.00000000000E+00  0.11532900135E+04  0.11532900135E+04  0.00000000000E+00 0.  1.
         21   -1    0    0  503  502  0.00000000000E+00 -0.00000000000E+00 -0.29950503961E+03  0.29950503961E+03  0.00000000000E+00 0. -1.
         25    1    1    2    0    0  0.65198493472E+02  0.19271050125E+03 -0.24049643029E+03  0.33889779259E+03  0.12500000000E+03 0.  0.
         21    1    1    2  503  501 -0.18242495078E+02 -0.51361339648E+02  0.19984935476E+03  0.20714859506E+03  0.00000000000E+00 0.  1.
          2    1    1    2  501    0 -0.46955998395E+02 -0.14134916160E+03  0.89443204944E+03  0.90674866547E+03  0.00000000000E+00 0.  1.
<mgrwt>
<rscale>  4 0.23877433E+03</rscale>
<asrwt>0</asrwt>
<pdfrwt beam="1">  1       21 0.46077699E-01 0.23877433E+03</pdfrwt>
<pdfrwt beam="2">  1        2 0.17742923E+00 0.23877433E+03</pdfrwt>
<totfact> 0.11945810E+03</totfact>
</mgrwt>
</event>
<event>
 5    0  0.2947253E-001  0.2647680E+03  0.7546771E-02  0.1104312E+00
          2   -1    0    0  502    0 -0.00000000000E+00  0.00000000000E+00  0.10196284889E+04  0.10196284889E+04  0.00000000000E+00 0.  1.
         21   -1    0    0  503  502  0.00000000000E+00 -0.00000000000E+00 -0.10794480771E+04  0.10794480771E+04  0.00000000000E+00 0.  1.
         25    1    1    2    0    0 -0.13144377482E+03  0.19343613017E+03 -0.10455930448E+04  0.10786958875E+04  0.12500000000E+03 0.  0.
         21    1    1    2  503  501  0.89709175977E+02 -0.19586460566E+03  0.72684661026E+03  0.75810070231E+03  0.00000000000E+00 0.  1.
          2    1    1    2  501    0  0.41734598840E+02  0.24284754891E+01  0.25892684629E+03  0.26227997629E+03  0.00000000000E+00 0.  1.
<mgrwt>
<rscale>  4 0.26476796E+03</rscale>
<asrwt>0</asrwt>
<pdfrwt beam="1">  1       21 0.16606894E+00 0.26476796E+03</pdfrwt>
<pdfrwt beam="2">  1        2 0.15686592E+00 0.26476796E+03</pdfrwt>
<totfact> 0.69384699E+01</totfact>
</mgrwt>
</event>
<event>
 5    0  0.2947253E-001  0.2521532E+03  0.7546771E-02  0.1111952E+00
          2   -1    0    0  502    0 -0.00000000000E+00  0.00000000000E+00  0.11656060485E+04  0.11656060485E+04  0.00000000000E+00 0.  1.
         21   -1    0    0  503  502  0.00000000000E+00 -0.00000000000E+00 -0.99123935616E+02  0.99123935616E+02  0.00000000000E+00 0. -1.
         25    1    1    2    0    0  0.23900502098E+03  0.10038340138E+03  0.22089005684E+03  0.36279146150E+03  0.12500000000E+03 0.  0.
         21    1    1    2  503  501 -0.10533769357E+03 -0.13809103532E+03  0.42986237601E+03  0.46362358226E+03  0.00000000000E+00 0. -1.
          2    1    1    2  501    0 -0.13366732741E+03  0.37707633935E+02  0.41572968001E+03  0.43831494032E+03  0.00000000000E+00 0.  1.
<mgrwt>
<rscale>  4 0.25215324E+03</rscale>
<asrwt>0</asrwt>
<pdfrwt beam="1">  1       21 0.15249837E-01 0.25215324E+03</pdfrwt>
<pdfrwt beam="2">  1        2 0.17932400E+00 0.25215324E+03</pdfrwt>
<totfact> 0.99848096E+03</totfact>
</mgrwt>
</event>
<event>
 5    0  0.2947253E-001  0.2287044E+03  0.7546771E-02  0.1127555E+00
          2   -1    0    0  502    0 -0.00000000000E+00  0.00000000000E+00  0.56953004571E+03  0.56953004571E+03  0.00000000000E+00 0. -1.
         21   -1    0    0  503  502  0.00000000000E+00 -0.00000000000E+00 -0.18800006446E+03  0.18800006446E+03  0.00000000000E+00 0. -1.
         25    1    1    2    0    0 -0.19307822185E+03  0.70126007066E+02  0.32100222976E+03  0.40107890512E+03  0.12500000000E+03 0.  0.
         21    1    1    2  503  501  0.64671735050E+01 -0.10951848588E+03 -0.65570894150E+02  0.12781105289E+03  0.00000000000E+00 0. -1.
          2    1    1    2  501    0  0.18661104834E+03  0.39392478812E+02  0.12609864564E+03  0.22864015217E+03  0.00000000000E+00 0. -1.
<mgrwt>
<rscale>  4 0.22870444E+03</rscale>
<asrwt>0</asrwt>
<pdfrwt beam="1">  1       21 0.28923087E-01 0.22870444E+03</pdfrwt>
<pdfrwt beam="2">  1        2 0.87620007E-01 0.22870444E+03</pdfrwt>
<totfact> 0.76270640E+03</totfact>
</mgrwt>
</event>
<event>
 5    0  0.2947253E-001  0.2235875E+03  0.7546771E-02  0.1131236E+00
          2   -1    0    0  502    0 -0.00000000000E+00  0.00000000000E+00  0.15992641531E+04  0.15992641531E+04  0.00000000000E+00 0.  1.
         21   -1    0    0  503  502  0.00000000000E+00 -0.00000000000E+00 -0.46573826415E+02  0.46573826415E+02  0.00000000000E+00 0. -1.
         25    1    1    2    0    0 -0.12296943631E+03  0.16595157533E+03  0.44321506666E+03  0.50470387649E+03  0.12500000000E+03 0.  0.
         21    1    1    2  503  501  0.43207571322E+02 -0.37324751834E+01  0.49310563444E+02  0.65668540853E+02  0.00000000000E+00 0.  1.
          2    1    1    2  501    0  0.79761864992E+02 -0.16221910015E+03  0.10601646966E+04  0.10754655622E+04  0.00000000000E+00 0.  1.
<mgrwt>
<rscale>  4 0.22358748E+03</rscale>
<asrwt>0</asrwt>
<pdfrwt beam="1">  1       21 0.71652053E-02 0.22358748E+03</pdfrwt>
<pdfrwt beam="2">  1        2 0.24604060E+00 0.22358748E+03</pdfrwt>
<totfact> 0.22414952E+04</totfact>
</mgrwt>
</event>
<event>
 5    0  0.2947253E-001  0.3947927E+03  0.7546771E-02  0.1063362E+00
         -1   -1    0    0    0  501 -0.00000000000E+00  0.00000000000E+00  0.12865921597E+04  0.12865921597E+04  0.00000000000E+00 0.  1.
         21   -1    0    0  501  502  0.00000000000E+00 -0.00000000000E+00 -0.87192278234E+02  0.87192278234E+02  0.00000000000E+00 0.  1.
         25    1    1    2    0    0 -0.14894623678E+03  0.13871961791E+03  0.25096620649E+03  0.34646377970E+03  0.12500000000E+03 0.  0.
         21    1    1    2  501  501  0.17951999997E+03 -0.10664258586E+03  0.95924426168E+03  0.98170750485E+03  0.00000000000E+00 0.  1.
         -1    1    1    2    0  502 -0.30573763188E+02 -0.32077032057E+02 -0.10810586668E+02  0.45613153422E+02  0.00000000000E+00 0.  1.
<mgrwt>
<rscale>  4 0.34818638E+03</rscale>
<asrwt>0</asrwt>
<pdfrwt beam="1">  1       21 0.13414198E-01 0.39479273E+03</pdfrwt>
<pdfrwt beam="2">  1       -1 0.19793724E+00 0.39479273E+03</pdfrwt>
<totfact> 0.74191351E+02</totfact>
</mgrwt>
</event>
<event>
 5    0  0.2947253E-001  0.2444147E+03  0.7546771E-02  0.1116886E+00
         21   -1    0    0  503  502  0.00000000000E+00  0.00000000000E+00  0.12003018124E+03  0.12003018124E+03  0.00000000000E+00 0.  1.
          1   -1    0    0  502    0 -0.00000000000E+00 -0.00000000000E+00 -0.15354017953E+04  0.15354017953E+04  0.00000000000E+00 0.  1.
         25    1    1    2    0    0  0.19778814167E+03  0.70664089737E+02 -0.23638298289E+02  0.24555515004E+03  0.12500000000E+03 0.  0.
         21    1    1    2  503  501 -0.10928183712E+03 -0.59990132979E+01 -0.86211762055E+03  0.86903699561E+03  0.00000000000E+00 0.  1.
          1    1    1    2  501    0 -0.88506304559E+02 -0.64665076439E+02 -0.52961569526E+03  0.54083983094E+03  0.00000000000E+00 0.  1.
<mgrwt>
<rscale>  4 0.24441473E+03</rscale>
<asrwt>0</asrwt>
<pdfrwt beam="1">  1       21 0.18466182E-01 0.24441473E+03</pdfrwt>
<pdfrwt beam="2">  1        1 0.23621566E+00 0.24441473E+03</pdfrwt>
<totfact> 0.20117210E+03</totfact>
</mgrwt>
</event>
<event>
 5    0  0.2947253E-001  0.2540142E+03  0.7546771E-02  0.1110794E+00
         21   -1    0    0  503  502  0.00000000000E+00  0.00000000000E+00  0.13784959330E+04  0.13784959330E+04  0.00000000000E+00 0.  1.
          1   -1    0    0  502    0 -0.00000000000E+00 -0.00000000000E+00 -0.17430386328E+03  0.17430386328E+03  0.00000000000E+00 0.  1.
         25    1    1    2    0    0  0.10338678852E+03  0.20191961595E+03  0.12200127458E+04  0.12472034554E+04  0.12500000000E+03 0.  0.
         21    1    1    2  503  501 -0.93844438719E+02 -0.22532748901E+02  0.56626264999E+02  0.11189744117E+03  0.00000000000E+00 0.  1.
          1    1    1    2  501    0 -0.95423497968E+01 -0.17938686705E+03 -0.72446940991E+02  0.19369889976E+03  0.00000000000E+00 0.  1.
<mgrwt>
<rscale>  4 0.25401419E+03</rscale>
<asrwt>0</asrwt>
<pdfrwt beam="1">  1       21 0.21207629E+00 0.25401419E+03</pdfrwt>
<pdfrwt beam="2">  1        1 0.26815980E-01 0.25401419E+03</pdfrwt>
<totfact> 0.20339970E+02</totfact>
</mgrwt>
</event>
<event>
 5    0  0.2947253E-001  0.2767844E+03  0.7546771E-02  0.1097458E+00
         21   -1    0    0  503  502  0.00000000000E+00  0.00000000000E+00  0.20024617709E+03  0.20024617709E+03  0.00000000000E+00 0.  1.
          2   -1    0    0  502    0 -0.00000000000E+00 -0.00000000000E+00 -0.96021254517E+03  0.96021254517E+03  0.00000000000E+00 0. -1.
         25    1    1    2    0    0 -0.17459004157E+03  0.17465078025E+03  0.71272266841E+02  0.28581342459E+03  0.12500000000E+03 0.  0.
         21    1    1    2  503  501  0.89674574841E+02 -0.17424649766E+02 -0.23222147974E+03  0.24954351013E+03  0.00000000000E+00 0.  1.
          2    1    1    2  501    0  0.84915466725E+02 -0.15722613049E+03 -0.59901715517E+03  0.62510178754E+03  0.00000000000E+00 0. -1.
<mgrwt>
<rscale>  4 0.27678435E+03</rscale>
<asrwt>0</asrwt>
<pdfrwt beam="1">  1       21 0.30807104E-01 0.27678435E+03</pdfrwt>
<pdfrwt beam="2">  1        2 0.14772501E+00 0.27678435E+03</pdfrwt>
<totfact> 0.34630947E+03</totfact>
</mgrwt>
</event>
<event>
 5    0  0.2947253E-001  0.5625543E+03  0.7546771E-02  0.9986292E-01
          2   -1    0    0  502    0 -0.00000000000E+00  0.00000000000E+00  0.53625846355E+03  0.53625846355E+03  0.00000000000E+00 0. -1.
         21   -1    0    0  503  502  0.00000000000E+00 -0.00000000000E+00 -0.11518140734E+04  0.11518140734E+04  0.00000000000E+00 0. -1.
         25    1    1    2    0    0 -0.38690163598E+03  0.38877942167E+03 -0.89970391682E+03  0.10611005855E+04  0.12500000000E+03 0.  0.
         21    1    1    2  503  501  0.29736665062E+01 -0.39376580905E+02  0.25299980667E+02  0.46898260501E+02  0.00000000000E+00 0. -1.
          2    1    1    2  501    0  0.38392796948E+03 -0.34940284076E+03  0.25884832630E+03  0.58007369093E+03  0.00000000000E+00 0. -1.
<mgrwt>
<rscale>  4 0.56255428E+03</rscale>
<asrwt>0</asrwt>
<pdfrwt beam="1">  1       21 0.17720216E+00 0.56255428E+03</pdfrwt>
<pdfrwt beam="2">  1        2 0.82501303E-01 0.56255428E+03</pdfrwt>
<totfact> 0.11407343E+02</totfact>
</mgrwt>
</event>
<event>
 5    0  0.2947253E-001  0.3376254E+03  0.7546771E-02  0.1067812E+00
          2   -1    0    0  502    0 -0.00000000000E+00  0.00000000000E+00  0.70378618147E+03  0.70378618147E+03  0.00000000000E+00 0. -1.
         21   -1    0    0  503  502  0.00000000000E+00 -0.00000000000E+00 -0.44083159685E+03  0.44083159685E+03  0.00000000000E+00 0.  1.
         25    1    1    2    0    0  0.73405506056E+02 -0.42334262996E+03 -0.44207512020E+02  0.44965170386E+03  0.12500000000E+03 0.  0.
         21    1    1    2  503  501  0.98912050953E+02  0.22014497041E+03  0.34997405027E+03  0.42512261488E+03  0.00000000000E+00 0. -1.
          2    1    1    2  501    0 -0.17231755701E+03  0.20319765955E+03 -0.42811953628E+02  0.26984345957E+03  0.00000000000E+00 0. -1.
<mgrwt>
<rscale>  4 0.33762535E+03</rscale>
<asrwt>0</asrwt>
<pdfrwt beam="1">  1       21 0.67820246E-01 0.33762535E+03</pdfrwt>
<pdfrwt beam="2">  1        2 0.10827480E+00 0.33762535E+03</pdfrwt>
<totfact> 0.98110793E+02</totfact>
</mgrwt>
</event>
<event>
 5    0  0.2947253E-001  0.2172887E+03  0.7546771E-02  0.1135921E+00
         21   -1    0    0  503  502  0.00000000000E+00  0.00000000000E+00  0.79791436068E+02  0.79791436068E+02  0.00000000000E+00 0.  1.
          2   -1    0    0  502    0 -0.00000000000E+00 -0.00000000000E+00 -0.12361415898E+04  0.12361415898E+04  0.00000000000E+00 0.  1.
         25    1    1    2    0    0  0.22906912032E+03 -0.27313957325E+02 -0.21283084688E+03  0.33784713042E+03  0.12500000000E+03 0.  0.
         21    1    1    2  503  501 -0.62405197538E+02 -0.90085486730E+01 -0.10568983295E+03  0.12306869390E+03  0.00000000000E+00 0. -1.
          2    1    1    2  501    0 -0.16666392279E+03  0.36322505998E+02 -0.83782947394E+03  0.85501720158E+03  0.00000000000E+00 0.  1.
<mgrwt>
<rscale>  4 0.21728866E+03</rscale>
<asrwt>0</asrwt>
<pdfrwt beam="1">  1       21 0.12275606E-01 0.21728866E+03</pdfrwt>
<pdfrwt beam="2">  1        2 0.19017562E+00 0.21728866E+03</pdfrwt>
<totfact> 0.13634280E+04</totfact>
</mgrwt>
</event>
<event>
 5    0  0.2947253E-001  0.2630001E+03  0.7546771E-02  0.1105354E+00
          1   -1    0    0  502    0 -0.00000000000E+00  0.00000000000E+00  0.13832766728E+04  0.13832766728E+04  0.00000000000E+00 0. -1.
         21   -1    0    0  503  502  0.00000000000E+00 -0.00000000000E+00 -0.10820169873E+03  0.10820169873E+03  0.00000000000E+00 0.  1.
         25    1    1    2    0    0 -0.23048248156E+03  0.50015228218E+02  0.93282021437E+02  0.28275472212E+03  0.12500000000E+03 0.  0.
         21    1    1    2  503  501  0.24137901279E+02 -0.31745099016E+02  0.10790731798E+03  0.11504077044E+03  0.00000000000E+00 0.  1.
          1    1    1    2  501    0  0.20634458028E+03 -0.18270129202E+02  0.10738856347E+04  0.10936828790E+04  0.00000000000E+00 0. -1.
<mgrwt>
<rscale>  4 0.26300014E+03</rscale>
<asrwt>0</asrwt>
<pdfrwt beam="1">  1       21 0.16646416E-01 0.26300014E+03</pdfrwt>
<pdfrwt beam="2">  1        1 0.21281178E+00 0.26300014E+03</pdfrwt>
<totfact> 0.30573415E+03</totfact>
</mgrwt>
</event>
<event>
 5    0  0.2947253E-001  0.2680835E+03  0.7546771E-02  0.1102382E+00
          2   -1    0    0  502    0 -0.00000000000E+00  0.00000000000E+00  0.22596240217E+04  0.22596240217E+04  0.00000000000E+00 0.  1.
         21   -1    0    0  503  502  0.00000000000E+00 -0.00000000000E+00 -0.41145163012E+03  0.41145163012E+03  0.00000000000E+00 0.  1.
         25    1    1    2    0    0 -0.21439985805E+03  0.98350589792E+02 -0.34398138471E+03  0.43541742119E+03  0.12500000000E+03 0.  0.
         21    1    1    2  503  501 -0.28469893892E+02  0.78091770626E+02  0.14940995997E+03  0.17097425431E+03  0.00000000000E+00 0. -1.
          2    1    1    2  501    0  0.24286975194E+03 -0.17644236042E+03  0.20427438163E+04  0.20646839763E+04  0.00000000000E+00 0.  1.
<mgrwt>
<rscale>  4 0.26808349E+03</rscale>
<asrwt>0</asrwt>
<pdfrwt beam="1">  1       21 0.63300252E-01 0.26808349E+03</pdfrwt>
<pdfrwt beam="2">  1        2 0.34763446E+00 0.26808349E+03</pdfrwt>
<totfact> 0.15289992E+02</totfact>
</mgrwt>
</event>
<event>
 5    0  0.2947253E-001  0.2978443E+03  0.7546771E-02  0.1086771E+00
          2   -1    0    0  502    0 -0.00000000000E+00  0.00000000000E+00  0.14754750127E+04  0.14754750127E+04  0.00000000000E+00 0. -1.
         21   -1    0    0  503  502  0.00000000000E+00 -0.00000000000E+00 -0.64934476438E+03  0.64934476438E+03  0.00000000000E+00 0. -1.
         25    1    1    2    0    0  0.73261917218E+02 -0.25618260399E+03 -0.59979840694E+03  0.66811672937E+03  0.12500000000E+03 0.  0.
         21    1    1    2  503  501 -0.82982085422E+02  0.62642053597E+02  0.51495931936E+03  0.52535050583E+03  0.00000000000E+00 0.  1.
          2    1    1    2  501    0  0.97201682039E+01  0.19354055039E+03  0.91096933588E+03  0.93135254186E+03  0.00000000000E+00 0. -1.
<mgrwt>
<rscale>  4 0.29695826E+03</rscale>
<asrwt>0</asrwt>
<pdfrwt beam="1">  1       21 0.99899195E-01 0.29784432E+03</pdfrwt>
<pdfrwt beam="2">  1        2 0.22699616E+00 0.29784432E+03</pdfrwt>
<totfact> 0.13770738E+02</totfact>
</mgrwt>
</event>
<event>
 5    0  0.2947253E-001  0.3912344E+03  0.7546771E-02  0.1046858E+00
          1   -1    0    0  502    0 -0.00000000000E+00  0.00000000000E+00  0.38093370336E+04  0.38093370336E+04  0.00000000000E+00 0. -1.
         21   -1    0    0  503  502  0.00000000000E+00 -0.00000000000E+00 -0.38900047406E+03  0.38900047406E+03  0.00000000000E+00 0.  1.
         25    1    1    2    0    0 -0.25598194884E+03  0.27468681975E+03 -0.26286421431E+03  0.47508125857E+03  0.12500000000E+03 0.  0.
         21    1    1    2  503  501  0.49967791378E+02 -0.32703590835E+03  0.21159820714E+04  0.21416884442E+04  0.00000000000E+00 0. -1.
          1    1    1    2  501    0  0.20601415746E+03  0.52349088597E+02  0.15672187025E+04  0.15815678049E+04  0.00000000000E+00 0. -1.
<mgrwt>
<rscale>  4 0.39123441E+03</rscale>
<asrwt>0</asrwt>
<pdfrwt beam="1">  1       21 0.59846229E-01 0.39123441E+03</pdfrwt>
<pdfrwt beam="2">  1        1 0.58605183E+00 0.39123441E+03</pdfrwt>
<totfact> 0.45917062E+00</totfact>
</mgrwt>
</event>
<event>
 5    0  0.2947253E-001  0.4257249E+03  0.7546771E-02  0.1036290E+00
          2   -1    0    0  502    0 -0.00000000000E+00  0.00000000000E+00  0.10109177725E+04  0.10109177725E+04  0.00000000000E+00 0. -1.
         21   -1    0    0  503  502  0.00000000000E+00 -0.00000000000E+00 -0.23929981665E+03  0.23929981665E+03  0.00000000000E+00 0. -1.
         25    1    1    2    0    0  0.13056745433E+03  0.37085429857E+03  0.54353205112E+02  0.41612503146E+03  0.12500000000E+03 0.  0.
         21    1    1    2  503  501 -0.83615815782E+02 -0.10316701588E+03  0.12465936111E+03  0.18214003988E+03  0.00000000000E+00 0.  1.
          2    1    1    2  501    0 -0.46951638543E+02 -0.26768728269E+03  0.59260538959E+03  0.65195251778E+03  0.00000000000E+00 0. -1.
<mgrwt>
<rscale>  4 0.42239479E+03</rscale>
<asrwt>0</asrwt>
<pdfrwt beam="1">  1       21 0.36815357E-01 0.42572488E+03</pdfrwt>
<pdfrwt beam="2">  1        2 0.15552581E+00 0.42572488E+03</pdfrwt>
<totfact> 0.21660226E+03</totfact>
</mgrwt>
</event>
<event>
 5    0  0.2996981E-001  0.3963889E+03  0.7546771E-02  0.1045037E+00
         -4   -1    0    0    0  501 -0.00000000000E+00  0.00000000000E+00  0.48023792372E+03  0.48023792372E+03  0.00000000000E+00 0. -1.
         21   -1    0    0  501  502  0.00000000000E+00 -0.00000000000E+00 -0.13201470688E+04  0.13201470688E+04  0.00000000000E+00 0. -1.
         25    1    1    2    0    0  0.39208233883E+03  0.11069581988E+03 -0.11647489215E+04  0.12402609303E+04  0.12500000000E+03 0.  0.
         21    1    1    2  501  501 -0.31727042716E+02 -0.10318325030E+02 -0.29747095880E+02  0.44698576981E+02  0.00000000000E+00 0. -1.
         -4    1    1    2    0  502 -0.36035529612E+03 -0.10037749485E+03  0.35458687228E+03  0.51542548531E+03  0.00000000000E+00 0. -1.
<mgrwt>
<rscale>  4 0.39638888E+03</rscale>
<asrwt>0</asrwt>
<pdfrwt beam="1">  1       21 0.20309955E+00 0.39638888E+03</pdfrwt>
<pdfrwt beam="2">  1       -4 0.73882758E-01 0.39638888E+03</pdfrwt>
<totfact> 0.82516660E+00</totfact>
</mgrwt>
</event>
<event>
 5    0  0.2947253E-001  0.2368926E+03  0.7546771E-02  0.1121880E+00
         21   -1    0    0  503  502  0.00000000000E+00  0.00000000000E+00  0.38742288603E+03  0.38742288603E+03  0.00000000000E+00 0. -1.
          2   -1    0    0  502    0 -0.00000000000E+00 -0.00000000000E+00 -0.11626635597E+04  0.11626635597E+04  0.00000000000E+00 0.  1.
         25    1    1    2    0    0 -0.17733540942E+03 -0.95106453191E+02  0.33961621592E+03  0.41407397768E+03  0.12500000000E+03 0.  0.
         21    1    1    2  503  501  0.30900366790E+02  0.51412858712E+02 -0.21235170941E+03  0.22066119550E+03  0.00000000000E+00 0. -1.
          2    1    1    2  501    0  0.14643504263E+03  0.43693594479E+02 -0.90250518020E+03  0.91535127257E+03  0.00000000000E+00 0.  1.
<mgrwt>
<rscale>  4 0.23689256E+03</rscale>
<asrwt>0</asrwt>
<pdfrwt beam="1">  1       21 0.59603522E-01 0.23689256E+03</pdfrwt>
<pdfrwt beam="2">  1        2 0.17887132E+00 0.23689256E+03</pdfrwt>
<totfact> 0.68576949E+02</totfact>
</mgrwt>
</event>
<event>
 5    0  0.2947253E-001  0.2696007E+03  0.7546771E-02  0.1101508E+00
          3   -1    0    0  502    0 -0.00000000000E+00  0.00000000000E+00  0.42779808167E+04  0.42779808167E+04  0.00000000000E+00 0.  1.
         21   -1    0    0  503  502  0.00000000000E+00 -0.00000000000E+00 -0.11829204000E+03  0.11829204000E+03  0.00000000000E+00 0. -1.
         25    1    1    2    0    0  0.16429648778E+03 -0.17606242882E+03  0.49371708081E+02  0.27577867992E+03  0.12500000000E+03 0.  0.
         21    1    1    2  503  501 -0.16191628678E+03  0.13771685777E+03  0.23079919996E+04  0.23177596698E+04  0.00000000000E+00 0. -1.
          3    1    1    2  501    0 -0.23802010013E+01  0.38345571057E+02  0.18023250691E+04  0.18027345070E+04  0.00000000000E+00 0.  1.
<mgrwt>
<rscale>  4 0.26960071E+03</rscale>
<asrwt>0</asrwt>
<pdfrwt beam="1">  1       21 0.18198779E-01 0.26960071E+03</pdfrwt>
<pdfrwt beam="2">  1        3 0.65815077E+00 0.26960071E+03</pdfrwt>
<totfact> 0.10253653E+00</totfact>
</mgrwt>
</event>
<event>
 5    0  0.2947253E-001  0.2699830E+03  0.7546771E-02  0.1101289E+00
          2   -1    0    0  502    0 -0.00000000000E+00  0.00000000000E+00  0.24413526823E+04  0.24413526823E+04  0.00000000000E+00 0. -1.
         21   -1    0    0  503  502  0.00000000000E+00 -0.00000000000E+00 -0.64337730923E+02  0.64337730923E+02  0.00000000000E+00 0.  1.
         25    1    1    2    0    0  0.73711843803E+02  0.23057037594E+03  0.27362587983E+03  0.38612466418E+03  0.12500000000E+03 0.  0.
         21    1    1    2  503  501  0.15008495617E+02 -0.25369511384E+02  0.11784012472E+03  0.12147082795E+03  0.00000000000E+00 0. -1.
          2    1    1    2  501    0 -0.88720339420E+02 -0.20520086455E+03  0.19855489468E+04  0.19980949211E+04  0.00000000000E+00 0. -1.
<mgrwt>
<rscale>  4 0.26998301E+03</rscale>
<asrwt>0</asrwt>
<pdfrwt beam="1">  1       21 0.98981144E-02 0.26998301E+03</pdfrwt>
<pdfrwt beam="2">  1        2 0.37559265E+00 0.26998301E+03</pdfrwt>
<totfact> 0.44884163E+03</totfact>
</mgrwt>
</event>
<event>
 5    0  0.2947253E-001  0.2396196E+03  0.7546771E-02  0.1120046E+00
         21   -1    0    0  503  502  0.00000000000E+00  0.00000000000E+00  0.55482944543E+02  0.55482944543E+02  0.00000000000E+00 0.  1.
          2   -1    0    0  502    0 -0.00000000000E+00 -0.00000000000E+00 -0.32789466578E+04  0.32789466578E+04  0.00000000000E+00 0. -1.
         25    1    1    2    0    0  0.91719652277E+02 -0.18101931039E+03 -0.22991324623E+03  0.33115794742E+03  0.12500000000E+03 0.  0.
         21    1    1    2  503  501 -0.50000271095E+01 -0.19786217127E+02 -0.39719820983E+03  0.39772215497E+03  0.00000000000E+00 0. -1.
          2    1    1    2  501    0 -0.86719625167E+02  0.20080552752E+03 -0.25963522572E+04  0.26055494999E+04  0.00000000000E+00 0. -1.
<mgrwt>
<rscale>  4 0.23961959E+03</rscale>
<asrwt>0</asrwt>
<pdfrwt beam="1">  1       21 0.85358343E-02 0.23961959E+03</pdfrwt>
<pdfrwt beam="2">  1        2 0.50445353E+00 0.23961959E+03</pdfrwt>
<totfact> 0.19365599E+03</totfact>
</mgrwt>
</event>
<event>
 5    0  0.2947253E-001  0.2722166E+03  0.7546771E-02  0.1100018E+00
          1   -1    0    0  502    0 -0.00000000000E+00  0.00000000000E+00  0.16315944536E+03  0.16315944536E+03  0.00000000000E+00 0.  1.
         21   -1    0    0  503  502  0.00000000000E+00 -0.00000000000E+00 -0.12449692555E+04  0.12449692555E+04  0.00000000000E+00 0.  1.
         25    1    1    2    0    0  0.92409695180E+01  0.27290196187E+03 -0.10337140653E+04  0.10764528068E+04  0.12500000000E+03 0.  0.
         21    1    1    2  503  501  0.10944292684E+02 -0.34966056817E+02 -0.82641659306E+02  0.90399372368E+02  0.00000000000E+00 0. -1.
          1    1    1    2  501    0 -0.20185262202E+02 -0.23793590505E+03  0.34545914518E+02  0.24127652172E+03  0.00000000000E+00 0.  1.
<mgrwt>
<rscale>  4 0.27221662E+03</rscale>
<asrwt>0</asrwt>
<pdfrwt beam="1">  1       21 0.19153373E+00 0.27221662E+03</pdfrwt>
<pdfrwt beam="2">  1        1 0.25101453E-01 0.27221662E+03</pdfrwt>
<totfact> 0.29752422E+02</totfact>
</mgrwt>
</event>
<event>
 5    0  0.2947253E-001  0.3696037E+03  0.7546771E-02  0.1055662E+00
         21   -1    0    0  501  502  0.00000000000E+00  0.00000000000E+00  0.30760362551E+03  0.30760362551E+03  0.00000000000E+00 0. -1.
         -3   -1    0    0    0  501 -0.00000000000E+00 -0.00000000000E+00 -0.61413212597E+03  0.61413212597E+03  0.00000000000E+00 0. -1.
         25    1    1    2    0    0  0.19324570283E+03  0.27834488756E+03  0.97553644346E+02  0.37411427615E+03  0.12500000000E+03 0.  0.
         21    1    1    2  501  501 -0.82852328816E+02 -0.21601421601E+02 -0.61056644175E+02  0.10516198744E+03  0.00000000000E+00 0. -1.
         -3    1    1    2    0  502 -0.11039337402E+03 -0.25674346596E+03 -0.34302550063E+03  0.44245948789E+03  0.00000000000E+00 0. -1.
<mgrwt>
<rscale>  4 0.36747735E+03</rscale>
<asrwt>0</asrwt>
<pdfrwt beam="1">  1       21 0.47323635E-01 0.36960371E+03</pdfrwt>
<pdfrwt beam="2">  1       -3 0.94481866E-01 0.36960371E+03</pdfrwt>
<totfact> 0.20931485E+02</totfact>
</mgrwt>
</event>
<event>
 5    0  0.2947253E-001  0.2423995E+03  0.7546771E-02  0.1118205E+00
          2   -1    0    0  502    0 -0.00000000000E+00  0.00000000000E+00  0.25602163535E+03  0.25602163535E+03  0.00000000000E+00 0.  1.
         21   -1    0    0  503  502  0.00000000000E+00 -0.00000000000E+00 -0.22237265150E+03  0.22237265150E+03  0.00000000000E+00 0.  1.
         25    1    1    2    0    0 -0.12566607270E+03  0.16534979378E+03 -0.52567445572E+02  0.24803397441E+03  0.12500000000E+03 0.  0.
         21    1    1    2  503  501  0.18014983745E+02 -0.33313361015E+02 -0.31144915819E+01  0.38000259463E+02  0.00000000000E+00 0.  1.
          2    1    1    2  501    0  0.10765108896E+03 -0.13203643276E+03  0.89330921007E+02  0.19236005297E+03  0.00000000000E+00 0.  1.
<mgrwt>
<rscale>  4 0.24239950E+03</rscale>
<asrwt>0</asrwt>
<pdfrwt beam="1">  1       21 0.34211177E-01 0.24239950E+03</pdfrwt>
<pdfrwt beam="2">  1        2 0.39387944E-01 0.24239950E+03</pdfrwt>
<totfact> 0.13119195E+04</totfact>
</mgrwt>
</event>
<event>
 5    0  0.2947253E-001  0.2893588E+03  0.7546771E-02  0.1090684E+00
         21   -1    0    0  501  502  0.00000000000E+00  0.00000000000E+00  0.55167829364E+03  0.55167829364E+03  0.00000000000E+00 0.  1.
         -1   -1    0    0    0  501 -0.00000000000E+00 -0.00000000000E+00 -0.15025609553E+03  0.15025609553E+03  0.00000000000E+00 0. -1.
         25    1    1    2    0    0 -0.22580881029E+03 -0.13082019335E+03  0.29968470605E+03  0.41658068226E+03  0.12500000000E+03 0.  0.
         21    1    1    2  501  501  0.61186367349E+02  0.14906265761E+02  0.40640163521E+02  0.74950591721E+02  0.00000000000E+00 0. -1.
         -1    1    1    2    0  502  0.16462244294E+03  0.11591392759E+03  0.61097328541E+02  0.21040311520E+03  0.00000000000E+00 0. -1.
<mgrwt>
<rscale>  4 0.28935885E+03</rscale>
<asrwt>0</asrwt>
<pdfrwt beam="1">  1       21 0.84873583E-01 0.28935885E+03</pdfrwt>
<pdfrwt beam="2">  1       -1 0.23116323E-01 0.28935885E+03</pdfrwt>
<totfact> 0.16836539E+03</totfact>
</mgrwt>
</event>
<event>
 5    0  0.2947253E-001  0.2324147E+03  0.7546771E-02  0.1124952E+00
         21   -1    0    0  503  502  0.00000000000E+00  0.00000000000E+00  0.19429177211E+03  0.19429177211E+03  0.00000000000E+00 0. -1.
          2   -1    0    0  502    0 -0.00000000000E+00 -0.00000000000E+00 -0.51145808917E+03  0.51145808917E+03  0.00000000000E+00 0. -1.
         25    1    1    2    0    0  0.10210104428E+02 -0.20789424737E+03  0.71386364322E+02  0.25307168418E+03  0.12500000000E+03 0.  0.
         21    1    1    2  503  501 -0.17402863988E+02  0.13739909222E+02 -0.50081579546E+01  0.22731617331E+02  0.00000000000E+00 0. -1.
          2    1    1    2  501    0  0.71927595597E+01  0.19415433815E+03 -0.38354452343E+03  0.42994655978E+03  0.00000000000E+00 0. -1.
<mgrwt>
<rscale>  4 0.23241466E+03</rscale>
<asrwt>0</asrwt>
<pdfrwt beam="1">  1       21 0.29891042E-01 0.23241466E+03</pdfrwt>
<pdfrwt beam="2">  1        2 0.78685860E-01 0.23241466E+03</pdfrwt>
<totfact> 0.80731431E+03</totfact>
</mgrwt>
</event>
<event>
 5    0  0.2947253E-001  0.2946633E+03  0.7546771E-02  0.1087939E+00
         21   -1    0    0  503  502  0.00000000000E+00  0.00000000000E+00  0.20661952981E+03  0.20661952981E+03  0.00000000000E+00 0.  1.
          2   -1    0    0  502    0 -0.00000000000E+00 -0.00000000000E+00 -0.97053375090E+03  0.97053375090E+03  0.00000000000E+00 0.  1.
         25    1    1    2    0    0  0.97856344676E+02  0.24824506437E+03  0.65598388564E+02  0.30187683707E+03  0.12500000000E+03 0.  0.
         21    1    1    2  503  501 -0.37907568714E+01 -0.93138974534E+02 -0.21016040478E+03  0.22990570709E+03  0.00000000000E+00 0.  1.
          2    1    1    2  501    0 -0.94065587804E+02 -0.15510608983E+03 -0.61935220488E+03  0.64537073655E+03  0.00000000000E+00 0.  1.
<mgrwt>
<rscale>  4 0.29466333E+03</rscale>
<asrwt>0</asrwt>
<pdfrwt beam="1">  1       21 0.31787620E-01 0.29466333E+03</pdfrwt>
<pdfrwt beam="2">  1        2 0.14931288E+00 0.29466333E+03</pdfrwt>
<totfact> 0.31894589E+03</totfact>
</mgrwt>
</event>
<event>
 5    0  0.2947253E-001  0.3084326E+03  0.7546771E-02  0.1081100E+00
         -2   -1    0    0    0  501 -0.00000000000E+00  0.00000000000E+00  0.39101259085E+03  0.39101259085E+03  0.00000000000E+00 0. -1.
         21   -1    0    0  501  502  0.00000000000E+00 -0.00000000000E+00 -0.64538619867E+03  0.64538619867E+03  0.00000000000E+00 0.  1.
         25    1    1    2    0    0  0.17935894427E+03  0.21756850169E+03 -0.54351357031E+03  0.62493014404E+03  0.12500000000E+03 0.  0.
         21    1    1    2  501  501 -0.61476492794E+02 -0.52842479489E+02  0.40069663810E+02  0.90428229899E+02  0.00000000000E+00 0.  1.
         -2    1    1    2    0  502 -0.11788245147E+03 -0.16472602220E+03  0.24907029867E+03  0.32104041558E+03  0.00000000000E+00 0. -1.
<mgrwt>
<rscale>  4 0.30843262E+03</rscale>
<asrwt>0</asrwt>
<pdfrwt beam="1">  1       21 0.99290184E-01 0.30843262E+03</pdfrwt>
<pdfrwt beam="2">  1       -2 0.60155784E-01 0.30843262E+03</pdfrwt>
<totfact> 0.16925365E+02</totfact>
</mgrwt>
</event>
<event>
 5    0  0.2947253E-001  0.2374263E+03  0.7546771E-02  0.1121519E+00
         21   -1    0    0  503  502  0.00000000000E+00  0.00000000000E+00  0.35335278088E+03  0.35335278088E+03  0.00000000000E+00 0.  1.
          2   -1    0    0  502    0 -0.00000000000E+00 -0.00000000000E+00 -0.91850152901E+03  0.91850152901E+03  0.00000000000E+00 0. -1.
         25    1    1    2    0    0 -0.19345410171E+02 -0.20092790646E+03  0.29920320509E+03  0.38196050375E+03  0.12500000000E+03 0.  0.
         21    1    1    2  503  501  0.70637639656E+01  0.26826829256E+02 -0.51306880469E+02  0.58326422081E+02  0.00000000000E+00 0.  1.
          2    1    1    2  501    0  0.12281646205E+02  0.17410107721E+03 -0.81304507274E+03  0.83156738406E+03  0.00000000000E+00 0. -1.
<mgrwt>
<rscale>  4 0.23742634E+03</rscale>
<asrwt>0</asrwt>
<pdfrwt beam="1">  1       21 0.54361967E-01 0.23742634E+03</pdfrwt>
<pdfrwt beam="2">  1        2 0.14130793E+00 0.23742634E+03</pdfrwt>
<totfact> 0.11712176E+03</totfact>
</mgrwt>
</event>
<event>
 5    0  0.2947253E-001  0.2572963E+03  0.7546771E-02  0.1108779E+00
         21   -1    0    0  503  502  0.00000000000E+00  0.00000000000E+00  0.15706007608E+03  0.15706007608E+03  0.00000000000E+00 0.  1.
          2   -1    0    0  502    0 -0.00000000000E+00 -0.00000000000E+00 -0.12886566888E+04  0.12886566888E+04  0.00000000000E+00 0. -1.
         25    1    1    2    0    0  0.67846894193E+02  0.24576176658E+03 -0.20167215399E+02  0.28466429973E+03  0.12500000000E+03 0.  0.
         21    1    1    2  503  501  0.40263086266E+02 -0.50952962912E+02 -0.67711266501E+02  0.93819700257E+02  0.00000000000E+00 0. -1.
          2    1    1    2  501    0 -0.10810998046E+03 -0.19480880367E+03 -0.10437181308E+04  0.10672327649E+04  0.00000000000E+00 0. -1.
<mgrwt>
<rscale>  4 0.25729633E+03</rscale>
<asrwt>0</asrwt>
<pdfrwt beam="1">  1       21 0.24163089E-01 0.25729633E+03</pdfrwt>
<pdfrwt beam="2">  1        2 0.19825487E+00 0.25729633E+03</pdfrwt>
<totfact> 0.35868764E+03</totfact>
</mgrwt>
</event>
<event>
 5    0  0.2947253E-001  0.2429231E+03  0.7546771E-02  0.1117861E+00
         21   -1    0    0  503  502  0.00000000000E+00  0.00000000000E+00  0.16593485850E+03  0.16593485850E+03  0.00000000000E+00 0.  1.
          2   -1    0    0  502    0 -0.00000000000E+00 -0.00000000000E+00 -0.62902255645E+03  0.62902255645E+03  0.00000000000E+00 0.  1.
         25    1    1    2    0    0 -0.56846083872E+02 -0.20038753020E+03  0.40819333343E+02  0.24632875895E+03  0.12500000000E+03 0.  0.
         21    1    1    2  503  501 -0.64991853280E+00  0.10321670833E+03 -0.21675286535E+03  0.24007481316E+03  0.00000000000E+00 0.  1.
          2    1    1    2  501    0  0.57496002405E+02  0.97170821871E+02 -0.28715416594E+03  0.30855384284E+03  0.00000000000E+00 0.  1.
<mgrwt>
<rscale>  4 0.24292311E+03</rscale>
<asrwt>0</asrwt>
<pdfrwt beam="1">  1       21 0.25528440E-01 0.24292311E+03</pdfrwt>
<pdfrwt beam="2">  1        2 0.96772701E-01 0.24292311E+03</pdfrwt>
<totfact> 0.86236267E+03</totfact>
</mgrwt>
</event>
<event>
 5    0  0.2947253E-001  0.3853116E+03  0.7546771E-02  0.1048988E+00
          1   -1    0    0  502    0 -0.00000000000E+00  0.00000000000E+00  0.87903382887E+03  0.87903382887E+03  0.00000000000E+00 0.  1.
         21   -1    0    0  503  502  0.00000000000E+00 -0.00000000000E+00 -0.35891218588E+03  0.35891218588E+03  0.00000000000E+00 0.  1.
         25    1    1    2    0    0  0.35722374231E+03 -0.72327403361E+02 -0.19141141227E+03  0.43023642814E+03  0.12500000000E+03 0.  0.
         21    1    1    2  503  501 -0.65930066129E+02 -0.44862975816E+01  0.57359005701E+02  0.87504034311E+02  0.00000000000E+00 0.  1.
          1    1    1    2  501    0 -0.29129367618E+03  0.76813700942E+02  0.65417404956E+03  0.72020555230E+03  0.00000000000E+00 0.  1.
<mgrwt>
<rscale>  4 0.38531163E+03</rscale>
<asrwt>0</asrwt>
<pdfrwt beam="1">  1       21 0.55217260E-01 0.38531163E+03</pdfrwt>
<pdfrwt beam="2">  1        1 0.13523597E+00 0.38531163E+03</pdfrwt>
<totfact> 0.63256043E+02</totfact>
</mgrwt>
</event>
<event>
 5    0  0.2947253E-001  0.2775494E+03  0.7546771E-02  0.1097035E+00
          2   -1    0    0  502    0 -0.00000000000E+00  0.00000000000E+00  0.56464754718E+03  0.56464754718E+03  0.00000000000E+00 0. -1.
         21   -1    0    0  503  502  0.00000000000E+00 -0.00000000000E+00 -0.23233058990E+03  0.23233058990E+03  0.00000000000E+00 0.  1.
         25    1    1    2    0    0  0.18036450226E+03 -0.22970984560E+03  0.49514590569E+02  0.32151930194E+03  0.12500000000E+03 0.  0.
         21    1    1    2  503  501  0.36644645816E+02  0.12861453337E+03  0.53748719958E+02  0.14412998701E+03  0.00000000000E+00 0.  1.
          2    1    1    2  501    0 -0.21700914808E+03  0.10109531223E+03  0.22905364676E+03  0.33132884812E+03  0.00000000000E+00 0. -1.
<mgrwt>
<rscale>  4 0.27754935E+03</rscale>
<asrwt>0</asrwt>
<pdfrwt beam="1">  1       21 0.35743168E-01 0.27754935E+03</pdfrwt>
<pdfrwt beam="2">  1        2 0.86868853E-01 0.27754935E+03</pdfrwt>
<totfact> 0.50054698E+03</totfact>
</mgrwt>
</event>
<event>
 5    0  0.2947253E-001  0.2479916E+03  0.7546771E-02  0.1114581E+00
         21   -1    0    0  503  502  0.00000000000E+00  0.00000000000E+00  0.49735589714E+02  0.49735589714E+02  0.00000000000E+00 0. -1.
          2   -1    0    0  502    0 -0.00000000000E+00 -0.00000000000E+00 -0.16571513355E+04  0.16571513355E+04  0.00000000000E+00 0.  1.
         25    1    1    2    0    0 -0.83372339691E+02  0.20263877349E+03 -0.37175956107E+03  0.44927006443E+03  0.12500000000E+03 0.  0.
         21    1    1    2  503  501 -0.15398287381E+02 -0.25546291481E+02 -0.21006316041E+03  0.21217033634E+03  0.00000000000E+00 0. -1.
          2    1    1    2  501    0  0.98770627072E+02 -0.17709248201E+03 -0.10255930243E+04  0.10454465245E+04  0.00000000000E+00 0.  1.
<mgrwt>
<rscale>  4 0.24799159E+03</rscale>
<asrwt>0</asrwt>
<pdfrwt beam="1">  1       21 0.76516295E-02 0.24799159E+03</pdfrwt>
<pdfrwt beam="2">  1        2 0.25494635E+00 0.24799159E+03</pdfrwt>
<totfact> 0.18518631E+04</totfact>
</mgrwt>
</event>
<event>
 5    0  0.2947253E-001  0.2329718E+03  0.7546771E-02  0.1124565E+00
         -3   -1    0    0    0  501 -0.00000000000E+00  0.00000000000E+00  0.20414467024E+03  0.20414467024E+03  0.00000000000E+00 0.  1.
         21   -1    0    0  501  502  0.00000000000E+00 -0.00000000000E+00 -0.54381000589E+03  0.54381000589E+03  0.00000000000E+00 0. -1.
         25    1    1    2    0    0  0.28857402720E+02  0.20176098452E+03 -0.44345191304E+03  0.50380040070E+03  0.12500000000E+03 0.  0.
         21    1    1    2  501  501 -0.11647280677E+02 -0.32374034554E+02  0.58678232182E+02  0.68021115784E+02  0.00000000000E+00 0.  1.
         -3    1    1    2    0  502 -0.17210122043E+02 -0.16938694997E+03  0.45108345207E+02  0.17613315965E+03  0.00000000000E+00 0.  1.
<mgrwt>
<rscale>  4 0.23297175E+03</rscale>
<asrwt>0</asrwt>
<pdfrwt beam="1">  1       21 0.83663078E-01 0.23297175E+03</pdfrwt>
<pdfrwt beam="2">  1       -3 0.31406872E-01 0.23297175E+03</pdfrwt>
<totfact> 0.59904504E+02</totfact>
</mgrwt>
</event>
<event>
 5    0  0.2947253E-001  0.2978105E+03  0.7546771E-02  0.1086340E+00
          1   -1    0    0  502    0 -0.00000000000E+00  0.00000000000E+00  0.23582139105E+04  0.23582139105E+04  0.00000000000E+00 0.  1.
         21   -1    0    0  503  502  0.00000000000E+00 -0.00000000000E+00 -0.10853552598E+03  0.10853552598E+03  0.00000000000E+00 0. -1.
         25    1    1    2    0    0  0.23773607940E+03 -0.14282494463E+03  0.14075421547E+03  0.33519271685E+03  0.12500000000E+03 0.  0.
         21    1    1    2  503  501 -0.29111773348E+02  0.69723203819E+02  0.30876970250E+03  0.31787977237E+03  0.00000000000E+00 0. -1.
          1    1    1    2  501    0 -0.20862430606E+03  0.73101740811E+02  0.18001544665E+04  0.18136769472E+04  0.00000000000E+00 0.  1.
<mgrwt>
<rscale>  4 0.29781053E+03</rscale>
<asrwt>0</asrwt>
<pdfrwt beam="1">  1       21 0.16697775E-01 0.29781053E+03</pdfrwt>
<pdfrwt beam="2">  1        1 0.36280210E+00 0.29781053E+03</pdfrwt>
<totfact> 0.68711653E+02</totfact>
</mgrwt>
</event>
<event>
 5    0  0.2947253E-001  0.3345712E+03  0.7546771E-02  0.1069132E+00
         21   -1    0    0  501  502  0.00000000000E+00  0.00000000000E+00  0.64450071127E+03  0.64450071127E+03  0.00000000000E+00 0.  1.
         -2   -1    0    0    0  501 -0.00000000000E+00 -0.00000000000E+00 -0.17338554755E+03  0.17338554755E+03  0.00000000000E+00 0.  1.
         25    1    1    2    0    0  0.19201999634E+03  0.24380571703E+03  0.20616190422E+03  0.39298936042E+03  0.12500000000E+03 0.  0.
         21    1    1    2  501  501 -0.46300276161E+02 -0.13113706730E+03  0.16336549179E+03  0.21454353847E+03  0.00000000000E+00 0.  1.
         -2    1    1    2    0  502 -0.14571972018E+03 -0.11266864973E+03  0.10158776771E+03  0.21035335992E+03  0.00000000000E+00 0.  1.
<mgrwt>
<rscale>  4 0.33457123E+03</rscale>
<asrwt>0</asrwt>
<pdfrwt beam="1">  1       21 0.99153955E-01 0.33457123E+03</pdfrwt>
<pdfrwt beam="2">  1       -2 0.26674700E-01 0.33457123E+03</pdfrwt>
<totfact> 0.80879972E+02</totfact>
</mgrwt>
</event>
<event>
 5    0  0.2947253E-001  0.2685230E+03  0.7546771E-02  0.1102128E+00
          1   -1    0    0  502    0 -0.00000000000E+00  0.00000000000E+00  0.38188427858E+03  0.38188427858E+03  0.00000000000E+00 0.  1.
         21   -1    0    0  503  502  0.00000000000E+00 -0.00000000000E+00 -0.70054606275E+03  0.70054606275E+03  0.00000000000E+00 0.  1.
         25    1    1    2    0    0 -0.57694987369E+02  0.23054479943E+03 -0.63199232155E+03  0.68667234589E+03  0.12500000000E+03 0.  0.
         21    1    1    2  503  501  0.31486858564E+02 -0.51779161611E+02  0.89863307484E+02  0.10838781237E+03  0.00000000000E+00 0.  1.
          1    1    1    2  501    0  0.26208128805E+02 -0.17876563782E+03  0.22346722990E+03  0.28737018307E+03  0.00000000000E+00 0.  1.
<mgrwt>
<rscale>  4 0.26852303E+03</rscale>
<asrwt>0</asrwt>
<pdfrwt beam="1">  1       21 0.10777632E+00 0.26852303E+03</pdfrwt>
<pdfrwt beam="2">  1        1 0.58751428E-01 0.26852303E+03</pdfrwt>
<totfact> 0.46549323E+02</totfact>
</mgrwt>
</event>
<event>
 5    0  0.2947253E-001  0.3359019E+03  0.7546771E-02  0.1068555E+00
          2   -1    0    0  502    0 -0.00000000000E+00  0.00000000000E+00  0.12136543348E+04  0.12136543348E+04  0.00000000000E+00 0. -1.
         21   -1    0    0  503  502  0.00000000000E+00 -0.00000000000E+00 -0.87683866446E+02  0.87683866446E+02  0.00000000000E+00 0.  1.
         25    1    1    2    0    0  0.21724451424E+03 -0.22362889382E+03  0.59067834147E+03  0.67950788384E+03  0.12500000000E+03 0.  0.
         21    1    1    2  503  501 -0.18092892183E+03  0.19770259105E+03  0.42015225070E+03  0.49834676986E+03  0.00000000000E+00 0. -1.
          2    1    1    2  501    0 -0.36315592408E+02  0.25926302776E+02  0.11513987622E+03  0.12348354758E+03  0.00000000000E+00 0. -1.
<mgrwt>
<rscale>  4 0.33590186E+03</rscale>
<asrwt>0</asrwt>
<pdfrwt beam="1">  1       21 0.13489826E-01 0.33590186E+03</pdfrwt>
<pdfrwt beam="2">  1        2 0.18671604E+00 0.33590186E+03</pdfrwt>
<totfact> 0.11509031E+04</totfact>
</mgrwt>
</event>
<event>
 5    0  0.2947253E-001  0.2571439E+03  0.7546771E-02  0.1108871E+00
          2   -1    0    0  502    0 -0.00000000000E+00  0.00000000000E+00  0.23790870123E+04  0.23790870123E+04  0.00000000000E+00 0. -1.
         21   -1    0    0  503  502  0.00000000000E+00 -0.00000000000E+00 -0.94578753254E+02  0.94578753254E+02  0.00000000000E+00 0. -1.
         25    1    1    2    0    0  0.22647349666E+03 -0.18026422426E+02  0.10758785360E+03  0.28074070392E+03  0.12500000000E+03 0.  0.
         21    1    1    2  503  501 -0.26563318308E+02  0.29607148838E+02  0.12312381627E+03  0.12938959493E+03  0.00000000000E+00 0. -1.
          2    1    1    2  501    0 -0.19991017836E+03 -0.11580726413E+02  0.20537965892E+04  0.20635354667E+04  0.00000000000E+00 0. -1.
<mgrwt>
<rscale>  4 0.25714387E+03</rscale>
<asrwt>0</asrwt>
<pdfrwt beam="1">  1       21 0.14550579E-01 0.25714387E+03</pdfrwt>
<pdfrwt beam="2">  1        2 0.36601334E+00 0.25714387E+03</pdfrwt>
<totfact> 0.24361907E+03</totfact>
</mgrwt>
</event>
<event>
 5    0  0.2947253E-001  0.6191242E+03  0.7546771E-02  0.9866505E-01
         21   -1    0    0  503  502  0.00000000000E+00  0.00000000000E+00  0.21884595539E+03  0.21884595539E+03  0.00000000000E+00 0.  1.
          2   -1    0    0  502    0 -0.00000000000E+00 -0.00000000000E+00 -0.19508644566E+04  0.19508644566E+04  0.00000000000E+00 0.  1.
         25    1    1    2    0    0 -0.91656150096E+02  0.59940713757E+03 -0.12292784010E+04  0.13763866294E+04  0.12500000000E+03 0.  0.
         21    1    1    2  503  501 -0.19266412634E+02 -0.61451577467E+02 -0.54548116439E+02  0.84397796393E+02  0.00000000000E+00 0.  1.
          2    1    1    2  501    0  0.11092256273E+03 -0.53795556010E+03 -0.44819198373E+03  0.70892598616E+03  0.00000000000E+00 0.  1.
<mgrwt>
<rscale>  4 0.61912419E+03</rscale>
<asrwt>0</asrwt>
<pdfrwt beam="1">  1       21 0.33668608E-01 0.61912419E+03</pdfrwt>
<pdfrwt beam="2">  1        2 0.30013300E+00 0.61912419E+03</pdfrwt>
<totfact> 0.73844433E+02</totfact>
</mgrwt>
</event>
<event>
 5    0  0.2947253E-001  0.3139762E+03  0.7546771E-02  0.1078456E+00
          2   -1    0    0  502    0 -0.00000000000E+00  0.00000000000E+00  0.37915893548E+04  0.37915893548E+04  0.00000000000E+00 0. -1.
         21   -1    0    0  503  502  0.00000000000E+00 -0.00000000000E+00 -0.28181138350E+02  0.28181138350E+02  0.00000000000E+00 0.  1.
         25    1    1    2    0    0  0.19049521883E+03 -0.23721476383E+03  0.16917395058E+04  0.17234171950E+04  0.12500000000E+03 0.  0.
         21    1    1    2  503  501 -0.23861768852E+02  0.20831973263E+02  0.51005914332E+03  0.51104176425E+03  0.00000000000E+00 0. -1.
          2    1    1    2  501    0 -0.16663344998E+03  0.21638279057E+03  0.15616095673E+04  0.15853115339E+04  0.00000000000E+00 0. -1.
<mgrwt>
<rscale>  4 0.31397616E+03</rscale>
<asrwt>0</asrwt>
<pdfrwt beam="1">  1       21 0.43355628E-02 0.31397616E+03</pdfrwt>
<pdfrwt beam="2">  1        2 0.58332103E+00 0.31397616E+03</pdfrwt>
<totfact> 0.27214624E+03</totfact>
</mgrwt>
</event>
<event>
 5    0  0.2947253E-001  0.2349800E+03  0.7546771E-02  0.1123183E+00
         21   -1    0    0  501  502  0.00000000000E+00  0.00000000000E+00  0.16561388902E+03  0.16561388902E+03  0.00000000000E+00 0. -1.
         -2   -1    0    0    0  501 -0.00000000000E+00 -0.00000000000E+00 -0.67167936535E+03  0.67167936535E+03  0.00000000000E+00 0.  1.
         25    1    1    2    0    0 -0.23067509974E+03 -0.11680973407E+02 -0.35991480604E+01  0.26265071987E+03  0.12500000000E+03 0.  0.
         21    1    1    2  501  501  0.11842338121E+03 -0.65877711216E+02 -0.18703908500E+03  0.23097097084E+03  0.00000000000E+00 0. -1.
         -2    1    1    2    0  502  0.11225171853E+03  0.77558684624E+02 -0.31542724327E+03  0.34367156366E+03  0.00000000000E+00 0.  1.
<mgrwt>
<rscale>  4 0.23498001E+03</rscale>
<asrwt>0</asrwt>
<pdfrwt beam="1">  1       21 0.25479060E-01 0.23498001E+03</pdfrwt>
<pdfrwt beam="2">  1       -2 0.10333529E+00 0.23498001E+03</pdfrwt>
<totfact> 0.94125857E+02</totfact>
</mgrwt>
</event>
<event>
 5    0  0.2947253E-001  0.2445902E+03  0.7546771E-02  0.1116772E+00
          1   -1    0    0  502    0 -0.00000000000E+00  0.00000000000E+00  0.29676355753E+03  0.29676355753E+03  0.00000000000E+00 0. -1.
         21   -1    0    0  503  502  0.00000000000E+00 -0.00000000000E+00 -0.59516031709E+03  0.59516031709E+03  0.00000000000E+00 0.  1.
         25    1    1    2    0    0 -0.21159419635E+03  0.50620771344E+02 -0.46751262722E+03  0.53059176683E+03  0.12500000000E+03 0.  0.
         21    1    1    2  503  501  0.43907473800E+02 -0.84187285836E+02 -0.29320256587E+02  0.99373249913E+02  0.00000000000E+00 0.  1.
          1    1    1    2  501    0  0.16768672255E+03  0.33566514491E+02  0.19843612425E+03  0.26195885788E+03  0.00000000000E+00 0. -1.
<mgrwt>
<rscale>  4 0.24459021E+03</rscale>
<asrwt>0</asrwt>
<pdfrwt beam="1">  1       21 0.91563124E-01 0.24459021E+03</pdfrwt>
<pdfrwt beam="2">  1        1 0.45655933E-01 0.24459021E+03</pdfrwt>
<totfact> 0.95644390E+02</totfact>
</mgrwt>
</event>
<event>
 5    0  0.2947253E-001  0.2544117E+03  0.7546771E-02  0.1110548E+00
          4   -1    0    0  502    0 -0.00000000000E+00  0.00000000000E+00  0.44978927095E+03  0.44978927095E+03  0.00000000000E+00 0.  1.
         21   -1    0    0  503  502  0.00000000000E+00 -0.00000000000E+00 -0.15991825082E+03  0.15991825082E+03  0.00000000000E+00 0.  1.
         25    1    1    2    0    0 -0.21790732784E+03 -0.40208134033E+02  0.19697868949E+02  0.25517308559E+03  0.12500000000E+03 0.  0.
         21    1    1    2  503  501  0.67022144221E+02 -0.44387978738E+01  0.49194000353E+02  0.83256954144E+02  0.00000000000E+00 0.  1.
          4    1    1    2  501    0  0.15088518361E+03  0.44646931906E+02  0.22097915083E+03  0.27127748204E+03  0.00000000000E+00 0.  1.
<mgrwt>
<rscale>  4 0.25441167E+03</rscale>
<asrwt>0</asrwt>
<pdfrwt beam="1">  1       21 0.24602808E-01 0.25441167E+03</pdfrwt>
<pdfrwt beam="2">  1        4 0.69198349E-01 0.25441167E+03</pdfrwt>
<totfact> 0.12864187E+03</totfact>
</mgrwt>
</event>
<event>
 5    0  0.2947253E-001  0.2650829E+03  0.7546771E-02  0.1104127E+00
         21   -1    0    0  503  502  0.00000000000E+00  0.00000000000E+00  0.28406065476E+02  0.28406065476E+02  0.00000000000E+00 0. -1.
          1   -1    0    0  502    0 -0.00000000000E+00 -0.00000000000E+00 -0.36111693607E+04  0.36111693607E+04  0.00000000000E+00 0. -1.
         25    1    1    2    0    0 -0.30350748377E+02  0.23178170636E+03 -0.74703138815E+03  0.79266942808E+03  0.12500000000E+03 0.  0.
         21    1    1    2  503  501  0.36081914351E+01 -0.76403233502E+02 -0.49546607905E+03  0.50133532553E+03  0.00000000000E+00 0. -1.
          1    1    1    2  501    0  0.26742556942E+02 -0.15537847286E+03 -0.23402658280E+04  0.23455706726E+04  0.00000000000E+00 0. -1.
<mgrwt>
<rscale>  4 0.26508287E+03</rscale>
<asrwt>0</asrwt>
<pdfrwt beam="1">  1       21 0.43701626E-02 0.26508287E+03</pdfrwt>
<pdfrwt beam="2">  1        1 0.55556469E+00 0.26508287E+03</pdfrwt>
<totfact> 0.97624993E+02</totfact>
</mgrwt>
</event>
<event>
 5    0  0.2947253E-001  0.3038362E+03  0.7546771E-02  0.1083338E+00
         21   -1    0    0  501  502  0.00000000000E+00  0.00000000000E+00  0.17184358831E+03  0.17184358831E+03  0.00000000000E+00 0.  1.
         -1   -1    0    0    0  501 -0.00000000000E+00 -0.00000000000E+00 -0.79840942420E+03  0.79840942420E+03  0.00000000000E+00 0.  1.
         25    1    1    2    0    0 -0.11992671463E+03  0.25261424003E+03 -0.58355462567E+03  0.65905794304E+03  0.12500000000E+03 0.  0.
         21    1    1    2  501  501 -0.27480945730E+02 -0.26050309493E+02 -0.70550585462E+01  0.38517461676E+02  0.00000000000E+00 0. -1.
         -1    1    1    2    0  502  0.14740766036E+03 -0.22656393054E+03 -0.35956151671E+02  0.27267760780E+03  0.00000000000E+00 0.  1.
<mgrwt>
<rscale>  4 0.30383622E+03</rscale>
<asrwt>0</asrwt>
<pdfrwt beam="1">  1       21 0.26437475E-01 0.30383622E+03</pdfrwt>
<pdfrwt beam="2">  1       -1 0.12283222E+00 0.30383622E+03</pdfrwt>
<totfact> 0.77141827E+02</totfact>
</mgrwt>
</event>
<event>
 5    0  0.4445182E-001  0.3278245E+03  0.7546771E-02  0.1072104E+00
         21   -1    0    0  503  502  0.00000000000E+00  0.00000000000E+00  0.15285888532E+03  0.15285888532E+03  0.00000000000E+00 0.  1.
          1   -1    0    0  502    0 -0.00000000000E+00 -0.00000000000E+00 -0.11013507622E+04  0.11013507622E+04  0.00000000000E+00 0.  1.
         25    1    1    2    0    0 -0.74369949830E+02 -0.30735572982E+03 -0.11784510316E+03  0.35987623210E+03  0.12500000000E+03 0.  0.
         21    1    1    2  503  501 -0.77028708289E+01  0.18600312409E+02 -0.14730826271E+02  0.24946003355E+02  0.00000000000E+00 0.  1.
          1    1    1    2  501    0  0.82072820659E+02  0.28875541741E+03 -0.81591594748E+03  0.86938741210E+03  0.00000000000E+00 0.  1.
<mgrwt>
<rscale>  4 0.32782445E+03</rscale>
<asrwt>0</asrwt>
<pdfrwt beam="1">  1       21 0.23516751E-01 0.32782445E+03</pdfrwt>
<pdfrwt beam="2">  1        1 0.16943858E+00 0.32782445E+03</pdfrwt>
<totfact> 0.24555963E+03</totfact>
</mgrwt>
</event>
<event>
 5    0  0.2947253E-001  0.2415872E+03  0.7546771E-02  0.1118740E+00
          2   -1    0    0  502    0 -0.00000000000E+00  0.00000000000E+00  0.62441565850E+03  0.62441565850E+03  0.00000000000E+00 0.  1.
         21   -1    0    0  503  502  0.00000000000E+00 -0.00000000000E+00 -0.16228849822E+03  0.16228849822E+03  0.00000000000E+00 0.  1.
         25    1    1    2    0    0  0.93967017227E+02 -0.18414548892E+03 -0.33636154560E+02  0.24391751128E+03  0.12500000000E+03 0.  0.
         21    1    1    2  503  501  0.78739351452E+01  0.58112302610E+02  0.14474118613E+03  0.15616993799E+03  0.00000000000E+00 0.  1.
          2    1    1    2  501    0 -0.10184095237E+03  0.12603318631E+03  0.35102212872E+03  0.38661670745E+03  0.00000000000E+00 0.  1.
<mgrwt>
<rscale>  4 0.24158717E+03</rscale>
<asrwt>0</asrwt>
<pdfrwt beam="1">  1       21 0.24967462E-01 0.24158717E+03</pdfrwt>
<pdfrwt beam="2">  1        2 0.96063946E-01 0.24158717E+03</pdfrwt>
<totfact> 0.90807937E+03</totfact>
</mgrwt>
</event>
<event>
 5    0  0.2947253E-001  0.2565434E+03  0.7546771E-02  0.1109238E+00
          1   -1    0    0  502    0 -0.00000000000E+00  0.00000000000E+00  0.18817095215E+04  0.18817095215E+04  0.00000000000E+00 0.  1.
         21   -1    0    0  503  502  0.00000000000E+00 -0.00000000000E+00 -0.21226355686E+03  0.21226355686E+03  0.00000000000E+00 0.  1.
         25    1    1    2    0    0  0.22008576914E+03  0.42988799369E+02 -0.12092620701E+03  0.28378500699E+03  0.12500000000E+03 0.  0.
         21    1    1    2  503  501 -0.12466416449E+02  0.39938919979E+02  0.21523575633E+03  0.21926458827E+03  0.00000000000E+00 0.  1.
          1    1    1    2  501    0 -0.20761935269E+03 -0.82927719348E+02  0.15751364153E+04  0.15909234831E+04  0.00000000000E+00 0.  1.
<mgrwt>
<rscale>  4 0.25654339E+03</rscale>
<asrwt>0</asrwt>
<pdfrwt beam="1">  1       21 0.32655933E-01 0.25654339E+03</pdfrwt>
<pdfrwt beam="2">  1        1 0.28949376E+00 0.25654339E+03</pdfrwt>
<totfact> 0.39786618E+02</totfact>
</mgrwt>
</event>
<event>
 5    0  0.2947253E-001  0.2857670E+03  0.7546771E-02  0.1092580E+00
          2   -1    0    0  502    0 -0.00000000000E+00  0.00000000000E+00  0.66823599635E+03  0.66823599635E+03  0.00000000000E+00 0. -1.
         21   -1    0    0  503  502  0.00000000000E+00 -0.00000000000E+00 -0.38356912929E+03  0.38356912929E+03  0.00000000000E+00 0.  1.
         25    1    1    2    0    0  0.26342925842E+02  0.25562435115E+03 -0.29635732286E+03  0.41169214403E+03  0.12500000000E+03 0.  0.
         21    1    1    2  503  501  0.20632280364E+02 -0.90490873295E+02  0.15314298298E+03  0.17907278514E+03  0.00000000000E+00 0. -1.
          2    1    1    2  501    0 -0.46975206206E+02 -0.16513347786E+03  0.42788120694E+03  0.46104019647E+03  0.00000000000E+00 0. -1.
<mgrwt>
<rscale>  4 0.28576697E+03</rscale>
<asrwt>0</asrwt>
<pdfrwt beam="1">  1       21 0.59010635E-01 0.28576697E+03</pdfrwt>
<pdfrwt beam="2">  1        2 0.10280554E+00 0.28576697E+03</pdfrwt>
<totfact> 0.14429524E+03</totfact>
</mgrwt>
</event>
<event>
 5    0  0.2947253E-001  0.2352478E+03  0.7546771E-02  0.1123000E+00
         21   -1    0    0  503  502  0.00000000000E+00  0.00000000000E+00  0.23938944319E+03  0.23938944319E+03  0.00000000000E+00 0. -1.
          2   -1    0    0  502    0 -0.00000000000E+00 -0.00000000000E+00 -0.64270473426E+03  0.64270473426E+03  0.00000000000E+00 0.  1.
         25    1    1    2    0    0 -0.84239140756E+02  0.19805183029E+03  0.13774643073E+03  0.28446412690E+03  0.12500000000E+03 0.  0.
         21    1    1    2  503  501 -0.96887058529E+01 -0.23721268722E+02 -0.49263358728E+01  0.26092880179E+02  0.00000000000E+00 0. -1.
          2    1    1    2  501    0  0.93927846609E+02 -0.17433056157E+03 -0.53613538593E+03  0.57153717037E+03  0.00000000000E+00 0.  1.
<mgrwt>
<rscale>  4 0.23524784E+03</rscale>
<asrwt>0</asrwt>
<pdfrwt beam="1">  1       21 0.36829146E-01 0.23524784E+03</pdfrwt>
<pdfrwt beam="2">  1        2 0.98877648E-01 0.23524784E+03</pdfrwt>
<totfact> 0.41010669E+03</totfact>
</mgrwt>
</event>
<event>
 5    0  0.2947253E-001  0.2831399E+03  0.7546771E-02  0.1093986E+00
          2   -1    0    0  502    0 -0.00000000000E+00  0.00000000000E+00  0.63442483493E+03  0.63442483493E+03  0.00000000000E+00 0.  1.
         21   -1    0    0  503  502  0.00000000000E+00 -0.00000000000E+00 -0.22018173942E+03  0.22018173942E+03  0.00000000000E+00 0. -1.
         25    1    1    2    0    0  0.22257567223E+01 -0.25404375921E+03 -0.79257400680E+02  0.29402367447E+03  0.12500000000E+03 0.  0.
         21    1    1    2  503  501  0.19738173449E+02  0.30197824237E+02  0.36982770327E+02  0.51664585363E+02  0.00000000000E+00 0. -1.
          2    1    1    2  501    0 -0.21963930171E+02  0.22384593497E+03  0.45651772585E+03  0.50891831452E+03  0.00000000000E+00 0.  1.
<mgrwt>
<rscale>  4 0.28313987E+03</rscale>
<asrwt>0</asrwt>
<pdfrwt beam="1">  1       21 0.33874114E-01 0.28313987E+03</pdfrwt>
<pdfrwt beam="2">  1        2 0.97603820E-01 0.28313987E+03</pdfrwt>
<totfact> 0.48569690E+03</totfact>
</mgrwt>
</event>
<event>
 5    0  0.2947253E-001  0.2447223E+03  0.7546771E-02  0.1116686E+00
         21   -1    0    0  503  502  0.00000000000E+00  0.00000000000E+00  0.50224211543E+03  0.50224211543E+03  0.00000000000E+00 0.  1.
          3   -1    0    0  502    0 -0.00000000000E+00 -0.00000000000E+00 -0.22906643018E+03  0.22906643018E+03  0.00000000000E+00 0.  1.
         25    1    1    2    0    0  0.12234959478E+03 -0.18337668434E+03  0.20530475669E+03  0.32614640091E+03  0.12500000000E+03 0.  0.
         21    1    1    2  503  501  0.10369245661E+03  0.12877425991E+03  0.45883618403E+02  0.17158158995E+03  0.00000000000E+00 0.  1.
          3    1    1    2  501    0 -0.22604205139E+03  0.54602424426E+02  0.21987310153E+02  0.23358055475E+03  0.00000000000E+00 0.  1.
<mgrwt>
<rscale>  4 0.24472225E+03</rscale>
<asrwt>0</asrwt>
<pdfrwt beam="1">  1       21 0.77268018E-01 0.24472225E+03</pdfrwt>
<pdfrwt beam="2">  1        3 0.35240989E-01 0.24472225E+03</pdfrwt>
<totfact> 0.57575692E+02</totfact>
</mgrwt>
</event>
<event>
 5    0  0.2947253E-001  0.3197481E+03  0.7546771E-02  0.1075765E+00
          1   -1    0    0  502    0 -0.00000000000E+00  0.00000000000E+00  0.36943044214E+03  0.36943044214E+03  0.00000000000E+00 0.  1.
         21   -1    0    0  503  502  0.00000000000E+00 -0.00000000000E+00 -0.55401294440E+03  0.55401294440E+03  0.00000000000E+00 0.  1.
         25    1    1    2    0    0  0.37410919937E+03 -0.11368486515E+03 -0.14372882049E+03  0.43493093182E+03  0.12500000000E+03 0.  0.
         21    1    1    2  503  501 -0.13038582823E+03  0.58477176528E+02  0.12394900198E+03  0.18916500594E+03  0.00000000000E+00 0.  1.
          1    1    1    2  501    0 -0.24372337114E+03  0.55207688627E+02 -0.16480268374E+03  0.29934744878E+03  0.00000000000E+00 0.  1.
<mgrwt>
<rscale>  4 0.31974806E+03</rscale>
<asrwt>0</asrwt>
<pdfrwt beam="1">  1       21 0.85232760E-01 0.31974806E+03</pdfrwt>
<pdfrwt beam="2">  1        1 0.56835453E-01 0.31974806E+03</pdfrwt>
<totfact> 0.83196963E+02</totfact>
</mgrwt>
</event>
<event>
 5    0  0.2947253E-001  0.2424890E+03  0.7546771E-02  0.1118146E+00
         21   -1    0    0  503  502  0.00000000000E+00  0.00000000000E+00  0.99719272472E+02  0.99719272472E+02  0.00000000000E+00 0.  1.
          1   -1    0    0  502    0 -0.00000000000E+00 -0.00000000000E+00 -0.27769906651E+04  0.27769906651E+04  0.00000000000E+00 0. -1.
         25    1    1    2    0    0 -0.20810530339E+02 -0.20674341045E+03 -0.59787089361E+02  0.24975069968E+03  0.12500000000E+03 0.  0.
         21    1    1    2  503  501  0.32259221052E+02  0.90236689378E+02 -0.80211293415E+03  0.80781710589E+03  0.00000000000E+00 0. -1.
          1    1    1    2  501    0 -0.11448690713E+02  0.11650672107E+03 -0.18153713691E+04  0.18191421320E+04  0.00000000000E+00 0. -1.
<mgrwt>
<rscale>  4 0.24248900E+03</rscale>
<asrwt>0</asrwt>
<pdfrwt beam="1">  1       21 0.15341428E-01 0.24248900E+03</pdfrwt>
<pdfrwt beam="2">  1        1 0.42722928E+00 0.24248900E+03</pdfrwt>
<totfact> 0.43419844E+02</totfact>
</mgrwt>
</event>
<event>
 5    0  0.2947253E-001  0.2767402E+03  0.7546771E-02  0.1097483E+00
         -4   -1    0    0    0  501 -0.00000000000E+00  0.00000000000E+00  0.93784409994E+03  0.93784409994E+03  0.00000000000E+00 0.  1.
         21   -1    0    0  501  502  0.00000000000E+00 -0.00000000000E+00 -0.17393012344E+03  0.17393012344E+03  0.00000000000E+00 0.  1.
         25    1    1    2    0    0 -0.97326250208E+02 -0.22738433133E+03 -0.15826967740E+02  0.27758156643E+03  0.12500000000E+03 0.  0.
         21    1    1    2  501  501  0.11746580694E+03  0.21601287158E+03  0.54008866865E+03  0.59342695127E+03  0.00000000000E+00 0.  1.
         -4    1    1    2    0  502 -0.20139556735E+02  0.11371459748E+02  0.23965227559E+03  0.24076570569E+03  0.00000000000E+00 0.  1.
<mgrwt>
<rscale>  4 0.27674020E+03</rscale>
<asrwt>0</asrwt>
<pdfrwt beam="1">  1       21 0.26758481E-01 0.27674020E+03</pdfrwt>
<pdfrwt beam="2">  1       -4 0.14428371E+00 0.27674020E+03</pdfrwt>
<totfact> 0.19360395E+02</totfact>
</mgrwt>
</event>
<event>
 5    0  0.2947253E-001  0.2502768E+03  0.7546771E-02  0.1113130E+00
          2   -1    0    0  502    0 -0.00000000000E+00  0.00000000000E+00  0.24454478394E+04  0.24454478394E+04  0.00000000000E+00 0. -1.
         21   -1    0    0  503  502  0.00000000000E+00 -0.00000000000E+00 -0.30685213784E+02  0.30685213784E+02  0.00000000000E+00 0.  1.
         25    1    1    2    0    0  0.20052898959E+03 -0.98988814659E+02  0.70895409200E+03  0.75382462527E+03  0.12500000000E+03 0.  0.
         21    1    1    2  503  501 -0.11348251292E+02  0.20643429696E+02  0.38522721998E+03  0.38594681629E+03  0.00000000000E+00 0.  1.
          2    1    1    2  501    0 -0.18918073830E+03  0.78345384963E+02  0.13205813136E+04  0.13363616116E+04  0.00000000000E+00 0. -1.
<mgrwt>
<rscale>  4 0.25027678E+03</rscale>
<asrwt>0</asrwt>
<pdfrwt beam="1">  1       21 0.47208040E-02 0.25027678E+03</pdfrwt>
<pdfrwt beam="2">  1        2 0.37622259E+00 0.25027678E+03</pdfrwt>
<totfact> 0.16279888E+04</totfact>
</mgrwt>
</event>
<event>
 5    0  0.2947253E-001  0.3018006E+03  0.7546771E-02  0.1084344E+00
          1   -1    0    0  502    0 -0.00000000000E+00  0.00000000000E+00  0.92753213339E+03  0.92753213339E+03  0.00000000000E+00 0. -1.
         21   -1    0    0  503  502  0.00000000000E+00 -0.00000000000E+00 -0.16451057963E+03  0.16451057963E+03  0.00000000000E+00 0. -1.
         25    1    1    2    0    0 -0.67146204091E+02 -0.26636438379E+03  0.75502710042E+03  0.81311101335E+03  0.12500000000E+03 0.  0.
         21    1    1    2  503  501  0.24707312223E+02  0.41520682313E+02 -0.10252100751E+02  0.49391536793E+02  0.00000000000E+00 0.  1.
          1    1    1    2  501    0  0.42438891868E+02  0.22484370147E+03  0.18246554093E+02  0.22954016287E+03  0.00000000000E+00 0. -1.
<mgrwt>
<rscale>  4 0.30180059E+03</rscale>
<asrwt>0</asrwt>
<pdfrwt beam="1">  1       21 0.25309321E-01 0.30180059E+03</pdfrwt>
<pdfrwt beam="2">  1        1 0.14269725E+00 0.30180059E+03</pdfrwt>
<totfact> 0.29006671E+03</totfact>
</mgrwt>
</event>
<event>
 5    0  0.2947253E-001  0.2378515E+03  0.7546771E-02  0.1121232E+00
         21   -1    0    0  503  502  0.00000000000E+00  0.00000000000E+00  0.11707237314E+03  0.11707237314E+03  0.00000000000E+00 0. -1.
          3   -1    0    0  502    0 -0.00000000000E+00 -0.00000000000E+00 -0.43738956750E+03  0.43738956750E+03  0.00000000000E+00 0. -1.
         25    1    1    2    0    0  0.68810021867E+02 -0.19029854643E+03 -0.20736443842E+03  0.31555247774E+03  0.12500000000E+03 0.  0.
         21    1    1    2  503  501 -0.58857067649E+01  0.28027051050E+02  0.44319506069E+01  0.28979291242E+02  0.00000000000E+00 0. -1.
          3    1    1    2  501    0 -0.62924315102E+02  0.16227149538E+03 -0.11738470654E+03  0.20993017166E+03  0.00000000000E+00 0. -1.
<mgrwt>
<rscale>  4 0.23785154E+03</rscale>
<asrwt>0</asrwt>
<pdfrwt beam="1">  1       21 0.18011134E-01 0.23785154E+03</pdfrwt>
<pdfrwt beam="2">  1        3 0.67290703E-01 0.23785154E+03</pdfrwt>
<totfact> 0.30033926E+03</totfact>
</mgrwt>
</event>
<event>
 5    0  0.2947253E-001  0.3229697E+03  0.7546771E-02  0.1074291E+00
         21   -1    0    0  503  502  0.00000000000E+00  0.00000000000E+00  0.55478135612E+02  0.55478135612E+02  0.00000000000E+00 0.  1.
          1   -1    0    0  502    0 -0.00000000000E+00 -0.00000000000E+00 -0.18390368310E+04  0.18390368310E+04  0.00000000000E+00 0.  1.
         25    1    1    2    0    0  0.22623859580E+03  0.19365060579E+03 -0.10609290998E+04  0.11089995555E+04  0.12500000000E+03 0.  0.
         21    1    1    2  503  501 -0.13373116899E+03 -0.14365975813E+03 -0.38903631170E+03  0.43574235907E+03  0.00000000000E+00 0.  1.
          1    1    1    2  501    0 -0.92507426806E+02 -0.49990847660E+02 -0.33359328394E+03  0.34977305207E+03  0.00000000000E+00 0.  1.
<mgrwt>
<rscale>  4 0.32296975E+03</rscale>
<asrwt>0</asrwt>
<pdfrwt beam="1">  1       21 0.85350985E-02 0.32296975E+03</pdfrwt>
<pdfrwt beam="2">  1        1 0.28292872E+00 0.32296975E+03</pdfrwt>
<totfact> 0.50147868E+03</totfact>
</mgrwt>
</event>
<event>
 5    0  0.2947253E-001  0.2334188E+03  0.7546771E-02  0.1124256E+00
          1   -1    0    0  502    0 -0.00000000000E+00  0.00000000000E+00  0.71512371075E+03  0.71512371075E+03  0.00000000000E+00 0.  1.
         21   -1    0    0  503  502  0.00000000000E+00 -0.00000000000E+00 -0.85177075880E+02  0.85177075880E+02  0.00000000000E+00 0. -1.
         25    1    1    2    0    0 -0.59431278587E+02 -0.20049858976E+03  0.20773299678E+03  0.32017145301E+03  0.12500000000E+03 0.  0.
         21    1    1    2  503  501  0.22064321308E+02  0.11388047034E+02  0.13558020769E+02  0.28290313134E+02  0.00000000000E+00 0.  1.
          1    1    1    2  501    0  0.37366957279E+02  0.18911054273E+03  0.40865561732E+03  0.45183902049E+03  0.00000000000E+00 0.  1.
<mgrwt>
<rscale>  4 0.23341878E+03</rscale>
<asrwt>0</asrwt>
<pdfrwt beam="1">  1       21 0.13104166E-01 0.23341878E+03</pdfrwt>
<pdfrwt beam="2">  1        1 0.11001903E+00 0.23341878E+03</pdfrwt>
<totfact> 0.15125972E+04</totfact>
</mgrwt>
</event>
<event>
 5    0  0.2947253E-001  0.2372012E+03  0.7546771E-02  0.1121671E+00
         21   -1    0    0  503  502  0.00000000000E+00  0.00000000000E+00  0.15064865726E+03  0.15064865726E+03  0.00000000000E+00 0. -1.
          2   -1    0    0  502    0 -0.00000000000E+00 -0.00000000000E+00 -0.14520685353E+04  0.14520685353E+04  0.00000000000E+00 0. -1.
         25    1    1    2    0    0 -0.19858678330E+03 -0.35395025558E+02  0.38038348090E+02  0.24033608606E+03  0.12500000000E+03 0.  0.
         21    1    1    2  503  501  0.20242824848E+03  0.52904670914E+01 -0.92954401641E+03  0.95134497595E+03  0.00000000000E+00 0. -1.
          2    1    1    2  501    0 -0.38414651803E+01  0.30104558466E+02 -0.40991420973E+03  0.41103613057E+03  0.00000000000E+00 0. -1.
<mgrwt>
<rscale>  4 0.23720121E+03</rscale>
<asrwt>0</asrwt>
<pdfrwt beam="1">  1       21 0.23176717E-01 0.23720121E+03</pdfrwt>
<pdfrwt beam="2">  1        2 0.22339516E+00 0.23720121E+03</pdfrwt>
<totfact> 0.31881888E+03</totfact>
</mgrwt>
</event>
<event>
 5    0  0.2947253E-001  0.3616374E+03  0.7546771E-02  0.1057937E+00
          2   -1    0    0  502    0 -0.00000000000E+00  0.00000000000E+00  0.24034887288E+04  0.24034887288E+04  0.00000000000E+00 0. -1.
         21   -1    0    0  503  502  0.00000000000E+00 -0.00000000000E+00 -0.57839311035E+02  0.57839311035E+02  0.00000000000E+00 0. -1.
         25    1    1    2    0    0 -0.33698114446E+03  0.40004368873E+02  0.84913275919E+03  0.92293449604E+03  0.12500000000E+03 0.  0.
         21    1    1    2  503  501  0.59932173417E+02 -0.49491373571E+02  0.39103531129E+03  0.39868518425E+03  0.00000000000E+00 0. -1.
          2    1    1    2  501    0  0.27704897104E+03  0.94870046986E+01  0.11054813473E+04  0.11397083596E+04  0.00000000000E+00 0. -1.
<mgrwt>
<rscale>  4 0.36163744E+03</rscale>
<asrwt>0</asrwt>
<pdfrwt beam="1">  1       21 0.88983574E-02 0.36163744E+03</pdfrwt>
<pdfrwt beam="2">  1        2 0.36976742E+00 0.36163744E+03</pdfrwt>
<totfact> 0.55109270E+03</totfact>
</mgrwt>
</event>
<event>
 5    0  0.2947253E-001  0.3724581E+03  0.7546771E-02  0.1053757E+00
          2   -1    0    0  502    0 -0.00000000000E+00  0.00000000000E+00  0.37923555511E+03  0.37923555511E+03  0.00000000000E+00 0. -1.
         21   -1    0    0  503  502  0.00000000000E+00 -0.00000000000E+00 -0.98807726347E+03  0.98807726347E+03  0.00000000000E+00 0. -1.
         25    1    1    2    0    0  0.80300596140E+02  0.24371177217E+03 -0.73100480527E+03  0.78475259730E+03  0.12500000000E+03 0.  0.
         21    1    1    2  503  501 -0.30540714229E+01  0.11152644244E+03 -0.10555524447E+03  0.15358836008E+03  0.00000000000E+00 0. -1.
          2    1    1    2  501    0 -0.77246524718E+02 -0.35523821461E+03  0.22771834138E+03  0.42897186120E+03  0.00000000000E+00 0. -1.
<mgrwt>
<rscale>  4 0.37245812E+03</rscale>
<asrwt>0</asrwt>
<pdfrwt beam="1">  1       21 0.15201188E+00 0.37245812E+03</pdfrwt>
<pdfrwt beam="2">  1        2 0.58343933E-01 0.37245812E+03</pdfrwt>
<totfact> 0.27660772E+02</totfact>
</mgrwt>
</event>
<event>
 5    0  0.2947253E-001  0.2536050E+03  0.7546771E-02  0.1111048E+00
          2   -1    0    0  502    0 -0.00000000000E+00  0.00000000000E+00  0.15631187957E+04  0.15631187957E+04  0.00000000000E+00 0. -1.
         21   -1    0    0  503  502  0.00000000000E+00 -0.00000000000E+00 -0.61204688705E+02  0.61204688705E+02  0.00000000000E+00 0. -1.
         25    1    1    2    0    0  0.72463621704E+02 -0.20842150959E+03  0.12716508043E+04  0.12966924347E+04  0.12500000000E+03 0.  0.
         21    1    1    2  503  501 -0.15898945795E+02  0.85171348390E+02  0.43842217151E+02  0.97103424598E+02  0.00000000000E+00 0. -1.
          2    1    1    2  501    0 -0.56564675909E+02  0.12325016120E+03  0.18642108548E+03  0.23052762505E+03  0.00000000000E+00 0. -1.
<mgrwt>
<rscale>  4 0.25360501E+03</rscale>
<asrwt>0</asrwt>
<pdfrwt beam="1">  1       21 0.94161071E-02 0.25360501E+03</pdfrwt>
<pdfrwt beam="2">  1        2 0.24047978E+00 0.25360501E+03</pdfrwt>
<totfact> 0.14397314E+04</totfact>
</mgrwt>
</event>
<event>
 5    0  0.2947253E-001  0.4803989E+03  0.7546771E-02  0.1019026E+00
         21   -1    0    0  503  502  0.00000000000E+00  0.00000000000E+00  0.12115937468E+04  0.12115937468E+04  0.00000000000E+00 0.  1.
          2   -1    0    0  502    0 -0.00000000000E+00 -0.00000000000E+00 -0.60061242627E+03  0.60061242627E+03  0.00000000000E+00 0.  1.
         25    1    1    2    0    0  0.42679169368E+03 -0.22773115113E+03  0.98908027991E+03  0.11081143565E+04  0.12500000000E+03 0.  0.
         21    1    1    2  503  501 -0.20392150330E+03 -0.30754794545E+02 -0.16541845431E+02  0.20688999382E+03  0.00000000000E+00 0.  1.
          2    1    1    2  501    0 -0.22287019038E+03  0.25848594568E+03 -0.36155711396E+03  0.49720182273E+03  0.00000000000E+00 0.  1.
<mgrwt>
<rscale>  4 0.48039885E+03</rscale>
<asrwt>0</asrwt>
<pdfrwt beam="1">  1       21 0.18639904E+00 0.48039885E+03</pdfrwt>
<pdfrwt beam="2">  1        2 0.92401912E-01 0.48039885E+03</pdfrwt>
<totfact> 0.88308962E+01</totfact>
</mgrwt>
</event>
<event>
 5    0  0.2947253E-001  0.3498681E+03  0.7546771E-02  0.1063980E+00
          4   -1    0    0  502    0 -0.00000000000E+00  0.00000000000E+00  0.27760884475E+04  0.27760884475E+04  0.00000000000E+00 0.  1.
         21   -1    0    0  503  502  0.00000000000E+00 -0.00000000000E+00 -0.13444347012E+03  0.13444347012E+03  0.00000000000E+00 0.  1.
         25    1    1    2    0    0 -0.30551964392E+03  0.69539833367E+02  0.11000357530E+03  0.35482929392E+03  0.12500000000E+03 0.  0.
         21    1    1    2  503  501  0.13837079872E+03 -0.22225765742E+02  0.59482981022E+03  0.61111616385E+03  0.00000000000E+00 0.  1.
          4    1    1    2  501    0  0.16714884519E+03 -0.47314067625E+02  0.19368115919E+04  0.19445864599E+04  0.00000000000E+00 0.  1.
<mgrwt>
<rscale>  4 0.34669496E+03</rscale>
<asrwt>0</asrwt>
<pdfrwt beam="1">  1       21 0.20683613E-01 0.34986814E+03</pdfrwt>
<pdfrwt beam="2">  1        4 0.42709049E+00 0.34986814E+03</pdfrwt>
<totfact> 0.48247283E+00</totfact>
</mgrwt>
</event>
<event>
 5    0  0.2947253E-001  0.2377141E+03  0.7546771E-02  0.1121325E+00
          1   -1    0    0  502    0 -0.00000000000E+00  0.00000000000E+00  0.21375380274E+04  0.21375380274E+04  0.00000000000E+00 0.  1.
         21   -1    0    0  503  502  0.00000000000E+00 -0.00000000000E+00 -0.57897167250E+02  0.57897167250E+02  0.00000000000E+00 0. -1.
         25    1    1    2    0    0  0.31966002207E+02 -0.19965258984E+03  0.21867585545E+03  0.32299707689E+03  0.12500000000E+03 0.  0.
         21    1    1    2  503  501  0.96246115453E+01  0.32220547964E+02  0.24694073025E+03  0.24921982488E+03  0.00000000000E+00 0.  1.
          1    1    1    2  501    0 -0.41590613753E+02  0.16743204187E+03  0.16140242744E+04  0.16232182929E+04  0.00000000000E+00 0.  1.
<mgrwt>
<rscale>  4 0.23771408E+03</rscale>
<asrwt>0</asrwt>
<pdfrwt beam="1">  1       21 0.89072581E-02 0.23771408E+03</pdfrwt>
<pdfrwt beam="2">  1        1 0.32885194E+00 0.23771408E+03</pdfrwt>
<totfact> 0.30645339E+03</totfact>
</mgrwt>
</event>
<event>
 5    0  0.2947253E-001  0.2385543E+03  0.7546771E-02  0.1120760E+00
         21   -1    0    0  503  502  0.00000000000E+00  0.00000000000E+00  0.21704843650E+03  0.21704843650E+03  0.00000000000E+00 0. -1.
          2   -1    0    0  502    0 -0.00000000000E+00 -0.00000000000E+00 -0.44495570227E+03  0.44495570227E+03  0.00000000000E+00 0. -1.
         25    1    1    2    0    0  0.13053268810E+03  0.15570603212E+03  0.11205955449E+03  0.26356307566E+03  0.12500000000E+03 0.  0.
         21    1    1    2  503  501 -0.25774132663E+01 -0.24081776706E+02 -0.38772148155E+02  0.45714926458E+02  0.00000000000E+00 0.  1.
          2    1    1    2  501    0 -0.12795527483E+03 -0.13162425541E+03 -0.30119467210E+03  0.35272613664E+03  0.00000000000E+00 0. -1.
<mgrwt>
<rscale>  4 0.23855429E+03</rscale>
<asrwt>0</asrwt>
<pdfrwt beam="1">  1       21 0.33392067E-01 0.23855429E+03</pdfrwt>
<pdfrwt beam="2">  1        2 0.68454724E-01 0.23855429E+03</pdfrwt>
<totfact> 0.75667749E+03</totfact>
</mgrwt>
</event>
<event>
 5    0  0.2947253E-001  0.3137469E+03  0.7546771E-02  0.1078564E+00
          2   -1    0    0  502    0 -0.00000000000E+00  0.00000000000E+00  0.29265033542E+04  0.29265033542E+04  0.00000000000E+00 0. -1.
         21   -1    0    0  503  502  0.00000000000E+00 -0.00000000000E+00 -0.41917621951E+02  0.41917621951E+02  0.00000000000E+00 0.  1.
         25    1    1    2    0    0 -0.27015385631E+03 -0.99141393141E+02  0.73225989887E+03  0.79664401172E+03  0.12500000000E+03 0.  0.
         21    1    1    2  503  501  0.20233748544E+02  0.10199381800E+02  0.25348847272E+03  0.25449919012E+03  0.00000000000E+00 0. -1.
          2    1    1    2  501    0  0.24992010777E+03  0.88942011341E+02  0.18988373607E+04  0.19172777744E+04  0.00000000000E+00 0. -1.
<mgrwt>
<rscale>  4 0.31374691E+03</rscale>
<asrwt>0</asrwt>
<pdfrwt beam="1">  1       21 0.64488672E-02 0.31374691E+03</pdfrwt>
<pdfrwt beam="2">  1        2 0.45023112E+00 0.31374691E+03</pdfrwt>
<totfact> 0.49872699E+03</totfact>
</mgrwt>
</event>
<event>
 5    0  0.2947253E-001  0.2180705E+03  0.7546771E-02  0.1135330E+00
          2   -1    0    0  502    0 -0.00000000000E+00  0.00000000000E+00  0.20107647452E+04  0.20107647452E+04  0.00000000000E+00 0. -1.
         21   -1    0    0  503  502  0.00000000000E+00 -0.00000000000E+00 -0.41829059718E+02  0.41829059718E+02  0.00000000000E+00 0.  1.
         25    1    1    2    0    0  0.36626343498E+02 -0.20193926365E+03  0.44838497696E+03  0.50871902147E+03  0.12500000000E+03 0.  0.
         21    1    1    2  503  501  0.66114240643E+02  0.88931059038E+02  0.77091431864E+03  0.77883805297E+03  0.00000000000E+00 0. -1.
          2    1    1    2  501    0 -0.10274058414E+03  0.11300820461E+03  0.74963638984E+03  0.76503673043E+03  0.00000000000E+00 0. -1.
<mgrwt>
<rscale>  4 0.21807051E+03</rscale>
<asrwt>0</asrwt>
<pdfrwt beam="1">  1       21 0.64352415E-02 0.21807051E+03</pdfrwt>
<pdfrwt beam="2">  1        2 0.30934835E+00 0.21807051E+03</pdfrwt>
<totfact> 0.16481736E+04</totfact>
</mgrwt>
</event>
<event>
 5    0  0.2947253E-001  0.5932225E+03  0.7546771E-02  0.9919568E-01
         21   -1    0    0  503  502  0.00000000000E+00  0.00000000000E+00  0.12013435472E+04  0.12013435472E+04  0.00000000000E+00 0.  1.
          1   -1    0    0  502    0 -0.00000000000E+00 -0.00000000000E+00 -0.28995978779E+03  0.28995978779E+03  0.00000000000E+00 0.  1.
         25    1    1    2    0    0  0.57514616640E+03  0.74126978806E+02  0.40104563440E+03  0.71606600435E+03  0.12500000000E+03 0.  0.
         21    1    1    2  503  501 -0.28573361536E+02 -0.18787649214E+02  0.30243779181E+02  0.45651932397E+02  0.00000000000E+00 0. -1.
          1    1    1    2  501    0 -0.54657280487E+03 -0.55339329592E+02  0.48009434580E+03  0.72958539821E+03  0.00000000000E+00 0.  1.
<mgrwt>
<rscale>  4 0.59322249E+03</rscale>
<asrwt>0</asrwt>
<pdfrwt beam="1">  1       21 0.18482208E+00 0.59322249E+03</pdfrwt>
<pdfrwt beam="2">  1        1 0.44609199E-01 0.59322249E+03</pdfrwt>
<totfact> 0.14076828E+02</totfact>
</mgrwt>
</event>
<event>
 5    0  0.3752151E-001  0.3427695E+03  0.7546771E-02  0.1065622E+00
         -1   -1    0    0    0  501 -0.00000000000E+00  0.00000000000E+00  0.24486312715E+03  0.24486312715E+03  0.00000000000E+00 0.  1.
         21   -1    0    0  501  502  0.00000000000E+00 -0.00000000000E+00 -0.16248935938E+04  0.16248935938E+04  0.00000000000E+00 0.  1.
         25    1    1    2    0    0  0.31803138130E+03 -0.55028310962E+01 -0.14533776929E+04  0.14930190752E+04  0.12500000000E+03 0.  0.
         21    1    1    2  501  501  0.12579263161E+02 -0.22981635743E+02 -0.18916397445E+02  0.32314447782E+02  0.00000000000E+00 0. -1.
         -1    1    1    2    0  502 -0.33061064446E+03  0.28484466840E+02  0.92263623659E+02  0.34442319802E+03  0.00000000000E+00 0.  1.
<mgrwt>
<rscale>  4 0.34276949E+03</rscale>
<asrwt>0</asrwt>
<pdfrwt beam="1">  1       21 0.24998363E+00 0.34276949E+03</pdfrwt>
<pdfrwt beam="2">  1       -1 0.37671250E-01 0.34276949E+03</pdfrwt>
<totfact> 0.37271658E+01</totfact>
</mgrwt>
</event>
<event>
 5    0  0.2947253E-001  0.2619191E+03  0.7546771E-02  0.1105996E+00
         21   -1    0    0  503  502  0.00000000000E+00  0.00000000000E+00  0.21433066131E+03  0.21433066131E+03  0.00000000000E+00 0.  1.
          1   -1    0    0  502    0 -0.00000000000E+00 -0.00000000000E+00 -0.35400590473E+03  0.35400590473E+03  0.00000000000E+00 0. -1.
         25    1    1    2    0    0  0.22156156739E+03 -0.62346715118E+02  0.44886948136E+02  0.26573761334E+03  0.12500000000E+03 0.  0.
         21    1    1    2  503  501 -0.44707280051E+02 -0.69726861437E+01 -0.14154518861E+02  0.47410016303E+02  0.00000000000E+00 0. -1.
          1    1    1    2  501    0 -0.17685428734E+03  0.69319401261E+02 -0.17040767270E+03  0.25518893639E+03  0.00000000000E+00 0. -1.
<mgrwt>
<rscale>  4 0.26191915E+03</rscale>
<asrwt>0</asrwt>
<pdfrwt beam="1">  1       21 0.32973948E-01 0.26191915E+03</pdfrwt>
<pdfrwt beam="2">  1        1 0.54462446E-01 0.26191915E+03</pdfrwt>
<totfact> 0.67760805E+03</totfact>
</mgrwt>
</event>
<event>
 5    0  0.2947253E-001  0.3477180E+03  0.7546771E-02  0.1063556E+00
          2   -1    0    0  502    0 -0.00000000000E+00  0.00000000000E+00  0.13825598599E+04  0.13825598599E+04  0.00000000000E+00 0.  1.
         21   -1    0    0  503  502  0.00000000000E+00 -0.00000000000E+00 -0.95936417547E+02  0.95936417547E+02  0.00000000000E+00 0.  1.
         25    1    1    2    0    0  0.35865640088E+02  0.33917118323E+03  0.67049684125E+03  0.76257094739E+03  0.12500000000E+03 0.  0.
         21    1    1    2  503  501 -0.43417811317E+02 -0.28228192784E+02  0.65226806354E+02  0.83285493782E+02  0.00000000000E+00 0. -1.
          2    1    1    2  501    0  0.75521712291E+01 -0.31094299044E+03  0.55089979475E+03  0.63263983628E+03  0.00000000000E+00 0.  1.
<mgrwt>
<rscale>  4 0.34771800E+03</rscale>
<asrwt>0</asrwt>
<pdfrwt beam="1">  1       21 0.14759450E-01 0.34771800E+03</pdfrwt>
<pdfrwt beam="2">  1        2 0.21270150E+00 0.34771800E+03</pdfrwt>
<totfact> 0.78248631E+03</totfact>
</mgrwt>
</event>
<event>
 5    0  0.2947253E-001  0.2535676E+03  0.7546771E-02  0.1111071E+00
          2   -1    0    0  502    0 -0.00000000000E+00  0.00000000000E+00  0.18808518830E+04  0.18808518830E+04  0.00000000000E+00 0.  1.
         21   -1    0    0  503  502  0.00000000000E+00 -0.00000000000E+00 -0.99283690499E+02  0.99283690499E+02  0.00000000000E+00 0.  1.
         25    1    1    2    0    0  0.14378309876E+03 -0.17542528743E+03  0.98723451582E+02  0.27716228252E+03  0.12500000000E+03 0.  0.
         21    1    1    2  503  501 -0.48109155992E+02  0.33943440553E+02  0.15836482159E+03  0.16895580713E+03  0.00000000000E+00 0.  1.
          2    1    1    2  501    0 -0.95673942765E+02  0.14148184687E+03  0.15244799193E+04  0.15340174838E+04  0.00000000000E+00 0.  1.
<mgrwt>
<rscale>  4 0.25356765E+03</rscale>
<asrwt>0</asrwt>
<pdfrwt beam="1">  1       21 0.15274415E-01 0.25356765E+03</pdfrwt>
<pdfrwt beam="2">  1        2 0.28936180E+00 0.25356765E+03</pdfrwt>
<totfact> 0.40987595E+03</totfact>
</mgrwt>
</event>
<event>
 5    0  0.2947253E-001  0.2521496E+03  0.7546771E-02  0.1111954E+00
         -1   -1    0    0    0  501 -0.00000000000E+00  0.00000000000E+00  0.16549384683E+04  0.16549384683E+04  0.00000000000E+00 0. -1.
         21   -1    0    0  501  502  0.00000000000E+00 -0.00000000000E+00 -0.95049155911E+02  0.95049155911E+02  0.00000000000E+00 0. -1.
         25    1    1    2    0    0 -0.20138561885E+03  0.11240324897E+03  0.12947215767E+03  0.29253836923E+03  0.12500000000E+03 0.  0.
         21    1    1    2  501  501  0.76056499927E+02 -0.30279402607E+02  0.17590754120E+03  0.19402292765E+03  0.00000000000E+00 0. -1.
         -1    1    1    2    0  502  0.12532911892E+03 -0.82123846360E+02  0.12545096135E+04  0.12634263274E+04  0.00000000000E+00 0. -1.
<mgrwt>
<rscale>  4 0.25214958E+03</rscale>
<asrwt>0</asrwt>
<pdfrwt beam="1">  1       21 0.14622948E-01 0.25214958E+03</pdfrwt>
<pdfrwt beam="2">  1       -1 0.25460590E+00 0.25214958E+03</pdfrwt>
<totfact> 0.28411396E+02</totfact>
</mgrwt>
</event>
<event>
 5    0  0.2947253E-001  0.3249378E+03  0.7546771E-02  0.1073399E+00
         -2   -1    0    0    0  501 -0.00000000000E+00  0.00000000000E+00  0.32454807458E+03  0.32454807458E+03  0.00000000000E+00 0. -1.
         21   -1    0    0  501  502  0.00000000000E+00 -0.00000000000E+00 -0.90116334547E+03  0.90116334547E+03  0.00000000000E+00 0.  1.
         25    1    1    2    0    0  0.30351697030E+03 -0.10810805135E+02 -0.72196010954E+03  0.79315245983E+03  0.12500000000E+03 0.  0.
         21    1    1    2  501  501 -0.19656967541E+02 -0.17165713623E+02  0.14499356419E+03  0.14732342568E+03  0.00000000000E+00 0.  1.
         -2    1    1    2    0  502 -0.28386000276E+03  0.27976518758E+02  0.35127445360E+00  0.28523553454E+03  0.00000000000E+00 0. -1.
<mgrwt>
<rscale>  4 0.32493781E+03</rscale>
<asrwt>0</asrwt>
<pdfrwt beam="1">  1       21 0.13864051E+00 0.32493781E+03</pdfrwt>
<pdfrwt beam="2">  1       -2 0.49930474E-01 0.32493781E+03</pdfrwt>
<totfact> 0.10678826E+02</totfact>
</mgrwt>
</event>
<event>
 5    0  0.2947253E-001  0.5149811E+03  0.7546771E-02  0.1009941E+00
          2   -1    0    0  502    0 -0.00000000000E+00  0.00000000000E+00  0.14104052700E+04  0.14104052700E+04  0.00000000000E+00 0.  1.
         21   -1    0    0  503  502  0.00000000000E+00 -0.00000000000E+00 -0.18472172451E+03  0.18472172451E+03  0.00000000000E+00 0. -1.
         25    1    1    2    0    0 -0.63803249925E+02 -0.49548936762E+03  0.64070603873E+03  0.82201569097E+03  0.12500000000E+03 0.  0.
         21    1    1    2  503  501  0.18429786069E+02  0.22518548517E+02  0.47702920225E+02  0.55877639892E+02  0.00000000000E+00 0. -1.
          2    1    1    2  501    0  0.45373463856E+02  0.47297081911E+03  0.53727458652E+03  0.71723366365E+03  0.00000000000E+00 0.  1.
<mgrwt>
<rscale>  4 0.51498113E+03</rscale>
<asrwt>0</asrwt>
<pdfrwt beam="1">  1       21 0.28418728E-01 0.51498113E+03</pdfrwt>
<pdfrwt beam="2">  1        2 0.21698542E+00 0.51498113E+03</pdfrwt>
<totfact> 0.20886461E+03</totfact>
</mgrwt>
</event>
<event>
 5    0  0.2947253E-001  0.2723799E+03  0.7546771E-02  0.1099925E+00
          2   -1    0    0  502    0 -0.00000000000E+00  0.00000000000E+00  0.18831403201E+04  0.18831403201E+04  0.00000000000E+00 0.  1.
         21   -1    0    0  503  502  0.00000000000E+00 -0.00000000000E+00 -0.28789990329E+03  0.28789990329E+03  0.00000000000E+00 0.  1.
         25    1    1    2    0    0  0.10613468969E+03 -0.21748843428E+03 -0.21302059815E+03  0.34578688037E+03  0.12500000000E+03 0.  0.
         21    1    1    2  503  501 -0.92788323452E+01  0.38560264880E+02  0.17923446756E+03  0.18357010955E+03  0.00000000000E+00 0.  1.
          2    1    1    2  501    0 -0.96855857347E+02  0.17892816939E+03  0.16290265474E+04  0.16416832334E+04  0.00000000000E+00 0.  1.
<mgrwt>
<rscale>  4 0.27237987E+03</rscale>
<asrwt>0</asrwt>
<pdfrwt beam="1">  1       21 0.44292294E-01 0.27237987E+03</pdfrwt>
<pdfrwt beam="2">  1        2 0.28971389E+00 0.27237987E+03</pdfrwt>
<totfact> 0.51457576E+02</totfact>
</mgrwt>
</event>
<event>
 5    0  0.2947253E-001  0.2446371E+03  0.7546771E-02  0.1116742E+00
         21   -1    0    0  501  502  0.00000000000E+00  0.00000000000E+00  0.90238436406E+03  0.90238436406E+03  0.00000000000E+00 0. -1.
         -1   -1    0    0    0  501 -0.00000000000E+00 -0.00000000000E+00 -0.13859295602E+03  0.13859295602E+03  0.00000000000E+00 0.  1.
         25    1    1    2    0    0  0.84173918894E+01  0.21012244831E+03  0.78492368995E+03  0.82216330180E+03  0.12500000000E+03 0.  0.
         21    1    1    2  501  501  0.11720424602E+02 -0.17661813867E+02  0.88937097832E+01  0.22987085410E+02  0.00000000000E+00 0.  1.
         -1    1    1    2    0  502 -0.20137816491E+02 -0.19246063444E+03 -0.30025991698E+02  0.19582693288E+03  0.00000000000E+00 0.  1.
<mgrwt>
<rscale>  4 0.24463707E+03</rscale>
<asrwt>0</asrwt>
<pdfrwt beam="1">  1       21 0.13882836E+00 0.24463707E+03</pdfrwt>
<pdfrwt beam="2">  1       -1 0.21321994E-01 0.24463707E+03</pdfrwt>
<totfact> 0.58694313E+02</totfact>
</mgrwt>
</event>
<event>
 5    0  0.2947253E-001  0.4944979E+03  0.7546771E-02  0.1015225E+00
         21   -1    0    0  503  502  0.00000000000E+00  0.00000000000E+00  0.17303140910E+03  0.17303140910E+03  0.00000000000E+00 0. -1.
          2   -1    0    0  502    0 -0.00000000000E+00 -0.00000000000E+00 -0.14383060191E+04  0.14383060191E+04  0.00000000000E+00 0.  1.
         25    1    1    2    0    0  0.44705488254E+03 -0.17042610775E+03 -0.49930678023E+03  0.70273422216E+03  0.12500000000E+03 0.  0.
         21    1    1    2  503  501 -0.37044590518E+02  0.34510617694E+02 -0.42999607043E+02  0.66424774189E+02  0.00000000000E+00 0.  1.
          2    1    1    2  501    0 -0.41001029203E+03  0.13591549005E+03 -0.72296822272E+03  0.84217843184E+03  0.00000000000E+00 0.  1.
<mgrwt>
<rscale>  4 0.49449785E+03</rscale>
<asrwt>0</asrwt>
<pdfrwt beam="1">  1       21 0.26620217E-01 0.49449785E+03</pdfrwt>
<pdfrwt beam="2">  1        2 0.22127784E+00 0.49449785E+03</pdfrwt>
<totfact> 0.23023997E+03</totfact>
</mgrwt>
</event>
<event>
 5    0  0.2947253E-001  0.2524711E+03  0.7546771E-02  0.1111753E+00
         21   -1    0    0  503  502  0.00000000000E+00  0.00000000000E+00  0.19787541871E+03  0.19787541871E+03  0.00000000000E+00 0. -1.
          1   -1    0    0  502    0 -0.00000000000E+00 -0.00000000000E+00 -0.54944981590E+03  0.54944981590E+03  0.00000000000E+00 0. -1.
         25    1    1    2    0    0  0.71853437972E+02  0.20725282643E+03  0.70963329736E+02  0.26225454196E+03  0.12500000000E+03 0.  0.
         21    1    1    2  503  501 -0.59566051444E+02 -0.15294814751E+03 -0.21675989327E+03  0.27189354836E+03  0.00000000000E+00 0. -1.
          1    1    1    2  501    0 -0.12287386528E+02 -0.54304678921E+02 -0.20577783367E+03  0.21317714429E+03  0.00000000000E+00 0. -1.
<mgrwt>
<rscale>  4 0.25247109E+03</rscale>
<asrwt>0</asrwt>
<pdfrwt beam="1">  1       21 0.30442372E-01 0.25247109E+03</pdfrwt>
<pdfrwt beam="2">  1        1 0.84530741E-01 0.25247109E+03</pdfrwt>
<totfact> 0.44744371E+03</totfact>
</mgrwt>
</event>
<event>
 5    0  0.2947253E-001  0.4708482E+03  0.7546771E-02  0.1021681E+00
         21   -1    0    0  503  502  0.00000000000E+00  0.00000000000E+00  0.98729733930E+03  0.98729733930E+03  0.00000000000E+00 0.  1.
          2   -1    0    0  502    0 -0.00000000000E+00 -0.00000000000E+00 -0.36290396822E+04  0.36290396822E+04  0.00000000000E+00 0.  1.
         25    1    1    2    0    0  0.45315412165E+03  0.26913322985E+02  0.91538350150E+03  0.10293808526E+04  0.12500000000E+03 0.  0.
         21    1    1    2  503  501 -0.75830476092E+02 -0.10367742437E+02 -0.39427839200E+03  0.40163814757E+03  0.00000000000E+00 0.  1.
          2    1    1    2  501    0 -0.37732364556E+03 -0.16545580548E+02 -0.31628474523E+04  0.31853180213E+04  0.00000000000E+00 0.  1.
<mgrwt>
<rscale>  4 0.47084815E+03</rscale>
<asrwt>0</asrwt>
<pdfrwt beam="1">  1       21 0.15189190E+00 0.47084815E+03</pdfrwt>
<pdfrwt beam="2">  1        2 0.55831379E+00 0.47084815E+03</pdfrwt>
<totfact> 0.24288711E+00</totfact>
</mgrwt>
</event>
<event>
 5    0  0.2947253E-001  0.2959796E+03  0.7546771E-02  0.1087268E+00
         21   -1    0    0  503  502  0.00000000000E+00  0.00000000000E+00  0.88671844797E+02  0.88671844797E+02  0.00000000000E+00 0.  1.
          2   -1    0    0  502    0 -0.00000000000E+00 -0.00000000000E+00 -0.93517311431E+03  0.93517311431E+03  0.00000000000E+00 0.  1.
         25    1    1    2    0    0 -0.67620450786E+02 -0.25962738756E+03 -0.51162092597E+03  0.59106672858E+03  0.12500000000E+03 0.  0.
         21    1    1    2  503  501  0.97333567323E+01  0.77065522556E+02 -0.61953140788E+02  0.99358062851E+02  0.00000000000E+00 0.  1.
          2    1    1    2  501    0  0.57887094054E+02  0.18256186501E+03 -0.27292720275E+03  0.33342016768E+03  0.00000000000E+00 0.  1.
<mgrwt>
<rscale>  4 0.29597957E+03</rscale>
<asrwt>0</asrwt>
<pdfrwt beam="1">  1       21 0.13641822E-01 0.29597957E+03</pdfrwt>
<pdfrwt beam="2">  1        2 0.14387279E+00 0.29597957E+03</pdfrwt>
<totfact> 0.16699958E+04</totfact>
</mgrwt>
</event>
<event>
 5    0  0.2947253E-001  0.2601717E+03  0.7546771E-02  0.1107040E+00
          2   -1    0    0  502    0 -0.00000000000E+00  0.00000000000E+00  0.39154251034E+04  0.39154251034E+04  0.00000000000E+00 0. -1.
         21   -1    0    0  503  502  0.00000000000E+00 -0.00000000000E+00 -0.66866112698E+02  0.66866112698E+02  0.00000000000E+00 0.  1.
         25    1    1    2    0    0 -0.22410537321E+03 -0.46359022420E+02  0.20764883137E+03  0.33333978825E+03  0.12500000000E+03 0.  0.
         21    1    1    2  503  501  0.12359990875E+02 -0.16287207164E+02  0.40494530254E+03  0.40546114554E+03  0.00000000000E+00 0.  1.
          2    1    1    2  501    0  0.21174538234E+03  0.62646229584E+02  0.32359648568E+04  0.32434902823E+04  0.00000000000E+00 0. -1.
<mgrwt>
<rscale>  4 0.26017173E+03</rscale>
<asrwt>0</asrwt>
<pdfrwt beam="1">  1       21 0.10287097E-01 0.26017173E+03</pdfrwt>
<pdfrwt beam="2">  1        2 0.60237291E+00 0.26017173E+03</pdfrwt>
<totfact> 0.50691875E+02</totfact>
</mgrwt>
</event>
<event>
 5    0  0.2947253E-001  0.2548312E+03  0.7546771E-02  0.1110289E+00
         21   -1    0    0  503  502  0.00000000000E+00  0.00000000000E+00  0.14892198469E+03  0.14892198469E+03  0.00000000000E+00 0. -1.
          1   -1    0    0  502    0 -0.00000000000E+00 -0.00000000000E+00 -0.13622376655E+04  0.13622376655E+04  0.00000000000E+00 0.  1.
         25    1    1    2    0    0 -0.19049073513E+03  0.11816579537E+03  0.16520739973E+02  0.25719216593E+03  0.12500000000E+03 0.  0.
         21    1    1    2  503  501  0.21856571323E+02 -0.85738642489E+01 -0.33886995067E+02  0.41225590267E+02  0.00000000000E+00 0. -1.
          1    1    1    2  501    0  0.16863416381E+03 -0.10959193112E+03 -0.11959494257E+04  0.12127418940E+04  0.00000000000E+00 0.  1.
<mgrwt>
<rscale>  4 0.25483117E+03</rscale>
<asrwt>0</asrwt>
<pdfrwt beam="1">  1       21 0.22911075E-01 0.25483117E+03</pdfrwt>
<pdfrwt beam="2">  1        1 0.20957502E+00 0.25483117E+03</pdfrwt>
<totfact> 0.17401574E+03</totfact>
</mgrwt>
</event>
<event>
 5    0  0.2947253E-001  0.3448952E+03  0.7546771E-02  0.1064730E+00
         21   -1    0    0  503  502  0.00000000000E+00  0.00000000000E+00  0.34160910873E+03  0.34160910873E+03  0.00000000000E+00 0. -1.
          2   -1    0    0  502    0 -0.00000000000E+00 -0.00000000000E+00 -0.10571316566E+04  0.10571316566E+04  0.00000000000E+00 0.  1.
         25    1    1    2    0    0 -0.12357745432E+03 -0.29609795050E+03  0.21059344735E+03  0.40363347678E+03  0.12500000000E+03 0.  0.
         21    1    1    2  503  501  0.28804082632E+02 -0.18437604291E+02 -0.64777998918E+02  0.73251686480E+02  0.00000000000E+00 0.  1.
          2    1    1    2  501    0  0.94773371690E+02  0.31453555480E+03 -0.86133799634E+03  0.92185560211E+03  0.00000000000E+00 0.  1.
<mgrwt>
<rscale>  4 0.34489519E+03</rscale>
<asrwt>0</asrwt>
<pdfrwt beam="1">  1       21 0.52555248E-01 0.34489519E+03</pdfrwt>
<pdfrwt beam="2">  1        2 0.16263564E+00 0.34489519E+03</pdfrwt>
<totfact> 0.98921462E+02</totfact>
</mgrwt>
</event>
<event>
 5    0  0.2947253E-001  0.2381947E+03  0.7546771E-02  0.1121001E+00
         21   -1    0    0  503  502  0.00000000000E+00  0.00000000000E+00  0.90745423548E+02  0.90745423548E+02  0.00000000000E+00 0.  1.
          2   -1    0    0  502    0 -0.00000000000E+00 -0.00000000000E+00 -0.10968764128E+04  0.10968764128E+04  0.00000000000E+00 0.  1.
         25    1    1    2    0    0  0.20160579768E+03  0.21605738915E+02 -0.99465442846E+02  0.25812803012E+03  0.12500000000E+03 0.  0.
         21    1    1    2  503  501 -0.27683002867E+02 -0.44443994130E+01 -0.87102492766E+02  0.91503800904E+02  0.00000000000E+00 0.  1.
          2    1    1    2  501    0 -0.17392279481E+03 -0.17161339502E+02 -0.81956305360E+03  0.83799000529E+03  0.00000000000E+00 0.  1.
<mgrwt>
<rscale>  4 0.23819468E+03</rscale>
<asrwt>0</asrwt>
<pdfrwt beam="1">  1       21 0.13960833E-01 0.23819468E+03</pdfrwt>
<pdfrwt beam="2">  1        2 0.16875023E+00 0.23819468E+03</pdfrwt>
<totfact> 0.12908757E+04</totfact>
</mgrwt>
</event>
<event>
 5    0  0.2947253E-001  0.2336517E+03  0.7546771E-02  0.1124096E+00
          2   -1    0    0  502    0 -0.00000000000E+00  0.00000000000E+00  0.52708904457E+04  0.52708904457E+04  0.00000000000E+00 0. -1.
         21   -1    0    0  503  502  0.00000000000E+00 -0.00000000000E+00 -0.50636124937E+02  0.50636124937E+02  0.00000000000E+00 0.  1.
         25    1    1    2    0    0  0.22491631655E+01  0.20826342344E+03  0.26475139186E+03  0.35930072609E+03  0.12500000000E+03 0.  0.
         21    1    1    2  503  501 -0.24172038556E+02 -0.12482939799E+02  0.13579187634E+03  0.13849023400E+03  0.00000000000E+00 0.  1.
          2    1    1    2  501    0  0.21922875390E+02 -0.19578048364E+03  0.48197110526E+04  0.48237356106E+04  0.00000000000E+00 0. -1.
<mgrwt>
<rscale>  4 0.23365173E+03</rscale>
<asrwt>0</asrwt>
<pdfrwt beam="1">  1       21 0.77901772E-02 0.23365173E+03</pdfrwt>
<pdfrwt beam="2">  1        2 0.81090579E+00 0.23365173E+03</pdfrwt>
<totfact> 0.36834627E+01</totfact>
</mgrwt>
</event>
<event>
 5    0  0.2947253E-001  0.2397873E+03  0.7546771E-02  0.1119935E+00
          2   -1    0    0  502    0 -0.00000000000E+00  0.00000000000E+00  0.24116439626E+04  0.24116439626E+04  0.00000000000E+00 0.  1.
         21   -1    0    0  503  502  0.00000000000E+00 -0.00000000000E+00 -0.12683335633E+03  0.12683335633E+03  0.00000000000E+00 0. -1.
         25    1    1    2    0    0  0.14042586860E+02 -0.21047823118E+03  0.20206032942E+02  0.24603163174E+03  0.12500000000E+03 0.  0.
         21    1    1    2  503  501  0.76261170219E+02  0.46741555265E+02  0.15868759537E+04  0.15893948004E+04  0.00000000000E+00 0.  1.
          2    1    1    2  501    0 -0.90303757079E+02  0.16373667592E+03  0.67772861960E+03  0.70305088678E+03  0.00000000000E+00 0.  1.
<mgrwt>
<rscale>  4 0.23978727E+03</rscale>
<asrwt>0</asrwt>
<pdfrwt beam="1">  1       21 0.19512826E-01 0.23978727E+03</pdfrwt>
<pdfrwt beam="2">  1        2 0.37102211E+00 0.23978727E+03</pdfrwt>
<totfact> 0.13720310E+03</totfact>
</mgrwt>
</event>
<event>
 5    0  0.2947253E-001  0.3553393E+03  0.7546771E-02  0.1060445E+00
          2   -1    0    0  502    0 -0.00000000000E+00  0.00000000000E+00  0.23030307170E+04  0.23030307170E+04  0.00000000000E+00 0. -1.
         21   -1    0    0  503  502  0.00000000000E+00 -0.00000000000E+00 -0.38409351325E+03  0.38409351325E+03  0.00000000000E+00 0.  1.
         25    1    1    2    0    0 -0.18335013979E+03 -0.27753158107E+03 -0.28461377590E+03  0.45527030837E+03  0.12500000000E+03 0.  0.
         21    1    1    2  503  501  0.71076591636E+02  0.25145752762E+02  0.36902933736E+03  0.37665215066E+03  0.00000000000E+00 0. -1.
          2    1    1    2  501    0  0.11227354816E+03  0.25238582831E+03  0.18345216423E+04  0.18552017713E+04  0.00000000000E+00 0. -1.
<mgrwt>
<rscale>  4 0.35533935E+03</rscale>
<asrwt>0</asrwt>
<pdfrwt beam="1">  1       21 0.59091311E-01 0.35533935E+03</pdfrwt>
<pdfrwt beam="2">  1        2 0.35431241E+00 0.35533935E+03</pdfrwt>
<totfact> 0.15984890E+02</totfact>
</mgrwt>
</event>
<event>
 5    0  0.2947253E-001  0.2326850E+03  0.7546771E-02  0.1124764E+00
          1   -1    0    0  502    0 -0.00000000000E+00  0.00000000000E+00  0.16611454163E+04  0.16611454163E+04  0.00000000000E+00 0. -1.
         21   -1    0    0  503  502  0.00000000000E+00 -0.00000000000E+00 -0.48165902658E+02  0.48165902658E+02  0.00000000000E+00 0. -1.
         25    1    1    2    0    0 -0.14489396916E+03 -0.15706465326E+03  0.38609807894E+03  0.45865051419E+03  0.12500000000E+03 0.  0.
         21    1    1    2  503  501  0.76686322679E+02  0.15100880270E+03  0.74979313102E+03  0.76868341331E+03  0.00000000000E+00 0. -1.
          1    1    1    2  501    0  0.68207646482E+02  0.60558505598E+01  0.47708830368E+03  0.48197739145E+03  0.00000000000E+00 0. -1.
<mgrwt>
<rscale>  4 0.23268502E+03</rscale>
<asrwt>0</asrwt>
<pdfrwt beam="1">  1       21 0.74101401E-02 0.23268502E+03</pdfrwt>
<pdfrwt beam="2">  1        1 0.25556079E+00 0.23268502E+03</pdfrwt>
<totfact> 0.86258952E+03</totfact>
</mgrwt>
</event>
<event>
 5    0  0.2947253E-001  0.3619239E+03  0.7546771E-02  0.1057825E+00
          2   -1    0    0  502    0 -0.00000000000E+00  0.00000000000E+00  0.98294589004E+03  0.98294589004E+03  0.00000000000E+00 0. -1.
         21   -1    0    0  503  502  0.00000000000E+00 -0.00000000000E+00 -0.18279151707E+03  0.18279151707E+03  0.00000000000E+00 0. -1.
         25    1    1    2    0    0 -0.32816188045E+03  0.87599666231E+02  0.86250495530E+02  0.37205922819E+03  0.12500000000E+03 0.  0.
         21    1    1    2  503  501  0.40850802305E+02 -0.26140847248E+02  0.62755129025E+02  0.79311652124E+02  0.00000000000E+00 0.  1.
          2    1    1    2  501    0  0.28731107814E+03 -0.61458818982E+02  0.65114874841E+03  0.71436652680E+03  0.00000000000E+00 0. -1.
<mgrwt>
<rscale>  4 0.36192392E+03</rscale>
<asrwt>0</asrwt>
<pdfrwt beam="1">  1       21 0.28121772E-01 0.36192392E+03</pdfrwt>
<pdfrwt beam="2">  1        2 0.15122244E+00 0.36192392E+03</pdfrwt>
<totfact> 0.39193971E+03</totfact>
</mgrwt>
</event>
<event>
 5    0  0.2947253E-001  0.2711940E+03  0.7546771E-02  0.1100598E+00
         21   -1    0    0  503  502  0.00000000000E+00  0.00000000000E+00  0.10235916020E+03  0.10235916020E+03  0.00000000000E+00 0. -1.
          2   -1    0    0  502    0 -0.00000000000E+00 -0.00000000000E+00 -0.67628965402E+03  0.67628965402E+03  0.00000000000E+00 0. -1.
         25    1    1    2    0    0  0.23718303936E+03  0.40809092932E+02 -0.35745671819E+03  0.44868862433E+03  0.12500000000E+03 0.  0.
         21    1    1    2  503  501 -0.78143510236E+02 -0.28735046583E+02 -0.11094870526E+03  0.13871454968E+03  0.00000000000E+00 0. -1.
          2    1    1    2  501    0 -0.15903952913E+03 -0.12074046349E+02 -0.10552507038E+03  0.19124564021E+03  0.00000000000E+00 0. -1.
<mgrwt>
<rscale>  4 0.27119398E+03</rscale>
<asrwt>0</asrwt>
<pdfrwt beam="1">  1       21 0.15747563E-01 0.27119398E+03</pdfrwt>
<pdfrwt beam="2">  1        2 0.10404456E+00 0.27119398E+03</pdfrwt>
<totfact> 0.19525073E+04</totfact>
</mgrwt>
</event>
<event>
 5    0  0.3442246E-001  0.3871730E+03  0.7546771E-02  0.1048314E+00
          2   -1    0    0  502    0 -0.00000000000E+00  0.00000000000E+00  0.23804343180E+04  0.23804343180E+04  0.00000000000E+00 0.  1.
         21   -1    0    0  503  502  0.00000000000E+00 -0.00000000000E+00 -0.70842119101E+02  0.70842119101E+02  0.00000000000E+00 0.  1.
         25    1    1    2    0    0 -0.33906479272E+03  0.13897108696E+03  0.70391502767E+03  0.80336745195E+03  0.12500000000E+03 0.  0.
         21    1    1    2  503  501  0.23910100937E+02 -0.11193800532E+01  0.64188255984E+02  0.68506044586E+02  0.00000000000E+00 0.  1.
          2    1    1    2  501    0  0.31515469178E+03 -0.13785170690E+03  0.15414889153E+04  0.15794029406E+04  0.00000000000E+00 0.  1.
<mgrwt>
<rscale>  4 0.38717295E+03</rscale>
<asrwt>0</asrwt>
<pdfrwt beam="1">  1       21 0.10898789E-01 0.38717295E+03</pdfrwt>
<pdfrwt beam="2">  1        2 0.36622060E+00 0.38717295E+03</pdfrwt>
<totfact> 0.39167637E+03</totfact>
</mgrwt>
</event>
<event>
 5    0  0.2947253E-001  0.2448918E+03  0.7546771E-02  0.1116576E+00
          3   -1    0    0  502    0 -0.00000000000E+00  0.00000000000E+00  0.13190629841E+04  0.13190629841E+04  0.00000000000E+00 0. -1.
         21   -1    0    0  503  502  0.00000000000E+00 -0.00000000000E+00 -0.55706410857E+02  0.55706410857E+02  0.00000000000E+00 0.  1.
         25    1    1    2    0    0 -0.72633047984E+02  0.19766495866E+03  0.31140952077E+03  0.39616648668E+03  0.12500000000E+03 0.  0.
         21    1    1    2  503  501 -0.14009581030E+02 -0.72874079001E+02  0.35004428782E+03  0.35782384380E+03  0.00000000000E+00 0. -1.
          3    1    1    2  501    0  0.86642629014E+02 -0.12479087965E+03  0.60190276461E+03  0.62077906444E+03  0.00000000000E+00 0. -1.
<mgrwt>
<rscale>  4 0.24489180E+03</rscale>
<asrwt>0</asrwt>
<pdfrwt beam="1">  1       21 0.85702181E-02 0.24489180E+03</pdfrwt>
<pdfrwt beam="2">  1        3 0.20293274E+00 0.24489180E+03</pdfrwt>
<totfact> 0.80962395E+02</totfact>
</mgrwt>
</event>
<event>
 5    0  0.2947253E-001  0.2814532E+03  0.7546771E-02  0.1094898E+00
          2   -1    0    0  502    0 -0.00000000000E+00  0.00000000000E+00  0.41131098073E+04  0.41131098073E+04  0.00000000000E+00 0. -1.
         21   -1    0    0  503  502  0.00000000000E+00 -0.00000000000E+00 -0.36573077979E+02  0.36573077979E+02  0.00000000000E+00 0.  1.
         25    1    1    2    0    0 -0.23988304122E+03  0.77762779529E+02  0.59181421650E+03  0.65533196946E+03  0.12500000000E+03 0.  0.
         21    1    1    2  503  501  0.27881900466E+02 -0.31327374248E+02  0.50907093317E+03  0.51079547742E+03  0.00000000000E+00 0. -1.
          2    1    1    2  501    0  0.21200114075E+03 -0.46435405282E+02  0.29756515797E+04  0.29835554384E+04  0.00000000000E+00 0. -1.
<mgrwt>
<rscale>  4 0.28145323E+03</rscale>
<asrwt>0</asrwt>
<pdfrwt beam="1">  1       21 0.56266306E-02 0.28145323E+03</pdfrwt>
<pdfrwt beam="2">  1        2 0.63278576E+00 0.28145323E+03</pdfrwt>
<totfact> 0.10114904E+03</totfact>
</mgrwt>
</event>
<event>
 5    0  0.2947253E-001  0.3314453E+03  0.7546771E-02  0.1070499E+00
         21   -1    0    0  503  502  0.00000000000E+00  0.00000000000E+00  0.55931340932E+03  0.55931340932E+03  0.00000000000E+00 0. -1.
          1   -1    0    0  502    0 -0.00000000000E+00 -0.00000000000E+00 -0.15800375328E+04  0.15800375328E+04  0.00000000000E+00 0.  1.
         25    1    1    2    0    0 -0.30473047467E+03 -0.60992720469E+02  0.48137562445E+03  0.58645397599E+03  0.12500000000E+03 0.  0.
         21    1    1    2  503  501  0.10697505105E+03 -0.13691953742E+02 -0.15214510586E+03  0.18649199549E+03  0.00000000000E+00 0. -1.
          1    1    1    2  501    0  0.19775542362E+03  0.74684674211E+02 -0.13499546421E+04  0.13664049707E+04  0.00000000000E+00 0.  1.
<mgrwt>
<rscale>  4 0.33144530E+03</rscale>
<asrwt>0</asrwt>
<pdfrwt beam="1">  1       21 0.86048217E-01 0.33144530E+03</pdfrwt>
<pdfrwt beam="2">  1        1 0.24308270E+00 0.33144530E+03</pdfrwt>
<totfact> 0.75932153E+01</totfact>
</mgrwt>
</event>
<event>
 5    0  0.2947253E-001  0.2808981E+03  0.7546771E-02  0.1095199E+00
         21   -1    0    0  503  502  0.00000000000E+00  0.00000000000E+00  0.16323026419E+03  0.16323026419E+03  0.00000000000E+00 0.  1.
          1   -1    0    0  502    0 -0.00000000000E+00 -0.00000000000E+00 -0.18070858792E+04  0.18070858792E+04  0.00000000000E+00 0. -1.
         25    1    1    2    0    0  0.26107986612E+03  0.24084010989E+02  0.83227078273E+01  0.29058045967E+03  0.12500000000E+03 0.  0.
         21    1    1    2  503  501 -0.11016521552E+03  0.40003732734E+02 -0.39839657307E+03  0.41527882534E+03  0.00000000000E+00 0. -1.
          1    1    1    2  501    0 -0.15091465060E+03 -0.64087743723E+02 -0.12537817498E+04  0.12644568584E+04  0.00000000000E+00 0. -1.
<mgrwt>
<rscale>  4 0.28089811E+03</rscale>
<asrwt>0</asrwt>
<pdfrwt beam="1">  1       21 0.25112346E-01 0.28089811E+03</pdfrwt>
<pdfrwt beam="2">  1        1 0.27801324E+00 0.28089811E+03</pdfrwt>
<totfact> 0.73378123E+02</totfact>
</mgrwt>
</event>
<event>
 5    0  0.2947253E-001  0.2545215E+03  0.7546771E-02  0.1110480E+00
         21   -1    0    0  501  502  0.00000000000E+00  0.00000000000E+00  0.18002019869E+03  0.18002019869E+03  0.00000000000E+00 0. -1.
         -2   -1    0    0    0  501 -0.00000000000E+00 -0.00000000000E+00 -0.44064679702E+03  0.44064679702E+03  0.00000000000E+00 0.  1.
         25    1    1    2    0    0  0.14039800248E+03 -0.17159429727E+03  0.25327759670E+02  0.25577861007E+03  0.12500000000E+03 0.  0.
         21    1    1    2  501  501 -0.23900109898E+02  0.72452924122E+01 -0.36955745445E+02  0.44603101200E+02  0.00000000000E+00 0. -1.
         -2    1    1    2    0  502 -0.11649789259E+03  0.16434900486E+03 -0.24899861255E+03  0.32028528444E+03  0.00000000000E+00 0.  1.
<mgrwt>
<rscale>  4 0.25452152E+03</rscale>
<asrwt>0</asrwt>
<pdfrwt beam="1">  1       21 0.27695416E-01 0.25452152E+03</pdfrwt>
<pdfrwt beam="2">  1       -2 0.67791814E-01 0.25452152E+03</pdfrwt>
<totfact> 0.20446547E+03</totfact>
</mgrwt>
</event>
<event>
 5    0  0.2947253E-001  0.2564560E+03  0.7546771E-02  0.1109291E+00
         21   -1    0    0  501  502  0.00000000000E+00  0.00000000000E+00  0.51950887822E+03  0.51950887822E+03  0.00000000000E+00 0. -1.
         -1   -1    0    0    0  501 -0.00000000000E+00 -0.00000000000E+00 -0.17633759384E+03  0.17633759384E+03  0.00000000000E+00 0. -1.
         25    1    1    2    0    0  0.14625658295E+03 -0.17054432565E+03  0.34926874652E+03  0.43369345438E+03  0.12500000000E+03 0.  0.
         21    1    1    2  501  501  0.19185958931E+02  0.20457744888E+02 -0.25538212692E+02  0.37931789485E+02  0.00000000000E+00 0. -1.
         -1    1    1    2    0  502 -0.16544254189E+03  0.15008658077E+03  0.19440750544E+02  0.22422122820E+03  0.00000000000E+00 0. -1.
<mgrwt>
<rscale>  4 0.25645603E+03</rscale>
<asrwt>0</asrwt>
<pdfrwt beam="1">  1       21 0.79924442E-01 0.25645603E+03</pdfrwt>
<pdfrwt beam="2">  1       -1 0.27128861E-01 0.25645603E+03</pdfrwt>
<totfact> 0.14926576E+03</totfact>
</mgrwt>
</event>
<event>
 5    0  0.2947253E-001  0.2678221E+03  0.7546771E-02  0.1102533E+00
         -2   -1    0    0    0  501 -0.00000000000E+00  0.00000000000E+00  0.17063054209E+03  0.17063054209E+03  0.00000000000E+00 0.  1.
         21   -1    0    0  501  502  0.00000000000E+00 -0.00000000000E+00 -0.51845576498E+03  0.51845576498E+03  0.00000000000E+00 0.  1.
         25    1    1    2    0    0 -0.23179838360E+03  0.48715259586E+02 -0.35807164254E+03  0.44715094582E+03  0.12500000000E+03 0.  0.
         21    1    1    2  501  501  0.49506513654E+02  0.19269730201E+01 -0.13253056932E+02  0.51285978954E+02  0.00000000000E+00 0. -1.
         -2    1    1    2    0  502  0.18229186995E+03 -0.50642232607E+02  0.23499476574E+02  0.19064938230E+03  0.00000000000E+00 0.  1.
<mgrwt>
<rscale>  4 0.26782208E+03</rscale>
<asrwt>0</asrwt>
<pdfrwt beam="1">  1       21 0.79762426E-01 0.26782208E+03</pdfrwt>
<pdfrwt beam="2">  1       -2 0.26250853E-01 0.26782208E+03</pdfrwt>
<totfact> 0.14094287E+03</totfact>
</mgrwt>
</event>
<event>
 5    0  0.4018493E-001  0.4062721E+03  0.7546771E-02  0.1041629E+00
         -2   -1    0    0    0  501 -0.00000000000E+00  0.00000000000E+00  0.10226209808E+04  0.10226209808E+04  0.00000000000E+00 0. -1.
         21   -1    0    0  501  502  0.00000000000E+00 -0.00000000000E+00 -0.55613027032E+03  0.55613027032E+03  0.00000000000E+00 0. -1.
         25    1    1    2    0    0  0.38229482741E+03 -0.82990050845E+02 -0.42419503136E+03  0.59042620897E+03  0.12500000000E+03 0.  0.
         21    1    1    2  501  501 -0.54394183414E+02  0.67542246976E+01  0.26496537388E+02  0.60880318939E+02  0.00000000000E+00 0. -1.
         -2    1    1    2    0  502 -0.32790064400E+03  0.76235826147E+02  0.86418920443E+03  0.92744472319E+03  0.00000000000E+00 0. -1.
<mgrwt>
<rscale>  4 0.40627214E+03</rscale>
<asrwt>0</asrwt>
<pdfrwt beam="1">  1       21 0.85558503E-01 0.40627214E+03</pdfrwt>
<pdfrwt beam="2">  1       -2 0.15732631E+00 0.40627214E+03</pdfrwt>
<totfact> 0.24548706E+01</totfact>
</mgrwt>
</event>
<event>
 5    0  0.2947253E-001  0.3554754E+03  0.7546771E-02  0.1060390E+00
         -4   -1    0    0    0  501 -0.00000000000E+00  0.00000000000E+00  0.11834556200E+03  0.11834556200E+03  0.00000000000E+00 0.  1.
         21   -1    0    0  501  502  0.00000000000E+00 -0.00000000000E+00 -0.12451119826E+04  0.12451119826E+04  0.00000000000E+00 0.  1.
         25    1    1    2    0    0 -0.33126025328E+03 -0.31692713581E+02 -0.85952362102E+03  0.93013097927E+03  0.12500000000E+03 0.  0.
         21    1    1    2  501  501  0.72726144296E+02 -0.16135262824E+02 -0.87102552531E+02  0.11461367034E+03  0.00000000000E+00 0.  1.
         -4    1    1    2    0  502  0.25853410898E+03  0.47827976405E+02 -0.18014024703E+03  0.31871289499E+03  0.00000000000E+00 0.  1.
<mgrwt>
<rscale>  4 0.35547543E+03</rscale>
<asrwt>0</asrwt>
<pdfrwt beam="1">  1       21 0.19155570E+00 0.35547543E+03</pdfrwt>
<pdfrwt beam="2">  1       -4 0.18207008E-01 0.35547543E+03</pdfrwt>
<totfact> 0.16288509E+02</totfact>
</mgrwt>
</event>
<event>
 5    0  0.2947253E-001  0.2384716E+03  0.7546771E-02  0.1120815E+00
          2   -1    0    0  502    0 -0.00000000000E+00  0.00000000000E+00  0.26963360557E+04  0.26963360557E+04  0.00000000000E+00 0.  1.
         21   -1    0    0  503  502  0.00000000000E+00 -0.00000000000E+00 -0.33181479893E+03  0.33181479893E+03  0.00000000000E+00 0. -1.
         25    1    1    2    0    0  0.19999077026E+03 -0.35318333696E+02 -0.28421107481E+03  0.37100488936E+03  0.12500000000E+03 0.  0.
         21    1    1    2  503  501 -0.34875786692E+02  0.30213119993E+01  0.23932041341E+03  0.24186713108E+03  0.00000000000E+00 0.  1.
          2    1    1    2  501    0 -0.16511498357E+03  0.32297021696E+02  0.24094119182E+04  0.24152788342E+04  0.00000000000E+00 0.  1.
<mgrwt>
<rscale>  4 0.23847158E+03</rscale>
<asrwt>0</asrwt>
<pdfrwt beam="1">  1       21 0.51048432E-01 0.23847158E+03</pdfrwt>
<pdfrwt beam="2">  1        2 0.41482092E+00 0.23847158E+03</pdfrwt>
<totfact> 0.14316287E+02</totfact>
</mgrwt>
</event>
<event>
 5    0  0.2947253E-001  0.2869770E+03  0.7546771E-02  0.1091938E+00
          2   -1    0    0  502    0 -0.00000000000E+00  0.00000000000E+00  0.55336283561E+03  0.55336283561E+03  0.00000000000E+00 0. -1.
         21   -1    0    0  503  502  0.00000000000E+00 -0.00000000000E+00 -0.24490879526E+03  0.24490879526E+03  0.00000000000E+00 0.  1.
         25    1    1    2    0    0 -0.24060119626E+03 -0.94031114491E+02 -0.10676875624E+03  0.30619495986E+03  0.12500000000E+03 0.  0.
         21    1    1    2  503  501  0.75986979824E+02  0.56346509325E+01  0.10132711809E+03  0.12677915939E+03  0.00000000000E+00 0. -1.
          2    1    1    2  501    0  0.16461421644E+03  0.88396463558E+02  0.31389567849E+03  0.36529751162E+03  0.00000000000E+00 0. -1.
<mgrwt>
<rscale>  4 0.28697698E+03</rscale>
<asrwt>0</asrwt>
<pdfrwt beam="1">  1       21 0.37678276E-01 0.28697698E+03</pdfrwt>
<pdfrwt beam="2">  1        2 0.85132744E-01 0.28697698E+03</pdfrwt>
<totfact> 0.45960600E+03</totfact>
</mgrwt>
</event>
<event>
 5    0  0.2947253E-001  0.3499808E+03  0.7546771E-02  0.1062623E+00
          2   -1    0    0  502    0 -0.00000000000E+00  0.00000000000E+00  0.28040806789E+04  0.28040806789E+04  0.00000000000E+00 0.  1.
         21   -1    0    0  503  502  0.00000000000E+00 -0.00000000000E+00 -0.75443274401E+02  0.75443274401E+02  0.00000000000E+00 0. -1.
         25    1    1    2    0    0  0.29799167368E+03  0.16166180382E+03  0.50495935221E+03  0.62092070652E+03  0.12500000000E+03 0.  0.
         21    1    1    2  503  501 -0.56412321502E+01 -0.20872561201E+02  0.15236164373E+02  0.26450482341E+02  0.00000000000E+00 0.  1.
          2    1    1    2  501    0 -0.29235044153E+03 -0.14078924262E+03  0.22084418879E+04  0.22321527644E+04  0.00000000000E+00 0.  1.
<mgrwt>
<rscale>  4 0.34998077E+03</rscale>
<asrwt>0</asrwt>
<pdfrwt beam="1">  1       21 0.11606660E-01 0.34998077E+03</pdfrwt>
<pdfrwt beam="2">  1        2 0.43139695E+00 0.34998077E+03</pdfrwt>
<totfact> 0.20470640E+03</totfact>
</mgrwt>
</event>
<event>
 5    0  0.2947253E-001  0.3214417E+03  0.7546771E-02  0.1074988E+00
         -1   -1    0    0    0  501 -0.00000000000E+00  0.00000000000E+00  0.11759348987E+04  0.11759348987E+04  0.00000000000E+00 0.  1.
         21   -1    0    0  501  502  0.00000000000E+00 -0.00000000000E+00 -0.16206718189E+03  0.16206718189E+03  0.00000000000E+00 0.  1.
         25    1    1    2    0    0 -0.13406358899E+03  0.21779529573E+03  0.93023769117E+02  0.29947664075E+03  0.12500000000E+03 0.  0.
         21    1    1    2  501  501  0.80272186665E+02  0.88654240933E+02  0.85206680513E+02  0.14684473702E+03  0.00000000000E+00 0.  1.
         -1    1    1    2    0  502  0.53791402321E+02 -0.30644953666E+03  0.83563726714E+03  0.89168070278E+03  0.00000000000E+00 0.  1.
<mgrwt>
<rscale>  4 0.32144166E+03</rscale>
<asrwt>0</asrwt>
<pdfrwt beam="1">  1       21 0.24933413E-01 0.32144166E+03</pdfrwt>
<pdfrwt beam="2">  1       -1 0.18091306E+00 0.32144166E+03</pdfrwt>
<totfact> 0.30901116E+02</totfact>
</mgrwt>
</event>
<event>
 5    0  0.2947253E-001  0.4229518E+03  0.7546771E-02  0.1036110E+00
          1   -1    0    0  502    0 -0.00000000000E+00  0.00000000000E+00  0.35066158679E+04  0.35066158679E+04  0.00000000000E+00 0.  1.
         21   -1    0    0  503  502  0.00000000000E+00 -0.00000000000E+00 -0.99914505439E+02  0.99914505439E+02  0.00000000000E+00 0.  1.
         25    1    1    2    0    0 -0.37120219857E+03 -0.15960003728E+03  0.43515449089E+03  0.60683414131E+03  0.12500000000E+03 0.  0.
         21    1    1    2  503  501  0.71178990108E+02  0.48880383300E+02  0.47938940550E+03  0.48710362615E+03  0.00000000000E+00 0.  1.
          1    1    1    2  501    0  0.30002320846E+03  0.11071965398E+03  0.24921574661E+04  0.25125926059E+04  0.00000000000E+00 0.  1.
<mgrwt>
<rscale>  4 0.42295182E+03</rscale>
<asrwt>0</asrwt>
<pdfrwt beam="1">  1       21 0.15371465E-01 0.42295182E+03</pdfrwt>
<pdfrwt beam="2">  1        1 0.53947927E+00 0.42295182E+03</pdfrwt>
<totfact> 0.11789906E+02</totfact>
</mgrwt>
</event>
<event>
 5    0  0.2947253E-001  0.2771538E+03  0.7546771E-02  0.1098831E+00
         -2   -1    0    0    0  501 -0.00000000000E+00  0.00000000000E+00  0.31666750182E+03  0.31666750182E+03  0.00000000000E+00 0.  1.
         21   -1    0    0  501  502  0.00000000000E+00 -0.00000000000E+00 -0.25865386949E+03  0.25865386949E+03  0.00000000000E+00 0. -1.
         25    1    1    2    0    0  0.78964110919E+02 -0.22112136603E+03 -0.62273334832E+02  0.27319033211E+03  0.12500000000E+03 0.  0.
         21    1    1    2  501  501 -0.94246674788E+00  0.17697840082E+03  0.11751805967E+03  0.21244466796E+03  0.00000000000E+00 0.  1.
         -2    1    1    2    0  502 -0.78021644171E+02  0.44142965213E+02  0.27689074966E+01  0.89686371237E+02  0.00000000000E+00 0.  1.
<mgrwt>
<rscale>  4 0.27432174E+03</rscale>
<asrwt>0</asrwt>
<pdfrwt beam="1">  1       21 0.39792903E-01 0.27715377E+03</pdfrwt>
<pdfrwt beam="2">  1       -2 0.48718077E-01 0.27715377E+03</pdfrwt>
<totfact> 0.19557563E+03</totfact>
</mgrwt>
</event>
<event>
 5    0  0.2947253E-001  0.3169097E+03  0.7546771E-02  0.1077080E+00
         21   -1    0    0  503  502  0.00000000000E+00  0.00000000000E+00  0.68714285334E+02  0.68714285334E+02  0.00000000000E+00 0. -1.
          2   -1    0    0  502    0 -0.00000000000E+00 -0.00000000000E+00 -0.14003358128E+04  0.14003358128E+04  0.00000000000E+00 0. -1.
         25    1    1    2    0    0 -0.10156952965E+03 -0.27292933078E+03 -0.79698230189E+03  0.85767859859E+03  0.12500000000E+03 0.  0.
         21    1    1    2  503  501  0.28575380771E+02  0.45131378668E+02 -0.63458209256E+02  0.82947803157E+02  0.00000000000E+00 0.  1.
          2    1    1    2  501    0  0.72994148874E+02  0.22779795212E+03 -0.47118101629E+03  0.52842369636E+03  0.00000000000E+00 0. -1.
<mgrwt>
<rscale>  4 0.31690975E+03</rscale>
<asrwt>0</asrwt>
<pdfrwt beam="1">  1       21 0.10571430E-01 0.31690975E+03</pdfrwt>
<pdfrwt beam="2">  1        2 0.21543625E+00 0.31690975E+03</pdfrwt>
<totfact> 0.14124071E+04</totfact>
</mgrwt>
</event>
<event>
 5    0  0.2947253E-001  0.1803465E+03  0.7546771E-02  0.1167468E+00
          2   -1    0    0  502    0 -0.00000000000E+00  0.00000000000E+00  0.47519447499E+03  0.47519447499E+03  0.00000000000E+00 0. -1.
         21   -1    0    0  503  502  0.00000000000E+00 -0.00000000000E+00 -0.15602531964E+03  0.15602531964E+03  0.00000000000E+00 0.  1.
         25    1    1    2    0    0  0.20900610157E+03 -0.14835726700E+02  0.28361041211E+03  0.37411698055E+03  0.12500000000E+03 0.  0.
         21    1    1    2  503  501 -0.10187979340E+03 -0.41460575992E+02  0.71102237521E+02  0.13097327913E+03  0.00000000000E+00 0. -1.
          2    1    1    2  501    0 -0.10712630817E+03  0.56296302692E+02 -0.35543494285E+02  0.12612953494E+03  0.00000000000E+00 0. -1.
<mgrwt>
<rscale>  4 0.18034654E+03</rscale>
<asrwt>0</asrwt>
<pdfrwt beam="1">  1       21 0.24003896E-01 0.18034654E+03</pdfrwt>
<pdfrwt beam="2">  1        2 0.73106842E-01 0.18034654E+03</pdfrwt>
<totfact> 0.13530509E+04</totfact>
</mgrwt>
</event>
<event>
 5    0  0.2947253E-001  0.2367792E+03  0.7546771E-02  0.1121957E+00
         21   -1    0    0  501  502  0.00000000000E+00  0.00000000000E+00  0.13343651676E+03  0.13343651676E+03  0.00000000000E+00 0. -1.
         -1   -1    0    0    0  501 -0.00000000000E+00 -0.00000000000E+00 -0.94412071549E+03  0.94412071549E+03  0.00000000000E+00 0. -1.
         25    1    1    2    0    0  0.29144438218E+02 -0.19897237517E+03  0.48921942785E+01  0.23682976570E+03  0.12500000000E+03 0.  0.
         21    1    1    2  501  501  0.77333268468E+01  0.45503670680E+02 -0.17327319933E+03  0.17931533676E+03  0.00000000000E+00 0.  1.
         -1    1    1    2    0  502 -0.36877765065E+02  0.15346870449E+03 -0.64230319368E+03  0.66141212979E+03  0.00000000000E+00 0. -1.
<mgrwt>
<rscale>  4 0.23677923E+03</rscale>
<asrwt>0</asrwt>
<pdfrwt beam="1">  1       21 0.20528695E-01 0.23677923E+03</pdfrwt>
<pdfrwt beam="2">  1       -1 0.14524934E+00 0.23677923E+03</pdfrwt>
<totfact> 0.84067551E+02</totfact>
</mgrwt>
</event>
<event>
 5    0  0.2947253E-001  0.2130653E+03  0.7546771E-02  0.1139161E+00
          2   -1    0    0  502    0 -0.00000000000E+00  0.00000000000E+00  0.20085770347E+04  0.20085770347E+04  0.00000000000E+00 0.  1.
         21   -1    0    0  503  502  0.00000000000E+00 -0.00000000000E+00 -0.33641615043E+02  0.33641615043E+02  0.00000000000E+00 0. -1.
         25    1    1    2    0    0  0.15429974446E+03 -0.12733789308E+03  0.54672691400E+03  0.59544829217E+03  0.12500000000E+03 0.  0.
         21    1    1    2  503  501 -0.53358265158E+02 -0.59029597983E+01  0.19390235747E+03  0.20119660441E+03  0.00000000000E+00 0.  1.
          2    1    1    2  501    0 -0.10094147930E+03  0.13324085287E+03  0.12343061482E+04  0.12455737531E+04  0.00000000000E+00 0.  1.
<mgrwt>
<rscale>  4 0.21306531E+03</rscale>
<asrwt>0</asrwt>
<pdfrwt beam="1">  1       21 0.51756347E-02 0.21306531E+03</pdfrwt>
<pdfrwt beam="2">  1        2 0.30901176E+00 0.21306531E+03</pdfrwt>
<totfact> 0.24036124E+04</totfact>
</mgrwt>
</event>
<event>
 5    0  0.2947253E-001  0.2458271E+03  0.7546771E-02  0.1115971E+00
          2   -1    0    0  502    0 -0.00000000000E+00  0.00000000000E+00  0.67116066678E+03  0.67116066678E+03  0.00000000000E+00 0. -1.
         21   -1    0    0  503  502  0.00000000000E+00 -0.00000000000E+00 -0.19988607202E+03  0.19988607202E+03  0.00000000000E+00 0.  1.
         25    1    1    2    0    0  0.11489469428E+03 -0.17891184196E+03 -0.85984027860E+02  0.26120584031E+03  0.12500000000E+03 0.  0.
         21    1    1    2  503  501 -0.27841443765E+02 -0.93023435557E+01  0.24807507314E+02  0.38432954683E+02  0.00000000000E+00 0. -1.
          2    1    1    2  501    0 -0.87053250516E+02  0.18821418551E+03  0.53245111530E+03  0.57140794380E+03  0.00000000000E+00 0. -1.
<mgrwt>
<rscale>  4 0.24582713E+03</rscale>
<asrwt>0</asrwt>
<pdfrwt beam="1">  1       21 0.30751704E-01 0.24582713E+03</pdfrwt>
<pdfrwt beam="2">  1        2 0.10325549E+00 0.24582713E+03</pdfrwt>
<totfact> 0.55548509E+03</totfact>
</mgrwt>
</event>
<event>
 5    0  0.2947253E-001  0.2457685E+03  0.7546771E-02  0.1116009E+00
          4   -1    0    0  502    0 -0.00000000000E+00  0.00000000000E+00  0.34264988792E+03  0.34264988792E+03  0.00000000000E+00 0.  1.
         21   -1    0    0  503  502  0.00000000000E+00 -0.00000000000E+00 -0.36640577670E+03  0.36640577670E+03  0.00000000000E+00 0.  1.
         25    1    1    2    0    0 -0.25946794878E+02  0.23845232195E+03 -0.24313054471E+03  0.36368971360E+03  0.12500000000E+03 0.  0.
         21    1    1    2  503  501 -0.37282390983E+01 -0.32676208781E+02 -0.11347185884E+02  0.34790702990E+02  0.00000000000E+00 0. -1.
          4    1    1    2  501    0  0.29675033976E+02 -0.20577611317E+03  0.23072184183E+03  0.31057524803E+03  0.00000000000E+00 0.  1.
<mgrwt>
<rscale>  4 0.24576855E+03</rscale>
<asrwt>0</asrwt>
<pdfrwt beam="1">  1       21 0.56370120E-01 0.24576855E+03</pdfrwt>
<pdfrwt beam="2">  1        4 0.52715367E-01 0.24576855E+03</pdfrwt>
<totfact> 0.43084450E+02</totfact>
</mgrwt>
</event>
<event>
 5    0  0.2947253E-001  0.2773201E+03  0.7546771E-02  0.1097162E+00
          4   -1    0    0  502    0 -0.00000000000E+00  0.00000000000E+00  0.39377125393E+03  0.39377125393E+03  0.00000000000E+00 0.  1.
         21   -1    0    0  503  502  0.00000000000E+00 -0.00000000000E+00 -0.12063891451E+04  0.12063891451E+04  0.00000000000E+00 0.  1.
         25    1    1    2    0    0 -0.59499685068E+02  0.24480330782E+03 -0.11122255548E+04  0.11472312569E+04  0.12500000000E+03 0.  0.
         21    1    1    2  503  501  0.81989729087E+02 -0.67863047095E+02  0.25804965542E+01  0.10646298793E+03  0.00000000000E+00 0. -1.
          4    1    1    2  501    0 -0.22490044018E+02 -0.17694026073E+03  0.29702716714E+03  0.34646615414E+03  0.00000000000E+00 0.  1.
<mgrwt>
<rscale>  4 0.27732005E+03</rscale>
<asrwt>0</asrwt>
<pdfrwt beam="1">  1       21 0.18559833E+00 0.27732005E+03</pdfrwt>
<pdfrwt beam="2">  1        4 0.60580193E-01 0.27732005E+03</pdfrwt>
<totfact> 0.17453267E+01</totfact>
</mgrwt>
</event>
<event>
 5    0  0.2947253E-001  0.2833858E+03  0.7546771E-02  0.1093854E+00
         21   -1    0    0  503  502  0.00000000000E+00  0.00000000000E+00  0.10412755564E+03  0.10412755564E+03  0.00000000000E+00 0. -1.
          1   -1    0    0  502    0 -0.00000000000E+00 -0.00000000000E+00 -0.22417199076E+04  0.22417199076E+04  0.00000000000E+00 0. -1.
         25    1    1    2    0    0 -0.25352058564E+03  0.20244111153E+02 -0.11375619228E+03  0.30536532656E+03  0.12500000000E+03 0.  0.
         21    1    1    2  503  501  0.24497309017E+02 -0.15209954672E+02 -0.32378967564E+03  0.32507109211E+03  0.00000000000E+00 0.  1.
          1    1    1    2  501    0  0.22902327663E+03 -0.50341564815E+01 -0.17000464841E+04  0.17154110446E+04  0.00000000000E+00 0. -1.
<mgrwt>
<rscale>  4 0.28338580E+03</rscale>
<asrwt>0</asrwt>
<pdfrwt beam="1">  1       21 0.16019624E-01 0.28338580E+03</pdfrwt>
<pdfrwt beam="2">  1        1 0.34487998E+00 0.28338580E+03</pdfrwt>
<totfact> 0.89107563E+02</totfact>
</mgrwt>
</event>
<event>
 5    0  0.2947253E-001  0.2306672E+03  0.7546771E-02  0.1126171E+00
         -3   -1    0    0    0  501 -0.00000000000E+00  0.00000000000E+00  0.24381015796E+03  0.24381015796E+03  0.00000000000E+00 0. -1.
         21   -1    0    0  501  502  0.00000000000E+00 -0.00000000000E+00 -0.45079394733E+03  0.45079394733E+03  0.00000000000E+00 0. -1.
         25    1    1    2    0    0 -0.84702146149E+02  0.19077631512E+03 -0.34280398940E+03  0.42036844687E+03  0.12500000000E+03 0.  0.
         21    1    1    2  501  501  0.10502431837E+03 -0.11454009422E+03  0.65837981276E+02  0.16877257008E+03  0.00000000000E+00 0. -1.
         -3    1    1    2    0  502 -0.20322172221E+02 -0.76236220891E+02  0.69982218753E+02  0.10546308833E+03  0.00000000000E+00 0. -1.
<mgrwt>
<rscale>  4 0.23066720E+03</rscale>
<asrwt>0</asrwt>
<pdfrwt beam="1">  1       21 0.69352914E-01 0.23066720E+03</pdfrwt>
<pdfrwt beam="2">  1       -3 0.37509256E-01 0.23066720E+03</pdfrwt>
<totfact> 0.65179357E+02</totfact>
</mgrwt>
</event>
