<event>
 5    0  0.1911311E+001  0.2412953E+03  0.7546771E-02  0.1118933E+00
         21   -1    0    0  504  501  0.00000000000E+00  0.00000000000E+00  0.21648070522E+03  0.21648070522E+03  0.00000000000E+00 0.  1.
         21   -1    0    0  503  502 -0.00000000000E+00 -0.00000000000E+00 -0.11200656914E+04  0.11200656914E+04  0.00000000000E+00 0.  1.
         25    1    1    2    0    0  0.23184250325E+03  0.75011164331E+02 -0.63114606468E+03  0.68800288957E+03  0.12500000000E+03 0.  0.
         21    1    1    2  503  501 -0.37964330046E+02 -0.13928903645E+02 -0.40425491238E+03  0.40627249340E+03  0.00000000000E+00 0.  1.
         21    1    1    2  504  502 -0.19387817321E+03 -0.61082260686E+02  0.13181599087E+03  0.24227101367E+03  0.00000000000E+00 0.  1.
<mgrwt>
<rscale>  4 0.24129525E+03</rscale>
<asrwt>0</asrwt>
<pdfrwt beam="1">  1       21 0.33304724E-01 0.24129525E+03</pdfrwt>
<pdfrwt beam="2">  1       21 0.17231780E+00 0.24129525E+03</pdfrwt>
<totfact> 0.17064640E+03</totfact>
</mgrwt>
</event>
<event>
 5    0  0.1911311E+001  0.2207260E+03  0.7546771E-02  0.1133343E+00
         21   -1    0    0  504  501  0.00000000000E+00  0.00000000000E+00  0.60346730493E+02  0.60346730493E+02  0.00000000000E+00 0. -1.
         21   -1    0    0  503  502 -0.00000000000E+00 -0.00000000000E+00 -0.13690749516E+04  0.13690749516E+04  0.00000000000E+00 0. -1.
         25    1    1    2    0    0  0.12554809926E+03  0.16275605357E+03 -0.35405622862E+03  0.42805685513E+03  0.12500000000E+03 0.  0.
         21    1    1    2  503  501 -0.36871300706E+02 -0.17606849167E+03 -0.82049057877E+03  0.83997880713E+03  0.00000000000E+00 0. -1.
         21    1    1    2  504  502 -0.88676798556E+02  0.13312438103E+02 -0.13418141372E+03  0.16138601983E+03  0.00000000000E+00 0.  1.
<mgrwt>
<rscale>  4 0.22072597E+03</rscale>
<asrwt>0</asrwt>
<pdfrwt beam="1">  1       21 0.92841129E-02 0.22072597E+03</pdfrwt>
<pdfrwt beam="2">  1       21 0.21062690E+00 0.22072597E+03</pdfrwt>
<totfact> 0.10393274E+04</totfact>
</mgrwt>
</event>
<event>
 5    0  0.1911311E+001  0.4403122E+03  0.7546771E-02  0.1030651E+00
         21   -1    0    0  504  501  0.00000000000E+00  0.00000000000E+00  0.41265612316E+03  0.41265612316E+03  0.00000000000E+00 0. -1.
         21   -1    0    0  503  502 -0.00000000000E+00 -0.00000000000E+00 -0.13952304047E+04  0.13952304047E+04  0.00000000000E+00 0. -1.
         25    1    1    2    0    0 -0.92096331542E+02 -0.41261722202E+03 -0.11628704881E+04  0.12436347849E+04  0.12500000000E+03 0.  0.
         21    1    1    2  503  501  0.75905262301E+02 -0.10536552319E+02 -0.40506237094E+02  0.86679772861E+02  0.00000000000E+00 0.  1.
         21    1    1    2  504  502  0.16191069242E+02  0.42315377434E+03  0.22080244366E+03  0.47757197006E+03  0.00000000000E+00 0. -1.
<mgrwt>
<rscale>  4 0.44031223E+03</rscale>
<asrwt>0</asrwt>
<pdfrwt beam="1">  1       21 0.63485558E-01 0.44031223E+03</pdfrwt>
<pdfrwt beam="2">  1       21 0.21465083E+00 0.44031223E+03</pdfrwt>
<totfact> 0.20154065E+02</totfact>
</mgrwt>
</event>
<event>
 5    0  0.1911311E+001  0.2909830E+03  0.7546771E-02  0.1089837E+00
         21   -1    0    0  504  501  0.00000000000E+00  0.00000000000E+00  0.26178914037E+03  0.26178914037E+03  0.00000000000E+00 0. -1.
         21   -1    0    0  503  502 -0.00000000000E+00 -0.00000000000E+00 -0.41912612503E+03  0.41912612503E+03  0.00000000000E+00 0.  1.
         25    1    1    2    0    0 -0.78100407528E+02 -0.27695886246E+03  0.56514025914E+01  0.31378786385E+03  0.12500000000E+03 0.  0.
         21    1    1    2  503  501  0.56777958727E+02  0.24663345070E+03 -0.19392797417E+03  0.31884142574E+03  0.00000000000E+00 0.  1.
         21    1    1    2  504  502  0.21322448801E+02  0.30325411757E+02  0.30939586924E+02  0.48285975812E+02  0.00000000000E+00 0.  1.
<mgrwt>
<rscale>  4 0.29098298E+03</rscale>
<asrwt>0</asrwt>
<pdfrwt beam="1">  1       21 0.40275253E-01 0.29098298E+03</pdfrwt>
<pdfrwt beam="2">  1       21 0.64480941E-01 0.29098298E+03</pdfrwt>
<totfact> 0.12481054E+04</totfact>
</mgrwt>
</event>
