<event>
 5    0  0.1856407E+000  0.2962002E+03  0.7546771E-02  0.1087156E+00
         21   -1    0    0  502  501  0.00000000000E+00  0.00000000000E+00  0.41836799483E+03  0.41836799483E+03  0.00000000000E+00 0. -1.
         21   -1    0    0  503  502 -0.00000000000E+00 -0.00000000000E+00 -0.22882115707E+03  0.22882115707E+03  0.00000000000E+00 0. -1.
         25    1    1    2    0    0 -0.25142815187E+03 -0.94305052578E+02 -0.28049764098E+02  0.29752537330E+03  0.12500000000E+03 0.  0.
         21    1    1    2  503  504  0.17278942586E+03  0.59349886920E+02  0.17749451660E+03  0.25472121660E+03  0.00000000000E+00 0. -1.
         21    1    1    2  504  501  0.78638726012E+02  0.34955165658E+02  0.40102085256E+02  0.94942561988E+02  0.00000000000E+00 0. -1.
<mgrwt>
<rscale>  4 0.29620020E+03</rscale>
<asrwt>0</asrwt>
<pdfrwt beam="1">  1       21 0.64364307E-01 0.29620020E+03</pdfrwt>
<pdfrwt beam="2">  1       21 0.35203255E-01 0.29620020E+03</pdfrwt>
<totfact> 0.16417222E+04</totfact>
</mgrwt>
</event>
<event>
 5    0  0.1856407E+000  0.2548305E+03  0.7546771E-02  0.1110290E+00
         21   -1    0    0  502  501  0.00000000000E+00  0.00000000000E+00  0.21843120214E+03  0.21843120214E+03  0.00000000000E+00 0.  1.
         21   -1    0    0  503  502 -0.00000000000E+00 -0.00000000000E+00 -0.53111994777E+03  0.53111994777E+03  0.00000000000E+00 0.  1.
         25    1    1    2    0    0  0.20799027499E+03 -0.14734244516E+03  0.44642526535E+02  0.28738076799E+03  0.12500000000E+03 0.  0.
         21    1    1    2  503  504 -0.11284875282E+03  0.88929183359E+00 -0.18573769698E+03  0.21733412970E+03  0.00000000000E+00 0.  1.
         21    1    1    2  504  501 -0.95141522168E+02  0.14645315333E+03 -0.17159357518E+03  0.24483625223E+03  0.00000000000E+00 0.  1.
<mgrwt>
<rscale>  4 0.25483054E+03</rscale>
<asrwt>0</asrwt>
<pdfrwt beam="1">  1       21 0.33604800E-01 0.25483054E+03</pdfrwt>
<pdfrwt beam="2">  1       21 0.81710761E-01 0.25483054E+03</pdfrwt>
<totfact> 0.10763401E+04</totfact>
</mgrwt>
</event>
<event>
 5    0  0.1523697E+001  0.2858607E+03  0.7546771E-02  0.1092530E+00
         21   -1    0    0  502  501  0.00000000000E+00  0.00000000000E+00  0.12138599823E+04  0.12138599823E+04  0.00000000000E+00 0.  1.
         21   -1    0    0  503  502 -0.00000000000E+00 -0.00000000000E+00 -0.61241257604E+02  0.61241257604E+02  0.00000000000E+00 0.  1.
         25    1    1    2    0    0 -0.13822269133E+03 -0.21676219311E+03  0.58301580909E+03  0.64932564589E+03  0.12500000000E+03 0.  0.
         21    1    1    2  503  504  0.14889932662E+02  0.21741779884E+02  0.85945214802E+02  0.89894354854E+02  0.00000000000E+00 0. -1.
         21    1    1    2  504  501  0.12333275867E+03  0.19502041322E+03  0.48365770077E+03  0.53588123913E+03  0.00000000000E+00 0.  1.
<mgrwt>
<rscale>  4 0.28586074E+03</rscale>
<asrwt>0</asrwt>
<pdfrwt beam="1">  1       21 0.18674767E+00 0.28586074E+03</pdfrwt>
<pdfrwt beam="2">  1       21 0.94217329E-02 0.28586074E+03</pdfrwt>
<totfact> 0.13901679E+04</totfact>
</mgrwt>
</event>
<event>
 5    0  0.1856407E+000  0.5890904E+03  0.7546771E-02  0.9928302E-01
         21   -1    0    0  502  501  0.00000000000E+00  0.00000000000E+00  0.85728238020E+03  0.85728238020E+03  0.00000000000E+00 0. -1.
         21   -1    0    0  503  502 -0.00000000000E+00 -0.00000000000E+00 -0.41375862980E+03  0.41375862980E+03  0.00000000000E+00 0. -1.
         25    1    1    2    0    0 -0.35370417280E+03  0.45419804919E+03  0.33317278451E+03  0.67678032926E+03  0.12500000000E+03 0.  0.
         21    1    1    2  503  504  0.34288175030E+03 -0.43624480757E+03  0.84959142469E+02  0.56133366433E+03  0.00000000000E+00 0. -1.
         21    1    1    2  504  501  0.10822422500E+02 -0.17953241622E+02  0.25391823417E+02  0.32927016414E+02  0.00000000000E+00 0.  1.
<mgrwt>
<rscale>  4 0.58909041E+03</rscale>
<asrwt>0</asrwt>
<pdfrwt beam="1">  1       21 0.13188960E+00 0.58909041E+03</pdfrwt>
<pdfrwt beam="2">  1       21 0.63655174E-01 0.58909041E+03</pdfrwt>
<totfact> 0.76115488E+02</totfact>
</mgrwt>
</event>
<event>
 5    0  0.1886759E+000  0.2679906E+03  0.7546771E-02  0.1102435E+00
         21   -1    0    0  502  501  0.00000000000E+00  0.00000000000E+00  0.28161618694E+03  0.28161618694E+03  0.00000000000E+00 0. -1.
         21   -1    0    0  503  502 -0.00000000000E+00 -0.00000000000E+00 -0.39916912584E+03  0.39916912584E+03  0.00000000000E+00 0. -1.
         25    1    1    2    0    0 -0.25183420174E+03  0.62408781078E+02  0.10309844605E+03  0.30589150151E+03  0.12500000000E+03 0.  0.
         21    1    1    2  503  504  0.58944184511E+02 -0.78678357199E+02 -0.29007258539E+02  0.10249937476E+03  0.00000000000E+00 0. -1.
         21    1    1    2  504  501  0.19289001722E+03  0.16269576121E+02 -0.19164412641E+03  0.27239443651E+03  0.00000000000E+00 0. -1.
<mgrwt>
<rscale>  4 0.26799064E+03</rscale>
<asrwt>0</asrwt>
<pdfrwt beam="1">  1       21 0.43325567E-01 0.26799064E+03</pdfrwt>
<pdfrwt beam="2">  1       21 0.61410635E-01 0.26799064E+03</pdfrwt>
<totfact> 0.12084167E+04</totfact>
</mgrwt>
</event>
<event>
 5    0  0.1856407E+000  0.2160397E+03  0.7546771E-02  0.1136871E+00
         21   -1    0    0  502  501  0.00000000000E+00  0.00000000000E+00  0.17263766317E+03  0.17263766317E+03  0.00000000000E+00 0. -1.
         21   -1    0    0  503  502 -0.00000000000E+00 -0.00000000000E+00 -0.99872627864E+03  0.99872627864E+03  0.00000000000E+00 0.  1.
         25    1    1    2    0    0  0.90033958441E+02  0.20444466098E+03  0.32981622045E+02  0.25810176379E+03  0.12500000000E+03 0.  0.
         21    1    1    2  503  504 -0.37961245415E+02 -0.10109636835E+03 -0.73770168062E+03  0.74556374740E+03  0.00000000000E+00 0.  1.
         21    1    1    2  504  501 -0.52072713026E+02 -0.10334829263E+03 -0.12136855689E+03  0.16769843062E+03  0.00000000000E+00 0.  1.
<mgrwt>
<rscale>  4 0.21603971E+03</rscale>
<asrwt>0</asrwt>
<pdfrwt beam="1">  1       21 0.26559641E-01 0.21603971E+03</pdfrwt>
<pdfrwt beam="2">  1       21 0.15365019E+00 0.21603971E+03</pdfrwt>
<totfact> 0.37088118E+03</totfact>
</mgrwt>
</event>
<event>
 5    0  0.1856407E+000  0.3256153E+03  0.7546771E-02  0.1073094E+00
         21   -1    0    0  502  501  0.00000000000E+00  0.00000000000E+00  0.31770948467E+03  0.31770948467E+03  0.00000000000E+00 0.  1.
         21   -1    0    0  503  502 -0.00000000000E+00 -0.00000000000E+00 -0.68917558250E+03  0.68917558250E+03  0.00000000000E+00 0.  1.
         25    1    1    2    0    0  0.99806175120E+01 -0.30049534668E+03  0.14928409281E+03  0.35820079072E+03  0.12500000000E+03 0.  0.
         21    1    1    2  503  504 -0.84285775945E+02  0.29646987713E+03 -0.45387469425E+03  0.54863532346E+03  0.00000000000E+00 0.  1.
         21    1    1    2  504  501  0.74305158433E+02  0.40254695482E+01 -0.66875496406E+02  0.10004895299E+03  0.00000000000E+00 0.  1.
<mgrwt>
<rscale>  4 0.32561531E+03</rscale>
<asrwt>0</asrwt>
<pdfrwt beam="1">  1       21 0.48878382E-01 0.32561531E+03</pdfrwt>
<pdfrwt beam="2">  1       21 0.10602701E+00 0.32561531E+03</pdfrwt>
<totfact> 0.26053914E+03</totfact>
</mgrwt>
</event>
<event>
 5    0  0.1856407E+000  0.2521582E+03  0.7546771E-02  0.1111948E+00
         21   -1    0    0  502  501  0.00000000000E+00  0.00000000000E+00  0.66957177486E+03  0.66957177486E+03  0.00000000000E+00 0. -1.
         21   -1    0    0  503  502 -0.00000000000E+00 -0.00000000000E+00 -0.11747811253E+03  0.11747811253E+03  0.00000000000E+00 0. -1.
         25    1    1    2    0    0 -0.17105008244E+03 -0.13675025910E+03  0.48597825179E+03  0.54750216920E+03  0.12500000000E+03 0.  0.
         21    1    1    2  503  504  0.12606773926E+03  0.10634472684E+03  0.16078878289E+02  0.16571302344E+03  0.00000000000E+00 0. -1.
         21    1    1    2  504  501  0.44982343177E+02  0.30405532258E+02  0.50036532248E+02  0.73834694751E+02  0.00000000000E+00 0. -1.
<mgrwt>
<rscale>  4 0.25215821E+03</rscale>
<asrwt>0</asrwt>
<pdfrwt beam="1">  1       21 0.10301104E+00 0.25215821E+03</pdfrwt>
<pdfrwt beam="2">  1       21 0.18073556E-01 0.25215821E+03</pdfrwt>
<totfact> 0.20614626E+04</totfact>
</mgrwt>
</event>
<event>
 5    0  0.1856407E+000  0.3171323E+03  0.7546771E-02  0.1076977E+00
         21   -1    0    0  502  501  0.00000000000E+00  0.00000000000E+00  0.10045857277E+03  0.10045857277E+03  0.00000000000E+00 0.  1.
         21   -1    0    0  503  502 -0.00000000000E+00 -0.00000000000E+00 -0.13242630779E+04  0.13242630779E+04  0.00000000000E+00 0.  1.
         25    1    1    2    0    0 -0.32068270520E+03 -0.12920292534E+01 -0.55816571895E+03  0.65575379264E+03  0.12500000000E+03 0.  0.
         21    1    1    2  503  504  0.60149904767E+02  0.90321016002E+02 -0.21610415443E+03  0.24181997961E+03  0.00000000000E+00 0.  1.
         21    1    1    2  504  501  0.26053280043E+03 -0.89028986748E+02 -0.44953463171E+03  0.52714787839E+03  0.00000000000E+00 0.  1.
<mgrwt>
<rscale>  4 0.31713230E+03</rscale>
<asrwt>0</asrwt>
<pdfrwt beam="1">  1       21 0.15455166E-01 0.31713230E+03</pdfrwt>
<pdfrwt beam="2">  1       21 0.20373277E+00 0.31713230E+03</pdfrwt>
<totfact> 0.43047534E+03</totfact>
</mgrwt>
</event>
<event>
 5    0  0.1856407E+000  0.2870555E+03  0.7546771E-02  0.1091897E+00
         21   -1    0    0  502  501  0.00000000000E+00  0.00000000000E+00  0.12919878437E+04  0.12919878437E+04  0.00000000000E+00 0.  1.
         21   -1    0    0  503  502 -0.00000000000E+00 -0.00000000000E+00 -0.27400608431E+03  0.27400608431E+03  0.00000000000E+00 0.  1.
         25    1    1    2    0    0  0.18088775965E+03  0.18454121593E+03  0.12072841465E+04  0.12409415185E+04  0.12500000000E+03 0.  0.
         21    1    1    2  503  504 -0.66786346418E+02 -0.66351637152E+02 -0.37379519776E+02  0.10129256794E+03  0.00000000000E+00 0.  1.
         21    1    1    2  504  501 -0.11410141324E+03 -0.11818957877E+03 -0.15192286739E+03  0.22375984150E+03  0.00000000000E+00 0.  1.
<mgrwt>
<rscale>  4 0.28705547E+03</rscale>
<asrwt>0</asrwt>
<pdfrwt beam="1">  1       21 0.19876736E+00 0.28705547E+03</pdfrwt>
<pdfrwt beam="2">  1       21 0.42154783E-01 0.28705547E+03</pdfrwt>
<totfact> 0.67618929E+02</totfact>
</mgrwt>
</event>
<event>
 5    0  0.1856407E+000  0.2573522E+03  0.7546771E-02  0.1108745E+00
         21   -1    0    0  502  501  0.00000000000E+00  0.00000000000E+00  0.46253378997E+03  0.46253378997E+03  0.00000000000E+00 0. -1.
         21   -1    0    0  503  502 -0.00000000000E+00 -0.00000000000E+00 -0.67688620617E+03  0.67688620617E+03  0.00000000000E+00 0. -1.
         25    1    1    2    0    0 -0.19844668943E+03  0.10594381001E+03  0.40328185192E+03  0.47839986572E+03  0.12500000000E+03 0.  0.
         21    1    1    2  503  504  0.16252180045E+03 -0.89105794577E+02 -0.41456822478E+03  0.45411451336E+03  0.00000000000E+00 0. -1.
         21    1    1    2  504  501  0.35924888980E+02 -0.16838015433E+02 -0.20306604334E+03  0.20690561706E+03  0.00000000000E+00 0. -1.
<mgrwt>
<rscale>  4 0.25735225E+03</rscale>
<asrwt>0</asrwt>
<pdfrwt beam="1">  1       21 0.71159044E-01 0.25735225E+03</pdfrwt>
<pdfrwt beam="2">  1       21 0.10413634E+00 0.25735225E+03</pdfrwt>
<totfact> 0.12598032E+03</totfact>
</mgrwt>
</event>
