<event>
 5    0  0.1911311E+001  0.2345913E+03  0.7546771E-02  0.1123449E+00
         21   -1    0    0  502  501  0.00000000000E+00  0.00000000000E+00  0.33192549627E+03  0.33192549627E+03  0.00000000000E+00 0.  1.
         21   -1    0    0  504  502 -0.00000000000E+00 -0.00000000000E+00 -0.72824374635E+03  0.72824374635E+03  0.00000000000E+00 0.  1.
         25    1    1    2    0    0 -0.18827958230E+03 -0.20375207825E+03 -0.49232542038E+03  0.57876889174E+03  0.12500000000E+03 0.  0.
         21    1    1    2  503  501  0.13996855765E+03  0.13370740642E+03  0.24353553449E+03  0.31109230820E+03  0.00000000000E+00 0.  1.
         21    1    1    2  504  503  0.48311024645E+02  0.70044671833E+02 -0.14752836420E+03  0.17030804267E+03  0.00000000000E+00 0. -1.
<mgrwt>
<rscale>  4 0.23459127E+03</rscale>
<asrwt>0</asrwt>
<pdfrwt beam="1">  1       21 0.51065461E-01 0.23459127E+03</pdfrwt>
<pdfrwt beam="2">  1       21 0.11203750E+00 0.23459127E+03</pdfrwt>
<totfact> 0.21986255E+03</totfact>
</mgrwt>
</event>
<event>
 5    0  0.1911311E+001  0.3237330E+03  0.7546771E-02  0.1073944E+00
         21   -1    0    0  503  501  0.00000000000E+00  0.00000000000E+00  0.23588407937E+03  0.23588407937E+03  0.00000000000E+00 0. -1.
         21   -1    0    0  501  502 -0.00000000000E+00 -0.00000000000E+00 -0.59415219363E+03  0.59415219363E+03  0.00000000000E+00 0. -1.
         25    1    1    2    0    0 -0.33093675835E+02 -0.31540864642E+03 -0.35423046743E+03  0.49161166551E+03  0.12500000000E+03 0.  0.
         21    1    1    2  503  504  0.51861757294E+00  0.29298500422E+03  0.17286454405E+02  0.29349497980E+03  0.00000000000E+00 0. -1.
         21    1    1    2  504  502  0.32575058262E+02  0.22423642202E+02 -0.21324101234E+02  0.44929627684E+02  0.00000000000E+00 0. -1.
<mgrwt>
<rscale>  4 0.32373301E+03</rscale>
<asrwt>0</asrwt>
<pdfrwt beam="1">  1       21 0.36289859E-01 0.32373301E+03</pdfrwt>
<pdfrwt beam="2">  1       21 0.91408029E-01 0.32373301E+03</pdfrwt>
<totfact> 0.68764261E+03</totfact>
</mgrwt>
</event>
<event>
 5    0  0.1911311E+001  0.2374407E+03  0.7546771E-02  0.1121510E+00
         21   -1    0    0  504  501  0.00000000000E+00  0.00000000000E+00  0.90161800542E+03  0.90161800542E+03  0.00000000000E+00 0. -1.
         21   -1    0    0  503  502 -0.00000000000E+00 -0.00000000000E+00 -0.61703123050E+02  0.61703123050E+02  0.00000000000E+00 0. -1.
         25    1    1    2    0    0 -0.19479693177E+03  0.52983233705E+02  0.28943878574E+03  0.37436997525E+03  0.12500000000E+03 0.  0.
         21    1    1    2  503  501  0.11274919764E+03 -0.24984316286E+02  0.23594480356E+03  0.26269097425E+03  0.00000000000E+00 0. -1.
         21    1    1    2  504  502  0.82047734138E+02 -0.27998917419E+02  0.31453129307E+03  0.32626017896E+03  0.00000000000E+00 0. -1.
<mgrwt>
<rscale>  4 0.23744066E+03</rscale>
<asrwt>0</asrwt>
<pdfrwt beam="1">  1       21 0.13871045E+00 0.23744066E+03</pdfrwt>
<pdfrwt beam="2">  1       21 0.94927888E-02 0.23744066E+03</pdfrwt>
<totfact> 0.31781198E+04</totfact>
</mgrwt>
</event>
