<event>
 5    0  0.1531977E+001  0.2442452E+03  0.7546771E-02  0.1116997E+00
         21   -1    0    0  503  501  0.00000000000E+00  0.00000000000E+00  0.28364414768E+03  0.28364414768E+03  0.00000000000E+00 0. -1.
         21   -1    0    0  504  502 -0.00000000000E+00 -0.00000000000E+00 -0.22868641811E+04  0.22868641811E+04  0.00000000000E+00 0. -1.
         25    1    1    2    0    0  0.30325448692E+03  0.17593292484E+03 -0.98460029402E+03  0.10526055372E+04  0.12500000000E+03 0.  0.
         21    1    1    2  503  502 -0.18918431900E+03 -0.52913844818E+01 -0.12174861691E+04  0.12321084681E+04  0.00000000000E+00 0. -1.
         21    1    1    2  504  501 -0.11407016792E+03 -0.17064154036E+03  0.19886642967E+03  0.28579432352E+03  0.00000000000E+00 0. -1.
<mgrwt>
<rscale>  4 0.24424522E+03</rscale>
<asrwt>0</asrwt>
<pdfrwt beam="1">  1       21 0.43637560E-01 0.24424522E+03</pdfrwt>
<pdfrwt beam="2">  1       21 0.35182526E+00 0.24424522E+03</pdfrwt>
<totfact> 0.79363649E+01</totfact>
</mgrwt>
</event>
<event>
 5    0  0.1531977E+001  0.3596094E+03  0.7546771E-02  0.1058739E+00
         21   -1    0    0  502  501  0.00000000000E+00  0.00000000000E+00  0.12070585120E+04  0.12070585120E+04  0.00000000000E+00 0. -1.
         21   -1    0    0  504  502 -0.00000000000E+00 -0.00000000000E+00 -0.12880996905E+03  0.12880996905E+03  0.00000000000E+00 0. -1.
         25    1    1    2    0    0  0.12938096503E+03  0.28744431021E+03  0.76852253217E+03  0.84000925473E+03  0.12500000000E+03 0.  0.
         21    1    1    2  503  501  0.84157436010E+01  0.30322359424E+02  0.63593679698E+02  0.70953691369E+02  0.00000000000E+00 0. -1.
         21    1    1    2  504  503 -0.13779670863E+03 -0.31776666964E+03  0.24613233112E+03  0.42490553499E+03  0.00000000000E+00 0. -1.
<mgrwt>
<rscale>  4 0.35960935E+03</rscale>
<asrwt>0</asrwt>
<pdfrwt beam="1">  1       21 0.18570130E+00 0.35960935E+03</pdfrwt>
<pdfrwt beam="2">  1       21 0.19816919E-01 0.35960935E+03</pdfrwt>
<totfact> 0.34895199E+03</totfact>
</mgrwt>
</event>
<event>
 5    0  0.1531977E+001  0.5037032E+03  0.7546771E-02  0.1012817E+00
         21   -1    0    0  502  501  0.00000000000E+00  0.00000000000E+00  0.34849987189E+03  0.34849987189E+03  0.00000000000E+00 0.  1.
         21   -1    0    0  504  502 -0.00000000000E+00 -0.00000000000E+00 -0.25632605317E+04  0.25632605317E+04  0.00000000000E+00 0.  1.
         25    1    1    2    0    0  0.10068061532E+03  0.50394785726E+03 -0.14652659015E+04  0.15577962612E+04  0.12500000000E+03 0.  0.
         21    1    1    2  503  501 -0.52709733261E+02 -0.48195152100E+03  0.10646649760E+03  0.49637757774E+03  0.00000000000E+00 0.  1.
         21    1    1    2  504  503 -0.47970882055E+02 -0.21996336256E+02 -0.85596125592E+03  0.85758656471E+03  0.00000000000E+00 0. -1.
<mgrwt>
<rscale>  4 0.50370319E+03</rscale>
<asrwt>0</asrwt>
<pdfrwt beam="1">  1       21 0.53615364E-01 0.50370319E+03</pdfrwt>
<pdfrwt beam="2">  1       21 0.39434778E+00 0.50370319E+03</pdfrwt>
<totfact> 0.21897790E+01</totfact>
</mgrwt>
</event>
<event>
 5    0  0.1531977E+001  0.2998399E+03  0.7546771E-02  0.1085321E+00
         21   -1    0    0  503  501  0.00000000000E+00  0.00000000000E+00  0.40048292298E+02  0.40048292298E+02  0.00000000000E+00 0.  1.
         21   -1    0    0  504  502 -0.00000000000E+00 -0.00000000000E+00 -0.29191502204E+04  0.29191502204E+04  0.00000000000E+00 0.  1.
         25    1    1    2    0    0  0.25767549549E+03  0.14627158010E+03 -0.11282550442E+04  0.11731907265E+04  0.12500000000E+03 0.  0.
         21    1    1    2  503  502 -0.49743520260E+02 -0.14925008113E+01 -0.81349794477E+03  0.81501874304E+03  0.00000000000E+00 0.  1.
         21    1    1    2  504  501 -0.20793197523E+03 -0.14477907929E+03 -0.93734893921E+03  0.97098904317E+03  0.00000000000E+00 0.  1.
<mgrwt>
<rscale>  4 0.29983985E+03</rscale>
<asrwt>0</asrwt>
<pdfrwt beam="1">  1       21 0.61612742E-02 0.29983985E+03</pdfrwt>
<pdfrwt beam="2">  1       21 0.44910015E+00 0.29983985E+03</pdfrwt>
<totfact> 0.69312569E+02</totfact>
</mgrwt>
</event>
<event>
 5    0  0.1531977E+001  0.1840355E+03  0.7546771E-02  0.1163954E+00
         21   -1    0    0  502  501  0.00000000000E+00  0.00000000000E+00  0.34409146472E+03  0.34409146472E+03  0.00000000000E+00 0. -1.
         21   -1    0    0  504  502 -0.00000000000E+00 -0.00000000000E+00 -0.35905058185E+03  0.35905058185E+03  0.00000000000E+00 0.  1.
         25    1    1    2    0    0  0.38646762411E+01  0.21710207744E+03  0.19721062657E+02  0.25132084685E+03  0.12500000000E+03 0.  0.
         21    1    1    2  503  501  0.12579240739E+02 -0.12131341361E+03  0.17927348314E+03  0.21682749682E+03  0.00000000000E+00 0. -1.
         21    1    1    2  504  503 -0.16443916980E+02 -0.95788663830E+02 -0.21395366293E+03  0.23499370290E+03  0.00000000000E+00 0.  1.
<mgrwt>
<rscale>  4 0.18403549E+03</rscale>
<asrwt>0</asrwt>
<pdfrwt beam="1">  1       21 0.52937148E-01 0.18403549E+03</pdfrwt>
<pdfrwt beam="2">  1       21 0.55238551E-01 0.18403549E+03</pdfrwt>
<totfact> 0.10511687E+04</totfact>
</mgrwt>
</event>
<event>
 5    0  0.1531977E+001  0.2860430E+03  0.7546771E-02  0.1092433E+00
         21   -1    0    0  502  501  0.00000000000E+00  0.00000000000E+00  0.40299011309E+03  0.40299011309E+03  0.00000000000E+00 0. -1.
         21   -1    0    0  504  502 -0.00000000000E+00 -0.00000000000E+00 -0.93227765469E+03  0.93227765469E+03  0.00000000000E+00 0. -1.
         25    1    1    2    0    0  0.16335689789E+03  0.21099687160E+03  0.29142856281E+03  0.41444030105E+03  0.12500000000E+03 0.  0.
         21    1    1    2  503  501 -0.14511955245E+03 -0.16468617575E+03 -0.19643066081E+03  0.29456107260E+03  0.00000000000E+00 0. -1.
         21    1    1    2  504  503 -0.18237345434E+02 -0.46310695854E+02 -0.62428544360E+03  0.62626639412E+03  0.00000000000E+00 0. -1.
<mgrwt>
<rscale>  4 0.28604297E+03</rscale>
<asrwt>0</asrwt>
<pdfrwt beam="1">  1       21 0.61998480E-01 0.28604297E+03</pdfrwt>
<pdfrwt beam="2">  1       21 0.14342733E+00 0.28604297E+03</pdfrwt>
<totfact> 0.74688375E+02</totfact>
</mgrwt>
</event>
<event>
 5    0  0.1531977E+001  0.2674471E+03  0.7546771E-02  0.1102750E+00
         21   -1    0    0  502  501  0.00000000000E+00  0.00000000000E+00  0.17443367169E+03  0.17443367169E+03  0.00000000000E+00 0.  1.
         21   -1    0    0  504  502 -0.00000000000E+00 -0.00000000000E+00 -0.47288492412E+03  0.47288492412E+03  0.00000000000E+00 0.  1.
         25    1    1    2    0    0  0.18521000079E+03 -0.12922744770E+03 -0.16298923590E+03  0.30527523426E+03  0.12500000000E+03 0.  0.
         21    1    1    2  503  501 -0.18691469549E+03  0.15587670694E+03 -0.44723093337E+02  0.24745667546E+03  0.00000000000E+00 0.  1.
         21    1    1    2  504  503  0.17046947009E+01 -0.26649259234E+02 -0.90738923196E+02  0.94586686085E+02  0.00000000000E+00 0. -1.
<mgrwt>
<rscale>  4 0.26744710E+03</rscale>
<asrwt>0</asrwt>
<pdfrwt beam="1">  1       21 0.26835949E-01 0.26744710E+03</pdfrwt>
<pdfrwt beam="2">  1       21 0.72751528E-01 0.26744710E+03</pdfrwt>
<totfact> 0.21637100E+04</totfact>
</mgrwt>
</event>
<event>
 5    0  0.1531977E+001  0.3239701E+03  0.7546771E-02  0.1073837E+00
         21   -1    0    0  503  501  0.00000000000E+00  0.00000000000E+00  0.57194429624E+02  0.57194429624E+02  0.00000000000E+00 0. -1.
         21   -1    0    0  504  502 -0.00000000000E+00 -0.00000000000E+00 -0.20362775863E+04  0.20362775863E+04  0.00000000000E+00 0. -1.
         25    1    1    2    0    0 -0.62099755270E+01  0.27320610409E+03 -0.78733937607E+03  0.84273865001E+03  0.12500000000E+03 0.  0.
         21    1    1    2  503  502 -0.10173024930E+02 -0.31980335445E+03 -0.11102804231E+04  0.11554654014E+04  0.00000000000E+00 0. -1.
         21    1    1    2  504  501  0.16383000458E+02  0.46597250351E+02 -0.81463357534E+02  0.95267964526E+02  0.00000000000E+00 0. -1.
<mgrwt>
<rscale>  4 0.32397007E+03</rscale>
<asrwt>0</asrwt>
<pdfrwt beam="1">  1       21 0.87991442E-02 0.32397007E+03</pdfrwt>
<pdfrwt beam="2">  1       21 0.31327343E+00 0.32397007E+03</pdfrwt>
<totfact> 0.25648769E+03</totfact>
</mgrwt>
</event>
<event>
 5    0  0.1531977E+001  0.3112689E+03  0.7546771E-02  0.1079739E+00
         21   -1    0    0  503  501  0.00000000000E+00  0.00000000000E+00  0.10413323851E+04  0.10413323851E+04  0.00000000000E+00 0.  1.
         21   -1    0    0  504  502 -0.00000000000E+00 -0.00000000000E+00 -0.25751858166E+03  0.25751858166E+03  0.00000000000E+00 0.  1.
         25    1    1    2    0    0  0.20325959082E+03  0.22321628803E+03  0.50862108914E+02  0.33068402838E+03  0.12500000000E+03 0.  0.
         21    1    1    2  503  502 -0.23027355261E+02 -0.59502297912E+01 -0.92641763674E+02  0.95646017698E+02  0.00000000000E+00 0. -1.
         21    1    1    2  504  501 -0.18023223556E+03 -0.21726605823E+03  0.82559345824E+03  0.87252092071E+03  0.00000000000E+00 0.  1.
<mgrwt>
<rscale>  4 0.31126889E+03</rscale>
<asrwt>0</asrwt>
<pdfrwt beam="1">  1       21 0.16020498E+00 0.31126889E+03</pdfrwt>
<pdfrwt beam="2">  1       21 0.39618244E-01 0.31126889E+03</pdfrwt>
<totfact> 0.14011159E+03</totfact>
</mgrwt>
</event>
<event>
 5    0  0.1531977E+001  0.3452491E+03  0.7546771E-02  0.1064582E+00
         21   -1    0    0  503  501  0.00000000000E+00  0.00000000000E+00  0.16306425779E+04  0.16306425779E+04  0.00000000000E+00 0.  1.
         21   -1    0    0  504  502 -0.00000000000E+00 -0.00000000000E+00 -0.49806140471E+03  0.49806140471E+03  0.00000000000E+00 0.  1.
         25    1    1    2    0    0 -0.10951244390E+03 -0.24279476652E+03 -0.34996133280E+03  0.45720915179E+03  0.12500000000E+03 0.  0.
         21    1    1    2  503  502 -0.52203389741E+02 -0.38178028837E+02 -0.64208979029E+02  0.91134783558E+02  0.00000000000E+00 0.  1.
         21    1    1    2  504  501  0.16171583364E+03  0.28097279536E+03  0.15467514850E+04  0.15803600473E+04  0.00000000000E+00 0.  1.
<mgrwt>
<rscale>  4 0.34524905E+03</rscale>
<asrwt>0</asrwt>
<pdfrwt beam="1">  1       21 0.25086809E+00 0.34524905E+03</pdfrwt>
<pdfrwt beam="2">  1       21 0.76624832E-01 0.34524905E+03</pdfrwt>
<totfact> 0.83821561E+01</totfact>
</mgrwt>
</event>
<event>
 5    0  0.1531977E+001  0.3244946E+03  0.7546771E-02  0.1073599E+00
         21   -1    0    0  502  501  0.00000000000E+00  0.00000000000E+00  0.11855453218E+04  0.11855453218E+04  0.00000000000E+00 0.  1.
         21   -1    0    0  504  502 -0.00000000000E+00 -0.00000000000E+00 -0.38354717775E+03  0.38354717775E+03  0.00000000000E+00 0. -1.
         25    1    1    2    0    0  0.31544019419E+03  0.13437103730E+03  0.85071376957E+03  0.92568731736E+03  0.12500000000E+03 0.  0.
         21    1    1    2  503  501 -0.73846491849E+02  0.38061804456E+02  0.22487555085E+03  0.23973113833E+03  0.00000000000E+00 0.  1.
         21    1    1    2  504  503 -0.24159370234E+03 -0.17243284175E+03 -0.27359117636E+03  0.40367404388E+03  0.00000000000E+00 0. -1.
<mgrwt>
<rscale>  4 0.32449459E+03</rscale>
<asrwt>0</asrwt>
<pdfrwt beam="1">  1       21 0.18239159E+00 0.32449459E+03</pdfrwt>
<pdfrwt beam="2">  1       21 0.59007259E-01 0.32449459E+03</pdfrwt>
<totfact> 0.41699980E+02</totfact>
</mgrwt>
</event>
<event>
 5    0  0.1531977E+001  0.2731580E+03  0.7546771E-02  0.1099486E+00
         21   -1    0    0  502  501  0.00000000000E+00  0.00000000000E+00  0.15334345181E+03  0.15334345181E+03  0.00000000000E+00 0. -1.
         21   -1    0    0  504  502 -0.00000000000E+00 -0.00000000000E+00 -0.10408717621E+04  0.10408717621E+04  0.00000000000E+00 0.  1.
         25    1    1    2    0    0 -0.23049776730E+03 -0.14554633081E+03 -0.55076651540E+02  0.30491210649E+03  0.12500000000E+03 0.  0.
         21    1    1    2  503  501  0.14055664272E+03  0.14325079803E+02 -0.26929018645E+03  0.30410291390E+03  0.00000000000E+00 0. -1.
         21    1    1    2  504  503  0.89941124578E+02  0.13122125100E+03 -0.56316147231E+03  0.58520019352E+03  0.00000000000E+00 0.  1.
<mgrwt>
<rscale>  4 0.27315800E+03</rscale>
<asrwt>0</asrwt>
<pdfrwt beam="1">  1       21 0.23591302E-01 0.27315800E+03</pdfrwt>
<pdfrwt beam="2">  1       21 0.16013411E+00 0.27315800E+03</pdfrwt>
<totfact> 0.39970664E+03</totfact>
</mgrwt>
</event>
<event>
 5    0  0.1531977E+001  0.1886198E+03  0.7546771E-02  0.1159712E+00
         21   -1    0    0  503  501  0.00000000000E+00  0.00000000000E+00  0.12221535123E+04  0.12221535123E+04  0.00000000000E+00 0.  1.
         21   -1    0    0  501  502 -0.00000000000E+00 -0.00000000000E+00 -0.66067047755E+02  0.66067047755E+02  0.00000000000E+00 0.  1.
         25    1    1    2    0    0  0.18382086278E+03  0.10205476302E+03  0.55701844349E+03  0.60835830777E+03  0.12500000000E+03 0.  0.
         21    1    1    2  503  504 -0.12200870157E+03 -0.40334082158E+02  0.75465506584E+02  0.14902350193E+03  0.00000000000E+00 0.  1.
         21    1    1    2  504  502 -0.61812161215E+02 -0.61720680860E+02  0.52360251450E+03  0.53083875039E+03  0.00000000000E+00 0.  1.
<mgrwt>
<rscale>  4 0.18861979E+03</rscale>
<asrwt>0</asrwt>
<pdfrwt beam="1">  1       21 0.18802360E+00 0.18861979E+03</pdfrwt>
<pdfrwt beam="2">  1       21 0.10164162E-01 0.18861979E+03</pdfrwt>
<totfact> 0.12713143E+04</totfact>
</mgrwt>
</event>
<event>
 5    0  0.1531977E+001  0.2220340E+03  0.7546771E-02  0.1132376E+00
         21   -1    0    0  504  501  0.00000000000E+00  0.00000000000E+00  0.86088014848E+03  0.86088014848E+03  0.00000000000E+00 0. -1.
         21   -1    0    0  503  502 -0.00000000000E+00 -0.00000000000E+00 -0.29004427095E+03  0.29004427095E+03  0.00000000000E+00 0.  1.
         25    1    1    2    0    0  0.59179900482E+02  0.25640402116E+03 -0.15461064802E+03  0.32981015019E+03  0.12500000000E+03 0.  0.
         21    1    1    2  503  501 -0.10837875431E+02 -0.83171777854E+02  0.11256593890E+02  0.84626917002E+02  0.00000000000E+00 0. -1.
         21    1    1    2  504  502 -0.48342025051E+02 -0.17323224331E+03  0.71418993167E+03  0.73648735223E+03  0.00000000000E+00 0. -1.
<mgrwt>
<rscale>  4 0.22203401E+03</rscale>
<asrwt>0</asrwt>
<pdfrwt beam="1">  1       21 0.13244310E+00 0.22203401E+03</pdfrwt>
<pdfrwt beam="2">  1       21 0.44622196E-01 0.22203401E+03</pdfrwt>
<totfact> 0.19364232E+03</totfact>
</mgrwt>
</event>
<event>
 5    0  0.1531977E+001  0.2850489E+03  0.7546771E-02  0.1092963E+00
         21   -1    0    0  502  501  0.00000000000E+00  0.00000000000E+00  0.55112617504E+03  0.55112617504E+03  0.00000000000E+00 0.  1.
         21   -1    0    0  504  502 -0.00000000000E+00 -0.00000000000E+00 -0.21593577926E+03  0.21593577926E+03  0.00000000000E+00 0. -1.
         25    1    1    2    0    0  0.14240291608E+03  0.24693643933E+03  0.32061258042E+03  0.44684854515E+03  0.12500000000E+03 0.  0.
         21    1    1    2  503  501 -0.27883937847E+02 -0.26580430714E+02  0.56479076944E+02  0.68366069211E+02  0.00000000000E+00 0.  1.
         21    1    1    2  504  503 -0.11451897823E+03 -0.22035600862E+03 -0.41901261589E+02  0.25184733993E+03  0.00000000000E+00 0. -1.
<mgrwt>
<rscale>  4 0.28504889E+03</rscale>
<asrwt>0</asrwt>
<pdfrwt beam="1">  1       21 0.84788642E-01 0.28504889E+03</pdfrwt>
<pdfrwt beam="2">  1       21 0.33220889E-01 0.28504889E+03</pdfrwt>
<totfact> 0.99602788E+03</totfact>
</mgrwt>
</event>
<event>
 5    0  0.1531977E+001  0.3833613E+03  0.7546771E-02  0.1049698E+00
         21   -1    0    0  502  501  0.00000000000E+00  0.00000000000E+00  0.67396187253E+03  0.67396187253E+03  0.00000000000E+00 0. -1.
         21   -1    0    0  504  502 -0.00000000000E+00 -0.00000000000E+00 -0.25658558646E+03  0.25658558646E+03  0.00000000000E+00 0. -1.
         25    1    1    2    0    0  0.36561274763E+03 -0.21988479132E+02  0.72078795137E+02  0.39367058202E+03  0.12500000000E+03 0.  0.
         21    1    1    2  503  501 -0.35707961278E+03  0.53284497562E+02  0.35146436238E+03  0.50385740599E+03  0.00000000000E+00 0. -1.
         21    1    1    2  504  503 -0.85331348448E+01 -0.31296018430E+02 -0.61668714461E+01  0.33019470972E+02  0.00000000000E+00 0. -1.
<mgrwt>
<rscale>  4 0.38336127E+03</rscale>
<asrwt>0</asrwt>
<pdfrwt beam="1">  1       21 0.10368644E+00 0.38336127E+03</pdfrwt>
<pdfrwt beam="2">  1       21 0.39474706E-01 0.38336127E+03</pdfrwt>
<totfact> 0.41759630E+03</totfact>
</mgrwt>
</event>
<event>
 5    0  0.1531977E+001  0.2331038E+03  0.7546771E-02  0.1124474E+00
         21   -1    0    0  504  501  0.00000000000E+00  0.00000000000E+00  0.10322886111E+03  0.10322886111E+03  0.00000000000E+00 0.  1.
         21   -1    0    0  501  502 -0.00000000000E+00 -0.00000000000E+00 -0.83194274610E+03  0.83194274610E+03  0.00000000000E+00 0.  1.
         25    1    1    2    0    0  0.20019576059E+03  0.54178936697E+02 -0.63651461730E+03  0.68102096721E+03  0.12500000000E+03 0.  0.
         21    1    1    2  503  502 -0.53468947365E+02  0.32027942141E+02 -0.47030876984E+02  0.78080860651E+02  0.00000000000E+00 0.  1.
         21    1    1    2  504  503 -0.14672681323E+03 -0.86206878838E+02 -0.45168390704E+02  0.17606977934E+03  0.00000000000E+00 0.  1.
<mgrwt>
<rscale>  4 0.23310376E+03</rscale>
<asrwt>0</asrwt>
<pdfrwt beam="1">  1       21 0.15881363E-01 0.23310376E+03</pdfrwt>
<pdfrwt beam="2">  1       21 0.12799120E+00 0.23310376E+03</pdfrwt>
<totfact> 0.15484642E+04</totfact>
</mgrwt>
</event>
<event>
 5    0  0.1531977E+001  0.2386119E+03  0.7546771E-02  0.1120721E+00
         21   -1    0    0  504  501  0.00000000000E+00  0.00000000000E+00  0.84412896761E+03  0.84412896761E+03  0.00000000000E+00 0.  1.
         21   -1    0    0  503  502 -0.00000000000E+00 -0.00000000000E+00 -0.12167830600E+03  0.12167830600E+03  0.00000000000E+00 0.  1.
         25    1    1    2    0    0  0.30185545591E+01 -0.27715405053E+03  0.33474150720E+03  0.45221715584E+03  0.12500000000E+03 0.  0.
         21    1    1    2  503  501 -0.13676356325E+02  0.17602061317E+03  0.88337671269E+02  0.19741794029E+03  0.00000000000E+00 0.  1.
         21    1    1    2  504  502  0.10657801766E+02  0.10113343736E+03  0.29937148314E+03  0.31617217748E+03  0.00000000000E+00 0.  1.
<mgrwt>
<rscale>  4 0.23861193E+03</rscale>
<asrwt>0</asrwt>
<pdfrwt beam="1">  1       21 0.12986599E+00 0.23861193E+03</pdfrwt>
<pdfrwt beam="2">  1       21 0.18719740E-01 0.23861193E+03</pdfrwt>
<totfact> 0.10972541E+04</totfact>
</mgrwt>
</event>
<event>
 5    0  0.1531977E+001  0.3787667E+03  0.7546771E-02  0.1051391E+00
         21   -1    0    0  503  501  0.00000000000E+00  0.00000000000E+00  0.54226955773E+03  0.54226955773E+03  0.00000000000E+00 0. -1.
         21   -1    0    0  504  502 -0.00000000000E+00 -0.00000000000E+00 -0.13853300059E+04  0.13853300059E+04  0.00000000000E+00 0. -1.
         25    1    1    2    0    0  0.13083029591E+02  0.51078369507E+03 -0.84383467644E+03  0.99436065388E+03  0.12500000000E+03 0.  0.
         21    1    1    2  503  502  0.53476198209E+02 -0.26738114418E+03 -0.38529290445E+03  0.47202012908E+03  0.00000000000E+00 0. -1.
         21    1    1    2  504  501 -0.66559227800E+02 -0.24340255090E+03  0.38606713278E+03  0.46121878063E+03  0.00000000000E+00 0. -1.
<mgrwt>
<rscale>  4 0.37876674E+03</rscale>
<asrwt>0</asrwt>
<pdfrwt beam="1">  1       21 0.83426085E-01 0.37876674E+03</pdfrwt>
<pdfrwt beam="2">  1       21 0.21312769E+00 0.37876674E+03</pdfrwt>
<totfact> 0.11542718E+02</totfact>
</mgrwt>
</event>
<event>
 5    0  0.1531977E+001  0.2767057E+03  0.7546771E-02  0.1097502E+00
         21   -1    0    0  503  501  0.00000000000E+00  0.00000000000E+00  0.28229047069E+03  0.28229047069E+03  0.00000000000E+00 0.  1.
         21   -1    0    0  504  502 -0.00000000000E+00 -0.00000000000E+00 -0.60867779204E+03  0.60867779204E+03  0.00000000000E+00 0.  1.
         25    1    1    2    0    0 -0.24309823307E+03  0.41637672862E+02 -0.30629247911E+03  0.41263849733E+03  0.12500000000E+03 0.  0.
         21    1    1    2  503  502  0.21433349410E+02  0.71172308975E+02 -0.17166445903E+03  0.18706569040E+03  0.00000000000E+00 0. -1.
         21    1    1    2  504  501  0.22166488366E+03 -0.11280998184E+03  0.15156961678E+03  0.29126407499E+03  0.00000000000E+00 0.  1.
<mgrwt>
<rscale>  4 0.27670571E+03</rscale>
<asrwt>0</asrwt>
<pdfrwt beam="1">  1       21 0.43429304E-01 0.27670571E+03</pdfrwt>
<pdfrwt beam="2">  1       21 0.93642736E-01 0.27670571E+03</pdfrwt>
<totfact> 0.46114331E+03</totfact>
</mgrwt>
</event>
<event>
 5    0  0.1531977E+001  0.3167138E+03  0.7546771E-02  0.1077172E+00
         21   -1    0    0  504  501  0.00000000000E+00  0.00000000000E+00  0.19921015961E+03  0.19921015961E+03  0.00000000000E+00 0.  1.
         21   -1    0    0  503  502 -0.00000000000E+00 -0.00000000000E+00 -0.56423933248E+03  0.56423933248E+03  0.00000000000E+00 0.  1.
         25    1    1    2    0    0  0.28347552909E+03 -0.11388627957E+03 -0.10428155143E+03  0.34616195954E+03  0.12500000000E+03 0.  0.
         21    1    1    2  503  501 -0.25346031610E+03  0.12780707443E+03 -0.25882618715E+03  0.38414551315E+03  0.00000000000E+00 0.  1.
         21    1    1    2  504  502 -0.30015212987E+02 -0.13920794861E+02 -0.19214342881E+01  0.33142019400E+02  0.00000000000E+00 0. -1.
<mgrwt>
<rscale>  4 0.31671379E+03</rscale>
<asrwt>0</asrwt>
<pdfrwt beam="1">  1       21 0.30647717E-01 0.31671379E+03</pdfrwt>
<pdfrwt beam="2">  1       21 0.86806049E-01 0.31671379E+03</pdfrwt>
<totfact> 0.10909931E+04</totfact>
</mgrwt>
</event>
<event>
 5    0  0.1531977E+001  0.2711998E+03  0.7546771E-02  0.1100595E+00
         21   -1    0    0  504  501  0.00000000000E+00  0.00000000000E+00  0.10125300733E+04  0.10125300733E+04  0.00000000000E+00 0. -1.
         21   -1    0    0  503  502 -0.00000000000E+00 -0.00000000000E+00 -0.22475781928E+04  0.22475781928E+04  0.00000000000E+00 0. -1.
         25    1    1    2    0    0 -0.14595669856E+03 -0.39851818572E+03  0.22498703193E+03  0.49635095118E+03  0.12500000000E+03 0.  0.
         21    1    1    2  503  501  0.40755847700E+02  0.20913281152E+03 -0.20883246635E+04  0.20991658991E+04  0.00000000000E+00 0. -1.
         21    1    1    2  504  502  0.10520085086E+03  0.18938537420E+03  0.62828951206E+03  0.66459141580E+03  0.00000000000E+00 0. -1.
<mgrwt>
<rscale>  4 0.27119982E+03</rscale>
<asrwt>0</asrwt>
<pdfrwt beam="1">  1       21 0.15577386E+00 0.27119982E+03</pdfrwt>
<pdfrwt beam="2">  1       21 0.34578126E+00 0.27119982E+03</pdfrwt>
<totfact> 0.43341088E+00</totfact>
</mgrwt>
</event>
<event>
 5    0  0.1531977E+001  0.2689983E+03  0.7546771E-02  0.1101854E+00
         21   -1    0    0  502  501  0.00000000000E+00  0.00000000000E+00  0.27088329153E+03  0.27088329153E+03  0.00000000000E+00 0.  1.
         21   -1    0    0  504  502 -0.00000000000E+00 -0.00000000000E+00 -0.32341813431E+03  0.32341813431E+03  0.00000000000E+00 0.  1.
         25    1    1    2    0    0 -0.22387791718E+03  0.11567770837E+03 -0.78075720879E+02  0.29193059485E+03  0.12500000000E+03 0.  0.
         21    1    1    2  503  501  0.22377250590E+03 -0.42118117879E+02  0.17506628088E+02  0.22837371188E+03  0.00000000000E+00 0.  1.
         21    1    1    2  504  503  0.10541128478E+00 -0.73559590487E+02  0.80342500194E+01  0.73997119116E+02  0.00000000000E+00 0.  1.
<mgrwt>
<rscale>  4 0.26899833E+03</rscale>
<asrwt>0</asrwt>
<pdfrwt beam="1">  1       21 0.41674353E-01 0.26899833E+03</pdfrwt>
<pdfrwt beam="2">  1       21 0.49756636E-01 0.26899833E+03</pdfrwt>
<totfact> 0.20506035E+04</totfact>
</mgrwt>
</event>
<event>
 5    0  0.1531977E+001  0.1847509E+03  0.7546771E-02  0.1163283E+00
         21   -1    0    0  502  501  0.00000000000E+00  0.00000000000E+00  0.85358671967E+03  0.85358671967E+03  0.00000000000E+00 0.  1.
         21   -1    0    0  504  502 -0.00000000000E+00 -0.00000000000E+00 -0.11318836362E+03  0.11318836362E+03  0.00000000000E+00 0.  1.
         25    1    1    2    0    0  0.23722720206E+03 -0.31839695003E+02  0.45582588500E+03  0.52980444412E+03  0.12500000000E+03 0.  0.
         21    1    1    2  503  501 -0.11405035977E+03  0.47063344413E+02  0.28746431925E+03  0.31282291763E+03  0.00000000000E+00 0.  1.
         21    1    1    2  504  503 -0.12317684229E+03 -0.15223649410E+02 -0.28918482033E+01  0.12414772154E+03  0.00000000000E+00 0.  1.
<mgrwt>
<rscale>  4 0.18475092E+03</rscale>
<asrwt>0</asrwt>
<pdfrwt beam="1">  1       21 0.13132103E+00 0.18475092E+03</pdfrwt>
<pdfrwt beam="2">  1       21 0.17413595E-01 0.18475092E+03</pdfrwt>
<totfact> 0.12646041E+04</totfact>
</mgrwt>
</event>
<event>
 5    0  0.1531977E+001  0.3507982E+03  0.7546771E-02  0.1063269E+00
         21   -1    0    0  502  501  0.00000000000E+00  0.00000000000E+00  0.15063701293E+04  0.15063701293E+04  0.00000000000E+00 0.  1.
         21   -1    0    0  504  502 -0.00000000000E+00 -0.00000000000E+00 -0.79729155498E+02  0.79729155498E+02  0.00000000000E+00 0.  1.
         25    1    1    2    0    0 -0.12755435351E+03  0.29089962846E+03  0.74551368939E+03  0.81994412492E+03  0.12500000000E+03 0.  0.
         21    1    1    2  503  501  0.25518880827E+02 -0.11610183765E+03  0.41570346376E+03  0.43236584020E+03  0.00000000000E+00 0.  1.
         21    1    1    2  504  503  0.10203547268E+03 -0.17479779081E+03  0.26542382062E+03  0.33378931965E+03  0.00000000000E+00 0.  1.
<mgrwt>
<rscale>  4 0.34841109E+03</rscale>
<asrwt>0</asrwt>
<pdfrwt beam="1">  1       21 0.23174923E+00 0.35079816E+03</pdfrwt>
<pdfrwt beam="2">  1       21 0.12266025E-01 0.35079816E+03</pdfrwt>
<totfact> 0.42835488E+03</totfact>
</mgrwt>
</event>
<event>
 5    0  0.1531977E+001  0.3881442E+03  0.7546771E-02  0.1047964E+00
         21   -1    0    0  503  501  0.00000000000E+00  0.00000000000E+00  0.27487564989E+03  0.27487564989E+03  0.00000000000E+00 0.  1.
         21   -1    0    0  504  502 -0.00000000000E+00 -0.00000000000E+00 -0.11956018539E+04  0.11956018539E+04  0.00000000000E+00 0.  1.
         25    1    1    2    0    0 -0.15723216800E+03 -0.33212798873E+03 -0.10135691977E+04  0.10853471676E+04  0.12500000000E+03 0.  0.
         21    1    1    2  503  502  0.33592812023E+02  0.26395206806E+02  0.75872009850E+00  0.42728908459E+02  0.00000000000E+00 0.  1.
         21    1    1    2  504  501  0.12363935598E+03  0.30573278193E+03  0.92084273623E+02  0.34240142777E+03  0.00000000000E+00 0.  1.
<mgrwt>
<rscale>  4 0.38814425E+03</rscale>
<asrwt>0</asrwt>
<pdfrwt beam="1">  1       21 0.42288562E-01 0.38814425E+03</pdfrwt>
<pdfrwt beam="2">  1       21 0.18393875E+00 0.38814425E+03</pdfrwt>
<totfact> 0.79192735E+02</totfact>
</mgrwt>
</event>
<event>
 5    0  0.1531977E+001  0.1923081E+03  0.7546771E-02  0.1156396E+00
         21   -1    0    0  502  501  0.00000000000E+00  0.00000000000E+00  0.52994399406E+03  0.52994399406E+03  0.00000000000E+00 0.  1.
         21   -1    0    0  504  502 -0.00000000000E+00 -0.00000000000E+00 -0.71940072092E+03  0.71940072092E+03  0.00000000000E+00 0.  1.
         25    1    1    2    0    0 -0.75886392546E+02  0.18998411100E+03  0.36438146423E+03  0.43617835627E+03  0.12500000000E+03 0.  0.
         21    1    1    2  503  501  0.20376005296E+02 -0.56022648390E+02  0.11460148618E+03  0.12917902058E+03  0.00000000000E+00 0.  1.
         21    1    1    2  504  503  0.55510387249E+02 -0.13396146261E+03 -0.66843967728E+03  0.68398733812E+03  0.00000000000E+00 0.  1.
<mgrwt>
<rscale>  4 0.19230812E+03</rscale>
<asrwt>0</asrwt>
<pdfrwt beam="1">  1       21 0.81529845E-01 0.19230812E+03</pdfrwt>
<pdfrwt beam="2">  1       21 0.11067703E+00 0.19230812E+03</pdfrwt>
<totfact> 0.84819684E+02</totfact>
</mgrwt>
</event>
<event>
 5    0  0.1531977E+001  0.3891948E+03  0.7546771E-02  0.1048706E+00
         21   -1    0    0  503  501  0.00000000000E+00  0.00000000000E+00  0.81874530398E+03  0.81874530398E+03  0.00000000000E+00 0.  1.
         21   -1    0    0  501  502 -0.00000000000E+00 -0.00000000000E+00 -0.18674379679E+03  0.18674379679E+03  0.00000000000E+00 0.  1.
         25    1    1    2    0    0  0.59971931735E+02 -0.35049707719E+03  0.41205828417E+03  0.55844593586E+03  0.12500000000E+03 0.  0.
         21    1    1    2  503  504  0.19625875166E+02  0.17952145106E+03  0.37096134797E+02  0.18436173568E+03  0.00000000000E+00 0.  1.
         21    1    1    2  504  502 -0.79597806901E+02  0.17097562613E+03  0.18284708822E+03  0.26268142924E+03  0.00000000000E+00 0.  1.
<mgrwt>
<rscale>  4 0.38608949E+03</rscale>
<asrwt>0</asrwt>
<pdfrwt beam="1">  1       21 0.12596081E+00 0.38919477E+03</pdfrwt>
<pdfrwt beam="2">  1       21 0.28729815E-01 0.38919477E+03</pdfrwt>
<totfact> 0.48506680E+03</totfact>
</mgrwt>
</event>
<event>
 5    0  0.1531977E+001  0.2400157E+03  0.7546771E-02  0.1119782E+00
         21   -1    0    0  503  501  0.00000000000E+00  0.00000000000E+00  0.65960904590E+02  0.65960904590E+02  0.00000000000E+00 0.  1.
         21   -1    0    0  504  502 -0.00000000000E+00 -0.00000000000E+00 -0.18790843567E+04  0.18790843567E+04  0.00000000000E+00 0. -1.
         25    1    1    2    0    0 -0.19738844004E+03 -0.14671214838E+03 -0.14364716998E+04  0.14627243743E+04  0.12500000000E+03 0.  0.
         21    1    1    2  503  502  0.24161602807E+02  0.47870333010E+02 -0.22627036797E+03  0.23253737604E+03  0.00000000000E+00 0.  1.
         21    1    1    2  504  501  0.17322683723E+03  0.98841815367E+02 -0.15038138433E+03  0.24978351098E+03  0.00000000000E+00 0.  1.
<mgrwt>
<rscale>  4 0.24001573E+03</rscale>
<asrwt>0</asrwt>
<pdfrwt beam="1">  1       21 0.10147830E-01 0.24001573E+03</pdfrwt>
<pdfrwt beam="2">  1       21 0.28908994E+00 0.24001573E+03</pdfrwt>
<totfact> 0.29632420E+03</totfact>
</mgrwt>
</event>
<event>
 5    0  0.1531977E+001  0.1823171E+03  0.7546771E-02  0.1165579E+00
         21   -1    0    0  503  501  0.00000000000E+00  0.00000000000E+00  0.19078991040E+04  0.19078991040E+04  0.00000000000E+00 0. -1.
         21   -1    0    0  504  502 -0.00000000000E+00 -0.00000000000E+00 -0.17287947850E+03  0.17287947850E+03  0.00000000000E+00 0. -1.
         25    1    1    2    0    0  0.23525967061E+03 -0.84607522254E+01 -0.32641852258E+02  0.26853153905E+03  0.12500000000E+03 0.  0.
         21    1    1    2  503  502 -0.10537932463E+03  0.25484788628E+02  0.12965371381E+03  0.16900994650E+03  0.00000000000E+00 0. -1.
         21    1    1    2  504  501 -0.12988034598E+03 -0.17024036402E+02  0.16380077639E+04  0.16432370970E+04  0.00000000000E+00 0. -1.
<mgrwt>
<rscale>  4 0.18231707E+03</rscale>
<asrwt>0</asrwt>
<pdfrwt beam="1">  1       21 0.29352293E+00 0.18231707E+03</pdfrwt>
<pdfrwt beam="2">  1       21 0.26596844E-01 0.18231707E+03</pdfrwt>
<totfact> 0.50804502E+02</totfact>
</mgrwt>
</event>
<event>
 5    0  0.1531977E+001  0.1873540E+03  0.7546771E-02  0.1160870E+00
         21   -1    0    0  503  501  0.00000000000E+00  0.00000000000E+00  0.12484056266E+04  0.12484056266E+04  0.00000000000E+00 0. -1.
         21   -1    0    0  504  502 -0.00000000000E+00 -0.00000000000E+00 -0.10223759190E+04  0.10223759190E+04  0.00000000000E+00 0.  1.
         25    1    1    2    0    0 -0.10132494279E+03 -0.19942561166E+03 -0.22223445005E+02  0.25720847600E+03  0.12500000000E+03 0.  0.
         21    1    1    2  503  502  0.46466715036E+02  0.73819055648E+02 -0.87633388522E+03  0.88066423055E+03  0.00000000000E+00 0.  1.
         21    1    1    2  504  501  0.54858227749E+02  0.12560655601E+03  0.11245870378E+04  0.11329088391E+04  0.00000000000E+00 0. -1.
<mgrwt>
<rscale>  4 0.18735403E+03</rscale>
<asrwt>0</asrwt>
<pdfrwt beam="1">  1       21 0.19206240E+00 0.18735403E+03</pdfrwt>
<pdfrwt beam="2">  1       21 0.15728860E+00 0.18735403E+03</pdfrwt>
<totfact> 0.40190500E+01</totfact>
</mgrwt>
</event>
<event>
 5    0  0.1531977E+001  0.3694252E+03  0.7546771E-02  0.1054913E+00
         21   -1    0    0  503  501  0.00000000000E+00  0.00000000000E+00  0.31040721652E+03  0.31040721652E+03  0.00000000000E+00 0. -1.
         21   -1    0    0  504  502 -0.00000000000E+00 -0.00000000000E+00 -0.58486047332E+03  0.58486047332E+03  0.00000000000E+00 0. -1.
         25    1    1    2    0    0 -0.23775366833E+03  0.26140104217E+03  0.48812323205E+02  0.37797480677E+03  0.12500000000E+03 0.  0.
         21    1    1    2  503  502  0.25632808969E+03 -0.23252690086E+03 -0.33435562609E+03  0.48121360526E+03  0.00000000000E+00 0. -1.
         21    1    1    2  504  501 -0.18574421361E+02 -0.28874141312E+02  0.11090046092E+02  0.36079277816E+02  0.00000000000E+00 0. -1.
<mgrwt>
<rscale>  4 0.36942524E+03</rscale>
<asrwt>0</asrwt>
<pdfrwt beam="1">  1       21 0.47754957E-01 0.36942524E+03</pdfrwt>
<pdfrwt beam="2">  1       21 0.89978533E-01 0.36942524E+03</pdfrwt>
<totfact> 0.39738907E+03</totfact>
</mgrwt>
</event>
<event>
 5    0  0.1531977E+001  0.1982661E+03  0.7546771E-02  0.1151210E+00
         21   -1    0    0  502  501  0.00000000000E+00  0.00000000000E+00  0.30361357390E+02  0.30361357390E+02  0.00000000000E+00 0.  1.
         21   -1    0    0  504  502 -0.00000000000E+00 -0.00000000000E+00 -0.19519472189E+04  0.19519472189E+04  0.00000000000E+00 0.  1.
         25    1    1    2    0    0 -0.50650368245E+02  0.19444907744E+03 -0.75398972184E+03  0.79025401243E+03  0.12500000000E+03 0.  0.
         21    1    1    2  503  501  0.17768453827E+02 -0.56662806073E+02 -0.10992548456E+03  0.12494000039E+03  0.00000000000E+00 0.  1.
         21    1    1    2  504  503  0.32881914418E+02 -0.13778627137E+03 -0.10576706551E+04  0.10671145635E+04  0.00000000000E+00 0.  1.
<mgrwt>
<rscale>  4 0.19826611E+03</rscale>
<asrwt>0</asrwt>
<pdfrwt beam="1">  1       21 0.46709780E-02 0.19826611E+03</pdfrwt>
<pdfrwt beam="2">  1       21 0.30029957E+00 0.19826611E+03</pdfrwt>
<totfact> 0.10201391E+04</totfact>
</mgrwt>
</event>
<event>
 5    0  0.1531977E+001  0.3386298E+03  0.7546771E-02  0.1067381E+00
         21   -1    0    0  502  501  0.00000000000E+00  0.00000000000E+00  0.11135013671E+04  0.11135013671E+04  0.00000000000E+00 0. -1.
         21   -1    0    0  504  502 -0.00000000000E+00 -0.00000000000E+00 -0.14198376233E+03  0.14198376233E+03  0.00000000000E+00 0.  1.
         25    1    1    2    0    0  0.12007278641E+03  0.31002663920E+03  0.26170128424E+03  0.44118766214E+03  0.12500000000E+03 0.  0.
         21    1    1    2  503  501 -0.11926957054E+03 -0.28451794820E+03  0.72263815585E+03  0.78573634102E+03  0.00000000000E+00 0. -1.
         21    1    1    2  504  503 -0.80321586748E+00 -0.25508690999E+02 -0.12821835327E+02  0.28561126262E+02  0.00000000000E+00 0. -1.
<mgrwt>
<rscale>  4 0.33862982E+03</rscale>
<asrwt>0</asrwt>
<pdfrwt beam="1">  1       21 0.17130790E+00 0.33862982E+03</pdfrwt>
<pdfrwt beam="2">  1       21 0.21843657E-01 0.33862982E+03</pdfrwt>
<totfact> 0.36977109E+03</totfact>
</mgrwt>
</event>
<event>
 5    0  0.1531977E+001  0.2632778E+03  0.7546771E-02  0.1105190E+00
         21   -1    0    0  504  501  0.00000000000E+00  0.00000000000E+00  0.51116750248E+03  0.51116750248E+03  0.00000000000E+00 0.  1.
         21   -1    0    0  503  502 -0.00000000000E+00 -0.00000000000E+00 -0.15614075247E+03  0.15614075247E+03  0.00000000000E+00 0.  1.
         25    1    1    2    0    0  0.20362164253E+03 -0.94903110624E+02  0.51412679462E+02  0.26217672918E+03  0.12500000000E+03 0.  0.
         21    1    1    2  503  501 -0.22247881954E+03  0.10498180778E+03  0.26972505712E+03  0.36506110660E+03  0.00000000000E+00 0.  1.
         21    1    1    2  504  502  0.18857177011E+02 -0.10078697155E+02  0.33889013435E+02  0.40070419174E+02  0.00000000000E+00 0. -1.
<mgrwt>
<rscale>  4 0.26327779E+03</rscale>
<asrwt>0</asrwt>
<pdfrwt beam="1">  1       21 0.78641153E-01 0.26327779E+03</pdfrwt>
<pdfrwt beam="2">  1       21 0.24021654E-01 0.26327779E+03</pdfrwt>
<totfact> 0.22514764E+04</totfact>
</mgrwt>
</event>
<event>
 5    0  0.1531977E+001  0.2883371E+03  0.7546771E-02  0.1091221E+00
         21   -1    0    0  502  501  0.00000000000E+00  0.00000000000E+00  0.42120992702E+03  0.42120992702E+03  0.00000000000E+00 0.  1.
         21   -1    0    0  504  502 -0.00000000000E+00 -0.00000000000E+00 -0.57070631778E+03  0.57070631778E+03  0.00000000000E+00 0.  1.
         25    1    1    2    0    0  0.16375471068E+03 -0.20115345181E+03  0.25279213668E+03  0.38315425198E+03  0.12500000000E+03 0.  0.
         21    1    1    2  503  501 -0.26000415670E+02 -0.19443299528E+02  0.65744395601E+02  0.73323864223E+02  0.00000000000E+00 0. -1.
         21    1    1    2  504  503 -0.13775429501E+03  0.22059675134E+03 -0.46803292305E+03  0.53543812860E+03  0.00000000000E+00 0.  1.
<mgrwt>
<rscale>  4 0.28833705E+03</rscale>
<asrwt>0</asrwt>
<pdfrwt beam="1">  1       21 0.64801527E-01 0.28833705E+03</pdfrwt>
<pdfrwt beam="2">  1       21 0.87800972E-01 0.28833705E+03</pdfrwt>
<totfact> 0.22748239E+03</totfact>
</mgrwt>
</event>
<event>
 5    0  0.1531977E+001  0.2939311E+03  0.7546771E-02  0.1088314E+00
         21   -1    0    0  503  501  0.00000000000E+00  0.00000000000E+00  0.73456243121E+03  0.73456243121E+03  0.00000000000E+00 0. -1.
         21   -1    0    0  504  502 -0.00000000000E+00 -0.00000000000E+00 -0.16196098918E+03  0.16196098918E+03  0.00000000000E+00 0. -1.
         25    1    1    2    0    0 -0.25950614541E+03  0.75626716187E+02  0.78984369124E+02  0.30810123381E+03  0.12500000000E+03 0.  0.
         21    1    1    2  503  502 -0.14059414617E+01 -0.28591536186E+02  0.58818122291E+00  0.28632124791E+02  0.00000000000E+00 0. -1.
         21    1    1    2  504  501  0.26091208688E+03 -0.47035180001E+02  0.49302889168E+03  0.55979006178E+03  0.00000000000E+00 0. -1.
<mgrwt>
<rscale>  4 0.29393109E+03</rscale>
<asrwt>0</asrwt>
<pdfrwt beam="1">  1       21 0.11300960E+00 0.29393109E+03</pdfrwt>
<pdfrwt beam="2">  1       21 0.24917076E-01 0.29393109E+03</pdfrwt>
<totfact> 0.87711867E+03</totfact>
</mgrwt>
</event>
<event>
 5    0  0.1531977E+001  0.5463751E+03  0.7546771E-02  0.1002336E+00
         21   -1    0    0  504  501  0.00000000000E+00  0.00000000000E+00  0.22110158556E+03  0.22110158556E+03  0.00000000000E+00 0. -1.
         21   -1    0    0  501  502 -0.00000000000E+00 -0.00000000000E+00 -0.17512251942E+04  0.17512251942E+04  0.00000000000E+00 0. -1.
         25    1    1    2    0    0 -0.35842621387E+03  0.38585631448E+03 -0.61945843622E+03  0.82262275705E+03  0.12500000000E+03 0.  0.
         21    1    1    2  503  502  0.45170148369E+03 -0.30282337568E+03 -0.57437470957E+03  0.79097568498E+03  0.00000000000E+00 0. -1.
         21    1    1    2  504  503 -0.93275269823E+02 -0.83032938801E+02 -0.33629046280E+03  0.35872833768E+03  0.00000000000E+00 0.  1.
<mgrwt>
<rscale>  4 0.54637511E+03</rscale>
<asrwt>0</asrwt>
<pdfrwt beam="1">  1       21 0.34015629E-01 0.54637511E+03</pdfrwt>
<pdfrwt beam="2">  1       21 0.26941926E+00 0.54637511E+03</pdfrwt>
<totfact> 0.32482462E+02</totfact>
</mgrwt>
</event>
<event>
 5    0  0.1531977E+001  0.3604181E+03  0.7546771E-02  0.1058418E+00
         21   -1    0    0  502  501  0.00000000000E+00  0.00000000000E+00  0.32921837747E+03  0.32921837747E+03  0.00000000000E+00 0.  1.
         21   -1    0    0  504  502 -0.00000000000E+00 -0.00000000000E+00 -0.61194700124E+03  0.61194700124E+03  0.00000000000E+00 0.  1.
         25    1    1    2    0    0 -0.33745620769E+03  0.26937041721E+02  0.93442562209E+02  0.37277179180E+03  0.12500000000E+03 0.  0.
         21    1    1    2  503  501  0.33937535660E+03  0.46056377867E+02 -0.35287308559E+03  0.49174814401E+03  0.00000000000E+00 0.  1.
         21    1    1    2  504  503 -0.19191489029E+01 -0.72993419588E+02 -0.23298100386E+02  0.76645442899E+02  0.00000000000E+00 0.  1.
<mgrwt>
<rscale>  4 0.36041809E+03</rscale>
<asrwt>0</asrwt>
<pdfrwt beam="1">  1       21 0.50648982E-01 0.36041809E+03</pdfrwt>
<pdfrwt beam="2">  1       21 0.94145692E-01 0.36041809E+03</pdfrwt>
<totfact> 0.31652319E+03</totfact>
</mgrwt>
</event>
<event>
 5    0  0.1531977E+001  0.1720375E+03  0.7546771E-02  0.1175740E+00
         21   -1    0    0  502  501  0.00000000000E+00  0.00000000000E+00  0.21737241829E+03  0.21737241829E+03  0.00000000000E+00 0. -1.
         21   -1    0    0  504  502 -0.00000000000E+00 -0.00000000000E+00 -0.41187766968E+03  0.41187766968E+03  0.00000000000E+00 0.  1.
         25    1    1    2    0    0  0.45662369990E+02  0.19511694180E+03 -0.14985577242E+03  0.27970953781E+03  0.12500000000E+03 0.  0.
         21    1    1    2  503  501 -0.64094574470E+02 -0.90481491603E+02  0.11372162269E+03  0.15883205680E+03  0.00000000000E+00 0. -1.
         21    1    1    2  504  503  0.18432204480E+02 -0.10463545020E+03 -0.15837110166E+03  0.19070849337E+03  0.00000000000E+00 0. -1.
<mgrwt>
<rscale>  4 0.17203751E+03</rscale>
<asrwt>0</asrwt>
<pdfrwt beam="1">  1       21 0.33441910E-01 0.17203751E+03</pdfrwt>
<pdfrwt beam="2">  1       21 0.63365795E-01 0.17203751E+03</pdfrwt>
<totfact> 0.20086968E+04</totfact>
</mgrwt>
</event>
<event>
 5    0  0.1531977E+001  0.2832175E+03  0.7546771E-02  0.1093944E+00
         21   -1    0    0  503  501  0.00000000000E+00  0.00000000000E+00  0.70581736529E+03  0.70581736529E+03  0.00000000000E+00 0.  1.
         21   -1    0    0  504  502 -0.00000000000E+00 -0.00000000000E+00 -0.15826634055E+03  0.15826634055E+03  0.00000000000E+00 0. -1.
         25    1    1    2    0    0 -0.20214554945E+03 -0.15402700073E+03  0.52693459438E+03  0.59822421121E+03  0.12500000000E+03 0.  0.
         21    1    1    2  503  502  0.16969616958E+03  0.13422155990E+03 -0.10670753053E+02  0.21662428785E+03  0.00000000000E+00 0. -1.
         21    1    1    2  504  501  0.32449379871E+02  0.19805440829E+02  0.31287183409E+02  0.49235206774E+02  0.00000000000E+00 0.  1.
<mgrwt>
<rscale>  4 0.28321748E+03</rscale>
<asrwt>0</asrwt>
<pdfrwt beam="1">  1       21 0.10858729E+00 0.28321748E+03</pdfrwt>
<pdfrwt beam="2">  1       21 0.24348668E-01 0.28321748E+03</pdfrwt>
<totfact> 0.10165829E+04</totfact>
</mgrwt>
</event>
