<event>
 5    0  0.1702508E-001  0.2685038E+03  0.7546771E-02  0.1102139E+00
         21   -1    0    0  503  502  0.00000000000E+00  0.00000000000E+00  0.75056201436E+03  0.75056201436E+03  0.00000000000E+00 0. -1.
         21   -1    0    0  501  503 -0.00000000000E+00 -0.00000000000E+00 -0.45236507609E+03  0.45236507609E+03  0.00000000000E+00 0. -1.
         25    1    1    2    0    0  0.23232383368E+03 -0.61028715260E+02  0.65364080162E+03  0.70750983409E+03  0.12500000000E+03 0.  0.
          3    1    1    2  501    0 -0.21002099897E+02 -0.36959101702E+01 -0.24934970851E+03  0.25025991506E+03  0.00000000000E+00 0.  1.
         -3    1    1    2    0  502 -0.21132173378E+03  0.64724625431E+02 -0.10609415485E+03  0.24515734131E+03  0.00000000000E+00 0. -1.
<mgrwt>
<rscale>  4 0.26850380E+03</rscale>
<asrwt>0</asrwt>
<pdfrwt beam="1">  1       21 0.11547108E+00 0.26850380E+03</pdfrwt>
<pdfrwt beam="2">  1       21 0.69594627E-01 0.26850380E+03</pdfrwt>
<totfact> 0.10200702E+03</totfact>
</mgrwt>
</event>
<event>
 5    0  0.1702508E-001  0.2650178E+03  0.7546771E-02  0.1104165E+00
         21   -1    0    0  503  502  0.00000000000E+00  0.00000000000E+00  0.22278604836E+04  0.22278604836E+04  0.00000000000E+00 0. -1.
         21   -1    0    0  501  503 -0.00000000000E+00 -0.00000000000E+00 -0.13873292160E+03  0.13873292160E+03  0.00000000000E+00 0. -1.
         25    1    1    2    0    0 -0.12962759173E+03 -0.19296962417E+03  0.19723101489E+04  0.19898926885E+04  0.12500000000E+03 0.  0.
          3    1    1    2  501    0  0.35263109864E+02 -0.35151256518E+02 -0.56317953702E+02  0.75171867485E+02  0.00000000000E+00 0.  1.
         -3    1    1    2    0  502  0.94364481869E+02  0.22812088069E+03  0.17313536678E+03  0.30152884916E+03  0.00000000000E+00 0. -1.
<mgrwt>
<rscale>  4 0.26501779E+03</rscale>
<asrwt>0</asrwt>
<pdfrwt beam="1">  1       21 0.34274774E+00 0.26501779E+03</pdfrwt>
<pdfrwt beam="2">  1       21 0.21343528E-01 0.26501779E+03</pdfrwt>
<totfact> 0.35809892E+02</totfact>
</mgrwt>
</event>
<event>
 5    0  0.1702508E-001  0.4906292E+03  0.7546771E-02  0.1016254E+00
         21   -1    0    0  503  502  0.00000000000E+00  0.00000000000E+00  0.12754077940E+04  0.12754077940E+04  0.00000000000E+00 0. -1.
         21   -1    0    0  501  503 -0.00000000000E+00 -0.00000000000E+00 -0.72731953212E+03  0.72731953212E+03  0.00000000000E+00 0.  1.
         25    1    1    2    0    0  0.19331797221E+03  0.39922106043E+03  0.38292622073E+03  0.59917174832E+03  0.12500000000E+03 0.  0.
          1    1    1    2  501    0 -0.21685676073E+02  0.68322137250E+02 -0.53751419418E+03  0.54227270992E+03  0.00000000000E+00 0.  1.
         -1    1    1    2    0  502 -0.17163229614E+03 -0.46754319768E+03  0.70267623530E+03  0.86128286783E+03  0.00000000000E+00 0. -1.
<mgrwt>
<rscale>  4 0.49062924E+03</rscale>
<asrwt>0</asrwt>
<pdfrwt beam="1">  1       21 0.19621658E+00 0.49062924E+03</pdfrwt>
<pdfrwt beam="2">  1       21 0.11189531E+00 0.49062924E+03</pdfrwt>
<totfact> 0.68685573E+01</totfact>
</mgrwt>
</event>
<event>
 5    0  0.1702508E-001  0.5293180E+03  0.7546771E-02  0.1006398E+00
         21   -1    0    0  503  502  0.00000000000E+00  0.00000000000E+00  0.16178291539E+03  0.16178291539E+03  0.00000000000E+00 0. -1.
         21   -1    0    0  501  503 -0.00000000000E+00 -0.00000000000E+00 -0.32054266207E+04  0.32054266207E+04  0.00000000000E+00 0. -1.
         25    1    1    2    0    0 -0.37617286138E+03  0.34297327319E+03 -0.91424146459E+03  0.10538496778E+04  0.12500000000E+03 0.  0.
          1    1    1    2  501    0 -0.21900396168E+02 -0.10753766324E+02 -0.14897964379E+04  0.14899962071E+04  0.00000000000E+00 0.  1.
         -1    1    1    2    0  502  0.39807325754E+03 -0.33221950687E+03 -0.63960580279E+03  0.82336365118E+03  0.00000000000E+00 0. -1.
<mgrwt>
<rscale>  4 0.52931795E+03</rscale>
<asrwt>0</asrwt>
<pdfrwt beam="1">  1       21 0.24889681E-01 0.52931795E+03</pdfrwt>
<pdfrwt beam="2">  1       21 0.49314253E+00 0.52931795E+03</pdfrwt>
<totfact> 0.22303251E+01</totfact>
</mgrwt>
</event>
<event>
 5    0  0.1702508E-001  0.2696379E+03  0.7546771E-02  0.1101487E+00
         21   -1    0    0  503  502  0.00000000000E+00  0.00000000000E+00  0.33991058926E+03  0.33991058926E+03  0.00000000000E+00 0.  1.
         21   -1    0    0  501  503 -0.00000000000E+00 -0.00000000000E+00 -0.54311892182E+03  0.54311892182E+03  0.00000000000E+00 0. -1.
         25    1    1    2    0    0  0.22093461855E+03 -0.87540309381E+02 -0.23312994229E+03  0.35559806162E+03  0.12500000000E+03 0.  0.
          2    1    1    2  501    0 -0.22952860692E+03  0.67615936472E+02  0.22660608494E+03  0.32955365874E+03  0.00000000000E+00 0.  1.
         -2    1    1    2    0  502  0.85939883675E+01  0.19924372909E+02 -0.19668447521E+03  0.19787779072E+03  0.00000000000E+00 0. -1.
<mgrwt>
<rscale>  4 0.26963785E+03</rscale>
<asrwt>0</asrwt>
<pdfrwt beam="1">  1       21 0.52293938E-01 0.26963785E+03</pdfrwt>
<pdfrwt beam="2">  1       21 0.83556755E-01 0.26963785E+03</pdfrwt>
<totfact> 0.40965470E+03</totfact>
</mgrwt>
</event>
<event>
 5    0  0.1702508E-001  0.2839425E+03  0.7546771E-02  0.1093555E+00
         21   -1    0    0  503  502  0.00000000000E+00  0.00000000000E+00  0.41040743187E+03  0.41040743187E+03  0.00000000000E+00 0. -1.
         21   -1    0    0  501  503 -0.00000000000E+00 -0.00000000000E+00 -0.45321532205E+03  0.45321532205E+03  0.00000000000E+00 0.  1.
         25    1    1    2    0    0  0.90740462188E+02  0.20381764564E+03  0.15432423257E+02  0.25620035878E+03  0.12500000000E+03 0.  0.
          2    1    1    2  501    0  0.31020439362E+02  0.40705917258E+02 -0.26179992539E+03  0.26675539412E+03  0.00000000000E+00 0.  1.
         -2    1    1    2    0  502 -0.12176090155E+03 -0.24452356290E+03  0.20355961196E+03  0.34066700101E+03  0.00000000000E+00 0. -1.
<mgrwt>
<rscale>  4 0.28394249E+03</rscale>
<asrwt>0</asrwt>
<pdfrwt beam="1">  1       21 0.63139605E-01 0.28394249E+03</pdfrwt>
<pdfrwt beam="2">  1       21 0.69725434E-01 0.28394249E+03</pdfrwt>
<totfact> 0.40790256E+03</totfact>
</mgrwt>
</event>
<event>
 5    0  0.1702508E-001  0.2599896E+03  0.7546771E-02  0.1107149E+00
         21   -1    0    0  503  502  0.00000000000E+00  0.00000000000E+00  0.42446598242E+03  0.42446598242E+03  0.00000000000E+00 0.  1.
         21   -1    0    0  501  503 -0.00000000000E+00 -0.00000000000E+00 -0.65938302654E+03  0.65938302654E+03  0.00000000000E+00 0. -1.
         25    1    1    2    0    0 -0.10120571001E+03 -0.19671007162E+03  0.11798278179E+03  0.28014707711E+03  0.12500000000E+03 0.  0.
          2    1    1    2  501    0  0.15699341444E+02  0.24167794896E+03  0.15444414305E+03  0.28724152495E+03  0.00000000000E+00 0.  1.
         -2    1    1    2    0  502  0.85506368564E+02 -0.44967877338E+02 -0.50734396895E+03  0.51646040690E+03  0.00000000000E+00 0. -1.
<mgrwt>
<rscale>  4 0.25998957E+03</rscale>
<asrwt>0</asrwt>
<pdfrwt beam="1">  1       21 0.65302459E-01 0.25998957E+03</pdfrwt>
<pdfrwt beam="2">  1       21 0.10144354E+00 0.25998957E+03</pdfrwt>
<totfact> 0.16196154E+03</totfact>
</mgrwt>
</event>
<event>
 5    0  0.1702508E-001  0.2841378E+03  0.7546771E-02  0.1093450E+00
         21   -1    0    0  503  502  0.00000000000E+00  0.00000000000E+00  0.81908820472E+03  0.81908820472E+03  0.00000000000E+00 0.  1.
         21   -1    0    0  501  503 -0.00000000000E+00 -0.00000000000E+00 -0.38221490369E+03  0.38221490369E+03  0.00000000000E+00 0.  1.
         25    1    1    2    0    0 -0.20924628622E+03  0.14582719368E+03  0.58447564668E+03  0.64983564097E+03  0.12500000000E+03 0.  0.
          4    1    1    2  501    0  0.22689396065E+03 -0.12028155043E+03  0.11901908633E+03  0.28304427863E+03  0.00000000000E+00 0. -1.
         -4    1    1    2    0  502 -0.17647674429E+02 -0.25545643245E+02 -0.26662143198E+03  0.26842318881E+03  0.00000000000E+00 0.  1.
<mgrwt>
<rscale>  4 0.28413782E+03</rscale>
<asrwt>0</asrwt>
<pdfrwt beam="1">  1       21 0.12601357E+00 0.28413782E+03</pdfrwt>
<pdfrwt beam="2">  1       21 0.58802293E-01 0.28413782E+03</pdfrwt>
<totfact> 0.11722614E+03</totfact>
</mgrwt>
</event>
<event>
 5    0  0.1702508E-001  0.2494947E+03  0.7546771E-02  0.1113625E+00
         21   -1    0    0  503  502  0.00000000000E+00  0.00000000000E+00  0.28675932096E+03  0.28675932096E+03  0.00000000000E+00 0. -1.
         21   -1    0    0  501  503 -0.00000000000E+00 -0.00000000000E+00 -0.22265338425E+03  0.22265338425E+03  0.00000000000E+00 0. -1.
         25    1    1    2    0    0  0.15357338592E+03 -0.15737887212E+03  0.59666977861E+02  0.25988082365E+03  0.12500000000E+03 0.  0.
          2    1    1    2  501    0 -0.17183941643E+03  0.12637061889E+03  0.73156673223E+01  0.21342876410E+03  0.00000000000E+00 0. -1.
         -2    1    1    2    0  502  0.18266030510E+02  0.31008253222E+02 -0.28767084709E+01  0.36103117457E+02  0.00000000000E+00 0.  1.
<mgrwt>
<rscale>  4 0.24949470E+03</rscale>
<asrwt>0</asrwt>
<pdfrwt beam="1">  1       21 0.44116819E-01 0.24949470E+03</pdfrwt>
<pdfrwt beam="2">  1       21 0.34254367E-01 0.24949470E+03</pdfrwt>
<totfact> 0.39461884E+04</totfact>
</mgrwt>
</event>
<event>
 5    0  0.1702508E-001  0.4576117E+03  0.7546771E-02  0.1025476E+00
         21   -1    0    0  503  502  0.00000000000E+00  0.00000000000E+00  0.43344971185E+03  0.43344971185E+03  0.00000000000E+00 0. -1.
         21   -1    0    0  501  503 -0.00000000000E+00 -0.00000000000E+00 -0.12059165845E+04  0.12059165845E+04  0.00000000000E+00 0.  1.
         25    1    1    2    0    0  0.36927387318E+03 -0.23436161199E+03  0.19138797078E+03  0.49350067269E+03  0.12500000000E+03 0.  0.
          4    1    1    2  501    0  0.89173480854E+02  0.11209273841E+03 -0.18663191272E+03  0.23526190201E+03  0.00000000000E+00 0. -1.
         -4    1    1    2    0  502 -0.45844735403E+03  0.12226887358E+03 -0.77722293070E+03  0.91060372164E+03  0.00000000000E+00 0.  1.
<mgrwt>
<rscale>  4 0.45761169E+03</rscale>
<asrwt>0</asrwt>
<pdfrwt beam="1">  1       21 0.66684571E-01 0.45761169E+03</pdfrwt>
<pdfrwt beam="2">  1       21 0.18552563E+00 0.45761169E+03</pdfrwt>
<totfact> 0.28012467E+02</totfact>
</mgrwt>
</event>
<event>
 5    0  0.1702508E-001  0.2803623E+03  0.7546771E-02  0.1095491E+00
         21   -1    0    0  503  502  0.00000000000E+00  0.00000000000E+00  0.14846798082E+03  0.14846798082E+03  0.00000000000E+00 0. -1.
         21   -1    0    0  501  503 -0.00000000000E+00 -0.00000000000E+00 -0.84399927251E+03  0.84399927251E+03  0.00000000000E+00 0. -1.
         25    1    1    2    0    0 -0.15715975534E+03 -0.20759164976E+03 -0.62504618527E+02  0.29550856008E+03  0.12500000000E+03 0.  0.
          3    1    1    2  501    0  0.13736321767E+03  0.18286746180E+03 -0.39186546052E+03  0.45372646088E+03  0.00000000000E+00 0. -1.
         -3    1    1    2    0  502  0.19796537664E+02  0.24724187958E+02 -0.24116121265E+03  0.24323223237E+03  0.00000000000E+00 0.  1.
<mgrwt>
<rscale>  4 0.28036230E+03</rscale>
<asrwt>0</asrwt>
<pdfrwt beam="1">  1       21 0.22841228E-01 0.28036230E+03</pdfrwt>
<pdfrwt beam="2">  1       21 0.12984604E+00 0.28036230E+03</pdfrwt>
<totfact> 0.73629605E+03</totfact>
</mgrwt>
</event>
<event>
 5    0  0.1702508E-001  0.2431816E+03  0.7546771E-02  0.1117691E+00
         21   -1    0    0  503  502  0.00000000000E+00  0.00000000000E+00  0.25772595245E+03  0.25772595245E+03  0.00000000000E+00 0. -1.
         21   -1    0    0  501  503 -0.00000000000E+00 -0.00000000000E+00 -0.46928713535E+03  0.46928713535E+03  0.00000000000E+00 0.  1.
         25    1    1    2    0    0  0.41000782277E+02  0.22788952807E+03  0.12536961887E+03  0.29147425699E+03  0.12500000000E+03 0.  0.
          2    1    1    2  501    0  0.46718485871E+02 -0.10835393286E+03 -0.93678136610E+02  0.15066115945E+03  0.00000000000E+00 0. -1.
         -2    1    1    2    0  502 -0.87719268148E+02 -0.11953559521E+03 -0.24325266517E+03  0.28487767135E+03  0.00000000000E+00 0.  1.
<mgrwt>
<rscale>  4 0.24318155E+03</rscale>
<asrwt>0</asrwt>
<pdfrwt beam="1">  1       21 0.39650147E-01 0.24318155E+03</pdfrwt>
<pdfrwt beam="2">  1       21 0.72198020E-01 0.24318155E+03</pdfrwt>
<totfact> 0.10276796E+04</totfact>
</mgrwt>
</event>
<event>
 5    0  0.1702508E-001  0.3027341E+03  0.7546771E-02  0.1083882E+00
         21   -1    0    0  503  502  0.00000000000E+00  0.00000000000E+00  0.30720435715E+03  0.30720435715E+03  0.00000000000E+00 0.  1.
         21   -1    0    0  501  503 -0.00000000000E+00 -0.00000000000E+00 -0.64117179323E+03  0.64117179323E+03  0.00000000000E+00 0.  1.
         25    1    1    2    0    0 -0.75956246374E+02  0.27230483155E+03  0.12829942353E+03  0.33467150271E+03  0.12500000000E+03 0.  0.
          3    1    1    2  501    0  0.64815184516E+02 -0.25233261177E+03 -0.15003843746E+03  0.30063979747E+03  0.00000000000E+00 0.  1.
         -3    1    1    2    0  502  0.11141061857E+02 -0.19972219775E+02 -0.31222842216E+03  0.31306485019E+03  0.00000000000E+00 0. -1.
<mgrwt>
<rscale>  4 0.30273408E+03</rscale>
<asrwt>0</asrwt>
<pdfrwt beam="1">  1       21 0.47262209E-01 0.30273408E+03</pdfrwt>
<pdfrwt beam="2">  1       21 0.98641813E-01 0.30273408E+03</pdfrwt>
<totfact> 0.33706665E+03</totfact>
</mgrwt>
</event>
<event>
 5    0  0.1702508E-001  0.2852954E+03  0.7546771E-02  0.1092831E+00
         21   -1    0    0  503  502  0.00000000000E+00  0.00000000000E+00  0.77309052765E+03  0.77309052765E+03  0.00000000000E+00 0. -1.
         21   -1    0    0  501  503 -0.00000000000E+00 -0.00000000000E+00 -0.37474783067E+03  0.37474783067E+03  0.00000000000E+00 0.  1.
         25    1    1    2    0    0  0.18670305162E+03 -0.17409808837E+03  0.65119507470E+03  0.71052670546E+03  0.12500000000E+03 0.  0.
          3    1    1    2  501    0  0.19608358033E+02  0.83573595840E+01 -0.15297284541E+03  0.15445071900E+03  0.00000000000E+00 0. -1.
         -3    1    1    2    0  502 -0.20631140965E+03  0.16574072878E+03 -0.99879532312E+02  0.28286093386E+03  0.00000000000E+00 0.  1.
<mgrwt>
<rscale>  4 0.28529544E+03</rscale>
<asrwt>0</asrwt>
<pdfrwt beam="1">  1       21 0.11893700E+00 0.28529544E+03</pdfrwt>
<pdfrwt beam="2">  1       21 0.57653513E-01 0.28529544E+03</pdfrwt>
<totfact> 0.14142549E+03</totfact>
</mgrwt>
</event>
<event>
 5    0  0.1702508E-001  0.2625000E+03  0.7546771E-02  0.1105650E+00
         21   -1    0    0  503  502  0.00000000000E+00  0.00000000000E+00  0.39417773434E+03  0.39417773434E+03  0.00000000000E+00 0.  1.
         21   -1    0    0  501  503 -0.00000000000E+00 -0.00000000000E+00 -0.61407259207E+03  0.61407259207E+03  0.00000000000E+00 0. -1.
         25    1    1    2    0    0  0.17345074688E+03  0.15302155953E+03  0.31485121019E+03  0.41019147216E+03  0.12500000000E+03 0.  0.
          2    1    1    2  501    0 -0.15024587958E+03 -0.17178259958E+03 -0.40450517850E+03  0.46444324226E+03  0.00000000000E+00 0. -1.
         -2    1    1    2    0  502 -0.23204867299E+02  0.18761040048E+02 -0.13024088943E+03  0.13361561199E+03  0.00000000000E+00 0.  1.
<mgrwt>
<rscale>  4 0.26250002E+03</rscale>
<asrwt>0</asrwt>
<pdfrwt beam="1">  1       21 0.60642729E-01 0.26250002E+03</pdfrwt>
<pdfrwt beam="2">  1       21 0.94472706E-01 0.26250002E+03</pdfrwt>
<totfact> 0.22509987E+03</totfact>
</mgrwt>
</event>
<event>
 5    0  0.1702508E-001  0.2405914E+03  0.7546771E-02  0.1119400E+00
         21   -1    0    0  503  502  0.00000000000E+00  0.00000000000E+00  0.22787302070E+04  0.22787302070E+04  0.00000000000E+00 0.  1.
         21   -1    0    0  501  503 -0.00000000000E+00 -0.00000000000E+00 -0.54278615035E+02  0.54278615035E+02  0.00000000000E+00 0.  1.
         25    1    1    2    0    0  0.11330788966E+03 -0.17152412738E+03  0.20231073629E+04  0.20373629048E+04  0.12500000000E+03 0.  0.
          4    1    1    2  501    0 -0.24139271642E+02  0.37148350381E+02  0.10022020561E+02  0.45421858918E+02  0.00000000000E+00 0.  1.
         -4    1    1    2    0  502 -0.89168618016E+02  0.13437577700E+03  0.19132220852E+03  0.25022405831E+03  0.00000000000E+00 0. -1.
<mgrwt>
<rscale>  4 0.24059136E+03</rscale>
<asrwt>0</asrwt>
<pdfrwt beam="1">  1       21 0.35057380E+00 0.24059136E+03</pdfrwt>
<pdfrwt beam="2">  1       21 0.83505579E-02 0.24059136E+03</pdfrwt>
<totfact> 0.18198472E+03</totfact>
</mgrwt>
</event>
<event>
 5    0  0.1702508E-001  0.2168671E+03  0.7546771E-02  0.1136241E+00
         21   -1    0    0  503  502  0.00000000000E+00  0.00000000000E+00  0.14586587130E+04  0.14586587130E+04  0.00000000000E+00 0. -1.
         21   -1    0    0  501  503 -0.00000000000E+00 -0.00000000000E+00 -0.10526161725E+03  0.10526161725E+03  0.00000000000E+00 0. -1.
         25    1    1    2    0    0 -0.19814923567E+03  0.35822544632E+02  0.75567929073E+02  0.24876070068E+03  0.12500000000E+03 0.  0.
          2    1    1    2  501    0  0.12871482066E+03 -0.50508124385E+02  0.25673025004E+03  0.29159731990E+03  0.00000000000E+00 0.  1.
         -2    1    1    2    0  502  0.69434415011E+02  0.14685579753E+02  0.10210989166E+04  0.10235623097E+04  0.00000000000E+00 0. -1.
<mgrwt>
<rscale>  4 0.21686713E+03</rscale>
<asrwt>0</asrwt>
<pdfrwt beam="1">  1       21 0.22440902E+00 0.21686713E+03</pdfrwt>
<pdfrwt beam="2">  1       21 0.16194096E-01 0.21686713E+03</pdfrwt>
<totfact> 0.31481070E+03</totfact>
</mgrwt>
</event>
<event>
 5    0  0.1702508E-001  0.2549967E+03  0.7546771E-02  0.1110187E+00
         21   -1    0    0  503  502  0.00000000000E+00  0.00000000000E+00  0.38244950938E+03  0.38244950938E+03  0.00000000000E+00 0. -1.
         21   -1    0    0  501  503 -0.00000000000E+00 -0.00000000000E+00 -0.38085237937E+03  0.38085237937E+03  0.00000000000E+00 0.  1.
         25    1    1    2    0    0  0.19945325422E+03  0.11062389758E+03  0.22966275831E+03  0.34697151164E+03  0.12500000000E+03 0.  0.
          2    1    1    2  501    0 -0.19181344337E+03 -0.87637905364E+02 -0.25614834593E+02  0.21243568266E+03  0.00000000000E+00 0.  1.
         -2    1    1    2    0  502 -0.76398108449E+01 -0.22985992216E+02 -0.20245079371E+03  0.20389469444E+03  0.00000000000E+00 0. -1.
<mgrwt>
<rscale>  4 0.25499670E+03</rscale>
<asrwt>0</asrwt>
<pdfrwt beam="1">  1       21 0.58838386E-01 0.25499670E+03</pdfrwt>
<pdfrwt beam="2">  1       21 0.58592674E-01 0.25499670E+03</pdfrwt>
<totfact> 0.70724895E+03</totfact>
</mgrwt>
</event>
<event>
 5    0  0.1702508E-001  0.6200391E+03  0.7546771E-02  0.9864682E-01
         21   -1    0    0  503  502  0.00000000000E+00  0.00000000000E+00  0.10718848465E+04  0.10718848465E+04  0.00000000000E+00 0. -1.
         21   -1    0    0  501  503 -0.00000000000E+00 -0.00000000000E+00 -0.47916234479E+03  0.47916234479E+03  0.00000000000E+00 0. -1.
         25    1    1    2    0    0  0.43759869586E+03  0.42182591167E+03  0.46983134655E+03  0.77832911585E+03  0.12500000000E+03 0.  0.
          4    1    1    2  501    0  0.12933594230E+02 -0.15298880165E+02 -0.11809919823E+03  0.11978628559E+03  0.00000000000E+00 0.  1.
         -4    1    1    2    0  502 -0.45053229009E+03 -0.40652703150E+03  0.24099035335E+03  0.65293178982E+03  0.00000000000E+00 0. -1.
<mgrwt>
<rscale>  4 0.62003914E+03</rscale>
<asrwt>0</asrwt>
<pdfrwt beam="1">  1       21 0.16490536E+00 0.62003914E+03</pdfrwt>
<pdfrwt beam="2">  1       21 0.73717284E-01 0.62003914E+03</pdfrwt>
<totfact> 0.29373083E+02</totfact>
</mgrwt>
</event>
<event>
 5    0  0.1702508E-001  0.2840766E+03  0.7546771E-02  0.1093483E+00
         21   -1    0    0  503  502  0.00000000000E+00  0.00000000000E+00  0.19948344150E+04  0.19948344150E+04  0.00000000000E+00 0.  1.
         21   -1    0    0  501  503 -0.00000000000E+00 -0.00000000000E+00 -0.13823637475E+03  0.13823637475E+03  0.00000000000E+00 0. -1.
         25    1    1    2    0    0 -0.32805060405E+02 -0.26365660304E+03  0.17963926368E+04  0.18202314363E+04  0.12500000000E+03 0.  0.
          3    1    1    2  501    0  0.62866749139E+02  0.63656768726E+02 -0.25728637179E+02  0.93093367772E+02  0.00000000000E+00 0.  1.
         -3    1    1    2    0  502 -0.30061688734E+02  0.19999983432E+03  0.85934040615E+02  0.21974598561E+03  0.00000000000E+00 0. -1.
<mgrwt>
<rscale>  4 0.28407662E+03</rscale>
<asrwt>0</asrwt>
<pdfrwt beam="1">  1       21 0.30689758E+00 0.28407662E+03</pdfrwt>
<pdfrwt beam="2">  1       21 0.21267136E-01 0.28407662E+03</pdfrwt>
<totfact> 0.57580207E+02</totfact>
</mgrwt>
</event>
<event>
 5    0  0.1702508E-001  0.2485467E+03  0.7546771E-02  0.1114227E+00
         21   -1    0    0  503  502  0.00000000000E+00  0.00000000000E+00  0.39471337160E+03  0.39471337160E+03  0.00000000000E+00 0. -1.
         21   -1    0    0  501  503 -0.00000000000E+00 -0.00000000000E+00 -0.19131048029E+03  0.19131048029E+03  0.00000000000E+00 0.  1.
         25    1    1    2    0    0  0.12573236905E+03 -0.18553539536E+03  0.14047611170E+03  0.29255862578E+03  0.12500000000E+03 0.  0.
          3    1    1    2  501    0 -0.13237910560E+03  0.16008357746E+03  0.11331431529E+03  0.23662441426E+03  0.00000000000E+00 0.  1.
         -3    1    1    2    0  502  0.66467365467E+01  0.25451817898E+02 -0.50387535672E+02  0.56840811853E+02  0.00000000000E+00 0. -1.
<mgrwt>
<rscale>  4 0.24854675E+03</rscale>
<asrwt>0</asrwt>
<pdfrwt beam="1">  1       21 0.60725134E-01 0.24854675E+03</pdfrwt>
<pdfrwt beam="2">  1       21 0.29432382E-01 0.24854675E+03</pdfrwt>
<totfact> 0.27135827E+04</totfact>
</mgrwt>
</event>
<event>
 5    0  0.1702508E-001  0.3340943E+03  0.7546771E-02  0.1069339E+00
         21   -1    0    0  503  502  0.00000000000E+00  0.00000000000E+00  0.38294214353E+03  0.38294214353E+03  0.00000000000E+00 0.  1.
         21   -1    0    0  501  503 -0.00000000000E+00 -0.00000000000E+00 -0.55371048734E+03  0.55371048734E+03  0.00000000000E+00 0.  1.
         25    1    1    2    0    0  0.59594319091E+02  0.28544882467E+03  0.16233336444E+03  0.35638411242E+03  0.12500000000E+03 0.  0.
          1    1    1    2  501    0  0.31782962953E+02  0.85513865643E+02 -0.44746008917E+02  0.10161192482E+03  0.00000000000E+00 0. -1.
         -1    1    1    2    0  502 -0.91377282044E+02 -0.37096269032E+03 -0.28835569933E+03  0.47865659362E+03  0.00000000000E+00 0.  1.
<mgrwt>
<rscale>  4 0.33409431E+03</rscale>
<asrwt>0</asrwt>
<pdfrwt beam="1">  1       21 0.58914176E-01 0.33409431E+03</pdfrwt>
<pdfrwt beam="2">  1       21 0.85186228E-01 0.33409431E+03</pdfrwt>
<totfact> 0.29312400E+03</totfact>
</mgrwt>
</event>
<event>
 5    0  0.1702508E-001  0.2915011E+03  0.7546771E-02  0.1089568E+00
         21   -1    0    0  503  502  0.00000000000E+00  0.00000000000E+00  0.70656618823E+03  0.70656618823E+03  0.00000000000E+00 0. -1.
         21   -1    0    0  501  503 -0.00000000000E+00 -0.00000000000E+00 -0.31653676784E+03  0.31653676784E+03  0.00000000000E+00 0.  1.
         25    1    1    2    0    0 -0.25086106185E+03  0.11889859415E+03  0.41992882002E+03  0.51868426034E+03  0.12500000000E+03 0.  0.
          2    1    1    2  501    0  0.35741332796E+02 -0.13201117546E+01 -0.20183590641E+03  0.20498028851E+03  0.00000000000E+00 0.  1.
         -2    1    1    2    0  502  0.21511972906E+03 -0.11757848239E+03  0.17193650678E+03  0.29943840721E+03  0.00000000000E+00 0. -1.
<mgrwt>
<rscale>  4 0.29150108E+03</rscale>
<asrwt>0</asrwt>
<pdfrwt beam="1">  1       21 0.10870249E+00 0.29150108E+03</pdfrwt>
<pdfrwt beam="2">  1       21 0.48697965E-01 0.29150108E+03</pdfrwt>
<totfact> 0.25176338E+03</totfact>
</mgrwt>
</event>
<event>
 5    0  0.1702508E-001  0.2386388E+03  0.7546771E-02  0.1120703E+00
         21   -1    0    0  503  502  0.00000000000E+00  0.00000000000E+00  0.24710346664E+03  0.24710346664E+03  0.00000000000E+00 0.  1.
         21   -1    0    0  501  503 -0.00000000000E+00 -0.00000000000E+00 -0.83853594605E+03  0.83853594605E+03  0.00000000000E+00 0. -1.
         25    1    1    2    0    0  0.63698176064E+02 -0.19964377061E+03  0.16091688067E+03  0.29229152444E+03  0.12500000000E+03 0.  0.
          1    1    1    2  501    0 -0.50386283260E+02  0.30658027440E+02 -0.37584717358E+03  0.38044682950E+03  0.00000000000E+00 0. -1.
         -1    1    1    2    0  502 -0.13311892804E+02  0.16898574317E+03 -0.37650218649E+03  0.41290105875E+03  0.00000000000E+00 0.  1.
<mgrwt>
<rscale>  4 0.23863881E+03</rscale>
<asrwt>0</asrwt>
<pdfrwt beam="1">  1       21 0.38015917E-01 0.23863881E+03</pdfrwt>
<pdfrwt beam="2">  1       21 0.12900553E+00 0.23863881E+03</pdfrwt>
<totfact> 0.28321418E+03</totfact>
</mgrwt>
</event>
<event>
 5    0  0.1702508E-001  0.4691583E+03  0.7546771E-02  0.1022158E+00
         21   -1    0    0  503  502  0.00000000000E+00  0.00000000000E+00  0.56722740285E+03  0.56722740285E+03  0.00000000000E+00 0.  1.
         21   -1    0    0  501  503 -0.00000000000E+00 -0.00000000000E+00 -0.99467702394E+03  0.99467702394E+03  0.00000000000E+00 0. -1.
         25    1    1    2    0    0  0.47617095394E+03  0.30242347277E+03  0.17905688933E+03  0.60488437232E+03  0.12500000000E+03 0.  0.
          2    1    1    2  501    0 -0.54049914401E+02 -0.19198565201E+03  0.12326925764E+02  0.19982951964E+03  0.00000000000E+00 0.  1.
         -2    1    1    2    0  502 -0.42212103954E+03 -0.11043782077E+03 -0.61883343619E+03  0.75719053482E+03  0.00000000000E+00 0. -1.
<mgrwt>
<rscale>  4 0.46915828E+03</rscale>
<asrwt>0</asrwt>
<pdfrwt beam="1">  1       21 0.87265754E-01 0.46915828E+03</pdfrwt>
<pdfrwt beam="2">  1       21 0.15302723E+00 0.46915828E+03</pdfrwt>
<totfact> 0.26017403E+02</totfact>
</mgrwt>
</event>
<event>
 5    0  0.1702508E-001  0.2613399E+03  0.7546771E-02  0.1106341E+00
         21   -1    0    0  503  502  0.00000000000E+00  0.00000000000E+00  0.64166383819E+03  0.64166383819E+03  0.00000000000E+00 0.  1.
         21   -1    0    0  501  503 -0.00000000000E+00 -0.00000000000E+00 -0.12297636714E+03  0.12297636714E+03  0.00000000000E+00 0. -1.
         25    1    1    2    0    0  0.13457618851E+03 -0.19249450619E+03  0.40554136189E+03  0.48502956779E+03  0.12500000000E+03 0.  0.
          3    1    1    2  501    0 -0.10096124602E+03  0.19698065664E+03  0.10351817492E+03  0.24435745298E+03  0.00000000000E+00 0. -1.
         -3    1    1    2    0  502 -0.33614942486E+02 -0.44861504517E+01  0.96279342261E+01  0.35253184560E+02  0.00000000000E+00 0.  1.
<mgrwt>
<rscale>  4 0.26133995E+03</rscale>
<asrwt>0</asrwt>
<pdfrwt beam="1">  1       21 0.98717512E-01 0.26133995E+03</pdfrwt>
<pdfrwt beam="2">  1       21 0.18919441E-01 0.26133995E+03</pdfrwt>
<totfact> 0.20871575E+04</totfact>
</mgrwt>
</event>
<event>
 5    0  0.1702508E-001  0.2971011E+03  0.7546771E-02  0.1086699E+00
         21   -1    0    0  503  502  0.00000000000E+00  0.00000000000E+00  0.32294675979E+03  0.32294675979E+03  0.00000000000E+00 0.  1.
         21   -1    0    0  501  503 -0.00000000000E+00 -0.00000000000E+00 -0.35770321752E+03  0.35770321752E+03  0.00000000000E+00 0. -1.
         25    1    1    2    0    0 -0.28349868337E+03 -0.34812011266E+01  0.10433865219E+03  0.32694827814E+03  0.12500000000E+03 0.  0.
          4    1    1    2  501    0  0.33316121042E+02  0.22492789841E+02 -0.89263491761E+02  0.97897193409E+02  0.00000000000E+00 0.  1.
         -4    1    1    2    0  502  0.25018256233E+03 -0.19011588715E+02 -0.49831618166E+02  0.25580450576E+03  0.00000000000E+00 0. -1.
<mgrwt>
<rscale>  4 0.29710105E+03</rscale>
<asrwt>0</asrwt>
<pdfrwt beam="1">  1       21 0.49684117E-01 0.29710105E+03</pdfrwt>
<pdfrwt beam="2">  1       21 0.55031264E-01 0.29710105E+03</pdfrwt>
<totfact> 0.11354789E+04</totfact>
</mgrwt>
</event>
<event>
 5    0  0.1702508E-001  0.3193580E+03  0.7546771E-02  0.1075945E+00
         21   -1    0    0  503  502  0.00000000000E+00  0.00000000000E+00  0.47824531269E+03  0.47824531269E+03  0.00000000000E+00 0.  1.
         21   -1    0    0  501  503 -0.00000000000E+00 -0.00000000000E+00 -0.38567245341E+03  0.38567245341E+03  0.00000000000E+00 0. -1.
         25    1    1    2    0    0 -0.20927732617E+03 -0.21067794553E+03  0.31576439408E+03  0.45112564608E+03  0.12500000000E+03 0.  0.
          3    1    1    2  501    0  0.23585628974E+02 -0.49653171582E+01 -0.99708163819E+02  0.10257998928E+03  0.00000000000E+00 0.  1.
         -3    1    1    2    0  502  0.18569169720E+03  0.21564326268E+03 -0.12348337098E+03  0.31021213074E+03  0.00000000000E+00 0. -1.
<mgrwt>
<rscale>  4 0.31935797E+03</rscale>
<asrwt>0</asrwt>
<pdfrwt beam="1">  1       21 0.73576202E-01 0.31935797E+03</pdfrwt>
<pdfrwt beam="2">  1       21 0.59334224E-01 0.31935797E+03</pdfrwt>
<totfact> 0.40653174E+03</totfact>
</mgrwt>
</event>
<event>
 5    0  0.1702508E-001  0.1781992E+03  0.7546771E-02  0.1169557E+00
         21   -1    0    0  503  502  0.00000000000E+00  0.00000000000E+00  0.31045350922E+03  0.31045350922E+03  0.00000000000E+00 0. -1.
         21   -1    0    0  501  503 -0.00000000000E+00 -0.00000000000E+00 -0.36288054862E+03  0.36288054862E+03  0.00000000000E+00 0.  1.
         25    1    1    2    0    0  0.10771143705E+03 -0.17156801314E+03  0.18616674141E+03  0.30219264123E+03  0.12500000000E+03 0.  0.
          4    1    1    2  501    0 -0.64147935855E+02  0.10466338501E+03 -0.26082288699E+03  0.28826716812E+03  0.00000000000E+00 0.  1.
         -4    1    1    2    0  502 -0.43563501196E+02  0.66904628130E+02  0.22229106184E+02  0.82874248494E+02  0.00000000000E+00 0. -1.
<mgrwt>
<rscale>  4 0.17819921E+03</rscale>
<asrwt>0</asrwt>
<pdfrwt beam="1">  1       21 0.47762079E-01 0.17819921E+03</pdfrwt>
<pdfrwt beam="2">  1       21 0.55827776E-01 0.17819921E+03</pdfrwt>
<totfact> 0.12786482E+04</totfact>
</mgrwt>
</event>
