<event>
 5    0  0.1911311E+001  0.3025559E+03  0.7546771E-02  0.1083970E+00
         21   -1    0    0  502  501  0.00000000000E+00  0.00000000000E+00  0.12922912789E+04  0.12922912789E+04  0.00000000000E+00 0.  1.
         21   -1    0    0  504  502 -0.00000000000E+00 -0.00000000000E+00 -0.29820360129E+03  0.29820360129E+03  0.00000000000E+00 0.  1.
         25    1    1    2    0    0 -0.16361297449E+02 -0.30776288826E+03 -0.11009968467E+03  0.35033216810E+03  0.12500000000E+03 0.  0.
         21    1    1    2  503  501  0.34641503261E+02  0.83725348761E+02  0.97838462571E+03  0.98257134275E+03  0.00000000000E+00 0.  1.
         21    1    1    2  504  503 -0.18280205812E+02  0.22403753950E+03  0.12580273657E+03  0.25759136934E+03  0.00000000000E+00 0.  1.
<mgrwt>
<rscale>  4 0.30255586E+03</rscale>
<asrwt>0</asrwt>
<pdfrwt beam="1">  1       21 0.19881404E+00 0.30255586E+03</pdfrwt>
<pdfrwt beam="2">  1       21 0.45877478E-01 0.30255586E+03</pdfrwt>
<totfact> 0.56057072E+02</totfact>
</mgrwt>
</event>
<event>
 5    0  0.1911311E+001  0.2795702E+03  0.7546771E-02  0.1095924E+00
         21   -1    0    0  502  501  0.00000000000E+00  0.00000000000E+00  0.14927789619E+04  0.14927789619E+04  0.00000000000E+00 0.  1.
         21   -1    0    0  504  502 -0.00000000000E+00 -0.00000000000E+00 -0.38343631639E+03  0.38343631639E+03  0.00000000000E+00 0.  1.
         25    1    1    2    0    0 -0.20422943601E+03 -0.20813838419E+03  0.10266725840E+04  0.10745756577E+04  0.12500000000E+03 0.  0.
         21    1    1    2  503  501  0.95495608570E+02  0.18849569003E+03  0.40722943461E+03  0.45878736777E+03  0.00000000000E+00 0.  1.
         21    1    1    2  504  503  0.10873382744E+03  0.19642694166E+02 -0.32455937302E+03  0.34285225284E+03  0.00000000000E+00 0.  1.
<mgrwt>
<rscale>  4 0.27957017E+03</rscale>
<asrwt>0</asrwt>
<pdfrwt beam="1">  1       21 0.22965830E+00 0.27957017E+03</pdfrwt>
<pdfrwt beam="2">  1       21 0.58990203E-01 0.27957017E+03</pdfrwt>
<totfact> 0.21370224E+02</totfact>
</mgrwt>
</event>
<event>
 5    0  0.1911311E+001  0.2325953E+03  0.7546771E-02  0.1124826E+00
         21   -1    0    0  502  501  0.00000000000E+00  0.00000000000E+00  0.80355589568E+02  0.80355589568E+02  0.00000000000E+00 0.  1.
         21   -1    0    0  504  502 -0.00000000000E+00 -0.00000000000E+00 -0.15508110200E+04  0.15508110200E+04  0.00000000000E+00 0.  1.
         25    1    1    2    0    0 -0.19279613552E+03 -0.55209539550E+02 -0.24564276463E+03  0.34085746426E+03  0.12500000000E+03 0.  0.
         21    1    1    2  503  501 -0.35160593179E+01  0.50919378960E+02 -0.12139588677E+01  0.51055063636E+02  0.00000000000E+00 0.  1.
         21    1    1    2  504  503  0.19631219484E+03  0.42901605903E+01 -0.12235987069E+04  0.12392540817E+04  0.00000000000E+00 0.  1.
<mgrwt>
<rscale>  4 0.23259533E+03</rscale>
<asrwt>0</asrwt>
<pdfrwt beam="1">  1       21 0.12362400E-01 0.23259533E+03</pdfrwt>
<pdfrwt beam="2">  1       21 0.23858629E+00 0.23259533E+03</pdfrwt>
<totfact> 0.41591295E+03</totfact>
</mgrwt>
</event>
<event>
 5    0  0.1911311E+001  0.2221840E+03  0.7546771E-02  0.1132265E+00
         21   -1    0    0  502  501  0.00000000000E+00  0.00000000000E+00  0.54801077485E+03  0.54801077485E+03  0.00000000000E+00 0. -1.
         21   -1    0    0  504  502 -0.00000000000E+00 -0.00000000000E+00 -0.27000179152E+03  0.27000179152E+03  0.00000000000E+00 0. -1.
         25    1    1    2    0    0  0.19781695110E+03 -0.47978487736E+02  0.82400373585E+02  0.25268221741E+03  0.12500000000E+03 0.  0.
         21    1    1    2  503  501 -0.31216359978E+02 -0.17208626813E+02  0.33602224536E+03  0.33790760179E+03  0.00000000000E+00 0. -1.
         21    1    1    2  504  503 -0.16660059112E+03  0.65187114549E+02 -0.14041363562E+03  0.22742274717E+03  0.00000000000E+00 0. -1.
<mgrwt>
<rscale>  4 0.22218401E+03</rscale>
<asrwt>0</asrwt>
<pdfrwt beam="1">  1       21 0.84309350E-01 0.22218401E+03</pdfrwt>
<pdfrwt beam="2">  1       21 0.41538737E-01 0.22218401E+03</pdfrwt>
<totfact> 0.66693017E+03</totfact>
</mgrwt>
</event>
<event>
 5    0  0.1911311E+001  0.2803562E+03  0.7546771E-02  0.1095495E+00
         21   -1    0    0  504  501  0.00000000000E+00  0.00000000000E+00  0.94380107430E+02  0.94380107430E+02  0.00000000000E+00 0.  1.
         21   -1    0    0  503  502 -0.00000000000E+00 -0.00000000000E+00 -0.16946041816E+04  0.16946041816E+04  0.00000000000E+00 0.  1.
         25    1    1    2    0    0  0.13269252590E+03 -0.17033360848E+03 -0.64208568718E+03  0.68885402974E+03  0.12500000000E+03 0.  0.
         21    1    1    2  503  501 -0.67774282360E+02  0.29103832443E+03 -0.90512845684E+03  0.95318108616E+03  0.00000000000E+00 0.  1.
         21    1    1    2  504  502 -0.64918243537E+02 -0.12070471595E+03 -0.53009930192E+02  0.14694917317E+03  0.00000000000E+00 0.  1.
<mgrwt>
<rscale>  4 0.28035621E+03</rscale>
<asrwt>0</asrwt>
<pdfrwt beam="1">  1       21 0.14520017E-01 0.28035621E+03</pdfrwt>
<pdfrwt beam="2">  1       21 0.26070832E+00 0.28035621E+03</pdfrwt>
<totfact> 0.22011202E+03</totfact>
</mgrwt>
</event>
