<event>
 5    0  0.1467858E+000  0.4725092E+03  0.7546771E-02  0.1021214E+00
         21   -1    0    0  504  501  0.00000000000E+00  0.00000000000E+00  0.52239746287E+03  0.52239746287E+03  0.00000000000E+00 0. -1.
         21   -1    0    0  501  502 -0.00000000000E+00 -0.00000000000E+00 -0.10726273656E+04  0.10726273656E+04  0.00000000000E+00 0. -1.
         25    1    1    2    0    0 -0.37477808865E+03 -0.26323870352E+03 -0.89485037597E+03  0.10129834284E+04  0.12500000000E+03 0.  0.
         21    1    1    2  503  502  0.35453887529E+03  0.25702692268E+03  0.34954452034E+03  0.56030529604E+03  0.00000000000E+00 0. -1.
         21    1    1    2  504  503  0.20239213354E+02  0.62117808439E+01 -0.49240470583E+01  0.21736104017E+02  0.00000000000E+00 0.  1.
<mgrwt>
<rscale>  4 0.47250924E+03</rscale>
<asrwt>0</asrwt>
<pdfrwt beam="1">  1       21 0.80368841E-01 0.47250924E+03</pdfrwt>
<pdfrwt beam="2">  1       21 0.16501959E+00 0.47250924E+03</pdfrwt>
<totfact> 0.25520424E+02</totfact>
</mgrwt>
</event>
<event>
 5    0  0.1467858E+000  0.2715509E+03  0.7546771E-02  0.1100395E+00
         21   -1    0    0  504  501  0.00000000000E+00  0.00000000000E+00  0.17682788965E+04  0.17682788965E+04  0.00000000000E+00 0.  1.
         21   -1    0    0  501  502 -0.00000000000E+00 -0.00000000000E+00 -0.10871198414E+03  0.10871198414E+03  0.00000000000E+00 0. -1.
         25    1    1    2    0    0 -0.22213821597E+03  0.12763304936E+03  0.13085541409E+03  0.31366179506E+03  0.12500000000E+03 0.  0.
         21    1    1    2  503  502 -0.18545892239E+01 -0.42093377657E+02  0.50366849478E+02  0.65666669400E+02  0.00000000000E+00 0.  1.
         21    1    1    2  504  503  0.22399280520E+03 -0.85539671707E+02  0.14783446488E+04  0.14976624162E+04  0.00000000000E+00 0.  1.
<mgrwt>
<rscale>  4 0.27155088E+03</rscale>
<asrwt>0</asrwt>
<pdfrwt beam="1">  1       21 0.27204289E+00 0.27155088E+03</pdfrwt>
<pdfrwt beam="2">  1       21 0.16724922E-01 0.27155088E+03</pdfrwt>
<totfact> 0.14645802E+03</totfact>
</mgrwt>
</event>
<event>
 5    0  0.1467858E+000  0.2930491E+03  0.7546771E-02  0.1088768E+00
         21   -1    0    0  504  501  0.00000000000E+00  0.00000000000E+00  0.88900628596E+02  0.88900628596E+02  0.00000000000E+00 0.  1.
         21   -1    0    0  501  502 -0.00000000000E+00 -0.00000000000E+00 -0.22145357381E+04  0.22145357381E+04  0.00000000000E+00 0.  1.
         25    1    1    2    0    0  0.69130813547E+02 -0.26005973228E+03 -0.19306314354E+04  0.19532979478E+04  0.12500000000E+03 0.  0.
         21    1    1    2  503  502 -0.91195542583E+02  0.22367284377E+03 -0.13542316753E+03  0.27692165378E+03  0.00000000000E+00 0.  1.
         21    1    1    2  504  503  0.22064729036E+02  0.36386888505E+02 -0.59580506568E+02  0.73216765057E+02  0.00000000000E+00 0.  1.
<mgrwt>
<rscale>  4 0.29304913E+03</rscale>
<asrwt>0</asrwt>
<pdfrwt beam="1">  1       21 0.13677020E-01 0.29304913E+03</pdfrwt>
<pdfrwt beam="2">  1       21 0.34069781E+00 0.29304913E+03</pdfrwt>
<totfact> 0.81795317E+02</totfact>
</mgrwt>
</event>
<event>
 5    0  0.1467858E+000  0.2386869E+03  0.7546771E-02  0.1120671E+00
         21   -1    0    0  504  501  0.00000000000E+00  0.00000000000E+00  0.40152079474E+03  0.40152079474E+03  0.00000000000E+00 0. -1.
         21   -1    0    0  501  502 -0.00000000000E+00 -0.00000000000E+00 -0.13588324834E+03  0.13588324834E+03  0.00000000000E+00 0. -1.
         25    1    1    2    0    0  0.19425869406E+03 -0.60083263667E+02  0.22174285195E+03  0.32579338726E+03  0.12500000000E+03 0.  0.
         21    1    1    2  503  502 -0.23887747096E+02  0.27160846218E+01  0.17894386310E+02  0.29970162468E+02  0.00000000000E+00 0. -1.
         21    1    1    2  504  503 -0.17037094696E+03  0.57367179045E+02  0.26000308141E+02  0.18164049335E+03  0.00000000000E+00 0. -1.
<mgrwt>
<rscale>  4 0.23868691E+03</rscale>
<asrwt>0</asrwt>
<pdfrwt beam="1">  1       21 0.61772429E-01 0.23868691E+03</pdfrwt>
<pdfrwt beam="2">  1       21 0.20905115E-01 0.23868691E+03</pdfrwt>
<totfact> 0.50635131E+04</totfact>
</mgrwt>
</event>
<event>
 5    0  0.1467858E+000  0.2387478E+03  0.7546771E-02  0.1120630E+00
         21   -1    0    0  504  501  0.00000000000E+00  0.00000000000E+00  0.20967766850E+03  0.20967766850E+03  0.00000000000E+00 0.  1.
         21   -1    0    0  501  502 -0.00000000000E+00 -0.00000000000E+00 -0.24790894054E+03  0.24790894054E+03  0.00000000000E+00 0.  1.
         25    1    1    2    0    0  0.21625994433E+02 -0.20225678473E+03 -0.69582862842E+02  0.24868105156E+03  0.12500000000E+03 0.  0.
         21    1    1    2  503  502 -0.14889229093E+02  0.24874872821E+02  0.58221425484E+01  0.29569338591E+02  0.00000000000E+00 0.  1.
         21    1    1    2  504  503 -0.67367653397E+01  0.17738191190E+03  0.25529448244E+02  0.17933621889E+03  0.00000000000E+00 0.  1.
<mgrwt>
<rscale>  4 0.23874776E+03</rscale>
<asrwt>0</asrwt>
<pdfrwt beam="1">  1       21 0.32258103E-01 0.23874776E+03</pdfrwt>
<pdfrwt beam="2">  1       21 0.38139837E-01 0.23874776E+03</pdfrwt>
<totfact> 0.60078494E+04</totfact>
</mgrwt>
</event>
<event>
 5    0  0.1467858E+000  0.2855743E+03  0.7546771E-02  0.1092683E+00
         21   -1    0    0  504  501  0.00000000000E+00  0.00000000000E+00  0.14398382860E+04  0.14398382860E+04  0.00000000000E+00 0. -1.
         21   -1    0    0  501  502 -0.00000000000E+00 -0.00000000000E+00 -0.53254935928E+02  0.53254935928E+02  0.00000000000E+00 0. -1.
         25    1    1    2    0    0 -0.14877594647E+03  0.20926865914E+03  0.80182524101E+03  0.85116177726E+03  0.12500000000E+03 0.  0.
         21    1    1    2  503  502  0.14132991240E+03 -0.15538415936E+03  0.47801567958E+03  0.52212773441E+03  0.00000000000E+00 0. -1.
         21    1    1    2  504  503  0.74460340703E+01 -0.53884499779E+02  0.10674242950E+03  0.11980371028E+03  0.00000000000E+00 0.  1.
<mgrwt>
<rscale>  4 0.28557425E+03</rscale>
<asrwt>0</asrwt>
<pdfrwt beam="1">  1       21 0.22151355E+00 0.28557425E+03</pdfrwt>
<pdfrwt beam="2">  1       21 0.81930682E-02 0.28557425E+03</pdfrwt>
<totfact> 0.10588760E+04</totfact>
</mgrwt>
</event>
<event>
 5    0  0.1467858E+000  0.2955782E+03  0.7546771E-02  0.1087472E+00
         21   -1    0    0  504  501  0.00000000000E+00  0.00000000000E+00  0.17589689547E+03  0.17589689547E+03  0.00000000000E+00 0. -1.
         21   -1    0    0  501  502 -0.00000000000E+00 -0.00000000000E+00 -0.70251709590E+03  0.70251709590E+03  0.00000000000E+00 0.  1.
         25    1    1    2    0    0  0.19473799026E+03  0.19680164047E+03 -0.49055879857E+03  0.57699801161E+03  0.12500000000E+03 0.  0.
         21    1    1    2  503  502  0.17339818271E+01 -0.49777343237E+02 -0.25110938801E+02  0.55779475080E+02  0.00000000000E+00 0. -1.
         21    1    1    2  504  503 -0.19647197209E+03 -0.14702429723E+03 -0.10950463060E+02  0.24563650469E+03  0.00000000000E+00 0. -1.
<mgrwt>
<rscale>  4 0.29557819E+03</rscale>
<asrwt>0</asrwt>
<pdfrwt beam="1">  1       21 0.27061061E-01 0.29557819E+03</pdfrwt>
<pdfrwt beam="2">  1       21 0.10807955E+00 0.29557819E+03</pdfrwt>
<totfact> 0.83338470E+03</totfact>
</mgrwt>
</event>
<event>
 5    0  0.1467858E+000  0.3879959E+03  0.7546771E-02  0.1048017E+00
         21   -1    0    0  504  501  0.00000000000E+00  0.00000000000E+00  0.58458421356E+03  0.58458421356E+03  0.00000000000E+00 0. -1.
         21   -1    0    0  501  502 -0.00000000000E+00 -0.00000000000E+00 -0.71022618379E+03  0.71022618379E+03  0.00000000000E+00 0. -1.
         25    1    1    2    0    0  0.29078019844E+03  0.22441640435E+03 -0.58605964851E+03  0.70285614314E+03  0.12500000000E+03 0.  0.
         21    1    1    2  503  502 -0.28780429594E+02 -0.17205038256E+02  0.19490442071E+02  0.38784066330E+02  0.00000000000E+00 0. -1.
         21    1    1    2  504  503 -0.26199976885E+03 -0.20721136609E+03  0.44092723621E+03  0.55317018787E+03  0.00000000000E+00 0. -1.
<mgrwt>
<rscale>  4 0.38799594E+03</rscale>
<asrwt>0</asrwt>
<pdfrwt beam="1">  1       21 0.89936032E-01 0.38799594E+03</pdfrwt>
<pdfrwt beam="2">  1       21 0.10926557E+00 0.38799594E+03</pdfrwt>
<totfact> 0.60428092E+02</totfact>
</mgrwt>
</event>
<event>
 5    0  0.1467858E+000  0.2371397E+03  0.7546771E-02  0.1121713E+00
         21   -1    0    0  504  501  0.00000000000E+00  0.00000000000E+00  0.25570132076E+03  0.25570132076E+03  0.00000000000E+00 0. -1.
         21   -1    0    0  501  502 -0.00000000000E+00 -0.00000000000E+00 -0.19659812746E+03  0.19659812746E+03  0.00000000000E+00 0. -1.
         25    1    1    2    0    0  0.16880495746E+02  0.20081157567E+03  0.26149681447E+02  0.23857712778E+03  0.12500000000E+03 0.  0.
         21    1    1    2  503  502 -0.39715302321E+02 -0.10656779316E+03  0.10692781552E+02  0.11422931040E+03  0.00000000000E+00 0. -1.
         21    1    1    2  504  503  0.22834806575E+02 -0.94243782512E+02  0.22260730300E+02  0.99493010041E+02  0.00000000000E+00 0. -1.
<mgrwt>
<rscale>  4 0.23713971E+03</rscale>
<asrwt>0</asrwt>
<pdfrwt beam="1">  1       21 0.39338664E-01 0.23713971E+03</pdfrwt>
<pdfrwt beam="2">  1       21 0.30245866E-01 0.23713971E+03</pdfrwt>
<totfact> 0.64103811E+04</totfact>
</mgrwt>
</event>
<event>
 5    0  0.1467858E+000  0.2904342E+03  0.7546771E-02  0.1090123E+00
         21   -1    0    0  504  501  0.00000000000E+00  0.00000000000E+00  0.21134075424E+04  0.21134075424E+04  0.00000000000E+00 0.  1.
         21   -1    0    0  501  502 -0.00000000000E+00 -0.00000000000E+00 -0.47169007876E+02  0.47169007876E+02  0.00000000000E+00 0. -1.
         25    1    1    2    0    0 -0.22469036733E+03 -0.13506013311E+03  0.56745094723E+03  0.63745790311E+03  0.12500000000E+03 0.  0.
         21    1    1    2  503  502  0.96247003523E+02  0.69452117556E+02  0.49548047195E+03  0.50949777272E+03  0.00000000000E+00 0.  1.
         21    1    1    2  504  503  0.12844336381E+03  0.65608015555E+02  0.10033071153E+04  0.10136208744E+04  0.00000000000E+00 0.  1.
<mgrwt>
<rscale>  4 0.29043416E+03</rscale>
<asrwt>0</asrwt>
<pdfrwt beam="1">  1       21 0.32513955E+00 0.29043416E+03</pdfrwt>
<pdfrwt beam="2">  1       21 0.72567721E-02 0.29043416E+03</pdfrwt>
<totfact> 0.31419520E+03</totfact>
</mgrwt>
</event>
<event>
 5    0  0.1467858E+000  0.3643289E+03  0.7546771E-02  0.1056883E+00
         21   -1    0    0  504  501  0.00000000000E+00  0.00000000000E+00  0.14026265153E+04  0.14026265153E+04  0.00000000000E+00 0.  1.
         21   -1    0    0  501  502 -0.00000000000E+00 -0.00000000000E+00 -0.93860586088E+02  0.93860586088E+02  0.00000000000E+00 0.  1.
         25    1    1    2    0    0  0.54010228624E+02  0.33792517347E+03  0.80848948963E+03  0.88678677398E+03  0.12500000000E+03 0.  0.
         21    1    1    2  503  502 -0.11598570294E+02 -0.90014138524E+02  0.85879639641E+02  0.12494952770E+03  0.00000000000E+00 0.  1.
         21    1    1    2  504  503 -0.42411658330E+02 -0.24791103495E+03  0.41439679990E+03  0.48475079967E+03  0.00000000000E+00 0.  1.
<mgrwt>
<rscale>  4 0.36432887E+03</rscale>
<asrwt>0</asrwt>
<pdfrwt beam="1">  1       21 0.21578868E+00 0.36432887E+03</pdfrwt>
<pdfrwt beam="2">  1       21 0.14440091E-01 0.36432887E+03</pdfrwt>
<totfact> 0.39765485E+03</totfact>
</mgrwt>
</event>
<event>
 5    0  0.1467858E+000  0.2278095E+03  0.7546771E-02  0.1128191E+00
         21   -1    0    0  504  501  0.00000000000E+00  0.00000000000E+00  0.30389015838E+03  0.30389015838E+03  0.00000000000E+00 0.  1.
         21   -1    0    0  501  502 -0.00000000000E+00 -0.00000000000E+00 -0.39583940821E+03  0.39583940821E+03  0.00000000000E+00 0.  1.
         25    1    1    2    0    0 -0.91478627472E+02  0.18630363928E+03  0.20531870551E+03  0.31758173141E+03  0.12500000000E+03 0.  0.
         21    1    1    2  503  502 -0.37000971139E+01 -0.10241237984E+03 -0.77872984974E+02  0.12870970457E+03  0.00000000000E+00 0.  1.
         21    1    1    2  504  503  0.95178724586E+02 -0.83891259439E+02 -0.21939497037E+03  0.25343813061E+03  0.00000000000E+00 0.  1.
<mgrwt>
<rscale>  4 0.22780952E+03</rscale>
<asrwt>0</asrwt>
<pdfrwt beam="1">  1       21 0.46752332E-01 0.22780952E+03</pdfrwt>
<pdfrwt beam="2">  1       21 0.60898370E-01 0.22780952E+03</pdfrwt>
<totfact> 0.10745725E+04</totfact>
</mgrwt>
</event>
<event>
 5    0  0.1467858E+000  0.2484878E+03  0.7546771E-02  0.1114264E+00
         21   -1    0    0  504  501  0.00000000000E+00  0.00000000000E+00  0.20381789818E+03  0.20381789818E+03  0.00000000000E+00 0.  1.
         21   -1    0    0  501  502 -0.00000000000E+00 -0.00000000000E+00 -0.33099726354E+03  0.33099726354E+03  0.00000000000E+00 0.  1.
         25    1    1    2    0    0 -0.37454208909E+01  0.21472578408E+03 -0.18420516199E+03  0.30931817313E+03  0.12500000000E+03 0.  0.
         21    1    1    2  503  502  0.16443349638E+02 -0.18136494951E+03  0.52434234371E+02  0.18950719667E+03  0.00000000000E+00 0.  1.
         21    1    1    2  504  503 -0.12697928747E+02 -0.33360834577E+02  0.45915622546E+01  0.35989791915E+02  0.00000000000E+00 0.  1.
<mgrwt>
<rscale>  4 0.24848781E+03</rscale>
<asrwt>0</asrwt>
<pdfrwt beam="1">  1       21 0.31356600E-01 0.24848781E+03</pdfrwt>
<pdfrwt beam="2">  1       21 0.50922655E-01 0.24848781E+03</pdfrwt>
<totfact> 0.34888931E+04</totfact>
</mgrwt>
</event>
<event>
 5    0  0.1467858E+000  0.2618817E+03  0.7546771E-02  0.1106018E+00
         21   -1    0    0  504  501  0.00000000000E+00  0.00000000000E+00  0.90187920376E+02  0.90187920376E+02  0.00000000000E+00 0.  1.
         21   -1    0    0  501  502 -0.00000000000E+00 -0.00000000000E+00 -0.98044647941E+03  0.98044647941E+03  0.00000000000E+00 0.  1.
         25    1    1    2    0    0 -0.97233979528E+02  0.23510912908E+03 -0.55484224467E+03  0.62306152651E+03  0.12500000000E+03 0.  0.
         21    1    1    2  503  502 -0.16874647187E+02 -0.59049305020E+02 -0.12794481332E+02  0.62731753471E+02  0.00000000000E+00 0.  1.
         21    1    1    2  504  503  0.11410862672E+03 -0.17605982406E+03 -0.32262183304E+03  0.38484111981E+03  0.00000000000E+00 0.  1.
<mgrwt>
<rscale>  4 0.26188168E+03</rscale>
<asrwt>0</asrwt>
<pdfrwt beam="1">  1       21 0.13875065E-01 0.26188168E+03</pdfrwt>
<pdfrwt beam="2">  1       21 0.15083792E+00 0.26188168E+03</pdfrwt>
<totfact> 0.12731885E+04</totfact>
</mgrwt>
</event>
<event>
 5    0  0.1467858E+000  0.3746221E+03  0.7546771E-02  0.1052940E+00
         21   -1    0    0  504  501  0.00000000000E+00  0.00000000000E+00  0.90999848285E+03  0.90999848285E+03  0.00000000000E+00 0.  1.
         21   -1    0    0  501  502 -0.00000000000E+00 -0.00000000000E+00 -0.16772642312E+03  0.16772642312E+03  0.00000000000E+00 0.  1.
         25    1    1    2    0    0 -0.34300065036E+03  0.84067235867E+02  0.19867531741E+03  0.42404437037E+03  0.12500000000E+03 0.  0.
         21    1    1    2  503  502  0.28420082024E+03 -0.65079431223E+02  0.49731925355E+03  0.57648233151E+03  0.00000000000E+00 0.  1.
         21    1    1    2  504  503  0.58799830119E+02 -0.18987804644E+02  0.46277488776E+02  0.77198204089E+02  0.00000000000E+00 0.  1.
<mgrwt>
<rscale>  4 0.37462214E+03</rscale>
<asrwt>0</asrwt>
<pdfrwt beam="1">  1       21 0.13999976E+00 0.37462214E+03</pdfrwt>
<pdfrwt beam="2">  1       21 0.25804066E-01 0.37462214E+03</pdfrwt>
<totfact> 0.45761548E+03</totfact>
</mgrwt>
</event>
<event>
 5    0  0.1467858E+000  0.2548124E+03  0.7546771E-02  0.1110301E+00
         21   -1    0    0  504  501  0.00000000000E+00  0.00000000000E+00  0.80704643795E+03  0.80704643795E+03  0.00000000000E+00 0.  1.
         21   -1    0    0  501  502 -0.00000000000E+00 -0.00000000000E+00 -0.19953292044E+03  0.19953292044E+03  0.00000000000E+00 0. -1.
         25    1    1    2    0    0  0.22353148610E+03  0.30584397506E+02 -0.85721060225E+02  0.27179924727E+03  0.12500000000E+03 0.  0.
         21    1    1    2  503  502 -0.19317561458E+03 -0.34006970960E+02  0.66448798854E+03  0.69283300950E+03  0.00000000000E+00 0.  1.
         21    1    1    2  504  503 -0.30355871515E+02  0.34225734539E+01  0.28746589194E+02  0.41947101626E+02  0.00000000000E+00 0. -1.
<mgrwt>
<rscale>  4 0.25481241E+03</rscale>
<asrwt>0</asrwt>
<pdfrwt beam="1">  1       21 0.12416099E+00 0.25481241E+03</pdfrwt>
<pdfrwt beam="2">  1       21 0.30697373E-01 0.25481241E+03</pdfrwt>
<totfact> 0.47239621E+03</totfact>
</mgrwt>
</event>
<event>
 5    0  0.1467858E+000  0.2397246E+03  0.7546771E-02  0.1119976E+00
         21   -1    0    0  504  501  0.00000000000E+00  0.00000000000E+00  0.92727042662E+02  0.92727042662E+02  0.00000000000E+00 0.  1.
         21   -1    0    0  501  502 -0.00000000000E+00 -0.00000000000E+00 -0.55384463538E+03  0.55384463538E+03  0.00000000000E+00 0. -1.
         25    1    1    2    0    0  0.89109062199E+02 -0.18412617838E+03 -0.26274897660E+03  0.35567527218E+03  0.12500000000E+03 0.  0.
         21    1    1    2  503  502 -0.22770253949E+02  0.73589728508E+01 -0.23972628531E+02  0.33872198999E+02  0.00000000000E+00 0.  1.
         21    1    1    2  504  503 -0.66338808250E+02  0.17676720553E+03 -0.17439598758E+03  0.25702420687E+03  0.00000000000E+00 0.  1.
<mgrwt>
<rscale>  4 0.23972458E+03</rscale>
<asrwt>0</asrwt>
<pdfrwt beam="1">  1       21 0.14265698E-01 0.23972458E+03</pdfrwt>
<pdfrwt beam="2">  1       21 0.85206869E-01 0.23972458E+03</pdfrwt>
<totfact> 0.50092828E+04</totfact>
</mgrwt>
</event>
<event>
 5    0  0.1467858E+000  0.2448138E+03  0.7546771E-02  0.1116627E+00
         21   -1    0    0  504  501  0.00000000000E+00  0.00000000000E+00  0.78086604630E+03  0.78086604630E+03  0.00000000000E+00 0. -1.
         21   -1    0    0  501  502 -0.00000000000E+00 -0.00000000000E+00 -0.32975694734E+03  0.32975694734E+03  0.00000000000E+00 0. -1.
         25    1    1    2    0    0 -0.13555631116E+03  0.16103821639E+03 -0.26540383535E+03  0.36107203776E+03  0.12500000000E+03 0.  0.
         21    1    1    2  503  502  0.31700647190E+02 -0.50656851846E+02  0.30993785914E+03  0.31564620099E+03  0.00000000000E+00 0. -1.
         21    1    1    2  504  503  0.10385566397E+03 -0.11038136455E+03  0.40657507516E+03  0.43390475489E+03  0.00000000000E+00 0. -1.
<mgrwt>
<rscale>  4 0.24481385E+03</rscale>
<asrwt>0</asrwt>
<pdfrwt beam="1">  1       21 0.12013324E+00 0.24481385E+03</pdfrwt>
<pdfrwt beam="2">  1       21 0.50731838E-01 0.24481385E+03</pdfrwt>
<totfact> 0.18627369E+03</totfact>
</mgrwt>
</event>
<event>
 5    0  0.1467858E+000  0.2398987E+03  0.7546771E-02  0.1119860E+00
         21   -1    0    0  504  501  0.00000000000E+00  0.00000000000E+00  0.25432951453E+02  0.25432951453E+02  0.00000000000E+00 0.  1.
         21   -1    0    0  501  502 -0.00000000000E+00 -0.00000000000E+00 -0.22123940116E+04  0.22123940116E+04  0.00000000000E+00 0.  1.
         25    1    1    2    0    0  0.18187334794E+03  0.94066376588E+02 -0.14954662536E+04  0.15145859875E+04  0.12500000000E+03 0.  0.
         21    1    1    2  503  502 -0.43029328485E+02 -0.10364256401E+02 -0.22677627002E+03  0.23105500982E+03  0.00000000000E+00 0.  1.
         21    1    1    2  504  503 -0.13884401946E+03 -0.83702120187E+02 -0.46471853655E+03  0.49218596574E+03  0.00000000000E+00 0.  1.
<mgrwt>
<rscale>  4 0.23989872E+03</rscale>
<asrwt>0</asrwt>
<pdfrwt beam="1">  1       21 0.39127632E-02 0.23989872E+03</pdfrwt>
<pdfrwt beam="2">  1       21 0.34036819E+00 0.23989872E+03</pdfrwt>
<totfact> 0.76953360E+03</totfact>
</mgrwt>
</event>
<event>
 5    0  0.1467858E+000  0.3735211E+03  0.7546771E-02  0.1053355E+00
         21   -1    0    0  504  501  0.00000000000E+00  0.00000000000E+00  0.10735403296E+04  0.10735403296E+04  0.00000000000E+00 0. -1.
         21   -1    0    0  501  502 -0.00000000000E+00 -0.00000000000E+00 -0.32774282657E+03  0.32774282657E+03  0.00000000000E+00 0. -1.
         25    1    1    2    0    0 -0.22123053010E+03 -0.27377007414E+03 -0.17606164021E+03  0.41293546965E+03  0.12500000000E+03 0.  0.
         21    1    1    2  503  502  0.20651395128E+03  0.24226524896E+03  0.86476308269E+03  0.92149642002E+03  0.00000000000E+00 0. -1.
         21    1    1    2  504  503  0.14716578820E+02  0.31504825181E+02  0.57096060582E+02  0.66851266524E+02  0.00000000000E+00 0. -1.
<mgrwt>
<rscale>  4 0.37352109E+03</rscale>
<asrwt>0</asrwt>
<pdfrwt beam="1">  1       21 0.16516005E+00 0.37352109E+03</pdfrwt>
<pdfrwt beam="2">  1       21 0.50421974E-01 0.37352109E+03</pdfrwt>
<totfact> 0.75163302E+02</totfact>
</mgrwt>
</event>
<event>
 5    0  0.1467858E+000  0.2348422E+03  0.7546771E-02  0.1123277E+00
         21   -1    0    0  504  501  0.00000000000E+00  0.00000000000E+00  0.55468580204E+03  0.55468580204E+03  0.00000000000E+00 0.  1.
         21   -1    0    0  501  502 -0.00000000000E+00 -0.00000000000E+00 -0.12988454472E+03  0.12988454472E+03  0.00000000000E+00 0.  1.
         25    1    1    2    0    0  0.19085434776E+03  0.87801887528E+02  0.59077408701E+02  0.25149491790E+03  0.12500000000E+03 0.  0.
         21    1    1    2  503  502 -0.17502729186E+03 -0.44610566529E+02  0.24898615710E+03  0.30760162868E+03  0.00000000000E+00 0.  1.
         21    1    1    2  504  503 -0.15827055901E+02 -0.43191320999E+02  0.11673769152E+03  0.12547380017E+03  0.00000000000E+00 0.  1.
<mgrwt>
<rscale>  4 0.23484224E+03</rscale>
<asrwt>0</asrwt>
<pdfrwt beam="1">  1       21 0.85336276E-01 0.23484224E+03</pdfrwt>
<pdfrwt beam="2">  1       21 0.19982238E-01 0.23484224E+03</pdfrwt>
<totfact> 0.26835419E+04</totfact>
</mgrwt>
</event>
<event>
 5    0  0.1467858E+000  0.3297039E+03  0.7546771E-02  0.1071268E+00
         21   -1    0    0  504  501  0.00000000000E+00  0.00000000000E+00  0.39897382164E+03  0.39897382164E+03  0.00000000000E+00 0.  1.
         21   -1    0    0  501  502 -0.00000000000E+00 -0.00000000000E+00 -0.35011980731E+03  0.35011980731E+03  0.00000000000E+00 0. -1.
         25    1    1    2    0    0 -0.33129329453E+03  0.74314249587E+02 -0.63570555066E+02  0.36734734267E+03  0.12500000000E+03 0.  0.
         21    1    1    2  503  502  0.49345543987E+02 -0.37466526528E+01 -0.30219247278E+02  0.57984679214E+02  0.00000000000E+00 0.  1.
         21    1    1    2  504  503  0.28194775054E+03 -0.70567596934E+02  0.14264381668E+03  0.32376160707E+03  0.00000000000E+00 0.  1.
<mgrwt>
<rscale>  4 0.32970388E+03</rscale>
<asrwt>0</asrwt>
<pdfrwt beam="1">  1       21 0.61380588E-01 0.32970388E+03</pdfrwt>
<pdfrwt beam="2">  1       21 0.53864585E-01 0.32970388E+03</pdfrwt>
<totfact> 0.74484378E+03</totfact>
</mgrwt>
</event>
<event>
 5    0  0.1467858E+000  0.2682310E+03  0.7546771E-02  0.1102296E+00
         21   -1    0    0  504  501  0.00000000000E+00  0.00000000000E+00  0.55690601274E+03  0.55690601274E+03  0.00000000000E+00 0. -1.
         21   -1    0    0  501  502 -0.00000000000E+00 -0.00000000000E+00 -0.20165887970E+04  0.20165887970E+04  0.00000000000E+00 0. -1.
         25    1    1    2    0    0 -0.21692669727E+03 -0.96258397686E+02 -0.19811277336E+04  0.19992035834E+04  0.12500000000E+03 0.  0.
         21    1    1    2  503  502  0.29796478465E+02  0.28025479067E+01  0.89392570137E+02  0.94269379967E+02  0.00000000000E+00 0. -1.
         21    1    1    2  504  503  0.18713021880E+03  0.93455849779E+02  0.43205237918E+03  0.48002184638E+03  0.00000000000E+00 0. -1.
<mgrwt>
<rscale>  4 0.26823100E+03</rscale>
<asrwt>0</asrwt>
<pdfrwt beam="1">  1       21 0.85677848E-01 0.26823100E+03</pdfrwt>
<pdfrwt beam="2">  1       21 0.31024443E+00 0.26823100E+03</pdfrwt>
<totfact> 0.31233628E+01</totfact>
</mgrwt>
</event>
<event>
 5    0  0.1467858E+000  0.3872494E+03  0.7546771E-02  0.1048286E+00
         21   -1    0    0  504  501  0.00000000000E+00  0.00000000000E+00  0.33425830145E+03  0.33425830145E+03  0.00000000000E+00 0.  1.
         21   -1    0    0  501  502 -0.00000000000E+00 -0.00000000000E+00 -0.46212079852E+03  0.46212079852E+03  0.00000000000E+00 0.  1.
         25    1    1    2    0    0  0.42630160312E+02 -0.36403267842E+03  0.38235436617E+02  0.38913245835E+03  0.12500000000E+03 0.  0.
         21    1    1    2  503  502 -0.56052828789E+02  0.33385502733E+03 -0.15572711685E+03  0.37262854670E+03  0.00000000000E+00 0.  1.
         21    1    1    2  504  503  0.13422668478E+02  0.30177651086E+02 -0.10370816841E+02  0.34618094923E+02  0.00000000000E+00 0. -1.
<mgrwt>
<rscale>  4 0.38724943E+03</rscale>
<asrwt>0</asrwt>
<pdfrwt beam="1">  1       21 0.51424354E-01 0.38724943E+03</pdfrwt>
<pdfrwt beam="2">  1       21 0.71095508E-01 0.38724943E+03</pdfrwt>
<totfact> 0.58011645E+03</totfact>
</mgrwt>
</event>
<event>
 5    0  0.1467858E+000  0.3586439E+03  0.7546771E-02  0.1059122E+00
         21   -1    0    0  504  501  0.00000000000E+00  0.00000000000E+00  0.60975909188E+03  0.60975909188E+03  0.00000000000E+00 0.  1.
         21   -1    0    0  501  502 -0.00000000000E+00 -0.00000000000E+00 -0.32931109225E+03  0.32931109225E+03  0.00000000000E+00 0.  1.
         25    1    1    2    0    0  0.31517082116E+03  0.12852766647E+03  0.42151798513E+03  0.55601656391E+03  0.12500000000E+03 0.  0.
         21    1    1    2  503  502 -0.86355970189E+01 -0.28002905555E+02 -0.29829287092E+02  0.41815339576E+02  0.00000000000E+00 0. -1.
         21    1    1    2  504  503 -0.30653522414E+03 -0.10052476092E+03 -0.11124069841E+03  0.34123828065E+03  0.00000000000E+00 0.  1.
<mgrwt>
<rscale>  4 0.35864385E+03</rscale>
<asrwt>0</asrwt>
<pdfrwt beam="1">  1       21 0.93809091E-01 0.35864385E+03</pdfrwt>
<pdfrwt beam="2">  1       21 0.50663245E-01 0.35864385E+03</pdfrwt>
<totfact> 0.31929292E+03</totfact>
</mgrwt>
</event>
<event>
 5    0  0.1467858E+000  0.4054614E+03  0.7546771E-02  0.1041905E+00
         21   -1    0    0  504  501  0.00000000000E+00  0.00000000000E+00  0.47869109014E+03  0.47869109014E+03  0.00000000000E+00 0. -1.
         21   -1    0    0  501  502 -0.00000000000E+00 -0.00000000000E+00 -0.35103770843E+03  0.35103770843E+03  0.00000000000E+00 0. -1.
         25    1    1    2    0    0  0.30905337068E+03  0.23078118373E+03 -0.22129928503E+02  0.40606486480E+03  0.12500000000E+03 0.  0.
         21    1    1    2  503  502 -0.42504342996E+02 -0.53131707240E+01 -0.22129330250E+01  0.42892260714E+02  0.00000000000E+00 0. -1.
         21    1    1    2  504  503 -0.26654902768E+03 -0.22546801301E+03  0.15199624324E+03  0.38077167306E+03  0.00000000000E+00 0. -1.
<mgrwt>
<rscale>  4 0.40546139E+03</rscale>
<asrwt>0</asrwt>
<pdfrwt beam="1">  1       21 0.73644783E-01 0.40546139E+03</pdfrwt>
<pdfrwt beam="2">  1       21 0.54005802E-01 0.40546139E+03</pdfrwt>
<totfact> 0.47917341E+03</totfact>
</mgrwt>
</event>
<event>
 5    0  0.1467858E+000  0.2280115E+03  0.7546771E-02  0.1128047E+00
         21   -1    0    0  504  501  0.00000000000E+00  0.00000000000E+00  0.16075598071E+03  0.16075598071E+03  0.00000000000E+00 0.  1.
         21   -1    0    0  501  502 -0.00000000000E+00 -0.00000000000E+00 -0.67268947115E+03  0.67268947115E+03  0.00000000000E+00 0.  1.
         25    1    1    2    0    0  0.13928902429E+03 -0.14569897842E+03 -0.51945591009E+03  0.57104208875E+03  0.12500000000E+03 0.  0.
         21    1    1    2  503  502 -0.58998128890E+02  0.16058175408E+03 -0.27999915625E+02  0.17335303352E+03  0.00000000000E+00 0.  1.
         21    1    1    2  504  503 -0.80290895400E+02 -0.14882775658E+02  0.35522335270E+02  0.89050329581E+02  0.00000000000E+00 0.  1.
<mgrwt>
<rscale>  4 0.22801151E+03</rscale>
<asrwt>0</asrwt>
<pdfrwt beam="1">  1       21 0.24731689E-01 0.22801151E+03</pdfrwt>
<pdfrwt beam="2">  1       21 0.10349069E+00 0.22801151E+03</pdfrwt>
<totfact> 0.11426562E+04</totfact>
</mgrwt>
</event>
<event>
 5    0  0.1467858E+000  0.2832702E+03  0.7546771E-02  0.1093916E+00
         21   -1    0    0  504  501  0.00000000000E+00  0.00000000000E+00  0.67821412403E+03  0.67821412403E+03  0.00000000000E+00 0. -1.
         21   -1    0    0  501  502 -0.00000000000E+00 -0.00000000000E+00 -0.21121683968E+03  0.21121683968E+03  0.00000000000E+00 0. -1.
         25    1    1    2    0    0 -0.18116858353E+03  0.23296695305E+03  0.25891093716E+02  0.32154471790E+03  0.12500000000E+03 0.  0.
         21    1    1    2  503  502  0.18026624259E+03 -0.77066049360E+02  0.29511612380E+03  0.35430018446E+03  0.00000000000E+00 0. -1.
         21    1    1    2  504  503  0.90234093528E+00 -0.15590090369E+03  0.14599006683E+03  0.21358606136E+03  0.00000000000E+00 0. -1.
<mgrwt>
<rscale>  4 0.28327020E+03</rscale>
<asrwt>0</asrwt>
<pdfrwt beam="1">  1       21 0.10434063E+00 0.28327020E+03</pdfrwt>
<pdfrwt beam="2">  1       21 0.32494899E-01 0.28327020E+03</pdfrwt>
<totfact> 0.63766781E+03</totfact>
</mgrwt>
</event>
<event>
 5    0  0.1467858E+000  0.3590673E+03  0.7546771E-02  0.1058954E+00
         21   -1    0    0  504  501  0.00000000000E+00  0.00000000000E+00  0.43707361804E+03  0.43707361804E+03  0.00000000000E+00 0. -1.
         21   -1    0    0  501  502 -0.00000000000E+00 -0.00000000000E+00 -0.45006388241E+03  0.45006388241E+03  0.00000000000E+00 0. -1.
         25    1    1    2    0    0 -0.29363910380E+03  0.27706695657E+03 -0.34684507536E+02  0.42404956876E+03  0.12500000000E+03 0.  0.
         21    1    1    2  503  502  0.26106499987E+03 -0.14507055151E+03 -0.59779777760E+02  0.30458828096E+03  0.00000000000E+00 0. -1.
         21    1    1    2  504  503  0.32574103933E+02 -0.13199640505E+03  0.81474020925E+02  0.15849965072E+03  0.00000000000E+00 0. -1.
<mgrwt>
<rscale>  4 0.35906727E+03</rscale>
<asrwt>0</asrwt>
<pdfrwt beam="1">  1       21 0.67242095E-01 0.35906727E+03</pdfrwt>
<pdfrwt beam="2">  1       21 0.69240597E-01 0.35906727E+03</pdfrwt>
<totfact> 0.34747298E+03</totfact>
</mgrwt>
</event>
<event>
 5    0  0.1467858E+000  0.2385559E+03  0.7546771E-02  0.1120759E+00
         21   -1    0    0  504  501  0.00000000000E+00  0.00000000000E+00  0.11776125329E+04  0.11776125329E+04  0.00000000000E+00 0.  1.
         21   -1    0    0  501  502 -0.00000000000E+00 -0.00000000000E+00 -0.99643014829E+02  0.99643014829E+02  0.00000000000E+00 0.  1.
         25    1    1    2    0    0 -0.13790599739E+03  0.14921749435E+03  0.70242371668E+02  0.24868235868E+03  0.12500000000E+03 0.  0.
         21    1    1    2  503  502  0.15983875988E+02 -0.13935269741E+02  0.16743725412E+03  0.16877473182E+03  0.00000000000E+00 0.  1.
         21    1    1    2  504  503  0.12192212141E+03 -0.13528222461E+03  0.84028989228E+03  0.85979845723E+03  0.00000000000E+00 0.  1.
<mgrwt>
<rscale>  4 0.23855592E+03</rscale>
<asrwt>0</asrwt>
<pdfrwt beam="1">  1       21 0.18117115E+00 0.23855592E+03</pdfrwt>
<pdfrwt beam="2">  1       21 0.15329695E-01 0.23855592E+03</pdfrwt>
<totfact> 0.64954433E+03</totfact>
</mgrwt>
</event>
<event>
 5    0  0.1467858E+000  0.4046684E+03  0.7546771E-02  0.1043355E+00
         21   -1    0    0  504  501  0.00000000000E+00  0.00000000000E+00  0.25859603041E+03  0.25859603041E+03  0.00000000000E+00 0.  1.
         21   -1    0    0  501  502 -0.00000000000E+00 -0.00000000000E+00 -0.62816632750E+03  0.62816632750E+03  0.00000000000E+00 0.  1.
         25    1    1    2    0    0  0.93604685797E+02  0.35854840099E+03 -0.25246029619E+03  0.46548898399E+03  0.12500000000E+03 0.  0.
         21    1    1    2  503  502  0.38722538240E+02 -0.16806121080E+03 -0.57486895974E+02  0.18179314825E+03  0.00000000000E+00 0.  1.
         21    1    1    2  504  503 -0.13232722404E+03 -0.19048719019E+03 -0.59623104919E+02  0.23948022567E+03  0.00000000000E+00 0.  1.
<mgrwt>
<rscale>  4 0.40122773E+03</rscale>
<asrwt>0</asrwt>
<pdfrwt beam="1">  1       21 0.39784005E-01 0.40466839E+03</pdfrwt>
<pdfrwt beam="2">  1       21 0.96640973E-01 0.40466839E+03</pdfrwt>
<totfact> 0.48327541E+03</totfact>
</mgrwt>
</event>
<event>
 5    0  0.1467858E+000  0.4018049E+03  0.7546771E-02  0.1043156E+00
         21   -1    0    0  504  501  0.00000000000E+00  0.00000000000E+00  0.91627717301E+03  0.91627717301E+03  0.00000000000E+00 0. -1.
         21   -1    0    0  501  502 -0.00000000000E+00 -0.00000000000E+00 -0.35447587498E+03  0.35447587498E+03  0.00000000000E+00 0.  1.
         25    1    1    2    0    0  0.19578189773E+02 -0.38136452251E+03 -0.17125890689E+03  0.43678005648E+03  0.12500000000E+03 0.  0.
         21    1    1    2  503  502 -0.25762180971E+02  0.32400639079E+03  0.51986074030E+03  0.61310604348E+03  0.00000000000E+00 0. -1.
         21    1    1    2  504  503  0.61839911980E+01  0.57358131720E+02  0.21319946461E+03  0.22086694803E+03  0.00000000000E+00 0. -1.
<mgrwt>
<rscale>  4 0.40180493E+03</rscale>
<asrwt>0</asrwt>
<pdfrwt beam="1">  1       21 0.14096572E+00 0.40180493E+03</pdfrwt>
<pdfrwt beam="2">  1       21 0.54534750E-01 0.40180493E+03</pdfrwt>
<totfact> 0.96424257E+02</totfact>
</mgrwt>
</event>
<event>
 5    0  0.1467858E+000  0.2861470E+03  0.7546771E-02  0.1092378E+00
         21   -1    0    0  504  501  0.00000000000E+00  0.00000000000E+00  0.69167343365E+02  0.69167343365E+02  0.00000000000E+00 0. -1.
         21   -1    0    0  501  502 -0.00000000000E+00 -0.00000000000E+00 -0.13895915790E+04  0.13895915790E+04  0.00000000000E+00 0. -1.
         25    1    1    2    0    0  0.18965010777E+02  0.25670110119E+03 -0.10215547986E+04  0.10608743250E+04  0.12500000000E+03 0.  0.
         21    1    1    2  503  502 -0.47522637781E+00 -0.50562221033E+02 -0.93614495580E+02  0.10639754611E+03  0.00000000000E+00 0.  1.
         21    1    1    2  504  503 -0.18489784399E+02 -0.20613888015E+03 -0.20525494148E+03  0.29148705124E+03  0.00000000000E+00 0. -1.
<mgrwt>
<rscale>  4 0.28614704E+03</rscale>
<asrwt>0</asrwt>
<pdfrwt beam="1">  1       21 0.10641129E-01 0.28614704E+03</pdfrwt>
<pdfrwt beam="2">  1       21 0.21378333E+00 0.28614704E+03</pdfrwt>
<totfact> 0.74457075E+03</totfact>
</mgrwt>
</event>
<event>
 5    0  0.1467858E+000  0.2786010E+03  0.7546771E-02  0.1096456E+00
         21   -1    0    0  504  501  0.00000000000E+00  0.00000000000E+00  0.71611849792E+03  0.71611849792E+03  0.00000000000E+00 0.  1.
         21   -1    0    0  501  502 -0.00000000000E+00 -0.00000000000E+00 -0.18416316962E+03  0.18416316962E+03  0.00000000000E+00 0.  1.
         25    1    1    2    0    0 -0.30875627979E+03  0.78334852667E+02  0.37839063325E+03  0.51016787510E+03  0.12500000000E+03 0.  0.
         21    1    1    2  503  502  0.10650863298E+03  0.29997972061E+02  0.11106160765E+03  0.15677578869E+03  0.00000000000E+00 0.  1.
         21    1    1    2  504  503  0.20224764681E+03 -0.10833282473E+03  0.42503087404E+02  0.23333800375E+03  0.00000000000E+00 0.  1.
<mgrwt>
<rscale>  4 0.27860100E+03</rscale>
<asrwt>0</asrwt>
<pdfrwt beam="1">  1       21 0.11017208E+00 0.27860100E+03</pdfrwt>
<pdfrwt beam="2">  1       21 0.28332796E-01 0.27860100E+03</pdfrwt>
<totfact> 0.73336633E+03</totfact>
</mgrwt>
</event>
<event>
 5    0  0.1467858E+000  0.3338217E+03  0.7546771E-02  0.1069458E+00
         21   -1    0    0  504  501  0.00000000000E+00  0.00000000000E+00  0.31374099277E+04  0.31374099277E+04  0.00000000000E+00 0. -1.
         21   -1    0    0  501  502 -0.00000000000E+00 -0.00000000000E+00 -0.49125321778E+03  0.49125321778E+03  0.00000000000E+00 0. -1.
         25    1    1    2    0    0  0.28984202965E+03  0.36179555674E+01 -0.41800830225E+03  0.52381049293E+03  0.12500000000E+03 0.  0.
         21    1    1    2  503  502  0.16372363470E+02  0.44120641992E+02  0.32042927196E+02  0.56933597451E+02  0.00000000000E+00 0.  1.
         21    1    1    2  504  503 -0.30621439312E+03 -0.47738597559E+02  0.30321220850E+04  0.30479190551E+04  0.00000000000E+00 0. -1.
<mgrwt>
<rscale>  4 0.33382171E+03</rscale>
<asrwt>0</asrwt>
<pdfrwt beam="1">  1       21 0.48267844E+00 0.33382171E+03</pdfrwt>
<pdfrwt beam="2">  1       21 0.75577420E-01 0.33382171E+03</pdfrwt>
<totfact> 0.30822158E+00</totfact>
</mgrwt>
</event>
<event>
 5    0  0.1467858E+000  0.2650901E+03  0.7546771E-02  0.1104123E+00
         21   -1    0    0  504  501  0.00000000000E+00  0.00000000000E+00  0.27304912007E+03  0.27304912007E+03  0.00000000000E+00 0. -1.
         21   -1    0    0  501  502 -0.00000000000E+00 -0.00000000000E+00 -0.24760008452E+03  0.24760008452E+03  0.00000000000E+00 0. -1.
         25    1    1    2    0    0 -0.11171397507E+03 -0.20534784945E+03 -0.43628875331E+02  0.26865634231E+03  0.12500000000E+03 0.  0.
         21    1    1    2  503  502  0.51812898267E+02  0.15693911428E+03  0.49557833801E+02  0.17254112817E+03  0.00000000000E+00 0. -1.
         21    1    1    2  504  503  0.59901076804E+02  0.48408735169E+02  0.19520077082E+02  0.79451734104E+02  0.00000000000E+00 0. -1.
<mgrwt>
<rscale>  4 0.26509008E+03</rscale>
<asrwt>0</asrwt>
<pdfrwt beam="1">  1       21 0.42007557E-01 0.26509008E+03</pdfrwt>
<pdfrwt beam="2">  1       21 0.38092321E-01 0.26509008E+03</pdfrwt>
<totfact> 0.35042256E+04</totfact>
</mgrwt>
</event>
<event>
 5    0  0.1467858E+000  0.2860459E+03  0.7546771E-02  0.1092432E+00
         21   -1    0    0  504  501  0.00000000000E+00  0.00000000000E+00  0.90713319486E+02  0.90713319486E+02  0.00000000000E+00 0.  1.
         21   -1    0    0  501  502 -0.00000000000E+00 -0.00000000000E+00 -0.11874750966E+04  0.11874750966E+04  0.00000000000E+00 0.  1.
         25    1    1    2    0    0  0.12932579407E+03  0.22242319539E+03 -0.91059727304E+03  0.95446824595E+03  0.12500000000E+03 0.  0.
         21    1    1    2  503  502 -0.74355160584E+02 -0.18105951854E+03 -0.13080165586E+03  0.23541519139E+03  0.00000000000E+00 0.  1.
         21    1    1    2  504  503 -0.54970633483E+02 -0.41363676842E+02 -0.55362848184E+02  0.88304978718E+02  0.00000000000E+00 0.  1.
<mgrwt>
<rscale>  4 0.28604587E+03</rscale>
<asrwt>0</asrwt>
<pdfrwt beam="1">  1       21 0.13955896E-01 0.28604587E+03</pdfrwt>
<pdfrwt beam="2">  1       21 0.18268846E+00 0.28604587E+03</pdfrwt>
<totfact> 0.73044714E+03</totfact>
</mgrwt>
</event>
<event>
 5    0  0.1467858E+000  0.3414841E+03  0.7546771E-02  0.1066166E+00
         21   -1    0    0  504  501  0.00000000000E+00  0.00000000000E+00  0.42901624809E+03  0.42901624809E+03  0.00000000000E+00 0. -1.
         21   -1    0    0  501  502 -0.00000000000E+00 -0.00000000000E+00 -0.32053391601E+03  0.32053391601E+03  0.00000000000E+00 0.  1.
         25    1    1    2    0    0  0.49227233832E+02  0.31394754775E+03 -0.10603343277E+03  0.35756743721E+03  0.12500000000E+03 0.  0.
         21    1    1    2  503  502  0.10539938240E+02 -0.35976262515E+02  0.53206537656E+02  0.65086998794E+02  0.00000000000E+00 0. -1.
         21    1    1    2  504  503 -0.59767172071E+02 -0.27797128523E+03  0.16130922719E+03  0.32689572810E+03  0.00000000000E+00 0. -1.
<mgrwt>
<rscale>  4 0.34148409E+03</rscale>
<asrwt>0</asrwt>
<pdfrwt beam="1">  1       21 0.66002500E-01 0.34148409E+03</pdfrwt>
<pdfrwt beam="2">  1       21 0.49312910E-01 0.34148409E+03</pdfrwt>
<totfact> 0.76202306E+03</totfact>
</mgrwt>
</event>
<event>
 5    0  0.1467858E+000  0.2562570E+03  0.7546771E-02  0.1109413E+00
         21   -1    0    0  504  501  0.00000000000E+00  0.00000000000E+00  0.11018811801E+04  0.11018811801E+04  0.00000000000E+00 0. -1.
         21   -1    0    0  501  502 -0.00000000000E+00 -0.00000000000E+00 -0.11151438877E+03  0.11151438877E+03  0.00000000000E+00 0. -1.
         25    1    1    2    0    0  0.19794795086E+03 -0.10420769084E+03  0.79981108275E+02  0.26844852721E+03  0.12500000000E+03 0.  0.
         21    1    1    2  503  502 -0.15359607164E+03  0.23820355879E+02  0.46804161924E+03  0.49317554675E+03  0.00000000000E+00 0. -1.
         21    1    1    2  504  503 -0.44351879223E+02  0.80387334959E+02  0.44234406386E+03  0.45177149495E+03  0.00000000000E+00 0. -1.
<mgrwt>
<rscale>  4 0.25625697E+03</rscale>
<asrwt>0</asrwt>
<pdfrwt beam="1">  1       21 0.16952017E+00 0.25625697E+03</pdfrwt>
<pdfrwt beam="2">  1       21 0.17156061E-01 0.25625697E+03</pdfrwt>
<totfact> 0.62906622E+03</totfact>
</mgrwt>
</event>
<event>
 5    0  0.1467858E+000  0.2792559E+03  0.7546771E-02  0.1096096E+00
         21   -1    0    0  504  501  0.00000000000E+00  0.00000000000E+00  0.25808206198E+03  0.25808206198E+03  0.00000000000E+00 0.  1.
         21   -1    0    0  501  502 -0.00000000000E+00 -0.00000000000E+00 -0.43500943562E+03  0.43500943562E+03  0.00000000000E+00 0.  1.
         25    1    1    2    0    0 -0.10917783005E+03 -0.22458645741E+03 -0.30200133615E+03  0.41132551886E+03  0.12500000000E+03 0.  0.
         21    1    1    2  503  502  0.10370450906E+03  0.19358552596E+03  0.11872777232E+03  0.24965228815E+03  0.00000000000E+00 0.  1.
         21    1    1    2  504  503  0.54733209849E+01  0.31000931451E+02  0.63461901994E+01  0.32113690593E+02  0.00000000000E+00 0.  1.
<mgrwt>
<rscale>  4 0.27925593E+03</rscale>
<asrwt>0</asrwt>
<pdfrwt beam="1">  1       21 0.39704933E-01 0.27925593E+03</pdfrwt>
<pdfrwt beam="2">  1       21 0.66924529E-01 0.27925593E+03</pdfrwt>
<totfact> 0.11902712E+04</totfact>
</mgrwt>
</event>
<event>
 5    0  0.1467858E+000  0.1941428E+03  0.7546771E-02  0.1154777E+00
         21   -1    0    0  504  501  0.00000000000E+00  0.00000000000E+00  0.55658903204E+03  0.55658903204E+03  0.00000000000E+00 0.  1.
         21   -1    0    0  501  502 -0.00000000000E+00 -0.00000000000E+00 -0.11817418523E+03  0.11817418523E+03  0.00000000000E+00 0.  1.
         25    1    1    2    0    0 -0.17296270042E+03  0.10420559231E+03  0.23627756994E+03  0.33500297202E+03  0.12500000000E+03 0.  0.
         21    1    1    2  503  502  0.34744794298E+02 -0.11524948970E+03  0.14833084870E+03  0.19102797252E+03  0.00000000000E+00 0.  1.
         21    1    1    2  504  503  0.13821790612E+03  0.11043897393E+02  0.53806428170E+02  0.14873227274E+03  0.00000000000E+00 0.  1.
<mgrwt>
<rscale>  4 0.19414285E+03</rscale>
<asrwt>0</asrwt>
<pdfrwt beam="1">  1       21 0.85629080E-01 0.19414285E+03</pdfrwt>
<pdfrwt beam="2">  1       21 0.18180644E-01 0.19414285E+03</pdfrwt>
<totfact> 0.32448232E+04</totfact>
</mgrwt>
</event>
<event>
 5    0  0.1467858E+000  0.2441548E+03  0.7546771E-02  0.1117056E+00
         21   -1    0    0  504  501  0.00000000000E+00  0.00000000000E+00  0.42122610880E+03  0.42122610880E+03  0.00000000000E+00 0. -1.
         21   -1    0    0  501  502 -0.00000000000E+00 -0.00000000000E+00 -0.28295272679E+03  0.28295272679E+03  0.00000000000E+00 0. -1.
         25    1    1    2    0    0  0.45068735932E+02 -0.20483013301E+03 -0.19053796992E+03  0.30970355556E+03  0.12500000000E+03 0.  0.
         21    1    1    2  503  502 -0.53684153606E+01  0.85849645382E+02  0.88590207407E+02  0.12347957865E+03  0.00000000000E+00 0. -1.
         21    1    1    2  504  503 -0.39700320572E+02  0.11898048763E+03  0.24022114452E+03  0.27099570138E+03  0.00000000000E+00 0. -1.
<mgrwt>
<rscale>  4 0.24415482E+03</rscale>
<asrwt>0</asrwt>
<pdfrwt beam="1">  1       21 0.64804017E-01 0.24415482E+03</pdfrwt>
<pdfrwt beam="2">  1       21 0.43531189E-01 0.24415482E+03</pdfrwt>
<totfact> 0.10775773E+04</totfact>
</mgrwt>
</event>
<event>
 5    0  0.1467858E+000  0.2055420E+03  0.7546771E-02  0.1145146E+00
         21   -1    0    0  504  501  0.00000000000E+00  0.00000000000E+00  0.14097601976E+03  0.14097601976E+03  0.00000000000E+00 0.  1.
         21   -1    0    0  501  502 -0.00000000000E+00 -0.00000000000E+00 -0.64610127229E+03  0.64610127229E+03  0.00000000000E+00 0.  1.
         25    1    1    2    0    0 -0.22785519232E+03  0.16413082842E+02 -0.39246864062E+03  0.47100319725E+03  0.12500000000E+03 0.  0.
         21    1    1    2  503  502  0.14801443936E+03  0.44004206140E+02  0.13509308769E+02  0.15500692191E+03  0.00000000000E+00 0.  1.
         21    1    1    2  504  503  0.79840752959E+02 -0.60417288982E+02 -0.12616592068E+03  0.16106717288E+03  0.00000000000E+00 0.  1.
<mgrwt>
<rscale>  4 0.20554198E+03</rscale>
<asrwt>0</asrwt>
<pdfrwt beam="1">  1       21 0.21688618E-01 0.20554198E+03</pdfrwt>
<pdfrwt beam="2">  1       21 0.99400196E-01 0.20554198E+03</pdfrwt>
<totfact> 0.16375758E+04</totfact>
</mgrwt>
</event>
<event>
 5    0  0.1467858E+000  0.2007198E+03  0.7546771E-02  0.1149133E+00
         21   -1    0    0  504  501  0.00000000000E+00  0.00000000000E+00  0.11409965692E+03  0.11409965692E+03  0.00000000000E+00 0. -1.
         21   -1    0    0  501  502 -0.00000000000E+00 -0.00000000000E+00 -0.50134258280E+03  0.50134258280E+03  0.00000000000E+00 0. -1.
         25    1    1    2    0    0 -0.30623159974E+02  0.20213153807E+03 -0.16815884107E+03  0.29274106723E+03  0.12500000000E+03 0.  0.
         21    1    1    2  503  502  0.70203976546E+02 -0.11609444199E+03 -0.90821907467E+02  0.16326400908E+03  0.00000000000E+00 0. -1.
         21    1    1    2  504  503 -0.39580816572E+02 -0.86037096078E+02 -0.12826217734E+03  0.15943716342E+03  0.00000000000E+00 0. -1.
<mgrwt>
<rscale>  4 0.20071985E+03</rscale>
<asrwt>0</asrwt>
<pdfrwt beam="1">  1       21 0.17553793E-01 0.20071985E+03</pdfrwt>
<pdfrwt beam="2">  1       21 0.77129628E-01 0.20071985E+03</pdfrwt>
<totfact> 0.43733659E+04</totfact>
</mgrwt>
</event>
<event>
 5    0  0.1467858E+000  0.2643259E+03  0.7546771E-02  0.1104572E+00
         21   -1    0    0  504  501  0.00000000000E+00  0.00000000000E+00  0.74319591973E+03  0.74319591973E+03  0.00000000000E+00 0. -1.
         21   -1    0    0  501  502 -0.00000000000E+00 -0.00000000000E+00 -0.85872219557E+02  0.85872219557E+02  0.00000000000E+00 0. -1.
         25    1    1    2    0    0 -0.20525313193E+03  0.11006510128E+03  0.32245523277E+03  0.41694790062E+03  0.12500000000E+03 0.  0.
         21    1    1    2  503  502  0.83525849700E+02 -0.28793871162E+02  0.17049575183E+03  0.19202722718E+03  0.00000000000E+00 0.  1.
         21    1    1    2  504  503  0.12172728223E+03 -0.81271230119E+02  0.16437271557E+03  0.22009301149E+03  0.00000000000E+00 0. -1.
<mgrwt>
<rscale>  4 0.26432589E+03</rscale>
<asrwt>0</asrwt>
<pdfrwt beam="1">  1       21 0.11433783E+00 0.26432589E+03</pdfrwt>
<pdfrwt beam="2">  1       21 0.13211111E-01 0.26432589E+03</pdfrwt>
<totfact> 0.28279068E+04</totfact>
</mgrwt>
</event>
<event>
 5    0  0.1467858E+000  0.2616271E+03  0.7546771E-02  0.1106170E+00
         21   -1    0    0  504  501  0.00000000000E+00  0.00000000000E+00  0.53428376506E+02  0.53428376506E+02  0.00000000000E+00 0.  1.
         21   -1    0    0  501  502 -0.00000000000E+00 -0.00000000000E+00 -0.12582946262E+04  0.12582946262E+04  0.00000000000E+00 0.  1.
         25    1    1    2    0    0  0.22983236761E+03 -0.89771940515E+00 -0.50438286996E+03  0.56819961511E+03  0.12500000000E+03 0.  0.
         21    1    1    2  503  502 -0.15710937895E+03  0.22362524623E+02 -0.57869865955E+03  0.60006297839E+03  0.00000000000E+00 0.  1.
         21    1    1    2  504  503 -0.72722988654E+02 -0.21464805218E+02 -0.12178472019E+03  0.14346040922E+03  0.00000000000E+00 0.  1.
<mgrwt>
<rscale>  4 0.26162707E+03</rscale>
<asrwt>0</asrwt>
<pdfrwt beam="1">  1       21 0.82197506E-02 0.26162707E+03</pdfrwt>
<pdfrwt beam="2">  1       21 0.19358378E+00 0.26162707E+03</pdfrwt>
<totfact> 0.16138206E+04</totfact>
</mgrwt>
</event>
<event>
 5    0  0.1467858E+000  0.2449825E+03  0.7546771E-02  0.1116517E+00
         21   -1    0    0  504  501  0.00000000000E+00  0.00000000000E+00  0.78739601436E+02  0.78739601436E+02  0.00000000000E+00 0. -1.
         21   -1    0    0  501  502 -0.00000000000E+00 -0.00000000000E+00 -0.72005771101E+03  0.72005771101E+03  0.00000000000E+00 0. -1.
         25    1    1    2    0    0  0.14474032823E+03  0.15310674117E+03 -0.29747912909E+03  0.38537030120E+03  0.12500000000E+03 0.  0.
         21    1    1    2  503  502 -0.87887980000E+02 -0.75291005661E+02 -0.26410227687E+03  0.28834535753E+03  0.00000000000E+00 0. -1.
         21    1    1    2  504  503 -0.56852348229E+02 -0.77815735507E+02 -0.79736703619E+02  0.12508165371E+03  0.00000000000E+00 0. -1.
<mgrwt>
<rscale>  4 0.24498252E+03</rscale>
<asrwt>0</asrwt>
<pdfrwt beam="1">  1       21 0.12113785E-01 0.24498252E+03</pdfrwt>
<pdfrwt beam="2">  1       21 0.11077811E+00 0.24498252E+03</pdfrwt>
<totfact> 0.36059543E+04</totfact>
</mgrwt>
</event>
<event>
 5    0  0.1467858E+000  0.2600512E+03  0.7546771E-02  0.1107112E+00
         21   -1    0    0  504  501  0.00000000000E+00  0.00000000000E+00  0.59671179178E+03  0.59671179178E+03  0.00000000000E+00 0.  1.
         21   -1    0    0  501  502 -0.00000000000E+00 -0.00000000000E+00 -0.10308740354E+03  0.10308740354E+03  0.00000000000E+00 0.  1.
         25    1    1    2    0    0  0.50569634322E+02  0.22236087790E+03  0.27799227236E+03  0.38066566883E+03  0.12500000000E+03 0.  0.
         21    1    1    2  503  502 -0.31193336528E+02 -0.20419615118E+03  0.17573425384E+03  0.27120401984E+03  0.00000000000E+00 0.  1.
         21    1    1    2  504  503 -0.19376297794E+02 -0.18164726713E+02  0.39897862038E+02  0.47929506652E+02  0.00000000000E+00 0. -1.
<mgrwt>
<rscale>  4 0.26005124E+03</rscale>
<asrwt>0</asrwt>
<pdfrwt beam="1">  1       21 0.91801812E-01 0.26005124E+03</pdfrwt>
<pdfrwt beam="2">  1       21 0.15859601E-01 0.26005124E+03</pdfrwt>
<totfact> 0.34397706E+04</totfact>
</mgrwt>
</event>
<event>
 5    0  0.1467858E+000  0.2249027E+03  0.7546771E-02  0.1130280E+00
         21   -1    0    0  504  501  0.00000000000E+00  0.00000000000E+00  0.11630398525E+04  0.11630398525E+04  0.00000000000E+00 0.  1.
         21   -1    0    0  501  502 -0.00000000000E+00 -0.00000000000E+00 -0.74707008385E+02  0.74707008385E+02  0.00000000000E+00 0.  1.
         25    1    1    2    0    0 -0.23329721951E+03  0.20220397127E+02  0.38523883903E+03  0.46783589023E+03  0.12500000000E+03 0.  0.
         21    1    1    2  503  502  0.16321088747E+03 -0.38020462168E+01  0.18455608385E+03  0.24640048179E+03  0.00000000000E+00 0.  1.
         21    1    1    2  504  503  0.70086332040E+02 -0.16418350910E+02  0.51853792121E+03  0.52351048883E+03  0.00000000000E+00 0.  1.
<mgrwt>
<rscale>  4 0.22490273E+03</rscale>
<asrwt>0</asrwt>
<pdfrwt beam="1">  1       21 0.17892920E+00 0.22490273E+03</pdfrwt>
<pdfrwt beam="2">  1       21 0.11493387E-01 0.22490273E+03</pdfrwt>
<totfact> 0.11447953E+04</totfact>
</mgrwt>
</event>
<event>
 5    0  0.1467858E+000  0.3223456E+03  0.7546771E-02  0.1074575E+00
         21   -1    0    0  504  501  0.00000000000E+00  0.00000000000E+00  0.19498543177E+03  0.19498543177E+03  0.00000000000E+00 0.  1.
         21   -1    0    0  501  502 -0.00000000000E+00 -0.00000000000E+00 -0.13125082136E+04  0.13125082136E+04  0.00000000000E+00 0. -1.
         25    1    1    2    0    0  0.27819869004E+03 -0.10434155401E+03 -0.11585619558E+04  0.12025691150E+04  0.12500000000E+03 0.  0.
         21    1    1    2  503  502 -0.12772177847E+02  0.17671797761E+02 -0.37878341405E+01  0.22130717353E+02  0.00000000000E+00 0.  1.
         21    1    1    2  504  503 -0.26542651219E+03  0.86669756249E+02  0.44827008067E+02  0.28279381301E+03  0.00000000000E+00 0.  1.
<mgrwt>
<rscale>  4 0.32234558E+03</rscale>
<asrwt>0</asrwt>
<pdfrwt beam="1">  1       21 0.29997760E-01 0.32234558E+03</pdfrwt>
<pdfrwt beam="2">  1       21 0.20192434E+00 0.32234558E+03</pdfrwt>
<totfact> 0.12465739E+03</totfact>
</mgrwt>
</event>
<event>
 5    0  0.1467858E+000  0.2914794E+03  0.7546771E-02  0.1089579E+00
         21   -1    0    0  504  501  0.00000000000E+00  0.00000000000E+00  0.17792022113E+03  0.17792022113E+03  0.00000000000E+00 0.  1.
         21   -1    0    0  501  502 -0.00000000000E+00 -0.00000000000E+00 -0.44673829603E+03  0.44673829603E+03  0.00000000000E+00 0.  1.
         25    1    1    2    0    0  0.25483365863E+03  0.66295346282E+02 -0.98562581187E+02  0.30769278334E+03  0.12500000000E+03 0.  0.
         21    1    1    2  503  502 -0.23094654403E+03 -0.67130196731E+02 -0.13956824472E+03  0.27806845281E+03  0.00000000000E+00 0.  1.
         21    1    1    2  504  503 -0.23887114596E+02  0.83485044938E+00 -0.30687248998E+02  0.38897281011E+02  0.00000000000E+00 0.  1.
<mgrwt>
<rscale>  4 0.29147944E+03</rscale>
<asrwt>0</asrwt>
<pdfrwt beam="1">  1       21 0.27372342E-01 0.29147944E+03</pdfrwt>
<pdfrwt beam="2">  1       21 0.68728968E-01 0.29147944E+03</pdfrwt>
<totfact> 0.23398382E+04</totfact>
</mgrwt>
</event>
<event>
 5    0  0.1467858E+000  0.2577197E+03  0.7546771E-02  0.1108521E+00
         21   -1    0    0  504  501  0.00000000000E+00  0.00000000000E+00  0.30394088321E+03  0.30394088321E+03  0.00000000000E+00 0.  1.
         21   -1    0    0  501  502 -0.00000000000E+00 -0.00000000000E+00 -0.27035105674E+03  0.27035105674E+03  0.00000000000E+00 0.  1.
         25    1    1    2    0    0  0.91102174817E+02  0.20614279277E+03 -0.12421941852E+03  0.28609425231E+03  0.12500000000E+03 0.  0.
         21    1    1    2  503  502 -0.49085486208E+02 -0.15228092769E+03  0.64391136755E+02  0.17246763287E+03  0.00000000000E+00 0.  1.
         21    1    1    2  504  503 -0.42016688609E+02 -0.53861865080E+02  0.93418108231E+02  0.11573005477E+03  0.00000000000E+00 0.  1.
<mgrwt>
<rscale>  4 0.25771973E+03</rscale>
<asrwt>0</asrwt>
<pdfrwt beam="1">  1       21 0.46760136E-01 0.25771973E+03</pdfrwt>
<pdfrwt beam="2">  1       21 0.41592471E-01 0.25771973E+03</pdfrwt>
<totfact> 0.23561659E+04</totfact>
</mgrwt>
</event>
<event>
 5    0  0.1467858E+000  0.3094879E+03  0.7546771E-02  0.1080592E+00
         21   -1    0    0  504  501  0.00000000000E+00  0.00000000000E+00  0.13337081786E+04  0.13337081786E+04  0.00000000000E+00 0. -1.
         21   -1    0    0  501  502 -0.00000000000E+00 -0.00000000000E+00 -0.15980329381E+03  0.15980329381E+03  0.00000000000E+00 0.  1.
         25    1    1    2    0    0 -0.14300217940E+03  0.24435254768E+03  0.26435894998E+02  0.31061495041E+03  0.12500000000E+03 0.  0.
         21    1    1    2  503  502  0.12758413046E+03 -0.20695617383E+03  0.90554354103E+03  0.93761275212E+03  0.00000000000E+00 0. -1.
         21    1    1    2  504  503  0.15418048932E+02 -0.37396373857E+02  0.24192544878E+03  0.24528376990E+03  0.00000000000E+00 0. -1.
<mgrwt>
<rscale>  4 0.30948795E+03</rscale>
<asrwt>0</asrwt>
<pdfrwt beam="1">  1       21 0.20518587E+00 0.30948795E+03</pdfrwt>
<pdfrwt beam="2">  1       21 0.24585123E-01 0.30948795E+03</pdfrwt>
<totfact> 0.17644143E+03</totfact>
</mgrwt>
</event>
<event>
 5    0  0.1467858E+000  0.2475670E+03  0.7546771E-02  0.1114852E+00
         21   -1    0    0  504  501  0.00000000000E+00  0.00000000000E+00  0.16030900055E+03  0.16030900055E+03  0.00000000000E+00 0. -1.
         21   -1    0    0  501  502 -0.00000000000E+00 -0.00000000000E+00 -0.11634994800E+04  0.11634994800E+04  0.00000000000E+00 0.  1.
         25    1    1    2    0    0 -0.24440846750E+02  0.21229000007E+03 -0.10571637945E+04  0.10857645635E+04  0.12500000000E+03 0.  0.
         21    1    1    2  503  502  0.91832121970E-01 -0.10661973750E+03  0.71252102487E+02  0.12823665220E+03  0.00000000000E+00 0. -1.
         21    1    1    2  504  503  0.24349014628E+02 -0.10567026257E+03 -0.17278787460E+02  0.10980726479E+03  0.00000000000E+00 0. -1.
<mgrwt>
<rscale>  4 0.24756696E+03</rscale>
<asrwt>0</asrwt>
<pdfrwt beam="1">  1       21 0.24662923E-01 0.24756696E+03</pdfrwt>
<pdfrwt beam="2">  1       21 0.17899992E+00 0.24756696E+03</pdfrwt>
<totfact> 0.27399535E+03</totfact>
</mgrwt>
</event>
<event>
 5    0  0.1467858E+000  0.2688088E+03  0.7546771E-02  0.1101963E+00
         21   -1    0    0  504  501  0.00000000000E+00  0.00000000000E+00  0.32630279570E+03  0.32630279570E+03  0.00000000000E+00 0. -1.
         21   -1    0    0  501  502 -0.00000000000E+00 -0.00000000000E+00 -0.12542922416E+04  0.12542922416E+04  0.00000000000E+00 0. -1.
         25    1    1    2    0    0  0.13079449390E+03  0.17090732861E+03 -0.11488818677E+04  0.11755301190E+04  0.12500000000E+03 0.  0.
         21    1    1    2  503  502  0.38127126206E+01  0.26453092190E+02 -0.42038117677E+02  0.49814718726E+02  0.00000000000E+00 0. -1.
         21    1    1    2  504  503 -0.13460720652E+03 -0.19736042080E+03  0.26293053948E+03  0.35525019963E+03  0.00000000000E+00 0. -1.
<mgrwt>
<rscale>  4 0.26880885E+03</rscale>
<asrwt>0</asrwt>
<pdfrwt beam="1">  1       21 0.50200430E-01 0.26880885E+03</pdfrwt>
<pdfrwt beam="2">  1       21 0.19296804E+00 0.26880885E+03</pdfrwt>
<totfact> 0.52143961E+02</totfact>
</mgrwt>
</event>
<event>
 5    0  0.1467858E+000  0.3357129E+03  0.7546771E-02  0.1068637E+00
         21   -1    0    0  504  501  0.00000000000E+00  0.00000000000E+00  0.96645113136E+03  0.96645113136E+03  0.00000000000E+00 0. -1.
         21   -1    0    0  501  502 -0.00000000000E+00 -0.00000000000E+00 -0.19963236589E+03  0.19963236589E+03  0.00000000000E+00 0. -1.
         25    1    1    2    0    0  0.31157115797E+03  0.12449104101E+01 -0.57405601281E+00  0.33571336854E+03  0.12500000000E+03 0.  0.
         21    1    1    2  503  502 -0.27121804455E+03  0.17759570869E+02  0.67847453576E+03  0.73089145960E+03  0.00000000000E+00 0. -1.
         21    1    1    2  504  503 -0.40353113418E+02 -0.19004481279E+02  0.88918285717E+02  0.99478669101E+02  0.00000000000E+00 0.  1.
<mgrwt>
<rscale>  4 0.33571288E+03</rscale>
<asrwt>0</asrwt>
<pdfrwt beam="1">  1       21 0.14868479E+00 0.33571288E+03</pdfrwt>
<pdfrwt beam="2">  1       21 0.30712672E-01 0.33571288E+03</pdfrwt>
<totfact> 0.28211737E+03</totfact>
</mgrwt>
</event>
<event>
 5    0  0.1467858E+000  0.3695587E+03  0.7546771E-02  0.1054862E+00
         21   -1    0    0  504  501  0.00000000000E+00  0.00000000000E+00  0.77093849937E+03  0.77093849937E+03  0.00000000000E+00 0.  1.
         21   -1    0    0  501  502 -0.00000000000E+00 -0.00000000000E+00 -0.40451426511E+03  0.40451426511E+03  0.00000000000E+00 0.  1.
         25    1    1    2    0    0  0.48712404287E+02  0.34434823389E+03 -0.26198996632E+03  0.45300369421E+03  0.12500000000E+03 0.  0.
         21    1    1    2  503  502  0.15440225121E+02 -0.19292599277E+02  0.35746998786E+02  0.43456332805E+02  0.00000000000E+00 0.  1.
         21    1    1    2  504  503 -0.64152629409E+02 -0.32505563461E+03  0.59266720180E+03  0.67899273747E+03  0.00000000000E+00 0.  1.
<mgrwt>
<rscale>  4 0.36955866E+03</rscale>
<asrwt>0</asrwt>
<pdfrwt beam="1">  1       21 0.11860592E+00 0.36955866E+03</pdfrwt>
<pdfrwt beam="2">  1       21 0.62232964E-01 0.36955866E+03</pdfrwt>
<totfact> 0.11489964E+03</totfact>
</mgrwt>
</event>
<event>
 5    0  0.1467858E+000  0.2514262E+03  0.7546771E-02  0.1112407E+00
         21   -1    0    0  504  501  0.00000000000E+00  0.00000000000E+00  0.91123366514E+03  0.91123366514E+03  0.00000000000E+00 0.  1.
         21   -1    0    0  501  502 -0.00000000000E+00 -0.00000000000E+00 -0.14517677932E+03  0.14517677932E+03  0.00000000000E+00 0. -1.
         25    1    1    2    0    0 -0.13558382800E+03 -0.20229669115E+03  0.51729933602E+02  0.27858196585E+03  0.12500000000E+03 0.  0.
         21    1    1    2  503  502  0.96896118246E+02  0.19169435553E+03  0.70451688469E+03  0.73653216121E+03  0.00000000000E+00 0.  1.
         21    1    1    2  504  503  0.38687709756E+02  0.10602335620E+02  0.98100675225E+01  0.41296317409E+02  0.00000000000E+00 0.  1.
<mgrwt>
<rscale>  4 0.25142622E+03</rscale>
<asrwt>0</asrwt>
<pdfrwt beam="1">  1       21 0.14018979E+00 0.25142622E+03</pdfrwt>
<pdfrwt beam="2">  1       21 0.22334890E-01 0.25142622E+03</pdfrwt>
<totfact> 0.64136820E+03</totfact>
</mgrwt>
</event>
<event>
 5    0  0.1467858E+000  0.2612628E+03  0.7546771E-02  0.1106387E+00
         21   -1    0    0  504  501  0.00000000000E+00  0.00000000000E+00  0.19331874775E+04  0.19331874775E+04  0.00000000000E+00 0.  1.
         21   -1    0    0  501  502 -0.00000000000E+00 -0.00000000000E+00 -0.66280789388E+02  0.66280789388E+02  0.00000000000E+00 0. -1.
         25    1    1    2    0    0  0.22136350255E+03  0.35191984564E+02  0.28053937646E+03  0.38022048575E+03  0.12500000000E+03 0.  0.
         21    1    1    2  503  502  0.31561843183E+02 -0.59159027706E+02  0.43885095390E+03  0.44394380302E+03  0.00000000000E+00 0.  1.
         21    1    1    2  504  503 -0.25292534573E+03  0.23967043142E+02  0.11475163578E+04  0.11753039781E+04  0.00000000000E+00 0.  1.
<mgrwt>
<rscale>  4 0.26126278E+03</rscale>
<asrwt>0</asrwt>
<pdfrwt beam="1">  1       21 0.29741341E+00 0.26126278E+03</pdfrwt>
<pdfrwt beam="2">  1       21 0.10197046E-01 0.26126278E+03</pdfrwt>
<totfact> 0.25755511E+03</totfact>
</mgrwt>
</event>
<event>
 5    0  0.1467858E+000  0.2613654E+03  0.7546771E-02  0.1106326E+00
         21   -1    0    0  504  501  0.00000000000E+00  0.00000000000E+00  0.12834894705E+03  0.12834894705E+03  0.00000000000E+00 0.  1.
         21   -1    0    0  501  502 -0.00000000000E+00 -0.00000000000E+00 -0.87436880488E+03  0.87436880488E+03  0.00000000000E+00 0.  1.
         25    1    1    2    0    0  0.10371240313E+03 -0.23086288324E+03 -0.65550737702E+03  0.71370081599E+03  0.12500000000E+03 0.  0.
         21    1    1    2  503  502 -0.74340138047E+02  0.21240638113E+03 -0.41286241245E+02  0.22879571802E+03  0.00000000000E+00 0.  1.
         21    1    1    2  504  503 -0.29372265082E+02  0.18456502105E+02 -0.49226239564E+02  0.60221217919E+02  0.00000000000E+00 0.  1.
<mgrwt>
<rscale>  4 0.26136539E+03</rscale>
<asrwt>0</asrwt>
<pdfrwt beam="1">  1       21 0.19745993E-01 0.26136539E+03</pdfrwt>
<pdfrwt beam="2">  1       21 0.13451827E+00 0.26136539E+03</pdfrwt>
<totfact> 0.89553553E+03</totfact>
</mgrwt>
</event>
<event>
 5    0  0.1467858E+000  0.2477895E+03  0.7546771E-02  0.1114710E+00
         21   -1    0    0  504  501  0.00000000000E+00  0.00000000000E+00  0.50246602171E+02  0.50246602171E+02  0.00000000000E+00 0. -1.
         21   -1    0    0  501  502 -0.00000000000E+00 -0.00000000000E+00 -0.15083105417E+04  0.15083105417E+04  0.00000000000E+00 0. -1.
         25    1    1    2    0    0  0.19596049574E+03  0.85872788308E+02 -0.11508166881E+04  0.11771910215E+04  0.12500000000E+03 0.  0.
         21    1    1    2  503  502 -0.93105745267E+02 -0.51119350958E+02 -0.92980723148E+02  0.14116402772E+03  0.00000000000E+00 0. -1.
         21    1    1    2  504  503 -0.10285475048E+03 -0.34753437350E+02 -0.21426652836E+03  0.24020209466E+03  0.00000000000E+00 0. -1.
<mgrwt>
<rscale>  4 0.24778953E+03</rscale>
<asrwt>0</asrwt>
<pdfrwt beam="1">  1       21 0.77302465E-02 0.24778953E+03</pdfrwt>
<pdfrwt beam="2">  1       21 0.23204778E+00 0.24778953E+03</pdfrwt>
<totfact> 0.10351327E+04</totfact>
</mgrwt>
</event>
<event>
 5    0  0.1467858E+000  0.2930676E+03  0.7546771E-02  0.1088758E+00
         21   -1    0    0  504  501  0.00000000000E+00  0.00000000000E+00  0.94137924354E+02  0.94137924354E+02  0.00000000000E+00 0. -1.
         21   -1    0    0  501  502 -0.00000000000E+00 -0.00000000000E+00 -0.89528207375E+03  0.89528207375E+03  0.00000000000E+00 0. -1.
         25    1    1    2    0    0 -0.24089977718E+03  0.11059336166E+03 -0.37066940410E+03  0.47252978893E+03  0.12500000000E+03 0.  0.
         21    1    1    2  503  502  0.55045176438E+02 -0.80383533241E+02 -0.16002793369E+03  0.18735106999E+03  0.00000000000E+00 0.  1.
         21    1    1    2  504  503  0.18585460074E+03 -0.30209828423E+02 -0.27044681161E+03  0.32953913919E+03  0.00000000000E+00 0. -1.
<mgrwt>
<rscale>  4 0.29306756E+03</rscale>
<asrwt>0</asrwt>
<pdfrwt beam="1">  1       21 0.14482757E-01 0.29306756E+03</pdfrwt>
<pdfrwt beam="2">  1       21 0.13773571E+00 0.29306756E+03</pdfrwt>
<totfact> 0.14727672E+04</totfact>
</mgrwt>
</event>
<event>
 5    0  0.1467858E+000  0.2496299E+03  0.7546771E-02  0.1113539E+00
         21   -1    0    0  504  501  0.00000000000E+00  0.00000000000E+00  0.12037174074E+03  0.12037174074E+03  0.00000000000E+00 0. -1.
         21   -1    0    0  501  502 -0.00000000000E+00 -0.00000000000E+00 -0.92691768421E+03  0.92691768421E+03  0.00000000000E+00 0. -1.
         25    1    1    2    0    0 -0.20318267294E+03  0.69220848158E+02 -0.74779947665E+03  0.78797448035E+03  0.12500000000E+03 0.  0.
         21    1    1    2  503  502  0.19663417637E+03 -0.90493508382E+02 -0.23637058915E+02  0.21774477016E+03  0.00000000000E+00 0. -1.
         21    1    1    2  504  503  0.65484965693E+01  0.21272660224E+02 -0.35109407898E+02  0.41570174444E+02  0.00000000000E+00 0. -1.
<mgrwt>
<rscale>  4 0.24962987E+03</rscale>
<asrwt>0</asrwt>
<pdfrwt beam="1">  1       21 0.18518729E-01 0.24962987E+03</pdfrwt>
<pdfrwt beam="2">  1       21 0.14260272E+00 0.24962987E+03</pdfrwt>
<totfact> 0.87372877E+03</totfact>
</mgrwt>
</event>
<event>
 5    0  0.1467858E+000  0.2214986E+03  0.7546771E-02  0.1132771E+00
         21   -1    0    0  504  501  0.00000000000E+00  0.00000000000E+00  0.28310986307E+03  0.28310986307E+03  0.00000000000E+00 0. -1.
         21   -1    0    0  501  502 -0.00000000000E+00 -0.00000000000E+00 -0.28728986519E+03  0.28728986519E+03  0.00000000000E+00 0.  1.
         25    1    1    2    0    0 -0.19740580087E+03  0.56418798876E+02 -0.16267171430E+03  0.29023993129E+03  0.12500000000E+03 0.  0.
         21    1    1    2  503  502  0.17470920234E+03 -0.39524587049E+02  0.17241896860E+03  0.24862381039E+03  0.00000000000E+00 0. -1.
         21    1    1    2  504  503  0.22696598531E+02 -0.16894211827E+02 -0.13927256422E+02  0.31535986580E+02  0.00000000000E+00 0.  1.
<mgrwt>
<rscale>  4 0.22149860E+03</rscale>
<asrwt>0</asrwt>
<pdfrwt beam="1">  1       21 0.43555364E-01 0.22149860E+03</pdfrwt>
<pdfrwt beam="2">  1       21 0.44198441E-01 0.22149860E+03</pdfrwt>
<totfact> 0.24512554E+04</totfact>
</mgrwt>
</event>
<event>
 5    0  0.1467858E+000  0.2512978E+03  0.7546771E-02  0.1112487E+00
         21   -1    0    0  504  501  0.00000000000E+00  0.00000000000E+00  0.24646751864E+03  0.24646751864E+03  0.00000000000E+00 0.  1.
         21   -1    0    0  501  502 -0.00000000000E+00 -0.00000000000E+00 -0.28441200280E+03  0.28441200280E+03  0.00000000000E+00 0.  1.
         25    1    1    2    0    0  0.21796413647E+03 -0.41475761762E+01  0.96549063999E+02  0.26920677728E+03  0.12500000000E+03 0.  0.
         21    1    1    2  503  502 -0.30949094591E+02 -0.10770756388E+02 -0.39692494675E+02  0.51471834848E+02  0.00000000000E+00 0. -1.
         21    1    1    2  504  503 -0.18701504188E+03  0.14918332565E+02 -0.94801053482E+02  0.21020090932E+03  0.00000000000E+00 0.  1.
<mgrwt>
<rscale>  4 0.25129777E+03</rscale>
<asrwt>0</asrwt>
<pdfrwt beam="1">  1       21 0.37918080E-01 0.25129777E+03</pdfrwt>
<pdfrwt beam="2">  1       21 0.43755693E-01 0.25129777E+03</pdfrwt>
<totfact> 0.32713601E+04</totfact>
</mgrwt>
</event>
<event>
 5    0  0.1467858E+000  0.2917520E+03  0.7546771E-02  0.1089438E+00
         21   -1    0    0  504  501  0.00000000000E+00  0.00000000000E+00  0.21128759927E+04  0.21128759927E+04  0.00000000000E+00 0.  1.
         21   -1    0    0  501  502 -0.00000000000E+00 -0.00000000000E+00 -0.45365678588E+02  0.45365678588E+02  0.00000000000E+00 0.  1.
         25    1    1    2    0    0 -0.21287850564E+03  0.15926817046E+03  0.81006520024E+03  0.86169265804E+03  0.12500000000E+03 0.  0.
         21    1    1    2  503  502  0.17593816684E+03 -0.19634983543E+03  0.10566835662E+04  0.10890765150E+04  0.00000000000E+00 0.  1.
         21    1    1    2  504  503  0.36940338803E+02  0.37081664979E+02  0.20076154766E+03  0.20747249824E+03  0.00000000000E+00 0. -1.
<mgrwt>
<rscale>  4 0.29175198E+03</rscale>
<asrwt>0</asrwt>
<pdfrwt beam="1">  1       21 0.32505777E+00 0.29175198E+03</pdfrwt>
<pdfrwt beam="2">  1       21 0.69793368E-02 0.29175198E+03</pdfrwt>
<totfact> 0.33632425E+03</totfact>
</mgrwt>
</event>
<event>
 5    0  0.1467858E+000  0.2419979E+03  0.7546771E-02  0.1118469E+00
         21   -1    0    0  504  501  0.00000000000E+00  0.00000000000E+00  0.71965065595E+02  0.71965065595E+02  0.00000000000E+00 0.  1.
         21   -1    0    0  501  502 -0.00000000000E+00 -0.00000000000E+00 -0.91960974242E+03  0.91960974242E+03  0.00000000000E+00 0.  1.
         25    1    1    2    0    0 -0.71103794548E+01 -0.20709282228E+03 -0.68403395213E+03  0.72557938381E+03  0.12500000000E+03 0.  0.
         21    1    1    2  503  502  0.11550460358E+02  0.24696987084E+02 -0.22228425997E+02  0.35177510256E+02  0.00000000000E+00 0.  1.
         21    1    1    2  504  503 -0.44400809035E+01  0.18239583520E+03 -0.14138229870E+03  0.23081791395E+03  0.00000000000E+00 0.  1.
<mgrwt>
<rscale>  4 0.24199792E+03</rscale>
<asrwt>0</asrwt>
<pdfrwt beam="1">  1       21 0.11071549E-01 0.24199792E+03</pdfrwt>
<pdfrwt beam="2">  1       21 0.14147842E+00 0.24199792E+03</pdfrwt>
<totfact> 0.22906301E+04</totfact>
</mgrwt>
</event>
<event>
 5    0  0.1467858E+000  0.2741441E+03  0.7546771E-02  0.1098931E+00
         21   -1    0    0  504  501  0.00000000000E+00  0.00000000000E+00  0.76797453067E+03  0.76797453067E+03  0.00000000000E+00 0.  1.
         21   -1    0    0  501  502 -0.00000000000E+00 -0.00000000000E+00 -0.92015620052E+02  0.92015620052E+02  0.00000000000E+00 0.  1.
         25    1    1    2    0    0 -0.11834898181E+03 -0.21336241834E+03  0.39820902551E+03  0.48345158088E+03  0.12500000000E+03 0.  0.
         21    1    1    2  503  502  0.88510324277E+02  0.17999557841E+03  0.26001558979E+03  0.32839091443E+03  0.00000000000E+00 0.  1.
         21    1    1    2  504  503  0.29838657538E+02  0.33366839938E+02  0.17734295326E+02  0.48147655413E+02  0.00000000000E+00 0.  1.
<mgrwt>
<rscale>  4 0.27414413E+03</rscale>
<asrwt>0</asrwt>
<pdfrwt beam="1">  1       21 0.11814992E+00 0.27414413E+03</pdfrwt>
<pdfrwt beam="2">  1       21 0.14156250E-01 0.27414413E+03</pdfrwt>
<totfact> 0.22893163E+04</totfact>
</mgrwt>
</event>
<event>
 5    0  0.1467858E+000  0.2405617E+03  0.7546771E-02  0.1119419E+00
         21   -1    0    0  504  501  0.00000000000E+00  0.00000000000E+00  0.33414954574E+03  0.33414954574E+03  0.00000000000E+00 0. -1.
         21   -1    0    0  501  502 -0.00000000000E+00 -0.00000000000E+00 -0.26474562109E+03  0.26474562109E+03  0.00000000000E+00 0. -1.
         25    1    1    2    0    0  0.13028642412E+03 -0.15896661834E+03  0.23205909680E+03  0.33424745693E+03  0.12500000000E+03 0.  0.
         21    1    1    2  503  502 -0.19516481246E+02  0.13422744153E+02 -0.76288231267E+01  0.24884976253E+02  0.00000000000E+00 0. -1.
         21    1    1    2  504  503 -0.11076994288E+03  0.14554387418E+03 -0.15502634902E+03  0.23976273365E+03  0.00000000000E+00 0. -1.
<mgrwt>
<rscale>  4 0.24056171E+03</rscale>
<asrwt>0</asrwt>
<pdfrwt beam="1">  1       21 0.51407622E-01 0.24056171E+03</pdfrwt>
<pdfrwt beam="2">  1       21 0.40730096E-01 0.24056171E+03</pdfrwt>
<totfact> 0.20332748E+04</totfact>
</mgrwt>
</event>
<event>
 5    0  0.1467858E+000  0.2672647E+03  0.7546771E-02  0.1102855E+00
         21   -1    0    0  504  501  0.00000000000E+00  0.00000000000E+00  0.82544173868E+02  0.82544173868E+02  0.00000000000E+00 0. -1.
         21   -1    0    0  501  502 -0.00000000000E+00 -0.00000000000E+00 -0.10944997731E+04  0.10944997731E+04  0.00000000000E+00 0. -1.
         25    1    1    2    0    0  0.20344854977E+03 -0.12005873427E+03 -0.81360314792E+03  0.85637637425E+03  0.12500000000E+03 0.  0.
         21    1    1    2  503  502 -0.11432930722E+03  0.85557101082E+02 -0.16780356324E+03  0.22033892954E+03  0.00000000000E+00 0. -1.
         21    1    1    2  504  503 -0.89119242549E+02  0.34501633190E+02 -0.30548888121E+02  0.10032864322E+03  0.00000000000E+00 0. -1.
<mgrwt>
<rscale>  4 0.26726469E+03</rscale>
<asrwt>0</asrwt>
<pdfrwt beam="1">  1       21 0.12699104E-01 0.26726469E+03</pdfrwt>
<pdfrwt beam="2">  1       21 0.16838457E+00 0.26726469E+03</pdfrwt>
<totfact> 0.11045409E+04</totfact>
</mgrwt>
</event>
<event>
 5    0  0.1467858E+000  0.2584619E+03  0.7546771E-02  0.1108071E+00
         21   -1    0    0  504  501  0.00000000000E+00  0.00000000000E+00  0.35715250544E+03  0.35715250544E+03  0.00000000000E+00 0. -1.
         21   -1    0    0  501  502 -0.00000000000E+00 -0.00000000000E+00 -0.22791591254E+03  0.22791591254E+03  0.00000000000E+00 0. -1.
         25    1    1    2    0    0  0.23022465170E+03 -0.10245404999E+03  0.29370417616E+02  0.28282122276E+03  0.12500000000E+03 0.  0.
         21    1    1    2  503  502 -0.54943584301E+02 -0.93675517587E+01  0.74133214398E+02  0.92748487636E+02  0.00000000000E+00 0. -1.
         21    1    1    2  504  503 -0.17528106740E+03  0.11182160175E+03  0.25732960888E+02  0.20949870759E+03  0.00000000000E+00 0. -1.
<mgrwt>
<rscale>  4 0.25846191E+03</rscale>
<asrwt>0</asrwt>
<pdfrwt beam="1">  1       21 0.54946539E-01 0.25846191E+03</pdfrwt>
<pdfrwt beam="2">  1       21 0.35063987E-01 0.25846191E+03</pdfrwt>
<totfact> 0.23687086E+04</totfact>
</mgrwt>
</event>
<event>
 5    0  0.1467858E+000  0.2411568E+03  0.7546771E-02  0.1119025E+00
         21   -1    0    0  504  501  0.00000000000E+00  0.00000000000E+00  0.11658585536E+03  0.11658585536E+03  0.00000000000E+00 0. -1.
         21   -1    0    0  501  502 -0.00000000000E+00 -0.00000000000E+00 -0.82985629453E+03  0.82985629453E+03  0.00000000000E+00 0. -1.
         25    1    1    2    0    0 -0.83233353585E+02 -0.18868974091E+03 -0.69634805895E+03  0.73692416752E+03  0.12500000000E+03 0.  0.
         21    1    1    2  503  502  0.71449183785E+02  0.16303898705E+03 -0.25932810962E+02  0.17988665278E+03  0.00000000000E+00 0. -1.
         21    1    1    2  504  503  0.11784169800E+02  0.25650753859E+02  0.90104307337E+01  0.29631329592E+02  0.00000000000E+00 0. -1.
<mgrwt>
<rscale>  4 0.24115682E+03</rscale>
<asrwt>0</asrwt>
<pdfrwt beam="1">  1       21 0.17936285E-01 0.24115682E+03</pdfrwt>
<pdfrwt beam="2">  1       21 0.12767020E+00 0.24115682E+03</pdfrwt>
<totfact> 0.12388207E+04</totfact>
</mgrwt>
</event>
<event>
 5    0  0.1467858E+000  0.2482359E+03  0.7546771E-02  0.1114425E+00
         21   -1    0    0  504  501  0.00000000000E+00  0.00000000000E+00  0.28839197736E+03  0.28839197736E+03  0.00000000000E+00 0. -1.
         21   -1    0    0  501  502 -0.00000000000E+00 -0.00000000000E+00 -0.63090173317E+03  0.63090173317E+03  0.00000000000E+00 0.  1.
         25    1    1    2    0    0 -0.19585329166E+03  0.87393067433E+02 -0.55808525456E+03  0.61080292357E+03  0.12500000000E+03 0.  0.
         21    1    1    2  503  502  0.10943386157E+03 -0.52033656514E+02  0.15677429013E+03  0.19814502142E+03  0.00000000000E+00 0. -1.
         21    1    1    2  504  503  0.86419430086E+02 -0.35359410919E+02  0.58801208621E+02  0.11034576554E+03  0.00000000000E+00 0.  1.
<mgrwt>
<rscale>  4 0.24823590E+03</rscale>
<asrwt>0</asrwt>
<pdfrwt beam="1">  1       21 0.44367997E-01 0.24823590E+03</pdfrwt>
<pdfrwt beam="2">  1       21 0.97061804E-01 0.24823590E+03</pdfrwt>
<totfact> 0.41246178E+03</totfact>
</mgrwt>
</event>
<event>
 5    0  0.1467858E+000  0.2663001E+03  0.7546771E-02  0.1103416E+00
         21   -1    0    0  504  501  0.00000000000E+00  0.00000000000E+00  0.25515003505E+04  0.25515003505E+04  0.00000000000E+00 0.  1.
         21   -1    0    0  501  502 -0.00000000000E+00 -0.00000000000E+00 -0.41731683241E+02  0.41731683241E+02  0.00000000000E+00 0.  1.
         25    1    1    2    0    0 -0.92576991259E+00 -0.26101228054E+03  0.16056580229E+04  0.16315302492E+04  0.12500000000E+03 0.  0.
         21    1    1    2  503  502  0.48632240869E+02  0.22338990236E+03  0.46238967304E+03  0.51582201685E+03  0.00000000000E+00 0.  1.
         21    1    1    2  504  503 -0.47706470957E+02  0.37622378175E+02  0.44172097130E+03  0.44587976764E+03  0.00000000000E+00 0.  1.
<mgrwt>
<rscale>  4 0.26630015E+03</rscale>
<asrwt>0</asrwt>
<pdfrwt beam="1">  1       21 0.39253839E+00 0.26630015E+03</pdfrwt>
<pdfrwt beam="2">  1       21 0.64202610E-02 0.26630015E+03</pdfrwt>
<totfact> 0.15516202E+03</totfact>
</mgrwt>
</event>
<event>
 5    0  0.1467858E+000  0.2421790E+03  0.7546771E-02  0.1118350E+00
         21   -1    0    0  504  501  0.00000000000E+00  0.00000000000E+00  0.36783402046E+03  0.36783402046E+03  0.00000000000E+00 0. -1.
         21   -1    0    0  501  502 -0.00000000000E+00 -0.00000000000E+00 -0.92212671480E+03  0.92212671480E+03  0.00000000000E+00 0. -1.
         25    1    1    2    0    0  0.17538565111E+03 -0.11329688481E+03 -0.86529438368E+03  0.89886354980E+03  0.12500000000E+03 0.  0.
         21    1    1    2  503  502 -0.15122600879E+03  0.97286380732E+02  0.31412017462E+03  0.36194672221E+03  0.00000000000E+00 0. -1.
         21    1    1    2  504  503 -0.24159642315E+02  0.16010504075E+02 -0.31184852879E+01  0.29150463255E+02  0.00000000000E+00 0.  1.
<mgrwt>
<rscale>  4 0.24217904E+03</rscale>
<asrwt>0</asrwt>
<pdfrwt beam="1">  1       21 0.56589849E-01 0.24217904E+03</pdfrwt>
<pdfrwt beam="2">  1       21 0.14186565E+00 0.24217904E+03</pdfrwt>
<totfact> 0.96882512E+02</totfact>
</mgrwt>
</event>
<event>
 5    0  0.1467858E+000  0.2392765E+03  0.7546771E-02  0.1120276E+00
         21   -1    0    0  504  501  0.00000000000E+00  0.00000000000E+00  0.28345075648E+03  0.28345075648E+03  0.00000000000E+00 0. -1.
         21   -1    0    0  501  502 -0.00000000000E+00 -0.00000000000E+00 -0.15309720401E+04  0.15309720401E+04  0.00000000000E+00 0.  1.
         25    1    1    2    0    0 -0.71256241477E+02  0.19133399871E+03 -0.14328990336E+04  0.14527597157E+04  0.12500000000E+03 0.  0.
         21    1    1    2  503  502  0.50728218524E+02  0.14529221031E+02 -0.31887452156E+02  0.61654359322E+02  0.00000000000E+00 0. -1.
         21    1    1    2  504  503  0.20528022953E+02 -0.20586321974E+03  0.21726520213E+03  0.30000872158E+03  0.00000000000E+00 0. -1.
<mgrwt>
<rscale>  4 0.23927646E+03</rscale>
<asrwt>0</asrwt>
<pdfrwt beam="1">  1       21 0.43607808E-01 0.23927646E+03</pdfrwt>
<pdfrwt beam="2">  1       21 0.23553416E+00 0.23927646E+03</pdfrwt>
<totfact> 0.38714346E+02</totfact>
</mgrwt>
</event>
<event>
 5    0  0.1467858E+000  0.3777124E+03  0.7546771E-02  0.1051783E+00
         21   -1    0    0  504  501  0.00000000000E+00  0.00000000000E+00  0.17142870583E+03  0.17142870583E+03  0.00000000000E+00 0.  1.
         21   -1    0    0  501  502 -0.00000000000E+00 -0.00000000000E+00 -0.82422207123E+03  0.82422207123E+03  0.00000000000E+00 0.  1.
         25    1    1    2    0    0  0.69647784641E+02  0.34955806493E+03 -0.41036719968E+03  0.55773460825E+03  0.12500000000E+03 0.  0.
         21    1    1    2  503  502  0.50737864340E+01 -0.41804756344E+02 -0.57206906082E+02  0.71035280426E+02  0.00000000000E+00 0.  1.
         21    1    1    2  504  503 -0.74721571075E+02 -0.30775330858E+03 -0.18521925963E+03  0.36688088839E+03  0.00000000000E+00 0.  1.
<mgrwt>
<rscale>  4 0.37771240E+03</rscale>
<asrwt>0</asrwt>
<pdfrwt beam="1">  1       21 0.26373647E-01 0.37771240E+03</pdfrwt>
<pdfrwt beam="2">  1       21 0.12680340E+00 0.37771240E+03</pdfrwt>
<totfact> 0.56657081E+03</totfact>
</mgrwt>
</event>
<event>
 5    0  0.1467858E+000  0.2526402E+03  0.7546771E-02  0.1111648E+00
         21   -1    0    0  504  501  0.00000000000E+00  0.00000000000E+00  0.58116209114E+02  0.58116209114E+02  0.00000000000E+00 0.  1.
         21   -1    0    0  501  502 -0.00000000000E+00 -0.00000000000E+00 -0.24173617026E+04  0.24173617026E+04  0.00000000000E+00 0.  1.
         25    1    1    2    0    0 -0.19651595723E+03 -0.97895494937E+02 -0.21428467951E+04  0.21576884476E+04  0.12500000000E+03 0.  0.
         21    1    1    2  503  502  0.16057956885E+03  0.10287181359E+03 -0.20446757198E+03  0.27959863368E+03  0.00000000000E+00 0.  1.
         21    1    1    2  504  503  0.35936388376E+02 -0.49763186530E+01 -0.11931126411E+02  0.38190830500E+02  0.00000000000E+00 0.  1.
<mgrwt>
<rscale>  4 0.25264016E+03</rscale>
<asrwt>0</asrwt>
<pdfrwt beam="1">  1       21 0.89409574E-02 0.25264016E+03</pdfrwt>
<pdfrwt beam="2">  1       21 0.37190171E+00 0.25264016E+03</pdfrwt>
<totfact> 0.11841532E+03</totfact>
</mgrwt>
</event>
<event>
 5    0  0.1467858E+000  0.3064234E+03  0.7546771E-02  0.1082073E+00
         21   -1    0    0  504  501  0.00000000000E+00  0.00000000000E+00  0.11802035313E+04  0.11802035313E+04  0.00000000000E+00 0.  1.
         21   -1    0    0  501  502 -0.00000000000E+00 -0.00000000000E+00 -0.13809329131E+04  0.13809329131E+04  0.00000000000E+00 0.  1.
         25    1    1    2    0    0 -0.23512571803E+03  0.15161207268E+03 -0.13457659782E+04  0.13802106332E+04  0.12500000000E+03 0.  0.
         21    1    1    2  503  502  0.21934360819E+03 -0.11999253752E+03  0.93078613687E+03  0.96378040035E+03  0.00000000000E+00 0.  1.
         21    1    1    2  504  503  0.15782109839E+02 -0.31619535159E+02  0.21425045956E+03  0.21714541076E+03  0.00000000000E+00 0.  1.
<mgrwt>
<rscale>  4 0.30642344E+03</rscale>
<asrwt>0</asrwt>
<pdfrwt beam="1">  1       21 0.18156978E+00 0.30642344E+03</pdfrwt>
<pdfrwt beam="2">  1       21 0.21245122E+00 0.30642344E+03</pdfrwt>
<totfact> 0.16980327E+01</totfact>
</mgrwt>
</event>
<event>
 5    0  0.1467858E+000  0.2934926E+03  0.7546771E-02  0.1088540E+00
         21   -1    0    0  504  501  0.00000000000E+00  0.00000000000E+00  0.61141950843E+03  0.61141950843E+03  0.00000000000E+00 0. -1.
         21   -1    0    0  501  502 -0.00000000000E+00 -0.00000000000E+00 -0.21363496463E+03  0.21363496463E+03  0.00000000000E+00 0. -1.
         25    1    1    2    0    0  0.19761318730E+03 -0.17645873142E+03  0.89690626727E+02  0.30636263514E+03  0.12500000000E+03 0.  0.
         21    1    1    2  503  502 -0.10084418364E+03  0.26659294595E+03  0.20943918021E+03  0.35370343285E+03  0.00000000000E+00 0. -1.
         21    1    1    2  504  503 -0.96769003662E+02 -0.90134214528E+02  0.98654736868E+02  0.16498840506E+03  0.00000000000E+00 0. -1.
<mgrwt>
<rscale>  4 0.29349258E+03</rscale>
<asrwt>0</asrwt>
<pdfrwt beam="1">  1       21 0.94064539E-01 0.29349258E+03</pdfrwt>
<pdfrwt beam="2">  1       21 0.32866918E-01 0.29349258E+03</pdfrwt>
<totfact> 0.79500333E+03</totfact>
</mgrwt>
</event>
<event>
 5    0  0.1467858E+000  0.2667724E+03  0.7546771E-02  0.1103141E+00
         21   -1    0    0  504  501  0.00000000000E+00  0.00000000000E+00  0.28045442089E+03  0.28045442089E+03  0.00000000000E+00 0.  1.
         21   -1    0    0  501  502 -0.00000000000E+00 -0.00000000000E+00 -0.37069220301E+03  0.37069220301E+03  0.00000000000E+00 0. -1.
         25    1    1    2    0    0 -0.17512800253E+03  0.15771083290E+03 -0.24384361112E+03  0.36142389347E+03  0.12500000000E+03 0.  0.
         21    1    1    2  503  502  0.76507988853E+02 -0.39651647113E+02  0.26446041929E+02  0.90139439819E+02  0.00000000000E+00 0.  1.
         21    1    1    2  504  503  0.98620013678E+02 -0.11805918579E+03  0.12715978706E+03  0.19958329061E+03  0.00000000000E+00 0.  1.
<mgrwt>
<rscale>  4 0.26677242E+03</rscale>
<asrwt>0</asrwt>
<pdfrwt beam="1">  1       21 0.43146834E-01 0.26677242E+03</pdfrwt>
<pdfrwt beam="2">  1       21 0.57029570E-01 0.26677242E+03</pdfrwt>
<totfact> 0.14308877E+04</totfact>
</mgrwt>
</event>
<event>
 5    0  0.1467858E+000  0.3132908E+03  0.7546771E-02  0.1078779E+00
         21   -1    0    0  504  501  0.00000000000E+00  0.00000000000E+00  0.19473020539E+03  0.19473020539E+03  0.00000000000E+00 0.  1.
         21   -1    0    0  501  502 -0.00000000000E+00 -0.00000000000E+00 -0.68194943227E+03  0.68194943227E+03  0.00000000000E+00 0.  1.
         25    1    1    2    0    0  0.23625286933E+03 -0.16343409047E+03 -0.49626524596E+03  0.58688185740E+03  0.12500000000E+03 0.  0.
         21    1    1    2  503  502 -0.15058648877E+02  0.22989219784E+02  0.36874254093E+01  0.27728401296E+02  0.00000000000E+00 0. -1.
         21    1    1    2  504  503 -0.22119422046E+03  0.14044487069E+03  0.53585936708E+01  0.26206937897E+03  0.00000000000E+00 0.  1.
<mgrwt>
<rscale>  4 0.31329079E+03</rscale>
<asrwt>0</asrwt>
<pdfrwt beam="1">  1       21 0.29958492E-01 0.31329079E+03</pdfrwt>
<pdfrwt beam="2">  1       21 0.10491530E+00 0.31329079E+03</pdfrwt>
<totfact> 0.72804402E+03</totfact>
</mgrwt>
</event>
<event>
 5    0  0.1467858E+000  0.2402529E+03  0.7546771E-02  0.1119624E+00
         21   -1    0    0  504  501  0.00000000000E+00  0.00000000000E+00  0.42626528745E+03  0.42626528745E+03  0.00000000000E+00 0. -1.
         21   -1    0    0  501  502 -0.00000000000E+00 -0.00000000000E+00 -0.24911078982E+03  0.24911078982E+03  0.00000000000E+00 0. -1.
         25    1    1    2    0    0  0.18117499009E+03  0.96291554264E+02 -0.14912150162E+03  0.28276962833E+03  0.12500000000E+03 0.  0.
         21    1    1    2  503  502 -0.48422285281E+02  0.63905008146E+01  0.54470207802E+02  0.73161190193E+02  0.00000000000E+00 0. -1.
         21    1    1    2  504  503 -0.13275270481E+03 -0.10268205508E+03  0.27180579145E+03  0.31944525875E+03  0.00000000000E+00 0. -1.
<mgrwt>
<rscale>  4 0.24025287E+03</rscale>
<asrwt>0</asrwt>
<pdfrwt beam="1">  1       21 0.65579275E-01 0.24025287E+03</pdfrwt>
<pdfrwt beam="2">  1       21 0.38324737E-01 0.24025287E+03</pdfrwt>
<totfact> 0.13638812E+04</totfact>
</mgrwt>
</event>
<event>
 5    0  0.1467858E+000  0.2384054E+03  0.7546771E-02  0.1120860E+00
         21   -1    0    0  504  501  0.00000000000E+00  0.00000000000E+00  0.45567958949E+03  0.45567958949E+03  0.00000000000E+00 0.  1.
         21   -1    0    0  501  502 -0.00000000000E+00 -0.00000000000E+00 -0.15280035278E+03  0.15280035278E+03  0.00000000000E+00 0.  1.
         25    1    1    2    0    0  0.24351769264E+02 -0.20154186605E+03 -0.11934621748E+01  0.23840838238E+03  0.12500000000E+03 0.  0.
         21    1    1    2  503  502  0.10264283587E+02  0.12290545574E+03  0.15584223611E+03  0.19874080890E+03  0.00000000000E+00 0.  1.
         21    1    1    2  504  503 -0.34616052851E+02  0.78636410312E+02  0.14823046277E+03  0.17133075099E+03  0.00000000000E+00 0.  1.
<mgrwt>
<rscale>  4 0.23840540E+03</rscale>
<asrwt>0</asrwt>
<pdfrwt beam="1">  1       21 0.70104552E-01 0.23840540E+03</pdfrwt>
<pdfrwt beam="2">  1       21 0.23507747E-01 0.23840540E+03</pdfrwt>
<totfact> 0.30715929E+04</totfact>
</mgrwt>
</event>
<event>
 5    0  0.1467858E+000  0.2387561E+03  0.7546771E-02  0.1120624E+00
         21   -1    0    0  504  501  0.00000000000E+00  0.00000000000E+00  0.99597978557E+02  0.99597978557E+02  0.00000000000E+00 0.  1.
         21   -1    0    0  501  502 -0.00000000000E+00 -0.00000000000E+00 -0.50753484939E+03  0.50753484939E+03  0.00000000000E+00 0.  1.
         25    1    1    2    0    0  0.20318619867E+03  0.97382915541E+01 -0.25016453276E+03  0.34581318526E+03  0.12500000000E+03 0.  0.
         21    1    1    2  503  502 -0.33688560755E+02 -0.16428212351E+02 -0.39987591452E+02  0.54807050248E+02  0.00000000000E+00 0.  1.
         21    1    1    2  504  503 -0.16949763791E+03  0.66899207966E+01 -0.11778474662E+03  0.20651259243E+03  0.00000000000E+00 0.  1.
<mgrwt>
<rscale>  4 0.23875608E+03</rscale>
<asrwt>0</asrwt>
<pdfrwt beam="1">  1       21 0.15322766E-01 0.23875608E+03</pdfrwt>
<pdfrwt beam="2">  1       21 0.78082283E-01 0.23875608E+03</pdfrwt>
<totfact> 0.53673219E+04</totfact>
</mgrwt>
</event>
<event>
 5    0  0.1467858E+000  0.2097419E+03  0.7546771E-02  0.1141771E+00
         21   -1    0    0  504  501  0.00000000000E+00  0.00000000000E+00  0.22625190918E+03  0.22625190918E+03  0.00000000000E+00 0. -1.
         21   -1    0    0  501  502 -0.00000000000E+00 -0.00000000000E+00 -0.27174183909E+03  0.27174183909E+03  0.00000000000E+00 0. -1.
         25    1    1    2    0    0 -0.25932099333E+02 -0.20944445932E+03 -0.21256239035E+01  0.24529364768E+03  0.12500000000E+03 0.  0.
         21    1    1    2  503  502 -0.50050411750E+02  0.76083160067E+02  0.65368182463E+01  0.91304002951E+02  0.00000000000E+00 0. -1.
         21    1    1    2  504  503  0.75982511083E+02  0.13336129926E+03 -0.49901124259E+02  0.16139609764E+03  0.00000000000E+00 0. -1.
<mgrwt>
<rscale>  4 0.20974194E+03</rscale>
<asrwt>0</asrwt>
<pdfrwt beam="1">  1       21 0.34807986E-01 0.20974194E+03</pdfrwt>
<pdfrwt beam="2">  1       21 0.41806437E-01 0.20974194E+03</pdfrwt>
<totfact> 0.43445419E+04</totfact>
</mgrwt>
</event>
<event>
 5    0  0.1467858E+000  0.3399901E+03  0.7546771E-02  0.1066800E+00
         21   -1    0    0  504  501  0.00000000000E+00  0.00000000000E+00  0.11924538613E+03  0.11924538613E+03  0.00000000000E+00 0. -1.
         21   -1    0    0  501  502 -0.00000000000E+00 -0.00000000000E+00 -0.98067850551E+03  0.98067850551E+03  0.00000000000E+00 0. -1.
         25    1    1    2    0    0  0.17790309366E+03  0.26852072178E+03 -0.42946794644E+03  0.55119924327E+03  0.12500000000E+03 0.  0.
         21    1    1    2  503  502 -0.19153677636E+03 -0.24532435039E+03 -0.39174409535E+03  0.50033369848E+03  0.00000000000E+00 0. -1.
         21    1    1    2  504  503  0.13633682702E+02 -0.23196371397E+02 -0.40221077587E+02  0.48390949900E+02  0.00000000000E+00 0. -1.
<mgrwt>
<rscale>  4 0.33999009E+03</rscale>
<asrwt>0</asrwt>
<pdfrwt beam="1">  1       21 0.18345444E-01 0.33999009E+03</pdfrwt>
<pdfrwt beam="2">  1       21 0.15087362E+00 0.33999009E+03</pdfrwt>
<totfact> 0.73005936E+03</totfact>
</mgrwt>
</event>
<event>
 5    0  0.1467858E+000  0.2305637E+03  0.7546771E-02  0.1126244E+00
         21   -1    0    0  504  501  0.00000000000E+00  0.00000000000E+00  0.83591079187E+02  0.83591079187E+02  0.00000000000E+00 0.  1.
         21   -1    0    0  501  502 -0.00000000000E+00 -0.00000000000E+00 -0.17686986825E+04  0.17686986825E+04  0.00000000000E+00 0. -1.
         25    1    1    2    0    0 -0.14385499479E+03 -0.15386344815E+03 -0.10955749917E+04  0.11226209435E+04  0.12500000000E+03 0.  0.
         21    1    1    2  503  502  0.21505099536E+03 -0.37564036212E+02 -0.23680780298E+03  0.32208061564E+03  0.00000000000E+00 0.  1.
         21    1    1    2  504  503 -0.71196000576E+02  0.19142748437E+03 -0.35272480855E+03  0.40758820252E+03  0.00000000000E+00 0.  1.
<mgrwt>
<rscale>  4 0.23056370E+03</rscale>
<asrwt>0</asrwt>
<pdfrwt beam="1">  1       21 0.12860165E-01 0.23056370E+03</pdfrwt>
<pdfrwt beam="2">  1       21 0.27210751E+00 0.23056370E+03</pdfrwt>
<totfact> 0.24578253E+03</totfact>
</mgrwt>
</event>
<event>
 5    0  0.1467858E+000  0.2666154E+03  0.7546771E-02  0.1103232E+00
         21   -1    0    0  504  501  0.00000000000E+00  0.00000000000E+00  0.43595601254E+03  0.43595601254E+03  0.00000000000E+00 0. -1.
         21   -1    0    0  501  502 -0.00000000000E+00 -0.00000000000E+00 -0.20286129453E+03  0.20286129453E+03  0.00000000000E+00 0. -1.
         25    1    1    2    0    0 -0.57449061336E+02  0.24612723213E+03  0.88722805971E+02  0.29559388583E+03  0.12500000000E+03 0.  0.
         21    1    1    2  503  502 -0.63037496375E+02 -0.54175574085E+02  0.54657476238E+02  0.99479437500E+02  0.00000000000E+00 0. -1.
         21    1    1    2  504  503  0.12048655771E+03 -0.19195165804E+03  0.89714435803E+02  0.24374398373E+03  0.00000000000E+00 0. -1.
<mgrwt>
<rscale>  4 0.26661543E+03</rscale>
<asrwt>0</asrwt>
<pdfrwt beam="1">  1       21 0.67070155E-01 0.26661543E+03</pdfrwt>
<pdfrwt beam="2">  1       21 0.31209430E-01 0.26661543E+03</pdfrwt>
<totfact> 0.19301656E+04</totfact>
</mgrwt>
</event>
<event>
 5    0  0.1467858E+000  0.3202274E+03  0.7546771E-02  0.1075545E+00
         21   -1    0    0  504  501  0.00000000000E+00  0.00000000000E+00  0.34398838191E+03  0.34398838191E+03  0.00000000000E+00 0.  1.
         21   -1    0    0  501  502 -0.00000000000E+00 -0.00000000000E+00 -0.47525738269E+03  0.47525738269E+03  0.00000000000E+00 0. -1.
         25    1    1    2    0    0  0.79745806632E+02  0.28383306345E+03 -0.32476964689E+03  0.45609311015E+03  0.12500000000E+03 0.  0.
         21    1    1    2  503  502 -0.12886834984E+02 -0.30135754953E+02 -0.63004285209E+01  0.33375584520E+02  0.00000000000E+00 0.  1.
         21    1    1    2  504  503 -0.66858971648E+02 -0.25369730850E+03  0.19980107463E+03  0.32977706993E+03  0.00000000000E+00 0.  1.
<mgrwt>
<rscale>  4 0.32022742E+03</rscale>
<asrwt>0</asrwt>
<pdfrwt beam="1">  1       21 0.52921290E-01 0.32022742E+03</pdfrwt>
<pdfrwt beam="2">  1       21 0.73116520E-01 0.32022742E+03</pdfrwt>
<totfact> 0.52699063E+03</totfact>
</mgrwt>
</event>
<event>
 5    0  0.1467858E+000  0.2360256E+03  0.7546771E-02  0.1122469E+00
         21   -1    0    0  504  501  0.00000000000E+00  0.00000000000E+00  0.68610969963E+02  0.68610969963E+02  0.00000000000E+00 0. -1.
         21   -1    0    0  501  502 -0.00000000000E+00 -0.00000000000E+00 -0.73138792383E+03  0.73138792383E+03  0.00000000000E+00 0. -1.
         25    1    1    2    0    0 -0.15270992435E+03 -0.12947104041E+03 -0.33402607744E+03  0.40900060111E+03  0.12500000000E+03 0.  0.
         21    1    1    2  503  502  0.11157177265E+03  0.83956500986E+02 -0.16512006057E+03  0.21624428065E+03  0.00000000000E+00 0. -1.
         21    1    1    2  504  503  0.41138151695E+02  0.45514539421E+02 -0.16363081585E+03  0.17475401203E+03  0.00000000000E+00 0.  1.
<mgrwt>
<rscale>  4 0.23602557E+03</rscale>
<asrwt>0</asrwt>
<pdfrwt beam="1">  1       21 0.10555533E-01 0.23602557E+03</pdfrwt>
<pdfrwt beam="2">  1       21 0.11252122E+00 0.23602557E+03</pdfrwt>
<totfact> 0.44597817E+04</totfact>
</mgrwt>
</event>
<event>
 5    0  0.1467858E+000  0.2436601E+03  0.7546771E-02  0.1117378E+00
         21   -1    0    0  504  501  0.00000000000E+00  0.00000000000E+00  0.25993358255E+03  0.25993358255E+03  0.00000000000E+00 0.  1.
         21   -1    0    0  501  502 -0.00000000000E+00 -0.00000000000E+00 -0.20982697462E+03  0.20982697462E+03  0.00000000000E+00 0.  1.
         25    1    1    2    0    0 -0.92905331059E+02 -0.18738688297E+03 -0.21663743102E+02  0.24462126280E+03  0.12500000000E+03 0.  0.
         21    1    1    2  503  502  0.18278771013E+00  0.28634175122E+02  0.17026476015E+02  0.33314415525E+02  0.00000000000E+00 0.  1.
         21    1    1    2  504  503  0.92722543349E+02  0.15875270784E+03  0.54743875010E+02  0.19182487885E+03  0.00000000000E+00 0.  1.
<mgrwt>
<rscale>  4 0.24366010E+03</rscale>
<asrwt>0</asrwt>
<pdfrwt beam="1">  1       21 0.39989782E-01 0.24366010E+03</pdfrwt>
<pdfrwt beam="2">  1       21 0.32281073E-01 0.24366010E+03</pdfrwt>
<totfact> 0.54403996E+04</totfact>
</mgrwt>
</event>
<event>
 5    0  0.1467858E+000  0.4033327E+03  0.7546771E-02  0.1042632E+00
         21   -1    0    0  504  501  0.00000000000E+00  0.00000000000E+00  0.17348251189E+03  0.17348251189E+03  0.00000000000E+00 0.  1.
         21   -1    0    0  501  502 -0.00000000000E+00 -0.00000000000E+00 -0.12233901734E+04  0.12233901734E+04  0.00000000000E+00 0. -1.
         25    1    1    2    0    0  0.14767362072E+03 -0.35921141437E+03 -0.84818983553E+03  0.94121800640E+03  0.12500000000E+03 0.  0.
         21    1    1    2  503  502  0.20394326808E+02  0.27667213478E+02 -0.32262232217E+02  0.47140798627E+02  0.00000000000E+00 0. -1.
         21    1    1    2  504  503 -0.16806794753E+03  0.33154420089E+03 -0.16945559382E+03  0.40851388031E+03  0.00000000000E+00 0.  1.
<mgrwt>
<rscale>  4 0.40333271E+03</rscale>
<asrwt>0</asrwt>
<pdfrwt beam="1">  1       21 0.26689617E-01 0.40333271E+03</pdfrwt>
<pdfrwt beam="2">  1       21 0.18821387E+00 0.40333271E+03</pdfrwt>
<totfact> 0.18517332E+03</totfact>
</mgrwt>
</event>
<event>
 5    0  0.1467858E+000  0.2425279E+03  0.7546771E-02  0.1118120E+00
         21   -1    0    0  504  501  0.00000000000E+00  0.00000000000E+00  0.13025463278E+04  0.13025463278E+04  0.00000000000E+00 0.  1.
         21   -1    0    0  501  502 -0.00000000000E+00 -0.00000000000E+00 -0.13200124695E+03  0.13200124695E+03  0.00000000000E+00 0.  1.
         25    1    1    2    0    0  0.17915874674E+03 -0.10203999123E+03  0.94422806885E+01  0.24129685660E+03  0.12500000000E+03 0.  0.
         21    1    1    2  503  502 -0.33294486465E+01 -0.37871210420E+02  0.74295257268E+02  0.83457169012E+02  0.00000000000E+00 0. -1.
         21    1    1    2  504  503 -0.17582929809E+03  0.13991120165E+03  0.10868075429E+04  0.11097935492E+04  0.00000000000E+00 0.  1.
<mgrwt>
<rscale>  4 0.24252794E+03</rscale>
<asrwt>0</asrwt>
<pdfrwt beam="1">  1       21 0.20039173E+00 0.24252794E+03</pdfrwt>
<pdfrwt beam="2">  1       21 0.20307885E-01 0.24252794E+03</pdfrwt>
<totfact> 0.28626630E+03</totfact>
</mgrwt>
</event>
<event>
 5    0  0.1467858E+000  0.2413441E+03  0.7546771E-02  0.1118901E+00
         21   -1    0    0  504  501  0.00000000000E+00  0.00000000000E+00  0.15849726254E+03  0.15849726254E+03  0.00000000000E+00 0.  1.
         21   -1    0    0  501  502 -0.00000000000E+00 -0.00000000000E+00 -0.37548100998E+03  0.37548100998E+03  0.00000000000E+00 0.  1.
         25    1    1    2    0    0  0.69016513261E+02 -0.19457308145E+03 -0.13339735763E+02  0.24171245661E+03  0.12500000000E+03 0.  0.
         21    1    1    2  503  502 -0.66815012259E+02  0.14865034748E+03 -0.16827408129E+03  0.23425912598E+03  0.00000000000E+00 0.  1.
         21    1    1    2  504  503 -0.22015010026E+01  0.45922733969E+02 -0.35369930387E+02  0.58006689937E+02  0.00000000000E+00 0.  1.
<mgrwt>
<rscale>  4 0.24134408E+03</rscale>
<asrwt>0</asrwt>
<pdfrwt beam="1">  1       21 0.24384194E-01 0.24134408E+03</pdfrwt>
<pdfrwt beam="2">  1       21 0.57766309E-01 0.24134408E+03</pdfrwt>
<totfact> 0.43631858E+04</totfact>
</mgrwt>
</event>
<event>
 5    0  0.1467858E+000  0.2662570E+03  0.7546771E-02  0.1103441E+00
         21   -1    0    0  504  501  0.00000000000E+00  0.00000000000E+00  0.85482451249E+03  0.85482451249E+03  0.00000000000E+00 0.  1.
         21   -1    0    0  501  502 -0.00000000000E+00 -0.00000000000E+00 -0.23812531303E+03  0.23812531303E+03  0.00000000000E+00 0. -1.
         25    1    1    2    0    0 -0.19835112298E+03  0.12619274474E+03 -0.13463821500E+03  0.29836257431E+03  0.12500000000E+03 0.  0.
         21    1    1    2  503  502  0.66824637335E+02  0.10943954628E+02  0.17028907223E+03  0.18325847980E+03  0.00000000000E+00 0.  1.
         21    1    1    2  504  503  0.13152648565E+03 -0.13713669937E+03  0.58104834223E+03  0.61132877141E+03  0.00000000000E+00 0.  1.
<mgrwt>
<rscale>  4 0.26625698E+03</rscale>
<asrwt>0</asrwt>
<pdfrwt beam="1">  1       21 0.13151146E+00 0.26625698E+03</pdfrwt>
<pdfrwt beam="2">  1       21 0.36634664E-01 0.26625698E+03</pdfrwt>
<totfact> 0.28503802E+03</totfact>
</mgrwt>
</event>
<event>
 5    0  0.1467858E+000  0.2978357E+03  0.7546771E-02  0.1086579E+00
         21   -1    0    0  504  501  0.00000000000E+00  0.00000000000E+00  0.25076023726E+03  0.25076023726E+03  0.00000000000E+00 0. -1.
         21   -1    0    0  501  502 -0.00000000000E+00 -0.00000000000E+00 -0.51026484292E+03  0.51026484292E+03  0.00000000000E+00 0. -1.
         25    1    1    2    0    0  0.22684214056E+03 -0.14299024792E+03 -0.34177222609E+03  0.45203630635E+03  0.12500000000E+03 0.  0.
         21    1    1    2  503  502 -0.69082519884E+02  0.78632268362E+02  0.90556981565E+02  0.13840518448E+03  0.00000000000E+00 0. -1.
         21    1    1    2  504  503 -0.15775962067E+03  0.64357979554E+02 -0.82893611324E+01  0.17058358935E+03  0.00000000000E+00 0. -1.
<mgrwt>
<rscale>  4 0.29733860E+03</rscale>
<asrwt>0</asrwt>
<pdfrwt beam="1">  1       21 0.38578498E-01 0.29783569E+03</pdfrwt>
<pdfrwt beam="2">  1       21 0.78502283E-01 0.29783569E+03</pdfrwt>
<totfact> 0.87473283E+03</totfact>
</mgrwt>
</event>
<event>
 5    0  0.1467858E+000  0.2760902E+03  0.7546771E-02  0.1097844E+00
         21   -1    0    0  504  501  0.00000000000E+00  0.00000000000E+00  0.69656427547E+03  0.69656427547E+03  0.00000000000E+00 0. -1.
         21   -1    0    0  501  502 -0.00000000000E+00 -0.00000000000E+00 -0.46391545384E+03  0.46391545384E+03  0.00000000000E+00 0. -1.
         25    1    1    2    0    0  0.23238167969E+03  0.81237606329E+02 -0.39373854440E+03  0.48089066854E+03  0.12500000000E+03 0.  0.
         21    1    1    2  503  502 -0.15037825721E+03 -0.98361726383E+02  0.43697533612E+03  0.47247867025E+03  0.00000000000E+00 0. -1.
         21    1    1    2  504  503 -0.82003422484E+02  0.17124120054E+02  0.18941202991E+03  0.20711039052E+03  0.00000000000E+00 0. -1.
<mgrwt>
<rscale>  4 0.27609019E+03</rscale>
<asrwt>0</asrwt>
<pdfrwt beam="1">  1       21 0.10716374E+00 0.27609019E+03</pdfrwt>
<pdfrwt beam="2">  1       21 0.71371608E-01 0.27609019E+03</pdfrwt>
<totfact> 0.11516711E+03</totfact>
</mgrwt>
</event>
<event>
 5    0  0.1467858E+000  0.2977842E+03  0.7546771E-02  0.1086354E+00
         21   -1    0    0  504  501  0.00000000000E+00  0.00000000000E+00  0.89257083431E+02  0.89257083431E+02  0.00000000000E+00 0. -1.
         21   -1    0    0  501  502 -0.00000000000E+00 -0.00000000000E+00 -0.11156710330E+04  0.11156710330E+04  0.00000000000E+00 0. -1.
         25    1    1    2    0    0 -0.20981514615E+03  0.17037616121E+03 -0.27751838578E+03  0.40705268248E+03  0.12500000000E+03 0.  0.
         21    1    1    2  503  502  0.20355348628E+03 -0.15129691841E+03 -0.71270250399E+03  0.75648505503E+03  0.00000000000E+00 0. -1.
         21    1    1    2  504  503  0.62616598738E+01 -0.19079242805E+02 -0.36193059846E+02  0.41390378972E+02  0.00000000000E+00 0. -1.
<mgrwt>
<rscale>  4 0.29778420E+03</rscale>
<asrwt>0</asrwt>
<pdfrwt beam="1">  1       21 0.13731859E-01 0.29778420E+03</pdfrwt>
<pdfrwt beam="2">  1       21 0.17164170E+00 0.29778420E+03</pdfrwt>
<totfact> 0.89308326E+03</totfact>
</mgrwt>
</event>
<event>
 5    0  0.2411262E+000  0.3108100E+03  0.7546771E-02  0.1079958E+00
         21   -1    0    0  504  501  0.00000000000E+00  0.00000000000E+00  0.10484694388E+03  0.10484694388E+03  0.00000000000E+00 0.  1.
         21   -1    0    0  501  502 -0.00000000000E+00 -0.00000000000E+00 -0.14288513691E+04  0.14288513691E+04  0.00000000000E+00 0.  1.
         25    1    1    2    0    0 -0.23871337888E+03  0.15489931542E+03 -0.19101699681E+03  0.36481552632E+03  0.12500000000E+03 0.  0.
         21    1    1    2  503  502  0.24149631956E+02 -0.18358342579E+02 -0.18023790114E+03  0.18277290410E+03  0.00000000000E+00 0. -1.
         21    1    1    2  504  503  0.21456374692E+03 -0.13654097284E+03 -0.95274952723E+03  0.98610988252E+03  0.00000000000E+00 0.  1.
<mgrwt>
<rscale>  4 0.31081003E+03</rscale>
<asrwt>0</asrwt>
<pdfrwt beam="1">  1       21 0.16130300E-01 0.31081003E+03</pdfrwt>
<pdfrwt beam="2">  1       21 0.21982328E+00 0.31081003E+03</pdfrwt>
<totfact> 0.31505485E+03</totfact>
</mgrwt>
</event>
<event>
 5    0  0.1467858E+000  0.4765894E+03  0.7546771E-02  0.1020077E+00
         21   -1    0    0  504  501  0.00000000000E+00  0.00000000000E+00  0.23562230216E+03  0.23562230216E+03  0.00000000000E+00 0. -1.
         21   -1    0    0  501  502 -0.00000000000E+00 -0.00000000000E+00 -0.16814825463E+04  0.16814825463E+04  0.00000000000E+00 0. -1.
         25    1    1    2    0    0 -0.22759528820E+03 -0.41532991030E+03 -0.13071447168E+04  0.13959050327E+04  0.12500000000E+03 0.  0.
         21    1    1    2  503  502 -0.17629999711E+02  0.29442891908E+02 -0.41347026439E+02  0.53733391565E+02  0.00000000000E+00 0.  1.
         21    1    1    2  504  503  0.24522528791E+03  0.38588701839E+03 -0.97368500876E+02  0.46746642420E+03  0.00000000000E+00 0. -1.
<mgrwt>
<rscale>  4 0.47658942E+03</rscale>
<asrwt>0</asrwt>
<pdfrwt beam="1">  1       21 0.36249584E-01 0.47658942E+03</pdfrwt>
<pdfrwt beam="2">  1       21 0.25868963E+00 0.47658942E+03</pdfrwt>
<totfact> 0.34342577E+02</totfact>
</mgrwt>
</event>
<event>
 5    0  0.1467858E+000  0.2922658E+03  0.7546771E-02  0.1089172E+00
         21   -1    0    0  504  501  0.00000000000E+00  0.00000000000E+00  0.34633033497E+03  0.34633033497E+03  0.00000000000E+00 0.  1.
         21   -1    0    0  501  502 -0.00000000000E+00 -0.00000000000E+00 -0.49100579174E+03  0.49100579174E+03  0.00000000000E+00 0.  1.
         25    1    1    2    0    0 -0.16349836232E+03  0.21689075166E+03 -0.36512197630E+03  0.47192411488E+03  0.12500000000E+03 0.  0.
         21    1    1    2  503  502  0.41180667709E+02 -0.14886903817E+02  0.78489400315E+02  0.89877990965E+02  0.00000000000E+00 0.  1.
         21    1    1    2  504  503  0.12231769461E+03 -0.20200384784E+03  0.14195711921E+03  0.27553402086E+03  0.00000000000E+00 0.  1.
<mgrwt>
<rscale>  4 0.29226581E+03</rscale>
<asrwt>0</asrwt>
<pdfrwt beam="1">  1       21 0.53281590E-01 0.29226581E+03</pdfrwt>
<pdfrwt beam="2">  1       21 0.75539353E-01 0.29226581E+03</pdfrwt>
<totfact> 0.48933423E+03</totfact>
</mgrwt>
</event>
<event>
 5    0  0.1467858E+000  0.2815400E+03  0.7546771E-02  0.1094851E+00
         21   -1    0    0  504  501  0.00000000000E+00  0.00000000000E+00  0.11239211829E+04  0.11239211829E+04  0.00000000000E+00 0.  1.
         21   -1    0    0  501  502 -0.00000000000E+00 -0.00000000000E+00 -0.84248301936E+03  0.84248301936E+03  0.00000000000E+00 0. -1.
         25    1    1    2    0    0 -0.25173117737E+03 -0.37117191672E+02 -0.79240076644E+03  0.84158793138E+03  0.12500000000E+03 0.  0.
         21    1    1    2  503  502  0.15827292958E+03  0.84784434892E+02  0.92771567154E+03  0.94493126091E+03  0.00000000000E+00 0.  1.
         21    1    1    2  504  503  0.93458247783E+02 -0.47667243221E+02  0.14612325846E+03  0.17988500999E+03  0.00000000000E+00 0. -1.
<mgrwt>
<rscale>  4 0.28154003E+03</rscale>
<asrwt>0</asrwt>
<pdfrwt beam="1">  1       21 0.17291095E+00 0.28154003E+03</pdfrwt>
<pdfrwt beam="2">  1       21 0.12961277E+00 0.28154003E+03</pdfrwt>
<totfact> 0.79746555E+01</totfact>
</mgrwt>
</event>
<event>
 5    0  0.1467858E+000  0.2325287E+03  0.7546771E-02  0.1124872E+00
         21   -1    0    0  504  501  0.00000000000E+00  0.00000000000E+00  0.21766853540E+04  0.21766853540E+04  0.00000000000E+00 0.  1.
         21   -1    0    0  501  502 -0.00000000000E+00 -0.00000000000E+00 -0.75734472620E+02  0.75734472620E+02  0.00000000000E+00 0. -1.
         25    1    1    2    0    0 -0.19861228197E+03  0.66038270815E+02  0.16130399125E+03  0.29232151710E+03  0.12500000000E+03 0.  0.
         21    1    1    2  503  502  0.15546249057E+03  0.44467716671E+02  0.99925632051E+03  0.10122544926E+04  0.00000000000E+00 0.  1.
         21    1    1    2  504  503  0.43149791402E+02 -0.11050598749E+03  0.94039056961E+03  0.94784381687E+03  0.00000000000E+00 0.  1.
<mgrwt>
<rscale>  4 0.23252874E+03</rscale>
<asrwt>0</asrwt>
<pdfrwt beam="1">  1       21 0.33487462E+00 0.23252874E+03</pdfrwt>
<pdfrwt beam="2">  1       21 0.11651459E-01 0.23252874E+03</pdfrwt>
<totfact> 0.12603257E+03</totfact>
</mgrwt>
</event>
<event>
 5    0  0.1467858E+000  0.3371537E+03  0.7546771E-02  0.1068015E+00
         21   -1    0    0  504  501  0.00000000000E+00  0.00000000000E+00  0.63083097205E+03  0.63083097205E+03  0.00000000000E+00 0.  1.
         21   -1    0    0  501  502 -0.00000000000E+00 -0.00000000000E+00 -0.18351647871E+03  0.18351647871E+03  0.00000000000E+00 0.  1.
         25    1    1    2    0    0  0.80895748129E+02 -0.30249548426E+03  0.32833791447E+03  0.47061494466E+03  0.12500000000E+03 0.  0.
         21    1    1    2  503  502 -0.63288083229E+02  0.28570405801E+03  0.90558688624E+02  0.30632183456E+03  0.00000000000E+00 0.  1.
         21    1    1    2  504  503 -0.17607664899E+02  0.16791426249E+02  0.28417890246E+02  0.37410671536E+02  0.00000000000E+00 0. -1.
<mgrwt>
<rscale>  4 0.33715373E+03</rscale>
<asrwt>0</asrwt>
<pdfrwt beam="1">  1       21 0.97050918E-01 0.33715373E+03</pdfrwt>
<pdfrwt beam="2">  1       21 0.28233305E-01 0.33715373E+03</pdfrwt>
<totfact> 0.97714953E+03</totfact>
</mgrwt>
</event>
<event>
 5    0  0.1467858E+000  0.2858138E+03  0.7546771E-02  0.1092555E+00
         21   -1    0    0  504  501  0.00000000000E+00  0.00000000000E+00  0.70259300001E+02  0.70259300001E+02  0.00000000000E+00 0. -1.
         21   -1    0    0  501  502 -0.00000000000E+00 -0.00000000000E+00 -0.10692555386E+04  0.10692555386E+04  0.00000000000E+00 0. -1.
         25    1    1    2    0    0  0.18920537797E+03 -0.17397090702E+03 -0.55146128573E+03  0.62112728261E+03  0.12500000000E+03 0.  0.
         21    1    1    2  503  502 -0.16043138687E+03  0.13150318367E+03 -0.38657628362E+03  0.43871692498E+03  0.00000000000E+00 0. -1.
         21    1    1    2  504  503 -0.28773991097E+02  0.42467723346E+02 -0.60958669277E+02  0.79670631037E+02  0.00000000000E+00 0.  1.
<mgrwt>
<rscale>  4 0.28581384E+03</rscale>
<asrwt>0</asrwt>
<pdfrwt beam="1">  1       21 0.10809125E-01 0.28581384E+03</pdfrwt>
<pdfrwt beam="2">  1       21 0.16450083E+00 0.28581384E+03</pdfrwt>
<totfact> 0.15594024E+04</totfact>
</mgrwt>
</event>
<event>
 5    0  0.1467858E+000  0.2834689E+03  0.7546771E-02  0.1093809E+00
         21   -1    0    0  504  501  0.00000000000E+00  0.00000000000E+00  0.24443695480E+03  0.24443695480E+03  0.00000000000E+00 0. -1.
         21   -1    0    0  501  502 -0.00000000000E+00 -0.00000000000E+00 -0.86629536197E+03  0.86629536197E+03  0.00000000000E+00 0. -1.
         25    1    1    2    0    0 -0.21844843064E+02  0.25543875223E+03  0.12844806314E+03  0.31280993947E+03  0.12500000000E+03 0.  0.
         21    1    1    2  503  502  0.35823270106E+02 -0.23643366949E+03 -0.72455953910E+03  0.76300112218E+03  0.00000000000E+00 0. -1.
         21    1    1    2  504  503 -0.13978427042E+02 -0.19005082744E+02 -0.25746931203E+02  0.34921255119E+02  0.00000000000E+00 0.  1.
<mgrwt>
<rscale>  4 0.28346892E+03</rscale>
<asrwt>0</asrwt>
<pdfrwt beam="1">  1       21 0.37605686E-01 0.28346892E+03</pdfrwt>
<pdfrwt beam="2">  1       21 0.13327621E+00 0.28346892E+03</pdfrwt>
<totfact> 0.25843242E+03</totfact>
</mgrwt>
</event>
