<event>
 5    0  0.1856407E+000  0.3058539E+03  0.7546771E-02  0.1082350E+00
         21   -1    0    0  502  501  0.00000000000E+00  0.00000000000E+00  0.52761220742E+03  0.52761220742E+03  0.00000000000E+00 0. -1.
         21   -1    0    0  503  502 -0.00000000000E+00 -0.00000000000E+00 -0.47020241271E+03  0.47020241271E+03  0.00000000000E+00 0.  1.
         25    1    1    2    0    0  0.27904388305E+03 -0.80227010187E+02  0.39609984468E+03  0.50677603415E+03  0.12500000000E+03 0.  0.
         21    1    1    2  503  504 -0.70523931519E+02  0.64566259850E+02 -0.31422247775E+01  0.95667655999E+02  0.00000000000E+00 0. -1.
         21    1    1    2  504  501 -0.20851995153E+03  0.15660750337E+02 -0.33554782519E+03  0.39537092998E+03  0.00000000000E+00 0.  1.
<mgrwt>
<rscale>  4 0.30585391E+03</rscale>
<asrwt>0</asrwt>
<pdfrwt beam="1">  1       21 0.81171110E-01 0.30585391E+03</pdfrwt>
<pdfrwt beam="2">  1       21 0.72338832E-01 0.30585391E+03</pdfrwt>
<totfact> 0.21146838E+03</totfact>
</mgrwt>
</event>
<event>
 5    0  0.1856407E+000  0.2680939E+03  0.7546771E-02  0.1102375E+00
         21   -1    0    0  502  501  0.00000000000E+00  0.00000000000E+00  0.44055416735E+03  0.44055416735E+03  0.00000000000E+00 0. -1.
         21   -1    0    0  503  502 -0.00000000000E+00 -0.00000000000E+00 -0.32251017263E+03  0.32251017263E+03  0.00000000000E+00 0.  1.
         25    1    1    2    0    0  0.15244479622E+03  0.18168632865E+03  0.33859175287E+03  0.43187812288E+03  0.12500000000E+03 0.  0.
         21    1    1    2  503  504 -0.82254368416E+02 -0.66151627299E+02 -0.13435991774E+03  0.17086370713E+03  0.00000000000E+00 0.  1.
         21    1    1    2  504  501 -0.70190427800E+02 -0.11553470135E+03 -0.86187840407E+02  0.16032250997E+03  0.00000000000E+00 0.  1.
<mgrwt>
<rscale>  4 0.26809390E+03</rscale>
<asrwt>0</asrwt>
<pdfrwt beam="1">  1       21 0.67777564E-01 0.26809390E+03</pdfrwt>
<pdfrwt beam="2">  1       21 0.49616949E-01 0.26809390E+03</pdfrwt>
<totfact> 0.73423757E+03</totfact>
</mgrwt>
</event>
<event>
 5    0  0.1856407E+000  0.4410572E+03  0.7546771E-02  0.1030423E+00
         21   -1    0    0  502  501  0.00000000000E+00  0.00000000000E+00  0.41394839377E+03  0.41394839377E+03  0.00000000000E+00 0.  1.
         21   -1    0    0  503  502 -0.00000000000E+00 -0.00000000000E+00 -0.50161712881E+03  0.50161712881E+03  0.00000000000E+00 0.  1.
         25    1    1    2    0    0 -0.35987311558E+03  0.23391631890E+03  0.22882508132E+02  0.44763167084E+03  0.12500000000E+03 0.  0.
         21    1    1    2  503  504  0.19429762802E+02  0.10430186240E+02  0.19212583303E+02  0.29247697768E+02  0.00000000000E+00 0. -1.
         21    1    1    2  504  501  0.34044335278E+03 -0.24434650514E+03 -0.12976382647E+03  0.43868615397E+03  0.00000000000E+00 0.  1.
<mgrwt>
<rscale>  4 0.44105719E+03</rscale>
<asrwt>0</asrwt>
<pdfrwt beam="1">  1       21 0.63684368E-01 0.44105719E+03</pdfrwt>
<pdfrwt beam="2">  1       21 0.77171866E-01 0.44105719E+03</pdfrwt>
<totfact> 0.29680114E+03</totfact>
</mgrwt>
</event>
<event>
 5    0  0.1856407E+000  0.2786924E+03  0.7546771E-02  0.1096405E+00
         21   -1    0    0  502  501  0.00000000000E+00  0.00000000000E+00  0.22517153367E+04  0.22517153367E+04  0.00000000000E+00 0.  1.
         21   -1    0    0  503  502 -0.00000000000E+00 -0.00000000000E+00 -0.17301880064E+03  0.17301880064E+03  0.00000000000E+00 0.  1.
         25    1    1    2    0    0  0.23196523108E+03  0.90755547769E+02  0.21354346618E+04  0.21535437383E+04  0.12500000000E+03 0.  0.
         21    1    1    2  503  504 -0.18799231922E+03 -0.30948385749E+02 -0.47750692193E+02  0.19641548633E+03  0.00000000000E+00 0.  1.
         21    1    1    2  504  501 -0.43972911856E+02 -0.59807162020E+02 -0.89874335753E+01  0.74774912693E+02  0.00000000000E+00 0.  1.
<mgrwt>
<rscale>  4 0.27869237E+03</rscale>
<asrwt>0</asrwt>
<pdfrwt beam="1">  1       21 0.34641772E+00 0.27869237E+03</pdfrwt>
<pdfrwt beam="2">  1       21 0.26618279E-01 0.27869237E+03</pdfrwt>
<totfact> 0.21957244E+02</totfact>
</mgrwt>
</event>
<event>
 5    0  0.1856407E+000  0.2479468E+03  0.7546771E-02  0.1114609E+00
         21   -1    0    0  502  501  0.00000000000E+00  0.00000000000E+00  0.54738447683E+03  0.54738447683E+03  0.00000000000E+00 0.  1.
         21   -1    0    0  503  502 -0.00000000000E+00 -0.00000000000E+00 -0.12084450694E+03  0.12084450694E+03  0.00000000000E+00 0. -1.
         25    1    1    2    0    0  0.21100954569E+03 -0.36435861845E+02  0.34430552165E+03  0.42429222553E+03  0.12500000000E+03 0.  0.
         21    1    1    2  503  504 -0.17860444123E+03 -0.29784343481E+01  0.64490952874E+02  0.18991445574E+03  0.00000000000E+00 0. -1.
         21    1    1    2  504  501 -0.32405104461E+02  0.39414296193E+02  0.17743495364E+02  0.54022302499E+02  0.00000000000E+00 0.  1.
<mgrwt>
<rscale>  4 0.24794677E+03</rscale>
<asrwt>0</asrwt>
<pdfrwt beam="1">  1       21 0.84212995E-01 0.24794677E+03</pdfrwt>
<pdfrwt beam="2">  1       21 0.18591463E-01 0.24794677E+03</pdfrwt>
<totfact> 0.31470685E+04</totfact>
</mgrwt>
</event>
<event>
 5    0  0.1856407E+000  0.3058672E+03  0.7546771E-02  0.1082344E+00
         21   -1    0    0  502  501  0.00000000000E+00  0.00000000000E+00  0.13143640231E+03  0.13143640231E+03  0.00000000000E+00 0.  1.
         21   -1    0    0  503  502 -0.00000000000E+00 -0.00000000000E+00 -0.81199267045E+03  0.81199267045E+03  0.00000000000E+00 0.  1.
         25    1    1    2    0    0 -0.15162169415E+03 -0.23439407047E+03 -0.15088566794E+03  0.34105894388E+03  0.12500000000E+03 0.  0.
         21    1    1    2  503  504  0.11721666878E+03  0.17599903358E+03 -0.33418156597E+03  0.39546520239E+03  0.00000000000E+00 0.  1.
         21    1    1    2  504  501  0.34405025371E+02  0.58395036891E+02 -0.19548903423E+03  0.20690492650E+03  0.00000000000E+00 0.  1.
<mgrwt>
<rscale>  4 0.30586716E+03</rscale>
<asrwt>0</asrwt>
<pdfrwt beam="1">  1       21 0.20220984E-01 0.30586716E+03</pdfrwt>
<pdfrwt beam="2">  1       21 0.12492195E+00 0.30586716E+03</pdfrwt>
<totfact> 0.10111280E+04</totfact>
</mgrwt>
</event>
<event>
 5    0  0.1949495E+000  0.2787001E+03  0.7546771E-02  0.1096401E+00
         21   -1    0    0  502  501  0.00000000000E+00  0.00000000000E+00  0.83580625528E+02  0.83580625528E+02  0.00000000000E+00 0.  1.
         21   -1    0    0  503  502 -0.00000000000E+00 -0.00000000000E+00 -0.14347715097E+04  0.14347715097E+04  0.00000000000E+00 0.  1.
         25    1    1    2    0    0  0.24600395548E+03 -0.39125310191E+02 -0.21142385557E+03  0.34981964312E+03  0.12500000000E+03 0.  0.
         21    1    1    2  503  504 -0.33381798370E+02 -0.15615119742E+02 -0.12693537589E+03  0.13217702553E+03  0.00000000000E+00 0.  1.
         21    1    1    2  504  501 -0.21262215711E+03  0.54740429933E+02 -0.10128316527E+04  0.10363554665E+04  0.00000000000E+00 0.  1.
<mgrwt>
<rscale>  4 0.27870008E+03</rscale>
<asrwt>0</asrwt>
<pdfrwt beam="1">  1       21 0.12858558E-01 0.27870008E+03</pdfrwt>
<pdfrwt beam="2">  1       21 0.22073407E+00 0.27870008E+03</pdfrwt>
<totfact> 0.48101632E+03</totfact>
</mgrwt>
</event>
<event>
 5    0  0.1856407E+000  0.3150542E+03  0.7546771E-02  0.1077948E+00
         21   -1    0    0  502  501  0.00000000000E+00  0.00000000000E+00  0.75211894828E+03  0.75211894828E+03  0.00000000000E+00 0. -1.
         21   -1    0    0  503  502 -0.00000000000E+00 -0.00000000000E+00 -0.19308441498E+03  0.19308441498E+03  0.00000000000E+00 0. -1.
         25    1    1    2    0    0  0.26735261791E+03  0.11025742706E+03  0.54993522463E+03  0.63378850874E+03  0.12500000000E+03 0.  0.
         21    1    1    2  503  504 -0.17706534808E+03 -0.77546235093E+02  0.60428976104E+02  0.20252707775E+03  0.00000000000E+00 0. -1.
         21    1    1    2  504  501 -0.90287269821E+02 -0.32711191964E+02 -0.51329667433E+02  0.10888777677E+03  0.00000000000E+00 0.  1.
<mgrwt>
<rscale>  4 0.31505416E+03</rscale>
<asrwt>0</asrwt>
<pdfrwt beam="1">  1       21 0.11571061E+00 0.31505416E+03</pdfrwt>
<pdfrwt beam="2">  1       21 0.29705295E-01 0.31505416E+03</pdfrwt>
<totfact> 0.58150030E+03</totfact>
</mgrwt>
</event>
<event>
 5    0  0.1856407E+000  0.3511520E+03  0.7546771E-02  0.1062143E+00
         21   -1    0    0  502  501  0.00000000000E+00  0.00000000000E+00  0.24688028666E+03  0.24688028666E+03  0.00000000000E+00 0. -1.
         21   -1    0    0  503  502 -0.00000000000E+00 -0.00000000000E+00 -0.97900300599E+03  0.97900300599E+03  0.00000000000E+00 0. -1.
         25    1    1    2    0    0  0.17874025730E+03  0.27519932182E+03  0.68898048513E+02  0.35784729620E+03  0.12500000000E+03 0.  0.
         21    1    1    2  503  504 -0.17769706432E+03 -0.24704208646E+03 -0.75569437252E+03  0.81466559017E+03  0.00000000000E+00 0. -1.
         21    1    1    2  504  501 -0.10431929730E+01 -0.28157235360E+02 -0.45326395319E+02  0.53370406287E+02  0.00000000000E+00 0.  1.
<mgrwt>
<rscale>  4 0.35115203E+03</rscale>
<asrwt>0</asrwt>
<pdfrwt beam="1">  1       21 0.37981582E-01 0.35115203E+03</pdfrwt>
<pdfrwt beam="2">  1       21 0.15061585E+00 0.35115203E+03</pdfrwt>
<totfact> 0.17651776E+03</totfact>
</mgrwt>
</event>
<event>
 5    0  0.1856407E+000  0.2220672E+03  0.7546771E-02  0.1132351E+00
         21   -1    0    0  502  501  0.00000000000E+00  0.00000000000E+00  0.33671129085E+03  0.33671129085E+03  0.00000000000E+00 0.  1.
         21   -1    0    0  503  502 -0.00000000000E+00 -0.00000000000E+00 -0.25959838673E+03  0.25959838673E+03  0.00000000000E+00 0. -1.
         25    1    1    2    0    0 -0.18594636244E+03  0.10458911988E+03  0.19634238215E+03  0.31573765175E+03  0.12500000000E+03 0.  0.
         21    1    1    2  503  504  0.85316760294E+02  0.22493282481E+01 -0.10169200277E+03  0.13276020674E+03  0.00000000000E+00 0. -1.
         21    1    1    2  504  501  0.10062960215E+03 -0.10683844813E+03 -0.17537475258E+02  0.14781181910E+03  0.00000000000E+00 0. -1.
<mgrwt>
<rscale>  4 0.22206719E+03</rscale>
<asrwt>0</asrwt>
<pdfrwt beam="1">  1       21 0.51801737E-01 0.22206719E+03</pdfrwt>
<pdfrwt beam="2">  1       21 0.39938213E-01 0.22206719E+03</pdfrwt>
<totfact> 0.21023536E+04</totfact>
</mgrwt>
</event>
<event>
 5    0  0.2248714E+000  0.2549869E+03  0.7546771E-02  0.1110193E+00
         21   -1    0    0  502  501  0.00000000000E+00  0.00000000000E+00  0.22682313877E+03  0.22682313877E+03  0.00000000000E+00 0. -1.
         21   -1    0    0  503  502 -0.00000000000E+00 -0.00000000000E+00 -0.34929783818E+03  0.34929783818E+03  0.00000000000E+00 0. -1.
         25    1    1    2    0    0 -0.13823233523E+03 -0.17402628059E+03 -0.21317134357E+03  0.33235575301E+03  0.12500000000E+03 0.  0.
         21    1    1    2  503  504  0.12003888903E+03  0.15718590959E+03  0.93590673975E+02  0.21880575703E+03  0.00000000000E+00 0. -1.
         21    1    1    2  504  501  0.18193446200E+02  0.16840370997E+02 -0.28940298169E+01  0.24959466912E+02  0.00000000000E+00 0. -1.
<mgrwt>
<rscale>  4 0.25498691E+03</rscale>
<asrwt>0</asrwt>
<pdfrwt beam="1">  1       21 0.34895867E-01 0.25498691E+03</pdfrwt>
<pdfrwt beam="2">  1       21 0.53738129E-01 0.25498691E+03</pdfrwt>
<totfact> 0.25113168E+04</totfact>
</mgrwt>
</event>
<event>
 5    0  0.1856407E+000  0.5537180E+03  0.7546771E-02  0.1000637E+00
         21   -1    0    0  502  501  0.00000000000E+00  0.00000000000E+00  0.23028252659E+03  0.23028252659E+03  0.00000000000E+00 0. -1.
         21   -1    0    0  503  502 -0.00000000000E+00 -0.00000000000E+00 -0.17455806135E+04  0.17455806135E+04  0.00000000000E+00 0. -1.
         25    1    1    2    0    0 -0.49463762810E+03  0.21520271457E+03 -0.26954616433E+03  0.61583985435E+03  0.12500000000E+03 0.  0.
         21    1    1    2  503  504  0.77578881281E+01 -0.19088513922E+02 -0.40743705470E+02  0.45657482710E+02  0.00000000000E+00 0. -1.
         21    1    1    2  504  501  0.48687973998E+03 -0.19611420065E+03 -0.12050082171E+04  0.13143658030E+04  0.00000000000E+00 0. -1.
<mgrwt>
<rscale>  4 0.55371797E+03</rscale>
<asrwt>0</asrwt>
<pdfrwt beam="1">  1       21 0.35428082E-01 0.55371797E+03</pdfrwt>
<pdfrwt beam="2">  1       21 0.26855086E+00 0.55371797E+03</pdfrwt>
<totfact> 0.30174208E+02</totfact>
</mgrwt>
</event>
<event>
 5    0  0.1856407E+000  0.3797325E+03  0.7546771E-02  0.1053066E+00
         21   -1    0    0  502  501  0.00000000000E+00  0.00000000000E+00  0.87253937440E+02  0.87253937440E+02  0.00000000000E+00 0.  1.
         21   -1    0    0  503  502 -0.00000000000E+00 -0.00000000000E+00 -0.16204435201E+04  0.16204435201E+04  0.00000000000E+00 0.  1.
         25    1    1    2    0    0 -0.33515296782E+03 -0.22458996997E+02 -0.58194282295E+03  0.68345765602E+03  0.12500000000E+03 0.  0.
         21    1    1    2  503  504  0.11294293985E+03  0.89719909970E+02 -0.30068640683E+03  0.33349375580E+03  0.00000000000E+00 0.  1.
         21    1    1    2  504  501  0.22221002796E+03 -0.67260912973E+02 -0.65056035288E+03  0.69074604572E+03  0.00000000000E+00 0.  1.
<mgrwt>
<rscale>  4 0.37428551E+03</rscale>
<asrwt>0</asrwt>
<pdfrwt beam="1">  1       21 0.13423682E-01 0.37973250E+03</pdfrwt>
<pdfrwt beam="2">  1       21 0.24929901E+00 0.37973250E+03</pdfrwt>
<totfact> 0.27905302E+03</totfact>
</mgrwt>
</event>
<event>
 5    0  0.1856407E+000  0.2756540E+03  0.7546771E-02  0.1098087E+00
         21   -1    0    0  502  501  0.00000000000E+00  0.00000000000E+00  0.20263671295E+03  0.20263671295E+03  0.00000000000E+00 0. -1.
         21   -1    0    0  503  502 -0.00000000000E+00 -0.00000000000E+00 -0.83864183663E+03  0.83864183663E+03  0.00000000000E+00 0.  1.
         25    1    1    2    0    0  0.13065983558E+03 -0.22320961732E+03  0.31970070455E+02  0.28903565749E+03  0.12500000000E+03 0.  0.
         21    1    1    2  503  504 -0.19007205348E+03  0.11407698842E+03 -0.43097896357E+03  0.48464813199E+03  0.00000000000E+00 0.  1.
         21    1    1    2  504  501  0.59412217900E+02  0.10913262890E+03 -0.23699623056E+03  0.26759476009E+03  0.00000000000E+00 0.  1.
<mgrwt>
<rscale>  4 0.27565404E+03</rscale>
<asrwt>0</asrwt>
<pdfrwt beam="1">  1       21 0.31174879E-01 0.27565404E+03</pdfrwt>
<pdfrwt beam="2">  1       21 0.12902182E+00 0.27565404E+03</pdfrwt>
<totfact> 0.41038506E+03</totfact>
</mgrwt>
</event>
<event>
 5    0  0.1856407E+000  0.2405625E+03  0.7546771E-02  0.1119419E+00
         21   -1    0    0  502  501  0.00000000000E+00  0.00000000000E+00  0.19611210837E+03  0.19611210837E+03  0.00000000000E+00 0. -1.
         21   -1    0    0  503  502 -0.00000000000E+00 -0.00000000000E+00 -0.28846075331E+03  0.28846075331E+03  0.00000000000E+00 0. -1.
         25    1    1    2    0    0  0.36381322448E+02  0.20143976563E+03 -0.18071560792E+02  0.24052684073E+03  0.12500000000E+03 0.  0.
         21    1    1    2  503  504 -0.15242825073E+02 -0.20641424893E+03 -0.53023418420E+02  0.21366017125E+03  0.00000000000E+00 0. -1.
         21    1    1    2  504  501 -0.21138497375E+02  0.49744833013E+01 -0.21253665724E+02  0.30385849702E+02  0.00000000000E+00 0. -1.
<mgrwt>
<rscale>  4 0.24056246E+03</rscale>
<asrwt>0</asrwt>
<pdfrwt beam="1">  1       21 0.30171094E-01 0.24056246E+03</pdfrwt>
<pdfrwt beam="2">  1       21 0.44378577E-01 0.24056246E+03</pdfrwt>
<totfact> 0.50282476E+04</totfact>
</mgrwt>
</event>
