<LesHouchesEvents version="3.0">
  <!--
  <scalesfunctionalform>
    muR  H_T/2 := sum_i mT(i)/2, i=final state
    muF1 H_T/2 := sum_i mT(i)/2, i=final state
    muF2 H_T/2 := sum_i mT(i)/2, i=final state
    QES  H_T/2 := sum_i mT(i)/2, i=final state
  </scalesfunctionalform>
HERWIG6   
  -->
  <header>
       31
  </header>
  <init>
   2212   2212 0.65000000D+04 0.65000000D+04 -1 -1   244800   244800 -4   1
 0.38065480D-04 0.17471873D-05 0.14253325D-05     66
  </init>
  <event>
  7     66 0.14253325E-05 0.10918953E+03 0.75467711E-02 0.89535909E-01
       -1 -1    0    0    0  501 0.00000000E+00 0.00000000E+00 0.35417478E+03 0.35417492E+03 0.32000000E+00 0.0000E+00 0.9000E+01
        1 -1    0    0  503    0 0.00000000E+00 0.00000000E+00 -.25986603E+04 0.25986604E+04 0.32000000E+00 0.0000E+00 0.9000E+01
       23  2    1    2    0    0 -.64132057E+03 0.13000250E+03 -.84157735E+03 0.10701599E+04 0.93792152E+02 0.0000E+00 0.0000E+00
       25  1    1    2    0    0 0.78194877E+03 -.15896329E+03 -.46118574E+03 0.93007015E+03 0.12500000E+03 0.0000E+00 0.9000E+01
        4  1    3    3  502    0 -.42213247E+03 0.60207298E+02 -.48469815E+03 0.64556599E+03 0.15500000E+01 0.0000E+00 0.9000E+01
       -4  1    3    3    0  502 -.21918809E+03 0.69795198E+02 -.35687920E+03 0.42459387E+03 0.15500000E+01 0.0000E+00 0.9000E+01
       21  1    1    2  503  501 -.14062821E+03 0.28960789E+02 -.94172247E+03 0.95260526E+03 0.75000000E+00 0.0000E+00 0.9000E+01
#aMCatNLO 2  0  0  2  1 0.11715927D+02 0.00000000D+00  -5  6  0 0.00000000D+00 0.00000000D+00 0.00000000D+00 0.00000000D+00 0.00000000D+00
  <mgrwgt>
 0.2765502294D-04    1    2    0
 0.755498745885915D+03 0.000000000000000D+00 0.000000000000000D+00 0.755498745885915D+03
 0.755498745885915D+03 0.000000000000000D+00 0.000000000000000D+00 -.755498745885915D+03
 0.757758191348143D+03 0.708235957056945D+03 -.143782964500043D+03 0.190527595918336D+03
 0.477184120606102D+03 -.464530672112566D+03 0.689246844292947D+02 -.846482575224630D+02
 0.276055179817585D+03 -.243705284944379D+03 0.748582800707485D+02 -.105879338395873D+03
 0.000000000000000D+00 -.000000000000000D+00 0.000000000000000D+00 -.000000000000000D+00
 0.770742986075210D+03 0.000000000000000D+00 0.000000000000000D+00 0.770742986075210D+03
 0.119414573378538D+04 0.000000000000000D+00 0.000000000000000D+00 -.119414573378538D+04
 0.829842740169746D+03 0.781948772281903D+03 -.158963285487047D+03 0.190527595918336D+03
 0.434778784721876D+03 -.422187944920925D+03 0.602046784402057D+02 -.846482575224630D+02
 0.253182296393184D+03 -.219132620920588D+03 0.697978177040819D+02 -.105879338395873D+03
 0.447084898575780D+03 -.140628206440390D+03 0.289607893427593D+02 -.423402747710166D+03
0.516167981664D-04 0.000000000000D+00 0.000000000000D+00 0.614786021691D-05 0.191641191219D-08  6 -1 1 25 4 -4 21 2 0.54488418D-01 0.39979375D+00 0.64616916D+06 0.64616916D+06 0.64616916D+06 0.10607268D+01  1  2  1  2  6  2        1 0.276550229441D-04 0.100000000000D+01
  </mgrwgt>
  </event>
  <event>
  7     66 0.14253325E-05 0.60709640E+02 0.75467711E-02 0.93553704E-01
       -1 -1    0    0    0  501 0.00000000E+00 0.00000000E+00 0.86605333E+03 0.86605338E+03 0.32000000E+00 0.0000E+00 0.9000E+01
        1 -1    0    0  503    0 0.00000000E+00 0.00000000E+00 -.38244422E+03 0.38244435E+03 0.32000000E+00 0.0000E+00 0.9000E+01
       23  2    1    2    0    0 -.32803516E+03 0.42957950E+03 0.34437228E+03 0.64752106E+03 0.92442663E+02 0.0000E+00 0.0000E+00
       25  1    1    2    0    0 0.31183163E+03 -.42074840E+03 0.17041154E+03 0.56474177E+03 0.12500000E+03 0.0000E+00 0.9000E+01
        4  1    3    3  502    0 -.14082754E+03 0.13944720E+03 0.16788036E+03 0.25973859E+03 0.15500000E+01 0.0000E+00 0.9000E+01
       -4  1    3    3    0  502 -.18720762E+03 0.29013230E+03 0.17649192E+03 0.38778247E+03 0.15500000E+01 0.0000E+00 0.9000E+01
       21  1    1    2  503  501 0.16203531E+02 -.88311020E+01 -.31174714E+02 0.36234901E+02 0.75000000E+00 0.0000E+00 0.9000E+01
#aMCatNLO 2  0  0  2  1 0.11715927D+02 0.00000000D+00  -5  6  0 0.00000000D+00 0.00000000D+00 0.00000000D+00 0.00000000D+00 0.00000000D+00
  <mgrwgt>
 0.7958621704D-03    1    2    0
 0.548688949370281D+03 0.000000000000000D+00 0.000000000000000D+00 0.548688949370281D+03
 0.548688949370281D+03 0.000000000000000D+00 0.000000000000000D+00 -.548688949370281D+03
 0.551914526698780D+03 0.319920888321063D+03 -.425157134222427D+03 -.766595148482833D+02
 0.204937719029146D+03 -.137765240342161D+03 0.137742925965831D+03 0.636167712219613D+02
 0.340525653012634D+03 -.182155647978902D+03 0.287414208256595D+03 0.130427436263220D+02
 0.000000000000000D+00 0.000000000000000D+00 -.000000000000000D+00 -.000000000000000D+00
 0.550371825415290D+03 0.000000000000000D+00 0.000000000000000D+00 0.550371825415290D+03
 0.601800640882591D+03 0.000000000000000D+00 0.000000000000000D+00 -.601800640882591D+03
 0.543847274869529D+03 0.311831626123401D+03 -.420748397638629D+03 -.766595148482833D+02
 0.208109371617019D+03 -.140814485361869D+03 0.139404797931761D+03 0.636167712219613D+02
 0.345576403320317D+03 -.187220671618245D+03 0.290174701670077D+03 0.130427436263220D+02
 0.546394164910162D+02 0.162035308567125D+02 -.883110196320922D+01 -.514288154673011D+02
0.174303730557D-03 0.000000000000D+00 0.000000000000D+00 0.173260970131D-04 0.320095847389D-06  6 -1 1 25 4 -4 21 2 0.13323837D+00 0.58837312D-01 0.30269184D+06 0.30269184D+06 0.30269184D+06 0.10842650D+01  1  2  1  2  6  2        1 0.795862170361D-03 0.100000000000D+01
  </mgrwgt>
  </event>
  <event>
  7     66 0.14253325E-05 0.56625640E+02 0.75467711E-02 0.93470935E-01
       -1 -1    0    0    0  503 0.00000000E+00 0.00000000E+00 0.13141038E+04 0.13141038E+04 0.32000000E+00 0.0000E+00 0.9000E+01
        1 -1    0    0  501    0 0.00000000E+00 0.00000000E+00 -.41804837E+03 0.41804849E+03 0.32000000E+00 0.0000E+00 0.9000E+01
       23  2    1    2    0    0 0.52906082E+03 -.72582270E+02 0.22827182E+03 0.58824689E+03 0.93556611E+02 0.0000E+00 0.0000E+00
       25  1    1    2    0    0 -.52019968E+03 0.95193461E+02 0.72614099E+02 0.54824019E+03 0.12500000E+03 0.0000E+00 0.9000E+01
        4  1    3    3  502    0 0.35200496E+03 -.69499047E+01 0.16736319E+03 0.38983154E+03 0.15500000E+01 0.0000E+00 0.9000E+01
       -4  1    3    3    0  502 0.17705586E+03 -.65632366E+02 0.60908636E+02 0.19841535E+03 0.15500000E+01 0.0000E+00 0.9000E+01
       21  1    1    2  501  503 -.88611428E+01 -.22611191E+02 0.59516949E+03 0.59566523E+03 0.75000000E+00 0.0000E+00 0.9000E+01
#aMCatNLO 2  0  0  1  2 0.52277628D+01 0.00000000D+00  -5  6  0 0.00000000D+00 0.00000000D+00 0.00000000D+00 0.00000000D+00 0.00000000D+00
  <mgrwgt>
 0.4238292455D-03    1    2    0
 0.547832262889662D+03 0.000000000000000D+00 0.000000000000000D+00 0.547832262889662D+03
 0.547832262889662D+03 0.000000000000000D+00 0.000000000000000D+00 -.547832262889662D+03
 0.550968333157528D+03 -.524645451919693D+03 0.838490702561365D+02 -.752169351911359D+02
 0.355737932296072D+03 0.349165778120760D+03 -.143012281400086D+02 0.665448024814553D+02
 0.188958260325724D+03 0.175479673798933D+03 -.695478421161279D+02 0.867213270968053D+01
 0.000000000000000D+00 -.000000000000000D+00 -.000000000000000D+00 0.000000000000000D+00
 0.100194578042784D+04 0.000000000000000D+00 0.000000000000000D+00 0.100194578042784D+04
 0.548291605948094D+03 0.000000000000000D+00 0.000000000000000D+00 -.548291605948094D+03
 0.548591000870771D+03 -.520199676955545D+03 0.951934608688727D+02 -.752169351911359D+02
 0.358354037285436D+03 0.352053018583568D+03 -.693378739747722D+01 0.665448024814553D+02
 0.188988599816971D+03 0.177007801146499D+03 -.656484829095555D+02 0.867213270968053D+01
 0.454303748402756D+03 -.886114277452265D+01 -.226111905618400D+02 0.453654174479746D+03
0.387393838708D-03 0.000000000000D+00 0.000000000000D+00 0.791711355870D-05 0.100198279264D-06  6 -1 1 25 4 -4 21 2 0.20216971D+00 0.64315110D-01 0.30725203D+06 0.30725203D+06 0.30725203D+06 0.10837852D+01  1  2  1  1  6  1       -1 0.423829245543D-03 0.100000000000D+01
  </mgrwgt>
  </event>
  <event>
  7     66 0.14253325E-05 0.62378347E+02 0.75467711E-02 0.94909052E-01
       -1 -1    0    0    0  503 0.00000000E+00 0.00000000E+00 0.26094776E+03 0.26094796E+03 0.32000000E+00 0.0000E+00 0.9000E+01
        1 -1    0    0  501    0 0.00000000E+00 0.00000000E+00 -.14218603E+04 0.14218603E+04 0.32000000E+00 0.0000E+00 0.9000E+01
       23  2    1    2    0    0 -.10969059E+03 0.45192812E+03 -.26959892E+03 0.54533041E+03 0.91818435E+02 0.0000E+00 0.0000E+00
       25  1    1    2    0    0 0.10019949E+03 -.46397684E+03 -.95403515E+03 0.10729038E+04 0.12500000E+03 0.0000E+00 0.9000E+01
        4  1    3    3  502    0 -.69279372E+02 0.15825748E+03 -.62542361E+02 0.18373625E+03 0.15500000E+01 0.0000E+00 0.9000E+01
       -4  1    3    3    0  502 -.40411218E+02 0.29367064E+03 -.20705656E+03 0.36159416E+03 0.15500000E+01 0.0000E+00 0.9000E+01
       21  1    1    2  501  503 0.94911005E+01 0.12048717E+02 0.62721571E+02 0.64574070E+02 0.75000000E+00 0.0000E+00 0.9000E+01
#aMCatNLO 2  0  0  1  2 0.52277628D+01 0.00000000D+00  -5  6  0 0.00000000D+00 0.00000000D+00 0.00000000D+00 0.00000000D+00 0.00000000D+00
  <mgrwgt>
 0.4260176976D-03    1    2    0
 0.529425695825869D+03 0.000000000000000D+00 0.000000000000000D+00 0.529425695825869D+03
 0.529425695825869D+03 0.000000000000000D+00 0.000000000000000D+00 -.529425695825869D+03
 0.532822950347718D+03 0.104994624487838D+03 -.457889531136795D+03 -.218148120599813D+03
 0.209676621853171D+03 -.674136340139201D+02 0.160597817062317D+03 0.116739148770297D+03
 0.316351819450848D+03 -.375809904739175D+02 0.297291714074478D+03 0.101408971829516D+03
 0.000000000000000D+00 0.000000000000000D+00 0.000000000000000D+00 0.000000000000000D+00
 0.700287640385157D+03 0.000000000000000D+00 0.000000000000000D+00 0.700287640385157D+03
 0.529825563537300D+03 0.000000000000000D+00 0.000000000000000D+00 -.529825563537300D+03
 0.537148065644739D+03 0.100199489922425D+03 -.463976835762239D+03 -.218148120599813D+03
 0.208475436632150D+03 -.692876057003228D+02 0.158218856397298D+03 0.116739148770297D+03
 0.313338972118329D+03 -.404029847476358D+02 0.293709262203515D+03 0.101408971829516D+03
 0.171150729527240D+03 0.949110052553355D+01 0.120487171614260D+02 0.170462076847857D+03
0.652712840831D-04 0.000000000000D+00 0.000000000000D+00 0.237997335586D-04 0.667551752226D-06  6 -1 1 25 4 -4 21 2 0.40145765D-01 0.21874741D+00 0.23784841D+06 0.23784841D+06 0.23784841D+06 0.10920908D+01  1  2  1  1  6  1       -1 0.426017697573D-03 0.100000000000D+01
  </mgrwgt>
  </event>
  <event>
  7     66 0.14253325E-05 0.47601256E+02 0.75467711E-02 0.91872897E-01
       -1 -1    0    0    0  503 0.00000000E+00 0.00000000E+00 0.34879786E+03 0.34879801E+03 0.32000000E+00 0.0000E+00 0.9000E+01
        1 -1    0    0  501    0 0.00000000E+00 0.00000000E+00 -.11973339E+04 0.11973340E+04 0.32000000E+00 0.0000E+00 0.9000E+01
       23  2    1    2    0    0 -.41039400E+03 0.48102292E+03 -.36330540E+03 0.73492484E+03 0.91199909E+02 0.0000E+00 0.0000E+00
       25  1    1    2    0    0 0.40853780E+03 -.45561892E+03 -.46546297E+03 0.77895604E+03 0.12500000E+03 0.0000E+00 0.9000E+01
        4  1    3    3  502    0 -.10792199E+03 0.16073794E+03 -.15296195E+03 0.24674603E+03 0.15500000E+01 0.0000E+00 0.9000E+01
       -4  1    3    3    0  502 -.30247201E+03 0.32028498E+03 -.21034345E+03 0.48817882E+03 0.15500000E+01 0.0000E+00 0.9000E+01
       21  1    1    2  501  503 0.18561985E+01 -.25403995E+02 -.19767677E+02 0.32251077E+02 0.75000000E+00 0.0000E+00 0.9000E+01
#aMCatNLO 2  0  0  1  2 0.14575140D+01 0.00000000D+00  -5  6  0 0.00000000D+00 0.00000000D+00 0.00000000D+00 0.00000000D+00 0.00000000D+00
  <mgrwgt>
 0.7178440163D-03    1    2    0
 0.633310648578062D+03 0.000000000000000D+00 0.000000000000000D+00 0.633310648578062D+03
 0.633310648578062D+03 0.000000000000000D+00 0.000000000000000D+00 -.633310648578062D+03
 0.636195321633770D+03 0.409462807677614D+03 -.468278585748844D+03 -.466354213717844D+02
 0.191375050061652D+03 -.107582872219193D+03 0.156820378891065D+03 -.213940214927263D+02
 0.439050925460702D+03 -.301879935458421D+03 0.311458206857779D+03 0.680294428645107D+02
 0.000000000000000D+00 0.000000000000000D+00 -.000000000000000D+00 -.000000000000000D+00
 0.644975065627140D+03 0.000000000000000D+00 0.000000000000000D+00 0.644975065627140D+03
 0.647498757646898D+03 0.000000000000000D+00 0.000000000000000D+00 -.647498757646898D+03
 0.626331863164728D+03 0.408537801835207D+03 -.455618924936765D+03 -.466354213717844D+02
 0.194716671477524D+03 -.107865746997993D+03 0.160691812548803D+03 -.213940214927263D+02
 0.445828854387203D+03 -.302528253352912D+03 0.320331107185964D+03 0.680294428645107D+02
 0.255964342445827D+02 0.185619851569811D+01 -.254039947980032D+02 -.252369201975822D+01
0.136890128329D-03 0.000000000000D+00 0.000000000000D+00 0.476333923113D-04 0.452121939747D-06  6 -1 1 25 4 -4 21 2 0.53660768D-01 0.18420367D+00 0.41229929D+06 0.41229929D+06 0.41229929D+06 0.10744807D+01  1  2  1  1  6  1       -1 0.717844016300D-03 0.100000000000D+01
  </mgrwgt>
  </event>
  <event>
  7     66 0.14253325E-05 0.72139602E+02 0.75467711E-02 0.93325635E-01
       -1 -1    0    0    0  501 0.00000000E+00 0.00000000E+00 0.87008338E+03 0.87008344E+03 0.32000000E+00 0.0000E+00 0.9000E+01
       21 -1    0    0  501  503 0.00000000E+00 0.00000000E+00 -.36997205E+03 0.36997281E+03 0.75000000E+00 0.0000E+00 0.9000E+01
       23  2    1    2    0    0 -.53294725E+03 -.87846660E+02 0.29181947E+03 0.62133292E+03 0.95635678E+02 0.0000E+00 0.0000E+00
       25  1    1    2    0    0 0.52971717E+03 0.11413996E+03 0.19804006E+03 0.59031608E+03 0.12500000E+03 0.0000E+00 0.9000E+01
        4  1    3    3  502    0 -.23556269E+03 -.51152724E+02 0.18258073E+03 0.30239793E+03 0.15500000E+01 0.0000E+00 0.9000E+01
       -4  1    3    3    0  502 -.29738456E+03 -.36693936E+02 0.10923875E+03 0.31893499E+03 0.15500000E+01 0.0000E+00 0.9000E+01
       -1  1    1    2    0  503 0.32300825E+01 -.26293295E+02 0.10251793E+02 0.28407261E+02 0.32000000E+00 0.0000E+00 0.9000E+01
#aMCatNLO 2  0  0  2  1 0.43560801D+01 0.00000000D+00  -5  6  0 0.00000000D+00 0.00000000D+00 0.00000000D+00 0.00000000D+00 0.00000000D+00
  <mgrwgt>
 0.2973191038D-04    1    2    0
 0.553947007368459D+03 0.000000000000000D+00 0.000000000000000D+00 0.553947007368459D+03
 0.553947007368459D+03 0.000000000000000D+00 0.000000000000000D+00 -.553947007368459D+03
 0.556870943000317D+03 0.531341966352132D+03 0.100913879950655D+03 -.444111560806185D+02
 0.250502983763439D+03 -.234817068135724D+03 -.570936758822780D+02 0.659772806409730D+02
 0.300520087973163D+03 -.296524898216407D+03 -.438202040683766D+02 -.215661245603545D+02
 0.000000000000000D+00 0.000000000000000D+00 -.000000000000000D+00 -.000000000000000D+00
 0.566693904916488D+03 0.000000000000000D+00 0.000000000000000D+00 0.566693904916488D+03
 0.568042015678907D+03 0.000000000000000D+00 0.000000000000000D+00 -.568042015678907D+03
 0.557875934086239D+03 0.529717167499728D+03 0.114139955774666D+03 -.444111560806185D+02
 0.249904211737914D+03 -.235546436437800D+03 -.511565222139232D+02 0.659772806409730D+02
 0.300430537528980D+03 -.297400813553546D+03 -.366901383083800D+02 -.215661245603545D+02
 0.265252372422625D+02 0.323008249161843D+01 -.262932952523623D+02 -.134811076241941D+01
0.164394233598D-05 0.000000000000D+00 0.000000000000D+00 0.250933233028D-05 0.102847212551D-09  6 -1 21 25 4 -4 -1 2 0.13385882D+00 0.56918744D-01 0.31544478D+06 0.31544478D+06 0.31544478D+06 0.10829425D+01  1  2  1  6  6  2        1 0.297319103789D-04 0.100000000000D+01
  </mgrwgt>
  </event>
  <event>
  6     66 0.14253325E-05 0.26863192E+02 0.75467711E-02 0.95382050E-01
       -1 -1    0    0    0  501 0.00000000E+00 0.00000000E+00 0.56624899E+03 0.56624908E+03 0.32000000E+00 0.0000E+00 0.9000E+01
        1 -1    0    0  501    0 0.00000000E+00 0.00000000E+00 -.42029741E+03 0.42029753E+03 0.32000000E+00 0.0000E+00 0.9000E+01
       23  2    1    2    0    0 -.21587465E+03 0.40577663E+03 -.49975672E+02 0.47150387E+03 0.92529970E+02 0.0000E+00 0.0000E+00
       25  1    1    2    0    0 0.21587465E+03 -.40577663E+03 0.19592725E+03 0.51504274E+03 0.12500000E+03 0.0000E+00 0.9000E+01
        4  1    3    3  502    0 -.19972205E+03 0.37217538E+03 -.71554768E+02 0.42839922E+03 0.15500000E+01 0.0000E+00 0.9000E+01
       -4  1    3    3    0  502 -.16152603E+02 0.33601248E+02 0.21579096E+02 0.43104644E+02 0.15500000E+01 0.0000E+00 0.9000E+01
#aMCatNLO 1  0  0  1  2 0.14575140D+01 0.00000000D+00  -5  6  0 0.00000000D+00 0.00000000D+00 0.00000000D+00 0.00000000D+00 0.00000000D+00
  <mgrwgt>
 0.2716917451D-02    5    4    0
 0.487845351010970D+03 0.000000000000000D+00 0.000000000000000D+00 0.487845351010970D+03
 0.487845351010970D+03 0.000000000000000D+00 0.000000000000000D+00 -.487845351010970D+03
 0.491464943512740D+03 0.215874649379705D+03 -.405776627018274D+03 0.121063022524812D+03
 0.443982813123337D+03 -.199773600417437D+03 0.372270465269539D+03 -.136476912381425D+03
 0.402429453858624D+02 -.161010489622677D+02 0.335061617487346D+02 0.154138898566129D+02
 0.000000000000000D+00 0.000000000000000D+00 -.000000000000000D+00 0.000000000000000D+00
 0.346089265719494D+04 0.000000000000000D+00 0.000000000000000D+00 0.346089265719494D+04
 0.116345601952880D+04 0.000000000000000D+00 0.000000000000000D+00 -.116345601952880D+04
 0.213379545356083D+03 -.455729301089261D+02 -.114772309355578D+03 0.121063022524812D+03
 0.149770742371762D+04 -.920003694510225D+03 0.117392281753668D+04 -.136476912381425D+03
 0.133319575322460D+03 -.804804995300954D+02 0.105163731195862D+03 0.154138898566129D+02
 0.277994213232758D+04 0.104605712414925D+04 -.116431423937696D+04 0.229743663766614D+04
 0.487845351010970D+03 0.000000000000000D+00 0.000000000000000D+00 0.487845351010970D+03
 0.487845351010970D+03 0.000000000000000D+00 0.000000000000000D+00 -.487845351010970D+03
 0.491464943512740D+03 0.215874649379705D+03 -.405776627018274D+03 0.121063022524812D+03
 0.443982813123337D+03 -.199773600417437D+03 0.372270465269539D+03 -.136476912381425D+03
 0.000000000000000D+00 0.000000000000000D+00 -.000000000000000D+00 0.000000000000000D+00
 0.402429453858624D+02 -.161010489622677D+02 0.335061617487346D+02 0.154138898566129D+02
 0.346089265719494D+04 0.000000000000000D+00 0.000000000000000D+00 0.346089265719494D+04
 0.116345601952880D+04 0.000000000000000D+00 0.000000000000000D+00 -.116345601952880D+04
 0.213379545356083D+03 -.455729301089261D+02 -.114772309355578D+03 0.121063022524812D+03
 0.149770742371762D+04 -.920003694510225D+03 0.117392281753668D+04 -.136476912381425D+03
 0.277994213232758D+04 0.104605712414925D+04 -.116431423937696D+04 0.229743663766614D+04
 0.133319575322460D+03 -.804804995300954D+02 0.105163731195862D+03 0.154138898566129D+02
0.298857235204D-03 0.000000000000D+00 0.000000000000D+00 0.101773475861D-04 0.000000000000D+00  6 -1 1 25 4 -4 21 0 0.87115245D-01 0.64661156D-01 0.21901524D+06 0.21901524D+06 0.21901524D+06 0.10948087D+01  1  2  2  1  6  1       -1 0.278846362120D-02 0.100000000000D+01
0.708759258173D-04 0.000000000000D+00 -.114769047410D-05 0.101773475861D-04 0.000000000000D+00  6 -1 1 25 4 -4 21 2 0.87115245D-01 0.64661156D-01 0.21901524D+06 0.21901524D+06 0.21901524D+06 0.10948087D+01  1  2  3  1  6  1       -1 0.792640883686D-03 0.100000000000D+01
-.772906427054D-04 0.000000000000D+00 0.000000000000D+00 0.101773475861D-04 0.000000000000D+00  6 -1 1 25 4 -4 21 2 0.87115245D-01 0.64661156D-01 0.21901524D+06 0.21901524D+06 0.21901524D+06 0.10948087D+01  1  2 15  1  6  1       -1 -.864379867045D-03 0.100000000000D+01
0.268802086238D-03 0.000000000000D+00 -.234608836918D-03 0.101773475861D-04 0.000000000000D+00  6 -1 1 25 4 -4 21 2 0.73093802D+00 0.64661156D-01 0.21901524D+06 0.21901524D+06 0.21901524D+06 0.10948087D+01  1  2  5  1  6  1       -1 0.169599619423D-06 0.100000000000D+01
0.390276954185D-04 0.000000000000D+00 -.603652289642D-04 0.101773475861D-04 0.000000000000D+00  6 21 1 25 4 1 -4 2 0.73093802D+00 0.64661156D-01 0.21901524D+06 0.21901524D+06 0.21901524D+06 0.10948087D+01  3  4  5  5  5  1       -1 0.232139150567D-07 0.100000000000D+01
  </mgrwgt>
  </event>
  <event>
  7     66 0.14253325E-05 0.84310895E+02 0.75467711E-02 0.89019878E-01
       21 -1    0    0  503  501 0.00000000E+00 0.00000000E+00 0.68209275E+03 0.68209316E+03 0.75000000E+00 0.0000E+00 0.9000E+01
        1 -1    0    0  501    0 0.00000000E+00 0.00000000E+00 -.11218706E+04 0.11218706E+04 0.32000000E+00 0.0000E+00 0.9000E+01
       23  2    1    2    0    0 0.65490303E+03 -.33211570E+03 -.12308845E+03 0.75030979E+03 0.92818120E+02 0.0000E+00 0.0000E+00
       25  1    1    2    0    0 -.76716249E+03 0.33249907E+03 -.15923190E+03 0.86027537E+03 0.12500000E+03 0.0000E+00 0.9000E+01
        4  1    3    3  502    0 0.47621263E+03 -.25039843E+03 -.13064947E+03 0.55366915E+03 0.15500000E+01 0.0000E+00 0.9000E+01
        1  1    1    2  503    0 0.11225946E+03 -.38336363E+00 -.15745748E+03 0.19337862E+03 0.32000000E+00 0.0000E+00 0.9000E+01
       -4  1    3    3    0  502 0.17869040E+03 -.81717272E+02 0.75610141E+01 0.19664065E+03 0.15500000E+01 0.0000E+00 0.9000E+01
#aMCatNLO 2  0  0  1  2 0.78524076D+02 0.00000000D+00  -5  6  0 0.00000000D+00 0.00000000D+00 0.00000000D+00 0.00000000D+00 0.00000000D+00
  <mgrwgt>
 0.1490986687D-04    1    2    0
 0.790834598849972D+03 0.000000000000000D+00 0.000000000000000D+00 0.790834598849972D+03
 0.790834598849972D+03 0.000000000000000D+00 0.000000000000000D+00 -.790834598849972D+03
 0.793050547917404D+03 -.709088853352028D+03 0.332300747006728D+03 -.856639613674305D+01
 0.574431504731812D+03 0.515766512704434D+03 -.250580302494814D+03 -.341463029150849D+02
 0.000000000000000D+00 0.000000000000000D+00 -.000000000000000D+00 -.000000000000000D+00
 0.214187145050727D+03 0.193322340647594D+03 -.817204445119139D+02 0.427126990518279D+02
 0.814264749955796D+03 0.000000000000000D+00 0.000000000000000D+00 0.814264749955796D+03
 0.939767956883628D+03 0.000000000000000D+00 0.000000000000000D+00 -.939767956883628D+03
 0.845453898048334D+03 -.767162486624153D+03 0.332499067215231D+03 -.856639613674305D+01
 0.539209129329579D+03 0.476295666019426D+03 -.250445510402373D+03 -.341463029150849D+02
 0.168384642531327D+03 0.112259458058358D+03 -.383363634651137D+00 -.125503206927832D+03
 0.200985036930184D+03 0.178607362546368D+03 -.816701931782065D+02 0.427126990518279D+02
0.156594355888D-05 0.000000000000D+00 0.000000000000D+00 0.156893761105D-04 0.433810628927D-10  6 21 1 25 4 1 -4 2 0.10493736D+00 0.17259548D+00 0.71587801D+06 0.71587801D+06 0.71587801D+06 0.10576657D+01  1  2  1  5  5  1       -1 0.149098668661D-04 0.100000000000D+01
  </mgrwgt>
  </event>
  <event>
  7     66 0.14253325E-05 0.55884300E+02 0.75467711E-02 0.89068804E-01
       -1 -1    0    0    0  501 0.00000000E+00 0.00000000E+00 0.37097645E+03 0.37097659E+03 0.32000000E+00 0.0000E+00 0.9000E+01
        1 -1    0    0  503    0 0.00000000E+00 0.00000000E+00 -.19909670E+04 0.19909670E+04 0.32000000E+00 0.0000E+00 0.9000E+01
       23  2    1    2    0    0 -.80289876E+03 0.19683784E+03 -.96346076E+03 0.12727040E+04 0.90151992E+02 0.0000E+00 0.0000E+00
       25  1    1    2    0    0 0.80595352E+03 -.20996226E+03 -.60760234E+03 0.10384849E+04 0.12500000E+03 0.0000E+00 0.9000E+01
        4  1    3    3  502    0 -.53600990E+03 0.15635126E+03 -.70109777E+03 0.89626604E+03 0.15500000E+01 0.0000E+00 0.9000E+01
       -4  1    3    3    0  502 -.26688885E+03 0.40486576E+02 -.26236299E+03 0.37643800E+03 0.15500000E+01 0.0000E+00 0.9000E+01
       21  1    1    2  503  501 -.30547599E+01 0.13124426E+02 -.48927460E+02 0.50754714E+02 0.75000000E+00 0.0000E+00 0.9000E+01
#aMCatNLO 2  0  0  2  1 0.43560801D+01 0.00000000D+00  -5  6  0 0.00000000D+00 0.00000000D+00 0.00000000D+00 0.00000000D+00 0.00000000D+00
  <mgrwgt>
 0.2004949893D-03    1    2    0
 0.847521876102037D+03 0.000000000000000D+00 0.000000000000000D+00 0.847521876102037D+03
 0.847521876102037D+03 0.000000000000000D+00 0.000000000000000D+00 -.847521876102037D+03
 0.849733505870197D+03 0.804419426589792D+03 -.203371215946126D+03 0.134058068194349D+03
 0.574506068234263D+03 -.537122893383033D+03 0.160825271232670D+03 -.125265525883098D+03
 0.270804178099615D+03 -.267296533206759D+03 0.425459447134554D+02 -.879254231125134D+01
 0.000000000000000D+00 -.000000000000000D+00 0.000000000000000D+00 -.000000000000000D+00
 0.849635236176507D+03 0.000000000000000D+00 0.000000000000000D+00 0.849635236176507D+03
 0.869304616659946D+03 0.000000000000000D+00 0.000000000000000D+00 -.869304616659946D+03
 0.852784726266289D+03 0.805953517461282D+03 -.209962261839730D+03 0.134058068194349D+03
 0.572310992538320D+03 -.536089529069516D+03 0.156385539700612D+03 -.125265525883098D+03
 0.270001595220296D+03 -.266809228469318D+03 0.404522956680620D+02 -.879254231125134D+01
 0.238425388115484D+02 -.305475992244739D+01 0.131244264710554D+02 -.196693804834383D+02
0.157802324556D-03 0.000000000000D+00 0.000000000000D+00 0.267678687565D-04 0.880256061587D-06  6 -1 1 25 4 -4 21 2 0.57072917D-01 0.30630051D+00 0.70892136D+06 0.70892136D+06 0.70892136D+06 0.10579563D+01  1  2  1  2  6  2        1 0.200494989290D-03 0.100000000000D+01
  </mgrwgt>
  </event>
  <event>
  7     66 0.14253325E-05 0.77389026E+02 0.75467711E-02 0.92375439E-01
       -1 -1    0    0    0  503 0.00000000E+00 0.00000000E+00 0.65959910E+03 0.65959918E+03 0.32000000E+00 0.0000E+00 0.9000E+01
        1 -1    0    0  501    0 0.00000000E+00 0.00000000E+00 -.77309002E+03 0.77309009E+03 0.32000000E+00 0.0000E+00 0.9000E+01
       23  2    1    2    0    0 -.58726211E+03 0.13167410E+03 0.20954132E+03 0.64375847E+03 0.91118362E+02 0.0000E+00 0.0000E+00
       25  1    1    2    0    0 0.56243598E+03 -.13507259E+03 -.39581589E+03 0.71195087E+03 0.12500000E+03 0.0000E+00 0.9000E+01
        4  1    3    3  502    0 -.27860575E+03 0.10897595E+03 0.10683269E+03 0.31766735E+03 0.15500000E+01 0.0000E+00 0.9000E+01
       -4  1    3    3    0  502 -.30865636E+03 0.22698147E+02 0.10270863E+03 0.32609112E+03 0.15500000E+01 0.0000E+00 0.9000E+01
       21  1    1    2  501  503 0.24826130E+02 0.33984950E+01 0.72783642E+02 0.76979917E+02 0.75000000E+00 0.0000E+00 0.9000E+01
#aMCatNLO 2  0  0  1  2 0.56953498D+01 0.00000000D+00  -5  6  0 0.00000000D+00 0.00000000D+00 0.00000000D+00 0.00000000D+00 0.00000000D+00
  <mgrwgt>
 0.1098978523D-02    1    2    0
 0.671308746829923D+03 0.000000000000000D+00 0.000000000000000D+00 0.671308746829923D+03
 0.671308746829923D+03 0.000000000000000D+00 0.000000000000000D+00 -.671308746829923D+03
 0.674035675467389D+03 0.574804328277886D+03 -.133379463391580D+03 -.300847128524041D+03
 0.330708994207402D+03 -.272437958784111D+03 0.109844064806798D+03 0.151921949993864D+03
 0.337872823985055D+03 -.302366369493775D+03 0.235353985847820D+02 0.148925178530177D+03
 0.000000000000000D+00 0.000000000000000D+00 0.000000000000000D+00 0.000000000000000D+00
 0.757409918894311D+03 0.000000000000000D+00 0.000000000000000D+00 0.757409918894311D+03
 0.673251236653184D+03 0.000000000000000D+00 0.000000000000000D+00 -.673251236653184D+03
 0.663862054228215D+03 0.562435976553527D+03 -.135072590044116D+03 -.300847128524041D+03
 0.335526150498197D+03 -.278597047343686D+03 0.109000935728006D+03 0.151921949993864D+03
 0.343463097826416D+03 -.308665058949899D+03 0.226731592798304D+02 0.148925178530177D+03
 0.878098529946658D+02 0.248261297400581D+02 0.339849503628001D+01 0.841586822411272D+02
0.349800250478D-03 0.000000000000D+00 0.000000000000D+00 0.369576298602D-04 0.367678793160D-06  6 -1 1 25 4 -4 21 2 0.10147655D+00 0.11893665D+00 0.37546006D+06 0.37546006D+06 0.37546006D+06 0.10774154D+01  1  2  1  1  6  1       -1 0.109897852331D-02 0.100000000000D+01
  </mgrwgt>
  </event>
  <event>
  7     66 0.14253325E-05 0.58167404E+02 0.75467711E-02 0.93733835E-01
       -1 -1    0    0    0  501 0.00000000E+00 0.00000000E+00 0.85196222E+03 0.85196228E+03 0.32000000E+00 0.0000E+00 0.9000E+01
        1 -1    0    0  503    0 0.00000000E+00 0.00000000E+00 -.79724236E+03 0.79724242E+03 0.32000000E+00 0.0000E+00 0.9000E+01
       23  2    1    2    0    0 0.26313175E+03 -.45066746E+03 0.46429723E+03 0.70454176E+03 0.92020066E+02 0.0000E+00 0.0000E+00
       25  1    1    2    0    0 -.27347900E+03 0.45605847E+03 -.11471170E+02 0.54638510E+03 0.12500000E+03 0.0000E+00 0.9000E+01
        4  1    3    3  502    0 0.19969693E+03 -.29132080E+03 0.35719771E+03 0.50233383E+03 0.15500000E+01 0.0000E+00 0.9000E+01
       -4  1    3    3    0  502 0.63434819E+02 -.15934667E+03 0.10709952E+03 0.20220793E+03 0.15500000E+01 0.0000E+00 0.9000E+01
       21  1    1    2  503  501 0.10347255E+02 -.53910032E+01 -.39810620E+03 0.39827784E+03 0.75000000E+00 0.0000E+00 0.9000E+01
#aMCatNLO 2  0  0  2  2 0.12740606D+03 0.00000000D+00  -5  6  0 0.00000000D+00 0.00000000D+00 0.00000000D+00 0.00000000D+00 0.00000000D+00
  <mgrwgt>
 0.2675637953D-02    1    2    0
 0.583015959269953D+03 0.000000000000000D+00 0.000000000000000D+00 0.583015959269953D+03
 0.583015959269953D+03 0.000000000000000D+00 0.000000000000000D+00 -.583015959269953D+03
 0.586085046630709D+03 -.268258276697280D+03 0.453338428678356D+03 -.224482622826279D+03
 0.403373459088619D+03 0.203301098199217D+03 -.293215915684322D+03 0.188157481269053D+03
 0.176573412820578D+03 0.649571784980622D+02 -.160122512994034D+03 0.363251415572262D+02
 0.000000000000000D+00 0.000000000000000D+00 -.000000000000000D+00 -.000000000000000D+00
 0.583103640368424D+03 0.000000000000000D+00 0.000000000000000D+00 0.583103640368424D+03
 0.116483564700053D+04 0.000000000000000D+00 0.000000000000000D+00 -.116483564700053D+04
 0.590590837550965D+03 -.273479000042806D+03 0.456058467725107D+03 -.224482622826279D+03
 0.400233930290854D+03 0.199735620301038D+03 -.291358272890113D+03 0.188157481269053D+03
 0.175265521820815D+03 0.633961252253295D+02 -.159309191625544D+03 0.363251415572262D+02
 0.581848997706316D+03 0.103472545164383D+02 -.539100320944975D+01 -.581732006632103D+03
0.161667743586D-02 0.000000000000D+00 0.000000000000D+00 0.199607096852D-04 0.115570432398D-05  6 -1 1 25 4 -4 21 2 0.13107107D+00 0.12265263D+00 0.29302717D+06 0.29302717D+06 0.29302717D+06 0.10853083D+01  1  2  1  2  6  2        1 0.267563795299D-02 0.100000000000D+01
  </mgrwgt>
  </event>
  <event>
  7     66 0.14253325E-05 0.33740769E+02 0.75467711E-02 0.94763172E-01
       -1 -1    0    0    0  501 0.00000000E+00 0.00000000E+00 0.15253816E+03 0.15253849E+03 0.32000000E+00 0.0000E+00 0.9000E+01
        1 -1    0    0  503    0 0.00000000E+00 0.00000000E+00 -.19427399E+04 0.19427399E+04 0.32000000E+00 0.0000E+00 0.9000E+01
       23  2    1    2    0    0 -.22182399E+03 0.42642609E+03 -.11814480E+04 0.12792977E+04 0.98682523E+02 0.0000E+00 0.0000E+00
       25  1    1    2    0    0 0.20681152E+03 -.42241565E+03 -.47067156E+03 0.67702489E+03 0.12500000E+03 0.0000E+00 0.9000E+01
        4  1    3    3  502    0 -.16809001E+03 0.37691291E+03 -.10606510E+04 0.11381127E+04 0.15500000E+01 0.0000E+00 0.9000E+01
       -4  1    3    3    0  502 -.53733977E+02 0.49513178E+02 -.12079699E+03 0.14118503E+03 0.15500000E+01 0.0000E+00 0.9000E+01
       21  1    1    2  503  501 0.15012466E+02 -.40104393E+01 -.13808219E+03 0.13895579E+03 0.75000000E+00 0.0000E+00 0.9000E+01
#aMCatNLO 2  0  0  2  1 0.17833260D+02 0.00000000D+00  -5  6  0 0.00000000D+00 0.00000000D+00 0.00000000D+00 0.00000000D+00 0.00000000D+00
  <mgrwgt>
 0.5232329309D-03    1    2    0
 0.523798080955250D+03 0.000000000000000D+00 0.000000000000000D+00 0.523798080955250D+03
 0.523798080955250D+03 0.000000000000000D+00 0.000000000000000D+00 -.523798080955250D+03
 0.526607739722689D+03 0.214324377085145D+03 -.424422639694479D+03 0.188735783140544D+03
 0.448890296049118D+03 -.161658602492519D+03 0.375268098067888D+03 -.185857065240310D+03
 0.720981261386919D+02 -.526657745926255D+02 0.491545416265920D+02 -.287871790023360D+01
 0.000000000000000D+00 0.000000000000000D+00 -.000000000000000D+00 -.000000000000000D+00
 0.525356727929501D+03 0.000000000000000D+00 0.000000000000000D+00 0.525356727929501D+03
 0.564071088752610D+03 0.000000000000000D+00 0.000000000000000D+00 -.564071088752610D+03
 0.521969527154637D+03 0.206811527698677D+03 -.422415652469579D+03 0.188735783140544D+03
 0.452692918880939D+03 -.168118268477181D+03 0.376993737228402D+03 -.185857065240310D+03
 0.730489532514366D+02 -.537057248001969D+02 0.494323545672969D+02 -.287871790023360D+01
 0.417164173950986D+02 0.150124655787008D+02 -.401043932612000D+01 -.387143608231096D+02
0.719992967691D-04 0.000000000000D+00 0.000000000000D+00 0.663832809666D-06 0.175162179168D-07  6 -1 1 25 4 -4 21 2 0.23467286D-01 0.29888117D+00 0.24401862D+06 0.24401862D+06 0.24401862D+06 0.10912512D+01  1  2  1  2  6  2        1 0.523232930935D-03 0.100000000000D+01
  </mgrwgt>
  </event>
  <event>
  7     66 0.14253325E-05 0.55938675E+02 0.75467711E-02 0.93671902E-01
       -1 -1    0    0    0  503 0.00000000E+00 0.00000000E+00 0.18973450E+04 0.18973450E+04 0.32000000E+00 0.0000E+00 0.9000E+01
        1 -1    0    0  501    0 0.00000000E+00 0.00000000E+00 -.21769326E+03 0.21769349E+03 0.32000000E+00 0.0000E+00 0.9000E+01
       23  2    1    2    0    0 -.37067603E+03 -.38152739E+03 0.78878592E+03 0.95581529E+03 0.91846399E+02 0.0000E+00 0.0000E+00
       25  1    1    2    0    0 0.29131956E+03 0.34742507E+03 0.29076556E+03 0.55293840E+03 0.12500000E+03 0.0000E+00 0.9000E+01
        4  1    3    3  502    0 -.25918781E+03 -.26166414E+03 0.46678497E+03 0.59458982E+03 0.15500000E+01 0.0000E+00 0.9000E+01
       -4  1    3    3    0  502 -.11148822E+03 -.11986325E+03 0.32200095E+03 0.36122546E+03 0.15500000E+01 0.0000E+00 0.9000E+01
       21  1    1    2  501  503 0.79356472E+02 0.34102322E+02 0.60010027E+03 0.60628485E+03 0.75000000E+00 0.0000E+00 0.9000E+01
#aMCatNLO 2  0  0  1  1 0.73014669D+02 0.00000000D+00  -5  6  0 0.00000000D+00 0.00000000D+00 0.00000000D+00 0.00000000D+00 0.00000000D+00
  <mgrwgt>
 0.1481717461D-03    1    2    0
 0.525225156548657D+03 0.000000000000000D+00 0.000000000000000D+00 0.525225156548657D+03
 0.525225156548657D+03 0.000000000000000D+00 0.000000000000000D+00 -.525225156548657D+03
 0.528647136290485D+03 0.329870993097110D+03 0.363992002798677D+03 -.150125762345657D+03
 0.346261668694171D+03 -.232104193255802D+03 -.250047665947201D+03 0.591688383720870D+02
 0.175541508112659D+03 -.977667998413084D+02 -.113944336851475D+03 0.909569239735703D+02
 0.000000000000000D+00 0.000000000000000D+00 0.000000000000000D+00 0.000000000000000D+00
 0.772625658366908D+03 0.000000000000000D+00 0.000000000000000D+00 0.772625658366908D+03
 0.534590903301603D+03 0.000000000000000D+00 0.000000000000000D+00 -.534590903301603D+03
 0.493694243613636D+03 0.291319556322138D+03 0.347425067837149D+03 -.150125762345657D+03
 0.373082261069486D+03 -.259229909355002D+03 -.261704558971019D+03 0.591688383720870D+02
 0.187218883521908D+03 -.111446119271649D+03 -.119822830995370D+03 0.909569239735703D+02
 0.253221173463482D+03 0.793564723045126D+02 0.341023221292395D+02 0.238034755065304D+03
0.316286067771D-03 0.000000000000D+00 0.000000000000D+00 0.372077645530D-04 0.341252073276D-07  6 -1 1 25 4 -4 21 2 0.29189895D+00 0.33491256D-01 0.29631056D+06 0.29631056D+06 0.29631056D+06 0.10849497D+01  1  2  1  1  6  1       -1 0.148171746098D-03 0.100000000000D+01
  </mgrwgt>
  </event>
  <event>
  7     66 0.14253325E-05 0.11943211E+02 0.75467711E-02 0.93523299E-01
       -1 -1    0    0    0  503 0.00000000E+00 0.00000000E+00 0.83933357E+03 0.83933363E+03 0.32000000E+00 0.0000E+00 0.9000E+01
        1 -1    0    0  501    0 0.00000000E+00 0.00000000E+00 -.63077280E+03 0.63077288E+03 0.32000000E+00 0.0000E+00 0.9000E+01
       23  2    1    2    0    0 0.34996468E+03 0.39468972E+03 -.14898229E+03 0.55538372E+03 0.89443270E+02 0.0000E+00 0.0000E+00
       25  1    1    2    0    0 -.36998595E+03 -.38342953E+03 -.90887252E+01 0.54737137E+03 0.12500000E+03 0.0000E+00 0.9000E+01
        4  1    3    3  502    0 0.36755552E+01 0.29793133E+02 0.20870920E+01 0.30131361E+02 0.15500000E+01 0.0000E+00 0.9000E+01
       -4  1    3    3    0  502 0.34628912E+03 0.36489659E+03 -.15106938E+03 0.52525236E+03 0.15500000E+01 0.0000E+00 0.9000E+01
       21  1    1    2  501  503 0.20021273E+02 -.11260192E+02 0.36663178E+03 0.36735143E+03 0.75000000E+00 0.0000E+00 0.9000E+01
#aMCatNLO 2  0  0  1  2 0.15065248D+02 0.00000000D+00  -5  6  0 0.00000000D+00 0.00000000D+00 0.00000000D+00 0.00000000D+00 0.00000000D+00
  <mgrwgt>
 0.1024463662D-03    1    2    0
 0.545562712234319D+03 0.000000000000000D+00 0.000000000000000D+00 0.545562712234319D+03
 0.545562712234319D+03 0.000000000000000D+00 0.000000000000000D+00 -.545562712234319D+03
 0.549056765936838D+03 -.359887460945752D+03 -.389109037211874D+03 0.700963967339806D+02
 0.303702637404925D+02 0.413192832981401D+01 0.293778195482828D+02 0.649798480552928D+01
 0.511698394791307D+03 0.355755532615938D+03 0.359731217663592D+03 -.765943815395099D+02
 0.000000000000000D+00 0.000000000000000D+00 -.000000000000000D+00 0.000000000000000D+00
 0.969658180005578D+03 0.000000000000000D+00 0.000000000000000D+00 0.969658180005578D+03
 0.545994722213673D+03 0.000000000000000D+00 0.000000000000000D+00 -.545994722213673D+03
 0.551766540162184D+03 -.369985952902184D+03 -.383429530243202D+03 0.700963967339806D+02
 0.306043484680088D+02 0.357257277518270D+01 0.296924074871750D+02 0.649798480552928D+01
 0.508996297621776D+03 0.346392107001493D+03 0.364997314943990D+03 -.765943815395099D+02
 0.424285715967282D+03 0.200212731255083D+02 -.112601921879622D+02 0.423663457791905D+03
0.417610332625D-04 0.000000000000D+00 0.000000000000D+00 0.263682805654D-05 0.368028137587D-07  6 -1 1 25 4 -4 21 2 0.12912817D+00 0.97041921D-01 0.30435813D+06 0.30435813D+06 0.30435813D+06 0.10840888D+01  1  2  1  1  6  1       -1 0.102446366184D-03 0.100000000000D+01
  </mgrwgt>
  </event>
  <event>
  7     66 0.14253325E-05 0.36348607E+02 0.75467711E-02 0.94006495E-01
       21 -1    0    0  503  501 0.00000000E+00 0.00000000E+00 0.41222578E+03 0.41222646E+03 0.75000000E+00 0.0000E+00 0.9000E+01
        1 -1    0    0  501    0 0.00000000E+00 0.00000000E+00 -.99837956E+03 0.99837961E+03 0.32000000E+00 0.0000E+00 0.9000E+01
       23  2    1    2    0    0 -.40367749E+03 0.31751302E+03 -.29554554E+03 0.59938422E+03 0.90245500E+02 0.0000E+00 0.0000E+00
       25  1    1    2    0    0 0.40709497E+03 -.30385338E+03 -.42627569E+03 0.67482528E+03 0.12500000E+03 0.0000E+00 0.9000E+01
        4  1    3    3  502    0 -.31276451E+03 0.28371806E+03 -.21821532E+03 0.47532925E+03 0.15500000E+01 0.0000E+00 0.9000E+01
        1  1    1    2  503    0 -.34174785E+01 -.13659638E+02 0.13566745E+03 0.13639657E+03 0.32000000E+00 0.0000E+00 0.9000E+01
       -4  1    3    3    0  502 -.90912986E+02 0.33794959E+02 -.77330217E+02 0.12405497E+03 0.15500000E+01 0.0000E+00 0.9000E+01
#aMCatNLO 2  0  0  1  2 0.11060070D+02 0.00000000D+00  -5  6  0 0.00000000D+00 0.00000000D+00 0.00000000D+00 0.00000000D+00 0.00000000D+00
  <mgrwgt>
 0.1179248048D-03    1    2    0
 0.524972785873369D+03 0.000000000000000D+00 0.000000000000000D+00 0.524972785873369D+03
 0.524972785873369D+03 0.000000000000000D+00 0.000000000000000D+00 -.524972785873369D+03
 0.528535232410323D+03 0.405379066564503D+03 -.310711833507277D+03 -.533897069562283D+02
 0.424261352476536D+03 -.314215167529061D+03 0.278255376051428D+03 0.619715208654939D+02
 0.000000000000000D+00 -.000000000000000D+00 -.000000000000000D+00 0.000000000000000D+00
 0.971489868598787D+02 -.911638990354419D+02 0.324564574558494D+02 -.858181390926568D+01
 0.783604354318872D+03 0.000000000000000D+00 0.000000000000000D+00 0.783604354318872D+03
 0.525211675099042D+03 0.000000000000000D+00 0.000000000000000D+00 -.525211675099042D+03
 0.525859915910276D+03 0.407094970165800D+03 -.303853378487053D+03 -.533897069562283D+02
 0.426896822243826D+03 -.312830008104151D+03 0.283791848848855D+03 0.619715208654939D+02
 0.258776045173573D+03 -.341747852684674D+01 -.136596384209710D+02 0.258392679219830D+03
 0.972832460902404D+02 -.908474835348027D+02 0.337211680591694D+02 -.858181390926568D+01
0.255472410692D-05 0.000000000000D+00 0.000000000000D+00 0.154724611247D-04 0.253680875171D-07  6 21 1 25 4 1 -4 2 0.63419395D-01 0.15359688D+00 0.27904912D+06 0.27904912D+06 0.27904912D+06 0.10868857D+01  1  2  1  5  5  1       -1 0.117924804781D-03 0.100000000000D+01
  </mgrwgt>
  </event>
  <event>
  7     66 0.14253325E-05 0.63453347E+02 0.75467711E-02 0.86010450E-01
       -1 -1    0    0    0  503 0.00000000E+00 0.00000000E+00 0.12310382E+04 0.12310382E+04 0.32000000E+00 0.0000E+00 0.9000E+01
        1 -1    0    0  501    0 0.00000000E+00 0.00000000E+00 -.13957479E+04 0.13957479E+04 0.32000000E+00 0.0000E+00 0.9000E+01
       23  2    1    2    0    0 0.86688345E+03 0.74718963E+03 -.21938526E+03 0.11682532E+04 0.83104389E+02 0.0000E+00 0.0000E+00
       25  1    1    2    0    0 -.87115587E+03 -.71921591E+03 -.24071536E+03 0.11617887E+04 0.12500000E+03 0.0000E+00 0.9000E+01
        4  1    3    3  502    0 0.39196969E+03 0.36220904E+03 -.64521384E+02 0.53758817E+03 0.15500000E+01 0.0000E+00 0.9000E+01
       -4  1    3    3    0  502 0.47491376E+03 0.38498059E+03 -.15486388E+03 0.63066501E+03 0.15500000E+01 0.0000E+00 0.9000E+01
       21  1    1    2  501  503 0.42724204E+01 -.27973720E+02 0.29539093E+03 0.29674424E+03 0.75000000E+00 0.0000E+00 0.9000E+01
#aMCatNLO 2  0  0  1  2 0.11060070D+02 0.00000000D+00  -5  6  0 0.00000000D+00 0.00000000D+00 0.00000000D+00 0.00000000D+00 0.00000000D+00
  <mgrwgt>
 0.6952999077D-04    1    2    0
 0.114199406392639D+04 0.000000000000000D+00 0.000000000000000D+00 0.114199406392639D+04
 0.114199406392639D+04 0.000000000000000D+00 0.000000000000000D+00 -.114199406392639D+04
 0.114390271234115D+04 -.869022967371844D+03 -.733181116024755D+03 -.115303333151616D+02
 0.531700656288547D+03 0.392938787807790D+03 0.355666799719594D+03 0.424949939526856D+02
 0.608384759223083D+03 0.476084179564055D+03 0.377514316305161D+03 -.309646606375240D+02
 0.000000000000000D+00 0.000000000000000D+00 -.000000000000000D+00 0.000000000000000D+00
 0.150373253176377D+04 0.000000000000000D+00 0.000000000000000D+00 0.150373253176377D+04
 0.114263527297113D+04 0.000000000000000D+00 0.000000000000000D+00 -.114263527297113D+04
 0.113663627814548D+04 -.871155869761100D+03 -.719215913888760D+03 -.115303333151616D+02
 0.535362553309283D+03 0.391940803700203D+03 0.362201111773052D+03 0.424949939526856D+02
 0.612164593253566D+03 0.474942645636785D+03 0.384988522400913D+03 -.309646606375240D+02
 0.362204380026568D+03 0.427242042411125D+01 -.279737202852049D+02 0.361097258792635D+03
0.441321300613D-03 0.000000000000D+00 0.000000000000D+00 0.104992005287D-05 0.784692262030D-08  6 -1 1 25 4 -4 21 2 0.18939043D+00 0.21473037D+00 0.13339444D+07 0.13339444D+07 0.13339444D+07 0.10396342D+01  1  2  1  1  6  1       -1 0.695299907737D-04 0.100000000000D+01
  </mgrwgt>
  </event>
  <event>
  7     66 0.14253325E-05 0.34780800E+02 0.75467711E-02 0.94368508E-01
       -1 -1    0    0    0  503 0.00000000E+00 0.00000000E+00 0.15668724E+03 0.15668756E+03 0.32000000E+00 0.0000E+00 0.9000E+01
        1 -1    0    0  501    0 0.00000000E+00 0.00000000E+00 -.16783083E+04 0.16783083E+04 0.32000000E+00 0.0000E+00 0.9000E+01
       23  2    1    2    0    0 0.29021927E+03 0.40254762E+03 -.70336998E+03 0.86513278E+03 0.86334121E+02 0.0000E+00 0.0000E+00
       25  1    1    2    0    0 -.29569799E+03 -.38390156E+03 -.79667218E+03 0.94081309E+03 0.12500000E+03 0.0000E+00 0.9000E+01
        4  1    3    3  502    0 0.30955658E+02 0.99943775E+02 -.12978601E+03 0.16671479E+03 0.15500000E+01 0.0000E+00 0.9000E+01
       -4  1    3    3    0  502 0.25926362E+03 0.30260385E+03 -.57358397E+03 0.69841799E+03 0.15500000E+01 0.0000E+00 0.9000E+01
       21  1    1    2  501  503 0.54787104E+01 -.18646067E+02 -.21578870E+02 0.29049995E+02 0.75000000E+00 0.0000E+00 0.9000E+01
#aMCatNLO 2  0  0  1  2 0.11060070D+02 0.00000000D+00  -5  6  0 0.00000000D+00 0.00000000D+00 0.00000000D+00 0.00000000D+00 0.00000000D+00
  <mgrwgt>
 0.1220003206D-03    1    2    0
 0.502726640861862D+03 0.000000000000000D+00 0.000000000000000D+00 0.502726640861862D+03
 0.502726640861862D+03 0.000000000000000D+00 0.000000000000000D+00 -.502726640861862D+03
 0.506790191208811D+03 -.292952006180651D+03 -.393247133776326D+03 -.273333451465320D+02
 0.104037887882917D+03 0.314533809550074D+02 0.979337623270073D+02 0.156059327857999D+02
 0.394625202631995D+03 0.261498625225644D+03 0.295313371449318D+03 0.117274123607321D+02
 0.000000000000000D+00 0.000000000000000D+00 -.000000000000000D+00 0.000000000000000D+00
 0.515093913335439D+03 0.000000000000000D+00 0.000000000000000D+00 0.515093913335439D+03
 0.510513867161871D+03 0.000000000000000D+00 0.000000000000000D+00 -.510513867161871D+03
 0.501188403660370D+03 -.295697985158274D+03 -.383901557407713D+03 -.273333451465320D+02
 0.105702106673068D+03 0.308819981709392D+02 0.998783880826065D+02 0.156059327857999D+02
 0.398750575639234D+03 0.259337276542668D+03 0.302669235911702D+03 0.117274123607321D+02
 0.199666945246385D+02 0.547871044466697D+01 -.186460665865946D+02 0.458004617356730D+01
0.118019095903D-04 0.000000000000D+00 0.000000000000D+00 0.178695670377D-05 0.299331215543D-07  6 -1 1 25 4 -4 21 2 0.24105425D-01 0.25819775D+00 0.26163154D+06 0.26163154D+06 0.26163154D+06 0.10889764D+01  1  2  1  1  6  1       -1 0.122000320628D-03 0.100000000000D+01
  </mgrwgt>
  </event>
  <event>
  7     66 0.14253325E-05 0.16311403E+03 0.75467711E-02 0.93202197E-01
       -1 -1    0    0    0  501 0.00000000E+00 0.00000000E+00 0.44283877E+03 0.44283889E+03 0.32000000E+00 0.0000E+00 0.9000E+01
        1 -1    0    0  503    0 0.00000000E+00 0.00000000E+00 -.11495994E+04 0.11495994E+04 0.32000000E+00 0.0000E+00 0.9000E+01
       23  2    1    2    0    0 0.37430469E+03 0.12564931E+03 0.96490474E+02 0.41639010E+03 0.90435357E+02 0.0000E+00 0.0000E+00
       25  1    1    2    0    0 -.54147148E+03 -.54571970E+02 -.28505884E+03 0.62693940E+03 0.12500000E+03 0.0000E+00 0.9000E+01
        4  1    3    3  502    0 0.51135674E+02 0.28081574E+02 0.47555843E+02 0.75282087E+02 0.15500000E+01 0.0000E+00 0.9000E+01
       -4  1    3    3    0  502 0.32316902E+03 0.97567739E+02 0.48934632E+02 0.34110801E+03 0.15500000E+01 0.0000E+00 0.9000E+01
       21  1    1    2  503  501 0.16716679E+03 -.71077343E+02 -.51819221E+03 0.54910878E+03 0.75000000E+00 0.0000E+00 0.9000E+01
#aMCatNLO 2  0  0  2  1 0.58235225D+01 0.00000000D+00  -5  6  0 0.00000000D+00 0.00000000D+00 0.00000000D+00 0.00000000D+00 0.00000000D+00
  <mgrwgt>
 0.1647355538D-03    1    2    0
 0.504970714593587D+03 0.000000000000000D+00 0.000000000000000D+00 0.504970714593587D+03
 0.504970714593587D+03 0.000000000000000D+00 0.000000000000000D+00 -.504970714593587D+03
 0.508657287968442D+03 -.451675715888324D+03 -.927520674088472D+02 -.174623418451150D+03
 0.930452317540152D+02 0.656901411506525D+02 0.218387489876040D+02 0.621714528575791D+02
 0.408238909464716D+03 0.385985574737671D+03 0.709133184212432D+02 0.112451965593571D+03
 0.000000000000000D+00 0.000000000000000D+00 -.000000000000000D+00 -.000000000000000D+00
 0.531631180545169D+03 0.000000000000000D+00 0.000000000000000D+00 0.531631180545169D+03
 0.957593811786674D+03 0.000000000000000D+00 0.000000000000000D+00 -.957593811786674D+03
 0.585053676583473D+03 -.541471482483208D+03 -.545719696337817D+02 -.174623418451150D+03
 0.852021186421413D+02 0.510556920218671D+02 0.280611436483906D+02 0.621714528575791D+02
 0.355891570248891D+03 0.323248997681857D+03 0.975881688835185D+02 0.112451965593571D+03
 0.463077626857337D+03 0.167166792779484D+03 -.710773428981274D+02 -.425962631241505D+03
0.445452451029D-04 0.000000000000D+00 0.000000000000D+00 0.115697102738D-04 0.287574320254D-08  6 -1 1 25 4 -4 21 2 0.68129016D-01 0.17686135D+00 0.32259745D+06 0.32259745D+06 0.32259745D+06 0.10822261D+01  1  2  1  2  6  2        1 0.164735553847D-03 0.100000000000D+01
  </mgrwgt>
  </event>
  <event>
  7     66 0.14253325E-05 0.78588936E+02 0.75467711E-02 0.95259469E-01
       -1 -1    0    0    0  503 0.00000000E+00 0.00000000E+00 0.19228737E+03 0.19228763E+03 0.32000000E+00 0.0000E+00 0.9000E+01
        1 -1    0    0  501    0 0.00000000E+00 0.00000000E+00 -.12241370E+04 0.12241371E+04 0.32000000E+00 0.0000E+00 0.9000E+01
       23  2    1    2    0    0 0.44009553E+03 0.14518590E+03 -.62533888E+03 0.78345255E+03 0.89365301E+02 0.0000E+00 0.0000E+00
       25  1    1    2    0    0 -.43172019E+03 -.13499628E+03 -.40460117E+03 0.61962362E+03 0.12500000E+03 0.0000E+00 0.9000E+01
        4  1    3    3  502    0 0.23076440E+03 0.71101473E+02 -.39894201E+03 0.46633117E+03 0.15500000E+01 0.0000E+00 0.9000E+01
       -4  1    3    3    0  502 0.20933113E+03 0.74084426E+02 -.22639687E+03 0.31712138E+03 0.15500000E+01 0.0000E+00 0.9000E+01
       21  1    1    2  501  503 -.83753371E+01 -.10189615E+02 -.19096151E+01 0.13348545E+02 0.75000000E+00 0.0000E+00 0.9000E+01
#aMCatNLO 2  0  0  1  5 0.28446962D+03 0.00000000D+00  -5  6  0 0.00000000D+00 0.00000000D+00 0.00000000D+00 0.00000000D+00 0.00000000D+00
  <mgrwgt>
 0.1525615366D-02    1    2    0
 0.476359171153615D+03 0.000000000000000D+00 0.000000000000000D+00 0.476359171153615D+03
 0.476359171153615D+03 0.000000000000000D+00 0.000000000000000D+00 -.476359171153615D+03
 0.480368143645465D+03 -.435919673704423D+03 -.140105463656433D+03 0.739800686701155D+02
 0.252712724513067D+03 0.228537214492942D+03 0.683830806436909D+02 -.834159277614473D+02
 0.219637474148697D+03 0.207382459211481D+03 0.717223830127426D+02 0.943585909133188D+01
 0.000000000000000D+00 -.000000000000000D+00 -.000000000000000D+00 0.000000000000000D+00
 0.491001417947080D+03 0.000000000000000D+00 0.000000000000000D+00 0.491001417947080D+03
 0.479384531357160D+03 0.000000000000000D+00 0.000000000000000D+00 -.479384531357160D+03
 0.475083541555018D+03 -.431720191956901D+03 -.134996284218196D+03 0.739800686701155D+02
 0.255477388512350D+03 0.230770854494815D+03 0.711005749099134D+02 -.834159277614473D+02
 0.222248712141248D+03 0.209324674608189D+03 0.740853238626088D+02 0.943585909133188D+01
 0.175763070956237D+02 -.837533714610253D+01 -.101896145543261D+02 0.116168865899197D+02
0.100607990845D-03 0.000000000000D+00 0.000000000000D+00 0.185889607779D-04 0.682351744546D-06  6 -1 1 25 4 -4 21 2 0.29582204D-01 0.18832567D+00 0.22372994D+06 0.22372994D+06 0.22372994D+06 0.10941050D+01  1  2  1  1  6  1       -1 0.152561536591D-02 0.100000000000D+01
  </mgrwgt>
  </event>
  <event>
  6     66 0.14253325E-05 0.89323497E+02 0.75467711E-02 0.95312561E-01
       -1 -1    0    0    0  501 0.00000000E+00 0.00000000E+00 0.59314590E+02 0.59315453E+02 0.32000000E+00 0.0000E+00 0.9000E+01
        1 -1    0    0  501    0 -.00000000E+00 -.00000000E+00 -.40329689E+04 0.40329689E+04 0.32000000E+00 0.0000E+00 0.9000E+01
       25  1    1    2    0    0 -.41253126E+02 -.45770995E+03 -.16861300E+04 0.17521015E+04 0.12500000E+03 0.0000E+00 0.9000E+01
        4  1    1    2  503    0 0.62000323E+02 0.29933488E+03 -.11461748E+04 0.11862396E+04 0.15500000E+01 0.0000E+00 0.9000E+01
       -4  1    1    2    0  502 -.13790340E+02 0.11802495E+03 -.64117029E+03 0.65209034E+03 0.15500000E+01 0.0000E+00 0.9000E+01
       21  1    1    2  502  503 -.69568569E+01 0.40350124E+02 -.50017923E+03 0.50185293E+03 0.75000000E+00 0.0000E+00 0.9000E+01
#aMCatNLO 2  0  0  4  5 0.26561036D+01 0.00000000D+00  -5  6  0 0.00000000D+00 0.00000000D+00 0.00000000D+00 0.00000000D+00 0.00000000D+00
  <mgrwgt>
 0.2637063041D-02    1    2    0
 0.489096809537868D+03 0.000000000000000D+00 0.000000000000000D+00 0.489096809537868D+03
 0.489096809537868D+03 -.000000000000000D+00 -.000000000000000D+00 -.489096809537868D+03
 0.494525053109107D+03 -.435774423914020D+02 -.472053800872967D+03 0.647784203927091D+02
 0.363714217399803D+03 0.579912333041564D+02 0.357661206545701D+03 -.316782280263146D+02
 0.119954348566825D+03 -.144137909127544D+02 0.114392594327266D+03 -.331001923663945D+02
 0.000000000000000D+00 0.000000000000000D+00 0.000000000000000D+00 -.000000000000000D+00
 0.489096809537868D+03 0.000000000000000D+00 0.000000000000000D+00 0.489096809537868D+03
 0.489096809537868D+03 -.000000000000000D+00 -.000000000000000D+00 -.489096809537868D+03
 0.480430424100312D+03 -.412439709666957D+02 -.457662104789819D+03 0.635037408304202D+02
 0.306422439245936D+03 0.620420434961342D+02 0.299117095468197D+03 0.239678808183451D+02
 0.123403928584495D+03 -.138313339709013D+02 0.117984900279641D+03 -.334183646618993D+02
 0.679368271449918D+02 -.696673855853724D+01 0.405601090419799D+02 -.540532569868660D+02
0.310948074665D-02 0.000000000000D+00 0.000000000000D+00 0.134321727637D-06 0.111699351287D-06  6 -1 1 25 4 -4 21 2 0.91253889D-02 0.62045682D+00 0.22167406D+06 0.22167406D+06 0.22167406D+06 0.10944099D+01  1  2  1  3  6  4        4 0.263706304075D-02 0.100000000000D+01
  </mgrwgt>
  </event>
  <event>
  6     66 0.14253325E-05 0.19321902E+02 0.75467711E-02 0.94853394E-01
       -1 -1    0    0    0  501 0.00000000E+00 0.00000000E+00 0.66279949E+03 0.66279956E+03 0.32000000E+00 0.0000E+00 0.9000E+01
        1 -1    0    0  501    0 0.00000000E+00 0.00000000E+00 -.58369558E+03 0.58369566E+03 0.32000000E+00 0.0000E+00 0.9000E+01
       23  2    1    2    0    0 -.14301129E+03 -.46040989E+03 -.33854160E+03 0.59650887E+03 0.93717225E+02 0.0000E+00 0.0000E+00
       25  1    1    2    0    0 0.14301129E+03 0.46040989E+03 0.41764551E+03 0.64998636E+03 0.12500000E+03 0.0000E+00 0.9000E+01
        4  1    3    3  502    0 -.57821799E+01 -.20331777E+02 -.45705674E+02 0.50380809E+02 0.15500000E+01 0.0000E+00 0.9000E+01
       -4  1    3    3    0  502 -.13722911E+03 -.44007812E+03 -.29283593E+03 0.54612806E+03 0.15500000E+01 0.0000E+00 0.9000E+01
#aMCatNLO 1  0  0  5  1 0.21132196D+02 0.00000000D+00  -5  6  0 0.00000000D+00 0.00000000D+00 0.00000000D+00 0.00000000D+00 0.00000000D+00
  <mgrwgt>
 0.1405337094D-03    4    2    0
 0.621991344278033D+03 0.000000000000000D+00 0.000000000000000D+00 0.621991344278033D+03
 0.621991344278033D+03 -.000000000000000D+00 -.000000000000000D+00 -.621991344278033D+03
 0.624741415784179D+03 0.143011285283127D+03 0.460409892498500D+03 0.377156916637105D+03
 0.532486589026761D+02 -.574619442346064D+01 -.202168649650877D+02 -.489252419060421D+02
 0.565992613869211D+03 -.137265090859667D+03 -.440193027533412D+03 -.328231674731063D+03
 0.000000000000000D+00 0.000000000000000D+00 0.000000000000000D+00 0.000000000000000D+00
 0.621991344278033D+03 0.000000000000000D+00 0.000000000000000D+00 0.621991344278033D+03
 0.621991344278033D+03 -.000000000000000D+00 -.000000000000000D+00 -.621991344278033D+03
 0.549557205671142D+03 0.124325955485477D+03 0.400488234030381D+03 0.332476094630763D+03
 0.597041000300248D+02 -.754348815577928D+01 -.259805749108671D+02 -.532229750590817D+02
 0.528588217184411D+03 -.207356124489885D+03 -.355846459037833D+03 -.331334028697575D+03
 0.106133165670488D+03 0.905736571601878D+02 -.186612000816810D+02 0.520809091258935D+02
0.453061968662D-04 0.000000000000D+00 0.000000000000D+00 0.189412187501D-05 0.000000000000D+00  6 -1 1 25 4 -4 21 0 0.10196916D+00 0.89799332D-01 0.24018163D+06 0.24018163D+06 0.24018163D+06 0.10917705D+01  1  2  2  4  6  5       -4 0.189008198188D-03 0.100000000000D+01
0.950393342573D-05 0.000000000000D+00 -.173987725362D-06 0.189412187501D-05 0.000000000000D+00  6 -1 1 25 4 -4 21 2 0.10196916D+00 0.89799332D-01 0.24018163D+06 0.24018163D+06 0.24018163D+06 0.10917705D+01  1  2  3  4  6  5       -4 0.472595041966D-04 0.100000000000D+01
-.117922157127D-04 0.000000000000D+00 0.000000000000D+00 0.189412187501D-05 0.000000000000D+00  6 -1 1 25 4 -4 21 2 0.10196916D+00 0.89799332D-01 0.24018163D+06 0.24018163D+06 0.24018163D+06 0.10917705D+01  1  2 15  4  6  5       -4 -.586382756481D-04 0.100000000000D+01
-.745998574750D-05 0.000000000000D+00 0.000000000000D+00 0.189412187501D-05 0.000000000000D+00  6 -1 1 25 4 -4 21 2 0.10196916D+00 0.89799332D-01 0.24018163D+06 0.24018163D+06 0.24018163D+06 0.10917705D+01  1  2  4  4  6  5       -4 -.370957173149D-04 0.100000000000D+01
  </mgrwgt>
  </event>
  <event>
  7     66 0.14253325E-05 0.32756474E+02 0.75467711E-02 0.94954544E-01
       -1 -1    0    0    0  503 0.00000000E+00 0.00000000E+00 0.72550891E+03 0.72550899E+03 0.32000000E+00 0.0000E+00 0.9000E+01
        1 -1    0    0  501    0 0.00000000E+00 0.00000000E+00 -.96936684E+03 0.96936689E+03 0.32000000E+00 0.0000E+00 0.9000E+01
       23  2    1    2    0    0 0.42685237E+03 -.97750465E+02 -.32762414E+03 0.55419991E+03 0.89676456E+02 0.0000E+00 0.0000E+00
       25  1    1    2    0    0 -.46262914E+03 0.82511650E+02 -.41567518E+03 0.63972240E+03 0.12500000E+03 0.0000E+00 0.9000E+01
        4  1    3    3  502    0 0.31588044E+03 -.11048182E+03 -.23263515E+03 0.40756374E+03 0.15500000E+01 0.0000E+00 0.9000E+01
       -4  1    3    3    0  502 0.11097192E+03 0.12731358E+02 -.94988988E+02 0.14663617E+03 0.15500000E+01 0.0000E+00 0.9000E+01
       21  1    1    2  501  503 0.35776775E+02 0.15238815E+02 0.49944140E+03 0.50095356E+03 0.75000000E+00 0.0000E+00 0.9000E+01
#aMCatNLO 2  0  0  1  5 0.28446962D+03 0.00000000D+00  -5  6  0 0.00000000D+00 0.00000000D+00 0.00000000D+00 0.00000000D+00 0.00000000D+00
  <mgrwgt>
 0.4315254506D-03    1    2    0
 0.466755933232112D+03 0.000000000000000D+00 0.000000000000000D+00 0.466755933232112D+03
 0.466755933232112D+03 0.000000000000000D+00 0.000000000000000D+00 -.466755933232112D+03
 0.470817549309758D+03 -.444287191940445D+03 0.903242482407411D+02 -.222392894550454D+02
 0.346394800841412D+03 0.329008569061921D+03 -.104952949742327D+03 0.269740222097760D+02
 0.116299516313053D+03 0.115278622878524D+03 0.146287015015857D+02 -.473473275473058D+01
 0.000000000000000D+00 0.000000000000000D+00 0.000000000000000D+00 0.000000000000000D+00
 0.150426949140364D+04 0.000000000000000D+00 0.000000000000000D+00 0.150426949140364D+04
 0.467525256365805D+03 0.000000000000000D+00 0.000000000000000D+00 -.467525256365805D+03
 0.486778677769779D+03 -.462629141701029D+03 0.825116499944002D+02 -.222392894550454D+02
 0.335799257250197D+03 0.315941716053690D+03 -.110518665177699D+03 0.269740222097760D+02
 0.111743532121726D+03 0.110910650220154D+03 0.127682005201592D+02 -.473473275473058D+01
 0.103747328062774D+04 0.357767754271853D+02 0.152388146631396D+02 0.103674423503783D+04
0.236273155478D-03 0.000000000000D+00 0.000000000000D+00 0.131195776456D-04 0.977768551374D-07  6 -1 1 25 4 -4 21 2 0.11161673D+00 0.14913333D+00 0.23596020D+06 0.23596020D+06 0.23596020D+06 0.10923525D+01  1  2  1  1  6  1       -1 0.431525450580D-03 0.100000000000D+01
  </mgrwgt>
  </event>
  <event>
  6     66 0.14253325E-05 0.63789076E+02 0.75467711E-02 0.94160961E-01
       -1 -1    0    0    0  501 0.00000000E+00 0.00000000E+00 0.64278837E+03 0.64278845E+03 0.32000000E+00 0.0000E+00 0.9000E+01
        1 -1    0    0  501    0 0.00000000E+00 0.00000000E+00 -.46599388E+03 0.46599399E+03 0.32000000E+00 0.0000E+00 0.9000E+01
       25  1    1    2    0    0 -.45804200E+03 -.19965547E+03 -.68818685E+02 0.51964006E+03 0.12500000E+03 0.0000E+00 0.9000E+01
        4  1    1    2  502    0 0.30100502E+03 0.10506787E+03 0.18610257E+03 0.36916101E+03 0.15500000E+01 0.0000E+00 0.9000E+01
       -4  1    1    2    0  503 0.17093818E+03 0.91740293E+02 0.43976068E+02 0.19892823E+03 0.15500000E+01 0.0000E+00 0.9000E+01
       21  1    1    2  503  502 -.13901200E+02 0.28473156E+01 0.15534532E+02 0.21053141E+02 0.75000000E+00 0.0000E+00 0.9000E+01
#aMCatNLO 2  0  0  5  5 0.58915125D+01 0.00000000D+00  -5  6  0 0.00000000D+00 0.00000000D+00 0.00000000D+00 0.00000000D+00 0.00000000D+00
  <mgrwgt>
 0.1027222003D-01    1    2    0
 0.547298411533305D+03 0.000000000000000D+00 0.000000000000000D+00 0.547298411533305D+03
 0.547298411533305D+03 -.000000000000000D+00 -.000000000000000D+00 -.547298411533305D+03
 0.551034812881815D+03 -.470109799045806D+03 -.206924233578209D+03 -.155542609618330D+03
 0.335646266210142D+03 0.293625060244397D+03 0.100568477868149D+03 0.127783885042549D+03
 0.207915743974654D+03 0.176484738801409D+03 0.106355755710061D+03 0.277587245757809D+02
 0.000000000000000D+00 -.000000000000000D+00 0.000000000000000D+00 0.000000000000000D+00
 0.547298411533305D+03 0.000000000000000D+00 0.000000000000000D+00 0.547298411533305D+03
 0.547298411533305D+03 -.000000000000000D+00 -.000000000000000D+00 -.547298411533305D+03
 0.537386249908093D+03 -.457949917243557D+03 -.199596271811054D+03 -.153630020393250D+03
 0.344128077734703D+03 0.301219525251700D+03 0.105145162914975D+03 0.128978394346129D+03
 0.194127342853465D+03 0.170735526683600D+03 0.915740238894829D+02 0.122066916119307D+02
 0.189551525703497D+02 -.140051346917434D+02 0.287708500659622D+01 0.124449344351901D+02
0.142043908441D-02 0.000000000000D+00 0.000000000000D+00 0.215499988434D-05 0.100940845446D-05  6 -1 1 25 4 -4 21 2 0.98890533D-01 0.71691381D-01 0.27146302D+06 0.27146302D+06 0.27146302D+06 0.10877783D+01  1  2  1  4  6  5       -4 0.102722200284D-01 0.100000000000D+01
  </mgrwgt>
  </event>
  <event>
  7     66 0.14253325E-05 0.61199853E+02 0.75467711E-02 0.94142856E-01
       -1 -1    0    0    0  503 0.00000000E+00 0.00000000E+00 0.45707169E+03 0.45707180E+03 0.32000000E+00 0.0000E+00 0.9000E+01
        1 -1    0    0  501    0 0.00000000E+00 0.00000000E+00 -.94832708E+03 0.94832713E+03 0.32000000E+00 0.0000E+00 0.9000E+01
       23  2    1    2    0    0 -.51281775E+03 -.82956824E+01 -.35248011E+03 0.62913101E+03 0.92264474E+02 0.0000E+00 0.0000E+00
       25  1    1    2    0    0 0.49544354E+03 0.14704072E+02 -.31409740E+03 0.59996891E+03 0.12500000E+03 0.0000E+00 0.9000E+01
        4  1    3    3  502    0 -.18936137E+03 -.19579114E+02 -.18174874E+03 0.26320349E+03 0.15500000E+01 0.0000E+00 0.9000E+01
       -4  1    3    3    0  502 -.32345637E+03 0.11283432E+02 -.17073137E+03 0.36592752E+03 0.15500000E+01 0.0000E+00 0.9000E+01
       21  1    1    2  501  503 0.17374207E+02 -.64083894E+01 0.17532213E+03 0.17629901E+03 0.75000000E+00 0.0000E+00 0.9000E+01
#aMCatNLO 2  0  0  1  5 0.28446962D+03 0.00000000D+00  -5  6  0 0.00000000D+00 0.00000000D+00 0.00000000D+00 0.00000000D+00 0.00000000D+00
  <mgrwgt>
 0.1023681100D-02    1    2    0
 0.516240759868133D+03 0.000000000000000D+00 0.000000000000000D+00 0.516240759868133D+03
 0.516240759868133D+03 0.000000000000000D+00 0.000000000000000D+00 -.516240759868133D+03
 0.519685018767962D+03 0.504117835255976D+03 0.115046020381727D+02 0.134302286141895D+02
 0.192886949004941D+03 -.186052414877351D+03 -.207943535390168D+02 -.464485616099727D+02
 0.319909551963363D+03 -.318065420378625D+03 0.928975150084412D+01 0.330183329957832D+02
 0.000000000000000D+00 0.000000000000000D+00 -.000000000000000D+00 0.000000000000000D+00
 0.839066424755268D+03 0.000000000000000D+00 0.000000000000000D+00 0.839066424755268D+03
 0.516589426474132D+03 0.000000000000000D+00 0.000000000000000D+00 -.516589426474132D+03
 0.511356904452468D+03 0.495443541649373D+03 0.147040718342518D+02 0.134302286141895D+02
 0.195919725098443D+03 -.189323497431244D+03 -.195878311054554D+02 -.464485616099727D+02
 0.325370947859659D+03 -.323494251532840D+03 0.112921487096152D+02 0.330183329957832D+02
 0.323008273818831D+03 0.173742073147111D+02 -.640838943841162D+01 0.322476998281136D+03
0.204302415387D-03 0.000000000000D+00 0.000000000000D+00 0.310710229390D-04 0.639521683174D-06  6 -1 1 25 4 -4 21 2 0.70318675D-01 0.14589636D+00 0.27234009D+06 0.27234009D+06 0.27234009D+06 0.10876737D+01  1  2  1  1  6  1       -1 0.102368110020D-02 0.100000000000D+01
  </mgrwgt>
  </event>
  <event>
  7     66 0.14253325E-05 0.29978593E+02 0.75467711E-02 0.93432611E-01
       -1 -1    0    0    0  501 0.00000000E+00 0.00000000E+00 0.76032546E+03 0.76032553E+03 0.32000000E+00 0.0000E+00 0.9000E+01
        1 -1    0    0  503    0 0.00000000E+00 0.00000000E+00 -.16881685E+04 0.16881685E+04 0.32000000E+00 0.0000E+00 0.9000E+01
       23  2    1    2    0    0 0.49563173E+03 0.16227445E+03 0.37796600E+03 0.65046666E+03 0.90910812E+02 0.0000E+00 0.0000E+00
       25  1    1    2    0    0 -.50703335E+03 -.10522416E+03 -.43614389E+02 0.53449243E+03 0.12500000E+03 0.0000E+00 0.9000E+01
        4  1    3    3  502    0 0.35564921E+03 0.11974111E+03 0.21933966E+03 0.43466836E+03 0.15500000E+01 0.0000E+00 0.9000E+01
       -4  1    3    3    0  502 0.13998252E+03 0.42533347E+02 0.15862633E+03 0.21579830E+03 0.15500000E+01 0.0000E+00 0.9000E+01
       21  1    1    2  503  501 0.11401626E+02 -.57050298E+02 -.12621946E+04 0.12635350E+04 0.75000000E+00 0.0000E+00 0.9000E+01
#aMCatNLO 2  0  0  2  5 0.73285196D+02 0.00000000D+00  -5  6  0 0.00000000D+00 0.00000000D+00 0.00000000D+00 0.00000000D+00 0.00000000D+00
  <mgrwgt>
 0.1212081044D-02    1    2    0
 0.567660180703534D+03 0.000000000000000D+00 0.000000000000000D+00 0.567660180703534D+03
 0.567660180703534D+03 0.000000000000000D+00 0.000000000000000D+00 -.567660180703534D+03
 0.570901655346198D+03 -.501308480910930D+03 -.133869693455051D+03 -.202663297659087D+03
 0.386692928975410D+03 0.359602547300289D+03 0.100296228109158D+03 0.100787379774458D+03
 0.177725777085460D+03 0.141705933610641D+03 0.335734653458926D+02 0.101875917884629D+03
 0.000000000000000D+00 0.000000000000000D+00 -.000000000000000D+00 -.000000000000000D+00
 0.568906376944590D+03 0.000000000000000D+00 0.000000000000000D+00 0.568906376944590D+03
 0.225618360324431D+04 0.000000000000000D+00 0.000000000000000D+00 -.225618360324431D+04
 0.569958206330269D+03 -.507033353556548D+03 -.105224156572351D+03 -.202663297659087D+03
 0.388628878088223D+03 0.355711956743192D+03 0.119763570388662D+03 0.100787379774458D+03
 0.178222950986121D+03 0.139919771080928D+03 0.425108841830680D+02 0.101875917884629D+03
 0.168827994478428D+04 0.114016257324282D+02 -.570502979993785D+02 -.168727722629972D+04
0.244324072297D-02 0.000000000000D+00 0.000000000000D+00 0.409497110955D-04 0.159684533909D-06  6 -1 1 25 4 -4 21 2 0.11697314D+00 0.25971820D+00 0.30938952D+06 0.30938952D+06 0.30938952D+06 0.10835630D+01  1  2  1  2  6  2        1 0.121208104444D-02 0.100000000000D+01
  </mgrwgt>
  </event>
  <event>
  7     66 0.14253325E-05 0.73727581E+02 0.75467711E-02 0.92975840E-01
       -1 -1    0    0    0  501 0.00000000E+00 0.00000000E+00 0.11293708E+04 0.11293708E+04 0.32000000E+00 0.0000E+00 0.9000E+01
        1 -1    0    0  503    0 0.00000000E+00 0.00000000E+00 -.41054459E+03 0.41054471E+03 0.32000000E+00 0.0000E+00 0.9000E+01
       23  2    1    2    0    0 0.47853933E+03 -.29338686E+03 0.64127313E+03 0.85738425E+03 0.93812488E+02 0.0000E+00 0.0000E+00
       25  1    1    2    0    0 -.47138320E+03 0.30725322E+03 0.16034158E+03 0.59828177E+03 0.12500000E+03 0.0000E+00 0.9000E+01
        4  1    3    3  502    0 0.25222585E+03 -.20364879E+03 0.33561954E+03 0.46661932E+03 0.15500000E+01 0.0000E+00 0.9000E+01
       -4  1    3    3    0  502 0.22631348E+03 -.89738070E+02 0.30565359E+03 0.39076493E+03 0.15500000E+01 0.0000E+00 0.9000E+01
       21  1    1    2  503  501 -.71561326E+01 -.13866359E+02 -.82788499E+02 0.84249535E+02 0.75000000E+00 0.0000E+00 0.9000E+01
#aMCatNLO 2  0  0  2  1 0.31133327D+01 0.00000000D+00  -5  6  0 0.00000000D+00 0.00000000D+00 0.00000000D+00 0.00000000D+00 0.00000000D+00
  <mgrwgt>
 0.4184258933D-03    1    2    0
 0.607481261686237D+03 0.000000000000000D+00 0.000000000000000D+00 0.607481261686237D+03
 0.607481261686237D+03 0.000000000000000D+00 0.000000000000000D+00 -.607481261686237D+03
 0.610289668562012D+03 -.474979658277092D+03 0.300284391957108D+03 -.202613147953083D+03
 0.338485515647751D+03 0.250241888562754D+03 -.207537933818426D+03 0.942308205326086D+02
 0.266187339162711D+03 0.224737769714338D+03 -.927464581386823D+02 0.108382327420474D+03
 0.000000000000000D+00 -.000000000000000D+00 -.000000000000000D+00 -.000000000000000D+00
 0.607923685459100D+03 0.000000000000000D+00 0.000000000000000D+00 0.607923685459100D+03
 0.762687540684356D+03 0.000000000000000D+00 0.000000000000000D+00 -.762687540684356D+03
 0.610969511840692D+03 -.471383196629027D+03 0.307253215786581D+03 -.202613147953083D+03
 0.337618727277655D+03 0.252232934377429D+03 -.203679906435776D+03 0.942308205326086D+02
 0.266474483269306D+03 0.226306394823984D+03 -.897069506690307D+02 0.108382327420474D+03
 0.155548503755803D+03 -.715613257238573D+01 -.138663586817743D+02 -.154763855225256D+03
0.221601207777D-03 0.000000000000D+00 0.000000000000D+00 0.786162497019D-05 0.206579916895D-06  6 -1 1 25 4 -4 21 2 0.17374911D+00 0.63160625D-01 0.33619076D+06 0.33619076D+06 0.33619076D+06 0.10809111D+01  1  2  1  2  6  2        1 0.418425893273D-03 0.100000000000D+01
  </mgrwgt>
  </event>
  <event>
  7     66 0.14253325E-05 0.25543476E+02 0.75467711E-02 0.94598953E-01
       -1 -1    0    0    0  503 0.00000000E+00 0.00000000E+00 0.88854302E+03 0.88854308E+03 0.32000000E+00 0.0000E+00 0.9000E+01
        1 -1    0    0  501    0 0.00000000E+00 0.00000000E+00 -.51898243E+03 0.51898253E+03 0.32000000E+00 0.0000E+00 0.9000E+01
       23  2    1    2    0    0 -.45425682E+03 0.18127579E+03 0.50006514E+03 0.70519017E+03 0.89542555E+02 0.0000E+00 0.0000E+00
       25  1    1    2    0    0 0.43588138E+03 -.16957702E+03 -.27461537E+03 0.55658561E+03 0.12500000E+03 0.0000E+00 0.9000E+01
        4  1    3    3  502    0 -.69397380E+02 -.35645666E+01 0.56970048E+02 0.89870414E+02 0.15500000E+01 0.0000E+00 0.9000E+01
       -4  1    3    3    0  502 -.38485944E+03 0.18484035E+03 0.44309509E+03 0.61531976E+03 0.15500000E+01 0.0000E+00 0.9000E+01
       21  1    1    2  501  503 0.18375443E+02 -.11698766E+02 0.14411083E+03 0.14574982E+03 0.75000000E+00 0.0000E+00 0.9000E+01
#aMCatNLO 2  0  0  1  2 0.13885059D+02 0.00000000D+00  -5  6  0 0.00000000D+00 0.00000000D+00 0.00000000D+00 0.00000000D+00 0.00000000D+00
  <mgrwgt>
 0.4859247290D-03    1    2    0
 0.620639995624237D+03 0.000000000000000D+00 0.000000000000000D+00 0.620639995624237D+03
 0.620639995624237D+03 0.000000000000000D+00 0.000000000000000D+00 -.620639995624237D+03
 0.623704224067495D+03 0.445053462245808D+03 -.175416450310208D+03 -.380182119283932D+03
 0.798760858687084D+02 -.681131558250131D+02 -.437844115617827D+01 0.414923649639863D+02
 0.537699681312271D+03 -.376940306420795D+03 0.179794891466386D+03 0.338689754319946D+03
 0.000000000000000D+00 0.000000000000000D+00 -.000000000000000D+00 0.000000000000000D+00
 0.741715707154354D+03 0.000000000000000D+00 0.000000000000000D+00 0.741715707154354D+03
 0.621716128609854D+03 0.000000000000000D+00 0.000000000000000D+00 -.621716128609854D+03
 0.615558596435451D+03 0.435881377403165D+03 -.169577022781626D+03 -.380182119283932D+03
 0.808554406315544D+02 -.693027688542733D+02 -.362107146427087D+01 0.414923649639863D+02
 0.545057080079393D+03 -.384954051943637D+03 0.184896859777404D+03 0.338689754319946D+03
 0.121960718617808D+03 0.183754433947452D+02 -.116987655315071D+02 0.119999578544500D+03
0.170037880956D-03 0.000000000000D+00 0.000000000000D+00 0.569355017896D-05 0.775243167611D-07  6 -1 1 25 4 -4 21 2 0.13669869D+00 0.79843315D-01 0.25118046D+06 0.25118046D+06 0.25118046D+06 0.10903052D+01  1  2  1  1  6  1       -1 0.485924728997D-03 0.100000000000D+01
  </mgrwgt>
  </event>
  <event>
  7     66 0.14253325E-05 0.28724358E+02 0.75467711E-02 0.94847215E-01
       -1 -1    0    0    0  503 0.00000000E+00 0.00000000E+00 0.66010659E+03 0.66010667E+03 0.32000000E+00 0.0000E+00 0.9000E+01
        1 -1    0    0  501    0 0.00000000E+00 0.00000000E+00 -.60903396E+03 0.60903404E+03 0.32000000E+00 0.0000E+00 0.9000E+01
       23  2    1    2    0    0 -.25542941E+03 0.35332697E+03 -.24634802E+03 0.50897719E+03 0.91029137E+02 0.0000E+00 0.0000E+00
       25  1    1    2    0    0 0.28805211E+03 -.38600717E+03 0.40627416E+02 0.49925058E+03 0.12500000E+03 0.0000E+00 0.9000E+01
        4  1    3    3  502    0 -.23014194E+03 0.30189723E+03 -.24464575E+03 0.45162063E+03 0.15500000E+01 0.0000E+00 0.9000E+01
       -4  1    3    3    0  502 -.25287465E+02 0.51429746E+02 -.17022660E+01 0.57356559E+02 0.15500000E+01 0.0000E+00 0.9000E+01
       21  1    1    2  501  503 -.32622704E+02 0.32680193E+02 0.25679323E+03 0.26091294E+03 0.75000000E+00 0.0000E+00 0.9000E+01
#aMCatNLO 2  0  0  1  2 0.10558027D+03 0.00000000D+00  -5  6  0 0.00000000D+00 0.00000000D+00 0.00000000D+00 0.00000000D+00 0.00000000D+00
  <mgrwgt>
 0.3926082588D-03    1    2    0
 0.492968059825849D+03 0.000000000000000D+00 0.000000000000000D+00 0.492968059825849D+03
 0.492968059825849D+03 0.000000000000000D+00 0.000000000000000D+00 -.492968059825849D+03
 0.496689749398952D+03 0.271266859360634D+03 -.369192333291448D+03 0.145557614742165D+03
 0.428513429140592D+03 -.244073410861142D+03 0.315866375980752D+03 -.155821569717492D+03
 0.607329411121529D+02 -.271934484994919D+02 0.533259573106959D+02 0.102639549753276D+02
 0.000000000000000D+00 -.000000000000000D+00 0.000000000000000D+00 0.000000000000000D+00
 0.811875406618269D+03 0.000000000000000D+00 0.000000000000000D+00 0.811875406618269D+03
 0.495182780264885D+03 0.000000000000000D+00 0.000000000000000D+00 -.495182780264885D+03
 0.518447269034109D+03 0.288052112405632D+03 -.386007165863732D+03 0.145557614742165D+03
 0.410437409943141D+03 -.230201389773712D+03 0.301969909159608D+03 -.155821569717492D+03
 0.581321739213488D+02 -.252280182198043D+02 0.513570634848568D+02 0.102639549753276D+02
 0.320041333984554D+03 -.326227044121149D+02 0.326801932192665D+02 0.316692626353384D+03
0.832183556915D-04 0.000000000000D+00 0.000000000000D+00 0.285375710484D-04 0.960172516676D-07  6 -1 1 25 4 -4 21 2 0.10155478D+00 0.93697462D-01 0.24044226D+06 0.24044226D+06 0.24044226D+06 0.10917350D+01  1  2  1  1  6  1       -1 0.392608258828D-03 0.100000000000D+01
  </mgrwgt>
  </event>
  <event>
  6     66 0.14253325E-05 0.12354712E+03 0.75467711E-02 0.88930848E-01
       -1 -1    0    0    0  501 0.00000000E+00 0.00000000E+00 0.72183483E+03 0.72183490E+03 0.32000000E+00 0.0000E+00 0.9000E+01
        1 -1    0    0  501    0 -.00000000E+00 -.00000000E+00 -.12520554E+04 0.12520554E+04 0.32000000E+00 0.0000E+00 0.9000E+01
       25  1    1    2    0    0 0.39385465E+03 -.67875649E+03 -.65434969E+03 0.10293835E+04 0.12500000E+03 0.0000E+00 0.9000E+01
        4  1    1    2  502    0 -.25393927E+03 0.20678623E+03 -.51697750E+02 0.33154300E+03 0.15500000E+01 0.0000E+00 0.9000E+01
       -4  1    1    2    0  503 -.24206020E+03 0.30424497E+03 0.92569370E+02 0.39966190E+03 0.15500000E+01 0.0000E+00 0.9000E+01
       21  1    1    2  503  502 0.10214482E+03 0.16772528E+03 0.83257529E+02 0.21330193E+03 0.75000000E+00 0.0000E+00 0.9000E+01
#aMCatNLO 2  0  0  5  5 0.15162557D+03 0.00000000D+00  -5  6  0 0.00000000D+00 0.00000000D+00 0.00000000D+00 0.00000000D+00 0.00000000D+00
  <mgrwgt>
 0.2093690742D-02    1    2    0
 0.950672021948139D+03 0.000000000000000D+00 0.000000000000000D+00 0.950672021948139D+03
 0.950672021948139D+03 -.000000000000000D+00 -.000000000000000D+00 -.950672021948139D+03
 0.923167779464887D+03 0.402758938712809D+03 -.708789660208322D+03 -.414748362155697D+03
 0.319742054802332D+03 -.250743645848291D+03 0.196008267001557D+03 0.307142465798944D+02
 0.658434209629060D+03 -.152015292864518D+03 0.512781393206765D+03 0.384034115575802D+03
 0.000000000000000D+00 0.000000000000000D+00 0.000000000000000D+00 0.000000000000000D+00
 0.950672021948139D+03 0.000000000000000D+00 0.000000000000000D+00 0.950672021948139D+03
 0.950672021948139D+03 -.000000000000000D+00 -.000000000000000D+00 -.950672021948139D+03
 0.886148344346044D+03 0.393846920369459D+03 -.678727440175892D+03 -.392234054430525D+03
 0.329785676819848D+03 -.253942977895661D+03 0.206800325574530D+03 0.387966745389029D+02
 0.440190836547103D+03 -.242086669711564D+03 0.303731656473752D+03 0.207145112864662D+03
 0.245219186183284D+03 0.102182727237766D+03 0.168195458127610D+03 0.146292267026961D+03
0.208757513234D-02 0.000000000000D+00 0.000000000000D+00 0.220979370846D-09 0.133435207057D-11  6 -1 1 25 4 -4 21 2 0.11105152D+00 0.19262391D+00 0.72873297D+06 0.72873297D+06 0.72873297D+06 0.10571367D+01  1  2  1  4  6  5       -4 0.209369074208D-02 0.100000000000D+01
  </mgrwgt>
  </event>
  <event>
  6     66 0.14253325E-05 0.59943685E+02 0.75467711E-02 0.91488780E-01
       -1 -1    0    0    0  501 0.00000000E+00 0.00000000E+00 0.39793428E+03 0.39793441E+03 0.32000000E+00 0.0000E+00 0.9000E+01
        1 -1    0    0  501    0 -.00000000E+00 -.00000000E+00 -.11493152E+04 0.11493153E+04 0.32000000E+00 0.0000E+00 0.9000E+01
       25  1    1    2    0    0 -.58005373E+03 0.28028671E+03 -.46904929E+03 0.80663201E+03 0.12500000E+03 0.0000E+00 0.9000E+01
        4  1    1    2  502    0 0.21251585E+03 -.53561389E+02 -.11096597E+03 0.24565760E+03 0.15500000E+01 0.0000E+00 0.9000E+01
       -4  1    1    2    0  503 0.38061779E+03 -.22661891E+03 -.18117337E+03 0.47859401E+03 0.15500000E+01 0.0000E+00 0.9000E+01
       21  1    1    2  503  502 -.13079917E+02 -.10640276E+00 0.98076631E+01 0.16366071E+02 0.75000000E+00 0.0000E+00 0.9000E+01
#aMCatNLO 2  0  0  5  5 0.15162557D+03 0.00000000D+00  -5  6  0 0.00000000D+00 0.00000000D+00 0.00000000D+00 0.00000000D+00 0.00000000D+00
  <mgrwgt>
 0.2752542259D-02    1    2    0
 0.676278097741510D+03 0.000000000000000D+00 0.000000000000000D+00 0.676278097741510D+03
 0.676278097741510D+03 -.000000000000000D+00 -.000000000000000D+00 -.676278097741510D+03
 0.677841959200629D+03 -.593486527658205D+03 0.288573077983534D+03 -.913457267980401D+02
 0.214474765503148D+03 0.208182179886062D+03 -.508521155874402D+02 0.858296893851070D+01
 0.460239470779242D+03 0.385304347772144D+03 -.237720962396094D+03 0.827627578595294D+02
 0.000000000000000D+00 -.000000000000000D+00 0.000000000000000D+00 0.000000000000000D+00
 0.676278097741510D+03 0.000000000000000D+00 0.000000000000000D+00 0.676278097741510D+03
 0.676278097741510D+03 -.000000000000000D+00 -.000000000000000D+00 -.676278097741510D+03
 0.662125115147873D+03 -.580013030214626D+03 0.280260343394245D+03 -.884516410891932D+02
 0.219391953123004D+03 0.212544751352309D+03 -.535436883492698D+02 0.952004231438505D+01
 0.446802268095761D+03 0.380592265610348D+03 -.226612044517710D+03 0.585557461962684D+02
 0.242368591163808D+02 -.131239867480310D+02 -.104610527264768D+00 0.203758525785398D+02
0.625534721990D-03 0.000000000000D+00 0.000000000000D+00 0.231791666282D-06 0.208576561457D-06  6 -1 1 25 4 -4 21 2 0.61220671D-01 0.17681774D+00 0.44318901D+06 0.44318901D+06 0.44318901D+06 0.10722322D+01  1  2  1  4  6  5       -4 0.275254225883D-02 0.100000000000D+01
  </mgrwgt>
  </event>
  <event>
  7     66 0.14253325E-05 0.67020816E+02 0.75467711E-02 0.92301770E-01
       -1 -1    0    0    0  503 0.00000000E+00 0.00000000E+00 0.49580267E+03 0.49580277E+03 0.32000000E+00 0.0000E+00 0.9000E+01
        1 -1    0    0  501    0 0.00000000E+00 0.00000000E+00 -.15232387E+04 0.15232388E+04 0.32000000E+00 0.0000E+00 0.9000E+01
       23  2    1    2    0    0 -.25868624E+03 -.55028857E+03 -.82077883E+03 0.10255463E+04 0.91275671E+02 0.0000E+00 0.0000E+00
       25  1    1    2    0    0 0.24594215E+03 0.54372016E+03 -.44493068E+03 0.75478968E+03 0.12500000E+03 0.0000E+00 0.9000E+01
        4  1    3    3  502    0 -.13502443E+03 -.34089073E+03 -.42807330E+03 0.56363751E+03 0.15500000E+01 0.0000E+00 0.9000E+01
       -4  1    3    3    0  502 -.12366181E+03 -.20939784E+03 -.39270553E+03 0.46190880E+03 0.15500000E+01 0.0000E+00 0.9000E+01
       21  1    1    2  501  503 0.12744094E+02 0.65684121E+01 0.23827343E+03 0.23870557E+03 0.75000000E+00 0.0000E+00 0.9000E+01
#aMCatNLO 2  0  0  1  2 0.22739386D+03 0.00000000D+00  -5  6  0 0.00000000D+00 0.00000000D+00 0.00000000D+00 0.00000000D+00 0.00000000D+00
  <mgrwgt>
 0.3843757779D-03    1    2    0
 0.625973263096911D+03 0.000000000000000D+00 0.000000000000000D+00 0.625973263096911D+03
 0.625973263096911D+03 0.000000000000000D+00 0.000000000000000D+00 -.625973263096911D+03
 0.628886227799677D+03 0.252316166917525D+03 0.547005385149604D+03 0.130363139136369D+03
 0.365612166299476D+03 -.131290136548810D+03 -.339002307992120D+03 -.388920476088161D+02
 0.257448132094668D+03 -.121026030368715D+03 -.208003077157484D+03 -.914710915275531D+02
 0.000000000000000D+00 0.000000000000000D+00 0.000000000000000D+00 0.000000000000000D+00
 0.120623210332204D+04 0.000000000000000D+00 0.000000000000000D+00 0.120623210332204D+04
 0.626102877478052D+03 0.000000000000000D+00 0.000000000000000D+00 -.626102877478052D+03
 0.623489135211500D+03 0.245942146255596D+03 0.543720161826363D+03 0.130363139136369D+03
 0.368751193736652D+03 -.135027711854491D+03 -.340928685426058D+03 -.388920476088161D+02
 0.259788289102525D+03 -.123658528366668D+03 -.209359888545454D+03 -.914710915275531D+02
 0.580306362749420D+03 0.127440939655641D+02 0.656841214514871D+01 0.580129225843992D+03
0.240569005691D-03 0.000000000000D+00 0.000000000000D+00 0.363890478263D-04 0.133502519514D-05  6 -1 1 25 4 -4 21 2 0.76277315D-01 0.23434434D+00 0.38062247D+06 0.38062247D+06 0.38062247D+06 0.10769857D+01  1  2  1  1  6  1       -1 0.384375777916D-03 0.100000000000D+01
  </mgrwgt>
  </event>
</LesHouchesEvents>
