<event>
 5    0  0.1007465E+001  0.3703639E+03  0.7546771E-02  0.1054554E+00
         21   -1    0    0  502  501  0.00000000000E+00  0.00000000000E+00  0.28289215480E+03  0.28289215480E+03  0.00000000000E+00 0.  1.
         21   -1    0    0  503  502 -0.00000000000E+00 -0.00000000000E+00 -0.54215044145E+03  0.54215044145E+03  0.00000000000E+00 0.  1.
         25    1    1    2    0    0 -0.34672193333E+03 -0.36445897996E+02  0.18316820563E+02  0.37081654285E+03  0.12500000000E+03 0.  0.
         21    1    1    2  503  504  0.28742264584E+02 -0.21299918387E+02 -0.35851222361E+02  0.50646958857E+02  0.00000000000E+00 0. -1.
         21    1    1    2  504  501  0.31797966875E+03  0.57745816383E+02 -0.24172388485E+03  0.40357909455E+03  0.00000000000E+00 0.  1.
<mgrwt>
<rscale>  4 0.37036388E+03</rscale>
<asrwt>0</asrwt>
<pdfrwt beam="1">  1       21 0.43521870E-01 0.37036388E+03</pdfrwt>
<pdfrwt beam="2">  1       21 0.83407760E-01 0.37036388E+03</pdfrwt>
<totfact> 0.57579978E+03</totfact>
</mgrwt>
</event>
<event>
 5    0  0.2923213E+000  0.2650653E+03  0.7546771E-02  0.1104138E+00
         21   -1    0    0  502  501  0.00000000000E+00  0.00000000000E+00  0.84835579319E+02  0.84835579319E+02  0.00000000000E+00 0. -1.
         21   -1    0    0  503  502 -0.00000000000E+00 -0.00000000000E+00 -0.11488197083E+04  0.11488197083E+04  0.00000000000E+00 0. -1.
         25    1    1    2    0    0  0.16454562347E+03 -0.16601003955E+03 -0.19812504490E+03  0.33092767918E+03  0.12500000000E+03 0.  0.
         21    1    1    2  503  504 -0.37816397988E+02  0.54651631012E+02 -0.11210092810E+03  0.13032075356E+03  0.00000000000E+00 0.  1.
         21    1    1    2  504  501 -0.12672922548E+03  0.11135840854E+03 -0.75375815599E+03  0.77240685488E+03  0.00000000000E+00 0. -1.
<mgrwt>
<rscale>  4 0.26506527E+03</rscale>
<asrwt>0</asrwt>
<pdfrwt beam="1">  1       21 0.13051629E-01 0.26506527E+03</pdfrwt>
<pdfrwt beam="2">  1       21 0.17674147E+00 0.26506527E+03</pdfrwt>
<totfact> 0.91859570E+03</totfact>
</mgrwt>
</event>
<event>
 5    0  0.2159162E+000  0.2633624E+03  0.7546771E-02  0.1105140E+00
         21   -1    0    0  502  501  0.00000000000E+00  0.00000000000E+00  0.19315015234E+03  0.19315015234E+03  0.00000000000E+00 0.  1.
         21   -1    0    0  503  502 -0.00000000000E+00 -0.00000000000E+00 -0.96161961296E+03  0.96161961296E+03  0.00000000000E+00 0.  1.
         25    1    1    2    0    0  0.16786272915E+03  0.15986507167E+03  0.79630827038E+02  0.27513779382E+03  0.12500000000E+03 0.  0.
         21    1    1    2  503  504 -0.14895634142E+03 -0.15178459972E+03 -0.76299389064E+03  0.79207716387E+03  0.00000000000E+00 0.  1.
         21    1    1    2  504  501 -0.18906387725E+02 -0.80804719468E+01 -0.85106397014E+02  0.87554807615E+02  0.00000000000E+00 0. -1.
<mgrwt>
<rscale>  4 0.26336237E+03</rscale>
<asrwt>0</asrwt>
<pdfrwt beam="1">  1       21 0.29715408E-01 0.26336237E+03</pdfrwt>
<pdfrwt beam="2">  1       21 0.14794148E+00 0.26336237E+03</pdfrwt>
<totfact> 0.31842389E+03</totfact>
</mgrwt>
</event>
<event>
 5    0  0.2159162E+000  0.2357028E+03  0.7546771E-02  0.1122689E+00
         21   -1    0    0  502  501  0.00000000000E+00  0.00000000000E+00  0.14248857324E+04  0.14248857324E+04  0.00000000000E+00 0.  1.
         21   -1    0    0  503  502 -0.00000000000E+00 -0.00000000000E+00 -0.30623057974E+03  0.30623057974E+03  0.00000000000E+00 0.  1.
         25    1    1    2    0    0 -0.19875856739E+03 -0.83453886557E+02  0.13174055500E+04  0.13407654166E+04  0.12500000000E+03 0.  0.
         21    1    1    2  503  504  0.10420470628E+03 -0.13967643297E+02 -0.22835746681E+03  0.25139778941E+03  0.00000000000E+00 0.  1.
         21    1    1    2  504  501  0.94553861103E+02  0.97421529853E+02  0.29607069465E+02  0.13895310609E+03  0.00000000000E+00 0.  1.
<mgrwt>
<rscale>  4 0.23570276E+03</rscale>
<asrwt>0</asrwt>
<pdfrwt beam="1">  1       21 0.21921319E+00 0.23570276E+03</pdfrwt>
<pdfrwt beam="2">  1       21 0.47112398E-01 0.23570276E+03</pdfrwt>
<totfact> 0.41698619E+02</totfact>
</mgrwt>
</event>
<event>
 5    0  0.2159162E+000  0.2992520E+03  0.7546771E-02  0.1085615E+00
         21   -1    0    0  502  501  0.00000000000E+00  0.00000000000E+00  0.44788194669E+03  0.44788194669E+03  0.00000000000E+00 0. -1.
         21   -1    0    0  503  502 -0.00000000000E+00 -0.00000000000E+00 -0.70814035702E+03  0.70814035702E+03  0.00000000000E+00 0.  1.
         25    1    1    2    0    0 -0.14444693125E+03  0.25696885063E+03  0.34237219594E+03  0.46876606820E+03  0.12500000000E+03 0.  0.
         21    1    1    2  503  504  0.68922412834E+02 -0.17000840965E+03 -0.21375059340E+03  0.28167796243E+03  0.00000000000E+00 0.  1.
         21    1    1    2  504  501  0.75524518414E+02 -0.86960440983E+02 -0.38888001287E+03  0.40557827307E+03  0.00000000000E+00 0.  1.
<mgrwt>
<rscale>  4 0.29925203E+03</rscale>
<asrwt>0</asrwt>
<pdfrwt beam="1">  1       21 0.68904915E-01 0.29925203E+03</pdfrwt>
<pdfrwt beam="2">  1       21 0.10894467E+00 0.29925203E+03</pdfrwt>
<totfact> 0.11782539E+03</totfact>
</mgrwt>
</event>
<event>
 5    0  0.2159162E+000  0.2846785E+03  0.7546771E-02  0.1093161E+00
         21   -1    0    0  502  501  0.00000000000E+00  0.00000000000E+00  0.14818102107E+03  0.14818102107E+03  0.00000000000E+00 0. -1.
         21   -1    0    0  503  502 -0.00000000000E+00 -0.00000000000E+00 -0.17126217317E+04  0.17126217317E+04  0.00000000000E+00 0. -1.
         25    1    1    2    0    0 -0.75868549898E+01  0.38417439831E+03 -0.27504757326E+03  0.48879821628E+03  0.12500000000E+03 0.  0.
         21    1    1    2  503  504 -0.20501595489E+02 -0.14510380987E+03 -0.15886288495E+03  0.21613155085E+03  0.00000000000E+00 0. -1.
         21    1    1    2  504  501  0.28088450479E+02 -0.23907058844E+03 -0.11305302524E+04  0.11558729856E+04  0.00000000000E+00 0. -1.
<mgrwt>
<rscale>  4 0.28467852E+03</rscale>
<asrwt>0</asrwt>
<pdfrwt beam="1">  1       21 0.22797081E-01 0.28467852E+03</pdfrwt>
<pdfrwt beam="2">  1       21 0.26348025E+00 0.28467852E+03</pdfrwt>
<totfact> 0.90903609E+02</totfact>
</mgrwt>
</event>
<event>
 5    0  0.2159162E+000  0.2217906E+03  0.7546771E-02  0.1132555E+00
         21   -1    0    0  502  501  0.00000000000E+00  0.00000000000E+00  0.10463134260E+04  0.10463134260E+04  0.00000000000E+00 0.  1.
         21   -1    0    0  503  502 -0.00000000000E+00 -0.00000000000E+00 -0.21626539066E+03  0.21626539066E+03  0.00000000000E+00 0. -1.
         25    1    1    2    0    0 -0.27981843188E+03 -0.12291338950E+03  0.78667031289E+03  0.85315956147E+03  0.12500000000E+03 0.  0.
         21    1    1    2  503  504  0.16767491958E+03  0.53514278234E+02 -0.10967796937E+03  0.20738349403E+03  0.00000000000E+00 0. -1.
         21    1    1    2  504  501  0.11214351230E+03  0.69399111270E+02  0.15305569183E+03  0.20203576119E+03  0.00000000000E+00 0.  1.
<mgrwt>
<rscale>  4 0.22179060E+03</rscale>
<asrwt>0</asrwt>
<pdfrwt beam="1">  1       21 0.16097129E+00 0.22179060E+03</pdfrwt>
<pdfrwt beam="2">  1       21 0.33271599E-01 0.22179060E+03</pdfrwt>
<totfact> 0.20968320E+03</totfact>
</mgrwt>
</event>
<event>
 5    0  0.2159162E+000  0.4383667E+03  0.7546771E-02  0.1031249E+00
         21   -1    0    0  502  501  0.00000000000E+00  0.00000000000E+00  0.13631979696E+04  0.13631979696E+04  0.00000000000E+00 0.  1.
         21   -1    0    0  503  502 -0.00000000000E+00 -0.00000000000E+00 -0.48025940772E+03  0.48025940772E+03  0.00000000000E+00 0.  1.
         25    1    1    2    0    0  0.35176659594E+03 -0.23065739469E+03  0.11866993985E+04  0.12652363551E+04  0.12500000000E+03 0.  0.
         21    1    1    2  503  504 -0.38070679547E+03  0.17584818822E+03 -0.30096322045E+03  0.51617740117E+03  0.00000000000E+00 0.  1.
         21    1    1    2  504  501  0.28940199530E+02  0.54809206466E+02 -0.27976161702E+01  0.62043621095E+02  0.00000000000E+00 0. -1.
<mgrwt>
<rscale>  4 0.43836669E+03</rscale>
<asrwt>0</asrwt>
<pdfrwt beam="1">  1       21 0.20972276E+00 0.43836669E+03</pdfrwt>
<pdfrwt beam="2">  1       21 0.73886063E-01 0.43836669E+03</pdfrwt>
<totfact> 0.15455833E+02</totfact>
</mgrwt>
</event>
<event>
 5    0  0.2159162E+000  0.3258598E+03  0.7546771E-02  0.1072984E+00
         21   -1    0    0  502  501  0.00000000000E+00  0.00000000000E+00  0.24769324031E+03  0.24769324031E+03  0.00000000000E+00 0. -1.
         21   -1    0    0  503  502 -0.00000000000E+00 -0.00000000000E+00 -0.46775617592E+03  0.46775617592E+03  0.00000000000E+00 0.  1.
         25    1    1    2    0    0  0.26596436668E+03 -0.14079264794E+03  0.12473391310E+02  0.32609845070E+03  0.12500000000E+03 0.  0.
         21    1    1    2  503  504 -0.19574455806E+03  0.84625405942E+02 -0.11796526332E+03  0.24370719048E+03  0.00000000000E+00 0.  1.
         21    1    1    2  504  501 -0.70219808623E+02  0.56167242003E+02 -0.11457106359E+03  0.14564377505E+03  0.00000000000E+00 0.  1.
<mgrwt>
<rscale>  4 0.32585981E+03</rscale>
<asrwt>0</asrwt>
<pdfrwt beam="1">  1       21 0.38106653E-01 0.32585981E+03</pdfrwt>
<pdfrwt beam="2">  1       21 0.71962487E-01 0.32585981E+03</pdfrwt>
<totfact> 0.10785386E+04</totfact>
</mgrwt>
</event>
