<event>
 5    0  0.2349231E+000  0.5061779E+03  0.7546771E-02  0.1012179E+00
         21   -1    0    0  504  501  0.00000000000E+00  0.00000000000E+00  0.15991555450E+04  0.15991555450E+04  0.00000000000E+00 0. -1.
         21   -1    0    0  503  502 -0.00000000000E+00 -0.00000000000E+00 -0.77189477085E+02  0.77189477085E+02  0.00000000000E+00 0. -1.
         25    1    1    2    0    0  0.66209854893E+02 -0.19201508633E+03  0.55128101733E+03  0.60065738847E+03  0.12500000000E+03 0.  0.
         21    1    1    2  503  501 -0.58380284381E+02  0.22439223515E+03  0.20563485168E+03  0.30991260869E+03  0.00000000000E+00 0. -1.
         21    1    1    2  504  502 -0.78295705122E+01 -0.32377148824E+02  0.76505019889E+03  0.76577502491E+03  0.00000000000E+00 0. -1.
<mgrwt>
<rscale>  4 0.50617792E+03</rscale>
<asrwt>0</asrwt>
<pdfrwt beam="1">  1       21 0.24602391E+00 0.50617792E+03</pdfrwt>
<pdfrwt beam="2">  1       21 0.11875305E-01 0.50617792E+03</pdfrwt>
<totfact> 0.34517416E+03</totfact>
</mgrwt>
</event>
<event>
 5    0  0.2349231E+000  0.5341385E+03  0.7546771E-02  0.1005233E+00
         21   -1    0    0  503  501  0.00000000000E+00  0.00000000000E+00  0.88016251086E+03  0.88016251086E+03  0.00000000000E+00 0. -1.
         21   -1    0    0  504  502 -0.00000000000E+00 -0.00000000000E+00 -0.21445865164E+03  0.21445865164E+03  0.00000000000E+00 0. -1.
         25    1    1    2    0    0 -0.20440057891E+03  0.16618387463E+02  0.12890057838E+03  0.27257315820E+03  0.12500000000E+03 0.  0.
         21    1    1    2  503  502 -0.62398523640E+02  0.55201768535E+02  0.53934300461E+03  0.54573957858E+03  0.00000000000E+00 0. -1.
         21    1    1    2  504  501  0.26679910255E+03 -0.71820155998E+02 -0.25397237732E+01  0.27630842573E+03  0.00000000000E+00 0. -1.
<mgrwt>
<rscale>  4 0.53413849E+03</rscale>
<asrwt>0</asrwt>
<pdfrwt beam="1">  1       21 0.13540962E+00 0.53413849E+03</pdfrwt>
<pdfrwt beam="2">  1       21 0.32993639E-01 0.53413849E+03</pdfrwt>
<totfact> 0.28990578E+03</totfact>
</mgrwt>
</event>
<event>
 5    0  0.7151389E+000  0.4892153E+03  0.7546771E-02  0.1016633E+00
         21   -1    0    0  504  501  0.00000000000E+00  0.00000000000E+00  0.68337927072E+03  0.68337927072E+03  0.00000000000E+00 0.  1.
         21   -1    0    0  501  502 -0.00000000000E+00 -0.00000000000E+00 -0.48762325847E+03  0.48762325847E+03  0.00000000000E+00 0.  1.
         25    1    1    2    0    0 -0.34121624960E+03  0.16322519995E+03 -0.32579529783E+03  0.51462468944E+03  0.12500000000E+03 0.  0.
         21    1    1    2  503  502  0.48808254604E+02  0.10536371019E+02  0.28840873570E+02  0.57663305663E+02  0.00000000000E+00 0. -1.
         21    1    1    2  504  503  0.29240799500E+03 -0.17376157097E+03  0.49271043651E+03  0.59871453409E+03  0.00000000000E+00 0.  1.
<mgrwt>
<rscale>  4 0.48921531E+03</rscale>
<asrwt>0</asrwt>
<pdfrwt beam="1">  1       21 0.10513527E+00 0.48921531E+03</pdfrwt>
<pdfrwt beam="2">  1       21 0.75018963E-01 0.48921531E+03</pdfrwt>
<totfact> 0.96796609E+02</totfact>
</mgrwt>
</event>
<event>
 5    0  0.2349231E+000  0.5951961E+03  0.7546771E-02  0.9915423E-01
         21   -1    0    0  503  501  0.00000000000E+00  0.00000000000E+00  0.24925140539E+03  0.24925140539E+03  0.00000000000E+00 0. -1.
         21   -1    0    0  504  502 -0.00000000000E+00 -0.00000000000E+00 -0.18158857720E+04  0.18158857720E+04  0.00000000000E+00 0.  1.
         25    1    1    2    0    0  0.67492114598E+02  0.20881623358E+03 -0.15976521814E+04  0.16174909267E+04  0.12500000000E+03 0.  0.
         21    1    1    2  503  502 -0.87773535840E+02 -0.15532323910E+03 -0.16526803549E+03  0.24319339167E+03  0.00000000000E+00 0.  1.
         21    1    1    2  504  501  0.20281421242E+02 -0.53492994479E+02  0.19628585037E+03  0.20445285902E+03  0.00000000000E+00 0. -1.
<mgrwt>
<rscale>  4 0.59519614E+03</rscale>
<asrwt>0</asrwt>
<pdfrwt beam="1">  1       21 0.38346370E-01 0.59519614E+03</pdfrwt>
<pdfrwt beam="2">  1       21 0.27936704E+00 0.59519614E+03</pdfrwt>
<totfact> 0.21630928E+02</totfact>
</mgrwt>
</event>
<event>
 5    0  0.2349231E+000  0.3862617E+03  0.7546771E-02  0.1048643E+00
         21   -1    0    0  504  501  0.00000000000E+00  0.00000000000E+00  0.17148986855E+04  0.17148986855E+04  0.00000000000E+00 0.  1.
         21   -1    0    0  501  502 -0.00000000000E+00 -0.00000000000E+00 -0.37231393715E+03  0.37231393715E+03  0.00000000000E+00 0.  1.
         25    1    1    2    0    0 -0.26074551990E+03 -0.40414770555E+02 -0.28753273170E+03  0.40978244426E+03  0.12500000000E+03 0.  0.
         21    1    1    2  503  502  0.29621814278E+02  0.40800174248E+02  0.25963330341E+02  0.56711556337E+02  0.00000000000E+00 0. -1.
         21    1    1    2  504  503  0.23112370562E+03 -0.38540369341E+00  0.16041541497E+04  0.16207186221E+04  0.00000000000E+00 0.  1.
<mgrwt>
<rscale>  4 0.38626170E+03</rscale>
<asrwt>0</asrwt>
<pdfrwt beam="1">  1       21 0.26383056E+00 0.38626170E+03</pdfrwt>
<pdfrwt beam="2">  1       21 0.57279068E-01 0.38626170E+03</pdfrwt>
<totfact> 0.12937846E+02</totfact>
</mgrwt>
</event>
